FOO
138240
    1MOL0     O    1   5.808   7.114   6.485 -0.5190  0.2119  0.5444
    1MOL0     C    2   5.828   7.027   6.568 -0.2037  0.0367  0.3627
    1MOL0     O    3   5.949   6.963   6.587 -0.4705  0.1785  0.0126
    1MOL0     C    4   6.050   6.999   6.502 -0.0241  0.1605  0.5590
    1MOL0     C    5   6.090   7.138   6.479  0.3330  0.0474 -0.0842
    1MOL0     C    6   6.200   7.174   6.399  1.2762 -0.1144 -0.7273
    1MOL0     C    7   6.269   7.075   6.330 -0.2775 -0.1127  0.4464
    1MOL0     O    8   6.384   7.096   6.260 -0.1851 -0.1982 -0.1413
    1MOL0     C    9   6.429   7.235   6.226  0.6698 -0.2836 -0.4767
    1MOL0     C   10   6.521   7.211   6.107 -0.1954  0.3043  0.5632
    1MOL0     C   11   6.672   7.197   6.155  0.4210  0.6060  0.6184
    1MOL0     C   12   6.768   7.151   6.038  0.6026  0.5396 -0.1024
    1MOL0     C   13   6.916   7.168   6.088 -0.0851 -0.1126  0.4894
    1MOL0     C   14   7.004   7.053   6.020 -0.4701  0.3310 -0.4060
    1MOL0     C   15   7.001   7.049   5.863  0.0369 -0.7785  1.3461
    1MOL0     C   16   7.073   7.173   5.798  1.4290  0.7425 -0.3675
    1MOL0     N   17   7.213   7.179   5.843  0.1897  0.7735  0.1120
    1MOL0     C   18   7.319   7.145   5.761 -0.1995  0.1051  0.2456
    1MOL0     C   19   7.424   7.212   5.816  1.3191 -0.1246 -0.3635
    1MOL0     C   20   7.563   7.231   5.766 -0.7033  0.5717 -0.3663
    1MOL0     C   21   7.665   7.132   5.837  0.3281 -0.4397 -0.6010
    1MOL0     C   22   7.814   7.165   5.800 -0.0399  0.2620  0.0100
    1MOL0     C   23   7.910   7.145   5.915  0.1578 -0.3733 -0.3015
    1MOL0     O   24   7.897   7.028   5.986  0.1086 -1.1352 -0.3309
    1MOL0     C   25   7.916   6.906   5.924 -1.1816  0.4176 -0.1008
    1MOL0     C   26   8.019   6.888   5.827 -0.4053 -0.8178  0.9747
    1MOL0     C   27   8.053   6.766   5.769  0.0244  0.0466 -0.7044
    1MOL0     C   28   7.986   6.647   5.816  0.0579 -0.3440  0.3662
    1MOL0     C   29   8.015   6.517   5.752  0.6033  0.4302 -0.6110
    1MOL0     O   30   7.913   6.427   5.785  0.1888  0.2190  0.4340
    1MOL0     C   31   7.948   6.301   5.758  0.3567  0.4925 -0.2803
    1MOL0     C   32   8.045   6.222   5.821  0.2784  0.6610  0.1108
    1MOL0     C   33   8.039   6.078   5.799  0.5267  0.4432 -0.3114
    1MOL0     C   34   7.940   6.025   5.717 -0.3385  0.4253  0.9084
    1MOL0     O   35   7.935   5.886   5.718  0.1459  0.3918 -0.6123
    1MOL0     C   36   7.812   5.825   5.691  0.6091 -0.6729  0.2929
    1MOL0     C   37   7.819   5.673   5.724  0.0081 -0.4805 -0.8659
    1MOL0     C   38   7.877   5.650   5.863  0.5568  0.0904  1.0249
    1MOL0     C   39   7.866   5.494   5.892  0.2308 -0.1709  0.3266
    1MOL0     C   40   7.907   5.468   6.037 -0.5047  0.3968 -0.1851
    1MOL0     C   41   8.055   5.453   6.061  0.9358 -0.0583  0.1307
    1MOL0     C   42   8.086   5.435   6.210 -0.1824 -1.2372  0.4021
    1MOL0     C   43   8.233   5.462   6.233 -0.5522  0.1802 -0.4722
    1MOL0    Cl   44   8.258   5.449   6.411 -0.4489 -0.2269  0.0507
    1MOL0     C   45   7.868   6.106   5.624 -0.0767  1.0705  0.0257
    1MOL0     C   46   7.866   6.240   5.651  0.5260 -0.7790 -0.1288
    1MOL0     O   47   8.103   6.507   5.667 -0.4586  0.2090  0.1021
    1MOL0     C   48   7.879   6.662   5.906 -1.0821 -0.0386 -0.5367
    1MOL0     C   49   7.855   6.792   5.967  0.5104 -0.0196  0.0497
    1MOL0     N   50   7.374   7.275   5.933  0.3472  1.0004  1.0744
    1MOL0     N   51   7.252   7.266   5.940 -0.4543 -0.2586 -0.2631
    1MOL0     C   52   6.232   6.943   6.347  0.1922 -0.5888 -0.8959
    1MOL0     C   53   6.122   6.908   6.425 -0.2378  1.5775 -0.3401
    1MOL0     C   54   5.718   7.007   6.671 -0.4157  0.0475 -0.4815
    1MOL0     C   55   5.749   6.928   6.778  0.7552  0.0701 -0.0606
    1MOL0     C   56   5.656   6.894   6.885  0.0910  0.4091 -0.1529
    1MOL0     C   57   5.534   6.956   6.891  0.4412 -0.3043 -1.0854
    1MOL0     O   58   5.450   6.924   6.994 -0.2286  0.0112  0.0844
    1MOL0     C   59   5.416   6.781   6.999 -0.1111  0.2083 -0.1588
    1MOL0     C   60   5.307   6.739   6.905  0.1629 -0.1957 -0.3674
    1MOL0     C   61   5.185   6.834   6.897 -0.5409 -0.9289  0.1661
    1MOL0     C   62   5.059   6.761   6.878  0.4269 -0.2902  0.5743
    1MOL0     C   63   4.949   6.858   6.890 -0.1058 -0.9309  0.5406
    1MOL0     C   64   4.867   6.950   6.898 -0.6235  0.1962 -0.4178
    1MOL0     C   65   5.498   7.033   6.783 -0.0822 -1.0327  0.0924
    1MOL0     C   66   5.591   7.069   6.679 -0.5841 -0.2922  0.7038
    1MOL0     C   67   5.540   7.163   6.570 -0.3203 -0.1923 -1.0621
    1MOL0     H   68   6.055   7.227   6.529 -1.3937  1.0265 -2.8238
    1MOL0     H   69   6.230   7.278   6.394  0.9830  0.0531  0.6686
    1MOL0     H   70   6.349   7.295   6.181 -0.2356 -1.3773 -0.3641
    1MOL0     H   71   6.473   7.278   6.316 -3.0895  0.4052  1.2268
    1MOL0     H   72   6.504   7.299   6.044 -1.9569 -1.8577 -2.1956
    1MOL0     H   73   6.498   7.123   6.048  3.4696 -0.7199  0.3912
    1MOL0     H   74   6.670   7.119   6.231  0.4938  1.1238  1.1630
    1MOL0     H   75   6.703   7.291   6.202 -1.6972  1.1898  0.9637
    1MOL0     H   76   6.744   7.046   6.017 -3.0650  1.1191  0.5713
    1MOL0     H   77   6.748   7.210   5.948  1.5813  0.1348 -0.6113
    1MOL0     H   78   6.962   7.264   6.064 -1.2436  0.6681  1.2682
    1MOL0     H   79   6.914   7.153   6.196 -0.2139  0.6993  0.6056
    1MOL0     H   80   7.108   7.056   6.054 -0.9130  0.0750  1.0765
    1MOL0     H   81   6.963   6.959   6.058 -0.9797  1.4087  1.8737
    1MOL0     H   82   6.896   7.046   5.833  0.0243  1.4967  1.0007
    1MOL0     H   83   7.041   6.959   5.816 -3.5877  0.0117 -4.1991
    1MOL0     H   84   7.070   7.157   5.690  2.5109  2.2171 -0.6593
    1MOL0     H   85   7.023   7.267   5.823 -0.9587 -0.7279  0.7348
    1MOL0     H   86   7.310   7.079   5.676  0.5356 -0.9006  0.9257
    1MOL0     H   87   7.558   7.215   5.658 -1.2620 -3.1630  0.0816
    1MOL0     H   88   7.591   7.336   5.775  1.4620 -0.0813  1.3853
    1MOL0     H   89   7.649   7.139   5.945  0.1203 -1.0581 -0.5863
    1MOL0     H   90   7.649   7.029   5.804 -0.0100 -0.5220 -0.1946
    1MOL0     H   91   7.824   7.266   5.760  1.6285 -0.7005 -2.1901
    1MOL0     H   92   7.837   7.094   5.720 -2.0335 -0.9735  0.4318
    1MOL0     H   93   7.891   7.227   5.985 -0.5266 -0.3637 -0.4859
    1MOL0     H   94   8.015   7.157   5.886  0.4477  0.0168  0.8696
    1MOL0     H   95   8.097   6.955   5.792  1.8838 -3.8477 -0.2683
    1MOL0     H   96   8.140   6.766   5.704  0.6052  1.5296  0.0323
    1MOL0     H   97   8.120   6.255   5.893 -0.4036 -0.5510  1.4194
    1MOL0     H   98   8.106   6.008   5.847 -0.3355 -0.4009 -0.2844
    1MOL0     H   99   7.728   5.877   5.738  1.7473  0.9826  0.5630
    1MOL0     H  100   7.795   5.831   5.583  0.8344 -1.9696  0.1729
    1MOL0     H  101   7.713   5.646   5.718  0.3347 -2.5243  1.1708
    1MOL0     H  102   7.874   5.615   5.649 -0.7532 -2.6823  0.1896
    1MOL0     H  103   7.976   5.696   5.867 -0.4286  2.9140 -2.4127
    1MOL0     H  104   7.812   5.699   5.937  0.4539 -1.8137  2.2796
    1MOL0     H  105   7.930   5.439   5.823  2.0576  1.9551  0.2303
    1MOL0     H  106   7.763   5.458   5.878  0.7921 -0.8355 -2.7544
    1MOL0     H  107   7.864   5.370   6.058 -0.4566  0.2381 -0.8361
    1MOL0     H  108   7.861   5.538   6.108  2.1629  0.7252  1.3582
    1MOL0     H  109   8.081   5.361   6.008  0.9729  0.4987 -0.8315
    1MOL0     H  110   8.121   5.532   6.024  1.8189 -0.2122  1.3135
    1MOL0     H  111   8.050   5.337   6.244 -3.2343 -0.7941 -1.2498
    1MOL0     H  112   8.034   5.512   6.268  0.9960  0.8204 -1.1511
    1MOL0     H  113   8.291   5.389   6.175 -1.7620 -1.2508  0.0526
    1MOL0     H  114   8.265   5.565   6.216  0.5422 -0.4532 -2.5634
    1MOL0     H  115   7.811   6.060   5.545  2.1634  0.9259 -1.6216
    1MOL0     H  116   7.793   6.308   5.606  2.0806  0.5033 -0.7973
    1MOL0     H  117   7.821   6.578   5.944 -2.2396  0.9902  0.0649
    1MOL0     H  118   7.787   6.809   6.050  2.6287  2.1332  1.4686
    1MOL0     H  119   6.281   6.870   6.283 -0.5181  1.2877 -3.7575
    1MOL0     H  120   6.085   6.806   6.430  0.6357  1.0326 -3.0452
    1MOL0     H  121   5.848   6.883   6.784 -1.1355 -4.3968  2.1745
    1MOL0     H  122   5.703   6.835   6.963  2.4530  1.9720 -0.2762
    1MOL0     H  123   5.389   6.758   7.103  0.8466  1.4493  0.3889
    1MOL0     H  124   5.502   6.724   6.965 -0.5270 -0.7521  0.3378
    1MOL0     H  125   5.282   6.637   6.936 -1.4404  0.3541  0.2804
    1MOL0     H  126   5.358   6.745   6.808  0.8056  2.6538  0.0701
    1MOL0     H  127   5.200   6.903   6.813  0.6616  0.6789  1.6460
    1MOL0     H  128   5.183   6.888   6.992  0.4978 -1.4439  0.4998
    1MOL0     H  129   5.044   6.709   6.783 -0.9143 -1.3389  1.3181
    1MOL0     H  130   5.052   6.691   6.962  0.0767 -2.0723 -0.8702
    1MOL0     H  131   4.795   7.025   6.923 -0.1614  1.0156 -1.4860
    1MOL0     H  132   5.396   7.071   6.786  0.5557  0.9587 -1.2387
    1MOL0     H  133   5.607   7.250   6.573  0.3841 -0.7434  1.2469
    1MOL0     H  134   5.549   7.123   6.469  1.5205 -2.0861 -0.2168
    1MOL0     H  135   5.442   7.204   6.596 -1.3015 -2.3754 -1.1477
    2MOL0     O  136   7.382   8.005   9.655 -0.5325  0.3495 -0.7603
    2MOL0     C  137   7.309   7.983   9.750  0.8022 -0.6076 -0.8563
    2MOL0     O  138   7.326   8.019   9.881  0.2680 -0.0709 -0.1844
    2MOL0     C  139   7.432   8.099   9.900  0.4656  0.2233 -0.1218
    2MOL0     C  140   7.419   8.240   9.895 -0.2220  0.7172  0.1814
    2MOL0     C  141   7.534   8.322   9.910  0.3214  0.2796 -0.1716
    2MOL0     C  142   7.661   8.269   9.951  0.1643 -1.3265  0.4559
    2MOL0     O  143   7.772   8.355   9.980  0.7438 -0.7874  0.2765
    2MOL0     C  144   7.830   8.428   9.867  0.1732  0.4897 -0.6707
    2MOL0     C  145   7.958   8.364   9.824 -0.6862  0.5588  0.5912
    2MOL0     C  146   8.050   8.464   9.748  0.3660 -0.9784  0.8024
    2MOL0     C  147   8.172   8.381   9.686 -0.0337 -0.1184  0.0506
    2MOL0     C  148   8.274   8.469   9.607  0.8865  0.1627 -0.7422
    2MOL0     C  149   8.368   8.383   9.514 -0.5092  0.0749 -0.2215
    2MOL0     C  150   8.492   8.320   9.585 -0.0284 -0.0998  0.7433
    2MOL0     C  151   8.592   8.426   9.627  0.0427 -0.0467  0.6597
    2MOL0     N  152   8.724   8.374   9.593  1.0415 -0.1670  0.6529
    2MOL0     C  153   8.805   8.299   9.677 -0.9568  0.0962 -0.0099
    2MOL0     C  154   8.920   8.262   9.598 -0.1028 -0.0166  0.9497
    2MOL0     C  155   9.038   8.179   9.654 -0.0257  0.0722 -1.4768
    2MOL0     C  156   9.151   8.266   9.716  1.4624  0.4120 -0.2285
    2MOL0     C  157   9.105   8.361   9.821 -0.2591  0.0760 -0.5065
    2MOL0     C  158   9.211   8.468   9.860  0.0706  0.1221 -0.0654
    2MOL0     O  159   9.347   8.408   9.884 -0.1732  0.2930  0.7009
    2MOL0     C  160   9.454   8.475   9.829  0.1284  0.9880  0.0235
    2MOL0     C  161   9.456   8.613   9.834  0.3403  0.1870 -0.5223
    2MOL0     C  162   9.553   8.683   9.751  0.3427 -0.1538 -0.0980
    2MOL0     C  163   9.643   8.619   9.663  0.4411  0.4986 -0.3316
    2MOL0     C  164   9.742   8.684   9.575 -0.8754 -0.1346 -0.0873
    2MOL0     O  165   9.752   8.818   9.590  0.2553 -0.5097 -0.1902
    2MOL0     C  166   9.829   8.887   9.491  0.6959  0.5212 -0.2912
    2MOL0     C  167   9.964   8.873   9.477 -0.2248  0.0756 -0.4779
    2MOL0     C  168  10.041   8.936   9.379  1.0782 -0.3180  0.8730
    2MOL0     C  169   9.973   9.027   9.287 -0.8916 -0.0295  0.1551
    2MOL0     O  170  10.048   9.104   9.196 -0.3401 -0.8420 -0.1549
    2MOL0     C  171  10.010   9.242   9.166  0.3856 -0.1463  0.3943
    2MOL0     C  172  10.047   9.267   9.021  0.3330 -0.4161 -1.0812
    2MOL0     C  173  10.194   9.281   8.993 -0.7316 -0.9558 -0.8671
    2MOL0     C  174  10.267   9.140   9.005 -0.0283  0.0206 -0.1455
    2MOL0     C  175  10.410   9.128   8.943 -0.5162  0.2288  0.5948
    2MOL0     C  176  10.514   9.204   9.020  0.2788 -0.5267  0.1099
    2MOL0     C  177  10.651   9.169   8.971  0.8922  0.3569 -0.9009
    2MOL0     C  178  10.762   9.260   9.022 -0.3199 -0.6307 -0.2758
    2MOL0    Cl  179  10.789   9.243   9.200  0.6399  0.3996 -0.1081
    2MOL0     C  180   9.829   9.042   9.302 -0.1206 -0.0945  0.4551
    2MOL0     C  181   9.758   8.971   9.399 -0.4120 -0.9285 -0.3390
    2MOL0     O  182   9.805   8.616   9.496  0.0930  0.1393  0.1828
    2MOL0     C  183   9.632   8.473   9.662  0.3197  0.2279  0.1049
    2MOL0     C  184   9.546   8.405   9.747 -0.9852 -0.7276  1.5775
    2MOL0     N  185   8.899   8.325   9.474 -0.5478  0.2124 -0.5924
    2MOL0     N  186   8.794   8.394   9.482  0.0432  0.5293  0.5450
    2MOL0     C  187   7.670   8.132   9.955  0.1301  0.3306  0.4215
    2MOL0     C  188   7.562   8.050   9.926  0.7545  0.1945 -0.6009
    2MOL0     C  189   7.182   7.902   9.733  0.1799 -0.2325  0.2314
    2MOL0     C  190   7.126   7.831   9.851 -0.3132  0.5207  0.5683
    2MOL0     C  191   7.011   7.748   9.828 -0.5040  0.1048  0.5405
    2MOL0     C  192   6.949   7.725   9.706  0.1542 -0.1193  0.7626
    2MOL0     O  193   6.841   7.646   9.693  0.0989  0.9756  0.7623
    2MOL0     C  194   6.749   7.649   9.800  0.4416  0.7409  0.4051
    2MOL0     C  195   6.620   7.566   9.770  0.1031  0.7884  0.5455
    2MOL0     C  196   6.651   7.427   9.717  0.0877 -0.3429 -0.5177
    2MOL0     C  197   6.535   7.325   9.688 -0.9065 -0.2847 -0.5765
    2MOL0     C  198   6.570   7.208   9.606 -0.1334 -0.5044 -0.4044
    2MOL0     C  199   6.610   7.099   9.560  0.6597 -0.6032  0.1763
    2MOL0     C  200   7.006   7.795   9.595 -0.0515 -0.1467  0.1066
    2MOL0     C  201   7.116   7.887   9.608 -0.6481  0.6467  0.1162
    2MOL0     C  202   7.157   7.969   9.481 -1.3254 -0.4754 -0.2042
    2MOL0     H  203   7.326   8.290   9.869  0.6474  2.4407  0.3098
    2MOL0     H  204   7.518   8.429   9.899  0.5400  0.7726  3.1808
    2MOL0     H  205   7.762   8.435   9.782  0.5617 -2.2509 -1.3024
    2MOL0     H  206   7.866   8.523   9.907  0.8471 -1.2707  3.3802
    2MOL0     H  207   7.936   8.278   9.760 -1.0433 -0.7964  2.4159
    2MOL0     H  208   8.006   8.331   9.917 -2.1137 -1.6922  0.6133
    2MOL0     H  209   8.062   8.560   9.799 -1.3312 -1.2334  1.7457
    2MOL0     H  210   7.991   8.504   9.666  0.9650 -0.3652  0.6669
    2MOL0     H  211   8.222   8.339   9.773 -1.0023  1.4166  1.4231
    2MOL0     H  212   8.130   8.303   9.622 -0.5905  0.7269 -0.6413
    2MOL0     H  213   8.219   8.544   9.549  0.1673  0.4962  0.3557
    2MOL0     H  214   8.335   8.524   9.678 -0.8535  1.0316  0.1348
    2MOL0     H  215   8.303   8.305   9.475  1.2794 -0.8210 -1.4984
    2MOL0     H  216   8.405   8.437   9.427  2.4065 -3.5512 -1.5089
    2MOL0     H  217   8.544   8.249   9.520 -0.9961  1.7433 -2.2439
    2MOL0     H  218   8.454   8.269   9.675 -2.4163  0.7723  0.3022
    2MOL0     H  219   8.576   8.518   9.570 -1.6258  1.5466  3.4776
    2MOL0     H  220   8.584   8.435   9.736  2.0531 -0.3387  0.8781
    2MOL0     H  221   8.777   8.264   9.776 -0.1233  0.1367  0.2437
    2MOL0     H  222   9.004   8.109   9.731  1.2550  0.2547 -0.7223
    2MOL0     H  223   9.076   8.111   9.577  2.3989 -1.4803  0.8924
    2MOL0     H  224   9.221   8.196   9.762  0.3644 -0.6948 -0.1967
    2MOL0     H  225   9.196   8.327   9.636  1.4160  2.6899  1.3794
    2MOL0     H  226   9.087   8.301   9.911 -1.0861  0.6403 -0.2845
    2MOL0     H  227   9.011   8.409   9.793 -1.0110 -1.7831 -1.2683
    2MOL0     H  228   9.179   8.504   9.958 -0.0389 -3.0899  1.2158
    2MOL0     H  229   9.220   8.545   9.783 -1.7176  1.0806  0.6189
    2MOL0     H  230   9.387   8.665   9.900 -2.1685 -2.5642 -0.7731
    2MOL0     H  231   9.546   8.791   9.762 -3.2301 -0.2684 -0.2348
    2MOL0     H  232  10.011   8.807   9.548  0.4184  1.7100  0.6591
    2MOL0     H  233  10.143   8.908   9.358  1.8754  2.7321  0.2514
    2MOL0     H  234   9.901   9.250   9.165  0.4846  2.0131  0.6388
    2MOL0     H  235  10.033   9.314   9.245 -3.2815 -0.8533  2.3441
    2MOL0     H  236  10.010   9.178   8.970  0.3325 -0.7700 -0.4729
    2MOL0     H  237   9.994   9.353   8.979  1.2885  0.1073 -1.2661
    2MOL0     H  238  10.205   9.321   8.892 -0.7614 -1.9603 -1.2863
    2MOL0     H  239  10.243   9.351   9.060 -0.5339  1.7026 -3.5803
    2MOL0     H  240  10.204   9.069   8.951 -2.7093  3.2982 -1.6576
    2MOL0     H  241  10.281   9.125   9.113 -0.8084 -0.1007 -0.0590
    2MOL0     H  242  10.414   9.163   8.839  2.7041 -0.6568  0.3031
    2MOL0     H  243  10.438   9.023   8.940  2.2809  0.8758  0.5601
    2MOL0     H  244  10.493   9.311   9.027  0.3388 -0.4782 -0.4252
    2MOL0     H  245  10.504   9.166   9.122 -0.4834  1.0833  0.6559
    2MOL0     H  246  10.648   9.180   8.862 -3.3367 -0.2518 -0.9979
    2MOL0     H  247  10.665   9.066   9.005 -1.1035  1.0135  2.2845
    2MOL0     H  248  10.857   9.232   8.976 -0.4894 -0.8733 -0.4840
    2MOL0     H  249  10.740   9.365   9.003  0.0827  0.4660  4.2344
    2MOL0     H  250   9.768   9.102   9.235 -0.3161 -0.4112  0.3501
    2MOL0     H  251   9.650   8.979   9.406 -0.3720 -1.5340  1.3484
    2MOL0     H  252   9.686   8.408   9.594 -2.2534  0.8902 -2.8225
    2MOL0     H  253   9.546   8.297   9.737  0.7949 -0.5774 -0.6087
    2MOL0     H  254   7.766   8.086   9.974 -0.8312 -1.5372  0.9926
    2MOL0     H  255   7.565   7.942   9.927  3.2176  0.1699 -1.8303
    2MOL0     H  256   7.164   7.836   9.952  0.3150 -1.6924  0.4890
    2MOL0     H  257   6.953   7.705   9.910 -1.8065  0.1246 -0.3412
    2MOL0     H  258   6.729   7.753   9.826 -0.2417  0.8303 -0.4691
    2MOL0     H  259   6.792   7.599   9.888 -0.7968  1.8032  1.6705
    2MOL0     H  260   6.556   7.606   9.690  1.2137  0.7653 -0.3726
    2MOL0     H  261   6.565   7.547   9.863 -0.9429 -1.4704 -0.4313
    2MOL0     H  262   6.717   7.381   9.792 -1.1300 -0.4301  0.5291
    2MOL0     H  263   6.709   7.442   9.625 -1.5029  1.2074 -1.3179
    2MOL0     H  264   6.504   7.279   9.783  0.5518 -0.9984 -0.4234
    2MOL0     H  265   6.451   7.372   9.635 -1.2984 -1.8058 -1.3768
    2MOL0     H  266   6.628   7.001   9.520 -0.4969 -0.4169 -0.8387
    2MOL0     H  267   6.965   7.774   9.496  0.4658  1.2904 -0.4497
    2MOL0     H  268   7.135   8.076   9.490  0.8218 -0.1244  1.9124
    2MOL0     H  269   7.262   7.956   9.452 -1.4403 -2.2604  0.0590
    2MOL0     H  270   7.104   7.935   9.392 -0.7816 -0.4657 -0.5339
    3MOL0     O  271   8.139   6.537   3.826 -0.5157  0.5438  0.8297
    3MOL0     C  272   8.045   6.530   3.748  0.5503  0.1906  0.4207
    3MOL0     O  273   8.052   6.462   3.625 -0.0912 -0.2195  0.0269
    3MOL0     C  274   8.163   6.399   3.573 -0.3686 -0.4032  0.2437
    3MOL0     C  275   8.174   6.406   3.440 -0.1738 -0.1910  0.1632
    3MOL0     C  276   8.278   6.353   3.369 -0.6785 -0.4692 -0.3888
    3MOL0     C  277   8.385   6.295   3.442 -0.9251 -0.4557  0.9122
    3MOL0     O  278   8.485   6.221   3.381  0.6063  0.7194 -0.4817
    3MOL0     C  279   8.619   6.244   3.431 -0.2478  0.5291  0.4723
    3MOL0     C  280   8.717   6.248   3.320 -0.3365  0.8170  0.6814
    3MOL0     C  281   8.848   6.299   3.373  0.3246 -0.2351 -0.4775
    3MOL0     C  282   8.960   6.272   3.270 -0.1839 -0.7256  0.3290
    3MOL0     C  283   9.096   6.301   3.345  0.6009 -0.3181 -0.0711
    3MOL0     C  284   9.192   6.190   3.332 -1.2282  0.0971 -0.5039
    3MOL0     C  285   9.333   6.227   3.370 -0.2185 -0.1031 -0.2384
    3MOL0     C  286   9.388   6.355   3.305 -0.2990 -0.3194  0.4220
    3MOL0     N  287   9.534   6.340   3.315  0.0042  0.7847  0.0428
    3MOL0     C  288   9.616   6.319   3.424  0.2538  0.1677 -0.4368
    3MOL0     C  289   9.748   6.336   3.378 -0.0006  0.8711  0.8173
    3MOL0     C  290   9.854   6.336   3.480 -0.3955  0.0779  0.2824
    3MOL0     C  291   9.846   6.443   3.590  0.4373 -0.3359 -0.7467
    3MOL0     C  292   9.987   6.461   3.653  0.0717 -0.7222 -0.1744
    3MOL0     C  293  10.069   6.339   3.716  0.2467  0.3927 -0.1212
    3MOL0     O  294  10.160   6.407   3.796 -0.0709  0.2592 -0.4556
    3MOL0     C  295  10.279   6.360   3.838  0.7455  0.0424 -0.6848
    3MOL0     C  296  10.372   6.446   3.903  0.2324  0.3110  1.2121
    3MOL0     C  297  10.502   6.407   3.928 -0.2205 -0.2897 -0.2239
    3MOL0     C  298  10.545   6.281   3.901  0.6667  1.0461 -0.5827
    3MOL0     C  299  10.684   6.231   3.934 -0.4918  0.5986 -0.2123
    3MOL0     O  300  10.769   6.306   4.003  0.1535  0.5387 -0.7274
    3MOL0     C  301  10.891   6.257   4.046  0.3959  0.7947  0.2909
    3MOL0     C  302  10.980   6.188   3.960  0.2827 -0.8332  0.0062
    3MOL0     C  303  11.111   6.157   3.999 -0.7264  0.3058  0.0760
    3MOL0     C  304  11.155   6.186   4.131  0.1729  0.2733  1.3610
    3MOL0     O  305  11.287   6.168   4.166  0.8661 -0.2640  0.1469
    3MOL0     C  306  11.379   6.180   4.059  0.2691  0.7865 -0.6569
    3MOL0     C  307  11.528   6.221   4.118  0.3711  0.3051 -0.1529
    3MOL0     C  308  11.578   6.124   4.229  0.2729  0.8476  1.1883
    3MOL0     C  309  11.730   6.127   4.239  0.0924  0.2243  1.2420
    3MOL0     C  310  11.780   6.044   4.361 -0.3968 -0.5189 -0.6162
    3MOL0     C  311  11.930   6.022   4.353 -0.2799  0.3555  0.5845
    3MOL0     C  312  11.982   5.938   4.471 -0.3281  0.3427 -0.1623
    3MOL0     C  313  12.128   5.895   4.453  0.2968 -0.1696 -0.2021
    3MOL0    Cl  314  12.233   6.035   4.429  0.4167 -0.2168 -0.3226
    3MOL0     C  315  11.069   6.246   4.222 -0.0859  0.3897  0.3277
    3MOL0     C  316  10.939   6.286   4.175 -0.7012 -0.4209  0.1177
    3MOL0     O  317  10.703   6.118   3.895 -0.6126 -0.0855 -0.3681
    3MOL0     C  318  10.452   6.190   3.843 -0.3978 -0.7118  0.0230
    3MOL0     C  319  10.317   6.226   3.820 -0.0771  0.2629  0.5826
    3MOL0     N  320   9.741   6.349   3.244 -0.0001  1.2899 -0.1884
    3MOL0     N  321   9.618   6.337   3.204 -0.6207 -0.1136 -0.1258
    3MOL0     C  322   8.379   6.296   3.587  0.4477  0.2481 -0.1610
    3MOL0     C  323   8.259   6.343   3.658  0.0844  0.4920  0.1741
    3MOL0     C  324   7.911   6.595   3.782 -0.7768 -0.7439  0.4820
    3MOL0     C  325   7.795   6.531   3.722  0.3417  0.4073 -0.7402
    3MOL0     C  326   7.670   6.574   3.766 -0.4587 -0.1662  0.1878
    3MOL0     C  327   7.661   6.687   3.850  0.3747  0.6502 -0.0563
    3MOL0     O  328   7.552   6.752   3.902 -0.0074  0.7888  0.4510
    3MOL0     C  329   7.423   6.714   3.845  0.6781  0.5631 -0.0366
    3MOL0     C  330   7.335   6.827   3.839 -0.3893 -0.4444 -0.2071
    3MOL0     C  331   7.330   6.885   3.981 -0.4864 -0.4728 -1.1067
    3MOL0     C  332   7.269   7.023   3.990 -0.1664  0.5055  0.4305
    3MOL0     C  333   7.126   7.024   3.957 -0.0452 -0.6473 -0.5155
    3MOL0     C  334   7.005   7.033   3.948 -1.0214 -0.3688 -0.5166
    3MOL0     C  335   7.776   6.746   3.905  0.5772  0.4102 -0.4796
    3MOL0     C  336   7.902   6.700   3.877 -0.4217 -0.1594 -0.5426
    3MOL0     C  337   8.020   6.758   3.960 -0.7022 -0.5851  0.7825
    3MOL0     H  338   8.087   6.441   3.385  0.5598 -1.3061 -1.7624
    3MOL0     H  339   8.278   6.341   3.261 -1.0422 -1.5279 -0.2903
    3MOL0     H  340   8.619   6.342   3.480  1.3906  0.9266 -0.2904
    3MOL0     H  341   8.639   6.179   3.517  1.1099  3.6172  2.6576
    3MOL0     H  342   8.671   6.309   3.241 -0.2037 -0.4707 -0.4199
    3MOL0     H  343   8.735   6.147   3.282 -3.4198 -0.2542  1.7756
    3MOL0     H  344   8.872   6.262   3.474  0.2114 -0.2696 -0.4633
    3MOL0     H  345   8.840   6.407   3.388 -0.1257 -0.3193 -0.0808
    3MOL0     H  346   8.944   6.168   3.239 -2.6309 -0.5763  0.8908
    3MOL0     H  347   8.945   6.333   3.180  2.4733  1.1148  1.0323
    3MOL0     H  348   9.139   6.396   3.312 -1.2643  0.4773 -0.3081
    3MOL0     H  349   9.087   6.317   3.453  0.8864 -2.1987  0.2685
    3MOL0     H  350   9.159   6.111   3.400 -0.6513  1.0778  0.9659
    3MOL0     H  351   9.192   6.166   3.225  1.9041 -0.2022 -0.5346
    3MOL0     H  352   9.410   6.150   3.367  0.7379  0.7902  0.7277
    3MOL0     H  353   9.323   6.247   3.477 -0.4179  0.6506 -0.3901
    3MOL0     H  354   9.357   6.361   3.200  0.2380 -1.3176  0.1933
    3MOL0     H  355   9.354   6.447   3.353  0.7602 -0.2834  1.1253
    3MOL0     H  356   9.586   6.309   3.528  0.5241 -0.6892 -0.4337
    3MOL0     H  357   9.855   6.234   3.520  0.2361  0.6708  1.8524
    3MOL0     H  358   9.950   6.359   3.434  0.2258  1.0301  1.9347
    3MOL0     H  359   9.791   6.526   3.544 -1.3905 -1.3632 -0.5226
    3MOL0     H  360   9.787   6.410   3.676  0.6710  1.1575  0.0106
    3MOL0     H  361   9.978   6.540   3.728  2.1752 -0.0339 -0.5657
    3MOL0     H  362  10.054   6.501   3.576 -0.1137 -0.7646 -0.3583
    3MOL0     H  363  10.106   6.272   3.638  0.1190 -0.3666  0.4565
    3MOL0     H  364  10.001   6.292   3.788  2.3687  1.2041  2.5572
    3MOL0     H  365  10.356   6.553   3.909 -0.2656  1.1282 -5.9901
    3MOL0     H  366  10.584   6.469   3.963  1.7713 -3.3596  1.0196
    3MOL0     H  367  10.947   6.165   3.859  0.9210 -1.8085  0.0044
    3MOL0     H  368  11.166   6.101   3.924 -0.1003  1.4747 -0.3665
    3MOL0     H  369  11.388   6.087   4.002 -1.1071  1.2189 -1.6339
    3MOL0     H  370  11.350   6.261   3.991  0.4887  3.4635  2.1935
    3MOL0     H  371  11.591   6.216   4.029 -0.2424 -2.0672 -0.5183
    3MOL0     H  372  11.523   6.322   4.159  0.2532  0.4524 -0.5210
    3MOL0     H  373  11.529   6.146   4.325 -2.1247 -0.2531  0.3059
    3MOL0     H  374  11.535   6.025   4.209 -0.2527  1.5232 -1.4012
    3MOL0     H  375  11.754   6.233   4.250 -0.3234  0.3791  0.7227
    3MOL0     H  376  11.768   6.093   4.142  2.8062  0.7537  2.0570
    3MOL0     H  377  11.740   5.942   4.357  2.7006 -1.8005 -2.7635
    3MOL0     H  378  11.751   6.093   4.454  0.0236 -0.9034 -0.2754
    3MOL0     H  379  11.967   5.975   4.261  1.3784  3.2378 -0.3671
    3MOL0     H  380  11.975   6.121   4.342  1.5916 -0.3459  1.5164
    3MOL0     H  381  11.928   5.843   4.485  2.4450 -1.2689  0.3185
    3MOL0     H  382  11.971   5.988   4.567 -0.1002 -0.1135  0.1018
    3MOL0     H  383  12.162   5.854   4.549 -1.0104  2.3701  1.4663
    3MOL0     H  384  12.128   5.826   4.368  0.3780  0.0523 -0.3839
    3MOL0     H  385  11.102   6.264   4.324  0.0893  0.9186  0.1759
    3MOL0     H  386  10.887   6.350   4.245  0.3640 -1.3368  1.8031
    3MOL0     H  387  10.490   6.096   3.803 -0.9899 -0.7102 -0.5589
    3MOL0     H  388  10.261   6.156   3.758 -0.4749  0.3785  0.8111
    3MOL0     H  389   8.459   6.261   3.651 -0.2868  1.6008  1.5733
    3MOL0     H  390   8.240   6.316   3.762 -0.1772  0.0321  0.0102
    3MOL0     H  391   7.802   6.443   3.659 -1.8023  1.0530 -1.9933
    3MOL0     H  392   7.582   6.521   3.731 -0.3109 -0.2179 -0.1097
    3MOL0     H  393   7.373   6.635   3.902 -0.9485  2.0484  0.6887
    3MOL0     H  394   7.433   6.687   3.739  1.1037  2.7963 -0.6212
    3MOL0     H  395   7.238   6.794   3.802 -0.5355  0.2546 -0.4676
    3MOL0     H  396   7.381   6.901   3.773  1.5219 -2.6844 -1.5291
    3MOL0     H  397   7.433   6.895   4.017 -0.2796 -0.3696 -1.7135
    3MOL0     H  398   7.277   6.815   4.046  0.5341  1.7942  2.5348
    3MOL0     H  399   7.297   7.067   4.086  2.7360  2.0650 -0.9820
    3MOL0     H  400   7.315   7.092   3.918 -0.8843  1.7767  1.1661
    3MOL0     H  401   6.898   7.026   3.945 -1.2391  1.7169  0.5378
    3MOL0     H  402   7.755   6.825   3.976 -0.1499  0.9618 -1.2975
    3MOL0     H  403   7.999   6.847   4.020 -1.9800 -0.4047  0.0880
    3MOL0     H  404   8.077   6.687   4.020  1.1353  0.8209  0.7952
    3MOL0     H  405   8.090   6.789   3.882 -1.6752 -0.6927 -0.1608
    4MOL0     O  406   8.675  10.743  10.214 -0.1146  0.3134  0.2338
    4MOL0     C  407   8.609  10.820  10.292 -0.2247  0.3169  0.0419
    4MOL0     O  408   8.660  10.912  10.374 -0.3076  0.0436 -0.0857
    4MOL0     C  409   8.778  10.870  10.408 -0.0316  0.6403 -0.0374
    4MOL0     C  410   8.897  10.895  10.326  0.0943  0.4632  0.5122
    4MOL0     C  411   9.020  10.853  10.371 -0.5398  0.0415 -0.4045
    4MOL0     C  412   9.029  10.788  10.493  0.1296 -0.0050 -0.1603
    4MOL0     O  413   9.156  10.748  10.517  0.3628 -0.1633 -0.0715
    4MOL0     C  414   9.211  10.791  10.644 -1.1100 -0.0132  0.4994
    4MOL0     C  415   9.366  10.783  10.630  0.5598  0.4427 -0.6432
    4MOL0     C  416   9.442  10.822  10.760 -0.4512 -0.1298 -0.1903
    4MOL0     C  417   9.592  10.814  10.740 -0.2517  0.1637 -0.3499
    4MOL0     C  418   9.676  10.859  10.854  0.5754  0.4683 -0.2295
    4MOL0     C  419   9.638  10.784  10.983 -0.0669  0.4600 -0.7701
    4MOL0     C  420   9.740  10.800  11.097  0.2839 -0.2266  0.6300
    4MOL0     C  421   9.886  10.768  11.060 -0.1673  0.1191  0.0416
    4MOL0     N  422   9.968  10.713  11.173 -0.0298  0.0162  0.6768
    4MOL0     C  423   9.943  10.612  11.260  1.3536  0.2417  0.2133
    4MOL0     C  424  10.034  10.619  11.357 -0.5184  0.1294  0.9860
    4MOL0     C  425  10.052  10.531  11.486 -0.6416  0.2080  0.4490
    4MOL0     C  426  10.007  10.385  11.456 -0.3956 -0.7002 -0.1498
    4MOL0     C  427  10.084  10.311  11.350 -0.5026  0.6158  0.4126
    4MOL0     C  428  10.230  10.261  11.390  0.0256 -0.4472 -0.2072
    4MOL0     O  429  10.234  10.173  11.509  0.4409 -0.8866  0.1657
    4MOL0     C  430  10.353  10.120  11.554 -0.1433  0.2320  0.9233
    4MOL0     C  431  10.480  10.185  11.527  0.3669  0.4110  0.3848
    4MOL0     C  432  10.600  10.122  11.570  0.4121 -0.3459 -0.1670
    4MOL0     C  433  10.602   9.994  11.632  0.0738 -0.4846 -0.1522
    4MOL0     C  434  10.727   9.921  11.669  0.0923 -0.1096  0.4081
    4MOL0     O  435  10.850   9.965  11.633 -0.0342  0.0143  0.0879
    4MOL0     C  436  10.956   9.901  11.695 -0.2413  0.6606  0.2252
    4MOL0     C  437  11.011   9.770  11.658 -0.3037  0.3144 -0.6102
    4MOL0     C  438  11.131   9.734  11.716  0.0387 -0.2386  0.4767
    4MOL0     C  439  11.183   9.803  11.826 -0.7564 -0.2312 -0.7347
    4MOL0     O  440  11.304   9.776  11.882  0.6189 -0.4488  0.7502
    4MOL0     C  441  11.342   9.642  11.883 -1.1522  0.0484  0.1803
    4MOL0     C  442  11.433   9.606  11.995  0.2396  0.6673  0.1544
    4MOL0     C  443  11.572   9.661  11.974 -1.7193 -0.6700 -0.8563
    4MOL0     C  444  11.649   9.608  12.099  0.1283 -0.3832 -0.8600
    4MOL0     C  445  11.789   9.673  12.107  0.2798 -0.6856 -0.3045
    4MOL0     C  446  11.868   9.616  11.989 -1.1681 -0.9076  0.3146
    4MOL0     C  447  12.025   9.653  11.978  0.3500 -0.3507 -0.3810
    4MOL0     C  448  12.050   9.797  12.016  0.6647  0.2568 -0.7370
    4MOL0    Cl  449  12.230   9.827  12.006  0.6054 -0.1255  0.2086
    4MOL0     C  450  11.118   9.926  11.868 -0.0569  1.7912  0.0096
    4MOL0     C  451  11.012   9.972  11.798  0.1166 -0.3008 -0.1794
    4MOL0     O  452  10.706   9.817  11.733 -0.0370  0.2604  0.9693
    4MOL0     C  453  10.475   9.942  11.654  0.7116  0.2522 -0.3737
    4MOL0     C  454  10.355   9.998  11.609 -0.4542  0.5723 -1.3374
    4MOL0     N  455  10.123  10.715  11.315  0.4965  0.1461  0.6221
    4MOL0     N  456  10.085  10.773  11.213  0.1093 -0.7703 -0.0510
    4MOL0     C  457   8.919  10.763  10.578 -0.4331  0.3277 -0.6594
    4MOL0     C  458   8.794  10.798  10.530  0.5354  0.0307  0.4921
    4MOL0     C  459   8.461  10.833  10.269  1.6350 -0.6888 -0.5865
    4MOL0     C  460   8.378  10.858  10.384  0.3125  0.8230 -0.0173
    4MOL0     C  461   8.235  10.865  10.379  0.4574  0.5777 -0.2378
    4MOL0     C  462   8.178  10.844  10.253 -0.3673  1.2807 -0.7473
    4MOL0     O  463   8.044  10.834  10.227 -0.1330  0.6273  0.1055
    4MOL0     C  464   7.950  10.899  10.324 -0.2628 -0.7376  0.6919
    4MOL0     C  465   7.816  10.883  10.257 -0.1083  1.1299  0.4285
    4MOL0     C  466   7.696  10.936  10.341 -0.1941  0.2585  0.5793
    4MOL0     C  467   7.555  10.872  10.320  0.0922 -0.5069  0.6000
    4MOL0     C  468   7.465  10.876  10.432 -0.3316 -0.1174  0.2554
    4MOL0     C  469   7.399  10.885  10.524  0.5317  0.2634 -0.1541
    4MOL0     C  470   8.255  10.840  10.138 -0.1701 -0.0274 -0.7523
    4MOL0     C  471   8.398  10.840  10.142  0.4003  0.7729  0.4646
    4MOL0     C  472   8.480  10.828  10.012  0.5024 -0.0941 -0.4185
    4MOL0     H  473   8.879  10.958  10.240 -3.3504 -1.1815 -0.1404
    4MOL0     H  474   9.101  10.873  10.302 -0.6362  1.4570 -0.1260
    4MOL0     H  475   9.181  10.894  10.667  2.0028  1.8323 -2.7763
    4MOL0     H  476   9.185  10.729  10.731 -2.5178 -0.7734 -0.4254
    4MOL0     H  477   9.404  10.847  10.549 -0.5355  1.5865 -0.2966
    4MOL0     H  478   9.381  10.682  10.591  2.3505  1.0358 -1.6249
    4MOL0     H  479   9.408  10.756  10.840 -1.7251  0.0463 -0.5713
    4MOL0     H  480   9.406  10.919  10.793 -0.9093 -0.0174 -1.0006
    4MOL0     H  481   9.606  10.707  10.724 -0.7930  0.2978 -1.8749
    4MOL0     H  482   9.621  10.867  10.648 -0.2775 -2.0039 -1.6831
    4MOL0     H  483   9.776  10.831  10.821 -0.5771 -2.1569 -1.8139
    4MOL0     H  484   9.669  10.966  10.877 -0.1088  0.9165 -2.3154
    4MOL0     H  485   9.536  10.799  11.018 -0.3004  1.6704 -1.8707
    4MOL0     H  486   9.649  10.677  10.964  0.3886 -0.0300  1.8009
    4MOL0     H  487   9.709  10.735  11.179  4.3998 -1.2590  1.6107
    4MOL0     H  488   9.744  10.904  11.131 -2.0967 -0.1231  0.7572
    4MOL0     H  489   9.889  10.692  10.982  0.5085  0.2889 -0.1088
    4MOL0     H  490   9.939  10.858  11.026  2.1784 -1.0934  0.2687
    4MOL0     H  491   9.858  10.544  11.261  1.1634  0.4398 -0.8305
    4MOL0     H  492  10.154  10.538  11.526  0.3461 -3.0653 -1.1713
    4MOL0     H  493  10.000  10.571  11.574 -2.9491  0.7150 -1.0655
    4MOL0     H  494  10.021  10.324  11.546 -1.0603 -1.9023 -0.8360
    4MOL0     H  495   9.903  10.400  11.425  0.7929  0.1560 -4.4250
    4MOL0     H  496  10.087  10.378  11.264 -0.5417  0.2601  0.1315
    4MOL0     H  497  10.032  10.227  11.303  3.3650 -0.3252 -2.7007
    4MOL0     H  498  10.293  10.344  11.423  1.2582 -0.8972 -1.3510
    4MOL0     H  499  10.279  10.218  11.302 -1.2653 -1.2698 -0.5561
    4MOL0     H  500  10.486  10.284  11.484 -0.6118 -0.6674 -2.4370
    4MOL0     H  501  10.687  10.185  11.554  1.0738 -1.7696 -2.8178
    4MOL0     H  502  10.963   9.720  11.574  0.3011 -1.2467 -0.0579
    4MOL0     H  503  11.191   9.653  11.676  1.1185 -0.1630  1.8535
    4MOL0     H  504  11.252   9.583  11.900 -0.1481 -1.5089  0.3707
    4MOL0     H  505  11.390   9.608  11.791 -0.2778 -1.1513  1.0413
    4MOL0     H  506  11.383   9.647  12.083 -1.4076  0.9284 -0.8618
    4MOL0     H  507  11.454   9.499  12.003 -0.5697  0.3044 -1.9117
    4MOL0     H  508  11.620   9.639  11.878  1.6242  2.4723 -0.0944
    4MOL0     H  509  11.565   9.770  11.979  0.4436 -0.4519 -1.6867
    4MOL0     H  510  11.652   9.498  12.099 -1.4721 -0.5446  2.5130
    4MOL0     H  511  11.588   9.631  12.186  0.6525  2.1683 -1.0945
    4MOL0     H  512  11.849   9.654  12.196  0.9569  0.1827 -0.5649
    4MOL0     H  513  11.783   9.782  12.104  0.0118 -0.4924  3.2208
    4MOL0     H  514  11.866   9.509  12.013  0.2347 -1.0330 -0.0959
    4MOL0     H  515  11.826   9.634  11.890  1.5403  4.1738 -0.2045
    4MOL0     H  516  12.048   9.638  11.872  1.6870  2.1572 -0.5192
    4MOL0     H  517  12.092   9.586  12.033  2.0203  0.3301 -1.4962
    4MOL0     H  518  12.009   9.867  11.943 -0.0665  0.6565  0.0411
    4MOL0     H  519  12.009   9.825  12.114  0.5118  0.9206 -0.9875
    4MOL0     H  520  11.153   9.974  11.959 -0.2958  0.5933  0.7525
    4MOL0     H  521  10.982  10.068  11.842  0.1610 -0.9233  1.2669
    4MOL0     H  522  10.473   9.840  11.689 -0.5330  0.2250 -0.5057
    4MOL0     H  523  10.262   9.941  11.605  1.2140 -2.7018  1.3015
    4MOL0     H  524   8.930  10.701  10.667 -0.1155  1.1376 -0.1261
    4MOL0     H  525   8.703  10.776  10.587 -0.4104  1.8576 -0.2363
    4MOL0     H  526   8.423  10.853  10.483  1.4896 -2.9114 -0.5722
    4MOL0     H  527   8.173  10.870  10.468  0.8082 -2.3655  0.2763
    4MOL0     H  528   7.976  11.005  10.332  2.1278 -1.2932  1.1137
    4MOL0     H  529   7.946  10.845  10.418 -0.1411  0.9832  1.7280
    4MOL0     H  530   7.799  10.775  10.257 -1.3080  1.3025  1.0991
    4MOL0     H  531   7.818  10.914  10.152  4.1600 -1.2665 -0.4568
    4MOL0     H  532   7.688  11.043  10.319  3.3909  0.3218 -1.0780
    4MOL0     H  533   7.731  10.934  10.444  2.4906  0.7495 -0.2445
    4MOL0     H  534   7.497  10.921  10.241 -1.1687  1.3313  2.5598
    4MOL0     H  535   7.569  10.768  10.288  0.4468 -0.4217  0.4704
    4MOL0     H  536   7.362  10.897  10.624  2.7103 -3.0863  1.2253
    4MOL0     H  537   8.206  10.853  10.042 -2.1151  0.3147  0.2428
    4MOL0     H  538   8.540  10.919  10.004 -1.3495  1.7819  3.6774
    4MOL0     H  539   8.548  10.742  10.012  1.2429  0.4844 -0.9307
    4MOL0     H  540   8.414  10.823   9.925 -1.2582 -1.6368  0.9145
    5MOL0     O  541   0.738  10.105   3.863  0.2265  0.1133 -0.3197
    5MOL0     C  542   0.719  10.223   3.825  0.0458  0.0790 -0.1639
    5MOL0     O  543   0.789  10.278   3.729 -0.5835  0.5103 -0.2093
    5MOL0     C  544   0.868  10.195   3.649 -0.3531 -0.2892  0.1583
    5MOL0     C  545   0.827  10.075   3.592  0.5065 -0.1862  0.7335
    5MOL0     C  546   0.913   9.999   3.519  0.7239 -0.0722 -0.3978
    5MOL0     C  547   1.049  10.033   3.507  0.1965  0.8820  0.6245
    5MOL0     O  548   1.114   9.965   3.408  0.1828  0.7721  0.4844
    5MOL0     C  549   1.252   9.995   3.382  0.0928  0.5773  0.1623
    5MOL0     C  550   1.299   9.895   3.282 -0.9168 -0.3317 -0.1108
    5MOL0     C  551   1.446   9.890   3.267  0.2758  0.4244  1.0376
    5MOL0     C  552   1.481   9.766   3.176  0.0942  0.1996  1.0768
    5MOL0     C  553   1.636   9.742   3.176 -0.4949  0.3497 -0.0756
    5MOL0     C  554   1.731   9.837   3.100  0.1814 -0.9435  0.0323
    5MOL0     C  555   1.873   9.788   3.065  0.3474 -0.3681 -0.3484
    5MOL0     C  556   1.952   9.896   2.979 -0.3359 -0.0398  0.3091
    5MOL0     N  557   2.024  10.009   3.049 -0.1376 -0.1763 -0.3012
    5MOL0     C  558   2.124  10.022   3.143 -1.0756  0.7038 -0.7472
    5MOL0     C  559   2.131  10.162   3.157 -0.9714  0.4391 -0.2899
    5MOL0     C  560   2.223  10.239   3.252 -0.5708  0.3886  0.3983
    5MOL0     C  561   2.360  10.244   3.181 -0.1252  0.4056 -1.1986
    5MOL0     C  562   2.353  10.348   3.068 -0.3405  0.6989 -0.1461
    5MOL0     C  563   2.491  10.356   2.998  0.1948 -0.6971 -0.0025
    5MOL0     O  564   2.548  10.230   2.966 -0.3106 -0.3605 -0.2396
    5MOL0     C  565   2.680  10.235   2.917 -0.5512 -0.6279 -0.1480
    5MOL0     C  566   2.754  10.114   2.935 -0.1668 -0.7675  0.5777
    5MOL0     C  567   2.884  10.109   2.892  0.1499  0.3221  0.2038
    5MOL0     C  568   2.955  10.207   2.824 -0.7147 -0.1947 -0.3997
    5MOL0     C  569   3.097  10.192   2.785  1.0827  0.7438  0.3602
    5MOL0     O  570   3.156  10.299   2.720  0.1229 -0.4489 -0.5777
    5MOL0     C  571   3.277  10.305   2.668  0.4510  0.2092  0.1936
    5MOL0     C  572   3.339  10.191   2.613 -0.2849 -0.5496  0.7602
    5MOL0     C  573   3.463  10.202   2.556  0.3644 -0.5006 -0.2332
    5MOL0     C  574   3.532  10.326   2.548 -1.3376  0.8196 -0.6090
    5MOL0     O  575   3.658  10.318   2.492 -0.1135 -0.2727 -0.2097
    5MOL0     C  576   3.705  10.433   2.420  0.5538  0.5855 -0.6402
    5MOL0     C  577   3.850  10.405   2.371  0.1198  0.6376 -0.4577
    5MOL0     C  578   3.939  10.410   2.487 -0.2671  0.2791 -0.2888
    5MOL0     C  579   4.076  10.378   2.421  0.7356 -0.2402 -0.4931
    5MOL0     C  580   4.200  10.381   2.515  0.5902 -0.1598 -0.2320
    5MOL0     C  581   4.331  10.368   2.435 -0.8067  0.3598 -0.7090
    5MOL0     C  582   4.456  10.376   2.527  0.4365 -0.4804  0.6118
    5MOL0     C  583   4.480  10.235   2.587  0.4484 -0.4571  0.0838
    5MOL0    Cl  584   4.637  10.227   2.669 -0.2117  0.1091 -0.5412
    5MOL0     C  585   3.473  10.437   2.604 -0.2853 -0.2290  0.4075
    5MOL0     C  586   3.350  10.431   2.671  0.0109  0.4436 -0.9390
    5MOL0     O  587   3.156  10.091   2.820 -0.7041 -0.3972  0.0220
    5MOL0     C  588   2.882  10.322   2.816 -0.6865 -0.1510  0.1197
    5MOL0     C  589   2.754  10.346   2.868  0.4798 -0.2031  0.0681
    5MOL0     N  590   2.033  10.216   3.081 -0.0008 -0.7780 -0.6943
    5MOL0     N  591   1.968  10.127   3.023 -0.6978 -0.2506  0.3632
    5MOL0     C  592   1.095  10.150   3.568 -0.0313 -0.4905 -0.1488
    5MOL0     C  593   1.002  10.230   3.637  0.2637  1.0537 -0.3996
    5MOL0     C  594   0.622  10.298   3.902 -0.5641 -0.6145  0.4329
    5MOL0     C  595   0.516  10.235   3.961  1.0972  0.4464  1.7222
    5MOL0     C  596   0.418  10.301   4.029 -0.2481 -0.8070 -0.4223
    5MOL0     C  597   0.424  10.437   4.047 -0.3434  0.6252 -0.7832
    5MOL0     O  598   0.343  10.517   4.127  0.9211 -0.1992  0.0491
    5MOL0     C  599   0.247  10.463   4.222 -0.2994  0.7637 -0.0626
    5MOL0     C  600   0.117  10.530   4.200  0.2023  0.1982 -0.1453
    5MOL0     C  601  -0.004  10.441   4.243  0.2689 -0.1059 -0.3426
    5MOL0     C  602  -0.051  10.374   4.122 -0.1420  0.5257 -0.0043
    5MOL0     C  603   0.024  10.259   4.080  0.4158 -0.3805  0.6365
    5MOL0     C  604   0.059  10.143   4.048 -0.2526  0.3475  0.2776
    5MOL0     C  605   0.529  10.502   3.992 -0.8186  0.8839 -0.4829
    5MOL0     C  606   0.630  10.443   3.916  0.2906 -0.4919 -0.7361
    5MOL0     C  607   0.741  10.545   3.865  0.3454  0.7405  0.2667
    5MOL0     H  608   0.726  10.042   3.615  0.2854 -0.2494 -0.2843
    5MOL0     H  609   0.869   9.914   3.468 -1.1025  2.1425 -2.7744
    5MOL0     H  610   1.258  10.096   3.341  1.4836  1.0732  1.4967
    5MOL0     H  611   1.319  10.004   3.468  0.1859  0.2825  0.1216
    5MOL0     H  612   1.252   9.929   3.190 -1.6790  1.1024  0.7651
    5MOL0     H  613   1.250   9.798   3.294 -3.7424  1.1767  1.7740
    5MOL0     H  614   1.487   9.855   3.363 -2.7265 -1.6089  1.7340
    5MOL0     H  615   1.500   9.977   3.228  1.6627 -1.7812 -2.4602
    5MOL0     H  616   1.419   9.686   3.216 -1.0303  0.3023 -0.3557
    5MOL0     H  617   1.456   9.783   3.070  2.0661 -0.5545  0.4470
    5MOL0     H  618   1.665   9.744   3.282 -1.3009 -0.1947  0.1625
    5MOL0     H  619   1.650   9.639   3.141 -0.9648  0.1777  0.2406
    5MOL0     H  620   1.676   9.854   3.007 -3.0012 -2.3809  1.5151
    5MOL0     H  621   1.739   9.929   3.158 -2.3630 -0.3910 -0.3928
    5MOL0     H  622   1.858   9.703   2.998 -2.3272  1.1074 -1.8120
    5MOL0     H  623   1.945   9.761   3.143  1.9380 -1.0169 -1.9792
    5MOL0     H  624   2.029   9.848   2.917 -1.3255 -0.0540 -0.9499
    5MOL0     H  625   1.888   9.941   2.902 -0.8668 -1.1473  0.0767
    5MOL0     H  626   2.180   9.947   3.198  2.5061  1.2706 -3.2417
    5MOL0     H  627   2.190  10.342   3.270  2.0133  1.0243  1.9445
    5MOL0     H  628   2.237  10.177   3.341  3.7547  2.0927  1.1543
    5MOL0     H  629   2.436  10.276   3.254 -1.2933 -1.1286  0.8089
    5MOL0     H  630   2.387  10.144   3.144 -0.1581  0.3738 -1.1362
    5MOL0     H  631   2.346  10.449   3.109  0.7441  0.4855  0.5982
    5MOL0     H  632   2.269  10.327   3.001 -0.1792  0.3232 -0.2290
    5MOL0     H  633   2.552  10.399   3.078 -1.5584 -1.6383  1.9260
    5MOL0     H  634   2.484  10.433   2.920  2.6545  1.1898  1.4609
    5MOL0     H  635   2.699  10.033   2.982 -0.6279 -0.7219  0.1375
    5MOL0     H  636   2.934  10.014   2.908 -2.0357 -0.6428  1.8086
    5MOL0     H  637   3.294  10.092   2.620 -0.3384 -0.5554  0.3368
    5MOL0     H  638   3.510  10.115   2.512 -0.9230  0.1938 -3.1935
    5MOL0     H  639   3.648  10.449   2.328  0.9360  3.2111 -0.5174
    5MOL0     H  640   3.706  10.524   2.481  0.2800 -0.5330  1.0867
    5MOL0     H  641   3.860  10.322   2.300  0.5207 -0.0213  0.3451
    5MOL0     H  642   3.887  10.483   2.305  2.0260 -1.5613 -2.1692
    5MOL0     H  643   3.945  10.505   2.541  1.0698 -0.7596  1.4627
    5MOL0     H  644   3.916  10.332   2.559 -1.2000 -0.5997 -1.4954
    5MOL0     H  645   4.114  10.453   2.351  3.6999  0.1608  1.3688
    5MOL0     H  646   4.066  10.279   2.374 -3.2307 -0.2727  0.0750
    5MOL0     H  647   4.196  10.295   2.583  2.5927 -0.2577 -0.1901
    5MOL0     H  648   4.191  10.474   2.571 -0.8016  1.7044 -3.3032
    5MOL0     H  649   4.341  10.275   2.377  1.2473 -0.2592  0.5061
    5MOL0     H  650   4.331  10.458   2.373  0.4054 -0.3448 -1.7785
    5MOL0     H  651   4.448  10.446   2.611  0.4762 -0.9692  1.0323
    5MOL0     H  652   4.541  10.402   2.463  0.1042 -1.3209 -0.1954
    5MOL0     H  653   4.400  10.196   2.650  2.2042 -2.0246  1.4732
    5MOL0     H  654   4.487  10.161   2.507 -1.9043 -0.7809  0.1175
    5MOL0     H  655   3.526  10.532   2.600 -0.8449  0.0600 -1.8583
    5MOL0     H  656   3.320  10.520   2.725  1.4867 -0.1633  1.0092
    5MOL0     H  657   2.933  10.399   2.759 -1.6297 -0.3862 -1.0729
    5MOL0     H  658   2.704  10.440   2.849  1.8126  0.5883  0.2913
    5MOL0     H  659   1.195  10.190   3.555  0.0498 -1.4943 -3.6442
    5MOL0     H  660   1.042  10.317   3.688 -0.4440  1.0460  0.1946
    5MOL0     H  661   0.498  10.130   3.940  2.0136  0.7383 -0.8643
    5MOL0     H  662   0.346  10.230   4.067  1.6938 -1.3636  2.5590
    5MOL0     H  663   0.280  10.477   4.326 -1.3566  1.2609  0.2150
    5MOL0     H  664   0.236  10.356   4.207 -0.8607  0.8749 -0.4678
    5MOL0     H  665   0.118  10.551   4.092  2.4802 -1.6679 -0.5625
    5MOL0     H  666   0.105  10.623   4.256 -0.0609 -0.2250  0.4993
    5MOL0     H  667  -0.081  10.494   4.300  2.8972  1.3243  2.1170
    5MOL0     H  668   0.032  10.372   4.320  1.1105  2.5910  1.8243
    5MOL0     H  669  -0.153  10.340   4.142 -0.2309 -0.4312 -1.8929
    5MOL0     H  670  -0.060  10.440   4.035  3.2988 -2.3761 -2.8660
    5MOL0     H  671   0.094  10.043   4.034 -1.8246 -0.3468  1.0124
    5MOL0     H  672   0.544  10.609   4.002  2.0443  0.5868 -0.6997
    5MOL0     H  673   0.739  10.550   3.756  0.9223 -0.3091  0.1952
    5MOL0     H  674   0.711  10.644   3.901 -1.2524  0.4894 -0.2916
    5MOL0     H  675   0.845  10.530   3.895  1.3395  1.5481 -2.4261
    6MOL0     O  676   7.089   6.886   8.627  0.7399  0.8005  0.0496
    6MOL0     C  677   7.028   6.775   8.632  0.6422 -0.8926  0.1071
    6MOL0     O  678   7.065   6.655   8.587  0.4496  0.6577  0.3302
    6MOL0     C  679   7.197   6.637   8.559  0.1412 -0.0835  0.6450
    6MOL0     C  680   7.295   6.649   8.662 -0.2973 -0.1192 -0.1634
    6MOL0     C  681   7.434   6.641   8.633 -0.0248 -0.1938 -0.4252
    6MOL0     C  682   7.480   6.624   8.506  0.2522  0.9874  0.7367
    6MOL0     O  683   7.615   6.593   8.470  0.2442 -0.5822 -0.2626
    6MOL0     C  684   7.701   6.568   8.579  0.2166 -0.5287  0.1698
    6MOL0     C  685   7.819   6.479   8.533 -0.0415 -1.2766 -0.0062
    6MOL0     C  686   7.905   6.546   8.434 -0.8159 -0.1349  0.5227
    6MOL0     C  687   8.004   6.637   8.499 -0.6743  0.1186 -0.2848
    6MOL0     C  688   8.080   6.715   8.394 -0.2385 -0.1823 -1.3840
    6MOL0     C  689   8.190   6.788   8.471  1.1307 -0.6066 -0.0101
    6MOL0     C  690   8.142   6.913   8.554 -0.0512  0.5696  0.0481
    6MOL0     C  691   8.268   6.988   8.597 -0.2208  0.3952 -0.4666
    6MOL0     N  692   8.239   7.118   8.668 -0.2486  0.2434  0.0055
    6MOL0     C  693   8.226   7.144   8.798  0.1552 -0.4389  0.1276
    6MOL0     C  694   8.187   7.275   8.821  0.2519 -0.1239 -1.1084
    6MOL0     C  695   8.153   7.327   8.959  0.5343 -0.9177  0.1439
    6MOL0     C  696   8.240   7.451   8.977 -0.4875  0.1738 -0.3887
    6MOL0     C  697   8.219   7.522   9.112 -0.0259 -0.1456  0.6370
    6MOL0     C  698   8.307   7.642   9.145 -0.3426  0.3226 -0.8210
    6MOL0     O  699   8.300   7.742   9.049  0.5873 -0.1274 -0.3216
    6MOL0     C  700   8.399   7.779   8.958  0.0397 -0.4325 -0.1931
    6MOL0     C  701   8.370   7.877   8.866  0.2508 -0.0216 -0.2690
    6MOL0     C  702   8.467   7.934   8.788 -0.2952  0.8000  0.4982
    6MOL0     C  703   8.592   7.877   8.789 -0.0119 -0.4605  0.0168
    6MOL0     C  704   8.712   7.937   8.708 -0.7696 -0.1642 -0.6082
    6MOL0     O  705   8.707   8.067   8.665 -0.0264  0.7648  0.2205
    6MOL0     C  706   8.816   8.146   8.682  0.1104  0.7141 -0.7044
    6MOL0     C  707   8.917   8.126   8.774 -0.2963  0.1292 -0.4342
    6MOL0     C  708   9.026   8.218   8.784  0.1731  0.5369  0.2278
    6MOL0     C  709   9.037   8.332   8.698 -0.1433  0.1965  0.4383
    6MOL0     O  710   9.155   8.401   8.716 -0.0614  0.6596  0.1690
    6MOL0     C  711   9.204   8.484   8.617  0.8448 -0.3385  0.1230
    6MOL0     C  712   9.316   8.565   8.671  0.5314 -0.1274 -0.0034
    6MOL0     C  713   9.426   8.462   8.695  0.3451 -0.5034  0.3644
    6MOL0     C  714   9.559   8.521   8.752  0.0862  0.2851  0.3888
    6MOL0     C  715   9.647   8.596   8.641 -0.1483  0.8509 -0.2174
    6MOL0     C  716   9.739   8.718   8.674  0.4806 -0.3017  0.3315
    6MOL0     C  717   9.664   8.826   8.743  0.5196 -0.5701  0.6185
    6MOL0     C  718   9.753   8.944   8.760  0.4187 -0.0516 -0.2262
    6MOL0    Cl  719   9.685   9.087   8.849 -0.1116 -0.2027 -0.0965
    6MOL0     C  720   8.938   8.354   8.605  0.2025 -0.2764 -0.2354
    6MOL0     C  721   8.827   8.271   8.602  0.6085 -0.1126 -0.1483
    6MOL0     O  722   8.813   7.870   8.709 -0.0781  0.7427  0.5264
    6MOL0     C  723   8.618   7.762   8.866 -0.5775 -0.0533 -0.3460
    6MOL0     C  724   8.522   7.713   8.956 -0.3092 -0.7562 -0.5646
    6MOL0     N  725   8.176   7.323   8.697  0.2943 -0.3596  0.2918
    6MOL0     N  726   8.207   7.231   8.608  0.6554  0.2076 -0.1875
    6MOL0     C  727   7.380   6.613   8.400 -0.0617 -1.0474 -0.1189
    6MOL0     C  728   7.241   6.625   8.434 -1.4276  0.0573  0.6854
    6MOL0     C  729   6.888   6.776   8.684 -0.2998 -0.6839 -0.5087
    6MOL0     C  730   6.796   6.684   8.619  0.5849 -0.8107  1.0333
    6MOL0     C  731   6.658   6.691   8.652 -1.0218  0.3353 -0.7967
    6MOL0     C  732   6.612   6.785   8.744 -0.1236  0.7742 -0.9065
    6MOL0     O  733   6.479   6.800   8.784 -0.1670  0.5861  0.4179
    6MOL0     C  734   6.401   6.678   8.793 -0.4264 -0.0588  0.0722
    6MOL0     C  735   6.300   6.678   8.684  0.0580 -0.7478  0.3594
    6MOL0     C  736   6.227   6.815   8.677 -0.1934 -0.4319 -0.2426
    6MOL0     C  737   6.113   6.805   8.578 -0.5055 -0.0190  0.1434
    6MOL0     C  738   6.033   6.927   8.568  0.2421  0.6867 -0.3921
    6MOL0     C  739   5.969   7.019   8.526  0.3741  0.1291 -0.1727
    6MOL0     C  740   6.700   6.866   8.816 -0.3142 -0.3815 -0.0566
    6MOL0     C  741   6.837   6.863   8.785  0.7629  0.9480  0.1395
    6MOL0     C  742   6.923   6.961   8.860  0.2748  0.2346  0.4184
    6MOL0     H  743   7.278   6.679   8.765  1.8517  4.4530 -0.8637
    6MOL0     H  744   7.503   6.650   8.716  0.1760 -3.5208 -0.1255
    6MOL0     H  745   7.746   6.657   8.624 -0.7370  1.1700 -2.0452
    6MOL0     H  746   7.658   6.502   8.655 -1.0657 -2.1263 -1.8452
    6MOL0     H  747   7.772   6.389   8.493 -2.6572  0.3997 -0.9710
    6MOL0     H  748   7.876   6.456   8.624 -0.9686 -0.3123  0.8465
    6MOL0     H  749   7.837   6.592   8.362  1.2008  0.2383 -1.2641
    6MOL0     H  750   7.967   6.480   8.372  1.5226  1.6760  0.7648
    6MOL0     H  751   7.949   6.710   8.559 -2.7378  0.7174 -2.7392
    6MOL0     H  752   8.066   6.583   8.571  0.5399  3.4277  1.3894
    6MOL0     H  753   8.122   6.649   8.317 -0.4163 -2.1956  0.1711
    6MOL0     H  754   8.014   6.790   8.347  1.0175  1.8960  0.0137
    6MOL0     H  755   8.232   6.716   8.541 -4.0591 -1.7524  2.4366
    6MOL0     H  756   8.272   6.820   8.406  3.2996  0.0158  2.7983
    6MOL0     H  757   8.085   6.876   8.639  0.0221  1.1744  0.3674
    6MOL0     H  758   8.071   6.975   8.499  0.1880  0.2765 -0.6040
    6MOL0     H  759   8.330   6.918   8.655 -1.3604 -0.5002 -0.2995
    6MOL0     H  760   8.325   7.007   8.505  0.0579 -2.0537 -0.8608
    6MOL0     H  761   8.236   7.078   8.884 -0.6114 -0.0936  0.4864
    6MOL0     H  762   8.049   7.358   8.944  0.1912 -2.0262  0.1768
    6MOL0     H  763   8.160   7.261   9.046  1.0195 -0.6371  0.3201
    6MOL0     H  764   8.344   7.418   8.970 -1.0529 -1.8412 -0.1830
    6MOL0     H  765   8.228   7.529   8.901  1.3122  0.5545 -0.3255
    6MOL0     H  766   8.230   7.439   9.183 -1.0036 -1.5344 -0.7749
    6MOL0     H  767   8.114   7.548   9.120  0.2558  1.2857 -0.0214
    6MOL0     H  768   8.408   7.604   9.160  0.2925  1.3135 -2.4110
    6MOL0     H  769   8.281   7.681   9.244 -2.3403  0.4613 -1.3470
    6MOL0     H  770   8.275   7.926   8.878  1.3705  1.8431  1.5809
    6MOL0     H  771   8.438   8.018   8.725  1.2636  1.1172  0.1428
    6MOL0     H  772   8.917   8.047   8.848 -0.2747  0.3679 -0.1757
    6MOL0     H  773   9.099   8.189   8.859  0.0751  0.0076  0.1238
    6MOL0     H  774   9.245   8.427   8.533  2.3396  1.8800 -0.7470
    6MOL0     H  775   9.125   8.548   8.577  0.6844 -0.9928 -0.6391
    6MOL0     H  776   9.339   8.643   8.597 -1.0317  1.1689  0.7914
    6MOL0     H  777   9.291   8.621   8.762  1.3520 -1.0314  0.8029
    6MOL0     H  778   9.394   8.380   8.760 -1.5649 -0.7183 -0.7581
    6MOL0     H  779   9.451   8.426   8.595  2.0143  4.5357 -1.3073
    6MOL0     H  780   9.612   8.443   8.807 -0.5284 -0.2621  0.2161
    6MOL0     H  781   9.527   8.601   8.819  0.2536  1.3106 -0.7067
    6MOL0     H  782   9.578   8.634   8.566  0.1802  2.1118  0.0954
    6MOL0     H  783   9.712   8.522   8.593  1.1546  0.6708  1.7075
    6MOL0     H  784   9.817   8.673   8.737 -0.2608 -3.0672 -0.5708
    6MOL0     H  785   9.790   8.764   8.590  0.0383  0.4892  0.4778
    6MOL0     H  786   9.632   8.796   8.843 -2.1380 -2.3629 -0.6626
    6MOL0     H  787   9.577   8.864   8.689  0.2320 -1.1041  0.7011
    6MOL0     H  788   9.838   8.909   8.820 -1.5396  0.0625  2.8479
    6MOL0     H  789   9.794   8.983   8.667 -0.0345  0.2362 -0.3097
    6MOL0     H  790   8.947   8.431   8.530  2.9710  1.1737  1.4405
    6MOL0     H  791   8.748   8.296   8.532  0.8699  2.6766  0.4638
    6MOL0     H  792   8.711   7.707   8.859 -0.3178 -0.1230  2.5156
    6MOL0     H  793   8.551   7.634   9.024  0.1298 -0.4599 -0.3979
    6MOL0     H  794   7.412   6.598   8.298 -1.2070 -1.1022 -0.4749
    6MOL0     H  795   7.165   6.616   8.357 -1.0960  1.0025  0.2300
    6MOL0     H  796   6.838   6.616   8.545  1.0413  0.2654  0.2858
    6MOL0     H  797   6.589   6.624   8.601  2.0029 -1.7086 -2.5099
    6MOL0     H  798   6.342   6.681   8.885  1.4149 -0.3852  1.3305
    6MOL0     H  799   6.460   6.586   8.794 -0.1999  0.0664 -1.2215
    6MOL0     H  800   6.220   6.607   8.709 -0.5517 -0.1927  0.0137
    6MOL0     H  801   6.336   6.656   8.583  0.5467 -1.1700  0.6151
    6MOL0     H  802   6.301   6.892   8.657 -0.5846  0.2478  0.8208
    6MOL0     H  803   6.184   6.837   8.776 -0.9475 -1.2371 -0.3725
    6MOL0     H  804   6.139   6.775   8.477  0.9024 -1.0740  0.7837
    6MOL0     H  805   6.042   6.726   8.607  1.5517 -2.1495 -0.3109
    6MOL0     H  806   5.919   7.104   8.486  0.1466 -0.2395 -0.6748
    6MOL0     H  807   6.659   6.927   8.897  1.0290  0.8151 -0.2395
    6MOL0     H  808   7.012   6.918   8.907 -0.1437  0.5109  1.5092
    6MOL0     H  809   6.948   7.044   8.793  0.9260  0.1951  0.6001
    6MOL0     H  810   6.863   6.992   8.946  2.5258  0.5712  1.9574
    7MOL0     O  811   6.989   5.803   3.396 -0.4198  0.6264 -0.7033
    7MOL0     C  812   6.872   5.834   3.420 -0.1187 -0.4346 -0.4836
    7MOL0     O  813   6.822   5.865   3.537  0.4864  0.6663  0.0554
    7MOL0     C  814   6.904   5.848   3.643 -0.9750 -0.1365  0.0504
    7MOL0     C  815   6.912   5.949   3.745 -0.8410 -0.3109  0.9092
    7MOL0     C  816   6.982   5.922   3.860 -0.6724  0.4954  0.5791
    7MOL0     C  817   7.062   5.806   3.871 -0.1702  0.1981 -0.9069
    7MOL0     O  818   7.122   5.794   3.997  0.4731 -0.2074 -0.4365
    7MOL0     C  819   7.202   5.671   4.018  0.5740 -0.0528  0.4585
    7MOL0     C  820   7.249   5.651   4.167 -0.4036 -0.6339  0.4851
    7MOL0     C  821   7.317   5.775   4.217  0.1670  0.6922 -0.6500
    7MOL0     C  822   7.432   5.768   4.314 -0.0708  0.0574  0.2565
    7MOL0     C  823   7.462   5.879   4.416 -0.3793 -0.4357  0.3954
    7MOL0     C  824   7.350   5.885   4.526  0.0805 -0.2238 -0.3221
    7MOL0     C  825   7.378   5.994   4.635  0.5028  0.8798 -0.1003
    7MOL0     C  826   7.266   6.019   4.733  0.2724  0.6924  0.5885
    7MOL0     N  827   7.311   5.993   4.871  0.4085 -0.3547  0.2382
    7MOL0     C  828   7.393   5.892   4.911  0.1010 -0.0025 -0.0661
    7MOL0     C  829   7.430   5.921   5.032  0.1085  0.7747  0.3920
    7MOL0     C  830   7.537   5.853   5.113 -0.5186  0.0742  0.0648
    7MOL0     C  831   7.532   5.702   5.147  0.6076 -0.1884  0.5739
    7MOL0     C  832   7.622   5.636   5.258 -0.5721  0.3005 -0.3972
    7MOL0     C  833   7.761   5.694   5.247 -0.3463 -0.5431  0.5246
    7MOL0     O  834   7.779   5.839   5.261  0.2134  0.0482 -0.3181
    7MOL0     C  835   7.901   5.894   5.292 -0.1583 -0.0550 -0.2429
    7MOL0     C  836   7.913   6.029   5.265  0.5969  0.1172 -0.2293
    7MOL0     C  837   8.028   6.103   5.301 -0.0304 -0.2634 -0.0175
    7MOL0     C  838   8.137   6.031   5.364 -0.5681 -0.0057 -0.7617
    7MOL0     C  839   8.265   6.103   5.392  0.2082 -0.3290 -0.2278
    7MOL0     O  840   8.273   6.230   5.345 -0.0315  0.1917  0.1055
    7MOL0     C  841   8.386   6.298   5.378  0.8054  0.6201  1.1536
    7MOL0     C  842   8.524   6.270   5.341 -0.5580  0.2473 -0.6878
    7MOL0     C  843   8.631   6.350   5.381 -0.2967 -0.7634 -0.0637
    7MOL0     C  844   8.607   6.467   5.456  0.2776  0.4411 -0.1312
    7MOL0     O  845   8.710   6.551   5.498 -0.4395  0.1223  0.2042
    7MOL0     C  846   8.796   6.597   5.388 -0.2244 -0.1999  0.0213
    7MOL0     C  847   8.939   6.614   5.428  0.2372  0.3945  0.0556
    7MOL0     C  848   9.023   6.482   5.448 -0.2319  0.0264 -0.0523
    7MOL0     C  849   9.022   6.391   5.322 -0.1049  0.3546  0.6261
    7MOL0     C  850   9.140   6.298   5.315 -0.1826  0.6434  0.2549
    7MOL0     C  851   9.092   6.156   5.287 -1.0345 -0.2234 -0.1679
    7MOL0     C  852   9.211   6.070   5.225  0.0551 -0.2531  0.6923
    7MOL0     C  853   9.172   5.916   5.218  0.4418  0.5051  0.1763
    7MOL0    Cl  854   9.039   5.878   5.106 -0.2315 -0.0099  0.1544
    7MOL0     C  855   8.468   6.499   5.483 -0.5299  0.4464  0.4926
    7MOL0     C  856   8.366   6.422   5.452  0.5570  0.3154 -0.3097
    7MOL0     O  857   8.357   6.036   5.429 -0.5404  0.5596 -0.5140
    7MOL0     C  858   8.126   5.888   5.389 -0.6914  0.9931 -0.3205
    7MOL0     C  859   8.010   5.827   5.356  0.1691  1.1115 -0.5079
    7MOL0     N  860   7.369   6.039   5.067  0.1028  0.1672 -0.0021
    7MOL0     N  861   7.301   6.085   4.971  0.2510  0.0463 -0.1381
    7MOL0     C  862   7.061   5.711   3.775  0.6066  0.8538  0.2371
    7MOL0     C  863   6.975   5.728   3.669 -0.4495  0.2319 -0.2625
    7MOL0     C  864   6.769   5.839   3.307 -0.4742  0.0903  0.1620
    7MOL0     C  865   6.648   5.802   3.340 -0.0914 -0.0227 -0.8371
    7MOL0     C  866   6.546   5.790   3.244 -0.4754 -0.3553  0.6219
    7MOL0     C  867   6.579   5.799   3.107 -0.5817 -0.2706 -0.4512
    7MOL0     O  868   6.482   5.764   3.012 -0.4483  0.1637 -1.2742
    7MOL0     C  869   6.480   5.810   2.882  0.0003  0.5043  0.3791
    7MOL0     C  870   6.411   5.940   2.889  0.0709 -0.0086  0.1213
    7MOL0     C  871   6.363   5.981   2.745 -0.5635 -0.3224 -0.7445
    7MOL0     C  872   6.242   5.890   2.707 -0.9266 -1.1016  0.6813
    7MOL0     C  873   6.188   5.931   2.579  0.3078  0.3373 -0.2446
    7MOL0     C  874   6.138   5.955   2.467  0.6124 -0.2114  0.3068
    7MOL0     C  875   6.707   5.834   3.068  0.2741 -0.2788 -0.7222
    7MOL0     C  876   6.802   5.864   3.172  0.0220  0.0496  0.1163
    7MOL0     C  877   6.942   5.899   3.118  0.0995 -0.5426  0.5294
    7MOL0     H  878   6.863   6.044   3.726  3.5407  1.6245 -2.3109
    7MOL0     H  879   6.984   5.990   3.945 -0.4526  1.4676 -0.1883
    7MOL0     H  880   7.148   5.582   3.986  1.8892 -1.1010  1.0830
    7MOL0     H  881   7.290   5.682   3.954  0.8908 -0.9392  0.7312
    7MOL0     H  882   7.322   5.568   4.170  1.7616  0.9494 -2.6891
    7MOL0     H  883   7.164   5.618   4.227 -2.0407  0.9878 -0.8423
    7MOL0     H  884   7.234   5.833   4.259  0.2031  1.9716 -2.2253
    7MOL0     H  885   7.359   5.827   4.130  0.3671 -1.4629 -1.9011
    7MOL0     H  886   7.424   5.676   4.374  1.1695 -2.1473 -2.7432
    7MOL0     H  887   7.520   5.748   4.253 -0.1775  0.4416 -0.0257
    7MOL0     H  888   7.558   5.855   4.462 -0.3316 -1.4431 -0.2000
    7MOL0     H  889   7.470   5.975   4.364  0.3023 -1.1881 -0.9379
    7MOL0     H  890   7.251   5.892   4.480  0.6459  3.3248 -1.3064
    7MOL0     H  891   7.350   5.789   4.579  1.5732 -0.0616  0.0412
    7MOL0     H  892   7.395   6.091   4.587  3.4272  0.0649 -0.8665
    7MOL0     H  893   7.471   5.965   4.685  1.2701  0.7505 -1.5565
    7MOL0     H  894   7.221   6.117   4.720 -2.5250 -0.8313 -2.9624
    7MOL0     H  895   7.190   5.941   4.721  0.2534  0.2133  3.2747
    7MOL0     H  896   7.425   5.808   4.851 -2.1091  0.3998 -1.9553
    7MOL0     H  897   7.632   5.877   5.065 -0.5420 -0.8144 -0.4401
    7MOL0     H  898   7.543   5.901   5.212 -0.2888  2.5410 -1.0757
    7MOL0     H  899   7.427   5.697   5.177  0.4602 -0.0590  0.0848
    7MOL0     H  900   7.555   5.640   5.060  0.4664 -2.0876  1.8132
    7MOL0     H  901   7.635   5.528   5.246 -3.6262 -0.2525  0.5491
    7MOL0     H  902   7.582   5.652   5.359  0.2087 -0.6034  0.0744
    7MOL0     H  903   7.803   5.666   5.150  0.9404 -0.6901  1.1031
    7MOL0     H  904   7.835   5.650   5.315  0.7868  3.1558  1.9136
    7MOL0     H  905   7.830   6.081   5.219  2.6951  2.8046 -1.2525
    7MOL0     H  906   8.037   6.210   5.286  0.4865 -0.1391  1.0434
    7MOL0     H  907   8.539   6.174   5.292 -0.9095  0.4139 -1.1380
    7MOL0     H  908   8.733   6.315   5.370 -0.7002 -1.8600 -0.5235
    7MOL0     H  909   8.789   6.526   5.305  0.4562 -0.1062 -0.1219
    7MOL0     H  910   8.763   6.698   5.360 -0.1863 -0.6725 -1.8890
    7MOL0     H  911   8.992   6.679   5.358  0.4066 -0.6030 -0.7620
    7MOL0     H  912   8.937   6.666   5.525  0.0119 -2.3229  1.6098
    7MOL0     H  913   9.126   6.515   5.462 -0.1063 -0.2992 -0.2001
    7MOL0     H  914   8.988   6.424   5.534  0.2228 -3.2897 -1.9736
    7MOL0     H  915   9.015   6.461   5.238  1.7600  0.7512  0.7645
    7MOL0     H  916   8.924   6.342   5.322  0.4984 -0.8848  1.0718
    7MOL0     H  917   9.186   6.294   5.414 -0.7703 -0.9297  0.4874
    7MOL0     H  918   9.217   6.325   5.243  1.1429 -0.9823  0.9908
    7MOL0     H  919   9.053   6.105   5.375  0.3254 -4.6411 -1.8496
    7MOL0     H  920   9.022   6.149   5.204  1.5535 -5.0460 -2.3836
    7MOL0     H  921   9.309   6.080   5.273 -0.4248 -2.2961  2.2367
    7MOL0     H  922   9.232   6.101   5.123 -1.3324  3.3759  1.3713
    7MOL0     H  923   9.256   5.852   5.192 -1.9737 -3.2830  0.9713
    7MOL0     H  924   9.129   5.892   5.316 -0.8106 -2.2397 -0.9656
    7MOL0     H  925   8.446   6.589   5.539  3.3823  0.7307  1.9262
    7MOL0     H  926   8.265   6.443   5.486  1.5934  0.4830  3.0499
    7MOL0     H  927   8.200   5.823   5.436 -1.8330  0.4384  0.7721
    7MOL0     H  928   8.009   5.719   5.369 -1.5481  0.9875 -1.3057
    7MOL0     H  929   7.120   5.620   3.786 -0.2683  0.3644  1.0094
    7MOL0     H  930   6.976   5.649   3.594  0.5552  0.4055 -0.4501
    7MOL0     H  931   6.626   5.772   3.442 -1.8258  1.4282 -0.7467
    7MOL0     H  932   6.446   5.757   3.268 -1.0014  0.3441 -0.5259
    7MOL0     H  933   6.420   5.731   2.836  3.3587 -2.3438  0.5208
    7MOL0     H  934   6.575   5.800   2.829  1.1969 -2.9038  2.8251
    7MOL0     H  935   6.478   6.020   2.922 -0.8320  0.9791 -0.4002
    7MOL0     H  936   6.328   5.938   2.960  0.5211 -0.4217  0.6544
    7MOL0     H  937   6.440   5.963   2.670 -1.6100 -1.0035 -1.6907
    7MOL0     H  938   6.337   6.085   2.763 -4.5128 -1.3007  0.1435
    7MOL0     H  939   6.278   5.787   2.701  1.2461 -0.3278 -2.1680
    7MOL0     H  940   6.164   5.878   2.783 -2.6881  2.7689 -0.2620
    7MOL0     H  941   6.103   5.990   2.372  0.1839 -2.7583 -0.5638
    7MOL0     H  942   6.741   5.848   2.966  0.5048  2.8530 -0.3041
    7MOL0     H  943   6.982   5.968   3.194 -1.0319  0.2414  0.4311
    7MOL0     H  944   7.003   5.810   3.101 -0.1362 -0.4322 -0.9566
    7MOL0     H  945   6.952   5.963   3.031  2.7156 -0.0212  1.1145
    8MOL0     O  946   0.086   8.651   3.724 -0.5781  0.3548  0.0734
    8MOL0     C  947  -0.009   8.721   3.759 -0.2206  0.6863  0.4306
    8MOL0     O  948  -0.023   8.855   3.742 -0.2032 -0.3348  0.2115
    8MOL0     C  949   0.053   8.919   3.643 -0.1456 -0.3613  0.1586
    8MOL0     C  950   0.005   8.905   3.514 -0.2800 -0.2280 -0.2318
    8MOL0     C  951   0.069   8.964   3.403  0.0317  0.5872  0.1996
    8MOL0     C  952   0.192   9.029   3.427  0.2341  0.3363 -0.9473
    8MOL0     O  953   0.249   9.106   3.326  0.2994  0.7273  0.3305
    8MOL0     C  954   0.352   9.204   3.346 -0.4905 -0.2297 -0.3551
    8MOL0     C  955   0.401   9.251   3.213 -0.0172  0.2702 -0.0404
    8MOL0     C  956   0.463   9.391   3.215 -1.0568 -0.5972 -0.0536
    8MOL0     C  957   0.586   9.410   3.304 -0.1979 -0.2236  0.9718
    8MOL0     C  958   0.614   9.563   3.314 -0.7225 -0.1413  0.4646
    8MOL0     C  959   0.756   9.591   3.371 -0.1763 -0.4718  0.0935
    8MOL0     C  960   0.854   9.577   3.255  0.1258  0.4425  0.7315
    8MOL0     C  961   0.997   9.627   3.287  0.1753  0.2607 -0.6040
    8MOL0     N  962   1.099   9.564   3.213 -0.1288 -0.7505  0.0018
    8MOL0     C  963   1.113   9.588   3.076 -1.2192  0.2589 -0.3619
    8MOL0     C  964   1.200   9.493   3.030  0.2825  0.5970 -0.6862
    8MOL0     C  965   1.234   9.473   2.886  0.1072  0.6103  0.2000
    8MOL0     C  966   1.321   9.585   2.827 -0.5087  0.1684  0.0485
    8MOL0     C  967   1.468   9.563   2.868 -0.6658  0.0548  0.8417
    8MOL0     C  968   1.553   9.516   2.757 -0.3799 -0.1547 -0.1885
    8MOL0     O  969   1.698   9.514   2.800  0.8328 -0.6888 -0.2023
    8MOL0     C  970   1.792   9.454   2.716  0.7907  0.4230 -0.6050
    8MOL0     C  971   1.775   9.420   2.584  0.1242 -0.0920 -0.4669
    8MOL0     C  972   1.865   9.354   2.502  1.1500 -0.5366  0.4142
    8MOL0     C  973   1.988   9.324   2.563  0.4602 -1.0739 -0.4908
    8MOL0     C  974   2.097   9.265   2.486  0.2596  0.2418 -0.8233
    8MOL0     O  975   2.218   9.261   2.541 -0.0140  0.2623  0.2901
    8MOL0     C  976   2.313   9.220   2.453  0.0045  0.8405 -0.1218
    8MOL0     C  977   2.409   9.132   2.510  0.0289 -0.0975 -0.1542
    8MOL0     C  978   2.507   9.069   2.432  0.2361 -0.3956  0.4675
    8MOL0     C  979   2.528   9.098   2.296  0.6346 -0.1732  0.0696
    8MOL0     O  980   2.616   9.026   2.227  0.2844  0.7004 -0.1783
    8MOL0     C  981   2.615   9.005   2.091  0.2687  0.1964 -0.1127
    8MOL0     C  982   2.709   8.896   2.040  0.3335  1.1918 -0.4512
    8MOL0     C  983   2.852   8.925   2.085 -1.2733 -0.1639  0.2559
    8MOL0     C  984   2.928   9.016   1.984 -0.7263 -0.3327 -0.5786
    8MOL0     C  985   2.882   9.158   1.964 -0.9557  0.4704 -0.4041
    8MOL0     C  986   2.977   9.239   1.870  0.2216  0.6606 -0.8344
    8MOL0     C  987   3.132   9.221   1.899 -1.0017  0.1160 -0.1232
    8MOL0     C  988   3.214   9.332   1.832  0.3395  0.8337 -1.1830
    8MOL0    Cl  989   3.198   9.490   1.923  0.1589 -0.0147  0.3962
    8MOL0     C  990   2.444   9.201   2.247 -0.0866  0.1420  0.6744
    8MOL0     C  991   2.337   9.260   2.322  0.2852  0.0815 -0.0813
    8MOL0     O  992   2.070   9.222   2.370  0.1575  0.5661 -0.6030
    8MOL0     C  993   2.011   9.358   2.697 -0.0126  0.2170  0.5607
    8MOL0     C  994   1.919   9.431   2.776 -0.2200 -0.9721  0.8184
    8MOL0     N  995   1.256   9.427   3.140  0.1734 -0.0359  0.7611
    8MOL0     N  996   1.186   9.464   3.250  0.6670 -0.2182 -0.2254
    8MOL0     C  997   0.237   9.043   3.561 -0.5653  0.0682  0.2242
    8MOL0     C  998   0.168   8.988   3.669 -0.2137 -0.3754 -0.0523
    8MOL0     C  999  -0.109   8.633   3.834 -0.2238 -0.0827  0.1641
    8MOL0     C 1000  -0.066   8.514   3.898  0.2132  0.1833 -0.1763
    8MOL0     C 1001  -0.148   8.436   3.971  0.6254  0.2410 -0.0690
    8MOL0     C 1002  -0.282   8.466   3.975  0.0389  0.2130 -0.9454
    8MOL0     O 1003  -0.379   8.381   4.027  0.2129 -0.4468 -0.2341
    8MOL0     C 1004  -0.331   8.251   4.064 -0.0828  1.3559  0.2390
    8MOL0     C 1005  -0.455   8.177   4.115  0.4518 -0.2521  0.1382
    8MOL0     C 1006  -0.548   8.138   4.001 -0.8884 -0.9232 -0.3274
    8MOL0     C 1007  -0.659   8.059   4.055 -0.3369  0.5473 -0.1668
    8MOL0     C 1008  -0.748   8.030   3.948 -0.1491 -0.4903 -0.5832
    8MOL0     C 1009  -0.823   7.989   3.859  0.1147 -0.9344  0.4880
    8MOL0     C 1010  -0.331   8.578   3.910 -0.6948 -1.8781  0.2154
    8MOL0     C 1011  -0.240   8.660   3.839  0.2304 -0.0960  0.6691
    8MOL0     C 1012  -0.298   8.775   3.754 -0.0707  0.6561 -0.7097
    8MOL0     H 1013  -0.078   8.837   3.499 -0.4325  0.1886 -1.3829
    8MOL0     H 1014   0.024   8.956   3.304  0.8879  1.3602 -0.2748
    8MOL0     H 1015   0.307   9.285   3.404  1.3441 -0.0282  0.8839
    8MOL0     H 1016   0.437   9.153   3.393 -1.1111 -0.7828  0.1944
    8MOL0     H 1017   0.316   9.260   3.146  0.2851 -0.1669 -0.4853
    8MOL0     H 1018   0.479   9.189   3.169  1.4994  4.0443 -3.3494
    8MOL0     H 1019   0.385   9.461   3.247  0.8233  1.1106  0.9982
    8MOL0     H 1020   0.483   9.409   3.109  2.2636 -1.1085  0.4065
    8MOL0     H 1021   0.569   9.377   3.407  0.1343 -1.0769  0.7641
    8MOL0     H 1022   0.665   9.352   3.255 -0.2982  2.5155 -2.8883
    8MOL0     H 1023   0.598   9.614   3.219  1.2845  1.1297  0.7459
    8MOL0     H 1024   0.540   9.599   3.386 -0.3439 -0.0876  0.8313
    8MOL0     H 1025   0.754   9.689   3.420 -0.1247 -1.1442  1.5001
    8MOL0     H 1026   0.778   9.525   3.455  2.0150 -1.3068 -1.0693
    8MOL0     H 1027   0.821   9.632   3.165 -1.7536  1.7107  2.1115
    8MOL0     H 1028   0.861   9.470   3.232 -1.9564 -1.0455  5.7262
    8MOL0     H 1029   0.994   9.736   3.279 -2.5096  0.2485 -0.7299
    8MOL0     H 1030   0.993   9.601   3.394 -1.1302 -0.7897 -0.8894
    8MOL0     H 1031   1.066   9.664   3.015  0.2573  2.2657  0.8518
    8MOL0     H 1032   1.290   9.380   2.873  1.7779  1.8177 -2.0766
    8MOL0     H 1033   1.144   9.472   2.823  1.1937  2.3216 -1.5114
    8MOL0     H 1034   1.298   9.576   2.721 -2.2539  2.3213  0.1811
    8MOL0     H 1035   1.293   9.688   2.852  1.4691  1.0616 -1.1481
    8MOL0     H 1036   1.491   9.504   2.957  0.3586  1.7613  1.7602
    8MOL0     H 1037   1.515   9.658   2.895  0.5585  0.1800 -1.4490
    8MOL0     H 1038   1.542   9.583   2.672 -0.9982 -3.1529 -2.6563
    8MOL0     H 1039   1.516   9.417   2.729 -0.7289 -1.3557  3.8653
    8MOL0     H 1040   1.680   9.453   2.544 -0.3544 -0.4003  0.3769
    8MOL0     H 1041   1.830   9.339   2.400  0.2399 -0.3208  0.6883
    8MOL0     H 1042   2.392   9.113   2.616 -2.6009  0.6513 -0.3656
    8MOL0     H 1043   2.572   8.999   2.484 -3.4867 -5.2106 -0.5725
    8MOL0     H 1044   2.511   8.977   2.073 -1.1451  2.5656  3.2866
    8MOL0     H 1045   2.638   9.102   2.045  2.0284  0.4969  1.2667
    8MOL0     H 1046   2.680   8.803   2.088 -1.6339  2.2508  0.5324
    8MOL0     H 1047   2.697   8.891   1.931  1.4905 -2.1456 -0.5361
    8MOL0     H 1048   2.858   8.967   2.186  2.2601 -2.2659  1.0895
    8MOL0     H 1049   2.900   8.827   2.095 -2.9666 -1.5084 -3.2675
    8MOL0     H 1050   2.930   8.973   1.883 -2.4647 -2.2102  0.1147
    8MOL0     H 1051   3.028   9.010   2.029 -1.5901  1.2001  1.6823
    8MOL0     H 1052   2.878   9.213   2.058 -2.5847  0.0435 -0.1974
    8MOL0     H 1053   2.781   9.159   1.923 -1.1097 -1.8178 -0.2330
    8MOL0     H 1054   2.962   9.201   1.768  3.0055 -0.0879 -1.0485
    8MOL0     H 1055   2.946   9.344   1.868  1.9465  1.1928 -1.6062
    8MOL0     H 1056   3.162   9.120   1.870  0.7516  0.8014 -0.8009
    8MOL0     H 1057   3.151   9.214   2.006 -1.5690 -0.4957 -0.0512
    8MOL0     H 1058   3.319   9.300   1.830  0.1154 -0.3457  1.1904
    8MOL0     H 1059   3.172   9.340   1.732  3.6070  2.4115 -2.5767
    8MOL0     H 1060   2.449   9.217   2.140 -0.0497 -0.7501  0.5324
    8MOL0     H 1061   2.274   9.335   2.275  2.9611  1.2392 -2.0840
    8MOL0     H 1062   2.099   9.313   2.742  0.5547 -2.1788 -2.6553
    8MOL0     H 1063   1.957   9.467   2.870 -0.6342 -1.1387  1.0526
    8MOL0     H 1064   0.322   9.106   3.581 -2.4696  2.8397  0.1806
    8MOL0     H 1065   0.207   9.002   3.770 -0.8268 -1.7370  0.3991
    8MOL0     H 1066   0.038   8.485   3.886  0.4375  0.9204 -0.0415
    8MOL0     H 1067  -0.115   8.344   4.018 -0.4629  1.4392  3.2743
    8MOL0     H 1068  -0.256   8.255   4.143  0.3944 -0.0917 -0.1129
    8MOL0     H 1069  -0.287   8.194   3.981 -0.5528  1.9951 -0.4630
    8MOL0     H 1070  -0.514   8.246   4.176  0.7509  1.1572 -1.1024
    8MOL0     H 1071  -0.428   8.099   4.186 -2.5682 -1.0058  0.5704
    8MOL0     H 1072  -0.488   8.080   3.931 -0.8271  0.5919 -1.6080
    8MOL0     H 1073  -0.587   8.232   3.959 -0.2314  0.1861  1.4471
    8MOL0     H 1074  -0.622   7.963   4.094 -0.1655  1.6804  2.7676
    8MOL0     H 1075  -0.709   8.105   4.141  1.4090 -1.5448  2.1513
    8MOL0     H 1076  -0.876   7.975   3.767  0.2843 -0.4255  0.3082
    8MOL0     H 1077  -0.433   8.614   3.907 -0.7907 -1.8567  2.2774
    8MOL0     H 1078  -0.263   8.778   3.651 -1.0900 -0.6593 -1.1195
    8MOL0     H 1079  -0.406   8.760   3.747  0.1183 -1.2003 -0.2822
    8MOL0     H 1080  -0.288   8.870   3.807 -0.3493 -0.5483  1.6511
    9MOL0     O 1081   9.286   5.659  10.456  0.1595  0.1605 -0.1425
    9MOL0     C 1082   9.275   5.773  10.489  0.0712 -0.6132 -0.5886
    9MOL0     O 1083   9.355   5.836  10.571 -0.2446 -0.5898 -0.1881
    9MOL0     C 1084   9.449   5.774  10.650  0.1213  0.2497  0.3352
    9MOL0     C 1085   9.573   5.840  10.666 -0.1561  0.1868 -0.6699
    9MOL0     C 1086   9.677   5.790  10.734 -0.3730  0.2482 -0.3436
    9MOL0     C 1087   9.667   5.662  10.794 -0.3425 -0.2208  0.6616
    9MOL0     O 1088   9.770   5.597  10.863  0.1308  0.3295 -0.3434
    9MOL0     C 1089   9.866   5.680  10.927  0.2678  0.5824  0.2458
    9MOL0     C 1090   9.926   5.598  11.034 -0.1712  0.7145  0.1899
    9MOL0     C 1091  10.033   5.673  11.122 -0.2122  0.3547  0.3081
    9MOL0     C 1092  10.126   5.590  11.220  0.3327 -0.2121 -0.0276
    9MOL0     C 1093  10.051   5.520  11.332  0.3353 -0.4787 -0.0623
    9MOL0     C 1094  10.134   5.412  11.410  0.3072  0.6271  0.3950
    9MOL0     C 1095  10.255   5.464  11.487 -0.5281 -0.4354  0.1351
    9MOL0     C 1096  10.340   5.341  11.545 -0.1525 -0.1098 -0.0911
    9MOL0     N 1097  10.436   5.288  11.449 -0.6699  0.2890 -0.1171
    9MOL0     C 1098  10.573   5.292  11.473 -0.1819 -0.1810 -0.3487
    9MOL0     C 1099  10.629   5.249  11.355  0.8031 -0.1666  0.1019
    9MOL0     C 1100  10.774   5.242  11.324 -0.0034 -0.0809 -0.3187
    9MOL0     C 1101  10.836   5.378  11.306 -0.0028 -0.3102 -0.2643
    9MOL0     C 1102  10.884   5.460  11.436  0.8087  0.0867  0.3921
    9MOL0     C 1103  11.008   5.399  11.509  0.8100  0.9058 -0.1997
    9MOL0     O 1104  11.104   5.403  11.403 -0.7854 -0.0563 -0.3945
    9MOL0     C 1105  11.233   5.356  11.433  0.3684 -1.0804  0.1481
    9MOL0     C 1106  11.270   5.302  11.557 -0.3337 -0.1956 -0.2167
    9MOL0     C 1107  11.399   5.254  11.586 -0.5924  1.4208  0.8755
    9MOL0     C 1108  11.501   5.264  11.487 -0.1671 -0.5031  0.2765
    9MOL0     C 1109  11.639   5.221  11.511 -0.5939  0.0886 -1.0032
    9MOL0     O 1110  11.716   5.204  11.409  0.1860  0.3338  0.5376
    9MOL0     C 1111  11.855   5.198  11.412  0.0152 -0.6804 -0.0697
    9MOL0     C 1112  11.915   5.173  11.286  0.3738 -0.0848 -0.5351
    9MOL0     C 1113  12.056   5.175  11.267 -0.1984  0.0924 -0.5828
    9MOL0     C 1114  12.138   5.212  11.378  0.4044  1.3029 -0.1805
    9MOL0     O 1115  12.276   5.208  11.355  0.4187 -0.4585  0.7410
    9MOL0     C 1116  12.357   5.321  11.379  0.2838  0.3170  0.5979
    9MOL0     C 1117  12.350   5.440  11.280  0.8429  0.2027 -0.1325
    9MOL0     C 1118  12.412   5.558  11.339  0.1928  0.3523  0.0577
    9MOL0     C 1119  12.412   5.667  11.238 -0.9606  0.7697  0.1878
    9MOL0     C 1120  12.469   5.808  11.291 -0.3052 -0.3112 -0.1747
    9MOL0     C 1121  12.610   5.821  11.346 -0.0599 -0.6814  0.0465
    9MOL0     C 1122  12.712   5.869  11.244  0.0726 -0.2996 -0.5449
    9MOL0     C 1123  12.721   6.022  11.236  0.2684 -0.0440  0.6233
    9MOL0    Cl 1124  12.845   6.049  11.114 -0.5124 -0.7568  0.2065
    9MOL0     C 1125  12.078   5.244  11.498 -0.2183 -0.5512  0.8275
    9MOL0     C 1126  11.940   5.240  11.520  0.5813 -0.2855  0.8357
    9MOL0     O 1127  11.671   5.202  11.626  0.2268  0.0734 -0.3298
    9MOL0     C 1128  11.461   5.322  11.363  0.2960  0.2799  0.0497
    9MOL0     C 1129  11.329   5.358  11.335 -0.6367 -0.2337  0.2873
    9MOL0     N 1130  10.523   5.228  11.269  0.2383  0.8650 -0.0351
    9MOL0     N 1131  10.411   5.262  11.317 -0.3049  0.4233 -0.0713
    9MOL0     C 1132   9.545   5.594  10.774 -1.1602  0.7644  0.9857
    9MOL0     C 1133   9.443   5.652  10.709  0.7173 -0.1764  0.8069
    9MOL0     C 1134   9.191   5.860  10.404  0.5575  0.1511 -0.5592
    9MOL0     C 1135   9.232   5.994  10.395  1.1396 -0.8021  0.7122
    9MOL0     C 1136   9.160   6.081  10.319 -0.1546 -0.7681 -0.5804
    9MOL0     C 1137   9.066   6.042  10.230  0.7195  0.4327 -0.7397
    9MOL0     O 1138   9.003   6.119  10.136 -0.6908 -0.3297 -0.0257
    9MOL0     C 1139   9.026   6.261  10.132  0.0154 -0.0847  0.8474
    9MOL0     C 1140   8.944   6.327  10.011  0.0974  0.8459 -0.2063
    9MOL0     C 1141   8.798   6.304   9.997 -0.0140 -0.0852  0.3276
    9MOL0     C 1142   8.701   6.409  10.061 -0.0603  0.6576  0.0471
    9MOL0     C 1143   8.733   6.417  10.204  0.1220  0.1377 -0.3104
    9MOL0     C 1144   8.777   6.436  10.313  0.6508 -0.0709 -0.2553
    9MOL0     C 1145   9.032   5.904  10.228  0.5780 -0.0212  0.0764
    9MOL0     C 1146   9.082   5.810  10.319 -0.0691  0.6138 -0.5100
    9MOL0     C 1147   9.040   5.666  10.328  0.3245  0.3554  0.6495
    9MOL0     H 1148   9.576   5.942  10.629  0.3882  0.3219 -0.2617
    9MOL0     H 1149   9.771   5.843  10.737 -1.2985  1.9944 -0.9992
    9MOL0     H 1150   9.938   5.712  10.850 -0.2366 -0.3164 -0.6138
    9MOL0     H 1151   9.817   5.771  10.963  0.7950  1.1264 -0.3698
    9MOL0     H 1152   9.978   5.516  10.985 -0.6370  0.4906  0.0637
    9MOL0     H 1153   9.851   5.558  11.103  1.4871  0.4831  1.9535
    9MOL0     H 1154   9.970   5.735  11.186 -3.5654 -1.5933 -0.8362
    9MOL0     H 1155  10.101   5.730  11.058 -1.8512  1.5950 -0.3940
    9MOL0     H 1156  10.162   5.503  11.164  0.8332 -0.2693  0.3732
    9MOL0     H 1157  10.218   5.640  11.252  1.5586 -1.8053 -0.8957
    9MOL0     H 1158  10.022   5.594  11.407 -1.6572 -2.0778  0.8459
    9MOL0     H 1159   9.961   5.473  11.291  0.3661 -0.8617  0.3039
    9MOL0     H 1160  10.064   5.365  11.479 -0.0178 -2.0681 -1.6015
    9MOL0     H 1161  10.156   5.328  11.344 -1.1424 -0.7931  1.6395
    9MOL0     H 1162  10.217   5.524  11.571 -0.2985  0.0401 -0.0994
    9MOL0     H 1163  10.317   5.530  11.427 -1.6211  1.5704  1.1031
    9MOL0     H 1164  10.399   5.378  11.629  0.9539  2.1463 -1.7782
    9MOL0     H 1165  10.290   5.253  11.588 -1.6179  1.0364  0.6438
    9MOL0     H 1166  10.630   5.331  11.557 -2.5018  0.8186  0.8523
    9MOL0     H 1167  10.820   5.180  11.402 -1.5156 -0.7968  0.0446
    9MOL0     H 1168  10.794   5.192  11.229 -0.7553  0.2323 -0.6466
    9MOL0     H 1169  10.926   5.369  11.246  0.9805  1.8431  0.7793
    9MOL0     H 1170  10.781   5.451  11.245 -0.7605  1.0855  1.9454
    9MOL0     H 1171  10.805   5.452  11.512 -0.1833 -2.0027 -0.7690
    9MOL0     H 1172  10.892   5.563  11.403  3.0346  0.4448  1.7801
    9MOL0     H 1173  10.989   5.299  11.548  2.1857  0.4550 -0.6572
    9MOL0     H 1174  11.022   5.474  11.587 -0.1070 -0.0021  0.8918
    9MOL0     H 1175  11.191   5.306  11.631  2.2691  1.2178  2.6792
    9MOL0     H 1176  11.421   5.201  11.678 -2.1029 -2.5813 -0.8581
    9MOL0     H 1177  11.846   5.152  11.205  0.1521  0.2785 -0.4414
    9MOL0     H 1178  12.097   5.146  11.171 -1.0035  2.6847 -1.7758
    9MOL0     H 1179  12.331   5.353  11.480 -2.9757 -0.0936  0.0186
    9MOL0     H 1180  12.456   5.275  11.373 -0.1991 -0.6230 -2.3079
    9MOL0     H 1181  12.400   5.415  11.186  0.4356 -2.0235  0.1822
    9MOL0     H 1182  12.245   5.458  11.255  0.6480 -2.6744 -1.7307
    9MOL0     H 1183  12.357   5.586  11.430  0.9548  0.4723  0.4900
    9MOL0     H 1184  12.516   5.528  11.356 -0.4308 -0.8800  2.1255
    9MOL0     H 1185  12.308   5.676  11.205 -1.4437 -1.7393  0.7925
    9MOL0     H 1186  12.470   5.619  11.159  0.1910  0.7366  1.0393
    9MOL0     H 1187  12.408   5.830  11.379  0.6519 -0.7187  0.6178
    9MOL0     H 1188  12.459   5.880  11.210 -0.6972  3.1645  2.6947
    9MOL0     H 1189  12.612   5.890  11.431  0.5711 -1.3419  0.5795
    9MOL0     H 1190  12.643   5.722  11.378 -0.4100 -1.8456 -2.9129
    9MOL0     H 1191  12.692   5.833  11.143 -0.8957 -0.6402 -0.2489
    9MOL0     H 1192  12.809   5.822  11.266 -0.4205 -0.7876  0.6701
    9MOL0     H 1193  12.621   6.055  11.208  0.6583  0.6672  0.0149
    9MOL0     H 1194  12.738   6.078  11.329  0.5029 -0.6867  0.9756
    9MOL0     H 1195  12.148   5.279  11.573  2.4774 -1.7656 -0.9374
    9MOL0     H 1196  11.896   5.273  11.613 -2.1484  1.1619 -0.8195
    9MOL0     H 1197  11.522   5.314  11.274 -1.7499 -2.2421 -1.2959
    9MOL0     H 1198  11.315   5.401  11.237 -0.4493 -0.5794  0.1071
    9MOL0     H 1199   9.545   5.491  10.808  0.9233 -0.1084 -1.2739
    9MOL0     H 1200   9.358   5.587  10.689  2.1878 -0.8580 -5.1653
    9MOL0     H 1201   9.317   6.032  10.451 -0.0277  2.4242  0.5191
    9MOL0     H 1202   9.198   6.181  10.336  2.3023 -1.8043  0.4462
    9MOL0     H 1203   9.131   6.275  10.106  0.3831 -1.6069  1.4445
    9MOL0     H 1204   9.002   6.297  10.233 -1.0623  1.6575  0.0211
    9MOL0     H 1205   8.991   6.291   9.919 -0.1325 -0.1542  0.0575
    9MOL0     H 1206   8.957   6.435  10.019  0.7901  0.7494  0.0393
    9MOL0     H 1207   8.774   6.206  10.040  2.4417 -0.8407  0.1708
    9MOL0     H 1208   8.783   6.310   9.889 -1.7383  1.4549  0.6192
    9MOL0     H 1209   8.726   6.504  10.013 -0.1490  0.3900 -0.5407
    9MOL0     H 1210   8.599   6.377  10.040  0.4475  0.1981 -1.9318
    9MOL0     H 1211   8.825   6.434  10.409 -0.3717  1.3635  0.3177
    9MOL0     H 1212   8.950   5.868  10.167 -0.0915  2.3237 -0.5059
    9MOL0     H 1213   8.949   5.646  10.272  1.2968 -0.3940 -0.7296
    9MOL0     H 1214   9.114   5.595  10.290  0.1528 -0.4743  1.8048
    9MOL0     H 1215   9.023   5.632  10.431 -1.6352 -0.1044  0.2145
   10MOL0     O 1216   1.139  11.132   5.270  0.2402  0.1074 -0.9457
   10MOL0     C 1217   1.176  11.204   5.174 -0.2667 -0.1824  0.0105
   10MOL0     O 1218   1.284  11.172   5.098 -0.4116  0.2015 -0.6702
   10MOL0     C 1219   1.393  11.108   5.156 -0.0210 -0.4020  0.3383
   10MOL0     C 1220   1.440  11.124   5.290 -0.0695 -0.1584  0.1422
   10MOL0     C 1221   1.562  11.085   5.324 -1.0376 -0.3901 -0.5949
   10MOL0     C 1222   1.642  11.013   5.225 -0.1762  0.4034 -0.5182
   10MOL0     O 1223   1.767  10.964   5.266  0.6380  0.0455 -0.8682
   10MOL0     C 1224   1.818  11.003   5.397  0.2719 -0.1916  0.3729
   10MOL0     C 1225   1.974  10.995   5.388  0.5817 -0.1316  0.8222
   10MOL0     C 1226   2.038  10.858   5.375  0.1421  0.7348  0.3984
   10MOL0     C 1227   2.037  10.785   5.506 -0.7288  1.0292 -0.6226
   10MOL0     C 1228   2.094  10.652   5.483 -0.3270  0.0626 -0.3995
   10MOL0     C 1229   2.086  10.561   5.624 -0.7463 -0.5028  0.5775
   10MOL0     C 1230   1.944  10.553   5.692 -0.6597  0.1426  0.8970
   10MOL0     C 1231   1.931  10.432   5.778  0.3313  0.2775 -0.9132
   10MOL0     N 1232   1.801  10.458   5.865  0.5275  0.1171 -0.3366
   10MOL0     C 1233   1.685  10.427   5.809 -0.3352 -0.0319  0.0333
   10MOL0     C 1234   1.593  10.485   5.884 -1.1121  0.0369 -0.3105
   10MOL0     C 1235   1.448  10.484   5.859 -0.0815 -0.4392 -1.1814
   10MOL0     C 1236   1.397  10.376   5.762 -0.3343  0.2243 -0.1539
   10MOL0     C 1237   1.267  10.314   5.820 -0.2517 -0.5938 -0.3865
   10MOL0     C 1238   1.132  10.395   5.834  0.4822  0.4345  0.8502
   10MOL0     O 1239   1.048  10.302   5.902  0.1728 -0.0784 -0.0090
   10MOL0     C 1240   1.008  10.176   5.849  0.5557 -0.5913  0.7326
   10MOL0     C 1241   0.953  10.087   5.941  0.0213 -0.0453  0.4456
   10MOL0     C 1242   0.903   9.965   5.894 -0.6800  0.0360  0.3339
   10MOL0     C 1243   0.919   9.926   5.762  0.2919 -0.1476 -0.2190
   10MOL0     C 1244   0.869   9.796   5.721  0.0418 -0.1671 -0.0654
   10MOL0     O 1245   0.915   9.756   5.599  0.0169 -0.1263 -0.1896
   10MOL0     C 1246   0.851   9.639   5.560  0.1664 -0.0782 -0.1059
   10MOL0     C 1247   0.753   9.635   5.462  0.2155  0.0621  0.8643
   10MOL0     C 1248   0.689   9.512   5.430  0.0277  0.0227  0.2529
   10MOL0     C 1249   0.735   9.390   5.490 -0.7836 -0.3064 -0.2667
   10MOL0     O 1250   0.684   9.277   5.431 -0.7624 -0.2711  0.7188
   10MOL0     C 1251   0.741   9.146   5.450  0.2165 -0.4397 -0.1463
   10MOL0     C 1252   0.692   9.035   5.356 -0.5413 -0.4820  0.1359
   10MOL0     C 1253   0.550   8.985   5.386  0.5320 -0.0521  1.4161
   10MOL0     C 1254   0.498   8.897   5.279  0.1779  0.2996  1.1873
   10MOL0     C 1255   0.356   8.855   5.313  0.5217  0.4373  0.1642
   10MOL0     C 1256   0.326   8.737   5.218 -0.6635  0.8155 -0.0958
   10MOL0     C 1257   0.181   8.690   5.232  0.0196  0.3201 -0.0455
   10MOL0     C 1258   0.154   8.581   5.132  0.5203  0.5909 -0.1954
   10MOL0    Cl 1259   0.123   8.650   4.975 -0.5304  0.2673  0.5442
   10MOL0     C 1260   0.832   9.395   5.595  0.9747 -0.7612  0.1107
   10MOL0     C 1261   0.880   9.518   5.624 -0.3773  0.3102  0.2779
   10MOL0     O 1262   0.797   9.731   5.796 -0.1531 -0.8530  0.6541
   10MOL0     C 1263   0.978  10.013   5.674 -0.5218 -0.3011 -0.1242
   10MOL0     C 1264   1.026  10.134   5.718 -1.0596  0.2359  1.0212
   10MOL0     N 1265   1.655  10.567   5.982  0.6326  0.3135 -0.3128
   10MOL0     N 1266   1.781  10.547   5.966 -0.4088  0.0622 -0.4723
   10MOL0     C 1267   1.595  11.009   5.087 -1.1928 -0.1384  0.3948
   10MOL0     C 1268   1.477  11.062   5.052  0.8807 -0.0331 -0.1053
   10MOL0     C 1269   1.091  11.312   5.130 -0.6625 -0.0727  0.4525
   10MOL0     C 1270   0.966  11.313   5.195  0.1589  0.6975  0.2223
   10MOL0     C 1271   0.869  11.408   5.152 -0.6673  0.1058  0.1015
   10MOL0     C 1272   0.893  11.508   5.059 -0.8189  1.2451  0.1603
   10MOL0     O 1273   0.790  11.597   5.031 -0.6077 -0.4261  0.1994
   10MOL0     C 1274   0.815  11.703   4.942  1.1151 -0.3220 -0.6419
   10MOL0     C 1275   0.803  11.657   4.794 -0.2298  0.2546 -0.6782
   10MOL0     C 1276   0.664  11.646   4.757  0.1963  0.2253 -0.6750
   10MOL0     C 1277   0.636  11.572   4.627 -0.9877  0.4499  0.1415
   10MOL0     C 1278   0.490  11.591   4.613 -0.2916 -0.3290  0.1960
   10MOL0     C 1279   0.369  11.586   4.606  0.0251 -0.3748  0.2830
   10MOL0     C 1280   1.023  11.511   5.004 -1.3545 -0.7543  0.4965
   10MOL0     C 1281   1.120  11.419   5.037  0.7339  0.7898  0.7261
   10MOL0     C 1282   1.251  11.432   4.966  0.0782 -1.7617 -0.2391
   10MOL0     H 1283   1.370  11.166   5.362 -4.6766 -0.0168 -3.8268
   10MOL0     H 1284   1.589  11.110   5.426 -3.0182  1.0365 -0.3544
   10MOL0     H 1285   1.798  11.109   5.417  0.2175  0.1757 -1.4374
   10MOL0     H 1286   1.772  10.944   5.476  0.3500 -1.8863 -0.7894
   10MOL0     H 1287   2.011  11.054   5.472 -0.1172  0.6740  0.5799
   10MOL0     H 1288   2.003  11.062   5.306 -0.2637 -0.0194  0.6133
   10MOL0     H 1289   2.141  10.852   5.338  0.4790  0.8989  1.2834
   10MOL0     H 1290   1.977  10.796   5.309 -2.0628 -1.0414  3.8083
   10MOL0     H 1291   2.095  10.839   5.582  0.6149 -0.6616 -0.3646
   10MOL0     H 1292   1.933  10.779   5.540 -0.9514  0.2867 -1.3864
   10MOL0     H 1293   2.044  10.596   5.403  0.7172 -0.6696 -0.5692
   10MOL0     H 1294   2.198  10.672   5.456 -0.3354  1.0274  0.2583
   10MOL0     H 1295   2.130  10.465   5.597 -0.2610 -0.4517  1.1749
   10MOL0     H 1296   2.155  10.602   5.699 -1.7116 -2.7316  2.8466
   10MOL0     H 1297   1.870  10.554   5.612  1.2637  1.3462 -0.9703
   10MOL0     H 1298   1.936  10.644   5.753 -1.1624 -1.7256  3.8077
   10MOL0     H 1299   1.929  10.340   5.719  1.8536 -0.6546  0.4282
   10MOL0     H 1300   2.014  10.426   5.849  0.8252 -0.8422 -1.5560
   10MOL0     H 1301   1.663  10.354   5.732 -1.7630 -0.8906  1.1879
   10MOL0     H 1302   1.398  10.473   5.956  2.9640  1.8047  0.8111
   10MOL0     H 1303   1.424  10.584   5.824 -0.0146 -0.2019 -0.5659
   10MOL0     H 1304   1.376  10.422   5.665  3.6600 -2.2007 -2.4566
   10MOL0     H 1305   1.475  10.301   5.745  2.2558  2.9346 -0.9467
   10MOL0     H 1306   1.297  10.289   5.922 -0.5020 -2.4243 -0.7248
   10MOL0     H 1307   1.253  10.219   5.769  4.7249 -2.5190  1.2300
   10MOL0     H 1308   1.094  10.423   5.735 -1.0065  0.1232  1.3044
   10MOL0     H 1309   1.129  10.494   5.882 -2.2945  0.6923  0.3180
   10MOL0     H 1310   0.935  10.121   6.043  0.3062 -1.1938  0.9032
   10MOL0     H 1311   0.851   9.902   5.965 -2.7087  0.0216 -1.0782
   10MOL0     H 1312   0.727   9.729   5.416 -0.5659  0.6276  2.3896
   10MOL0     H 1313   0.615   9.503   5.351  1.5275  1.0867 -1.3494
   10MOL0     H 1314   0.848   9.161   5.437  0.2028 -0.1724  0.0572
   10MOL0     H 1315   0.722   9.110   5.552 -1.8554 -2.4066 -1.1413
   10MOL0     H 1316   0.693   9.081   5.257  1.4125 -1.7513 -0.5001
   10MOL0     H 1317   0.757   8.947   5.357 -2.3807 -1.9580 -1.8170
   10MOL0     H 1318   0.543   8.931   5.481 -0.5523  1.0044  1.9559
   10MOL0     H 1319   0.485   9.073   5.393  0.6022  0.3136 -1.3324
   10MOL0     H 1320   0.571   8.816   5.267 -1.1051 -0.6179 -1.0220
   10MOL0     H 1321   0.481   8.957   5.190 -3.0278 -1.1824  0.6724
   10MOL0     H 1322   0.288   8.940   5.303 -0.2335 -0.4260 -3.4590
   10MOL0     H 1323   0.347   8.817   5.415 -2.4598  1.3780  0.3376
   10MOL0     H 1324   0.326   8.774   5.115  0.9982  0.6402 -0.1916
   10MOL0     H 1325   0.394   8.651   5.225 -2.1044 -0.3548  0.0755
   10MOL0     H 1326   0.110   8.772   5.214 -3.2551 -2.9696 -4.3016
   10MOL0     H 1327   0.162   8.657   5.334  3.0559  0.0368  0.5295
   10MOL0     H 1328   0.239   8.514   5.117  1.1299  1.3237 -0.0469
   10MOL0     H 1329   0.066   8.531   5.174  0.1124  2.2028  0.9677
   10MOL0     H 1330   0.864   9.316   5.662 -1.0842  1.2327  3.7034
   10MOL0     H 1331   0.963   9.523   5.694  0.4985  1.7108 -0.7988
   10MOL0     H 1332   0.997   9.993   5.569  2.4915  0.7864  0.1047
   10MOL0     H 1333   1.058  10.194   5.633 -0.7175 -1.8212 -0.3935
   10MOL0     H 1334   1.663  10.970   5.012  1.0774  0.0890  2.1902
   10MOL0     H 1335   1.435  11.059   4.951 -0.2944  1.4023  0.3139
   10MOL0     H 1336   0.932  11.236   5.264 -0.5316 -2.6026 -3.3777
   10MOL0     H 1337   0.767  11.406   5.189  0.1501 -3.1405  2.7320
   10MOL0     H 1338   0.909  11.752   4.969  0.3175  0.3879  0.9858
   10MOL0     H 1339   0.743  11.783   4.963  0.8983  0.3076 -3.4382
   10MOL0     H 1340   0.845  11.557   4.780 -0.2779  0.0179  0.7364
   10MOL0     H 1341   0.855  11.718   4.719  0.2249  1.7367  0.7740
   10MOL0     H 1342   0.634  11.749   4.736  0.2811 -0.0229 -2.1452
   10MOL0     H 1343   0.610  11.594   4.837 -2.5178  2.4326 -0.9059
   10MOL0     H 1344   0.682  11.629   4.546  2.6296 -2.3559  0.0217
   10MOL0     H 1345   0.666  11.468   4.641 -1.7962  0.3226  1.0616
   10MOL0     H 1346   0.264  11.567   4.602  0.2615 -1.5782 -0.7606
   10MOL0     H 1347   1.045  11.591   4.934 -1.3526 -1.5760 -0.4768
   10MOL0     H 1348   1.330  11.414   5.039 -0.0074  1.7109  0.8877
   10MOL0     H 1349   1.249  11.357   4.886 -0.1406  1.1166 -3.1343
   10MOL0     H 1350   1.281  11.523   4.914  1.6246 -0.7483  2.2277
   11MOL0     O 1351   1.980  10.395   5.074 -0.4358  0.2152  0.5360
   11MOL0     C 1352   1.921  10.505   5.088 -0.4054  0.1784 -0.0396
   11MOL0     O 1353   1.973  10.628   5.048  0.2580 -0.0457 -0.5093
   11MOL0     C 1354   2.072  10.626   4.953 -0.1334  0.5423 -0.0295
   11MOL0     C 1355   2.048  10.608   4.821  0.8110  0.3938  0.3184
   11MOL0     C 1356   2.138  10.589   4.720  0.8738 -0.4841  1.0154
   11MOL0     C 1357   2.272  10.592   4.748 -0.6528 -0.1334  0.7895
   11MOL0     O 1358   2.367  10.587   4.653  0.8234 -0.5532  1.0762
   11MOL0     C 1359   2.447  10.477   4.642  0.1481  0.9506  0.0065
   11MOL0     C 1360   2.555  10.491   4.539  0.1081 -0.3520  0.0782
   11MOL0     C 1361   2.669  10.397   4.567  0.2710 -0.3630  0.7460
   11MOL0     C 1362   2.798  10.423   4.487  0.0742  0.1713 -0.5887
   11MOL0     C 1363   2.887  10.296   4.472 -0.2660 -0.3236 -0.0136
   11MOL0     C 1364   3.029  10.319   4.416  0.7666 -0.2867  0.6814
   11MOL0     C 1365   3.035  10.352   4.266 -0.1125 -0.5924 -0.5322
   11MOL0     C 1366   3.184  10.361   4.212  0.1401  0.2799  0.2547
   11MOL0     N 1367   3.267  10.461   4.284 -0.5589  0.8259  1.0482
   11MOL0     C 1368   3.367  10.439   4.373 -0.5147 -0.2193  0.1653
   11MOL0     C 1369   3.434  10.556   4.382 -0.6766 -0.3392 -0.4496
   11MOL0     C 1370   3.546  10.582   4.487  0.3867 -0.7013  0.6318
   11MOL0     C 1371   3.690  10.553   4.430 -0.3565 -0.1676 -0.2058
   11MOL0     C 1372   3.736  10.676   4.349  0.0051  0.4685  0.4081
   11MOL0     C 1373   3.860  10.634   4.279 -0.4071  0.2267  0.1661
   11MOL0     O 1374   3.967  10.604   4.376 -0.3076 -0.8150  0.2879
   11MOL0     C 1375   4.096  10.614   4.321 -0.4353 -0.1734 -0.7291
   11MOL0     C 1376   4.130  10.572   4.191 -0.1527 -0.3874  0.3082
   11MOL0     C 1377   4.260  10.590   4.128 -0.2004 -0.3840  0.3835
   11MOL0     C 1378   4.363  10.625   4.213 -0.4457 -0.0720 -0.2957
   11MOL0     C 1379   4.502  10.607   4.157  0.6827  0.5534  0.2187
   11MOL0     O 1380   4.596  10.574   4.256  0.2665 -0.0754  0.4165
   11MOL0     C 1381   4.731  10.589   4.248 -0.8905 -0.2419 -0.0470
   11MOL0     C 1382   4.819  10.498   4.294 -0.5499  0.2257 -0.3042
   11MOL0     C 1383   4.957  10.502   4.279 -1.3218 -0.1080 -1.2130
   11MOL0     C 1384   5.014  10.609   4.203  1.0563  0.1577  0.6193
   11MOL0     O 1385   5.149  10.633   4.170  0.3853 -0.5777 -0.2191
   11MOL0     C 1386   5.224  10.518   4.134  0.3247 -0.7281 -0.2343
   11MOL0     C 1387   5.362  10.567   4.088 -1.0139  0.5147  0.2247
   11MOL0     C 1388   5.442  10.445   4.032  0.5510  0.1149 -1.1676
   11MOL0     C 1389   5.548  10.478   3.939  0.5272  0.1570 -0.0404
   11MOL0     C 1390   5.639  10.366   3.902 -0.5492  0.4022 -0.4359
   11MOL0     C 1391   5.772  10.420   3.852 -0.0073 -0.0630  0.6631
   11MOL0     C 1392   5.861  10.309   3.799  1.1520  0.1097 -0.1362
   11MOL0     C 1393   6.011  10.349   3.808  0.8499  0.0365  0.4603
   11MOL0    Cl 1394   6.095  10.215   3.729  0.2255  0.3166 -0.0126
   11MOL0     C 1395   4.922  10.699   4.156 -0.0406 -0.6421 -1.0591
   11MOL0     C 1396   4.789  10.698   4.175 -1.5966 -0.1023 -0.7405
   11MOL0     O 1397   4.527  10.634   4.038  0.7908 -0.1380  0.3819
   11MOL0     C 1398   4.337  10.662   4.350  0.7899 -0.0927 -0.0156
   11MOL0     C 1399   4.203  10.658   4.397  0.5410  1.4306 -0.4110
   11MOL0     N 1400   3.376  10.646   4.294  0.0276 -0.5454  0.0830
   11MOL0     N 1401   3.282  10.586   4.235  0.0208  0.5022 -0.6796
   11MOL0     C 1402   2.307  10.613   4.890 -0.3008 -1.1267  0.2927
   11MOL0     C 1403   2.207  10.614   4.989 -0.4817  0.3301  0.7209
   11MOL0     C 1404   1.801  10.512   5.177 -0.8665 -0.3332 -0.6531
   11MOL0     C 1405   1.727  10.634   5.179  0.9360 -0.0535 -0.8393
   11MOL0     C 1406   1.615  10.657   5.264 -0.1737  0.1233 -0.0402
   11MOL0     C 1407   1.589  10.563   5.372  0.8191 -0.0525  0.2630
   11MOL0     O 1408   1.518  10.603   5.486 -0.4125 -0.0967 -0.4773
   11MOL0     C 1409   1.488  10.747   5.520 -1.2896 -0.1198 -0.1367
   11MOL0     C 1410   1.359  10.791   5.454  0.1471 -0.0171 -0.8024
   11MOL0     C 1411   1.243  10.692   5.488  0.0771  0.6954 -0.5965
   11MOL0     C 1412   1.098  10.740   5.453 -0.1451 -0.6602  0.2604
   11MOL0     C 1413   1.010  10.636   5.485 -0.5861  0.3463  0.1910
   11MOL0     C 1414   0.929  10.547   5.504 -0.2733 -0.1374 -0.7742
   11MOL0     C 1415   1.649  10.442   5.362 -0.4584  0.3747 -0.4986
   11MOL0     C 1416   1.754  10.413   5.275 -1.0691 -0.3291  0.0611
   11MOL0     C 1417   1.827  10.274   5.285  0.1185  0.8568 -1.0895
   11MOL0     H 1418   1.941  10.607   4.805  1.0626  1.4982 -1.8078
   11MOL0     H 1419   2.101  10.574   4.619 -2.8670  0.5581  2.0705
   11MOL0     H 1420   2.492  10.452   4.739 -2.7471 -2.7155  0.6242
   11MOL0     H 1421   2.398  10.382   4.620 -0.2921  1.1427  0.1462
   11MOL0     H 1422   2.584  10.597   4.544 -2.4196  0.3713  1.8112
   11MOL0     H 1423   2.502  10.469   4.446  0.3818 -0.5601 -0.0294
   11MOL0     H 1424   2.632  10.294   4.557  0.1087 -0.3210  0.9145
   11MOL0     H 1425   2.711  10.410   4.667  1.6965  1.5558 -0.0496
   11MOL0     H 1426   2.772  10.459   4.387 -1.3849 -1.4480 -0.8446
   11MOL0     H 1427   2.863  10.495   4.538 -1.5163 -0.5821  2.7726
   11MOL0     H 1428   2.904  10.257   4.573 -1.4623  4.6939  2.4306
   11MOL0     H 1429   2.828  10.220   4.420 -1.6590  0.8503 -0.2140
   11MOL0     H 1430   3.079  10.393   4.480 -1.0132  0.8971  0.8096
   11MOL0     H 1431   3.079  10.223   4.424 -0.5063 -1.0381 -0.0090
   11MOL0     H 1432   2.992  10.452   4.250  0.5476 -0.3472 -0.8109
   11MOL0     H 1433   2.974  10.273   4.223 -2.2161  1.6242 -1.8754
   11MOL0     H 1434   3.237  10.267   4.227  2.4077  0.6117 -4.1090
   11MOL0     H 1435   3.186  10.394   4.108 -0.2402  1.4774  0.6076
   11MOL0     H 1436   3.376  10.342   4.421 -0.8508 -2.3361 -3.6162
   11MOL0     H 1437   3.543  10.684   4.526 -1.0156  0.0142 -1.1741
   11MOL0     H 1438   3.519  10.511   4.566 -0.8781  0.6621  1.4860
   11MOL0     H 1439   3.756  10.554   4.518  0.5851  2.6458 -0.8413
   11MOL0     H 1440   3.688  10.461   4.370 -1.6704  0.2472 -0.8210
   11MOL0     H 1441   3.758  10.767   4.405  3.0832  0.2316 -0.2090
   11MOL0     H 1442   3.670  10.703   4.266 -0.4181 -0.1004  0.5604
   11MOL0     H 1443   3.889  10.720   4.219 -0.9966  0.5404  0.3203
   11MOL0     H 1444   3.831  10.548   4.218  1.9064 -0.2215 -0.3914
   11MOL0     H 1445   4.056  10.546   4.116  1.2592  1.2405 -1.7500
   11MOL0     H 1446   4.271  10.580   4.021 -2.2159 -0.9815  0.1837
   11MOL0     H 1447   4.779  10.417   4.354  1.2544 -1.1872 -0.9208
   11MOL0     H 1448   5.014  10.422   4.327 -1.7067  0.2624 -0.1046
   11MOL0     H 1449   5.228  10.442   4.212 -2.9145 -1.9410 -1.0707
   11MOL0     H 1450   5.171  10.475   4.048  1.6277  0.9090 -1.9157
   11MOL0     H 1451   5.343  10.645   4.013 -1.1727  0.3886  0.1348
   11MOL0     H 1452   5.413  10.608   4.175  1.7699 -1.3925 -0.3919
   11MOL0     H 1453   5.478  10.396   4.123 -3.5890  2.0272  1.9044
   11MOL0     H 1454   5.376  10.380   3.975  0.9105  1.2273 -2.9373
   11MOL0     H 1455   5.613  10.562   3.966 -0.0577  0.4345  0.5186
   11MOL0     H 1456   5.503  10.508   3.844 -2.5211 -1.2692  0.8120
   11MOL0     H 1457   5.589  10.314   3.820  1.7088 -1.7938 -0.5398
   11MOL0     H 1458   5.658  10.298   3.986  0.7965 -0.5138 -1.4402
   11MOL0     H 1459   5.753  10.483   3.765  0.9202  2.1384  1.9758
   11MOL0     H 1460   5.808  10.480   3.935 -1.0317  0.2676  0.8765
   11MOL0     H 1461   5.834  10.289   3.695  3.5721 -2.2856 -0.4236
   11MOL0     H 1462   5.848  10.224   3.866  2.3552  1.4204  1.8736
   11MOL0     H 1463   6.042  10.446   3.768 -0.7672  0.4385  0.1103
   11MOL0     H 1464   6.028  10.361   3.916  1.3169 -0.4495  0.4410
   11MOL0     H 1465   4.973  10.778   4.102 -2.5045  0.6625 -1.6472
   11MOL0     H 1466   4.723  10.770   4.125 -0.0679  1.7100 -0.2692
   11MOL0     H 1467   4.416  10.687   4.421  2.4593 -1.2173 -1.3860
   11MOL0     H 1468   4.194  10.683   4.502 -0.0191  1.6471 -0.5041
   11MOL0     H 1469   2.410  10.627   4.921 -0.5626 -0.9142  1.0976
   11MOL0     H 1470   2.243  10.611   5.092 -0.2908 -1.9833  0.6536
   11MOL0     H 1471   1.746  10.711   5.105 -0.8368  2.8177  1.4492
   11MOL0     H 1472   1.548  10.742   5.266 -2.0575 -1.2857 -0.2862
   11MOL0     H 1473   1.564  10.815   5.481 -3.5055  1.0102 -2.7894
   11MOL0     H 1474   1.480  10.764   5.628 -1.6462 -1.1575  0.0124
   11MOL0     H 1475   1.363  10.794   5.345  1.1054 -2.2186 -0.8830
   11MOL0     H 1476   1.328  10.885   5.501 -3.5784 -2.1132  1.4889
   11MOL0     H 1477   1.248  10.667   5.594  0.2167 -1.2306 -1.0210
   11MOL0     H 1478   1.244  10.598   5.433 -3.1746  1.1030 -1.5833
   11MOL0     H 1479   1.070  10.831   5.508 -1.5468 -0.2494 -1.0557
   11MOL0     H 1480   1.085  10.761   5.347 -2.0093 -0.9539  0.4006
   11MOL0     H 1481   0.848  10.481   5.529 -1.4628  0.3305 -3.1087
   11MOL0     H 1482   1.623  10.374   5.443  2.6625  3.0746  3.1808
   11MOL0     H 1483   1.761  10.205   5.339  1.0394  2.0147  1.6835
   11MOL0     H 1484   1.838  10.244   5.180 -0.3097  0.0045 -0.9038
   11MOL0     H 1485   1.924  10.277   5.336 -0.4885 -0.7643  0.2371
   12MOL0     O 1486   5.848   9.716   3.343 -0.0040  0.3561 -0.1921
   12MOL0     C 1487   5.860   9.617   3.271  0.1126 -0.1253  0.4795
   12MOL0     O 1488   5.959   9.596   3.188 -0.1072  0.4710  0.3287
   12MOL0     C 1489   6.075   9.672   3.211 -0.6472 -0.2920 -0.3119
   12MOL0     C 1490   6.074   9.796   3.146 -0.1593  0.1417  0.6393
   12MOL0     C 1491   6.187   9.884   3.170  0.1507  0.6649 -0.2720
   12MOL0     C 1492   6.290   9.843   3.257  0.6204 -0.8752 -0.4482
   12MOL0     O 1493   6.403   9.924   3.272 -0.1683 -0.0559 -0.2039
   12MOL0     C 1494   6.385  10.067   3.273  0.1409  0.0336  0.0821
   12MOL0     C 1495   6.500  10.142   3.341  0.1723 -0.5024  1.4221
   12MOL0     C 1496   6.630  10.129   3.259  0.4931  0.5338  0.6263
   12MOL0     C 1497   6.753  10.135   3.349  0.3324  0.3655  0.2397
   12MOL0     C 1498   6.885  10.142   3.262  0.1888 -0.0654  0.4666
   12MOL0     C 1499   6.905  10.026   3.180  0.3206  0.3097 -0.5070
   12MOL0     C 1500   7.048  10.012   3.134  0.5807 -0.8928 -0.3530
   12MOL0     C 1501   7.164   9.987   3.238  0.4495 -0.1871 -0.0195
   12MOL0     N 1502   7.122   9.873   3.321 -0.4092 -0.1195  0.9612
   12MOL0     C 1503   7.165   9.851   3.448  0.1182  0.2337 -0.9246
   12MOL0     C 1504   7.127   9.729   3.485 -1.0014 -0.0023  0.2688
   12MOL0     C 1505   7.149   9.667   3.622 -0.2266 -0.8525 -0.1431
   12MOL0     C 1506   7.295   9.626   3.651  0.7279  0.4032 -0.1594
   12MOL0     C 1507   7.282   9.526   3.768 -0.0914  0.0246 -0.3578
   12MOL0     C 1508   7.424   9.456   3.775  0.0576  0.4702 -0.3292
   12MOL0     O 1509   7.429   9.381   3.903  0.0093  0.0218 -0.5328
   12MOL0     C 1510   7.541   9.422   3.975  0.0793 -0.2991  0.4653
   12MOL0     C 1511   7.669   9.396   3.940  0.5282 -0.1086 -0.6063
   12MOL0     C 1512   7.775   9.436   4.016 -0.1021 -0.3519 -1.1889
   12MOL0     C 1513   7.769   9.504   4.135 -0.1916  0.0098 -0.3662
   12MOL0     C 1514   7.888   9.559   4.212 -0.1569  0.2464  0.1408
   12MOL0     O 1515   7.866   9.635   4.323  0.7078  0.4865  0.0702
   12MOL0     C 1516   7.963   9.698   4.388 -0.2382  0.0710  0.5534
   12MOL0     C 1517   8.060   9.770   4.318  0.0685 -0.2013 -0.2553
   12MOL0     C 1518   8.141   9.852   4.384  0.8922 -0.2321 -0.6276
   12MOL0     C 1519   8.124   9.877   4.521 -0.3327 -0.1415 -0.3803
   12MOL0     O 1520   8.212   9.966   4.573 -0.4954 -0.1410  0.1796
   12MOL0     C 1521   8.247   9.962   4.716 -0.5161  0.1306  0.0454
   12MOL0     C 1522   8.384  10.005   4.721 -0.3792  0.4576 -0.3758
   12MOL0     C 1523   8.442   9.981   4.863  0.5653 -0.5920 -0.4947
   12MOL0     C 1524   8.589  10.022   4.847 -0.2151  0.7617  0.4575
   12MOL0     C 1525   8.654  10.029   4.978 -0.4807 -0.5526  0.7258
   12MOL0     C 1526   8.811  10.036   4.974  0.2142 -1.0122  0.4821
   12MOL0     C 1527   8.876  10.129   5.075  0.2303 -0.8660  1.0697
   12MOL0     C 1528   9.026  10.141   5.056 -0.7842  0.5070 -0.4729
   12MOL0    Cl 1529   9.096   9.987   5.094  0.1202  0.2193 -0.5138
   12MOL0     C 1530   8.025   9.808   4.599 -0.7252 -0.1628  0.2535
   12MOL0     C 1531   7.936   9.728   4.525  0.5188  0.5331 -0.7839
   12MOL0     O 1532   7.990   9.530   4.162 -0.3327  0.4276 -0.2526
   12MOL0     C 1533   7.635   9.528   4.172  0.0857  0.0284  0.4030
   12MOL0     C 1534   7.526   9.478   4.100  0.3630  0.4239  0.0766
   12MOL0     N 1535   7.056   9.682   3.375 -0.1679 -0.3458  0.2402
   12MOL0     N 1536   7.054   9.767   3.274  0.3798 -0.0058  0.1276
   12MOL0     C 1537   6.277   9.721   3.326  0.0330 -0.5412  0.0152
   12MOL0     C 1538   6.173   9.636   3.307  0.0331  0.9804 -0.4796
   12MOL0     C 1539   5.758   9.509   3.257  0.2050 -1.1315 -1.1449
   12MOL0     C 1540   5.740   9.444   3.138 -0.9847  0.4467  0.2122
   12MOL0     C 1541   5.654   9.343   3.119 -1.3703  0.7995 -0.2760
   12MOL0     C 1542   5.567   9.297   3.221  0.2470  0.2907  0.6812
   12MOL0     O 1543   5.495   9.188   3.198  0.3588  0.4419 -0.6066
   12MOL0     C 1544   5.369   9.175   3.264  0.4904 -0.3114 -0.0161
   12MOL0     C 1545   5.269   9.131   3.162 -0.5065  0.0745  0.3632
   12MOL0     C 1546   5.130   9.088   3.211 -0.3063  0.7995  0.4379
   12MOL0     C 1547   5.044   9.218   3.210  0.3737 -0.4395 -0.7407
   12MOL0     C 1548   4.993   9.239   3.073 -0.3708  1.0364 -0.3622
   12MOL0     C 1549   4.952   9.249   2.960 -0.4565 -0.2858  0.0701
   12MOL0     C 1550   5.570   9.370   3.343  0.3833  0.6533  0.2112
   12MOL0     C 1551   5.672   9.464   3.367  0.2391 -1.0852  0.1617
   12MOL0     C 1552   5.676   9.524   3.502 -0.0156  0.3839 -0.0267
   12MOL0     H 1553   5.992   9.828   3.082  3.2973  3.9309 -2.4175
   12MOL0     H 1554   6.194   9.980   3.120  1.0960  1.3707  1.1483
   12MOL0     H 1555   6.385  10.098   3.168  0.5257  0.1978  0.1312
   12MOL0     H 1556   6.291  10.098   3.320  0.5994 -1.3348  2.0279
   12MOL0     H 1557   6.511  10.104   3.443  1.1615 -2.0035  0.7950
   12MOL0     H 1558   6.465  10.246   3.341 -1.5787 -1.0659  0.5195
   12MOL0     H 1559   6.642  10.206   3.183  2.7512 -0.7226 -0.3868
   12MOL0     H 1560   6.629  10.029   3.216  0.8630  0.7540  0.1012
   12MOL0     H 1561   6.758  10.218   3.420  0.2294  0.8698 -0.3307
   12MOL0     H 1562   6.755  10.042   3.406  0.7430  0.8596  1.0413
   12MOL0     H 1563   6.885  10.231   3.198 -0.6458  1.1700  2.1140
   12MOL0     H 1564   6.971  10.142   3.329  0.2128 -3.4310  0.6150
   12MOL0     H 1565   6.878   9.940   3.242 -0.7137  0.9989  0.0354
   12MOL0     H 1566   6.834  10.021   3.096 -1.6211 -1.5366  1.1256
   12MOL0     H 1567   7.069  10.109   3.088 -0.3817  0.6402  2.2406
   12MOL0     H 1568   7.062   9.931   3.062  2.4108 -0.6653 -0.2961
   12MOL0     H 1569   7.257   9.972   3.183  0.9038  0.6292  0.5080
   12MOL0     H 1570   7.176  10.074   3.304 -0.1561 -0.4102  0.3977
   12MOL0     H 1571   7.217   9.922   3.511 -2.8460 -1.0110  3.3678
   12MOL0     H 1572   7.127   9.743   3.697  2.9235  0.7277 -0.6277
   12MOL0     H 1573   7.086   9.579   3.634  1.2024 -2.0274 -0.8976
   12MOL0     H 1574   7.342   9.564   3.574  2.2600 -0.1472  1.1594
   12MOL0     H 1575   7.363   9.708   3.676  0.5506  0.2617  0.8051
   12MOL0     H 1576   7.204   9.458   3.734 -1.6019  2.0481 -1.1128
   12MOL0     H 1577   7.240   9.568   3.860 -1.9468 -0.9906 -0.6953
   12MOL0     H 1578   7.500   9.535   3.776 -0.2154  0.7371  0.5302
   12MOL0     H 1579   7.440   9.398   3.684 -0.5559  1.3842 -1.0211
   12MOL0     H 1580   7.671   9.329   3.854 -1.3718 -1.1264  0.0736
   12MOL0     H 1581   7.877   9.407   3.991  1.8418  3.3237  1.5322
   12MOL0     H 1582   8.079   9.761   4.211 -0.1734  0.3785 -0.3490
   12MOL0     H 1583   8.216   9.904   4.325 -0.5414  2.5139 -0.1729
   12MOL0     H 1584   8.184  10.029   4.776 -2.0156 -0.5514 -0.7213
   12MOL0     H 1585   8.240   9.859   4.754  0.7070  0.5258  1.4156
   12MOL0     H 1586   8.444   9.960   4.641  0.8986  1.4920 -0.0505
   12MOL0     H 1587   8.386  10.113   4.705 -1.1448  0.5721  0.2860
   12MOL0     H 1588   8.392  10.039   4.941  0.4370 -1.2362 -0.0867
   12MOL0     H 1589   8.433   9.879   4.903  1.6492  0.6864  3.3960
   12MOL0     H 1590   8.597  10.125   4.811  1.0907  0.3721 -0.4759
   12MOL0     H 1591   8.648   9.946   4.795 -0.1668 -1.5922  3.6528
   12MOL0     H 1592   8.624   9.947   5.044 -4.0010 -1.5159 -1.7623
   12MOL0     H 1593   8.630  10.122   5.030 -1.4032 -0.1803 -0.3096
   12MOL0     H 1594   8.851   9.936   4.991  1.1284 -0.7342  0.0004
   12MOL0     H 1595   8.844  10.058   4.872  0.8162 -1.3054  0.6080
   12MOL0     H 1596   8.860  10.104   5.180  1.9329  0.1952  1.6146
   12MOL0     H 1597   8.823  10.224   5.076  0.5659 -0.6024 -1.2619
   12MOL0     H 1598   9.043  10.172   4.953 -0.9963 -2.8691 -1.6529
   12MOL0     H 1599   9.061  10.217   5.127  0.0326 -1.6767  1.5857
   12MOL0     H 1600   8.016   9.821   4.706  2.0917 -1.1564  0.7199
   12MOL0     H 1601   7.846   9.692   4.575  0.7385 -2.2536 -2.1602
   12MOL0     H 1602   7.603   9.586   4.258  0.3343  1.6717 -0.5659
   12MOL0     H 1603   7.424   9.482   4.136  0.5757 -2.4232  1.2475
   12MOL0     H 1604   6.366   9.688   3.379 -0.4047  1.6401  2.3373
   12MOL0     H 1605   6.179   9.540   3.358  0.8040  1.6123  0.6577
   12MOL0     H 1606   5.801   9.469   3.052 -1.7047  0.4676 -0.3099
   12MOL0     H 1607   5.641   9.303   3.019 -0.8007  2.5946 -1.1115
   12MOL0     H 1608   5.331   9.268   3.306  0.8220 -1.0959  2.1903
   12MOL0     H 1609   5.379   9.102   3.345 -0.4080 -3.4181 -2.4937
   12MOL0     H 1610   5.315   9.040   3.123  0.2742  1.5315 -2.3005
   12MOL0     H 1611   5.256   9.208   3.086 -2.8718 -0.4663  0.1377
   12MOL0     H 1612   5.131   9.042   3.310 -0.4442 -0.4344 -0.1198
   12MOL0     H 1613   5.101   9.009   3.141 -1.9788  3.0459 -1.5880
   12MOL0     H 1614   4.947   9.203   3.260 -0.0208 -2.5789 -2.0244
   12MOL0     H 1615   5.087   9.309   3.251  0.7624 -0.3723 -1.2845
   12MOL0     H 1616   4.931   9.255   2.855  2.3297  0.0781 -0.5423
   12MOL0     H 1617   5.498   9.341   3.419  0.3178 -1.6967 -0.6652
   12MOL0     H 1618   5.774   9.562   3.533  0.4786 -0.6594 -0.2700
   12MOL0     H 1619   5.615   9.615   3.502 -1.2711 -0.4282  0.0629
   12MOL0     H 1620   5.645   9.443   3.569 -0.1551  0.2199 -0.2871
   13MOL0     O 1621   9.561   1.641   2.327  0.7328  0.3065  0.5021
   13MOL0     C 1622   9.449   1.595   2.322  0.2061  0.7072  0.2398
   13MOL0     O 1623   9.417   1.461   2.326 -0.1691  0.7545  0.0959
   13MOL0     C 1624   9.525   1.382   2.368 -0.3019  0.9162  0.5091
   13MOL0     C 1625   9.560   1.382   2.496  0.2415 -0.4646 -0.6793
   13MOL0     C 1626   9.666   1.304   2.538 -0.2032 -1.2509  1.2589
   13MOL0     C 1627   9.741   1.230   2.443  1.6230  0.0295 -0.0431
   13MOL0     O 1628   9.845   1.148   2.480  0.1981  0.8293 -0.3653
   13MOL0     C 1629   9.877   1.142   2.621 -0.5366  0.1631  0.0739
   13MOL0     C 1630  10.009   1.080   2.656 -0.4775  0.1017 -0.0512
   13MOL0     C 1631  10.024   1.061   2.803 -0.2542 -0.7048  0.3245
   13MOL0     C 1632  10.153   1.128   2.846 -0.1959  0.2348 -0.2835
   13MOL0     C 1633  10.178   1.121   3.001 -0.6280  0.4272 -0.0151
   13MOL0     C 1634  10.234   0.979   3.045  0.5518  0.0893 -0.4178
   13MOL0     C 1635  10.267   0.980   3.195  0.2316  0.7770 -0.1086
   13MOL0     C 1636  10.408   1.021   3.233 -0.3531 -0.9242  0.1567
   13MOL0     N 1637  10.483   0.891   3.234 -0.0711 -0.2197  0.4928
   13MOL0     C 1638  10.460   0.771   3.283  1.1284  0.5963  0.2699
   13MOL0     C 1639  10.573   0.707   3.270 -0.0633  0.0548  0.3365
   13MOL0     C 1640  10.593   0.563   3.318  0.2117  0.0828 -1.2618
   13MOL0     C 1641  10.748   0.525   3.300 -0.3769  0.4031 -0.7178
   13MOL0     C 1642  10.832   0.579   3.417  0.1647 -0.0987 -0.0276
   13MOL0     C 1643  10.974   0.520   3.422 -0.4869  0.1638 -0.5636
   13MOL0     O 1644  11.048   0.582   3.318  0.3427 -0.3003  0.3001
   13MOL0     C 1645  11.187   0.572   3.313 -0.2572 -0.0716 -0.0835
   13MOL0     C 1646  11.253   0.479   3.389 -0.3626 -0.5178  1.1802
   13MOL0     C 1647  11.396   0.468   3.377  0.7803 -0.6202 -0.2107
   13MOL0     C 1648  11.466   0.559   3.291 -0.8096  0.5884 -0.7164
   13MOL0     C 1649  11.611   0.548   3.290 -0.2616 -0.4361  0.5058
   13MOL0     O 1650  11.676   0.434   3.327  0.2139  0.0808  0.2482
   13MOL0     C 1651  11.809   0.438   3.352 -0.1603  0.3559  0.3870
   13MOL0     C 1652  11.849   0.352   3.452  0.5772  0.1140 -0.1477
   13MOL0     C 1653  11.984   0.348   3.495 -0.9690  0.3027  0.1791
   13MOL0     C 1654  12.084   0.425   3.426  0.4381  0.6283  0.3848
   13MOL0     O 1655  12.216   0.431   3.454 -0.4412  0.3971 -0.5462
   13MOL0     C 1656  12.278   0.379   3.575 -0.4146 -0.5381 -0.2213
   13MOL0     C 1657  12.408   0.454   3.601  0.0600 -0.0330  0.2580
   13MOL0     C 1658  12.505   0.411   3.488 -0.0522 -0.1690 -0.8188
   13MOL0     C 1659  12.647   0.462   3.522  0.2633 -0.9004  0.2590
   13MOL0     C 1660  12.761   0.372   3.459 -0.1821 -0.1112  0.2612
   13MOL0     C 1661  12.899   0.432   3.500  0.1255  0.6139  0.5083
   13MOL0     C 1662  13.022   0.352   3.447  0.1696 -0.1170 -0.6898
   13MOL0     C 1663  13.152   0.438   3.438  0.2958 -0.8541 -0.3817
   13MOL0    Cl 1664  13.262   0.357   3.318  0.2285 -0.0592  0.1644
   13MOL0     C 1665  12.046   0.512   3.326 -1.0100  0.1641 -0.4700
   13MOL0     C 1666  11.911   0.509   3.291  1.0279  0.5108  0.2976
   13MOL0     O 1667  11.661   0.653   3.269  0.0461  0.1878  0.3790
   13MOL0     C 1668  11.394   0.646   3.202 -0.0861  0.4812  0.2496
   13MOL0     C 1669  11.259   0.649   3.210 -0.8679 -0.0830  0.7022
   13MOL0     N 1670  10.669   0.788   3.211  0.0183 -0.5460  0.3448
   13MOL0     N 1671  10.608   0.902   3.183  0.4109  0.2587 -0.3496
   13MOL0     C 1672   9.701   1.237   2.315 -1.0485  0.1873  0.4445
   13MOL0     C 1673   9.596   1.308   2.272  0.0084 -0.5696 -0.5696
   13MOL0     C 1674   9.331   1.687   2.333 -0.1230 -1.1510  0.5508
   13MOL0     C 1675   9.211   1.631   2.316 -0.0844 -0.0779  0.7882
   13MOL0     C 1676   9.094   1.701   2.323  0.0497  0.0060 -0.1620
   13MOL0     C 1677   9.096   1.842   2.360  0.6313 -0.5046  0.2145
   13MOL0     O 1678   8.986   1.924   2.378  0.0439 -0.1100  0.7382
   13MOL0     C 1679   8.862   1.858   2.371  0.0948  0.1581  0.8310
   13MOL0     C 1680   8.763   1.968   2.409  0.2265 -0.4836 -0.2295
   13MOL0     C 1681   8.640   1.906   2.472 -0.2849  0.6797 -0.3809
   13MOL0     C 1682   8.524   2.000   2.503  0.2746  0.3532  0.2105
   13MOL0     C 1683   8.399   1.920   2.496 -0.3764  0.0077  0.5797
   13MOL0     C 1684   8.291   1.868   2.518 -0.1720 -0.3916  0.5423
   13MOL0     C 1685   9.217   1.895   2.388 -0.1215 -0.3024  0.6527
   13MOL0     C 1686   9.333   1.829   2.367  0.2986  0.4379  0.5674
   13MOL0     C 1687   9.461   1.900   2.389 -0.3539 -0.7652  0.5885
   13MOL0     H 1688   9.492   1.417   2.573 -0.4270 -1.0755 -0.9693
   13MOL0     H 1689   9.683   1.305   2.646  5.0057  0.5316  0.6824
   13MOL0     H 1690   9.880   1.241   2.666 -1.0136 -0.4813  1.5945
   13MOL0     H 1691   9.798   1.080   2.665 -1.5981  0.5910 -1.1686
   13MOL0     H 1692  10.091   1.132   2.605 -2.5424  1.0841 -2.6564
   13MOL0     H 1693  10.003   0.974   2.629 -1.0133 -0.2612  1.4184
   13MOL0     H 1694  10.036   0.954   2.824  2.3697 -0.4930  0.1851
   13MOL0     H 1695   9.945   1.113   2.858  0.7890  2.1939 -0.7509
   13MOL0     H 1696  10.231   1.076   2.789 -1.3183 -0.5407 -1.1361
   13MOL0     H 1697  10.142   1.235   2.821 -1.2012  0.1456 -0.2428
   13MOL0     H 1698  10.248   1.201   3.028  0.3123 -0.6793  0.9601
   13MOL0     H 1699  10.093   1.132   3.068  0.7562  3.1620  1.4458
   13MOL0     H 1700  10.162   0.899   3.023  0.2310  0.0302  0.7397
   13MOL0     H 1701  10.324   0.957   2.988 -0.4473 -2.4445 -1.1403
   13MOL0     H 1702  10.240   0.878   3.224 -1.1435  0.6066 -1.7937
   13MOL0     H 1703  10.193   1.039   3.249 -0.8298 -1.9364  1.6008
   13MOL0     H 1704  10.455   1.099   3.173 -0.4955  0.9118  2.3034
   13MOL0     H 1705  10.400   1.058   3.336 -0.8471 -0.8842  0.1058
   13MOL0     H 1706  10.371   0.725   3.326  2.3273 -1.8014  0.3517
   13MOL0     H 1707  10.574   0.558   3.425  3.2441 -0.9243 -0.6639
   13MOL0     H 1708  10.526   0.502   3.258  0.0149 -0.7194 -0.2476
   13MOL0     H 1709  10.754   0.416   3.300  1.3915  0.4519  0.4549
   13MOL0     H 1710  10.767   0.558   3.197 -4.0087  1.3133 -1.2478
   13MOL0     H 1711  10.778   0.564   3.511 -0.1210 -0.6948 -0.2863
   13MOL0     H 1712  10.842   0.687   3.405 -2.5098  0.1778 -0.1641
   13MOL0     H 1713  10.957   0.412   3.408 -1.3919  0.5089 -2.3722
   13MOL0     H 1714  11.009   0.542   3.523  0.9247  0.5139 -1.1020
   13MOL0     H 1715  11.210   0.416   3.465 -2.4703  1.1730  1.4933
   13MOL0     H 1716  11.437   0.405   3.455 -2.4383  0.8265  2.9339
   13MOL0     H 1717  11.768   0.300   3.503 -0.5966  2.3417  0.3906
   13MOL0     H 1718  12.011   0.279   3.574 -0.7974  0.7863  0.5413
   13MOL0     H 1719  12.217   0.383   3.666  0.3953 -4.2635  0.6501
   13MOL0     H 1720  12.297   0.275   3.548 -0.9124 -0.6784 -0.0314
   13MOL0     H 1721  12.387   0.561   3.596 -1.4771 -0.3665 -1.1171
   13MOL0     H 1722  12.442   0.433   3.703  0.8009  0.0043  0.0280
   13MOL0     H 1723  12.494   0.302   3.490 -3.3764  0.0620 -1.7735
   13MOL0     H 1724  12.470   0.449   3.391  0.7628 -1.2538 -1.5680
   13MOL0     H 1725  12.656   0.447   3.630 -3.8115  0.6218  1.0115
   13MOL0     H 1726  12.645   0.567   3.494 -3.9112 -1.3617 -2.1128
   13MOL0     H 1727  12.762   0.374   3.349  2.0172  3.0281  0.2133
   13MOL0     H 1728  12.750   0.267   3.486 -0.0921 -0.2730 -0.3094
   13MOL0     H 1729  12.906   0.534   3.460 -1.0107  0.4693 -0.1039
   13MOL0     H 1730  12.896   0.432   3.609 -0.6410 -0.9364  0.5148
   13MOL0     H 1731  13.011   0.318   3.343  2.0327 -2.3406 -0.2197
   13MOL0     H 1732  13.040   0.269   3.515  1.7976  2.2829  1.9982
   13MOL0     H 1733  13.115   0.533   3.399 -0.0175 -1.2396 -1.0399
   13MOL0     H 1734  13.213   0.451   3.528  2.5416  0.3536 -1.9808
   13MOL0     H 1735  12.121   0.563   3.267 -0.7460 -2.8796 -3.0592
   13MOL0     H 1736  11.881   0.579   3.213  1.6536  0.2770 -0.1700
   13MOL0     H 1737  11.447   0.689   3.117 -1.8492 -1.1133 -1.7651
   13MOL0     H 1738  11.200   0.720   3.151  0.0633  0.3210  0.2369
   13MOL0     H 1739   9.762   1.190   2.239 -1.6209  0.6380 -0.3045
   13MOL0     H 1740   9.560   1.305   2.170  1.0919  3.0056 -1.2014
   13MOL0     H 1741   9.195   1.529   2.282  1.0859  0.1867 -0.7167
   13MOL0     H 1742   8.997   1.654   2.314 -1.0360  1.8034  1.4654
   13MOL0     H 1743   8.872   1.776   2.442  3.6917 -0.9504 -0.7032
   13MOL0     H 1744   8.842   1.819   2.271 -0.3530 -0.4479  1.1547
   13MOL0     H 1745   8.727   2.010   2.315 -0.1379 -2.1990 -0.8870
   13MOL0     H 1746   8.804   2.046   2.474  2.5226 -2.3251  0.6869
   13MOL0     H 1747   8.673   1.879   2.573  1.9068 -0.8295 -1.4137
   13MOL0     H 1748   8.615   1.811   2.423 -1.9197  0.0137  1.5931
   13MOL0     H 1749   8.534   2.046   2.601 -0.2394  1.4157 -0.2194
   13MOL0     H 1750   8.512   2.078   2.427 -0.2543 -0.5152 -0.6287
   13MOL0     H 1751   8.202   1.808   2.522  1.1591 -2.4615  0.8270
   13MOL0     H 1752   9.227   2.002   2.406  0.0708  0.1229 -1.6770
   13MOL0     H 1753   9.510   1.924   2.294  1.3574  1.9666  2.0242
   13MOL0     H 1754   9.439   1.998   2.432 -0.6486 -1.2201  1.5148
   13MOL0     H 1755   9.520   1.841   2.460  0.0338 -0.8909  0.1672
   14MOL0     O 1756   4.037   8.479   1.601 -0.5595 -0.3466 -0.5522
   14MOL0     C 1757   3.918   8.457   1.610  0.2909 -0.8125  0.1042
   14MOL0     O 1758   3.857   8.348   1.564  0.1100 -0.4171 -0.8366
   14MOL0     C 1759   3.952   8.249   1.532 -0.6425  0.4317  0.0084
   14MOL0     C 1760   3.996   8.236   1.401 -0.9027  0.0177 -0.0627
   14MOL0     C 1761   4.094   8.141   1.362 -0.1459  0.6197  0.2980
   14MOL0     C 1762   4.146   8.050   1.456  0.4544  0.0057  0.0604
   14MOL0     O 1763   4.249   7.971   1.421 -0.1609  0.4234  0.0512
   14MOL0     C 1764   4.375   8.038   1.429 -0.8268  0.8449  0.4428
   14MOL0     C 1765   4.457   8.020   1.301  0.2176 -0.8778 -0.9010
   14MOL0     C 1766   4.585   8.099   1.311 -0.4429  0.9587  0.1889
   14MOL0     C 1767   4.682   8.075   1.191  0.8051  0.0982 -0.5541
   14MOL0     C 1768   4.814   8.141   1.215  0.4240  0.3502 -0.2245
   14MOL0     C 1769   4.885   8.101   1.084  0.1882  0.7415 -0.1511
   14MOL0     C 1770   5.031   8.146   1.095  0.6507 -0.9169 -0.2177
   14MOL0     C 1771   5.108   8.115   0.957 -0.2304 -1.4133 -0.4890
   14MOL0     N 1772   5.248   8.147   0.976  0.1002 -0.1946  0.0330
   14MOL0     C 1773   5.351   8.135   0.882  0.0588  0.7530  0.3337
   14MOL0     C 1774   5.461   8.184   0.948 -1.6712  1.4515  0.3546
   14MOL0     C 1775   5.599   8.203   0.889 -0.8124  0.3309 -0.4493
   14MOL0     C 1776   5.597   8.275   0.748  1.3703  0.2000  0.6833
   14MOL0     C 1777   5.724   8.249   0.669 -0.1403 -0.4512  0.2689
   14MOL0     C 1778   5.841   8.335   0.700  1.0804 -0.0182  0.2754
   14MOL0     O 1779   5.953   8.279   0.631 -0.0268  0.1248 -0.2059
   14MOL0     C 1780   6.069   8.361   0.642  0.5476  0.3540 -0.6718
   14MOL0     C 1781   6.103   8.427   0.758 -0.2907  0.2672 -0.1014
   14MOL0     C 1782   6.220   8.505   0.766 -1.1252 -0.4112  0.2734
   14MOL0     C 1783   6.309   8.507   0.657  0.6780  0.2885  0.8716
   14MOL0     C 1784   6.432   8.583   0.660 -0.3241  0.3005 -0.7971
   14MOL0     O 1785   6.523   8.558   0.559 -0.0979  0.3376 -0.1749
   14MOL0     C 1786   6.651   8.618   0.556 -0.0575 -0.9570 -0.0097
   14MOL0     C 1787   6.734   8.634   0.665 -0.1744  0.1810  0.5686
   14MOL0     C 1788   6.861   8.689   0.659 -0.0924 -0.2489  0.8830
   14MOL0     C 1789   6.910   8.731   0.541  0.5094  0.3856 -0.4923
   14MOL0     O 1790   7.031   8.800   0.524  1.6960 -0.1006 -0.3064
   14MOL0     C 1791   7.102   8.851   0.633  0.7608  0.4328 -0.3895
   14MOL0     C 1792   7.218   8.939   0.588  0.5031  0.2552 -0.2172
   14MOL0     C 1793   7.270   9.033   0.700  0.6534  1.0774 -0.3016
   14MOL0     C 1794   7.414   8.975   0.731  0.1606 -0.2754  0.8988
   14MOL0     C 1795   7.494   9.078   0.802  0.4631 -0.6165  0.8977
   14MOL0     C 1796   7.622   9.032   0.864  0.1924 -0.6085 -0.6147
   14MOL0     C 1797   7.692   8.927   0.779 -0.7954 -0.1532 -0.7035
   14MOL0     C 1798   7.820   8.902   0.870  0.4722  0.4397  0.0898
   14MOL0    Cl 1799   7.924   9.042   0.866 -0.2854  0.0452 -0.2346
   14MOL0     C 1800   6.834   8.714   0.429  0.6444 -0.9426  0.0385
   14MOL0     C 1801   6.701   8.665   0.435  0.2003  0.1229 -0.3384
   14MOL0     O 1802   6.455   8.657   0.756  0.8511 -0.2069  0.3616
   14MOL0     C 1803   6.283   8.426   0.544 -0.2725  0.5889  0.1262
   14MOL0     C 1804   6.157   8.351   0.532 -0.6889 -0.1513  0.2199
   14MOL0     N 1805   5.425   8.231   1.066 -0.1926  0.3961  0.6300
   14MOL0     N 1806   5.306   8.210   1.085  0.2627 -0.5965  0.5842
   14MOL0     C 1807   4.089   8.057   1.585  0.2441  0.0252 -0.1339
   14MOL0     C 1808   3.997   8.158   1.617 -0.0537 -1.0332  0.1703
   14MOL0     C 1809   3.830   8.552   1.688  0.2317 -0.2771  0.0155
   14MOL0     C 1810   3.718   8.491   1.751  0.0388  0.2810 -0.6299
   14MOL0     C 1811   3.631   8.557   1.829 -1.1131  0.0529 -1.0694
   14MOL0     C 1812   3.644   8.694   1.842 -0.7884 -0.0380 -0.6998
   14MOL0     O 1813   3.538   8.763   1.912  0.3794 -0.0023 -0.7645
   14MOL0     C 1814   3.552   8.908   1.938 -0.2827 -0.2280 -0.4621
   14MOL0     C 1815   3.670   8.939   2.041  0.4547  0.0390  0.3702
   14MOL0     C 1816   3.692   9.092   2.074  0.5425 -0.2363  0.4755
   14MOL0     C 1817   3.817   9.155   1.996 -0.1263  0.4689  0.4312
   14MOL0     C 1818   3.792   9.141   1.849  0.8659 -0.3815 -1.4036
   14MOL0     C 1819   3.768   9.124   1.737  0.1621 -0.0161  0.6723
   14MOL0     C 1820   3.751   8.754   1.777 -0.7272 -0.7190 -0.1746
   14MOL0     C 1821   3.849   8.692   1.693 -0.0279  0.0716 -0.0572
   14MOL0     C 1822   3.962   8.760   1.628  0.7883  0.1762  0.8652
   14MOL0     H 1823   3.945   8.295   1.325  1.1999  2.3364  0.2294
   14MOL0     H 1824   4.118   8.139   1.256  0.3912 -0.5264  0.4296
   14MOL0     H 1825   4.362   8.142   1.459 -0.4769  1.2832 -0.8637
   14MOL0     H 1826   4.436   7.985   1.503  4.0839  0.8586 -3.1369
   14MOL0     H 1827   4.394   8.052   1.217  0.8083 -0.3218 -1.1407
   14MOL0     H 1828   4.486   7.916   1.283  1.0006 -0.4788 -2.0588
   14MOL0     H 1829   4.644   8.076   1.401  0.5384 -0.3675 -0.7476
   14MOL0     H 1830   4.561   8.205   1.308 -0.8694  1.0029  2.7662
   14MOL0     H 1831   4.680   7.970   1.159  0.8270 -0.2067  0.3903
   14MOL0     H 1832   4.627   8.121   1.109 -1.6004  0.1326  0.9891
   14MOL0     H 1833   4.824   8.248   1.234  1.5527 -0.1738  2.4706
   14MOL0     H 1834   4.866   8.087   1.295 -2.6467 -1.3829  0.7612
   14MOL0     H 1835   4.884   7.994   1.060  2.8163  0.1537  1.8299
   14MOL0     H 1836   4.839   8.151   0.999 -1.1139  1.0674  0.7323
   14MOL0     H 1837   5.080   8.093   1.177 -0.8452 -1.4109  0.4102
   14MOL0     H 1838   5.042   8.253   1.113  0.8110 -1.1855  1.4572
   14MOL0     H 1839   5.106   8.010   0.927 -3.1916 -1.8561  0.8449
   14MOL0     H 1840   5.072   8.181   0.878 -2.6133 -1.5480  0.3983
   14MOL0     H 1841   5.339   8.092   0.783 -1.9956  0.1628  0.7881
   14MOL0     H 1842   5.644   8.271   0.962  0.0921 -3.2382  2.6735
   14MOL0     H 1843   5.660   8.112   0.891 -0.8280  0.3181 -0.5892
   14MOL0     H 1844   5.517   8.234   0.686  2.2614 -1.2401  0.4490
   14MOL0     H 1845   5.580   8.383   0.757  2.0234  0.2589  1.3496
   14MOL0     H 1846   5.705   8.254   0.561 -0.9947  1.4263  0.4553
   14MOL0     H 1847   5.764   8.154   0.705  0.9127  1.0329  3.4187
   14MOL0     H 1848   5.855   8.347   0.808 -0.4110  0.4296  0.4492
   14MOL0     H 1849   5.815   8.433   0.659 -1.8571 -1.1360 -0.8249
   14MOL0     H 1850   6.041   8.432   0.847 -0.3185  1.5272 -0.1716
   14MOL0     H 1851   6.235   8.563   0.856 -0.4448 -2.6991  1.7236
   14MOL0     H 1852   6.710   8.596   0.763 -0.1876 -1.6800 -0.1077
   14MOL0     H 1853   6.918   8.712   0.749  0.9992 -1.6158  0.5667
   14MOL0     H 1854   7.038   8.925   0.682  1.3903  1.0052 -0.4245
   14MOL0     H 1855   7.129   8.776   0.709  1.9851 -0.8260 -1.9916
   14MOL0     H 1856   7.292   8.881   0.532  0.7688  0.4176 -0.0376
   14MOL0     H 1857   7.171   9.000   0.510 -1.5399 -0.7066  0.1876
   14MOL0     H 1858   7.271   9.134   0.657  0.9880  1.6347  0.9735
   14MOL0     H 1859   7.211   9.028   0.792  1.4736  0.9183  0.2191
   14MOL0     H 1860   7.471   8.947   0.642 -1.0185  0.8235 -0.2397
   14MOL0     H 1861   7.391   8.887   0.793 -0.2641 -2.4021 -2.0768
   14MOL0     H 1862   7.430   9.120   0.880  2.4378  2.2787  1.1189
   14MOL0     H 1863   7.511   9.156   0.727  0.9067  0.7269  2.3500
   14MOL0     H 1864   7.675   9.126   0.878 -1.6730  0.8216 -2.3812
   14MOL0     H 1865   7.603   8.983   0.960  1.8777  0.4100  0.2706
   14MOL0     H 1866   7.721   8.969   0.683 -0.7401  1.9177  0.1618
   14MOL0     H 1867   7.629   8.838   0.778  2.0829 -2.3190  0.0432
   14MOL0     H 1868   7.783   8.867   0.967 -2.2776 -0.4014 -1.1694
   14MOL0     H 1869   7.876   8.827   0.813 -1.3709  0.0140 -1.2670
   14MOL0     H 1870   6.871   8.751   0.334 -0.1632 -2.5041 -0.9281
   14MOL0     H 1871   6.643   8.661   0.344  0.7560 -0.9009 -0.6730
   14MOL0     H 1872   6.355   8.412   0.463  1.3807 -2.3086  1.9057
   14MOL0     H 1873   6.140   8.289   0.444 -3.3126 -2.6135  2.2885
   14MOL0     H 1874   4.121   7.993   1.666 -1.8008 -0.3349  0.4623
   14MOL0     H 1875   3.958   8.169   1.718  1.0568 -2.0043  0.7412
   14MOL0     H 1876   3.710   8.383   1.752  0.0194  0.2771 -0.9739
   14MOL0     H 1877   3.551   8.514   1.888 -2.0897 -1.3238 -3.2634
   14MOL0     H 1878   3.460   8.942   1.986 -0.8818  0.2836 -1.9341
   14MOL0     H 1879   3.560   8.967   1.846  3.4322  0.2590 -0.0060
   14MOL0     H 1880   3.769   8.911   2.005  0.9039  2.9171 -0.8951
   14MOL0     H 1881   3.651   8.881   2.132  2.7323  1.3118  1.7351
   14MOL0     H 1882   3.710   9.098   2.182 -1.6920 -0.6524  0.9081
   14MOL0     H 1883   3.602   9.147   2.047 -0.2327 -1.5034  0.4292
   14MOL0     H 1884   3.828   9.260   2.025  1.7820  0.4146  0.0709
   14MOL0     H 1885   3.912   9.105   2.016  0.3256  2.3742  3.6479
   14MOL0     H 1886   3.733   9.117   1.636 -1.7487 -1.3874  1.3563
   14MOL0     H 1887   3.747   8.862   1.773  0.0841 -0.7129 -3.3153
   14MOL0     H 1888   3.985   8.703   1.537 -1.0733  0.4407  0.1939
   14MOL0     H 1889   3.929   8.858   1.592 -0.5499  0.3247  2.4103
   14MOL0     H 1890   4.047   8.765   1.697  0.9720  2.9334  0.5664
   15MOL0     O 1891   1.165   1.033   3.867  1.1549 -0.3341 -0.2348
   15MOL0     C 1892   1.153   1.141   3.930 -0.3249 -0.2479 -0.0910
   15MOL0     O 1893   1.235   1.185   4.021 -0.1009 -0.1884 -0.4318
   15MOL0     C 1894   1.351   1.117   4.048  0.0590 -0.3509 -0.0831
   15MOL0     C 1895   1.399   1.139   4.184  1.0173  0.3193  0.3545
   15MOL0     C 1896   1.529   1.097   4.216  1.1051 -0.7953  1.0019
   15MOL0     C 1897   1.599   1.021   4.120  0.5309  0.4978  0.0280
   15MOL0     O 1898   1.721   0.979   4.164  0.6397 -0.4372 -0.0502
   15MOL0     C 1899   1.776   0.849   4.127 -0.4861  1.2702  0.4572
   15MOL0     C 1900   1.914   0.829   4.180 -0.4707  0.6630  0.6488
   15MOL0     C 1901   1.921   0.768   4.332 -0.2405 -0.6059  0.1005
   15MOL0     C 1902   2.067   0.786   4.366  0.1431 -0.3162 -0.3902
   15MOL0     C 1903   2.110   0.720   4.504  0.1626  0.4017  0.3587
   15MOL0     C 1904   2.082   0.572   4.525  0.5570  0.0795  0.0348
   15MOL0     C 1905   2.170   0.487   4.626 -0.1642 -0.1931  0.2345
   15MOL0     C 1906   2.105   0.350   4.656  0.4989  0.2498 -0.2373
   15MOL0     N 1907   2.185   0.273   4.752 -0.2550 -0.5050  0.2356
   15MOL0     C 1908   2.303   0.331   4.808  0.0748  0.1950  0.5269
   15MOL0     C 1909   2.348   0.216   4.875  0.4675 -0.3227  0.3377
   15MOL0     C 1910   2.469   0.219   4.949 -0.1355  0.7005 -0.2531
   15MOL0     C 1911   2.602   0.212   4.862 -0.2702 -0.4527 -0.4117
   15MOL0     C 1912   2.727   0.194   4.950 -0.6274  0.1319  0.0670
   15MOL0     C 1913   2.850   0.171   4.859 -0.2338 -0.4985 -0.0200
   15MOL0     O 1914   2.951   0.262   4.905 -0.3241  0.1240 -0.6877
   15MOL0     C 1915   2.965   0.382   4.851 -0.9430  0.9237 -0.3649
   15MOL0     C 1916   3.058   0.466   4.919  1.5205 -0.0607 -0.3431
   15MOL0     C 1917   3.086   0.593   4.868 -0.4017 -0.3357  0.1612
   15MOL0     C 1918   3.032   0.648   4.754  0.3030  0.2671 -0.1794
   15MOL0     C 1919   3.077   0.768   4.700 -0.5401 -0.2895  0.4079
   15MOL0     O 1920   3.156   0.853   4.779 -0.8429 -0.4964 -0.3255
   15MOL0     C 1921   3.211   0.968   4.727 -0.0494 -0.1268  0.6411
   15MOL0     C 1922   3.157   1.088   4.777  0.7780 -0.0443  0.4219
   15MOL0     C 1923   3.205   1.205   4.720  1.2667  0.5555 -0.4998
   15MOL0     C 1924   3.299   1.213   4.617 -0.4452 -0.5262  0.2810
   15MOL0     O 1925   3.348   1.324   4.557 -0.2450 -0.6765 -0.0133
   15MOL0     C 1926   3.260   1.430   4.535 -0.0119 -0.8192 -0.0378
   15MOL0     C 1927   3.319   1.544   4.445 -0.8345 -0.4930 -0.1290
   15MOL0     C 1928   3.444   1.620   4.509  0.3967  0.9593 -0.1724
   15MOL0     C 1929   3.481   1.729   4.415 -0.0657 -0.2801  0.4116
   15MOL0     C 1930   3.587   1.819   4.477  1.1645  0.5934  0.4952
   15MOL0     C 1931   3.595   1.946   4.394 -0.4245  0.0842  0.9139
   15MOL0     C 1932   3.718   2.034   4.424 -1.2846  0.5342 -0.5542
   15MOL0     C 1933   3.733   2.134   4.304 -1.2312  1.0719 -0.4041
   15MOL0    Cl 1934   3.591   2.246   4.302  0.0321  0.1760  0.1675
   15MOL0     C 1935   3.364   1.089   4.579 -0.1794  0.5964 -0.1856
   15MOL0     C 1936   3.315   0.967   4.635 -0.1604  0.8520 -0.2137
   15MOL0     O 1937   3.052   0.790   4.580 -0.8003  0.0288  0.4968
   15MOL0     C 1938   2.931   0.569   4.691 -0.3014  0.3234  0.4128
   15MOL0     C 1939   2.902   0.441   4.742  0.3467 -0.2708  0.7852
   15MOL0     N 1940   2.272   0.104   4.856  0.1918  0.3014 -0.3277
   15MOL0     N 1941   2.168   0.141   4.788 -0.6080 -0.7153  0.1118
   15MOL0     C 1942   1.557   1.004   3.989 -0.3675 -0.5903 -0.0702
   15MOL0     C 1943   1.436   1.051   3.953  0.9808  0.6666 -0.8566
   15MOL0     C 1944   1.036   1.227   3.900  0.5695 -0.3177 -0.0889
   15MOL0     C 1945   1.044   1.363   3.923 -0.0618 -0.0984  0.2843
   15MOL0     C 1946   0.949   1.463   3.898  0.3247 -0.2719  0.1823
   15MOL0     C 1947   0.820   1.429   3.845  1.2084 -0.5354 -0.9063
   15MOL0     O 1948   0.738   1.525   3.797 -0.4069 -0.1053  0.1210
   15MOL0     C 1949   0.635   1.494   3.698  0.0196  0.6436  0.0296
   15MOL0     C 1950   0.536   1.604   3.682 -0.2771  0.7048 -0.8174
   15MOL0     C 1951   0.609   1.722   3.610 -0.0148  0.3817  0.5321
   15MOL0     C 1952   0.539   1.862   3.621 -0.2132  0.2900 -0.4904
   15MOL0     C 1953   0.422   1.882   3.528  1.0337 -0.0921  0.6101
   15MOL0     C 1954   0.328   1.869   3.444 -0.3304  0.1701 -0.8431
   15MOL0     C 1955   0.809   1.290   3.807 -0.1866 -0.0764  0.6254
   15MOL0     C 1956   0.908   1.189   3.838 -0.1658 -0.6219 -0.3033
   15MOL0     C 1957   0.873   1.045   3.802 -0.3246 -0.2153  0.5033
   15MOL0     H 1958   1.335   1.198   4.249  0.1960 -1.3929  1.1645
   15MOL0     H 1959   1.587   1.122   4.304  2.3404  1.3791 -0.3351
   15MOL0     H 1960   1.711   0.763   4.144 -1.6483  2.0257  0.0118
   15MOL0     H 1961   1.795   0.851   4.020  0.0194 -0.1122  0.5143
   15MOL0     H 1962   1.974   0.920   4.165 -0.9985  0.5099 -3.2332
   15MOL0     H 1963   1.961   0.754   4.116 -0.3158  1.6893 -0.4873
   15MOL0     H 1964   1.904   0.660   4.331 -1.8075 -0.3836 -0.1087
   15MOL0     H 1965   1.855   0.818   4.403  1.0162  1.6252 -0.2215
   15MOL0     H 1966   2.123   0.751   4.278  1.9471  3.6675 -1.0431
   15MOL0     H 1967   2.097   0.891   4.366  0.5802 -0.4302 -1.1687
   15MOL0     H 1968   2.216   0.747   4.517  0.4559  0.2104 -1.3938
   15MOL0     H 1969   2.048   0.782   4.569 -1.3611  2.6299 -2.9518
   15MOL0     H 1970   1.980   0.578   4.564  1.8514  3.1140  3.5952
   15MOL0     H 1971   2.085   0.522   4.428  0.1067  0.4161 -0.1568
   15MOL0     H 1972   2.176   0.544   4.719 -3.1065 -1.0310  1.0468
   15MOL0     H 1973   2.265   0.470   4.574  1.2365 -1.1190  2.8783
   15MOL0     H 1974   2.007   0.374   4.699 -0.2467 -0.2910 -1.5547
   15MOL0     H 1975   2.095   0.290   4.565 -3.9916  0.4634 -0.1092
   15MOL0     H 1976   2.344   0.431   4.807  3.3215 -1.0248 -0.0217
   15MOL0     H 1977   2.479   0.313   5.004 -1.8143 -0.1600  1.6864
   15MOL0     H 1978   2.472   0.132   5.016  1.3894  0.5630 -0.4783
   15MOL0     H 1979   2.584   0.125   4.799  2.1740 -1.6390  0.4056
   15MOL0     H 1980   2.616   0.299   4.797  2.4697  0.3112  1.0539
   15MOL0     H 1981   2.723   0.113   5.025 -3.3298 -1.1046 -1.2713
   15MOL0     H 1982   2.741   0.288   5.004  1.6147 -0.8093  1.2694
   15MOL0     H 1983   2.829   0.196   4.755  1.1199  1.6788  0.1559
   15MOL0     H 1984   2.881   0.067   4.868 -1.4948 -0.7949  1.3981
   15MOL0     H 1985   3.114   0.436   5.006  1.5569  2.6097  0.6626
   15MOL0     H 1986   3.161   0.655   4.916 -1.2777 -0.2696  1.5071
   15MOL0     H 1987   3.083   1.089   4.856 -0.6438  0.4167 -0.8647
   15MOL0     H 1988   3.169   1.300   4.758 -0.9463  0.5984 -2.4615
   15MOL0     H 1989   3.173   1.387   4.485 -1.1663  0.1772  1.0315
   15MOL0     H 1990   3.232   1.473   4.632 -0.2282  1.1359 -0.9280
   15MOL0     H 1991   3.355   1.511   4.348  3.2923  1.1357  0.6355
   15MOL0     H 1992   3.248   1.627   4.430 -1.2678 -0.0624  3.3728
   15MOL0     H 1993   3.418   1.664   4.606  0.9337  0.4422  0.2131
   15MOL0     H 1994   3.522   1.544   4.520 -1.3015 -0.9388 -0.7245
   15MOL0     H 1995   3.391   1.789   4.393  0.4474 -0.7732 -4.0944
   15MOL0     H 1996   3.508   1.699   4.313  0.3723 -2.8607  1.2112
   15MOL0     H 1997   3.683   1.768   4.464  0.6812 -0.2887  0.3289
   15MOL0     H 1998   3.566   1.847   4.581 -1.2420  1.9983 -0.2931
   15MOL0     H 1999   3.601   1.927   4.286 -0.7751 -0.3395  0.9704
   15MOL0     H 2000   3.500   2.000   4.403  0.7378  2.2142  1.0120
   15MOL0     H 2001   3.810   1.978   4.442 -1.6530  0.8859  3.0810
   15MOL0     H 2002   3.703   2.088   4.518  0.3950  0.9459 -0.4824
   15MOL0     H 2003   3.816   2.200   4.330 -1.6320  1.1049  0.8635
   15MOL0     H 2004   3.743   2.073   4.214  0.2578 -2.8137  2.1283
   15MOL0     H 2005   3.444   1.099   4.506  0.8069 -2.5440  0.3216
   15MOL0     H 2006   3.345   0.869   4.599  0.1354  1.2029 -0.9414
   15MOL0     H 2007   2.871   0.607   4.609  1.8921 -0.6150 -1.7470
   15MOL0     H 2008   2.837   0.379   4.681  4.5561 -0.7578 -3.9430
   15MOL0     H 2009   1.620   0.947   3.922  0.5306 -1.3485  1.3722
   15MOL0     H 2010   1.408   1.037   3.849  1.6246  0.8120 -1.0556
   15MOL0     H 2011   1.141   1.405   3.949 -0.8965  1.8170  0.4866
   15MOL0     H 2012   0.979   1.567   3.896 -0.4814  0.0200 -3.0339
   15MOL0     H 2013   0.579   1.407   3.735 -0.4992  2.1681  3.2061
   15MOL0     H 2014   0.677   1.469   3.601  0.7524 -1.8523  0.8989
   15MOL0     H 2015   0.501   1.635   3.781 -0.3071 -1.5749 -0.0710
   15MOL0     H 2016   0.446   1.573   3.627 -0.1302 -3.8833  1.1060
   15MOL0     H 2017   0.612   1.692   3.505  3.8366  0.4287  0.4717
   15MOL0     H 2018   0.713   1.726   3.646 -0.2281  0.1206  1.1895
   15MOL0     H 2019   0.502   1.870   3.723  3.0204  0.9025  0.7580
   15MOL0     H 2020   0.628   1.925   3.613  0.0345  0.0404  0.2433
   15MOL0     H 2021   0.256   1.871   3.364  0.4420  1.7579 -1.5497
   15MOL0     H 2022   0.724   1.257   3.750 -0.3578  0.0153  0.8261
   15MOL0     H 2023   0.842   0.990   3.891  1.1597 -2.5952 -0.3343
   15MOL0     H 2024   0.792   1.045   3.729 -0.0266  2.0444  0.1169
   15MOL0     H 2025   0.955   0.988   3.757 -0.2542 -1.0721  1.6715
   16MOL0     O 2026   8.724   2.072   6.771  0.4862  0.1012  0.0260
   16MOL0     C 2027   8.723   1.946   6.757 -0.3994 -0.7388 -0.4333
   16MOL0     O 2028   8.827   1.874   6.708  0.2669 -0.6106  0.3866
   16MOL0     C 2029   8.920   1.927   6.627 -0.7210 -0.5888 -0.0945
   16MOL0     C 2030   8.882   1.974   6.502  0.9550  0.3945 -0.2259
   16MOL0     C 2031   8.983   2.019   6.412 -1.3719 -0.1203  0.7436
   16MOL0     C 2032   9.118   2.021   6.444  0.3807 -1.0547 -0.6307
   16MOL0     O 2033   9.200   2.091   6.373  0.3654 -0.2713 -0.1112
   16MOL0     C 2034   9.290   2.006   6.296 -0.9277  0.2140  0.2630
   16MOL0     C 2035   9.389   2.101   6.227 -1.1103 -1.2913  0.3360
   16MOL0     C 2036   9.530   2.038   6.197  0.0177 -0.6339 -0.0407
   16MOL0     C 2037   9.623   2.142   6.141 -0.8565 -0.2263 -0.1591
   16MOL0     C 2038   9.756   2.074   6.108 -0.1707  0.8976  0.3761
   16MOL0     C 2039   9.828   2.142   5.997 -0.2503 -0.5189 -0.3234
   16MOL0     C 2040   9.955   2.063   5.965  0.1749 -0.1193 -0.6245
   16MOL0     C 2041  10.036   2.131   5.853 -0.9442 -0.1528 -0.1704
   16MOL0     N 2042  10.084   2.263   5.881 -0.4522 -0.5188  0.8904
   16MOL0     C 2043  10.180   2.296   5.982  0.1144 -0.5358  0.5062
   16MOL0     C 2044  10.170   2.434   6.007  0.3635  0.1007  0.0763
   16MOL0     C 2045  10.220   2.535   6.098  0.3421  0.3267  0.6946
   16MOL0     C 2046  10.370   2.515   6.129 -0.1081  0.1637 -0.4218
   16MOL0     C 2047  10.458   2.580   6.016  0.1196 -0.4403 -0.2920
   16MOL0     C 2048  10.609   2.566   6.031  0.6120  0.3999  0.0662
   16MOL0     O 2049  10.634   2.425   6.012  0.1305  0.1889  0.4277
   16MOL0     C 2050  10.763   2.382   6.033 -0.1763  0.1786 -0.1059
   16MOL0     C 2051  10.875   2.453   5.983  0.6475 -0.3607  0.0416
   16MOL0     C 2052  11.010   2.403   5.993  0.2659  0.9564 -0.1892
   16MOL0     C 2053  11.030   2.277   6.057 -0.4282  0.3834  0.8353
   16MOL0     C 2054  11.173   2.240   6.065 -0.5132  0.0957  0.0629
   16MOL0     O 2055  11.267   2.325   6.006  0.7959  0.7132  0.1336
   16MOL0     C 2056  11.394   2.266   5.993 -0.0348  0.8649 -0.0309
   16MOL0     C 2057  11.417   2.150   5.920 -0.1673 -0.1188  0.2781
   16MOL0     C 2058  11.545   2.091   5.917 -0.3333 -0.2251  0.2574
   16MOL0     C 2059  11.649   2.148   5.988 -0.0572 -1.1261 -1.2077
   16MOL0     O 2060  11.780   2.104   5.997  0.1084  0.7251 -0.5283
   16MOL0     C 2061  11.821   1.989   5.911 -0.9501 -0.2597 -0.2447
   16MOL0     C 2062  11.978   2.007   5.906  0.8324 -1.0515 -0.2510
   16MOL0     C 2063  12.043   1.958   6.036  0.6686 -0.4563  0.2122
   16MOL0     C 2064  12.191   1.970   6.018  1.0012  0.0717 -0.1290
   16MOL0     C 2065  12.262   1.963   6.156  0.2117  1.0694 -0.4660
   16MOL0     C 2066  12.389   2.045   6.150 -0.4565  1.1416  0.3559
   16MOL0     C 2067  12.481   2.047   6.270 -0.0177  0.7205 -1.0547
   16MOL0     C 2068  12.615   2.116   6.242  0.1694 -0.0520 -0.0928
   16MOL0    Cl 2069  12.694   2.138   6.401  0.3842  0.0421  0.5195
   16MOL0     C 2070  11.626   2.268   6.062  0.3205  0.9275 -0.1885
   16MOL0     C 2071  11.498   2.335   6.059  0.0559 -0.2458  0.3815
   16MOL0     O 2072  11.188   2.136   6.130 -0.0977 -0.2834  0.4035
   16MOL0     C 2073  10.916   2.198   6.094  0.5984 -0.2547 -0.2674
   16MOL0     C 2074  10.794   2.256   6.080  1.3116 -0.3178  0.4875
   16MOL0     N 2075  10.075   2.477   5.909 -0.8966 -1.2296 -0.0282
   16MOL0     N 2076  10.032   2.380   5.834  0.3395 -0.1947  0.8501
   16MOL0     C 2077   9.155   1.971   6.571 -0.6481  0.7591 -0.0274
   16MOL0     C 2078   9.055   1.923   6.659 -0.0204 -0.1787  0.1137
   16MOL0     C 2079   8.611   1.865   6.821 -0.1601 -0.0968  0.4180
   16MOL0     C 2080   8.608   1.731   6.800 -0.1481 -0.3852 -0.1683
   16MOL0     C 2081   8.526   1.646   6.871 -0.0697  0.3263  0.0115
   16MOL0     C 2082   8.427   1.701   6.957  0.7079 -0.6175 -0.9051
   16MOL0     O 2083   8.331   1.614   7.016  0.2320  0.3783 -0.3825
   16MOL0     C 2084   8.206   1.663   7.070  0.2981  0.1701 -0.3797
   16MOL0     C 2085   8.122   1.554   7.131 -0.7600  0.2897  0.3200
   16MOL0     C 2086   8.013   1.620   7.215 -0.4650 -0.2767  1.0317
   16MOL0     C 2087   7.898   1.519   7.229 -0.8078 -0.0092 -0.2568
   16MOL0     C 2088   7.820   1.557   7.344 -0.1975  0.3042 -0.0282
   16MOL0     C 2089   7.748   1.588   7.437  0.5097  0.2229  0.2285
   16MOL0     C 2090   8.428   1.842   6.988  0.3584  0.8418  0.4092
   16MOL0     C 2091   8.518   1.917   6.915 -0.5383 -0.9869 -0.6717
   16MOL0     C 2092   8.485   2.064   6.941 -0.3442 -0.3187  0.5595
   16MOL0     H 2093   8.775   1.982   6.485  0.6554 -1.1389  0.6675
   16MOL0     H 2094   8.955   2.051   6.312 -2.6815  0.8851  1.3980
   16MOL0     H 2095   9.366   1.953   6.355  1.3562  0.8158 -1.9757
   16MOL0     H 2096   9.244   1.941   6.221 -0.9704 -0.0491  0.5124
   16MOL0     H 2097   9.407   2.190   6.288 -2.3202  0.3039 -1.5146
   16MOL0     H 2098   9.351   2.140   6.132  3.3068 -1.0471 -1.6048
   16MOL0     H 2099   9.520   1.960   6.120  1.2981 -2.0961  1.2166
   16MOL0     H 2100   9.589   1.994   6.278  1.3251  2.3876  0.7685
   16MOL0     H 2101   9.574   2.188   6.054  1.3494  0.0545 -1.3227
   16MOL0     H 2102   9.634   2.225   6.211 -0.8319 -0.8932  0.6376
   16MOL0     H 2103   9.818   2.074   6.198  1.3435  1.0129 -0.6516
   16MOL0     H 2104   9.728   1.972   6.077 -1.4969  1.5066 -0.5456
   16MOL0     H 2105   9.756   2.137   5.915  0.7229 -0.8485 -1.1737
   16MOL0     H 2106   9.846   2.248   6.018  0.7050 -0.5849 -0.7259
   16MOL0     H 2107   9.937   1.962   5.927  0.9095 -0.1166 -0.9898
   16MOL0     H 2108  10.008   2.041   6.058 -1.5776  0.4435  0.5453
   16MOL0     H 2109  10.122   2.069   5.828  0.7461  1.6082  0.9862
   16MOL0     H 2110   9.978   2.134   5.760 -2.3993 -0.1525  0.6972
   16MOL0     H 2111  10.243   2.222   6.031  0.5108  0.9025  2.2726
   16MOL0     H 2112  10.202   2.636   6.059 -0.5085  0.1020  0.4845
   16MOL0     H 2113  10.156   2.533   6.187  0.0971  0.8279  0.5354
   16MOL0     H 2114  10.399   2.575   6.216  0.2935  1.3759 -1.3733
   16MOL0     H 2115  10.389   2.407   6.137 -2.3278 -0.1494  2.2756
   16MOL0     H 2116  10.433   2.686   6.014  2.5123  0.1405 -2.0729
   16MOL0     H 2117  10.428   2.531   5.923 -2.2538  2.5048 -1.2153
   16MOL0     H 2118  10.634   2.586   6.135 -0.0685 -2.6960  0.9316
   16MOL0     H 2119  10.658   2.637   5.964 -0.3678  0.1089 -0.9914
   16MOL0     H 2120  10.854   2.542   5.925 -0.6658 -1.3664 -1.1009
   16MOL0     H 2121  11.088   2.452   5.937  3.8642 -3.3902  0.5033
   16MOL0     H 2122  11.333   2.104   5.869 -0.2338 -1.7982  1.8133
   16MOL0     H 2123  11.554   1.993   5.872 -0.3711  0.0606 -0.3801
   16MOL0     H 2124  11.794   1.893   5.955  0.5802 -0.0366  1.2906
   16MOL0     H 2125  11.776   1.984   5.811  0.6537  2.1423 -1.1876
   16MOL0     H 2126  12.008   1.935   5.830  3.9641 -1.3535  1.0903
   16MOL0     H 2127  12.008   2.104   5.864 -2.6704  0.4554  0.4357
   16MOL0     H 2128  12.006   2.020   6.118 -2.1206 -0.4416 -0.9754
   16MOL0     H 2129  12.000   1.859   6.055 -3.2748  1.0821  0.1941
   16MOL0     H 2130  12.223   2.067   5.979  3.6892  0.1566  1.9453
   16MOL0     H 2131  12.227   1.899   5.944  0.5670  1.9579 -2.2380
   16MOL0     H 2132  12.280   1.858   6.182 -1.8291  1.0175  1.0212
   16MOL0     H 2133  12.201   1.992   6.242  3.1988  1.5203  1.6902
   16MOL0     H 2134  12.448   2.006   6.066  0.5356  0.1905  1.4576
   16MOL0     H 2135  12.352   2.145   6.127 -1.3637  0.7733  0.1906
   16MOL0     H 2136  12.501   1.946   6.307 -0.9010  0.3090 -1.6629
   16MOL0     H 2137  12.430   2.097   6.352  1.2612 -0.7049  0.6796
   16MOL0     H 2138  12.667   2.051   6.172  0.2886  0.4598 -0.4817
   16MOL0     H 2139  12.603   2.212   6.191 -1.8948 -1.1787 -1.8865
   16MOL0     H 2140  11.711   2.325   6.099 -0.4879  5.6287 -4.4591
   16MOL0     H 2141  11.468   2.431   6.099  1.5603  0.2457  0.4141
   16MOL0     H 2142  10.934   2.103   6.142 -1.2894 -1.2360 -1.4036
   16MOL0     H 2143  10.717   2.188   6.118 -0.2587  2.0054  1.7176
   16MOL0     H 2144   9.251   1.985   6.620  0.5249 -0.8953 -1.7362
   16MOL0     H 2145   9.090   1.901   6.760  1.2282 -1.7730 -0.6181
   16MOL0     H 2146   8.669   1.679   6.728  0.8800  0.0017  0.3927
   16MOL0     H 2147   8.527   1.538   6.856  0.7510  0.6032 -2.2921
   16MOL0     H 2148   8.142   1.706   6.993 -1.5888 -2.5161 -0.4278
   16MOL0     H 2149   8.225   1.732   7.153  0.7178 -0.1389 -0.2125
   16MOL0     H 2150   8.180   1.487   7.194 -0.5562 -2.6125 -2.7244
   16MOL0     H 2151   8.084   1.499   7.045  2.3218 -0.7595 -0.4650
   16MOL0     H 2152   7.978   1.706   7.157 -0.3662  1.1854  3.0237
   16MOL0     H 2153   8.055   1.649   7.312  0.7037  0.9551  0.2062
   16MOL0     H 2154   7.835   1.505   7.141 -0.2299 -1.1425 -0.5027
   16MOL0     H 2155   7.928   1.418   7.257 -1.9805 -0.1947  0.3969
   16MOL0     H 2156   7.694   1.619   7.524 -1.5801  0.7897 -1.1730
   16MOL0     H 2157   8.353   1.876   7.058 -0.3801 -1.0119  0.5794
   16MOL0     H 2158   8.570   2.118   6.984  1.0009 -1.2328 -0.8735
   16MOL0     H 2159   8.462   2.106   6.843  2.7988  0.3946  0.0244
   16MOL0     H 2160   8.400   2.085   7.008  2.1126  1.6079  3.3781
   17MOL0     O 2161   5.253   0.802   8.938  0.0660 -0.2781  0.7236
   17MOL0     C 2162   5.252   0.923   8.903 -0.3125 -0.2638  0.2672
   17MOL0     O 2163   5.355   1.001   8.851 -0.0765 -0.6543  0.0058
   17MOL0     C 2164   5.461   0.938   8.792  0.3927  0.7139 -0.2315
   17MOL0     C 2165   5.445   0.865   8.676 -0.4466 -0.5905 -0.1792
   17MOL0     C 2166   5.555   0.821   8.602 -0.1706 -0.3625 -0.4299
   17MOL0     C 2167   5.687   0.842   8.651 -0.5918  0.2064  0.3446
   17MOL0     O 2168   5.796   0.808   8.573  0.1796  0.6651 -0.7896
   17MOL0     C 2169   5.774   0.729   8.456  0.4964 -0.0418 -0.1274
   17MOL0     C 2170   5.903   0.677   8.397 -0.1828 -0.4041 -0.0982
   17MOL0     C 2171   5.996   0.795   8.369  0.6448  0.3640 -0.4098
   17MOL0     C 2172   6.084   0.762   8.250 -1.0363  0.1486 -0.0308
   17MOL0     C 2173   6.187   0.871   8.208  0.4372 -0.7502 -0.3968
   17MOL0     C 2174   6.297   0.810   8.129  0.1902  0.5509 -0.0140
   17MOL0     C 2175   6.419   0.899   8.125  0.4360  0.0618  0.5995
   17MOL0     C 2176   6.545   0.806   8.104  0.5543 -0.6985 -0.2631
   17MOL0     N 2177   6.672   0.878   8.102 -0.0051 -0.0549  0.2123
   17MOL0     C 2178   6.763   0.891   8.208 -0.3661  0.2179  0.8693
   17MOL0     C 2179   6.880   0.916   8.149 -0.5240 -0.2775 -0.0259
   17MOL0     C 2180   6.992   0.948   8.242  0.0133 -1.0998 -0.4998
   17MOL0     C 2181   7.130   0.952   8.174  0.3453  0.2066  0.0475
   17MOL0     C 2182   7.238   0.989   8.281 -0.1846  0.4826 -0.2231
   17MOL0     C 2183   7.374   1.000   8.216  0.4200 -0.3568 -0.1186
   17MOL0     O 2184   7.466   0.993   8.333 -0.2414 -0.2576  0.2414
   17MOL0     C 2185   7.594   1.035   8.307 -0.6857  0.3210 -0.4198
   17MOL0     C 2186   7.638   1.104   8.190 -0.7586 -0.4012  0.3148
   17MOL0     C 2187   7.772   1.150   8.184 -0.4494 -0.2554  0.2591
   17MOL0     C 2188   7.865   1.125   8.286 -0.9219 -0.3152  0.5707
   17MOL0     C 2189   7.998   1.179   8.280  0.4081  0.2080  0.5044
   17MOL0     O 2190   8.084   1.124   8.374 -0.1730 -0.3832 -0.0057
   17MOL0     C 2191   8.212   1.165   8.389 -0.7310 -0.5095 -0.5804
   17MOL0     C 2192   8.262   1.298   8.363  0.4830  0.2429 -0.0607
   17MOL0     C 2193   8.397   1.325   8.380  0.3641 -0.2397  0.2350
   17MOL0     C 2194   8.490   1.237   8.423  0.5069  0.4489  0.2643
   17MOL0     O 2195   8.622   1.283   8.430 -0.8978  0.1270  0.6456
   17MOL0     C 2196   8.715   1.188   8.381  0.2637 -0.5419 -0.1533
   17MOL0     C 2197   8.859   1.254   8.372 -0.0181 -0.1309 -0.1837
   17MOL0     C 2198   8.966   1.172   8.303  0.6141  0.1810  0.6869
   17MOL0     C 2199   9.109   1.226   8.295 -0.3871  0.6155 -0.1974
   17MOL0     C 2200   9.187   1.183   8.416 -0.1755  1.0935 -0.0530
   17MOL0     C 2201   9.323   1.253   8.429 -0.3655  0.2163  0.4207
   17MOL0     C 2202   9.406   1.181   8.543 -1.1294  0.6252 -0.4313
   17MOL0     C 2203   9.541   1.245   8.571  0.4009  0.0772 -0.2834
   17MOL0    Cl 2204   9.634   1.155   8.694  0.2481 -0.1920 -0.0738
   17MOL0     C 2205   8.438   1.107   8.471 -0.4180 -0.5177 -0.4717
   17MOL0     C 2206   8.301   1.076   8.449 -1.4202  0.3846  0.4030
   17MOL0     O 2207   8.023   1.271   8.197  0.0942  0.0292  0.5770
   17MOL0     C 2208   7.821   1.054   8.397 -0.2217  0.0797 -0.5842
   17MOL0     C 2209   7.687   1.017   8.411  0.0307  0.3058 -0.6208
   17MOL0     N 2210   6.852   0.934   8.008 -0.3695  0.3805 -0.6342
   17MOL0     N 2211   6.731   0.920   7.984 -0.0209 -0.5467  0.3811
   17MOL0     C 2212   5.696   0.907   8.774  0.5420  0.0179  0.0891
   17MOL0     C 2213   5.587   0.953   8.847  0.5656 -0.0377  0.0084
   17MOL0     C 2214   5.116   0.992   8.930 -0.2732 -0.5830  0.1762
   17MOL0     C 2215   5.005   0.913   8.949  0.6208 -0.4633  0.8133
   17MOL0     C 2216   4.890   0.964   8.987  0.2846  0.0802  0.1670
   17MOL0     C 2217   4.871   1.095   9.028 -0.4341  1.1077 -0.0707
   17MOL0     O 2218   4.757   1.138   9.095 -0.6011  0.3033 -0.0899
   17MOL0     C 2219   4.629   1.075   9.084  0.2408 -0.1621  0.5478
   17MOL0     C 2220   4.530   1.155   9.174  0.4372 -0.1790  0.2392
   17MOL0     C 2221   4.389   1.163   9.120 -0.3224  0.2026 -1.1731
   17MOL0     C 2222   4.299   1.036   9.136  0.8218 -0.1710 -0.0648
   17MOL0     C 2223   4.152   1.072   9.137  0.3088  0.1410 -0.6655
   17MOL0     C 2224   4.034   1.104   9.128 -0.1444 -0.9722 -0.3958
   17MOL0     C 2225   4.988   1.174   9.024  0.8130  0.1642  0.6326
   17MOL0     C 2226   5.111   1.128   8.963  0.6787 -0.0017 -0.3380
   17MOL0     C 2227   5.233   1.220   8.976 -0.3483  0.1881  0.8340
   17MOL0     H 2228   5.343   0.865   8.639  0.8371  0.4383 -4.1701
   17MOL0     H 2229   5.532   0.773   8.507  2.1488 -0.3265 -1.0561
   17MOL0     H 2230   5.703   0.648   8.475  0.4391  0.3160  1.2831
   17MOL0     H 2231   5.729   0.805   8.390 -3.3554 -1.8941  0.0624
   17MOL0     H 2232   5.887   0.623   8.304  1.2645 -0.7915 -0.1448
   17MOL0     H 2233   5.948   0.614   8.474 -2.3034  0.6055  2.1247
   17MOL0     H 2234   6.062   0.807   8.455  0.5099  0.2428 -0.2900
   17MOL0     H 2235   5.941   0.887   8.348 -0.3943 -0.4099 -1.2359
   17MOL0     H 2236   6.133   0.665   8.260 -0.0114  0.4418 -1.6955
   17MOL0     H 2237   6.035   0.749   8.153  0.3445  2.8062 -1.2188
   17MOL0     H 2238   6.133   0.949   8.154  0.2995 -1.5026 -1.3765
   17MOL0     H 2239   6.225   0.923   8.296 -2.4326  3.4655 -1.3174
   17MOL0     H 2240   6.319   0.714   8.176  0.9917  1.5170  1.6836
   17MOL0     H 2241   6.272   0.787   8.025 -1.3952 -1.1533  0.7022
   17MOL0     H 2242   6.436   0.961   8.214  3.7679  1.7468 -1.0604
   17MOL0     H 2243   6.396   0.962   8.039  1.8057 -0.5890 -0.2779
   17MOL0     H 2244   6.539   0.750   8.198  0.7865 -1.5024 -0.7138
   17MOL0     H 2245   6.522   0.741   8.019 -0.2859 -1.1206  0.2769
   17MOL0     H 2246   6.750   0.870   8.313 -0.0447  0.6546  0.9961
   17MOL0     H 2247   6.983   1.049   8.283  0.7219 -1.5276  0.7818
   17MOL0     H 2248   6.995   0.879   8.327  0.9244 -0.1014  0.3129
   17MOL0     H 2249   7.169   0.862   8.127  0.8784  0.1595  0.5679
   17MOL0     H 2250   7.138   1.027   8.095  1.7029  0.5117  0.4367
   17MOL0     H 2251   7.248   0.903   8.347  1.1297  0.2397 -0.7096
   17MOL0     H 2252   7.226   1.075   8.348 -2.7049 -1.1906  1.6835
   17MOL0     H 2253   7.368   1.095   8.162 -1.4810 -2.0127 -3.0601
   17MOL0     H 2254   7.395   0.918   8.148  2.4075  1.3334 -1.6905
   17MOL0     H 2255   7.577   1.133   8.105  1.6898 -0.7019 -1.6872
   17MOL0     H 2256   7.799   1.217   8.103 -0.4643  0.1509  0.5866
   17MOL0     H 2257   8.187   1.367   8.324 -0.8855 -0.3873  1.3153
   17MOL0     H 2258   8.432   1.426   8.360  0.7998  0.1281  2.5597
   17MOL0     H 2259   8.717   1.100   8.446  1.0344 -0.3801  0.0457
   17MOL0     H 2260   8.683   1.157   8.281  0.6069  0.2923 -0.5340
   17MOL0     H 2261   8.860   1.352   8.322  1.0257  1.2249  2.3128
   17MOL0     H 2262   8.899   1.267   8.473  0.1597 -3.2547  0.2513
   17MOL0     H 2263   8.964   1.070   8.343 -0.5510 -0.9439 -1.9603
   17MOL0     H 2264   8.926   1.172   8.201  1.6460  1.6833  0.2555
   17MOL0     H 2265   9.112   1.335   8.292  0.8863  0.5848 -0.7056
   17MOL0     H 2266   9.162   1.170   8.218 -1.6942 -3.5402  1.6261
   17MOL0     H 2267   9.215   1.078   8.400  1.5854  1.7618 -1.8114
   17MOL0     H 2268   9.123   1.186   8.504  0.8939 -0.0768  0.8063
   17MOL0     H 2269   9.368   1.254   8.330  2.5638  0.4871  1.6575
   17MOL0     H 2270   9.307   1.358   8.454  0.5543  0.2105  1.0516
   17MOL0     H 2271   9.418   1.077   8.510  1.2665  0.6554  0.1355
   17MOL0     H 2272   9.338   1.171   8.628 -0.5288  1.6759  0.2018
   17MOL0     H 2273   9.594   1.235   8.476 -1.9814 -2.3363 -1.4770
   17MOL0     H 2274   9.531   1.351   8.596  0.5428 -0.2592  1.3105
   17MOL0     H 2275   8.514   1.050   8.522  1.2385  2.3165  0.4237
   17MOL0     H 2276   8.258   0.984   8.485 -3.1675  0.8351 -0.4196
   17MOL0     H 2277   7.880   1.032   8.486 -1.5444 -2.3975 -0.2160
   17MOL0     H 2278   7.653   0.963   8.499  0.2665 -0.1835 -0.8238
   17MOL0     H 2279   5.795   0.919   8.816  0.3500 -0.2951  0.6409
   17MOL0     H 2280   5.612   1.005   8.939 -1.7401  0.3096  0.5244
   17MOL0     H 2281   5.026   0.808   8.930  1.0479 -0.4691  1.3193
   17MOL0     H 2282   4.803   0.898   8.986 -0.4471  1.0270 -0.6923
   17MOL0     H 2283   4.633   0.968   9.108  2.4625  0.2401  2.2249
   17MOL0     H 2284   4.590   1.075   8.982  0.0942  0.5040  0.6003
   17MOL0     H 2285   4.558   1.260   9.179  0.2595 -0.0168 -1.6222
   17MOL0     H 2286   4.533   1.106   9.272 -0.7067 -1.7396 -0.4591
   17MOL0     H 2287   4.385   1.219   9.026 -1.0794 -0.3045 -1.4468
   17MOL0     H 2288   4.345   1.232   9.193 -1.0873  0.8960 -2.2604
   17MOL0     H 2289   4.318   0.977   9.046 -2.8336  0.5209 -1.4762
   17MOL0     H 2290   4.315   0.979   9.228 -0.8561  0.1521  0.4710
   17MOL0     H 2291   3.931   1.128   9.111  0.5801  2.1410 -0.8858
   17MOL0     H 2292   4.969   1.273   9.064  0.3299  0.2558  0.1757
   17MOL0     H 2293   5.269   1.251   8.878  2.2165  3.6003  2.6484
   17MOL0     H 2294   5.220   1.305   9.044  1.1911  0.8092  0.3860
   17MOL0     H 2295   5.313   1.161   9.021 -1.5874 -0.5888  2.1195
   18MOL0     O 2296   7.391   3.999   5.906  0.0037 -0.1782  0.3376
   18MOL0     C 2297   7.335   4.109   5.909 -0.2524 -0.4138  0.4854
   18MOL0     O 2298   7.393   4.235   5.886  0.1405 -0.2313  0.0891
   18MOL0     C 2299   7.525   4.247   5.843 -0.0017  0.9943 -0.2373
   18MOL0     C 2300   7.627   4.242   5.941 -0.2245  0.5303  0.1506
   18MOL0     C 2301   7.760   4.264   5.895  0.4284 -0.3580  0.2651
   18MOL0     C 2302   7.786   4.289   5.762 -0.0617  0.2229 -0.0695
   18MOL0     O 2303   7.917   4.313   5.732  0.3735 -0.0209 -0.1015
   18MOL0     C 2304   7.984   4.259   5.610  0.5198 -0.5845  0.7118
   18MOL0     C 2305   8.133   4.251   5.633 -0.0497  0.2858  0.3269
   18MOL0     C 2306   8.205   4.230   5.499  0.2132  0.6605  0.8331
   18MOL0     C 2307   8.359   4.226   5.509  0.3324  0.0545  0.5981
   18MOL0     C 2308   8.431   4.183   5.369  0.6340 -0.0215  0.0079
   18MOL0     C 2309   8.415   4.299   5.265 -0.6401  0.2771  1.1883
   18MOL0     C 2310   8.499   4.283   5.139 -1.0560  0.3223 -0.7565
   18MOL0     C 2311   8.481   4.155   5.050 -0.0341  0.3433  0.0244
   18MOL0     N 2312   8.529   4.170   4.904  0.3090 -0.5162 -0.2583
   18MOL0     C 2313   8.642   4.245   4.862  0.7130  0.4623  0.9926
   18MOL0     C 2314   8.654   4.229   4.731 -0.2561 -0.2639  0.0280
   18MOL0     C 2315   8.753   4.297   4.639 -1.7913 -0.1414  0.4033
   18MOL0     C 2316   8.753   4.449   4.652 -0.1949 -0.3596 -0.3935
   18MOL0     C 2317   8.839   4.527   4.540 -0.2227  0.0146 -0.1557
   18MOL0     C 2318   8.833   4.668   4.562  0.1489 -0.8981  0.2096
   18MOL0     O 2319   8.923   4.743   4.475 -0.3119  0.3924  0.6501
   18MOL0     C 2320   9.065   4.735   4.484  0.7672  0.2410 -0.1137
   18MOL0     C 2321   9.129   4.706   4.604  1.0536 -0.9545  0.3194
   18MOL0     C 2322   9.265   4.705   4.609 -0.5784 -0.8876  0.5704
   18MOL0     C 2323   9.346   4.738   4.502 -0.4755 -0.5783  0.0065
   18MOL0     C 2324   9.491   4.749   4.519 -0.3106  0.2106  0.5067
   18MOL0     O 2325   9.567   4.792   4.414 -0.3693 -0.4266  0.6364
   18MOL0     C 2326   9.700   4.756   4.411 -0.3063  0.4825  0.0827
   18MOL0     C 2327   9.762   4.647   4.476 -0.6045 -0.5211 -0.0578
   18MOL0     C 2328   9.896   4.617   4.451  0.1269 -0.1837 -0.5814
   18MOL0     C 2329   9.982   4.698   4.373 -0.2728 -0.3067  0.2391
   18MOL0     O 2330  10.108   4.656   4.364 -0.3528 -0.4488 -0.1020
   18MOL0     C 2331  10.172   4.683   4.238 -0.0672 -0.1579  0.3530
   18MOL0     C 2332  10.130   4.561   4.153 -0.0257 -0.3657 -0.2687
   18MOL0     C 2333  10.207   4.536   4.020  0.3203 -0.5397  0.2438
   18MOL0     C 2334  10.350   4.477   4.059  0.4801 -0.7034 -0.0639
   18MOL0     C 2335  10.441   4.469   3.938 -0.1933  0.6671  0.1787
   18MOL0     C 2336  10.391   4.369   3.829 -0.4594 -0.2790 -0.5221
   18MOL0     C 2337  10.499   4.273   3.761 -0.2056 -0.1229 -0.5417
   18MOL0     C 2338  10.460   4.220   3.628  0.5721  0.3021  1.0649
   18MOL0    Cl 2339  10.585   4.103   3.590  0.2139 -0.0765  0.1494
   18MOL0     C 2340   9.925   4.814   4.321 -0.0650  0.0010  0.3336
   18MOL0     C 2341   9.787   4.839   4.335  0.0497  0.1896 -0.4066
   18MOL0     O 2342   9.537   4.714   4.625 -0.6825 -0.2785 -0.3427
   18MOL0     C 2343   9.283   4.766   4.379  1.0364 -0.5984 -0.1380
   18MOL0     C 2344   9.144   4.759   4.370 -0.6642 -0.2754 -0.3194
   18MOL0     N 2345   8.543   4.141   4.693 -0.7003  0.4512 -0.4442
   18MOL0     N 2346   8.463   4.110   4.795 -0.4282  0.4484  0.6189
   18MOL0     C 2347   7.688   4.275   5.664  0.1026  0.4171  0.1108
   18MOL0     C 2348   7.554   4.258   5.705 -0.0370  0.3614 -0.0228
   18MOL0     C 2349   7.182   4.120   5.940 -0.5422  0.7035 -0.4288
   18MOL0     C 2350   7.122   4.247   5.967 -0.4789 -0.1281  0.2962
   18MOL0     C 2351   6.987   4.253   6.011  1.0198  0.0442 -0.6300
   18MOL0     C 2352   6.896   4.139   6.017  0.2332  0.3257  0.4165
   18MOL0     O 2353   6.769   4.126   6.074 -0.6498 -0.3322  0.0859
   18MOL0     C 2354   6.694   4.248   6.093  0.4305 -0.2012  0.5917
   18MOL0     C 2355   6.543   4.216   6.084  0.4363 -0.8820  0.8103
   18MOL0     C 2356   6.473   4.340   6.059 -0.2598 -0.2556  0.1001
   18MOL0     C 2357   6.319   4.329   6.073 -0.7023  0.1801 -0.2781
   18MOL0     C 2358   6.271   4.317   6.211 -0.1477  0.5998  0.8135
   18MOL0     C 2359   6.246   4.278   6.326  0.3572 -0.6876  0.5341
   18MOL0     C 2360   6.958   4.016   5.982  0.3780  0.5205 -0.6635
   18MOL0     C 2361   7.101   4.004   5.950  0.7769 -0.2184 -0.0273
   18MOL0     C 2362   7.155   3.865   5.935 -0.0233 -0.4419  0.3812
   18MOL0     H 2363   7.597   4.223   6.044 -0.6265 -1.9606 -0.3600
   18MOL0     H 2364   7.845   4.264   5.964  0.2828 -1.5387  0.4635
   18MOL0     H 2365   7.953   4.158   5.580 -0.8751  0.4106 -1.4400
   18MOL0     H 2366   7.961   4.330   5.530  1.1252  0.2684  1.2811
   18MOL0     H 2367   8.176   4.172   5.696  1.4776  0.2718 -0.6857
   18MOL0     H 2368   8.167   4.342   5.684  0.4361 -0.6843  1.8075
   18MOL0     H 2369   8.176   4.305   5.424  0.3408  0.7384  0.8596
   18MOL0     H 2370   8.174   4.132   5.462  1.8494  0.4280 -0.0661
   18MOL0     H 2371   8.404   4.323   5.532  0.5314  0.0233  0.3373
   18MOL0     H 2372   8.378   4.151   5.586  1.3429 -2.2411 -1.7383
   18MOL0     H 2373   8.540   4.179   5.382  0.4349 -0.3984  1.7293
   18MOL0     H 2374   8.387   4.088   5.338 -1.5248  0.4086  1.5389
   18MOL0     H 2375   8.312   4.308   5.231 -0.3969  3.1256  0.9243
   18MOL0     H 2376   8.443   4.395   5.311  1.0852  0.1488  0.4840
   18MOL0     H 2377   8.603   4.309   5.159 -0.8353  0.0847 -1.5352
   18MOL0     H 2378   8.463   4.366   5.077  1.0204  1.3402 -0.6599
   18MOL0     H 2379   8.531   4.072   5.101  0.4734  0.6123 -0.0276
   18MOL0     H 2380   8.374   4.133   5.053 -0.0279  0.4214  1.2910
   18MOL0     H 2381   8.706   4.317   4.911 -0.1381  1.3097  0.8884
   18MOL0     H 2382   8.853   4.264   4.668 -0.8952  1.6905 -0.4045
   18MOL0     H 2383   8.737   4.280   4.532  1.0851  2.1388 -0.5381
   18MOL0     H 2384   8.649   4.481   4.646 -0.7914 -2.1582 -0.2218
   18MOL0     H 2385   8.790   4.465   4.754 -1.7833 -2.7120  0.6487
   18MOL0     H 2386   8.799   4.505   4.440  0.4414 -1.9482 -0.0338
   18MOL0     H 2387   8.941   4.487   4.541  0.2913  1.1139 -2.2133
   18MOL0     H 2388   8.856   4.700   4.664  0.6279  2.9446 -0.9278
   18MOL0     H 2389   8.733   4.708   4.544  0.3316 -1.5589 -2.8091
   18MOL0     H 2390   9.076   4.688   4.697  1.0788 -1.8407  0.1632
   18MOL0     H 2391   9.308   4.673   4.703  0.9143  0.4090  0.3772
   18MOL0     H 2392   9.697   4.580   4.531 -0.5185  0.7309  1.6811
   18MOL0     H 2393   9.946   4.537   4.505 -2.5441 -2.4060 -1.1544
   18MOL0     H 2394  10.140   4.780   4.199 -3.3453 -0.8854  0.9332
   18MOL0     H 2395  10.281   4.682   4.245  0.0840  0.2802 -1.4607
   18MOL0     H 2396  10.150   4.475   4.218 -1.1192 -0.6963 -0.3601
   18MOL0     H 2397  10.024   4.579   4.136  0.5606  2.8105 -1.3123
   18MOL0     H 2398  10.149   4.478   3.947  2.5298 -2.7335  0.1253
   18MOL0     H 2399  10.220   4.629   3.964 -1.1867 -1.6737 -2.1682
   18MOL0     H 2400  10.349   4.376   4.102  0.6156 -0.1558  1.2706
   18MOL0     H 2401  10.401   4.537   4.135  0.7486  0.2090 -0.9493
   18MOL0     H 2402  10.536   4.426   3.970  0.5837  2.6121  0.6475
   18MOL0     H 2403  10.472   4.568   3.904  1.6420 -0.4185 -1.5593
   18MOL0     H 2404  10.319   4.302   3.876 -0.2414  0.3867  0.8003
   18MOL0     H 2405  10.342   4.432   3.754  2.1689 -0.9333 -3.0052
   18MOL0     H 2406  10.516   4.184   3.822  3.1649 -0.0667 -1.2365
   18MOL0     H 2407  10.598   4.319   3.764 -1.1939  2.1029  0.1220
   18MOL0     H 2408  10.364   4.168   3.613  1.1897 -0.4998 -0.3699
   18MOL0     H 2409  10.464   4.297   3.550  0.0438 -0.8748 -0.1641
   18MOL0     H 2410   9.986   4.886   4.266 -1.7786 -0.5659 -2.5071
   18MOL0     H 2411   9.738   4.930   4.299  0.5866  0.1157 -1.3774
   18MOL0     H 2412   9.327   4.792   4.283  1.1498 -1.7104 -0.3990
   18MOL0     H 2413   9.086   4.790   4.284  0.2461  1.9953 -0.1873
   18MOL0     H 2414   7.716   4.284   5.560 -1.6331 -4.1949 -0.9877
   18MOL0     H 2415   7.473   4.261   5.632  0.0603 -1.8936 -0.3160
   18MOL0     H 2416   7.170   4.342   5.946 -1.2278  0.2180  0.1281
   18MOL0     H 2417   6.942   4.346   6.043 -0.5652 -0.3565 -1.6153
   18MOL0     H 2418   6.718   4.306   6.003 -1.5864  2.3830  1.6115
   18MOL0     H 2419   6.726   4.303   6.182  1.8822  0.4120 -0.2650
   18MOL0     H 2420   6.503   4.167   6.174 -1.9057 -3.7123 -1.5541
   18MOL0     H 2421   6.527   4.153   5.996  2.2051 -2.7727  1.7275
   18MOL0     H 2422   6.497   4.372   5.957  1.8632 -1.5386  0.1329
   18MOL0     H 2423   6.512   4.408   6.135  0.7855  1.7120 -2.0558
   18MOL0     H 2424   6.270   4.407   6.014 -0.2506  0.4258 -0.3369
   18MOL0     H 2425   6.295   4.239   6.016  3.7428 -0.8362 -0.8917
   18MOL0     H 2426   6.230   4.231   6.421  0.5820 -1.8443  0.0043
   18MOL0     H 2427   6.902   3.923   5.980  0.1680  0.5313  1.5494
   18MOL0     H 2428   7.067   3.799   5.938  0.6421 -1.3168  2.0904
   18MOL0     H 2429   7.215   3.858   5.844  0.6456 -0.4939  0.8226
   18MOL0     H 2430   7.211   3.851   6.028  0.9444  0.6787 -0.0047
   19MOL0     O 2431   1.036   6.295   6.823  0.0117 -0.1124 -0.4310
   19MOL0     C 2432   1.012   6.180   6.784 -0.2532 -0.3312  1.3485
   19MOL0     O 2433   1.113   6.095   6.742 -0.1084 -0.9986 -0.2020
   19MOL0     C 2434   1.241   6.147   6.743 -0.2146 -0.6145 -0.2505
   19MOL0     C 2435   1.318   6.112   6.855 -0.0561 -0.3291 -1.1192
   19MOL0     C 2436   1.456   6.125   6.853  0.8391  0.2000 -1.1037
   19MOL0     C 2437   1.521   6.181   6.748  0.6956 -1.0667 -0.5198
   19MOL0     O 2438   1.663   6.195   6.761 -0.8892 -0.0910 -0.4292
   19MOL0     C 2439   1.730   6.270   6.658 -0.2182 -0.4616 -0.8033
   19MOL0     C 2440   1.871   6.281   6.703  0.0758  0.0594 -0.4742
   19MOL0     C 2441   1.950   6.339   6.586  0.4332  0.0629 -0.1556
   19MOL0     C 2442   2.085   6.380   6.640  0.9007 -0.6422 -0.2904
   19MOL0     C 2443   2.167   6.417   6.527 -0.2151  0.1772  0.6787
   19MOL0     C 2444   2.303   6.445   6.582  0.7063 -0.0111 -0.0670
   19MOL0     C 2445   2.414   6.455   6.481  0.7797  0.4497  0.5451
   19MOL0     C 2446   2.524   6.540   6.545 -0.5906 -0.2511 -0.0047
   19MOL0     N 2447   2.630   6.580   6.451 -0.3981  0.5691  0.4324
   19MOL0     C 2448   2.709   6.491   6.376  0.0097 -0.3842  0.5413
   19MOL0     C 2449   2.808   6.578   6.323  0.3607 -0.6027 -0.2719
   19MOL0     C 2450   2.930   6.550   6.228 -0.3874  0.4585  0.0903
   19MOL0     C 2451   3.015   6.678   6.193 -0.4572 -0.5632  0.0402
   19MOL0     C 2452   3.112   6.645   6.077  0.3644 -0.0938  0.5885
   19MOL0     C 2453   3.182   6.773   6.035 -0.4012  0.5866  0.1576
   19MOL0     O 2454   3.236   6.739   5.908 -0.2827 -0.0733 -0.6417
   19MOL0     C 2455   3.354   6.806   5.884  0.4968 -0.3794 -0.0686
   19MOL0     C 2456   3.457   6.743   5.816  0.5599  0.3380  0.0463
   19MOL0     C 2457   3.587   6.801   5.788 -0.0591 -0.4202 -0.0104
   19MOL0     C 2458   3.606   6.937   5.827  0.3528 -0.2300 -0.6799
   19MOL0     C 2459   3.733   7.004   5.798  0.3071  0.1616 -0.0689
   19MOL0     O 2460   3.830   6.941   5.731 -0.6980 -0.4102  0.5102
   19MOL0     C 2461   3.934   7.021   5.680  0.4319 -0.0355 -0.0685
   19MOL0     C 2462   4.025   7.076   5.767  0.2114 -0.0368 -0.2903
   19MOL0     C 2463   4.117   7.164   5.704  0.9242  0.1738 -0.3785
   19MOL0     C 2464   4.118   7.202   5.571  0.3747  0.2847  0.0472
   19MOL0     O 2465   4.219   7.283   5.538 -0.3060 -0.1082 -0.6343
   19MOL0     C 2466   4.230   7.320   5.402  0.2275 -0.4617 -0.1320
   19MOL0     C 2467   4.350   7.417   5.371 -0.0177 -0.2802 -0.2771
   19MOL0     C 2468   4.484   7.353   5.392 -0.9583  0.8440 -0.6042
   19MOL0     C 2469   4.590   7.456   5.446  0.5418 -0.1838 -0.3488
   19MOL0     C 2470   4.622   7.570   5.343  0.4851 -0.2516  0.3874
   19MOL0     C 2471   4.698   7.687   5.408 -0.2520 -0.2596  0.0019
   19MOL0     C 2472   4.743   7.813   5.323  0.7865  0.2373 -0.4398
   19MOL0     C 2473   4.835   7.781   5.201  0.4860 -0.2487 -0.1576
   19MOL0    Cl 2474   4.801   7.913   5.076 -0.3375 -0.2452  0.0597
   19MOL0     C 2475   4.026   7.136   5.488  1.2320  0.1813  0.3999
   19MOL0     C 2476   3.933   7.044   5.536 -0.4921 -0.6391 -1.2691
   19MOL0     O 2477   3.745   7.119   5.844  0.4391 -0.9110  0.1587
   19MOL0     C 2478   3.503   7.006   5.888 -0.4023 -0.6568 -0.4252
   19MOL0     C 2479   3.379   6.943   5.915 -0.3952 -0.6613 -0.3851
   19MOL0     N 2480   2.781   6.709   6.365  0.1326 -0.2342 -0.0359
   19MOL0     N 2481   2.679   6.706   6.447 -0.2191 -0.7115 -0.7075
   19MOL0     C 2482   1.445   6.223   6.636  0.9935 -0.0412 -0.4915
   19MOL0     C 2483   1.303   6.203   6.637  0.1688  0.1528  0.7997
   19MOL0     C 2484   0.871   6.146   6.771 -0.0942  0.0854 -0.1636
   19MOL0     C 2485   0.786   6.234   6.835  0.8799 -0.8640  0.6979
   19MOL0     C 2486   0.648   6.231   6.809 -0.0863  0.2116  0.6984
   19MOL0     C 2487   0.589   6.143   6.724 -0.7849  0.1205 -0.2042
   19MOL0     O 2488   0.455   6.127   6.696  0.0571  0.2293  0.1735
   19MOL0     C 2489   0.363   6.235   6.735 -0.7331 -0.7788  0.3453
   19MOL0     C 2490   0.230   6.201   6.670  0.1688 -1.2743 -0.3950
   19MOL0     C 2491   0.240   6.195   6.513 -0.1203  0.6510  0.0216
   19MOL0     C 2492   0.217   6.057   6.465 -0.5828 -0.1813 -0.0048
   19MOL0     C 2493   0.086   5.992   6.464  0.0948 -0.2920 -0.5943
   19MOL0     C 2494  -0.029   5.950   6.468  0.2395 -1.1266  0.4494
   19MOL0     C 2495   0.671   6.051   6.670  0.1274  0.9756 -0.1364
   19MOL0     C 2496   0.811   6.053   6.682  0.6778 -0.3783  0.3399
   19MOL0     C 2497   0.897   5.938   6.634  0.8453  0.2161  0.9921
   19MOL0     H 2498   1.268   6.068   6.941  0.7172 -0.1722 -0.5840
   19MOL0     H 2499   1.512   6.091   6.939  1.3258 -0.3516 -1.6250
   19MOL0     H 2500   1.727   6.224   6.558  0.1151 -0.5347 -0.7797
   19MOL0     H 2501   1.688   6.370   6.643 -0.1700 -0.3735 -0.3630
   19MOL0     H 2502   1.907   6.184   6.737 -2.3542 -1.6943 -2.5583
   19MOL0     H 2503   1.875   6.356   6.782 -2.0073 -2.6003  2.3932
   19MOL0     H 2504   1.892   6.426   6.555 -1.5499  0.0440  3.0370
   19MOL0     H 2505   1.952   6.269   6.502 -0.2281  0.0939 -0.2067
   19MOL0     H 2506   2.077   6.461   6.713  3.3847 -0.4615 -0.1381
   19MOL0     H 2507   2.134   6.305   6.703  0.5761  0.6200  1.5519
   19MOL0     H 2508   2.172   6.336   6.455  1.9038  0.6406  0.2575
   19MOL0     H 2509   2.127   6.506   6.477 -2.4287 -1.8265 -1.3882
   19MOL0     H 2510   2.284   6.530   6.648  2.4835 -1.9534  3.2136
   19MOL0     H 2511   2.325   6.369   6.657 -0.5277  0.5007  0.8430
   19MOL0     H 2512   2.379   6.511   6.394 -0.9122 -0.5381  0.5491
   19MOL0     H 2513   2.453   6.360   6.445  1.6131  0.0532  2.3883
   19MOL0     H 2514   2.479   6.634   6.577  0.8239  0.6724 -0.6057
   19MOL0     H 2515   2.562   6.490   6.635  1.2399  1.4987  0.2752
   19MOL0     H 2516   2.706   6.383   6.369  2.2885 -0.4639 -0.3506
   19MOL0     H 2517   3.002   6.482   6.275 -3.3563 -0.2146  4.2297
   19MOL0     H 2518   2.893   6.509   6.133 -0.0196  0.7689 -0.1872
   19MOL0     H 2519   2.948   6.760   6.170  0.3370 -0.5218 -2.4498
   19MOL0     H 2520   3.077   6.715   6.276 -0.3587  2.1526 -1.1498
   19MOL0     H 2521   3.062   6.600   5.991  1.7432  0.0035 -0.2947
   19MOL0     H 2522   3.182   6.570   6.115  0.3421 -0.4951 -0.1636
   19MOL0     H 2523   3.252   6.793   6.117  0.4909  0.8132 -0.6449
   19MOL0     H 2524   3.108   6.853   6.022 -1.4638 -0.3825  0.0365
   19MOL0     H 2525   3.424   6.645   5.784 -0.2463  0.7943 -0.5503
   19MOL0     H 2526   3.652   6.742   5.724  1.4356 -2.1471  2.8869
   19MOL0     H 2527   4.019   7.054   5.873  0.3063  1.0025 -0.0548
   19MOL0     H 2528   4.186   7.209   5.775 -0.3009  0.8036  0.4599
   19MOL0     H 2529   4.244   7.229   5.344  0.0098 -2.4671  2.7502
   19MOL0     H 2530   4.142   7.377   5.371  0.7695  0.2337 -0.4222
   19MOL0     H 2531   4.342   7.450   5.267  0.5147 -2.4702 -1.0761
   19MOL0     H 2532   4.324   7.504   5.432  0.7401  0.6899 -1.3064
   19MOL0     H 2533   4.463   7.275   5.465  0.8085 -1.4975 -2.4025
   19MOL0     H 2534   4.518   7.310   5.297 -0.7263 -1.6517  0.5406
   19MOL0     H 2535   4.684   7.408   5.473  0.7122 -0.1435 -0.8657
   19MOL0     H 2536   4.541   7.496   5.536  2.0552 -1.5946  1.1820
   19MOL0     H 2537   4.531   7.615   5.302  2.1862  1.6441 -1.5288
   19MOL0     H 2538   4.684   7.536   5.260  4.0405  1.0912  2.2617
   19MOL0     H 2539   4.642   7.726   5.494 -0.1627 -0.5874  0.2115
   19MOL0     H 2540   4.797   7.655   5.441  1.1190  0.5677 -3.0227
   19MOL0     H 2541   4.800   7.886   5.381  0.0845  2.2882 -2.1968
   19MOL0     H 2542   4.658   7.872   5.287  0.6712 -0.6386 -1.6740
   19MOL0     H 2543   4.938   7.767   5.234  0.5026 -0.3216 -0.2396
   19MOL0     H 2544   4.797   7.694   5.147 -1.3894  0.0551  0.5837
   19MOL0     H 2545   4.006   7.142   5.381 -4.5717 -4.7553  0.6280
   19MOL0     H 2546   3.862   7.006   5.463  0.9001 -1.1572 -2.4034
   19MOL0     H 2547   3.521   7.102   5.935  0.3536 -1.4126  0.8957
   19MOL0     H 2548   3.307   7.010   5.962 -1.6743 -1.7763 -0.6709
   19MOL0     H 2549   1.503   6.262   6.553  3.2928 -0.6797  0.7125
   19MOL0     H 2550   1.250   6.221   6.544 -0.7208 -0.8727  1.0877
   19MOL0     H 2551   0.821   6.318   6.893 -1.5163  0.5337  0.2706
   19MOL0     H 2552   0.592   6.305   6.866  2.4732  2.6649  0.2330
   19MOL0     H 2553   0.391   6.338   6.710 -0.6253 -1.0159 -0.5604
   19MOL0     H 2554   0.363   6.236   6.844 -0.1717 -3.5486  0.4582
   19MOL0     H 2555   0.154   6.278   6.684 -1.1742 -2.4343 -1.0162
   19MOL0     H 2556   0.181   6.114   6.716  0.9339 -1.8225 -0.5945
   19MOL0     H 2557   0.341   6.228   6.488  1.1048 -2.1947  0.8725
   19MOL0     H 2558   0.165   6.259   6.465 -2.7681 -0.7991  1.9120
   19MOL0     H 2559   0.252   6.071   6.362 -1.6791  4.4453  0.0282
   19MOL0     H 2560   0.277   5.994   6.531  0.5443  1.5492  0.7100
   19MOL0     H 2561  -0.130   5.916   6.455 -0.1932  1.0026 -2.8599
   19MOL0     H 2562   0.614   5.983   6.609 -3.0800  1.7670  1.7624
   19MOL0     H 2563   0.856   5.854   6.577  1.7021 -0.2754  1.0673
   19MOL0     H 2564   0.967   5.977   6.560 -2.8417  1.7490 -1.9500
   19MOL0     H 2565   0.946   5.897   6.724 -0.7785 -0.5960  1.5451
   20MOL0     O 2566   5.427   4.430   6.183 -0.5156 -0.1821 -0.3779
   20MOL0     C 2567   5.493   4.331   6.174  0.1801  0.2160 -0.3989
   20MOL0     O 2568   5.632   4.325   6.160  0.0969  0.1910  0.0040
   20MOL0     C 2569   5.714   4.430   6.131  0.7314  0.6225  0.4025
   20MOL0     C 2570   5.673   4.543   6.055 -0.0696 -0.0200  0.7903
   20MOL0     C 2571   5.759   4.648   6.025 -0.2735 -0.7386  0.1149
   20MOL0     C 2572   5.894   4.644   6.061 -0.0791  0.2753  0.1082
   20MOL0     O 2573   5.973   4.753   6.026  0.5680 -0.5905  0.1431
   20MOL0     C 2574   6.091   4.802   6.098  0.3879 -0.3446 -0.0145
   20MOL0     C 2575   6.228   4.769   6.035  1.2015  0.4587 -0.6630
   20MOL0     C 2576   6.339   4.803   6.134 -1.0154  0.0033  0.2758
   20MOL0     C 2577   6.480   4.788   6.069  0.8099 -0.4205 -0.1154
   20MOL0     C 2578   6.595   4.801   6.169  0.3909  0.5344  0.2821
   20MOL0     C 2579   6.684   4.682   6.190  0.8670  0.5968 -0.6819
   20MOL0     C 2580   6.763   4.635   6.059  0.4239 -0.0541  0.9102
   20MOL0     C 2581   6.884   4.724   6.023  0.2413  0.6736 -0.0904
   20MOL0     N 2582   6.988   4.663   5.947 -0.5199  0.5987  0.1108
   20MOL0     C 2583   7.127   4.699   5.955  0.5096  0.0489 -0.0486
   20MOL0     C 2584   7.187   4.627   5.854 -0.6378 -0.7551  0.0626
   20MOL0     C 2585   7.330   4.615   5.817  0.6394 -0.2881 -0.2501
   20MOL0     C 2586   7.393   4.751   5.811  0.0474  0.0739  0.3385
   20MOL0     C 2587   7.530   4.740   5.761 -0.3805  0.4864 -0.5410
   20MOL0     C 2588   7.579   4.878   5.724 -0.2366 -0.5696  0.3640
   20MOL0     O 2589   7.687   4.875   5.635  0.0764 -0.0153  0.3720
   20MOL0     C 2590   7.738   4.994   5.591  0.3004 -0.1718 -0.2493
   20MOL0     C 2591   7.709   5.121   5.646 -0.2384 -0.3235  0.7341
   20MOL0     C 2592   7.788   5.224   5.595 -0.2242 -0.3610  0.2869
   20MOL0     C 2593   7.878   5.215   5.494  0.1898  0.1690  0.1254
   20MOL0     C 2594   7.953   5.326   5.436 -0.8143 -0.5376  0.6301
   20MOL0     O 2595   8.024   5.298   5.319 -0.6567 -0.1015 -0.2688
   20MOL0     C 2596   8.101   5.404   5.267 -0.2404  0.0930  0.5728
   20MOL0     C 2597   8.229   5.414   5.316  0.0035  0.7845  0.4011
   20MOL0     C 2598   8.315   5.510   5.262 -0.2361  0.2400 -0.0040
   20MOL0     C 2599   8.268   5.607   5.171 -0.7170  0.5074  0.4168
   20MOL0     O 2600   8.326   5.734   5.144 -0.0054  1.1268  0.3528
   20MOL0     C 2601   8.436   5.786   5.225  0.2901 -1.1408  0.6361
   20MOL0     C 2602   8.492   5.914   5.163 -0.9522  0.1041 -0.2886
   20MOL0     C 2603   8.589   5.870   5.053  0.3634 -0.7936 -0.0119
   20MOL0     C 2604   8.657   6.000   4.998 -0.1368 -0.4484 -0.1785
   20MOL0     C 2605   8.744   5.977   4.874  0.8513  0.2130 -0.4255
   20MOL0     C 2606   8.842   6.099   4.861 -0.8527 -1.1360 -0.1867
   20MOL0     C 2607   8.938   6.079   4.742 -0.2847 -0.2465  0.1679
   20MOL0     C 2608   8.877   6.112   4.603  0.1126 -0.3825 -0.9052
   20MOL0    Cl 2609   8.983   6.074   4.473 -0.4205 -0.0757 -0.5122
   20MOL0     C 2610   8.139   5.584   5.116  0.4064  0.0769 -0.1460
   20MOL0     C 2611   8.057   5.494   5.161 -0.1444 -0.1264 -0.1653
   20MOL0     O 2612   7.946   5.435   5.488  0.5994  0.4252 -0.0440
   20MOL0     C 2613   7.905   5.090   5.445 -0.1514 -0.0167  0.2963
   20MOL0     C 2614   7.831   4.983   5.486 -0.2586  0.9854  0.2185
   20MOL0     N 2615   7.089   4.559   5.789 -0.4044  0.4587  0.1275
   20MOL0     N 2616   6.974   4.580   5.845 -0.2359  0.2352  1.0772
   20MOL0     C 2617   5.945   4.528   6.127 -0.2083 -0.5468  0.3204
   20MOL0     C 2618   5.856   4.420   6.157  0.0613 -0.8885  0.1790
   20MOL0     C 2619   5.417   4.196   6.175  0.1967  0.5417  0.6178
   20MOL0     C 2620   5.279   4.196   6.209 -1.3907 -0.2895 -0.0466
   20MOL0     C 2621   5.199   4.083   6.194  0.2513  0.3226  0.9021
   20MOL0     C 2622   5.258   3.960   6.167 -1.0349 -0.2252  0.5624
   20MOL0     O 2623   5.198   3.835   6.158 -0.0344  0.4787 -0.6042
   20MOL0     C 2624   5.051   3.826   6.150  0.3407 -0.0217  0.8881
   20MOL0     C 2625   5.009   3.682   6.104  0.4838 -0.4848 -0.5464
   20MOL0     C 2626   5.071   3.645   5.972  0.1522  0.2498  0.1446
   20MOL0     C 2627   4.999   3.717   5.856 -0.3266 -0.3485  0.0245
   20MOL0     C 2628   5.040   3.856   5.831  0.1151  0.8064 -0.2139
   20MOL0     C 2629   5.065   3.974   5.809  0.0233  0.4600 -0.5341
   20MOL0     C 2630   5.393   3.952   6.133  0.1985  0.0792  0.0152
   20MOL0     C 2631   5.474   4.068   6.137  0.2654  0.2366  0.3658
   20MOL0     C 2632   5.619   4.051   6.095 -1.0268 -0.5516 -0.1341
   20MOL0     H 2633   5.567   4.540   6.031  0.1651 -5.2009 -0.9317
   20MOL0     H 2634   5.714   4.730   5.970 -3.1618 -1.7010  0.8632
   20MOL0     H 2635   6.078   4.909   6.111  0.3034  0.0857 -2.9783
   20MOL0     H 2636   6.091   4.756   6.198 -0.4225 -0.9513 -0.2818
   20MOL0     H 2637   6.238   4.809   5.934  0.9356  0.0808 -0.8421
   20MOL0     H 2638   6.230   4.663   6.007 -3.1887  0.1332 -0.3310
   20MOL0     H 2639   6.354   4.732   6.216  0.9715 -0.7939 -0.7229
   20MOL0     H 2640   6.335   4.908   6.165  0.5650  0.3419 -0.5628
   20MOL0     H 2641   6.487   4.684   6.034 -1.8190 -0.2406 -1.4864
   20MOL0     H 2642   6.485   4.852   5.981  0.3099 -1.2314 -0.7519
   20MOL0     H 2643   6.649   4.889   6.135  1.4247 -0.9430 -2.1758
   20MOL0     H 2644   6.566   4.814   6.274  0.3733 -2.4723  0.7593
   20MOL0     H 2645   6.763   4.697   6.264 -0.1783  1.6327  0.2819
   20MOL0     H 2646   6.620   4.598   6.218  1.7971  0.3293  0.7785
   20MOL0     H 2647   6.692   4.622   5.977  2.1551  1.2167 -0.8842
   20MOL0     H 2648   6.799   4.535   6.087  1.6832  0.2254  0.3444
   20MOL0     H 2649   6.839   4.815   5.980  0.0768  1.2269  1.1903
   20MOL0     H 2650   6.927   4.745   6.121 -2.5399 -0.5753  1.5165
   20MOL0     H 2651   7.178   4.759   6.029  3.4053  0.1271 -1.9108
   20MOL0     H 2652   7.369   4.545   5.891 -0.0911 -1.5887 -1.0450
   20MOL0     H 2653   7.342   4.564   5.721 -1.0100  0.4286 -0.8750
   20MOL0     H 2654   7.327   4.813   5.750  0.8376  1.4944  0.8702
   20MOL0     H 2655   7.398   4.794   5.912 -1.3356 -0.4551  0.6565
   20MOL0     H 2656   7.553   4.682   5.671  4.4993  1.9238 -0.4947
   20MOL0     H 2657   7.591   4.701   5.843  3.4839  4.7954 -0.9756
   20MOL0     H 2658   7.622   4.931   5.809 -1.6075  3.3567 -1.1701
   20MOL0     H 2659   7.497   4.941   5.688  0.3230  0.2009  0.4059
   20MOL0     H 2660   7.638   5.142   5.725 -2.0718 -2.3985 -0.2425
   20MOL0     H 2661   7.765   5.325   5.629  0.0867  0.6210 -2.2044
   20MOL0     H 2662   8.264   5.335   5.382  0.7718  0.1217 -0.7476
   20MOL0     H 2663   8.409   5.500   5.315 -0.0411 -3.3202 -0.7630
   20MOL0     H 2664   8.376   5.808   5.314 -1.0763 -2.7389  0.1656
   20MOL0     H 2665   8.508   5.706   5.247 -0.4976 -2.2672 -0.6765
   20MOL0     H 2666   8.410   5.977   5.128  0.0635  2.0362  0.6382
   20MOL0     H 2667   8.551   5.974   5.233 -0.8006  1.0268 -1.1783
   20MOL0     H 2668   8.656   5.792   5.090 -0.9286 -1.7025  0.4932
   20MOL0     H 2669   8.544   5.819   4.966  0.4165 -1.3148  0.2610
   20MOL0     H 2670   8.724   6.044   5.073  1.6937 -0.1580 -1.8848
   20MOL0     H 2671   8.578   6.073   4.979  0.2151  0.0755  0.3129
   20MOL0     H 2672   8.679   5.955   4.788  0.4784 -2.5643  0.4753
   20MOL0     H 2673   8.815   5.895   4.886  0.6614 -0.3040 -2.3751
   20MOL0     H 2674   8.783   6.191   4.862  3.3194  1.8659  1.6324
   20MOL0     H 2675   8.900   6.118   4.952  1.3164  2.7718 -2.1305
   20MOL0     H 2676   8.979   5.978   4.754  0.9753  0.3341  0.9761
   20MOL0     H 2677   9.022   6.147   4.759 -0.8483 -0.3267  4.1042
   20MOL0     H 2678   8.783   6.060   4.582  0.8120 -3.7496  3.0576
   20MOL0     H 2679   8.867   6.221   4.605 -0.8787 -0.4647  1.1466
   20MOL0     H 2680   8.109   5.651   5.037  1.1155  1.2700  0.5641
   20MOL0     H 2681   7.962   5.479   5.112  0.7308 -2.3830 -1.3702
   20MOL0     H 2682   7.983   5.075   5.371 -0.1751 -0.3622  0.3375
   20MOL0     H 2683   7.846   4.885   5.441  0.9184  0.7705  1.0246
   20MOL0     H 2684   6.048   4.548   6.154  0.0835 -0.2529 -0.9308
   20MOL0     H 2685   5.890   4.332   6.211 -0.7992 -1.7313 -0.6091
   20MOL0     H 2686   5.233   4.290   6.240 -3.7544 -0.8587 -1.5833
   20MOL0     H 2687   5.093   4.101   6.210  0.3108  0.6267  0.9674
   20MOL0     H 2688   5.015   3.903   6.081 -2.3159 -2.2345 -0.3732
   20MOL0     H 2689   5.004   3.849   6.246  1.0785  0.0033  1.2510
   20MOL0     H 2690   4.900   3.680   6.093  0.6553 -1.0795 -2.7796
   20MOL0     H 2691   5.033   3.613   6.186 -0.0986  0.8536  0.7833
   20MOL0     H 2692   5.054   3.538   5.959 -0.4335  0.1611  1.5625
   20MOL0     H 2693   5.178   3.670   5.974  0.5327 -0.9021 -1.9795
   20MOL0     H 2694   5.010   3.663   5.761 -0.6376  1.2609 -0.9723
   20MOL0     H 2695   4.892   3.726   5.880  0.1410  1.8272  1.6120
   20MOL0     H 2696   5.103   4.073   5.797 -1.0838  1.0585  0.6203
   20MOL0     H 2697   5.445   3.863   6.099  2.8009  0.5076  2.5101
   20MOL0     H 2698   5.641   4.126   6.018  1.7788  0.6701  1.7172
   20MOL0     H 2699   5.687   4.062   6.180  1.9259 -0.7380 -2.3205
   20MOL0     H 2700   5.647   3.956   6.048 -2.4657 -0.8135 -0.5284
   21MOL0     O 2701   4.570   2.812   0.663  0.2341 -0.8888  0.2480
   21MOL0     C 2702   4.652   2.827   0.749 -0.1445  0.1757  1.1886
   21MOL0     O 2703   4.626   2.829   0.881  0.1108 -0.5368 -0.0455
   21MOL0     C 2704   4.509   2.848   0.949  0.0419 -0.1421  0.5660
   21MOL0     C 2705   4.502   2.914   1.073 -0.2459  0.5621 -0.4790
   21MOL0     C 2706   4.374   2.924   1.140 -0.3003  0.6034 -0.1749
   21MOL0     C 2707   4.261   2.859   1.085 -0.3419  0.2518  0.1739
   21MOL0     O 2708   4.143   2.882   1.155  0.7269 -0.3631 -0.0752
   21MOL0     C 2709   4.046   2.778   1.136 -1.2019  0.2566  0.0887
   21MOL0     C 2710   4.091   2.634   1.193 -0.4462 -1.6278  1.0739
   21MOL0     C 2711   3.971   2.553   1.232  0.1493  0.3659 -0.6012
   21MOL0     C 2712   4.012   2.413   1.284  0.3783 -1.1555  0.6383
   21MOL0     C 2713   3.910   2.300   1.311 -0.6183 -0.1903  0.1420
   21MOL0     C 2714   3.792   2.350   1.408 -1.6741  0.4564 -0.4232
   21MOL0     C 2715   3.679   2.249   1.418  0.8840  0.4527  0.3824
   21MOL0     C 2716   3.710   2.099   1.450  0.2005  0.4619  0.6816
   21MOL0     N 2717   3.590   2.026   1.488 -0.1091 -0.4389 -0.1031
   21MOL0     C 2718   3.463   2.030   1.427 -0.4302 -0.0445  0.4016
   21MOL0     C 2719   3.392   1.956   1.512 -0.2146  0.7417  0.6569
   21MOL0     C 2720   3.245   1.919   1.501 -0.4304  1.0150  0.4614
   21MOL0     C 2721   3.146   2.037   1.493 -0.1642 -0.3721  0.1764
   21MOL0     C 2722   3.127   2.078   1.348  0.0991  0.4486  0.4432
   21MOL0     C 2723   3.042   2.204   1.336  0.3325  0.1716  0.1028
   21MOL0     O 2724   3.027   2.256   1.200  0.2565  0.1479 -0.2748
   21MOL0     C 2725   3.134   2.317   1.142  0.4964 -0.5349  0.2361
   21MOL0     C 2726   3.136   2.315   1.000  0.3018 -0.1379  0.4044
   21MOL0     C 2727   3.231   2.396   0.926 -0.0412  0.4649  1.6146
   21MOL0     C 2728   3.332   2.468   0.993  0.5167  0.2197  0.3273
   21MOL0     C 2729   3.429   2.559   0.912  0.2430  0.0084 -0.6756
   21MOL0     O 2730   3.553   2.577   0.959 -0.1691 -0.2008  0.0857
   21MOL0     C 2731   3.651   2.616   0.869 -0.4703 -0.2325 -0.5775
   21MOL0     C 2732   3.743   2.713   0.908 -0.2915 -0.4163  0.0032
   21MOL0     C 2733   3.837   2.761   0.819 -0.7014 -0.9769 -1.0636
   21MOL0     C 2734   3.871   2.687   0.700 -0.6095 -0.8518 -0.1303
   21MOL0     O 2735   3.970   2.738   0.619  0.3478 -0.2826 -0.1592
   21MOL0     C 2736   3.948   2.742   0.476 -0.3733  0.1539  0.5018
   21MOL0     C 2737   4.004   2.871   0.423  0.1862 -0.1979 -0.3686
   21MOL0     C 2738   3.981   2.882   0.273  0.4789  0.7329 -0.3756
   21MOL0     C 2739   3.905   3.005   0.240  1.1513 -0.8219 -0.1981
   21MOL0     C 2740   3.831   3.007   0.109 -0.6579 -0.0784  1.1727
   21MOL0     C 2741   3.729   3.123   0.092  0.3071 -0.3925 -0.3495
   21MOL0     C 2742   3.674   3.136  -0.044  0.1722 -0.2163 -0.2446
   21MOL0     C 2743   3.595   3.267  -0.045 -0.6418 -0.7031  0.0359
   21MOL0    Cl 2744   3.699   3.414  -0.037 -0.3279  0.1460 -0.2000
   21MOL0     C 2745   3.790   2.585   0.667 -0.7890  0.3860  0.2847
   21MOL0     C 2746   3.687   2.544   0.749 -0.5869  0.4258  0.6173
   21MOL0     O 2747   3.385   2.598   0.807  0.0433  0.3781 -0.0701
   21MOL0     C 2748   3.344   2.448   1.130 -0.3528  0.1921  0.3110
   21MOL0     C 2749   3.253   2.372   1.205 -0.4097 -0.0198 -0.2850
   21MOL0     N 2750   3.471   1.892   1.604 -0.0256 -0.0857  0.5367
   21MOL0     N 2751   3.586   1.949   1.599  0.2193 -0.2592 -0.8016
   21MOL0     C 2752   4.272   2.794   0.956  0.5331  0.0190 -1.0605
   21MOL0     C 2753   4.398   2.779   0.896  0.3872 -0.6866 -0.2211
   21MOL0     C 2754   4.798   2.842   0.709  0.0136  0.6777  0.7141
   21MOL0     C 2755   4.887   2.899   0.802  0.3363  0.5724  0.2940
   21MOL0     C 2756   5.025   2.902   0.775 -1.1118 -0.3728  0.1404
   21MOL0     C 2757   5.080   2.850   0.658 -0.1378 -0.1764  0.2310
   21MOL0     O 2758   5.223   2.868   0.640  0.2630  0.2117  0.4246
   21MOL0     C 2759   5.299   2.793   0.533  0.6110  0.0365  0.8063
   21MOL0     C 2760   5.329   2.650   0.574 -0.1588  0.0708  0.2480
   21MOL0     C 2761   5.398   2.555   0.468 -0.9562 -0.2862 -1.0925
   21MOL0     C 2762   5.469   2.433   0.527 -0.4355  0.4446 -0.2185
   21MOL0     C 2763   5.617   2.444   0.540  0.3345 -0.2100  0.0400
   21MOL0     C 2764   5.736   2.473   0.553 -0.3615  0.6167  0.3637
   21MOL0     C 2765   4.987   2.785   0.568 -0.1043 -0.4459 -0.2368
   21MOL0     C 2766   4.854   2.789   0.584  0.7002 -0.4034  0.7635
   21MOL0     C 2767   4.769   2.716   0.476  0.0500 -0.0249  0.0195
   21MOL0     H 2768   4.585   2.962   1.124 -1.2635  0.8563  0.9746
   21MOL0     H 2769   4.365   2.976   1.235 -1.6139 -1.1994  0.7396
   21MOL0     H 2770   3.953   2.806   1.188  0.2327  1.6830  2.0551
   21MOL0     H 2771   4.014   2.777   1.032 -0.7687  4.8365 -0.2891
   21MOL0     H 2772   4.156   2.646   1.281  0.0587 -0.1550  0.5329
   21MOL0     H 2773   4.156   2.584   1.120 -1.2719 -1.4446  0.1966
   21MOL0     H 2774   3.917   2.534   1.139  0.3400  0.5205 -0.7441
   21MOL0     H 2775   3.901   2.608   1.295  1.3472 -1.5772  2.6520
   21MOL0     H 2776   4.069   2.376   1.198  0.7938 -0.1750  0.4707
   21MOL0     H 2777   4.084   2.427   1.366  0.8269  1.5058 -0.1089
   21MOL0     H 2778   3.870   2.265   1.216 -3.5832  5.5330 -1.1796
   21MOL0     H 2779   3.967   2.235   1.378  0.1871  1.8284  1.5015
   21MOL0     H 2780   3.837   2.369   1.506 -0.8294 -0.6952 -0.5701
   21MOL0     H 2781   3.761   2.440   1.355  0.4774 -0.2771 -3.1272
   21MOL0     H 2782   3.624   2.264   1.325  0.0529  1.1011  0.9677
   21MOL0     H 2783   3.604   2.297   1.481 -2.2766  0.7087 -3.1694
   21MOL0     H 2784   3.765   2.046   1.372  0.8718 -2.1092  2.7702
   21MOL0     H 2785   3.784   2.078   1.528  0.7741  1.9987  0.5809
   21MOL0     H 2786   3.437   2.081   1.335 -0.3407  3.4275  2.1183
   21MOL0     H 2787   3.230   1.845   1.422 -2.6918  0.5587  1.2407
   21MOL0     H 2788   3.222   1.866   1.594  0.1286 -0.5427 -0.2581
   21MOL0     H 2789   3.052   1.998   1.532  1.3465 -2.2264  2.1931
   21MOL0     H 2790   3.184   2.122   1.551  2.7051 -0.7730 -0.9443
   21MOL0     H 2791   3.076   1.999   1.292  1.4445 -1.0710  1.2628
   21MOL0     H 2792   3.222   2.087   1.293 -0.6892  0.4826 -0.9786
   21MOL0     H 2793   3.094   2.272   1.405  0.4049 -1.2093  1.4743
   21MOL0     H 2794   2.939   2.189   1.370 -0.3599 -2.2838 -2.6892
   21MOL0     H 2795   3.059   2.262   0.944  1.1022 -1.1071  0.1937
   21MOL0     H 2796   3.223   2.403   0.818 -0.6506 -2.3781  1.4158
   21MOL0     H 2797   3.735   2.764   1.004  0.7149  1.5429 -0.8989
   21MOL0     H 2798   3.900   2.849   0.831  2.0728 -2.8559 -0.8447
   21MOL0     H 2799   4.004   2.663   0.424  0.9881  0.0869  2.0055
   21MOL0     H 2800   3.842   2.738   0.450  0.1084 -2.1572 -1.4696
   21MOL0     H 2801   3.951   2.947   0.481 -1.5108 -1.7167  0.1624
   21MOL0     H 2802   4.111   2.880   0.446  0.9242 -1.9508 -2.7858
   21MOL0     H 2803   4.066   2.858   0.209  0.0208 -0.1089 -0.6789
   21MOL0     H 2804   3.920   2.793   0.251  3.7044 -2.0842  1.1664
   21MOL0     H 2805   3.974   3.090   0.242  1.4388 -0.9849 -1.8213
   21MOL0     H 2806   3.828   3.028   0.314  0.0010 -1.0851 -1.2824
   21MOL0     H 2807   3.769   2.919   0.087 -1.6862  0.8990  0.0264
   21MOL0     H 2808   3.901   3.014   0.026 -1.4537 -2.7569  0.1580
   21MOL0     H 2809   3.651   3.098   0.164  0.8272  2.8183  1.5085
   21MOL0     H 2810   3.785   3.209   0.129 -1.1490  0.3381  0.2292
   21MOL0     H 2811   3.598   3.058  -0.056 -2.2234  2.1620 -1.5826
   21MOL0     H 2812   3.746   3.128  -0.126 -1.4360 -0.8485 -1.6701
   21MOL0     H 2813   3.538   3.272  -0.138 -1.5501 -1.1802  0.5515
   21MOL0     H 2814   3.514   3.268   0.029  1.4556 -4.3552  2.7405
   21MOL0     H 2815   3.814   2.533   0.575  1.6493  2.3486 -0.3097
   21MOL0     H 2816   3.636   2.451   0.724 -0.5387  1.1160 -2.3821
   21MOL0     H 2817   3.428   2.494   1.180 -1.0640 -0.0487  1.7850
   21MOL0     H 2818   3.261   2.370   1.313  0.4144 -1.6684 -0.3569
   21MOL0     H 2819   4.185   2.744   0.915 -1.7644  2.6709  0.2644
   21MOL0     H 2820   4.413   2.720   0.806  0.2253  0.0921 -0.7682
   21MOL0     H 2821   4.855   2.933   0.900 -0.0060  1.9453 -0.2727
   21MOL0     H 2822   5.083   2.954   0.851  0.7137  1.2392 -2.1979
   21MOL0     H 2823   5.392   2.845   0.511  0.1976 -0.2602 -1.9914
   21MOL0     H 2824   5.236   2.803   0.444 -0.1647 -0.2966  1.3074
   21MOL0     H 2825   5.238   2.598   0.604 -0.3562  0.5903  0.5585
   21MOL0     H 2826   5.399   2.648   0.658  1.4854 -1.4662 -1.0776
   21MOL0     H 2827   5.468   2.604   0.400 -1.7634 -2.5817 -3.7478
   21MOL0     H 2828   5.324   2.522   0.394 -1.0005 -1.2325 -0.6437
   21MOL0     H 2829   5.429   2.411   0.627  0.6541  0.3617  0.2133
   21MOL0     H 2830   5.447   2.355   0.454  0.8973 -0.6018  0.4739
   21MOL0     H 2831   5.838   2.500   0.575  1.1134 -2.7780 -1.4754
   21MOL0     H 2832   5.031   2.733   0.484  0.1517 -0.5225 -0.0556
   21MOL0     H 2833   4.831   2.668   0.399  2.4230 -2.8903  3.3833
   21MOL0     H 2834   4.704   2.639   0.520  0.0540 -1.4584 -2.3099
   21MOL0     H 2835   4.702   2.782   0.420  0.1383 -0.6332 -0.8238
   22MOL0     O 2836   7.165   8.949   4.165 -0.2271 -0.2893 -0.3775
   22MOL0     C 2837   7.122   8.838   4.139  0.6532 -0.1787 -0.1391
   22MOL0     O 2838   7.178   8.718   4.180 -0.5148  0.4459  0.2845
   22MOL0     C 2839   7.261   8.723   4.285  0.0673  0.3597  0.2624
   22MOL0     C 2840   7.219   8.753   4.417  0.8742  0.1025  0.3989
   22MOL0     C 2841   7.307   8.755   4.526  0.1504 -0.1965  0.1494
   22MOL0     C 2842   7.443   8.735   4.515  0.1331  0.4141  0.5122
   22MOL0     O 2843   7.512   8.719   4.634 -0.1943 -0.2789 -0.5119
   22MOL0     C 2844   7.646   8.779   4.642  0.2130  0.0861 -0.6155
   22MOL0     C 2845   7.754   8.679   4.663  0.3552 -0.6094 -0.0207
   22MOL0     C 2846   7.887   8.749   4.693 -0.3281  0.2192 -0.0975
   22MOL0     C 2847   7.980   8.659   4.760 -0.7320  0.5608 -0.6241
   22MOL0     C 2848   8.130   8.708   4.750  0.3276  0.8079 -0.4497
   22MOL0     C 2849   8.231   8.603   4.804  0.3642  0.0723  1.2706
   22MOL0     C 2850   8.379   8.619   4.763 -0.7555 -0.6300 -0.1425
   22MOL0     C 2851   8.446   8.765   4.758  1.2053  0.1454  0.1488
   22MOL0     N 2852   8.590   8.755   4.746  0.4938 -0.3075  0.5319
   22MOL0     C 2853   8.666   8.744   4.624 -0.3839 -0.8946  0.3410
   22MOL0     C 2854   8.799   8.740   4.677 -0.0288  0.7393  0.5518
   22MOL0     C 2855   8.923   8.723   4.593 -0.0427 -0.9737  0.7436
   22MOL0     C 2856   9.016   8.839   4.631  0.6120 -0.3332 -0.6794
   22MOL0     C 2857   9.105   8.890   4.521 -0.7394 -0.5548  0.1769
   22MOL0     C 2858   9.198   9.008   4.555  0.2315 -0.2235  0.5034
   22MOL0     O 2859   9.288   9.021   4.443 -0.3007  0.4390  0.0870
   22MOL0     C 2860   9.376   9.126   4.431 -0.4231 -0.3968 -0.6918
   22MOL0     C 2861   9.340   9.260   4.464  0.1381 -0.1816  0.2806
   22MOL0     C 2862   9.435   9.362   4.449  0.5475  0.4167  0.0288
   22MOL0     C 2863   9.565   9.339   4.414  0.2940 -0.0197  0.3187
   22MOL0     C 2864   9.686   9.443   4.418 -0.6589  0.5370  0.0810
   22MOL0     O 2865   9.788   9.425   4.327  0.6436 -0.1131  0.1205
   22MOL0     C 2866   9.909   9.480   4.369  0.4067  0.0933 -0.1556
   22MOL0     C 2867   9.964   9.479   4.498 -0.0355 -0.1798  1.0178
   22MOL0     C 2868  10.095   9.533   4.522 -0.3398 -0.2670  0.2603
   22MOL0     C 2869  10.164   9.591   4.432  0.4118  0.0450  0.0722
   22MOL0     O 2870  10.280   9.656   4.470  0.5386 -0.0827 -0.1243
   22MOL0     C 2871  10.366   9.718   4.373 -0.0295  0.4692 -0.2144
   22MOL0     C 2872  10.455   9.829   4.434  0.3076 -0.4133 -0.7058
   22MOL0     C 2873  10.553   9.765   4.526 -0.0925  0.6795 -1.0400
   22MOL0     C 2874  10.631   9.871   4.598 -0.5088 -0.8052 -0.3713
   22MOL0     C 2875  10.742   9.917   4.505  0.1222 -0.0573 -0.0574
   22MOL0     C 2876  10.819  10.036   4.570  0.5822  0.3867  0.0992
   22MOL0     C 2877  10.899  10.118   4.472  0.2032  1.2614 -0.2337
   22MOL0     C 2878  10.994  10.213   4.535 -0.1631  0.1348  0.0207
   22MOL0    Cl 2879  11.082  10.278   4.405  0.0375 -0.1774 -0.2860
   22MOL0     C 2880  10.110   9.594   4.301 -0.2382 -0.1111  1.1794
   22MOL0     C 2881   9.986   9.534   4.268 -0.1692  0.7742  0.7786
   22MOL0     O 2882   9.678   9.538   4.491 -0.0522 -0.4180  0.6468
   22MOL0     C 2883   9.603   9.208   4.386  0.2119  0.3423 -0.3656
   22MOL0     C 2884   9.509   9.105   4.395 -0.0114  0.0663 -0.4937
   22MOL0     N 2885   8.796   8.760   4.817  0.6889  0.5843  0.3015
   22MOL0     N 2886   8.673   8.756   4.852  0.4626  0.2304  0.7611
   22MOL0     C 2887   7.486   8.706   4.382 -0.5950 -0.5010 -0.1205
   22MOL0     C 2888   7.399   8.703   4.270 -0.4410  0.2927 -0.0035
   22MOL0     C 2889   7.013   8.838   4.037  0.6953  0.7019  0.1251
   22MOL0     C 2890   6.922   8.950   4.034 -0.3120  0.1502  0.1203
   22MOL0     C 2891   6.819   8.963   3.940  0.9586  0.0470 -0.0167
   22MOL0     C 2892   6.803   8.858   3.844 -0.4847 -0.5971 -0.0064
   22MOL0     O 2893   6.695   8.884   3.763  0.5319 -0.3493 -0.2102
   22MOL0     C 2894   6.638   8.782   3.691  0.2644 -0.1484 -0.0451
   22MOL0     C 2895   6.565   8.675   3.781 -0.7095  0.1935 -0.0558
   22MOL0     C 2896   6.416   8.682   3.756  0.0637  0.1890  0.6297
   22MOL0     C 2897   6.335   8.557   3.799 -0.0504 -0.0285  0.3604
   22MOL0     C 2898   6.193   8.555   3.790  0.1083 -0.1185  0.5926
   22MOL0     C 2899   6.072   8.563   3.788 -0.1148  0.4977 -1.4673
   22MOL0     C 2900   6.880   8.744   3.851 -0.6254 -0.5949  0.2704
   22MOL0     C 2901   6.991   8.735   3.940  0.2433 -0.3995 -0.3734
   22MOL0     C 2902   7.077   8.613   3.918 -0.2316 -0.1908  0.4175
   22MOL0     H 2903   7.113   8.768   4.430 -0.0890 -5.0400  0.7446
   22MOL0     H 2904   7.264   8.776   4.624  0.8033 -0.3698  0.4740
   22MOL0     H 2905   7.668   8.835   4.551  1.0061  1.1689  0.2140
   22MOL0     H 2906   7.641   8.856   4.720  0.6153 -0.5465  0.0508
   22MOL0     H 2907   7.767   8.625   4.569 -2.6413  2.1412 -2.2545
   22MOL0     H 2908   7.718   8.605   4.735 -2.2795 -0.1647 -0.7820
   22MOL0     H 2909   7.872   8.837   4.757  0.3523  0.5734 -0.4182
   22MOL0     H 2910   7.927   8.782   4.597 -0.8107  2.4133  0.4079
   22MOL0     H 2911   7.965   8.649   4.868  3.2970 -0.2644  0.0067
   22MOL0     H 2912   7.964   8.560   4.716  1.6974 -0.1688 -0.0265
   22MOL0     H 2913   8.157   8.725   4.645  1.5509 -2.0834 -0.6992
   22MOL0     H 2914   8.139   8.799   4.811 -0.0024 -1.2060  2.8023
   22MOL0     H 2915   8.232   8.597   4.914  2.9812  0.9937  1.3702
   22MOL0     H 2916   8.194   8.510   4.760 -2.8527  0.3675  3.0326
   22MOL0     H 2917   8.417   8.566   4.675  0.8697  1.0857 -0.5442
   22MOL0     H 2918   8.434   8.564   4.841  0.5251  0.8218  0.0488
   22MOL0     H 2919   8.417   8.816   4.666  2.3953 -0.4975 -0.6208
   22MOL0     H 2920   8.415   8.822   4.846 -0.2893 -4.8606  3.3420
   22MOL0     H 2921   8.635   8.738   4.520 -0.3740 -0.8617  0.3368
   22MOL0     H 2922   8.968   8.623   4.597  0.0879 -1.0309 -1.0249
   22MOL0     H 2923   8.886   8.734   4.490 -3.0620 -0.1030  1.8129
   22MOL0     H 2924   8.958   8.926   4.663 -3.4439 -2.6041 -1.1661
   22MOL0     H 2925   9.083   8.812   4.713  2.0352 -0.1232 -1.7367
   22MOL0     H 2926   9.046   8.910   4.432  0.8501  1.5388 -0.4789
   22MOL0     H 2927   9.159   8.801   4.487 -0.4201 -0.6798  0.9658
   22MOL0     H 2928   9.255   8.987   4.646 -0.9897 -1.9309  0.9176
   22MOL0     H 2929   9.136   9.098   4.553 -1.0132 -0.9611 -3.1403
   22MOL0     H 2930   9.237   9.285   4.489  0.6795  1.5130  0.8908
   22MOL0     H 2931   9.410   9.467   4.459  2.5300  0.7608  2.2200
   22MOL0     H 2932   9.913   9.426   4.577  0.9320 -2.1640  0.3761
   22MOL0     H 2933  10.143   9.525   4.619 -2.1747  0.1554  1.2458
   22MOL0     H 2934  10.435   9.643   4.335  2.5880  2.4682  0.3025
   22MOL0     H 2935  10.329   9.765   4.281  2.2277 -2.0097 -2.5728
   22MOL0     H 2936  10.513   9.871   4.351  1.1403 -1.7025 -0.8127
   22MOL0     H 2937  10.389   9.895   4.490 -2.4130 -2.3341 -1.4338
   22MOL0     H 2938  10.501   9.707   4.603 -0.3580  3.0179  0.6417
   22MOL0     H 2939  10.621   9.697   4.473  0.3644  0.2014  0.1166
   22MOL0     H 2940  10.675   9.842   4.694  3.1476  1.3653 -1.2179
   22MOL0     H 2941  10.563   9.956   4.610 -0.9578 -0.7886 -2.5697
   22MOL0     H 2942  10.706   9.949   4.407 -2.2984 -2.1722  0.0448
   22MOL0     H 2943  10.811   9.835   4.485 -0.5060 -0.9249  1.1511
   22MOL0     H 2944  10.752  10.094   4.635 -1.3906 -1.8841  0.2529
   22MOL0     H 2945  10.899   9.996   4.633  2.6695  1.6010 -1.6968
   22MOL0     H 2946  10.824  10.178   4.419  1.7792  2.1561 -1.5789
   22MOL0     H 2947  10.952  10.054   4.401 -1.7151  0.6755 -1.1863
   22MOL0     H 2948  10.944  10.284   4.601  0.1687  1.7772 -1.4108
   22MOL0     H 2949  11.055  10.140   4.589  1.7697  2.5998  1.3594
   22MOL0     H 2950  10.152   9.651   4.218 -2.1122 -2.2011 -1.3491
   22MOL0     H 2951   9.945   9.540   4.168 -1.2617  0.0843  1.1663
   22MOL0     H 2952   9.703   9.187   4.350 -0.7277 -2.9338 -1.4161
   22MOL0     H 2953   9.531   8.999   4.386 -3.0620 -0.4858 -3.9228
   22MOL0     H 2954   7.589   8.679   4.360 -0.5390 -2.2785  1.9469
   22MOL0     H 2955   7.446   8.676   4.176 -1.1325 -0.7375 -0.0703
   22MOL0     H 2956   6.920   9.004   4.128 -1.1651 -1.7552  1.2515
   22MOL0     H 2957   6.735   9.029   3.923  0.6570  0.2638  2.1213
   22MOL0     H 2958   6.714   8.735   3.627  2.3114  1.7332  0.8588
   22MOL0     H 2959   6.571   8.837   3.624  0.4295 -0.8369 -0.7992
   22MOL0     H 2960   6.576   8.693   3.889  0.4001 -1.3326  0.1220
   22MOL0     H 2961   6.603   8.574   3.764  0.3062  0.4351  0.6933
   22MOL0     H 2962   6.396   8.683   3.648  0.0967  1.5630  0.6245
   22MOL0     H 2963   6.370   8.772   3.797 -2.7247 -1.1997  0.8283
   22MOL0     H 2964   6.386   8.479   3.741 -1.2594 -0.8141  0.3071
   22MOL0     H 2965   6.357   8.542   3.905  1.6690  0.9081  0.1690
   22MOL0     H 2966   5.965   8.572   3.792 -0.3888 -2.1641  1.5730
   22MOL0     H 2967   6.863   8.657   3.788  0.0925 -1.1499  0.8216
   22MOL0     H 2968   7.053   8.527   3.982 -0.1516 -1.9482 -1.7972
   22MOL0     H 2969   7.080   8.584   3.813  3.6253  1.5264 -0.1123
   22MOL0     H 2970   7.179   8.648   3.931 -0.2952  1.0373 -1.9236
   23MOL0     O 2971   8.106   9.005   4.691 -0.5018 -0.6084 -0.3668
   23MOL0     C 2972   8.107   9.134   4.675 -0.1058  0.3421 -0.4619
   23MOL0     O 2973   8.222   9.205   4.641 -0.0521  0.4142 -0.5030
   23MOL0     C 2974   8.309   9.149   4.554 -0.2804  0.0837  0.1666
   23MOL0     C 2975   8.283   9.037   4.469  0.2308 -0.7579  1.2351
   23MOL0     C 2976   8.385   8.980   4.389 -0.4162 -0.7569  0.1631
   23MOL0     C 2977   8.509   9.054   4.385  0.5726  0.0933  0.4916
   23MOL0     O 2978   8.610   8.994   4.312  0.3445 -0.1292 -1.5266
   23MOL0     C 2979   8.725   9.073   4.273  0.1747  0.1327  0.3474
   23MOL0     C 2980   8.785   9.000   4.154 -0.1624  0.2040  0.3949
   23MOL0     C 2981   8.878   9.102   4.078 -0.5297 -0.7579 -0.4034
   23MOL0     C 2982   9.030   9.082   4.097 -1.1192  0.6220 -0.0985
   23MOL0     C 2983   9.122   9.185   4.046 -0.1045 -0.3041  0.2392
   23MOL0     C 2984   9.267   9.143   4.078  0.1189 -0.3911  0.4335
   23MOL0     C 2985   9.358   9.253   4.036 -0.6965  0.6343  0.3607
   23MOL0     C 2986   9.498   9.193   4.021  0.6555  0.0314 -0.4131
   23MOL0     N 2987   9.597   9.304   3.999  0.2068 -0.1009  0.3043
   23MOL0     C 2988   9.565   9.434   3.968  0.4614  0.3825  0.0651
   23MOL0     C 2989   9.684   9.495   3.974 -0.7723 -0.7770 -0.0230
   23MOL0     C 2990   9.698   9.642   3.961 -0.8578  0.4242 -0.3581
   23MOL0     C 2991   9.669   9.699   4.106  0.0922  0.8821 -0.3771
   23MOL0     C 2992   9.745   9.834   4.131  0.3195  0.5995  0.2818
   23MOL0     C 2993   9.717   9.876   4.272  0.9610  0.0963  0.6322
   23MOL0     O 2994   9.749  10.007   4.304 -0.3939  0.3360 -0.2693
   23MOL0     C 2995   9.880  10.044   4.297  0.2790 -0.2137  0.0243
   23MOL0     C 2996   9.990   9.959   4.313 -0.8312 -0.7285  0.5878
   23MOL0     C 2997  10.120  10.015   4.321 -0.5202  0.1843 -0.1953
   23MOL0     C 2998  10.134  10.152   4.333  0.0671  0.3565 -0.5820
   23MOL0     C 2999  10.278  10.208   4.343  0.1966  1.2431 -0.5266
   23MOL0     O 3000  10.281  10.332   4.389 -0.0314  0.3665  0.3192
   23MOL0     C 3001  10.404  10.379   4.422  0.0506 -0.0224 -0.7551
   23MOL0     C 3002  10.493  10.327   4.516  0.0634 -0.1575  0.1320
   23MOL0     C 3003  10.617  10.385   4.530 -1.2495  1.1860  0.6168
   23MOL0     C 3004  10.658  10.493   4.455 -0.3573  0.3863  0.2168
   23MOL0     O 3005  10.786  10.535   4.480  0.3579 -0.8170 -0.8890
   23MOL0     C 3006  10.870  10.562   4.370  0.6013 -0.2851 -0.4869
   23MOL0     C 3007  10.994  10.643   4.415 -0.1299 -0.5660  0.1357
   23MOL0     C 3008  11.051  10.597   4.554  0.0106  0.1958 -0.1900
   23MOL0     C 3009  11.194  10.651   4.566 -0.0532  0.3419 -0.8171
   23MOL0     C 3010  11.279  10.597   4.696  1.0006  0.2279 -0.0301
   23MOL0     C 3011  11.203  10.629   4.828 -0.2992  0.3469  0.0376
   23MOL0     C 3012  11.274  10.559   4.952  0.6044  0.5050  0.2212
   23MOL0     C 3013  11.394  10.627   5.010 -0.0609 -0.0600 -0.7208
   23MOL0    Cl 3014  11.349  10.764   5.119  0.0876  0.4721 -0.1947
   23MOL0     C 3015  10.573  10.551   4.364  0.5397  0.3034 -0.5382
   23MOL0     C 3016  10.438  10.495   4.350  0.1211  0.0345 -0.4825
   23MOL0     O 3017  10.378  10.141   4.310 -0.2350 -0.2203 -0.2863
   23MOL0     C 3018  10.023  10.235   4.325 -0.3635 -0.1330 -0.4053
   23MOL0     C 3019   9.897  10.181   4.311  0.3049 -0.4329 -0.0763
   23MOL0     N 3020   9.782   9.407   3.999  0.4350  0.6259 -0.4928
   23MOL0     N 3021   9.729   9.290   4.012  0.1114 -0.1028  0.1704
   23MOL0     C 3022   8.533   9.167   4.466  0.4940 -0.0731 -0.0190
   23MOL0     C 3023   8.434   9.213   4.551 -0.3579  0.6284 -1.6885
   23MOL0     C 3024   7.978   9.205   4.668 -0.9624  0.7874  0.8363
   23MOL0     C 3025   7.879   9.155   4.740  0.7871 -0.0677 -0.6287
   23MOL0     C 3026   7.748   9.205   4.738  0.1646 -0.4237  1.0464
   23MOL0     C 3027   7.726   9.323   4.664  0.7279 -0.0072 -0.3160
   23MOL0     O 3028   7.605   9.394   4.663 -0.0518 -0.3922 -0.7640
   23MOL0     C 3029   7.498   9.362   4.755  0.8881 -0.7806  0.1289
   23MOL0     C 3030   7.401   9.485   4.751  0.3531  0.4495  0.0878
   23MOL0     C 3031   7.299   9.488   4.630 -0.2247  0.0390 -0.5916
   23MOL0     C 3032   7.353   9.524   4.496 -1.6567  0.1513  0.6076
   23MOL0     C 3033   7.256   9.598   4.411  0.0421  0.1295  0.2640
   23MOL0     C 3034   7.160   9.646   4.356 -0.2760 -0.4694  0.5756
   23MOL0     C 3035   7.823   9.368   4.584 -0.7764 -0.0950  0.4460
   23MOL0     C 3036   7.952   9.315   4.584 -0.0077  0.3814  0.3972
   23MOL0     C 3037   8.057   9.376   4.495 -0.9893 -0.2456 -0.3631
   23MOL0     H 3038   8.182   8.997   4.465  0.3592 -1.3284  2.8142
   23MOL0     H 3039   8.354   8.900   4.324 -0.4585 -1.0821  0.5814
   23MOL0     H 3040   8.676   9.166   4.243 -2.1302 -0.8333  0.8994
   23MOL0     H 3041   8.796   9.089   4.354  2.0278 -1.2401 -0.9173
   23MOL0     H 3042   8.720   8.957   4.078  2.0977  1.1146 -2.2281
   23MOL0     H 3043   8.843   8.914   4.189 -0.5299 -0.4836 -0.6728
   23MOL0     H 3044   8.854   9.205   4.105 -0.9866 -1.4465  2.1127
   23MOL0     H 3045   8.860   9.097   3.970 -0.8169  4.6195 -0.8793
   23MOL0     H 3046   9.031   9.074   4.206 -0.7147  0.4128 -0.1160
   23MOL0     H 3047   9.055   8.982   4.061  3.8360  1.0355  1.4409
   23MOL0     H 3048   9.108   9.200   3.938  0.0009  1.3896  0.4334
   23MOL0     H 3049   9.088   9.280   4.088 -0.0835  2.3044 -4.8273
   23MOL0     H 3050   9.262   9.109   4.182  1.4303 -1.7927  0.0674
   23MOL0     H 3051   9.283   9.052   4.019 -0.1441 -2.5439  3.4380
   23MOL0     H 3052   9.346   9.334   4.109 -1.5330 -0.4433  1.4448
   23MOL0     H 3053   9.328   9.284   3.935  0.0980  2.1345  0.5524
   23MOL0     H 3054   9.521   9.128   4.106 -1.4742 -1.6255 -1.0121
   23MOL0     H 3055   9.484   9.129   3.934 -0.7689 -0.9054  0.4519
   23MOL0     H 3056   9.468   9.476   3.943  1.4747  1.0938 -2.9891
   23MOL0     H 3057   9.797   9.669   3.925 -0.6888 -0.7264 -0.7861
   23MOL0     H 3058   9.621   9.675   3.891 -3.1853 -1.6533  1.0450
   23MOL0     H 3059   9.564   9.701   4.136  0.7724  1.6232  2.2344
   23MOL0     H 3060   9.704   9.633   4.185  2.5793  4.0608  1.4084
   23MOL0     H 3061   9.719   9.911   4.059  0.4290  1.3936  1.0749
   23MOL0     H 3062   9.853   9.821   4.118  0.2262 -1.5292  1.1373
   23MOL0     H 3063   9.750   9.798   4.341  0.3138 -0.4502  0.3376
   23MOL0     H 3064   9.609   9.872   4.289  0.5335  1.6522 -1.3796
   23MOL0     H 3065   9.979   9.852   4.302 -2.4988 -0.3830 -1.8677
   23MOL0     H 3066  10.207   9.951   4.312 -0.4357  0.0743  1.1642
   23MOL0     H 3067  10.464  10.243   4.577 -2.1035  1.3977  1.3799
   23MOL0     H 3068  10.680  10.333   4.602 -0.3774  1.5720  0.1546
   23MOL0     H 3069  10.898  10.470   4.318 -1.8681  0.7404 -4.0202
   23MOL0     H 3070  10.816  10.630   4.303  1.3780  2.8461  1.8318
   23MOL0     H 3071  11.073  10.628   4.341 -0.3458 -2.9762  0.3172
   23MOL0     H 3072  10.962  10.747   4.417 -0.5697 -0.7032  0.4016
   23MOL0     H 3073  10.985  10.647   4.626 -1.3886 -1.2101 -0.4475
   23MOL0     H 3074  11.042  10.488   4.557 -0.5513  0.2092 -1.0938
   23MOL0     H 3075  11.189  10.757   4.592  1.8560 -0.0560  1.5106
   23MOL0     H 3076  11.253  10.642   4.475  0.0652 -0.2389 -0.6870
   23MOL0     H 3077  11.377  10.644   4.707  1.6772 -1.6531  3.0028
   23MOL0     H 3078  11.296  10.489   4.687 -1.7131 -0.6869  3.5599
   23MOL0     H 3079  11.197  10.737   4.847  0.5033  0.5112 -0.5707
   23MOL0     H 3080  11.098  10.599   4.825 -0.6382  1.0273  2.3517
   23MOL0     H 3081  11.295  10.457   4.919 -0.5069  0.7854 -1.4537
   23MOL0     H 3082  11.199  10.536   5.029  0.9349  2.4076  1.1669
   23MOL0     H 3083  11.444  10.558   5.079 -2.1015  0.9978  1.9902
   23MOL0     H 3084  11.458  10.669   4.932 -0.6571  1.2922 -0.5182
   23MOL0     H 3085  10.609  10.643   4.320 -1.1647  1.4088  0.2947
   23MOL0     H 3086  10.360  10.545   4.294 -1.0016  1.1990  1.9422
   23MOL0     H 3087  10.022  10.342   4.341 -0.4151 -0.2845  0.6665
   23MOL0     H 3088   9.819  10.254   4.289  2.1963  1.6000 -0.3447
   23MOL0     H 3089   8.627   9.222   4.472  1.3662 -1.5826  0.7806
   23MOL0     H 3090   8.453   9.299   4.614 -1.6508 -0.8382  0.8553
   23MOL0     H 3091   7.889   9.065   4.801  1.9658  1.0939  0.9756
   23MOL0     H 3092   7.670   9.166   4.802  1.6048 -0.6636  2.7073
   23MOL0     H 3093   7.518   9.346   4.862 -1.3974 -1.3805  0.5237
   23MOL0     H 3094   7.442   9.274   4.723 -1.8855  0.6124  0.8154
   23MOL0     H 3095   7.461   9.576   4.751  0.6060  0.2838  0.0406
   23MOL0     H 3096   7.333   9.476   4.836 -1.8539 -1.2701 -1.6926
   23MOL0     H 3097   7.226   9.563   4.661 -0.4763 -1.7872  3.9243
   23MOL0     H 3098   7.234   9.401   4.612 -1.9156  1.7700 -3.7396
   23MOL0     H 3099   7.442   9.586   4.506 -1.8019  0.7925 -1.6471
   23MOL0     H 3100   7.376   9.430   4.446  0.7891  0.7425  0.5186
   23MOL0     H 3101   7.079   9.687   4.300 -1.0453 -0.6229  1.5401
   23MOL0     H 3102   7.801   9.455   4.523  1.0995  0.9597  1.2042
   23MOL0     H 3103   8.128   9.308   4.447 -0.4888 -1.5965  2.1129
   23MOL0     H 3104   8.013   9.439   4.418  2.8052  3.0431 -0.1618
   23MOL0     H 3105   8.118   9.443   4.557  2.7804 -3.1457 -0.5707
   24MOL0     O 3106  10.078   5.687   0.535  0.0545  0.5690 -0.3094
   24MOL0     C 3107  10.079   5.566   0.519  0.3664 -0.2073 -0.1942
   24MOL0     O 3108  10.158   5.477   0.581 -0.4800 -0.4405 -0.3846
   24MOL0     C 3109  10.295   5.486   0.563  0.1605 -0.3586  0.3445
   24MOL0     C 3110  10.382   5.408   0.640  1.5078 -1.5166  0.1861
   24MOL0     C 3111  10.522   5.421   0.643  0.5317  0.6426  0.0617
   24MOL0     C 3112  10.582   5.503   0.548  0.2252 -0.1166 -0.0063
   24MOL0     O 3113  10.720   5.503   0.555  0.3533  0.7073  0.0680
   24MOL0     C 3114  10.785   5.617   0.494  1.0161 -0.3820 -1.2652
   24MOL0     C 3115  10.932   5.608   0.515  0.2738 -0.6271  0.9520
   24MOL0     C 3116  10.966   5.621   0.665  0.0306 -0.6804  0.0221
   24MOL0     C 3117  11.111   5.597   0.704 -0.1891  0.5076 -0.3177
   24MOL0     C 3118  11.160   5.675   0.816 -0.1685 -0.2020  0.2393
   24MOL0     C 3119  11.303   5.658   0.848 -0.0665  0.1811 -1.2059
   24MOL0     C 3120  11.352   5.522   0.903 -0.3265 -0.0749  0.4182
   24MOL0     C 3121  11.473   5.520   0.998 -0.1101 -0.4628  0.4851
   24MOL0     N 3122  11.598   5.542   0.925 -0.0985 -0.2950 -0.6841
   24MOL0     C 3123  11.689   5.445   0.905  0.4369 -0.0955  0.4901
   24MOL0     C 3124  11.796   5.508   0.851  0.6709  0.6165 -0.5857
   24MOL0     C 3125  11.927   5.455   0.791 -0.2451  0.2980 -0.0910
   24MOL0     C 3126  11.921   5.451   0.643  0.3489  0.8653  0.4940
   24MOL0     C 3127  11.825   5.338   0.591  0.3429 -0.4280 -1.2855
   24MOL0     C 3128  11.689   5.391   0.543  0.0748 -0.2771  0.0779
   24MOL0     O 3129  11.715   5.476   0.428 -0.4339 -0.3396 -0.0993
   24MOL0     C 3130  11.601   5.534   0.373 -0.5812 -0.6153  0.1450
   24MOL0     C 3131  11.473   5.531   0.428 -0.2030  0.5599  0.3406
   24MOL0     C 3132  11.370   5.586   0.357  0.0711 -0.3558 -0.6081
   24MOL0     C 3133  11.380   5.651   0.234 -0.6882 -0.3798 -0.2236
   24MOL0     C 3134  11.268   5.716   0.157 -0.6517  0.8424 -0.7673
   24MOL0     O 3135  11.288   5.762   0.036 -0.6671  0.3070  0.1200
   24MOL0     C 3136  11.185   5.817  -0.022  0.6988  0.0108  0.3276
   24MOL0     C 3137  11.095   5.738  -0.091  0.4113 -0.0143 -0.7304
   24MOL0     C 3138  11.011   5.798  -0.184  1.5124 -0.0989  0.1811
   24MOL0     C 3139  11.011   5.939  -0.204 -0.2430  1.2161 -0.2031
   24MOL0     O 3140  10.923   5.992  -0.285 -0.0963  0.0870  0.2197
   24MOL0     C 3141  10.893   6.135  -0.276 -0.3899 -0.1849  0.1184
   24MOL0     C 3142  10.761   6.164  -0.354  0.0791  0.8104 -0.1896
   24MOL0     C 3143  10.628   6.160  -0.259 -0.0643 -0.0220 -0.3418
   24MOL0     C 3144  10.500   6.155  -0.334  0.5263 -0.3283 -0.0766
   24MOL0     C 3145  10.377   6.144  -0.245  0.1570  0.2800 -0.3763
   24MOL0     C 3146  10.253   6.141  -0.339 -0.0880 -0.0102  0.0432
   24MOL0     C 3147  10.134   6.136  -0.246  0.4695  0.2357 -0.2684
   24MOL0     C 3148   9.999   6.144  -0.315 -1.0900  0.5687  0.1148
   24MOL0    Cl 3149   9.988   6.001  -0.417 -0.2743  0.1472  0.1537
   24MOL0     C 3150  11.093   6.019  -0.126 -1.0106 -0.7542  0.6535
   24MOL0     C 3151  11.184   5.958  -0.036 -0.5299 -0.8268  0.6350
   24MOL0     O 3152  11.162   5.712   0.223 -0.0829  0.4253  0.3311
   24MOL0     C 3153  11.510   5.660   0.185 -0.0030  0.0541  0.5822
   24MOL0     C 3154  11.625   5.598   0.253  0.4912 -0.5889 -0.3885
   24MOL0     N 3155  11.766   5.644   0.859 -0.1406  0.4859 -0.3317
   24MOL0     N 3156  11.657   5.658   0.912  0.0198 -0.5215 -0.1045
   24MOL0     C 3157  10.503   5.585   0.470 -0.1642 -0.1189  0.0939
   24MOL0     C 3158  10.360   5.582   0.482  0.0513  0.0239 -0.6291
   24MOL0     C 3159   9.973   5.512   0.422  0.3096 -0.0076 -0.1884
   24MOL0     C 3160   9.938   5.375   0.442 -0.0523  0.2913  0.5440
   24MOL0     C 3161   9.847   5.322   0.348  0.6075 -0.4579  0.0209
   24MOL0     C 3162   9.770   5.400   0.250  0.9562 -0.0018 -0.5368
   24MOL0     O 3163   9.691   5.339   0.157 -0.9225 -0.0133 -1.0735
   24MOL0     C 3164   9.648   5.408   0.037  0.0055 -0.2863 -0.1698
   24MOL0     C 3165   9.601   5.294  -0.067 -0.2884 -0.1964  0.4216
   24MOL0     C 3166   9.562   5.364  -0.195  0.5892 -0.2194 -0.2696
   24MOL0     C 3167   9.490   5.262  -0.290 -0.5479 -0.1379 -0.8414
   24MOL0     C 3168   9.386   5.328  -0.369 -1.1670 -1.3151 -0.3560
   24MOL0     C 3169   9.307   5.399  -0.434 -0.0562 -0.1100 -0.0393
   24MOL0     C 3170   9.813   5.524   0.234 -0.9706 -0.4512  0.2263
   24MOL0     C 3171   9.917   5.579   0.314 -0.0667 -1.1660 -0.1730
   24MOL0     C 3172   9.947   5.717   0.278  0.1278 -1.8655  0.0145
   24MOL0     H 3173  10.332   5.330   0.698  3.0193 -2.4091  0.3416
   24MOL0     H 3174  10.583   5.371   0.718  0.8810  2.2018  0.8765
   24MOL0     H 3175  10.767   5.619   0.386  3.1025  1.0805 -1.6381
   24MOL0     H 3176  10.758   5.715   0.532 -0.1775 -0.4301 -1.9282
   24MOL0     H 3177  10.976   5.693   0.461 -0.7356 -0.4385  0.3785
   24MOL0     H 3178  10.975   5.515   0.479  3.3529  0.2659  2.0606
   24MOL0     H 3179  10.897   5.551   0.713 -1.8448  0.6392 -0.6257
   24MOL0     H 3180  10.936   5.719   0.702 -0.5948 -1.6550  2.2995
   24MOL0     H 3181  11.126   5.493   0.736 -0.4394  0.6591  0.3024
   24MOL0     H 3182  11.179   5.626   0.624  0.6234  2.4404  1.0088
   24MOL0     H 3183  11.150   5.784   0.813 -1.0076 -0.1496  2.6622
   24MOL0     H 3184  11.103   5.642   0.903 -1.0212  2.1473  0.6402
   24MOL0     H 3185  11.353   5.688   0.756 -2.6363  2.9876 -1.8595
   24MOL0     H 3186  11.339   5.731   0.922 -0.7271  0.2274 -0.9192
   24MOL0     H 3187  11.376   5.463   0.813 -4.8207 -2.6879  0.6245
   24MOL0     H 3188  11.265   5.477   0.951 -0.2338 -1.3815 -0.5910
   24MOL0     H 3189  11.465   5.603   1.069 -1.2642  3.6765 -3.9517
   24MOL0     H 3190  11.463   5.420   1.040 -2.6931 -0.8488 -0.8386
   24MOL0     H 3191  11.659   5.343   0.925  2.3112 -0.0080  4.7016
   24MOL0     H 3192  12.015   5.519   0.806  3.0989 -4.0434  0.6718
   24MOL0     H 3193  11.949   5.360   0.840  0.7400 -0.7084 -2.3337
   24MOL0     H 3194  11.905   5.553   0.606 -0.1985  1.2359  1.6982
   24MOL0     H 3195  12.014   5.407   0.606 -0.8955 -2.2685  0.8015
   24MOL0     H 3196  11.784   5.274   0.669  1.6266 -0.0110 -0.2232
   24MOL0     H 3197  11.863   5.278   0.507  0.2592  0.8883 -2.2910
   24MOL0     H 3198  11.639   5.450   0.620 -0.7997  0.4836 -1.0414
   24MOL0     H 3199  11.629   5.308   0.506 -0.4251  0.4942 -0.9026
   24MOL0     H 3200  11.440   5.497   0.526  2.5418 -0.0145  1.1715
   24MOL0     H 3201  11.273   5.578   0.405  0.2122 -0.9900 -0.4218
   24MOL0     H 3202  11.100   5.631  -0.075 -2.1611  0.0779  1.4680
   24MOL0     H 3203  10.935   5.749  -0.243  0.5328  1.3819  0.1510
   24MOL0     H 3204  10.880   6.149  -0.169  1.0945 -2.8372  0.7432
   24MOL0     H 3205  10.968   6.205  -0.313 -2.4609  2.0205 -0.1709
   24MOL0     H 3206  10.774   6.268  -0.387  2.3322 -0.0504 -2.2684
   24MOL0     H 3207  10.759   6.100  -0.442  2.9232 -0.8255  0.7921
   24MOL0     H 3208  10.639   6.071  -0.196  2.1048 -1.7764 -3.0203
   24MOL0     H 3209  10.636   6.246  -0.191 -1.7698 -0.6002  0.6636
   24MOL0     H 3210  10.504   6.065  -0.397 -2.7882  0.3225 -1.4268
   24MOL0     H 3211  10.497   6.250  -0.389 -0.5392 -0.6702 -0.6378
   24MOL0     H 3212  10.371   6.222  -0.168 -1.3521  0.0050 -0.1974
   24MOL0     H 3213  10.374   6.052  -0.186 -2.1292  1.8206  2.1371
   24MOL0     H 3214  10.243   6.233  -0.397  2.5881 -0.0654 -0.6247
   24MOL0     H 3215  10.251   6.060  -0.411 -0.4887 -0.9903  1.1220
   24MOL0     H 3216  10.139   6.222  -0.179  2.3244 -0.3693  0.4167
   24MOL0     H 3217  10.142   6.055  -0.172  0.3187  1.4864  1.1733
   24MOL0     H 3218   9.918   6.153  -0.242 -1.1864 -0.0032  0.0777
   24MOL0     H 3219  10.000   6.233  -0.379  1.1855  0.3464 -0.2420
   24MOL0     H 3220  11.097   6.127  -0.121 -2.0205 -0.7335  1.2613
   24MOL0     H 3221  11.264   6.024  -0.005 -1.0803  0.3827 -0.4056
   24MOL0     H 3222  11.529   5.722   0.098  0.3465 -0.4685  0.2800
   24MOL0     H 3223  11.725   5.596   0.210  0.9598  1.8179  0.4200
   24MOL0     H 3224  10.549   5.643   0.391 -2.0317 -0.5205 -1.3641
   24MOL0     H 3225  10.302   5.653   0.423  1.6659  1.6157 -0.3992
   24MOL0     H 3226   9.988   5.315   0.517 -0.2952 -2.2438 -1.1945
   24MOL0     H 3227   9.828   5.216   0.346 -5.4122  0.2746  0.8856
   24MOL0     H 3228   9.738   5.453  -0.005  1.4691 -2.3328  0.6175
   24MOL0     H 3229   9.571   5.478   0.072  0.4076 -0.5626  1.3362
   24MOL0     H 3230   9.506   5.249  -0.036 -1.0016 -0.7265 -2.2158
   24MOL0     H 3231   9.675   5.214  -0.070 -0.2603 -0.1756  0.5715
   24MOL0     H 3232   9.639   5.417  -0.252 -2.5222  1.8379 -2.8903
   24MOL0     H 3233   9.493   5.442  -0.163  2.7902  1.5713  0.3618
   24MOL0     H 3234   9.573   5.224  -0.351  0.8091  2.1763 -0.5812
   24MOL0     H 3235   9.442   5.179  -0.238 -1.6309  0.5187 -0.7623
   24MOL0     H 3236   9.235   5.453  -0.492  0.3529  0.0369 -0.4132
   24MOL0     H 3237   9.766   5.587   0.159 -0.6607 -0.1171  0.3085
   24MOL0     H 3238   9.894   5.750   0.188  1.7548 -0.9635 -0.6422
   24MOL0     H 3239   9.926   5.779   0.365  3.3577  0.4849 -0.7087
   24MOL0     H 3240  10.049   5.730   0.243 -0.6219 -0.5595 -1.8650
   25MOL0     O 3241  10.403   1.394   1.935 -0.6216  0.5035 -0.4301
   25MOL0     C 3242  10.493   1.464   1.983  1.0616  0.0141  0.2609
   25MOL0     O 3243  10.622   1.436   1.971  0.5854 -0.9480  0.3055
   25MOL0     C 3244  10.647   1.333   1.885 -0.1990  0.0891 -0.1093
   25MOL0     C 3245  10.703   1.215   1.933 -0.4585  0.1122 -0.3372
   25MOL0     C 3246  10.735   1.114   1.845 -0.3087 -0.6211  0.5370
   25MOL0     C 3247  10.721   1.126   1.710 -0.3860  0.1448  0.4450
   25MOL0     O 3248  10.762   1.040   1.618  0.0673 -0.2416  0.0804
   25MOL0     C 3249  10.736   0.894   1.635 -0.4492  0.8628 -0.1092
   25MOL0     C 3250  10.732   0.825   1.503 -0.5445 -0.7178 -0.6232
   25MOL0     C 3251  10.674   0.679   1.528  0.0052  0.3222 -0.0991
   25MOL0     C 3252  10.650   0.603   1.406  0.0395  0.1626 -0.3566
   25MOL0     C 3253  10.579   0.467   1.430  0.3626  0.0822 -0.0690
   25MOL0     C 3254  10.680   0.368   1.497  0.4367 -0.1244  0.5880
   25MOL0     C 3255  10.799   0.330   1.404 -1.0133  0.4375  0.0466
   25MOL0     C 3256  10.892   0.233   1.474  0.0046 -0.5024  0.0049
   25MOL0     N 3257  10.979   0.284   1.585 -0.5722  0.6180  0.1085
   25MOL0     C 3258  11.100   0.345   1.573 -0.1480 -1.2293 -1.0633
   25MOL0     C 3259  11.140   0.372   1.702 -0.1454  0.0202 -0.2533
   25MOL0     C 3260  11.248   0.469   1.735 -0.1396 -0.3084 -0.3292
   25MOL0     C 3261  11.388   0.396   1.741  0.9522  0.3030 -0.2272
   25MOL0     C 3262  11.405   0.321   1.879 -0.2416  0.8304  0.4915
   25MOL0     C 3263  11.483   0.200   1.855 -0.0635  0.5985 -0.0672
   25MOL0     O 3264  11.618   0.219   1.814  0.7431 -0.4558  0.3269
   25MOL0     C 3265  11.719   0.265   1.902  0.9738  0.6496 -0.0986
   25MOL0     C 3266  11.708   0.274   2.040  0.6444  0.2442  0.9205
   25MOL0     C 3267  11.800   0.336   2.125 -0.1737 -0.2480  0.7116
   25MOL0     C 3268  11.918   0.378   2.067  0.0701 -0.4521 -0.1025
   25MOL0     C 3269  12.033   0.446   2.135  0.5223  0.4491 -0.4434
   25MOL0     O 3270  12.107   0.366   2.219 -0.5862  0.3694  0.1467
   25MOL0     C 3271  12.249   0.377   2.237  1.0621 -0.0091 -0.5640
   25MOL0     C 3272  12.342   0.448   2.158 -0.3896  0.9005  0.3726
   25MOL0     C 3273  12.480   0.436   2.175 -0.1416 -0.3418  0.1305
   25MOL0     C 3274  12.529   0.354   2.269  0.7443 -1.0588  0.7076
   25MOL0     O 3275  12.664   0.346   2.278 -0.1231 -0.3039 -0.1738
   25MOL0     C 3276  12.734   0.344   2.412 -0.1020 -0.0232  0.0469
   25MOL0     C 3277  12.887   0.358   2.398  1.0341 -0.1751 -0.3656
   25MOL0     C 3278  12.946   0.373   2.530 -0.5889  0.0694 -0.1616
   25MOL0     C 3279  13.093   0.362   2.517 -0.5379 -1.1725  0.1199
   25MOL0     C 3280  13.155   0.336   2.657  0.3418 -0.0621  1.1518
   25MOL0     C 3281  13.127   0.437   2.763 -0.4447 -0.6175 -0.1389
   25MOL0     C 3282  13.231   0.412   2.874 -0.2992 -0.7184  1.0971
   25MOL0     C 3283  13.233   0.500   2.999 -0.3651  0.2214 -0.3772
   25MOL0    Cl 3284  13.295   0.664   2.945  0.5479 -0.0374 -0.3494
   25MOL0     C 3285  12.444   0.291   2.358  0.1562 -0.1818  0.2097
   25MOL0     C 3286  12.305   0.298   2.336  0.0299 -0.0312  0.5471
   25MOL0     O 3287  12.062   0.564   2.102 -0.1921 -0.2516  0.4204
   25MOL0     C 3288  11.927   0.374   1.929 -0.7098  0.1389 -0.4703
   25MOL0     C 3289  11.832   0.313   1.845  0.8695  0.3160  0.1787
   25MOL0     N 3290  11.040   0.321   1.788  0.2366  0.3299  0.1724
   25MOL0     N 3291  10.940   0.281   1.711  1.0007  0.6853  0.4843
   25MOL0     C 3292  10.656   1.241   1.660  0.4565  0.2350  0.3392
   25MOL0     C 3293  10.622   1.344   1.747 -0.8145 -0.1384 -0.1167
   25MOL0     C 3294  10.458   1.592   2.052  0.3890 -0.0941  0.1768
   25MOL0     C 3295  10.557   1.650   2.114  0.0772  0.0851 -0.1655
   25MOL0     C 3296  10.540   1.765   2.195  0.0308  0.3178  0.1373
   25MOL0     C 3297  10.414   1.827   2.199 -0.0471 -0.5749  0.7058
   25MOL0     O 3298  10.418   1.957   2.240 -0.3306  0.1097 -0.6165
   25MOL0     C 3299  10.317   2.047   2.197 -0.0820  0.2661  0.6991
   25MOL0     C 3300  10.330   2.190   2.259  0.2610 -0.6982  0.8391
   25MOL0     C 3301  10.200   2.272   2.206  0.0608  0.0187  0.6373
   25MOL0     C 3302  10.196   2.422   2.243 -0.8029 -0.2256  0.0219
   25MOL0     C 3303  10.191   2.440   2.388 -0.0355  0.2454 -1.3168
   25MOL0     C 3304  10.165   2.465   2.505  0.0045  0.3210 -0.2626
   25MOL0     C 3305  10.311   1.771   2.125  0.6455 -0.0559  0.2057
   25MOL0     C 3306  10.328   1.646   2.064 -0.5100  0.0128 -0.7617
   25MOL0     C 3307  10.219   1.592   1.975 -0.6066  0.1695  0.1854
   25MOL0     H 3308  10.710   1.209   2.041  1.6921  0.4896 -0.4213
   25MOL0     H 3309  10.781   1.023   1.881 -1.0325 -1.1114  0.2372
   25MOL0     H 3310  10.805   0.849   1.707 -0.6857  1.5504  0.5518
   25MOL0     H 3311  10.641   0.872   1.686  1.4621 -1.2596  2.8440
   25MOL0     H 3312  10.833   0.839   1.465 -0.3910  1.5970  0.4376
   25MOL0     H 3313  10.664   0.875   1.434  1.9830  1.4818 -1.6907
   25MOL0     H 3314  10.581   0.675   1.585 -1.4982 -3.3028 -2.3864
   25MOL0     H 3315  10.751   0.626   1.584  1.1835  1.7393 -0.3181
   25MOL0     H 3316  10.591   0.668   1.340  1.7951  2.6163  0.3473
   25MOL0     H 3317  10.744   0.592   1.350 -0.3419 -0.0987 -0.9582
   25MOL0     H 3318  10.487   0.472   1.488 -0.0564  0.7102 -0.7770
   25MOL0     H 3319  10.544   0.434   1.332  0.3081 -2.4291  0.7270
   25MOL0     H 3320  10.721   0.423   1.583  1.2469 -0.7476  0.6120
   25MOL0     H 3321  10.625   0.280   1.531  0.4341  0.0469  1.0465
   25MOL0     H 3322  10.859   0.421   1.391  0.0881 -0.2887 -0.1032
   25MOL0     H 3323  10.767   0.282   1.311 -0.7088  0.0707  0.1271
   25MOL0     H 3324  10.826   0.155   1.512 -0.6736  0.2274  0.3370
   25MOL0     H 3325  10.961   0.192   1.400 -1.9145  0.5636 -2.4935
   25MOL0     H 3326  11.142   0.378   1.479 -0.2468 -1.1506 -1.0796
   25MOL0     H 3327  11.246   0.551   1.664  0.2269 -1.2875 -1.5042
   25MOL0     H 3328  11.221   0.516   1.830  1.3176 -2.0263  1.0237
   25MOL0     H 3329  11.412   0.340   1.650 -0.2911 -1.0470  0.2334
   25MOL0     H 3330  11.460   0.478   1.740 -0.2057  1.3764  0.8242
   25MOL0     H 3331  11.301   0.302   1.906 -1.0743 -1.3236 -3.4534
   25MOL0     H 3332  11.464   0.382   1.949  1.1351 -1.2341  1.2246
   25MOL0     H 3333  11.440   0.131   1.782  1.0760 -3.5944  2.8405
   25MOL0     H 3334  11.490   0.157   1.956 -0.1514 -0.7082 -0.5994
   25MOL0     H 3335  11.620   0.233   2.089  0.5526  0.9003  1.3154
   25MOL0     H 3336  11.791   0.340   2.233 -1.4866  0.1581  0.6023
   25MOL0     H 3337  12.310   0.517   2.081 -2.0037  0.8629  0.9798
   25MOL0     H 3338  12.545   0.479   2.099 -0.5351 -2.8616 -1.7618
   25MOL0     H 3339  12.708   0.435   2.468 -2.2428  0.4293 -1.5300
   25MOL0     H 3340  12.704   0.258   2.473 -0.8415  0.8385  0.9405
   25MOL0     H 3341  12.922   0.266   2.351 -0.1810 -0.5036 -0.6785
   25MOL0     H 3342  12.912   0.442   2.331 -0.2159  0.2664 -0.3096
   25MOL0     H 3343  12.921   0.473   2.566  1.3924  0.1590  1.1393
   25MOL0     H 3344  12.911   0.298   2.602 -2.0932  0.8586 -0.0466
   25MOL0     H 3345  13.128   0.458   2.480  0.2480 -0.8921  1.5000
   25MOL0     H 3346  13.125   0.282   2.449  0.3385 -0.2142 -0.6127
   25MOL0     H 3347  13.261   0.327   2.635  0.3380  1.4725  0.3710
   25MOL0     H 3348  13.124   0.236   2.690  2.7278 -0.9052  1.0199
   25MOL0     H 3349  13.148   0.540   2.732  1.0848 -0.4070  1.4340
   25MOL0     H 3350  13.025   0.437   2.802 -0.5692 -2.8041 -0.3675
   25MOL0     H 3351  13.333   0.415   2.833 -0.0777  2.2693  1.6121
   25MOL0     H 3352  13.199   0.312   2.903 -1.8405 -0.2768  0.9911
   25MOL0     H 3353  13.136   0.498   3.051  0.1236  3.0974  0.8666
   25MOL0     H 3354  13.306   0.468   3.074 -2.4024 -1.1117  1.1316
   25MOL0     H 3355  12.478   0.247   2.451  0.3804 -0.3900  0.0299
   25MOL0     H 3356  12.241   0.255   2.414  0.7244 -1.4932  0.3474
   25MOL0     H 3357  12.019   0.403   1.878 -0.6687  1.1563  0.1470
   25MOL0     H 3358  11.841   0.313   1.737 -4.3143  0.2601 -0.5166
   25MOL0     H 3359  10.640   1.253   1.553 -1.2733 -1.5170  0.3586
   25MOL0     H 3360  10.591   1.439   1.705  1.4568  0.7325  0.0763
   25MOL0     H 3361  10.640   1.583   2.128  0.7687  1.1241  1.0273
   25MOL0     H 3362  10.629   1.803   2.243 -0.2162  0.9552  0.0999
   25MOL0     H 3363  10.224   1.998   2.226 -0.5321  0.0219 -1.0058
   25MOL0     H 3364  10.318   2.062   2.088  0.6562  1.6606  0.8721
   25MOL0     H 3365  10.420   2.239   2.222 -1.8008  0.6652 -2.8469
   25MOL0     H 3366  10.334   2.184   2.369 -0.2100 -2.6403  0.7907
   25MOL0     H 3367  10.110   2.222   2.241  0.3491  0.6868  2.4110
   25MOL0     H 3368  10.207   2.273   2.097  1.3039  0.1122  0.6999
   25MOL0     H 3369  10.289   2.463   2.203 -1.5335  1.6557  0.1399
   25MOL0     H 3370  10.111   2.475   2.199 -0.5102 -0.2559 -0.5894
   25MOL0     H 3371  10.124   2.490   2.601 -0.7054  0.0866 -0.4937
   25MOL0     H 3372  10.216   1.823   2.121  0.0225 -1.2004 -0.3121
   25MOL0     H 3373  10.178   1.496   2.007 -2.5403  0.2933 -1.6906
   25MOL0     H 3374  10.132   1.657   1.984 -0.3675  0.3110  1.6125
   25MOL0     H 3375  10.255   1.591   1.872  0.1043 -2.2831  0.3770
   26MOL0     O 3376   6.246   8.741  10.085  0.3004 -0.0236 -0.6386
   26MOL0     C 3377   6.131   8.786  10.110 -1.1838  0.0671 -0.3780
   26MOL0     O 3378   6.086   8.910  10.079 -0.0390  0.9245 -0.2756
   26MOL0     C 3379   6.184   8.994  10.025 -0.1961 -0.6871 -0.4225
   26MOL0     C 3380   6.230   8.983   9.896 -0.1632 -0.5229  0.9186
   26MOL0     C 3381   6.323   9.071   9.834  0.6069  0.2474 -0.8353
   26MOL0     C 3382   6.380   9.172   9.915 -0.6627  0.4046  0.5574
   26MOL0     O 3383   6.455   9.276   9.868 -0.0937  0.2958  0.0216
   26MOL0     C 3384   6.515   9.268   9.740 -0.2914 -0.2810 -0.3447
   26MOL0     C 3385   6.608   9.388   9.753  0.5231 -0.5906  0.1989
   26MOL0     C 3386   6.741   9.348   9.794 -0.0029  0.1193 -0.8617
   26MOL0     C 3387   6.824   9.306   9.674 -0.5943  0.3712  0.3700
   26MOL0     C 3388   6.973   9.263   9.696  0.1108  0.6651  0.3558
   26MOL0     C 3389   6.996   9.178   9.826  0.6019  0.1301  0.4413
   26MOL0     C 3390   7.144   9.149   9.840  0.1853  0.3216 -0.2723
   26MOL0     C 3391   7.166   9.046   9.957 -0.9547 -0.8416 -0.2377
   26MOL0     N 3392   7.292   8.973   9.949  0.8239  0.5518 -1.1283
   26MOL0     C 3393   7.325   8.854   9.892 -0.6981 -0.6961  0.8976
   26MOL0     C 3394   7.465   8.848   9.912  1.0374 -0.9593 -0.5945
   26MOL0     C 3395   7.566   8.747   9.852  0.5250 -0.1307  0.3993
   26MOL0     C 3396   7.609   8.813   9.722 -0.9825  0.2746  1.0937
   26MOL0     C 3397   7.727   8.727   9.663 -0.5996  0.4786 -0.0877
   26MOL0     C 3398   7.780   8.804   9.541 -0.0513  0.4102 -0.5334
   26MOL0     O 3399   7.825   8.938   9.565 -0.2753 -0.6749 -0.5410
   26MOL0     C 3400   7.948   8.940   9.637 -0.5037  0.3058 -0.5058
   26MOL0     C 3401   7.958   8.955   9.773  0.1664  0.1877  0.3356
   26MOL0     C 3402   8.079   8.941   9.836 -0.5549  0.4396  0.2992
   26MOL0     C 3403   8.196   8.924   9.765 -0.6184  0.4533  0.5124
   26MOL0     C 3404   8.323   8.878   9.830  0.1348  0.3652 -0.6916
   26MOL0     O 3405   8.354   8.938   9.939  0.0419 -0.0268  0.0384
   26MOL0     C 3406   8.480   8.926   9.991  1.2929  0.5059  0.7735
   26MOL0     C 3407   8.558   9.034  10.012 -0.0359 -0.3672  0.1551
   26MOL0     C 3408   8.687   9.019  10.058  0.2444  0.1218 -0.4356
   26MOL0     C 3409   8.729   8.889  10.093 -0.2400  0.1698 -0.9291
   26MOL0     O 3410   8.854   8.864  10.142  0.2074  0.2457 -0.1849
   26MOL0     C 3411   8.962   8.944  10.102 -0.9320  0.1607 -0.3382
   26MOL0     C 3412   9.071   8.848  10.057 -0.8586 -0.5219 -0.6206
   26MOL0     C 3413   9.216   8.900  10.069 -0.5958 -0.1204  0.7174
   26MOL0     C 3414   9.302   8.829  10.178  0.5071 -0.1386  1.0915
   26MOL0     C 3415   9.451   8.881  10.176 -0.3039 -0.5736 -0.6180
   26MOL0     C 3416   9.530   8.789  10.260 -1.3834  1.0534  0.7697
   26MOL0     C 3417   9.684   8.817  10.240  0.0280 -0.0614 -0.0436
   26MOL0     C 3418   9.769   8.712  10.329  0.8145  0.4138 -0.1387
   26MOL0    Cl 3419   9.913   8.784  10.401  0.1870 -0.4521  0.0504
   26MOL0     C 3420   8.647   8.784  10.082 -0.3919 -0.2516 -0.6420
   26MOL0     C 3421   8.520   8.804  10.037 -0.4822 -0.3513 -0.6624
   26MOL0     O 3422   8.378   8.779   9.788  0.3286 -0.2198 -0.2313
   26MOL0     C 3423   8.184   8.910   9.627 -0.0080 -0.0454 -0.3710
   26MOL0     C 3424   8.061   8.914   9.559  0.3845 -1.1910  0.5393
   26MOL0     N 3425   7.508   8.959   9.977  0.3895 -0.5266 -0.0940
   26MOL0     N 3426   7.401   9.029  10.007  0.0297  0.5716 -0.3898
   26MOL0     C 3427   6.349   9.176  10.051 -0.1784  1.4203 -0.7223
   26MOL0     C 3428   6.255   9.091  10.103 -0.8389  0.7167  0.6397
   26MOL0     C 3429   6.038   8.698  10.190 -0.3630  1.0964 -0.5930
   26MOL0     C 3430   5.913   8.751  10.224  0.4251  0.0415 -0.2913
   26MOL0     C 3431   5.820   8.675  10.303  0.7063  0.9907  0.7018
   26MOL0     C 3432   5.852   8.546  10.344  0.9522 -0.1293 -0.4049
   26MOL0     O 3433   5.753   8.490  10.421  0.1064  0.1416  0.4696
   26MOL0     C 3434   5.757   8.356  10.477  0.7973 -0.0980  0.3975
   26MOL0     C 3435   5.668   8.262  10.394 -0.3733  0.1509  0.1206
   26MOL0     C 3436   5.611   8.139  10.469 -0.2169 -0.1065  0.8905
   26MOL0     C 3437   5.536   8.056  10.362 -0.4214  0.7092  0.0642
   26MOL0     C 3438   5.620   7.946  10.308 -0.4547 -0.5976  0.4451
   26MOL0     C 3439   5.690   7.863  10.259 -0.1288  0.2075  0.9462
   26MOL0     C 3440   5.976   8.497  10.319 -0.1512  0.0383 -0.5591
   26MOL0     C 3441   6.070   8.565  10.239  0.0873 -0.2012 -0.1691
   26MOL0     C 3442   6.200   8.484  10.214  0.2478  0.1047 -0.1587
   26MOL0     H 3443   6.190   8.901   9.837 -0.7101  1.7149 -2.0565
   26MOL0     H 3444   6.335   9.060   9.726 -1.3864 -3.2516 -0.8415
   26MOL0     H 3445   6.573   9.179   9.716 -1.4818 -0.8283 -1.2800
   26MOL0     H 3446   6.441   9.295   9.664  0.1790 -2.5636 -1.7007
   26MOL0     H 3447   6.576   9.454   9.834  0.0248 -2.3446  1.4877
   26MOL0     H 3448   6.626   9.447   9.663  0.1466 -1.3724 -0.4024
   26MOL0     H 3449   6.738   9.263   9.863  0.4905  1.0498  0.3447
   26MOL0     H 3450   6.790   9.433   9.843 -1.6025  0.5825  0.0341
   26MOL0     H 3451   6.773   9.236   9.608  1.2111  0.9376 -1.7483
   26MOL0     H 3452   6.827   9.390   9.604  1.9759  2.2682  2.5104
   26MOL0     H 3453   7.013   9.211   9.609 -1.4304  0.2840 -0.1701
   26MOL0     H 3454   7.025   9.357   9.717 -0.4874  0.9172  0.7240
   26MOL0     H 3455   6.958   9.232   9.913  1.0228 -0.0544  0.7461
   26MOL0     H 3456   6.941   9.085   9.810 -0.9162  0.5852  2.5662
   26MOL0     H 3457   7.197   9.245   9.840  3.7388 -1.3686  2.9387
   26MOL0     H 3458   7.178   9.088   9.755  1.7394 -0.8976  1.1673
   26MOL0     H 3459   7.148   9.086  10.057  1.0028  0.4484 -0.3489
   26MOL0     H 3460   7.084   8.974   9.949 -2.2096  0.5244  0.0695
   26MOL0     H 3461   7.262   8.784   9.838  1.9829 -2.5292 -0.0489
   26MOL0     H 3462   7.653   8.746   9.918  0.6980  4.0209  0.5256
   26MOL0     H 3463   7.514   8.654   9.829 -2.5847  1.4095  0.5191
   26MOL0     H 3464   7.525   8.820   9.652 -1.0683 -1.6160  0.9516
   26MOL0     H 3465   7.638   8.917   9.737  1.0970  0.0034 -0.5866
   26MOL0     H 3466   7.687   8.629   9.635 -1.3365  0.6996  0.1665
   26MOL0     H 3467   7.803   8.698   9.736 -0.5068 -0.5828 -0.5787
   26MOL0     H 3468   7.698   8.798   9.469 -2.7739 -1.6801  2.4555
   26MOL0     H 3469   7.856   8.742   9.492 -0.0042 -0.8816  1.1101
   26MOL0     H 3470   7.867   8.979   9.827 -2.7157 -1.1992 -3.4405
   26MOL0     H 3471   8.089   8.942   9.944 -1.4451 -3.7846  0.5820
   26MOL0     H 3472   8.522   9.133   9.985  1.7521 -0.3750 -2.6683
   26MOL0     H 3473   8.753   9.105  10.064 -0.8749  1.2022 -2.5949
   26MOL0     H 3474   8.939   9.012  10.020 -0.1893 -0.9733 -1.5173
   26MOL0     H 3475   9.004   8.999  10.187  0.5840  0.3578 -1.1889
   26MOL0     H 3476   9.056   8.756  10.113  1.5888 -1.4910 -1.4269
   26MOL0     H 3477   9.062   8.809   9.955  0.9507 -4.9402  0.6601
   26MOL0     H 3478   9.270   8.889   9.975  1.6365 -2.1418  2.1313
   26MOL0     H 3479   9.203   9.007  10.087  0.5290  0.8070 -3.0427
   26MOL0     H 3480   9.301   8.722  10.157 -1.6227 -0.3243  1.9281
   26MOL0     H 3481   9.261   8.834  10.279  2.9251 -1.3315  2.2068
   26MOL0     H 3482   9.453   8.981  10.220  2.6291 -0.5655 -0.6152
   26MOL0     H 3483   9.496   8.882  10.077  0.1889 -2.4014 -0.4427
   26MOL0     H 3484   9.510   8.806  10.366 -0.7750  1.5096  0.8206
   26MOL0     H 3485   9.514   8.684  10.233  4.4614  0.0842 -0.1828
   26MOL0     H 3486   9.722   8.912  10.277 -0.7348  1.6228 -3.2494
   26MOL0     H 3487   9.704   8.793  10.135 -1.5219 -2.8108  0.1989
   26MOL0     H 3488   9.712   8.673  10.414 -0.0206  0.9274 -0.4552
   26MOL0     H 3489   9.785   8.632  10.256 -1.7188  1.0194 -1.4762
   26MOL0     H 3490   8.674   8.685  10.118 -0.6914  1.3048  4.7125
   26MOL0     H 3491   8.452   8.719  10.035  0.4148 -1.1478  0.6578
   26MOL0     H 3492   8.274   8.895   9.568  1.3320  3.3128  0.5473
   26MOL0     H 3493   8.067   8.904   9.451  0.6904  0.5329  0.3754
   26MOL0     H 3494   6.400   9.246  10.118 -3.0562  1.9180  1.1160
   26MOL0     H 3495   6.226   9.095  10.207 -2.4898  1.9140  0.1736
   26MOL0     H 3496   5.878   8.847  10.188 -0.2631 -0.6018 -1.3850
   26MOL0     H 3497   5.720   8.712  10.324 -0.3831 -1.0073 -0.5944
   26MOL0     H 3498   5.733   8.356  10.584  0.2187 -0.7315  0.2799
   26MOL0     H 3499   5.852   8.303  10.489  0.1260 -1.5540 -0.4079
   26MOL0     H 3500   5.724   8.218  10.311 -0.1587  0.8542 -0.1200
   26MOL0     H 3501   5.592   8.323  10.344  0.6227 -0.7530 -2.7199
   26MOL0     H 3502   5.535   8.167  10.543  2.2257  0.9799  3.1510
   26MOL0     H 3503   5.692   8.077  10.509 -2.1993 -4.8036 -1.5764
   26MOL0     H 3504   5.463   8.001  10.423  0.9631 -1.2374  0.0598
   26MOL0     H 3505   5.489   8.117  10.285 -0.6708 -1.1115 -1.2967
   26MOL0     H 3506   5.757   7.798  10.206  0.6679  1.4343  0.4140
   26MOL0     H 3507   6.012   8.414  10.380 -0.4601  0.8078  0.6941
   26MOL0     H 3508   6.286   8.520  10.270 -1.3094  1.2840  1.5881
   26MOL0     H 3509   6.185   8.383  10.251  1.4909 -0.5965 -1.4787
   26MOL0     H 3510   6.222   8.492  10.107  0.5418  1.2917 -0.0300
   27MOL0     O 3511   9.384   5.530   2.676 -0.1781  0.1990 -0.5774
   27MOL0     C 3512   9.393   5.581   2.566  0.4288  0.4442  1.0324
   27MOL0     O 3513   9.503   5.585   2.492 -0.1145 -0.1402 -0.9813
   27MOL0     C 3514   9.618   5.521   2.537  0.9137 -0.7334 -0.1704
   27MOL0     C 3515   9.735   5.600   2.526 -0.1388 -0.0134 -0.4444
   27MOL0     C 3516   9.852   5.548   2.583 -0.6996  0.6572 -0.0754
   27MOL0     C 3517   9.853   5.411   2.623 -0.7481 -0.5849  0.0958
   27MOL0     O 3518   9.969   5.364   2.672 -0.5199 -0.3280 -0.1398
   27MOL0     C 3519   9.977   5.230   2.733  0.0510 -0.1124 -0.3492
   27MOL0     C 3520  10.129   5.216   2.782 -0.5025 -0.1973 -0.1038
   27MOL0     C 3521  10.133   5.074   2.836 -0.5368 -0.2075 -0.0658
   27MOL0     C 3522  10.264   5.049   2.916  0.5467  1.0399 -0.1493
   27MOL0     C 3523  10.278   4.898   2.939  0.8110 -0.1198  1.0197
   27MOL0     C 3524  10.193   4.846   3.062  0.1115 -0.4512  0.1225
   27MOL0     C 3525  10.254   4.873   3.209 -0.6573 -0.5179 -0.0419
   27MOL0     C 3526  10.381   4.783   3.232  0.6882  0.3102 -0.3051
   27MOL0     N 3527  10.400   4.765   3.377 -0.6846  0.2734 -0.2256
   27MOL0     C 3528  10.476   4.841   3.462 -0.3300 -0.1768  0.1913
   27MOL0     C 3529  10.484   4.771   3.578  0.5260 -0.5654 -0.5696
   27MOL0     C 3530  10.570   4.790   3.704  0.1592 -0.1480  1.0249
   27MOL0     C 3531  10.703   4.716   3.685 -0.5333  0.9086 -0.3685
   27MOL0     C 3532  10.824   4.794   3.744  0.2231 -0.0919 -0.5766
   27MOL0     C 3533  10.889   4.895   3.657 -0.3353 -0.5185  0.6408
   27MOL0     O 3534  10.972   4.831   3.558  0.9278 -0.3607  0.3004
   27MOL0     C 3535  11.096   4.876   3.552  0.6743  0.4251  0.2092
   27MOL0     C 3536  11.187   4.783   3.618 -0.3498 -0.9446  0.4424
   27MOL0     C 3537  11.324   4.813   3.611  0.6070 -0.0892  0.3857
   27MOL0     C 3538  11.369   4.936   3.553  0.5555  0.3478  0.6513
   27MOL0     C 3539  11.506   4.963   3.554 -0.7072 -0.0908  0.3984
   27MOL0     O 3540  11.593   4.860   3.564 -0.1603  0.6758  0.4950
   27MOL0     C 3541  11.731   4.882   3.566  0.0406  0.9887 -0.0626
   27MOL0     C 3542  11.795   4.843   3.677  0.8064  0.2720 -0.2926
   27MOL0     C 3543  11.931   4.846   3.688 -0.1527  0.2326  0.2175
   27MOL0     C 3544  12.002   4.915   3.584 -0.1063  0.3027  0.5479
   27MOL0     O 3545  12.140   4.940   3.591 -0.0824  0.2518  0.0326
   27MOL0     C 3546  12.211   4.886   3.704  0.8416  0.6872 -0.5449
   27MOL0     C 3547  12.353   4.928   3.691 -0.0075 -0.4688 -0.1095
   27MOL0     C 3548  12.443   4.841   3.775 -0.6849  0.7750 -0.2195
   27MOL0     C 3549  12.585   4.886   3.787  0.0820  0.3932 -0.7383
   27MOL0     C 3550  12.668   4.791   3.875  0.1085  0.6042 -0.2518
   27MOL0     C 3551  12.811   4.846   3.898  0.0524  0.5167 -0.0357
   27MOL0     C 3552  12.896   4.735   3.975 -0.2698  0.1037  0.1278
   27MOL0     C 3553  13.042   4.773   3.974  0.9381 -0.1186 -0.7745
   27MOL0    Cl 3554  13.061   4.915   4.072 -0.0975  0.3994 -0.0396
   27MOL0     C 3555  11.934   4.962   3.464 -0.9648  0.4372  0.2420
   27MOL0     C 3556  11.801   4.938   3.460  0.4201  0.1718  0.2646
   27MOL0     O 3557  11.538   5.082   3.553 -0.3558  0.1692 -0.1450
   27MOL0     C 3558  11.275   5.033   3.503  0.5620 -0.2174 -0.0292
   27MOL0     C 3559  11.135   4.995   3.496  0.2570  0.5777  0.0727
   27MOL0     N 3560  10.401   4.665   3.567 -0.7656 -0.2188 -0.1921
   27MOL0     N 3561  10.362   4.654   3.445  0.1062  0.8186 -0.3821
   27MOL0     C 3562   9.741   5.332   2.613 -0.5661  0.3594 -0.0177
   27MOL0     C 3563   9.618   5.385   2.578  0.0093 -0.9464  1.9842
   27MOL0     C 3564   9.264   5.620   2.501  0.0389  0.0032 -0.6960
   27MOL0     C 3565   9.275   5.636   2.364  0.7375  0.6309 -0.2135
   27MOL0     C 3566   9.167   5.687   2.293  0.3341  0.3240 -0.7009
   27MOL0     C 3567   9.037   5.717   2.354  0.1791  0.6924  0.6492
   27MOL0     O 3568   8.944   5.770   2.273  0.4857 -0.6256  0.7772
   27MOL0     C 3569   8.809   5.779   2.324 -0.3755  0.1360 -0.1376
   27MOL0     C 3570   8.794   5.907   2.405 -0.0050  0.5521  0.1653
   27MOL0     C 3571   8.680   5.905   2.505  0.4291 -0.4359  0.1265
   27MOL0     C 3572   8.702   5.833   2.636  0.0535 -0.3226 -0.3202
   27MOL0     C 3573   8.815   5.894   2.701  0.0822  0.0630 -0.3441
   27MOL0     C 3574   8.898   5.945   2.771  0.5332  0.1323 -0.1871
   27MOL0     C 3575   9.023   5.683   2.489 -0.4591  0.0839 -1.0450
   27MOL0     C 3576   9.136   5.638   2.561 -0.5085 -0.1002  0.5319
   27MOL0     C 3577   9.108   5.624   2.715  0.1020  0.2633  1.3037
   27MOL0     H 3578   9.732   5.702   2.491 -1.2343 -0.1977 -0.9119
   27MOL0     H 3579   9.950   5.595   2.582 -0.1051 -0.4197  1.7061
   27MOL0     H 3580   9.913   5.225   2.821 -2.5391  0.7727 -2.0676
   27MOL0     H 3581   9.948   5.151   2.664  0.4148 -1.1018  0.6072
   27MOL0     H 3582  10.137   5.292   2.861 -1.5002 -1.5301  1.3393
   27MOL0     H 3583  10.200   5.230   2.700 -0.1888  0.9968  0.3493
   27MOL0     H 3584  10.137   5.012   2.746 -1.6459 -0.0073 -0.2613
   27MOL0     H 3585  10.047   5.039   2.893 -0.5164 -0.6683 -0.3162
   27MOL0     H 3586  10.347   5.086   2.855 -0.6164  0.0449 -2.4747
   27MOL0     H 3587  10.267   5.106   3.009  0.8209  1.2958 -0.3151
   27MOL0     H 3588  10.249   4.836   2.853  0.8098  0.0737  0.8816
   27MOL0     H 3589  10.383   4.889   2.966  1.1425 -0.9408 -0.4353
   27MOL0     H 3590  10.096   4.896   3.063  0.4470  0.2973 -1.2209
   27MOL0     H 3591  10.183   4.737   3.058 -1.3374 -0.2952 -1.5288
   27MOL0     H 3592  10.176   4.833   3.274  0.1953 -0.0777  1.3067
   27MOL0     H 3593  10.260   4.980   3.229 -2.5559 -0.6289  1.3270
   27MOL0     H 3594  10.372   4.682   3.191 -0.8343 -0.2020  1.1943
   27MOL0     H 3595  10.467   4.838   3.191  1.5671  0.1599  1.2594
   27MOL0     H 3596  10.532   4.932   3.441 -2.5677  1.8353  2.3602
   27MOL0     H 3597  10.566   4.899   3.711 -1.0441  0.2202 -2.7074
   27MOL0     H 3598  10.520   4.756   3.795  1.6219  0.8724  2.2336
   27MOL0     H 3599  10.683   4.617   3.728  4.5689  0.1277  0.9048
   27MOL0     H 3600  10.723   4.697   3.579  1.6925 -2.3718  0.4647
   27MOL0     H 3601  10.905   4.727   3.776  1.5066  0.0080 -3.3673
   27MOL0     H 3602  10.785   4.848   3.831  0.1348 -0.5381 -0.3324
   27MOL0     H 3603  10.953   4.959   3.719 -1.6528  0.5959  0.9163
   27MOL0     H 3604  10.817   4.957   3.602  1.0901 -0.0424 -0.7602
   27MOL0     H 3605  11.167   4.691   3.671 -0.4260  0.4353  2.9822
   27MOL0     H 3606  11.395   4.748   3.660 -0.4481 -0.8715  0.9249
   27MOL0     H 3607  11.725   4.791   3.742 -1.2224  1.8549 -1.0801
   27MOL0     H 3608  11.977   4.799   3.774 -3.2826 -1.6749  0.9712
   27MOL0     H 3609  12.163   4.919   3.797  0.2524 -0.3010 -0.4864
   27MOL0     H 3610  12.210   4.777   3.704 -0.0569  0.6849 -0.6161
   27MOL0     H 3611  12.389   4.915   3.588  2.0107  3.2056 -0.0483
   27MOL0     H 3612  12.368   5.035   3.709 -3.4210  0.5164 -2.1917
   27MOL0     H 3613  12.394   4.829   3.872  2.3723 -0.5673  1.2838
   27MOL0     H 3614  12.438   4.739   3.736 -0.8378  0.4573  0.6281
   27MOL0     H 3615  12.583   4.988   3.829  0.4312  1.1576 -2.5070
   27MOL0     H 3616  12.634   4.887   3.690 -0.8231 -1.3287 -1.2505
   27MOL0     H 3617  12.676   4.699   3.817  0.0385 -0.4857  1.4106
   27MOL0     H 3618  12.625   4.780   3.975  1.1118  1.2812  0.2781
   27MOL0     H 3619  12.858   4.866   3.801 -2.1945  0.6247 -1.1695
   27MOL0     H 3620  12.819   4.939   3.954 -2.7060  1.2221 -0.6621
   27MOL0     H 3621  12.879   4.636   3.932  2.8614  0.0983 -1.3812
   27MOL0     H 3622  12.865   4.719   4.079  1.9997 -2.7451  0.4544
   27MOL0     H 3623  13.102   4.687   4.005 -0.3542 -1.4165 -1.7275
   27MOL0     H 3624  13.067   4.809   3.873 -0.4500  2.4206 -0.2882
   27MOL0     H 3625  12.000   5.013   3.395 -0.5614  0.6614  0.7895
   27MOL0     H 3626  11.742   4.968   3.374 -1.9405 -3.4875  0.4003
   27MOL0     H 3627  11.321   5.127   3.475 -2.3179  1.1695 -0.4297
   27MOL0     H 3628  11.055   5.062   3.466 -1.3113 -0.1272  2.4357
   27MOL0     H 3629   9.750   5.227   2.638  0.1289  0.0652 -1.4251
   27MOL0     H 3630   9.520   5.342   2.560  0.8155 -1.5368 -2.1387
   27MOL0     H 3631   9.360   5.601   2.305  0.8143  0.6260 -0.1009
   27MOL0     H 3632   9.174   5.723   2.190 -1.4314 -1.3104 -1.4615
   27MOL0     H 3633   8.784   5.697   2.392  0.2767  0.0540  0.0067
   27MOL0     H 3634   8.735   5.778   2.244  1.7185 -1.3673 -2.1780
   27MOL0     H 3635   8.779   5.988   2.333  0.7639  1.6377  1.1993
   27MOL0     H 3636   8.890   5.932   2.450 -0.3581 -0.8001  1.7607
   27MOL0     H 3637   8.590   5.860   2.463  0.1105 -0.9105  1.2914
   27MOL0     H 3638   8.663   6.011   2.524  1.4829 -0.2751  0.2623
   27MOL0     H 3639   8.617   5.864   2.698  0.3356  1.8492 -0.9292
   27MOL0     H 3640   8.701   5.725   2.620 -0.5757 -0.6060  1.4053
   27MOL0     H 3641   8.976   5.980   2.836  0.5272 -0.0581 -0.0767
   27MOL0     H 3642   8.930   5.703   2.541 -0.0667  0.4845 -0.4787
   27MOL0     H 3643   9.016   5.665   2.755 -0.0824 -0.7081  1.9162
   27MOL0     H 3644   9.111   5.517   2.739 -0.0625  0.3064  1.5072
   27MOL0     H 3645   9.199   5.664   2.761  2.2733 -1.6772 -0.9283
   28MOL0     O 3646   7.278  10.870   9.185 -0.7324 -0.6608 -0.4407
   28MOL0     C 3647   7.241  10.840   9.299  0.1840  0.8878 -0.2716
   28MOL0     O 3648   7.326  10.795   9.391  0.2962  0.5874  0.2752
   28MOL0     C 3649   7.463  10.769   9.357  0.3611  0.1991 -0.3600
   28MOL0     C 3650   7.493  10.640   9.328 -0.3522  1.0953 -0.4119
   28MOL0     C 3651   7.622  10.598   9.322  1.6812  0.3072 -0.6523
   28MOL0     C 3652   7.728  10.689   9.306  0.8587 -0.6887 -0.5856
   28MOL0     O 3653   7.851  10.640   9.288 -0.4948  0.1449  0.5184
   28MOL0     C 3654   7.925  10.697   9.180 -0.4322 -0.1186 -0.8371
   28MOL0     C 3655   8.069  10.646   9.191  0.5215  0.6806  0.3851
   28MOL0     C 3656   8.086  10.524   9.095 -0.9013 -0.5118 -0.5370
   28MOL0     C 3657   8.231  10.460   9.115 -0.6948 -0.3603  0.0300
   28MOL0     C 3658   8.344  10.556   9.064 -1.0189  0.5524  0.0830
   28MOL0     C 3659   8.483  10.494   9.102 -0.1747 -0.1598 -0.1287
   28MOL0     C 3660   8.618  10.553   9.051  0.4103  0.5466  0.1001
   28MOL0     C 3661   8.629  10.699   9.100  0.4936  0.1919 -0.0764
   28MOL0     N 3662   8.776  10.728   9.122 -0.3784 -0.2343 -0.4338
   28MOL0     C 3663   8.861  10.660   9.208 -0.4373 -0.3675  0.0226
   28MOL0     C 3664   8.983  10.721   9.195 -0.4770 -0.7201  0.7794
   28MOL0     C 3665   9.107  10.674   9.257  0.7539  0.1186 -0.7373
   28MOL0     C 3666   9.158  10.548   9.186 -0.3687  0.6800 -0.0747
   28MOL0     C 3667   9.297  10.518   9.242 -0.7077 -0.3211 -0.6801
   28MOL0     C 3668   9.366  10.410   9.176 -0.8547 -0.1791  0.3666
   28MOL0     O 3669   9.495  10.367   9.218  0.8671 -0.1239  0.2651
   28MOL0     C 3670   9.600  10.443   9.177 -0.3112  0.1745  0.4162
   28MOL0     C 3671   9.709  10.425   9.256 -0.2118 -0.5743 -0.5235
   28MOL0     C 3672   9.832  10.486   9.234 -0.4260  0.3559  0.3666
   28MOL0     C 3673   9.843  10.573   9.130  0.1671 -0.8099 -0.7927
   28MOL0     C 3674   9.969  10.642   9.101  0.1613  0.1235  0.2741
   28MOL0     O 3675   9.972  10.750   9.014 -0.3823  0.4321 -0.0722
   28MOL0     C 3676  10.078  10.832   9.001 -0.9321  0.2899  0.0606
   28MOL0     C 3677  10.215  10.799   9.005 -0.1473  0.1671 -0.4750
   28MOL0     C 3678  10.311  10.895   9.007 -0.6939 -0.5722  0.5432
   28MOL0     C 3679  10.280  11.031   8.992  0.4478  0.0590 -0.1752
   28MOL0     O 3680  10.374  11.134   8.989  0.1888 -0.4181 -0.2027
   28MOL0     C 3681  10.336  11.247   9.070 -0.6284 -0.3506 -0.6013
   28MOL0     C 3682  10.455  11.334   9.066 -0.0448  0.5390 -0.1832
   28MOL0     C 3683  10.445  11.454   9.162  0.2366  0.5839  0.4133
   28MOL0     C 3684  10.577  11.536   9.149  0.1323 -0.7762 -0.4731
   28MOL0     C 3685  10.560  11.673   9.217  0.0452 -0.5214 -0.3292
   28MOL0     C 3686  10.670  11.771   9.206  0.5826 -0.4921 -0.1411
   28MOL0     C 3687  10.693  11.816   9.064 -0.5871 -0.0374  0.3396
   28MOL0     C 3688  10.773  11.952   9.053  0.0581  0.9789  0.3376
   28MOL0    Cl 3689  10.820  11.957   8.884 -0.1456  0.0566  0.2826
   28MOL0     C 3690  10.142  11.062   8.982 -0.5194 -0.1220 -0.3097
   28MOL0     C 3691  10.046  10.966   8.988  0.3851  0.0215 -0.3451
   28MOL0     O 3692  10.065  10.605   9.169  0.3911  0.2200 -0.3554
   28MOL0     C 3693   9.729  10.600   9.045  0.1249  0.2611  0.3014
   28MOL0     C 3694   9.608  10.532   9.067  0.1795  0.2098 -0.3919
   28MOL0     N 3695   8.963  10.841   9.122 -0.2070 -1.1647  0.1689
   28MOL0     N 3696   8.842  10.844   9.087  0.5871 -0.2911  0.0451
   28MOL0     C 3697   7.704  10.832   9.337  0.7897  0.0453  0.2366
   28MOL0     C 3698   7.569  10.864   9.364 -0.6663 -0.6493 -0.3851
   28MOL0     C 3699   7.093  10.835   9.329 -0.1382 -0.6642  0.1737
   28MOL0     C 3700   7.000  10.880   9.228  0.2728 -0.8995 -0.7856
   28MOL0     C 3701   6.862  10.871   9.245  1.5501 -0.3055 -0.0675
   28MOL0     C 3702   6.814  10.810   9.363 -0.6259  0.1801 -0.3641
   28MOL0     O 3703   6.685  10.790   9.390  0.6891  0.2535 -0.3169
   28MOL0     C 3704   6.576  10.763   9.296  0.2418 -1.4172 -0.4335
   28MOL0     C 3705   6.444  10.779   9.369 -0.0316 -0.2027 -1.0313
   28MOL0     C 3706   6.394  10.638   9.397  0.4000 -0.3498  0.3731
   28MOL0     C 3707   6.260  10.639   9.472 -0.0932 -0.2191  0.0268
   28MOL0     C 3708   6.147  10.680   9.380 -0.9434  0.4386 -0.5749
   28MOL0     C 3709   6.056  10.726   9.322 -0.4165 -0.1416 -0.1347
   28MOL0     C 3710   6.904  10.760   9.458  0.4641 -0.4831 -0.2303
   28MOL0     C 3711   7.038  10.780   9.449 -1.0364 -0.2278  0.0529
   28MOL0     C 3712   7.117  10.724   9.568 -0.5599  0.2934 -0.2593
   28MOL0     H 3713   7.414  10.566   9.327 -1.1713  1.9427 -0.6671
   28MOL0     H 3714   7.635  10.490   9.316  0.7897  0.2285 -1.6330
   28MOL0     H 3715   7.876  10.663   9.088  1.4161  1.4880 -2.5243
   28MOL0     H 3716   7.937  10.806   9.185  2.1309 -0.3453 -0.9078
   28MOL0     H 3717   8.089  10.618   9.295 -0.1113 -0.4070  0.2241
   28MOL0     H 3718   8.140  10.722   9.157  1.2830 -0.7444 -1.3755
   28MOL0     H 3719   8.063  10.540   8.990 -0.2573 -1.7454 -0.8871
   28MOL0     H 3720   8.013  10.448   9.123 -3.1296  1.2898 -1.1994
   28MOL0     H 3721   8.233  10.440   9.222 -1.7803 -0.7242 -0.0080
   28MOL0     H 3722   8.223  10.369   9.055 -0.9793  0.6223 -1.4670
   28MOL0     H 3723   8.338  10.565   8.955 -3.2814  0.6594  0.1710
   28MOL0     H 3724   8.336  10.654   9.113  1.6588 -0.4927  2.9746
   28MOL0     H 3725   8.493  10.486   9.211  2.8953  0.7195 -0.2580
   28MOL0     H 3726   8.456  10.395   9.065 -1.0697  0.2861 -0.7097
   28MOL0     H 3727   8.620  10.555   8.941 -0.1139  0.1851  0.0793
   28MOL0     H 3728   8.694  10.487   9.093  0.3800  0.3092 -0.2170
   28MOL0     H 3729   8.585  10.768   9.028 -1.8503 -2.3286 -1.2388
   28MOL0     H 3730   8.583  10.710   9.199  0.6023 -4.2159  0.6674
   28MOL0     H 3731   8.850  10.570   9.268  2.7941  0.9881  3.0027
   28MOL0     H 3732   9.181  10.755   9.258 -0.4244  1.2707  1.3560
   28MOL0     H 3733   9.084  10.642   9.359  1.4432 -1.9729 -1.1905
   28MOL0     H 3734   9.087  10.470   9.215  3.7790 -3.8961 -1.0410
   28MOL0     H 3735   9.162  10.555   9.077  1.2399  0.6221 -0.0362
   28MOL0     H 3736   9.301  10.508   9.350  0.8079  0.6365 -0.6268
   28MOL0     H 3737   9.350  10.608   9.209  1.2900 -0.4092  2.0158
   28MOL0     H 3738   9.363  10.439   9.071 -3.1620  0.9766  0.7039
   28MOL0     H 3739   9.312  10.315   9.187 -1.1337 -0.1935 -1.0032
   28MOL0     H 3740   9.708  10.365   9.347  2.9266  0.2238  0.1529
   28MOL0     H 3741   9.912  10.465   9.305 -0.1126  0.4328  0.0378
   28MOL0     H 3742  10.241  10.694   9.011  1.8228  0.7020  1.3122
   28MOL0     H 3743  10.412  10.859   9.021 -0.6438  0.2160  2.4904
   28MOL0     H 3744  10.247  11.299   9.035 -1.5104  0.0098  1.9625
   28MOL0     H 3745  10.311  11.212   9.171  2.9705 -0.8316  0.2471
   28MOL0     H 3746  10.546  11.275   9.079  0.9525  1.8130 -1.1622
   28MOL0     H 3747  10.469  11.376   8.966 -0.0199 -0.0039 -0.4134
   28MOL0     H 3748  10.355  11.514   9.145 -1.7783 -2.2039  0.5568
   28MOL0     H 3749  10.439  11.424   9.267 -0.6657  1.9290  0.7672
   28MOL0     H 3750  10.610  11.546   9.045 -2.7843 -0.6459 -1.4714
   28MOL0     H 3751  10.655  11.479   9.200 -0.8416 -2.3727 -0.7096
   28MOL0     H 3752  10.550  11.652   9.324 -1.5394 -1.7881 -0.6923
   28MOL0     H 3753  10.459  11.704   9.192 -0.5163  0.7929  3.0194
   28MOL0     H 3754  10.652  11.862   9.262 -1.1623 -1.6936  1.3716
   28MOL0     H 3755  10.758  11.723   9.251  0.6919  1.5301  1.9471
   28MOL0     H 3756  10.598  11.822   9.011 -0.5608  0.2572  0.3256
   28MOL0     H 3757  10.751  11.740   9.012  0.0453  0.8376 -0.2596
   28MOL0     H 3758  10.709  12.037   9.079 -3.6273 -2.2369  3.1523
   28MOL0     H 3759  10.854  11.936   9.125 -1.9057  1.2221  2.7354
   28MOL0     H 3760  10.103  11.163   8.975  0.1756  0.5475  3.4433
   28MOL0     H 3761   9.944  11.001   8.981  0.5256  0.4810 -0.1568
   28MOL0     H 3762   9.725  10.664   8.958 -2.8114 -0.9407 -0.5705
   28MOL0     H 3763   9.525  10.566   9.007  0.7795  0.0595 -1.3236
   28MOL0     H 3764   7.784  10.905   9.334  0.3975  0.5197  1.0677
   28MOL0     H 3765   7.554  10.971   9.376  1.5766 -0.3724  0.4751
   28MOL0     H 3766   7.044  10.922   9.138  0.1229  1.1299  0.0240
   28MOL0     H 3767   6.782  10.895   9.174 -0.2536 -1.8698  1.3380
   28MOL0     H 3768   6.590  10.664   9.251  0.6261 -0.9679 -1.3279
   28MOL0     H 3769   6.576  10.838   9.216 -1.2937  0.1416  0.9488
   28MOL0     H 3770   6.377  10.828   9.298 -0.7601 -1.0121 -0.9085
   28MOL0     H 3771   6.454  10.843   9.458 -2.5810 -1.6780  0.4399
   28MOL0     H 3772   6.462  10.575   9.455 -1.2320 -1.6411  0.9890
   28MOL0     H 3773   6.374  10.585   9.304 -0.0735  1.3408 -0.5315
   28MOL0     H 3774   6.236  10.538   9.507 -2.4675 -0.0702 -0.9152
   28MOL0     H 3775   6.243  10.701   9.560 -1.1791  1.0432 -1.0250
   28MOL0     H 3776   5.965  10.758   9.276 -3.0697 -3.8319  1.9361
   28MOL0     H 3777   6.865  10.691   9.533 -4.1743  0.7984 -1.1868
   28MOL0     H 3778   7.154  10.622   9.553  2.6639  0.9509  2.2045
   28MOL0     H 3779   7.205  10.786   9.581 -1.9646  2.1512  0.9262
   28MOL0     H 3780   7.061  10.721   9.662  0.5597  0.3968  0.4207
   29MOL0     O 3781   3.970   2.082   6.511  0.3814  0.2297  0.6791
   29MOL0     C 3782   3.899   2.059   6.610 -0.1854 -0.2896  0.4051
   29MOL0     O 3783   3.944   2.013   6.730 -0.0925 -0.1457  0.3936
   29MOL0     C 3784   4.056   1.935   6.725 -0.0205  0.3626 -0.2499
   29MOL0     C 3785   4.193   1.979   6.741  0.1042 -0.1228 -0.2309
   29MOL0     C 3786   4.301   1.891   6.732 -0.8723  1.3477 -0.1981
   29MOL0     C 3787   4.279   1.749   6.693  0.3089 -0.5513 -0.3522
   29MOL0     O 3788   4.391   1.664   6.698  0.3739  0.6531  0.4144
   29MOL0     C 3789   4.383   1.535   6.620 -0.0023  0.6323 -0.2985
   29MOL0     C 3790   4.519   1.507   6.549  1.1843  0.2789 -0.1616
   29MOL0     C 3791   4.622   1.486   6.652  0.5875  0.0867  0.1145
   29MOL0     C 3792   4.760   1.489   6.581 -1.1071  0.5124 -0.1613
   29MOL0     C 3793   4.872   1.410   6.653  0.6594  0.0803  0.4175
   29MOL0     C 3794   4.907   1.466   6.790  0.5395 -0.8007  0.0537
   29MOL0     C 3795   4.929   1.623   6.792 -0.4266 -0.5641  0.0947
   29MOL0     C 3796   5.052   1.665   6.707  0.4516 -1.1384 -0.0687
   29MOL0     N 3797   5.174   1.607   6.749 -0.0384  0.2130  0.0911
   29MOL0     C 3798   5.240   1.648   6.861  0.5960 -0.1849 -0.3189
   29MOL0     C 3799   5.338   1.566   6.873 -0.9764 -0.2142  0.4758
   29MOL0     C 3800   5.438   1.564   6.985  0.6141  0.1147  0.7028
   29MOL0     C 3801   5.537   1.684   6.982  0.5451 -0.2061 -0.1435
   29MOL0     C 3802   5.478   1.814   7.047 -0.7447  0.2141  0.2858
   29MOL0     C 3803   5.586   1.919   7.077  1.0914 -0.9641  0.0396
   29MOL0     O 3804   5.657   1.946   6.955  0.7597  0.0636 -0.1751
   29MOL0     C 3805   5.794   1.942   6.951 -0.7945 -0.5498 -0.8767
   29MOL0     C 3806   5.842   1.986   6.828 -0.4862  0.7163  0.2962
   29MOL0     C 3807   5.981   1.985   6.812  0.5801  0.0867 -0.0507
   29MOL0     C 3808   6.070   1.957   6.915  0.0187 -0.1707 -0.6584
   29MOL0     C 3809   6.213   1.949   6.884 -0.5741 -0.7029  0.3380
   29MOL0     O 3810   6.250   1.943   6.750 -0.4794 -0.2180 -0.1366
   29MOL0     C 3811   6.382   1.962   6.717 -0.2556  0.4321 -0.0832
   29MOL0     C 3812   6.424   1.883   6.617  0.4613 -0.1930  0.7161
   29MOL0     C 3813   6.556   1.857   6.587  0.0504  0.0271  0.2152
   29MOL0     C 3814   6.656   1.925   6.658 -0.1490 -1.5798  0.2690
   29MOL0     O 3815   6.791   1.913   6.628 -0.4071  0.7152 -0.1651
   29MOL0     C 3816   6.846   1.820   6.536  0.0077 -0.0308  0.0958
   29MOL0     C 3817   6.997   1.810   6.548  0.5250  0.2050 -0.9835
   29MOL0     C 3818   7.037   1.692   6.458 -0.5210 -0.4070  0.1229
   29MOL0     C 3819   7.188   1.670   6.442  0.6197  0.7588  0.5605
   29MOL0     C 3820   7.214   1.523   6.383  0.6548  0.1663  0.3022
   29MOL0     C 3821   7.370   1.502   6.348  0.5922  0.0433 -0.1464
   29MOL0     C 3822   7.400   1.357   6.311 -0.6888 -0.0342  0.6162
   29MOL0     C 3823   7.545   1.330   6.266 -0.5105 -0.4436 -1.2601
   29MOL0    Cl 3824   7.659   1.402   6.387 -0.1108 -0.0875  0.2371
   29MOL0     C 3825   6.619   2.014   6.765 -0.7536  0.6457  0.1059
   29MOL0     C 3826   6.480   2.027   6.791  0.8656  0.0772  0.7114
   29MOL0     O 3827   6.292   1.945   6.981 -0.4504 -0.0924  0.1407
   29MOL0     C 3828   6.025   1.948   7.048  0.7848  0.0634  0.7331
   29MOL0     C 3829   5.890   1.933   7.060  0.4477 -0.1163 -0.3127
   29MOL0     N 3830   5.342   1.478   6.770  0.2429  0.4361  0.0186
   29MOL0     N 3831   5.229   1.489   6.695 -0.7162  0.3303 -0.3324
   29MOL0     C 3832   4.145   1.707   6.685  0.6786  0.1712  0.1795
   29MOL0     C 3833   4.043   1.798   6.708 -0.0105 -0.6109 -0.4822
   29MOL0     C 3834   3.759   2.123   6.607 -0.4271  0.8947  0.1293
   29MOL0     C 3835   3.701   2.168   6.730 -1.0134 -1.1327  0.4338
   29MOL0     C 3836   3.576   2.236   6.729 -0.4104  0.0338  0.5842
   29MOL0     C 3837   3.506   2.234   6.609 -0.2382  0.9537  0.2412
   29MOL0     O 3838   3.387   2.300   6.600 -0.3566 -0.5604 -0.1323
   29MOL0     C 3839   3.317   2.336   6.719  0.7359 -0.2852  0.1516
   29MOL0     C 3840   3.174   2.382   6.690  0.3776  0.5130 -0.2553
   29MOL0     C 3841   3.110   2.430   6.816 -0.3930  0.0332 -0.2187
   29MOL0     C 3842   2.971   2.493   6.770  0.0815 -0.2415 -0.1343
   29MOL0     C 3843   2.873   2.514   6.888  0.1956 -0.5899 -0.1824
   29MOL0     C 3844   2.791   2.535   6.977 -1.1699  0.0347  1.2029
   29MOL0     C 3845   3.559   2.176   6.491 -0.3919 -0.3510 -0.0671
   29MOL0     C 3846   3.689   2.124   6.484  0.0281  0.8733 -0.8930
   29MOL0     C 3847   3.719   2.037   6.356 -0.6151 -0.2165 -0.3042
   29MOL0     H 3848   4.208   2.083   6.769 -2.1836  0.5679 -1.3412
   29MOL0     H 3849   4.400   1.928   6.752 -0.9866  0.2936  2.8717
   29MOL0     H 3850   4.362   1.454   6.691 -1.1018  1.6147  0.5336
   29MOL0     H 3851   4.307   1.544   6.542 -1.2215  5.0532  1.1086
   29MOL0     H 3852   4.544   1.594   6.487  1.9499 -0.5105 -0.9851
   29MOL0     H 3853   4.525   1.414   6.492  2.8884 -1.8826  3.2417
   29MOL0     H 3854   4.607   1.394   6.709  1.4989 -0.9342 -1.2146
   29MOL0     H 3855   4.622   1.575   6.714 -0.2513  1.9278 -2.3702
   29MOL0     H 3856   4.753   1.434   6.487  2.0394  1.3121 -0.9858
   29MOL0     H 3857   4.793   1.589   6.552  1.8922 -0.4864 -0.5092
   29MOL0     H 3858   4.835   1.307   6.662 -0.1475  0.0048 -2.6278
   29MOL0     H 3859   4.958   1.417   6.585 -1.2944  1.6791 -2.0824
   29MOL0     H 3860   4.835   1.439   6.868  0.0402 -0.1066 -0.1648
   29MOL0     H 3861   5.001   1.420   6.822  1.4086  1.3413  0.7407
   29MOL0     H 3862   4.959   1.654   6.893 -1.6414 -2.2131  1.0123
   29MOL0     H 3863   4.836   1.678   6.776 -0.2514 -0.8347 -2.1885
   29MOL0     H 3864   5.031   1.644   6.602  2.9032 -0.0464 -0.8365
   29MOL0     H 3865   5.074   1.771   6.720  0.9541 -1.0022 -1.7902
   29MOL0     H 3866   5.203   1.731   6.921 -1.4268 -0.1015 -1.5954
   29MOL0     H 3867   5.400   1.564   7.088  0.5567 -1.3028  0.6935
   29MOL0     H 3868   5.502   1.477   6.972 -0.1334 -0.6831  2.1094
   29MOL0     H 3869   5.627   1.642   7.029  0.3887 -0.5764 -0.1697
   29MOL0     H 3870   5.568   1.710   6.880 -0.4135  1.1185 -0.1206
   29MOL0     H 3871   5.425   1.779   7.137 -1.8311 -1.5123 -0.9600
   29MOL0     H 3872   5.408   1.870   6.985 -0.5908  1.6548  1.3497
   29MOL0     H 3873   5.651   1.881   7.157  0.6596 -0.7792  0.4829
   29MOL0     H 3874   5.543   2.013   7.114 -1.7755 -2.6751  1.3666
   29MOL0     H 3875   5.773   2.000   6.745  1.1706  2.6986 -0.8564
   29MOL0     H 3876   6.014   2.013   6.712 -1.0796  0.0242 -0.6617
   29MOL0     H 3877   6.351   1.834   6.553 -1.5512  2.5108  0.7691
   29MOL0     H 3878   6.581   1.781   6.513  2.0654 -0.1747  1.0696
   29MOL0     H 3879   6.800   1.721   6.535  2.2021 -1.1444  1.0962
   29MOL0     H 3880   6.832   1.855   6.434  2.4849 -3.1249 -1.4956
   29MOL0     H 3881   7.041   1.907   6.521 -0.4240  0.4949 -1.5156
   29MOL0     H 3882   7.026   1.782   6.650  0.0564  1.6421 -0.4224
   29MOL0     H 3883   6.981   1.608   6.499 -0.8960 -1.6655 -2.7643
   29MOL0     H 3884   7.002   1.703   6.355  1.4923 -0.4313 -0.6241
   29MOL0     H 3885   7.250   1.684   6.531  1.3376  0.3209  0.1374
   29MOL0     H 3886   7.221   1.738   6.363 -0.9448 -0.7706 -1.5317
   29MOL0     H 3887   7.158   1.507   6.290  1.6662 -1.0189 -0.1397
   29MOL0     H 3888   7.185   1.447   6.456 -0.9573 -1.9704 -2.3585
   29MOL0     H 3889   7.395   1.567   6.264  1.7347 -0.6786 -0.3902
   29MOL0     H 3890   7.435   1.524   6.433 -0.6253 -1.2383  1.1934
   29MOL0     H 3891   7.322   1.320   6.244  0.5197 -2.7939  0.5861
   29MOL0     H 3892   7.403   1.310   6.409 -0.7406 -1.7023 -0.1402
   29MOL0     H 3893   7.566   1.223   6.272 -0.9890 -0.4536  2.8664
   29MOL0     H 3894   7.570   1.369   6.167  0.7834  3.0501  0.2851
   29MOL0     H 3895   6.691   2.062   6.831 -1.0169 -0.5091  1.2746
   29MOL0     H 3896   6.448   2.099   6.866 -0.9003  1.3715 -1.1758
   29MOL0     H 3897   6.083   1.923   7.137 -1.4459 -2.4259  1.6049
   29MOL0     H 3898   5.840   1.916   7.154  0.0996 -1.1541 -0.6587
   29MOL0     H 3899   4.120   1.602   6.670  1.5243 -0.0749  0.4174
   29MOL0     H 3900   3.939   1.767   6.702 -0.2988  0.3608 -0.7912
   29MOL0     H 3901   3.760   2.168   6.821 -1.3435 -1.0838  0.6523
   29MOL0     H 3902   3.536   2.270   6.824 -3.0103 -1.3967  0.1170
   29MOL0     H 3903   3.362   2.421   6.772 -2.4925  1.8841 -0.2912
   29MOL0     H 3904   3.307   2.251   6.788  0.6665  1.5648  2.5686
   29MOL0     H 3905   3.114   2.296   6.658  1.4344 -1.5357  2.8850
   29MOL0     H 3906   3.171   2.467   6.621 -2.5068  1.0579  0.3743
   29MOL0     H 3907   3.183   2.489   6.873 -1.3505 -0.2768  1.3839
   29MOL0     H 3908   3.081   2.348   6.881 -0.7120  0.0299 -0.3615
   29MOL0     H 3909   2.974   2.585   6.712 -1.4149  0.6055  1.0467
   29MOL0     H 3910   2.911   2.423   6.710 -2.8388 -1.0463  3.3007
   29MOL0     H 3911   2.711   2.547   7.047 -1.3848 -1.0054  1.1472
   29MOL0     H 3912   3.503   2.181   6.398  2.8026 -0.3741 -2.1272
   29MOL0     H 3913   3.627   1.987   6.323 -0.2519 -0.8639 -0.3580
   29MOL0     H 3914   3.744   2.108   6.277 -0.9822  0.5546  0.2608
   29MOL0     H 3915   3.793   1.957   6.361  0.9062  1.2097  1.2780
   30MOL0     O 3916   8.882   9.733   3.125 -0.4363  0.1921 -0.8179
   30MOL0     C 3917   8.775   9.703   3.084 -0.3917  0.0420  0.0463
   30MOL0     O 3918   8.726   9.574   3.084 -0.7460  1.0318 -0.2480
   30MOL0     C 3919   8.785   9.469   3.155  0.7675  0.2143 -1.0632
   30MOL0     C 3920   8.864   9.481   3.270 -0.4464  0.2820 -0.2489
   30MOL0     C 3921   8.911   9.366   3.334 -0.7051 -0.0180 -0.4209
   30MOL0     C 3922   8.875   9.236   3.289 -0.5203 -0.7243  0.2698
   30MOL0     O 3923   8.931   9.133   3.361 -0.2156 -0.0895  0.4259
   30MOL0     C 3924   8.973   9.017   3.288 -0.0819 -0.2504  0.7471
   30MOL0     C 3925   9.067   9.051   3.161  0.1790  0.0065 -0.8440
   30MOL0     C 3926   9.193   9.109   3.216  0.1967 -0.3643  0.0851
   30MOL0     C 3927   9.269   9.154   3.090 -0.0163  0.4303 -0.3494
   30MOL0     C 3928   9.412   9.205   3.103 -0.8254  0.0237  0.0268
   30MOL0     C 3929   9.458   9.270   2.975  0.1925 -0.3937  0.8659
   30MOL0     C 3930   9.613   9.250   2.948  0.7984 -0.1760  0.0408
   30MOL0     C 3931   9.703   9.356   3.008  0.4398 -0.1718  0.0335
   30MOL0     N 3932   9.698   9.489   2.936  0.0905  0.2409 -0.4919
   30MOL0     C 3933   9.610   9.591   2.967 -0.7034  0.3947  0.5929
   30MOL0     C 3934   9.663   9.701   2.910 -0.5164  0.2414  0.3661
   30MOL0     C 3935   9.613   9.850   2.921  0.7560 -0.2894  0.4403
   30MOL0     C 3936   9.503   9.883   2.819 -0.5408 -0.4480 -1.0709
   30MOL0     C 3937   9.404   9.999   2.868  0.8141  0.4448 -0.0117
   30MOL0     C 3938   9.473  10.129   2.909 -0.5964  0.9169 -0.2350
   30MOL0     O 3939   9.386  10.232   2.949 -0.7711  0.1229 -0.3982
   30MOL0     C 3940   9.296  10.212   3.049  0.6500 -0.0398 -0.2146
   30MOL0     C 3941   9.190  10.304   3.033 -0.2054  0.1917 -0.3269
   30MOL0     C 3942   9.087  10.310   3.129 -0.3340  0.1669  0.4255
   30MOL0     C 3943   9.085  10.216   3.233  0.2127 -0.0315  0.2376
   30MOL0     C 3944   8.960  10.191   3.309  0.2389  0.8563 -1.1427
   30MOL0     O 3945   8.847  10.275   3.282  0.1777 -0.1173  0.3946
   30MOL0     C 3946   8.729  10.248   3.345  0.4650  0.6358  0.4048
   30MOL0     C 3947   8.714  10.285   3.483  0.1227 -0.1794  0.2632
   30MOL0     C 3948   8.594  10.267   3.551 -0.1126 -0.7888  0.2736
   30MOL0     C 3949   8.487  10.202   3.473 -0.8374 -0.0139 -0.7280
   30MOL0     O 3950   8.358  10.191   3.516 -0.6118  0.2217 -0.4118
   30MOL0     C 3951   8.347  10.134   3.654  0.8082 -0.3480  0.6051
   30MOL0     C 3952   8.202  10.195   3.685  0.5833  1.1098 -0.6975
   30MOL0     C 3953   8.098  10.138   3.592 -0.4556 -0.1242 -0.2650
   30MOL0     C 3954   7.969  10.211   3.635  0.6807 -0.9383 -0.0568
   30MOL0     C 3955   7.852  10.159   3.544 -0.6804  0.6816  0.4208
   30MOL0     C 3956   7.729  10.243   3.554 -0.3116  0.1874 -1.6635
   30MOL0     C 3957   7.665  10.261   3.695 -0.4076  0.2609  0.1349
   30MOL0     C 3958   7.514  10.238   3.708  0.1405 -0.5281 -0.5116
   30MOL0    Cl 3959   7.464  10.056   3.694  0.2053  0.7919  0.0806
   30MOL0     C 3960   8.506  10.155   3.347 -0.0371 -0.9233  0.0147
   30MOL0     C 3961   8.625  10.178   3.277 -0.5351 -1.0406  0.0527
   30MOL0     O 3962   8.955  10.099   3.391  0.2198 -0.6342  0.2033
   30MOL0     C 3963   9.195  10.125   3.251  0.7233 -0.5937  0.2415
   30MOL0     C 3964   9.296  10.120   3.150  1.6110  0.5310  0.8209
   30MOL0     N 3965   9.781   9.664   2.846 -0.4670  0.9763 -0.2903
   30MOL0     N 3966   9.798   9.538   2.868  0.6344  0.1167  0.2260
   30MOL0     C 3967   8.789   9.224   3.176 -1.4064  0.4519 -0.2583
   30MOL0     C 3968   8.748   9.342   3.113 -0.4600  0.2877  0.0259
   30MOL0     C 3969   8.695   9.810   3.013 -0.2245 -0.0333 -0.0943
   30MOL0     C 3970   8.566   9.773   2.971 -0.2226  0.3226 -0.1892
   30MOL0     C 3971   8.477   9.858   2.909 -0.4861  0.0175  0.7906
   30MOL0     C 3972   8.512   9.988   2.889 -1.0058 -0.0554 -0.5763
   30MOL0     O 3973   8.441  10.079   2.821  0.3234  0.0568 -0.2041
   30MOL0     C 3974   8.341  10.133   2.904 -0.0496  0.2628 -0.9304
   30MOL0     C 3975   8.278  10.269   2.852 -0.9569  0.1120 -0.2883
   30MOL0     C 3976   8.226  10.263   2.705  0.0706 -0.1077 -0.1295
   30MOL0     C 3977   8.233  10.399   2.613 -0.8145  1.0365 -0.4614
   30MOL0     C 3978   8.167  10.516   2.675  0.6560 -0.1133 -1.0618
   30MOL0     C 3979   8.118  10.615   2.730 -0.5097 -0.6336  0.9962
   30MOL0     C 3980   8.640  10.026   2.928 -0.1825 -0.6459  0.5173
   30MOL0     C 3981   8.732   9.942   2.996 -0.0081 -0.4153 -0.7492
   30MOL0     C 3982   8.865  10.010   3.034 -0.6484 -0.7424 -0.5817
   30MOL0     H 3983   8.902   9.579   3.296 -0.7609  0.6731 -1.2398
   30MOL0     H 3984   8.977   9.352   3.419 -2.5110 -0.6311  0.9467
   30MOL0     H 3985   9.019   8.951   3.363 -0.9622  1.1148  2.5721
   30MOL0     H 3986   8.885   8.959   3.257  1.4273 -2.8695  0.9934
   30MOL0     H 3987   9.015   9.121   3.095  0.3228  0.3148 -0.6360
   30MOL0     H 3988   9.089   8.956   3.112  0.2980 -2.5410  3.5793
   30MOL0     H 3989   9.253   9.042   3.278  0.6646 -0.5048 -0.5132
   30MOL0     H 3990   9.158   9.195   3.273 -0.5441 -2.8184  3.6483
   30MOL0     H 3991   9.277   9.081   3.009  0.5783  4.1916 -4.0491
   30MOL0     H 3992   9.202   9.233   3.053 -2.4266  0.1545  3.0433
   30MOL0     H 3993   9.418   9.273   3.188 -0.6343 -0.6533  0.5639
   30MOL0     H 3994   9.468   9.112   3.116 -2.3984 -1.4008 -2.3470
   30MOL0     H 3995   9.395   9.231   2.894  0.4597  0.1489  0.3882
   30MOL0     H 3996   9.431   9.375   2.981  1.1865 -0.1387  1.1169
   30MOL0     H 3997   9.643   9.244   2.843  3.6141 -0.7104  0.7861
   30MOL0     H 3998   9.637   9.153   2.993  0.8394 -1.1306 -1.9469
   30MOL0     H 3999   9.675   9.385   3.110  1.4047  4.0114 -0.7015
   30MOL0     H 4000   9.803   9.313   3.022  1.5327  1.7731 -1.2992
   30MOL0     H 4001   9.526   9.582   3.035 -0.5217 -2.9717  0.5568
   30MOL0     H 4002   9.576   9.851   3.024  2.7793  1.3669  1.2256
   30MOL0     H 4003   9.698   9.916   2.904  0.3715 -0.3329 -1.9807
   30MOL0     H 4004   9.544   9.927   2.728 -1.1130 -0.6323 -1.4262
   30MOL0     H 4005   9.451   9.791   2.790 -0.5296 -1.3847  1.5225
   30MOL0     H 4006   9.359   9.953   2.956 -1.4926 -0.5536 -1.6186
   30MOL0     H 4007   9.330  10.006   2.788 -0.6948 -3.5370  0.7910
   30MOL0     H 4008   9.537  10.164   2.828 -1.8899  3.3756 -0.2925
   30MOL0     H 4009   9.536  10.104   2.995 -2.1114 -2.0487  0.1563
   30MOL0     H 4010   9.184  10.374   2.950 -3.1287 -0.2793 -0.6187
   30MOL0     H 4011   9.004  10.380   3.115  0.5909  1.1112 -0.5167
   30MOL0     H 4012   8.804  10.313   3.537 -0.3570  0.1815  0.8855
   30MOL0     H 4013   8.583  10.320   3.645  2.2432 -0.4133  0.3959
   30MOL0     H 4014   8.349  10.025   3.658 -0.1837 -0.4806 -1.2205
   30MOL0     H 4015   8.423  10.170   3.723  0.4995  1.3264  0.1267
   30MOL0     H 4016   8.166  10.161   3.783  2.7306 -3.3830 -1.2022
   30MOL0     H 4017   8.203  10.303   3.673 -1.9394  1.2272 -0.3871
   30MOL0     H 4018   8.118  10.155   3.485  0.1825  1.3167  0.0628
   30MOL0     H 4019   8.082  10.030   3.600 -0.1711 -0.0347  1.8918
   30MOL0     H 4020   7.976  10.318   3.611 -2.4766 -0.7571 -0.5968
   30MOL0     H 4021   7.944  10.210   3.741 -1.5538  2.8650 -0.3427
   30MOL0     H 4022   7.826  10.055   3.565  1.4284 -1.1505 -4.6242
   30MOL0     H 4023   7.897  10.150   3.445 -2.5859 -4.5423 -0.2558
   30MOL0     H 4024   7.744  10.345   3.518 -3.1108  1.2670 -0.0959
   30MOL0     H 4025   7.661  10.192   3.485 -1.2183 -2.1649  0.7366
   30MOL0     H 4026   7.684  10.359   3.738 -0.1468  1.1922 -1.9533
   30MOL0     H 4027   7.719  10.195   3.763 -0.2572 -0.7615 -0.9471
   30MOL0     H 4028   7.472  10.268   3.805  0.3334 -2.7576  0.3341
   30MOL0     H 4029   7.461  10.293   3.630  0.8936 -0.1089 -0.7395
   30MOL0     H 4030   8.419  10.108   3.302 -1.0094  1.4502 -0.7590
   30MOL0     H 4031   8.633  10.137   3.176 -1.9959 -0.0764 -0.4910
   30MOL0     H 4032   9.194  10.058   3.336  0.3625 -0.5833  0.2454
   30MOL0     H 4033   9.374  10.048   3.174  1.1261  0.4570  2.2931
   30MOL0     H 4034   8.764   9.127   3.134  2.4512 -0.2940 -1.2717
   30MOL0     H 4035   8.690   9.342   3.021 -3.0046  3.0605  1.4580
   30MOL0     H 4036   8.521   9.676   2.990 -1.5662  0.9687  0.0728
   30MOL0     H 4037   8.376   9.831   2.880 -1.4872  4.9000 -1.2443
   30MOL0     H 4038   8.364  10.147   3.010 -0.4008 -1.2287 -0.6386
   30MOL0     H 4039   8.259  10.064   2.922 -0.7414  1.5491  1.3597
   30MOL0     H 4040   8.354  10.349   2.855 -0.6411 -0.1085 -1.6863
   30MOL0     H 4041   8.201  10.295   2.925 -0.0945 -1.5273  1.2947
   30MOL0     H 4042   8.122  10.233   2.722 -0.2026 -0.0401 -1.5350
   30MOL0     H 4043   8.271  10.179   2.650 -0.4378  0.1618 -0.9792
   30MOL0     H 4044   8.338  10.428   2.603 -0.5115  0.3448  0.6247
   30MOL0     H 4045   8.205  10.382   2.508 -3.1870  2.4093 -0.1317
   30MOL0     H 4046   8.068  10.695   2.782 -0.7379  0.8239 -1.2995
   30MOL0     H 4047   8.676  10.127   2.908  0.0638 -0.9271 -0.4724
   30MOL0     H 4048   8.855  10.119   3.031 -1.6932 -0.7618  0.9798
   30MOL0     H 4049   8.902   9.970   3.129  1.3955 -2.0253 -1.8450
   30MOL0     H 4050   8.932   9.984   2.952  0.4390 -3.6228  1.0615
   31MOL0     O 4051   9.073   2.349   5.612 -0.0718 -0.4002 -0.2967
   31MOL0     C 4052   8.976   2.379   5.542  0.2664  0.2910  0.3218
   31MOL0     O 4053   8.966   2.498   5.466  0.5201  0.4671 -0.3203
   31MOL0     C 4054   9.066   2.591   5.469 -0.0964 -0.2129 -0.0197
   31MOL0     C 4055   9.199   2.565   5.459 -0.4119 -0.5023  0.4426
   31MOL0     C 4056   9.291   2.667   5.493 -0.8015 -0.4057 -0.2357
   31MOL0     C 4057   9.246   2.801   5.527  0.1830  0.6480 -0.0275
   31MOL0     O 4058   9.339   2.896   5.567 -0.4451  0.4398  0.4327
   31MOL0     C 4059   9.481   2.882   5.531 -0.2467  0.5934 -0.1645
   31MOL0     C 4060   9.559   3.006   5.567  1.0303  0.4122 -0.5581
   31MOL0     C 4061   9.557   3.023   5.721  0.1021 -0.0338  0.4929
   31MOL0     C 4062   9.641   3.148   5.757  0.0797  0.0670  0.4392
   31MOL0     C 4063   9.794   3.137   5.755  0.1978  0.6104  0.1834
   31MOL0     C 4064   9.879   3.262   5.785  0.3256 -0.2007 -1.5861
   31MOL0     C 4065  10.022   3.234   5.826  0.4537  0.4670  0.4345
   31MOL0     C 4066  10.113   3.353   5.816 -0.3046 -0.3279  0.6478
   31MOL0     N 4067  10.253   3.312   5.845  0.0242 -0.5127 -0.5589
   31MOL0     C 4068  10.323   3.313   5.963 -0.2399  0.8280 -0.1112
   31MOL0     C 4069  10.451   3.290   5.927  0.0754  0.5418 -0.2211
   31MOL0     C 4070  10.551   3.322   6.032 -0.8857 -0.0026  0.0406
   31MOL0     C 4071  10.697   3.281   5.998  0.0858 -0.1051 -0.2662
   31MOL0     C 4072  10.782   3.275   6.126  1.1588 -0.7668 -0.3429
   31MOL0     C 4073  10.926   3.246   6.094  0.1667 -0.6083 -0.6575
   31MOL0     O 4074  10.994   3.369   6.057  0.3594 -0.1367  0.0021
   31MOL0     C 4075  11.134   3.370   6.041  0.1519 -0.1521 -0.1625
   31MOL0     C 4076  11.211   3.254   6.012  0.2493  0.5884 -0.4927
   31MOL0     C 4077  11.340   3.271   5.985  1.4028  0.2758 -0.2448
   31MOL0     C 4078  11.397   3.398   5.968  0.5881  1.4377 -0.4361
   31MOL0     C 4079  11.536   3.408   5.935 -0.1140  0.0819 -0.4230
   31MOL0     O 4080  11.611   3.500   6.003 -0.1399 -0.2527  0.5888
   31MOL0     C 4081  11.751   3.488   5.983 -0.3422  0.1169  0.2849
   31MOL0     C 4082  11.827   3.374   5.979 -0.2601  0.1091  0.4715
   31MOL0     C 4083  11.967   3.363   5.979  0.5529 -0.4793  0.3269
   31MOL0     C 4084  12.034   3.481   5.969 -0.3620 -0.3711 -0.1759
   31MOL0     O 4085  12.167   3.505   5.976  0.2613 -0.6800  0.1586
   31MOL0     C 4086  12.253   3.405   6.023 -0.1693  0.5077  0.8913
   31MOL0     C 4087  12.297   3.322   5.907  0.1833  0.0612  0.3902
   31MOL0     C 4088  12.386   3.215   5.961  0.1756  0.4388 -0.5362
   31MOL0     C 4089  12.529   3.259   5.970 -0.8409 -0.0339 -0.6326
   31MOL0     C 4090  12.611   3.131   6.012  0.6795  0.2697  0.8635
   31MOL0     C 4091  12.744   3.157   6.075  0.6816  0.8236  0.3378
   31MOL0     C 4092  12.826   3.028   6.102  0.3636  0.2632 -0.4135
   31MOL0     C 4093  12.982   3.035   6.086  0.2265 -1.1438  0.5243
   31MOL0    Cl 4094  13.049   3.199   6.145 -0.2542  0.0535 -0.5030
   31MOL0     C 4095  11.960   3.597   5.948  0.7373  0.7682  0.5302
   31MOL0     C 4096  11.824   3.599   5.980  1.1687 -0.5284 -0.2953
   31MOL0     O 4097  11.575   3.324   5.854  0.3154 -0.3201 -0.3101
   31MOL0     C 4098  11.316   3.509   5.981 -0.1515 -0.3812  0.8117
   31MOL0     C 4099  11.184   3.498   6.025 -0.4626  0.7256  0.3685
   31MOL0     N 4100  10.453   3.260   5.798 -0.4461 -0.2677  0.2723
   31MOL0     N 4101  10.337   3.278   5.741  0.2095 -0.2612 -0.0961
   31MOL0     C 4102   9.111   2.828   5.530  0.1879 -0.0049 -0.6800
   31MOL0     C 4103   9.020   2.721   5.500 -0.1450  1.3167  0.4528
   31MOL0     C 4104   8.857   2.303   5.561 -0.0245 -0.0352 -0.6967
   31MOL0     C 4105   8.842   2.185   5.492  0.6289  0.5077 -0.2413
   31MOL0     C 4106   8.725   2.113   5.519  1.2392 -0.2882 -0.2861
   31MOL0     C 4107   8.622   2.150   5.605 -0.7516 -0.2527  0.0998
   31MOL0     O 4108   8.521   2.064   5.624  0.9135  0.9551  0.6724
   31MOL0     C 4109   8.384   2.111   5.641  0.7211  0.7495 -0.5419
   31MOL0     C 4110   8.278   1.992   5.616 -0.5092 -1.0769  0.3397
   31MOL0     C 4111   8.266   1.968   5.461 -0.8880 -0.2430  0.5091
   31MOL0     C 4112   8.161   1.863   5.450 -0.3382 -0.2571  1.2137
   31MOL0     C 4113   8.122   1.815   5.317 -0.8469 -0.1658  0.5173
   31MOL0     C 4114   8.086   1.754   5.218  0.1789 -0.6141 -0.3501
   31MOL0     C 4115   8.634   2.268   5.665  0.5581 -1.1746  0.5906
   31MOL0     C 4116   8.752   2.345   5.659 -0.0393 -0.6816  0.0647
   31MOL0     C 4117   8.769   2.475   5.734 -0.2352  1.0475  0.1894
   31MOL0     H 4118   9.241   2.465   5.452  1.3874  0.1559  1.2521
   31MOL0     H 4119   9.393   2.634   5.500 -0.5848  0.4759  1.1403
   31MOL0     H 4120   9.515   2.789   5.577  0.7196  1.7814  1.6043
   31MOL0     H 4121   9.497   2.864   5.424 -1.1290  1.2173 -0.4213
   31MOL0     H 4122   9.502   3.079   5.510 -0.7562  0.7657  1.5341
   31MOL0     H 4123   9.661   2.996   5.529  0.3943 -1.7024 -1.8831
   31MOL0     H 4124   9.597   2.935   5.772 -0.6435 -1.0709 -0.6440
   31MOL0     H 4125   9.455   3.036   5.757  0.2523 -0.7228  1.2028
   31MOL0     H 4126   9.608   3.235   5.699 -0.5781 -1.1268 -1.0396
   31MOL0     H 4127   9.610   3.170   5.860 -1.7595  1.6505 -0.3922
   31MOL0     H 4128   9.816   3.049   5.816 -4.1297 -0.5359  0.4244
   31MOL0     H 4129   9.821   3.110   5.653 -0.9709  2.1025 -0.5477
   31MOL0     H 4130   9.867   3.337   5.705 -0.6224  2.1488  0.6190
   31MOL0     H 4131   9.833   3.304   5.875  0.5212 -0.8656 -1.1691
   31MOL0     H 4132  10.048   3.154   5.756 -2.9936  0.2439 -0.8040
   31MOL0     H 4133  10.027   3.187   5.924 -2.6870 -0.5032  0.2436
   31MOL0     H 4134  10.106   3.404   5.720  2.2007 -1.4407 -0.2067
   31MOL0     H 4135  10.078   3.422   5.894  0.0451  0.8317 -0.1844
   31MOL0     H 4136  10.284   3.330   6.063 -3.3203 -0.0105 -1.0772
   31MOL0     H 4137  10.562   3.431   6.040 -1.9938  0.4789 -3.3263
   31MOL0     H 4138  10.518   3.282   6.128  0.5778  0.5234  0.7895
   31MOL0     H 4139  10.703   3.180   5.956  1.9080 -0.7809  1.4560
   31MOL0     H 4140  10.742   3.358   5.936  2.1412 -2.3834 -1.7952
   31MOL0     H 4141  10.740   3.195   6.187  0.2776  0.1282  0.2557
   31MOL0     H 4142  10.767   3.365   6.187 -1.4268 -0.8209 -0.8205
   31MOL0     H 4143  10.931   3.175   6.011 -0.7476  0.0176 -1.2727
   31MOL0     H 4144  10.979   3.197   6.176 -0.0551 -1.2154 -0.8744
   31MOL0     H 4145  11.180   3.150   6.015  2.6433 -0.2479 -2.1762
   31MOL0     H 4146  11.396   3.179   5.970  1.8901  0.5380 -0.0605
   31MOL0     H 4147  11.772   3.282   5.998  0.8782 -0.1642  2.8778
   31MOL0     H 4148  12.014   3.265   5.987 -2.5638 -2.2408 -1.1901
   31MOL0     H 4149  12.342   3.448   6.070 -0.3410 -0.3856  2.0798
   31MOL0     H 4150  12.208   3.338   6.097 -1.2697 -0.6876 -0.7874
   31MOL0     H 4151  12.205   3.278   5.869  1.0277 -1.1072 -0.3781
   31MOL0     H 4152  12.337   3.393   5.835 -2.0385  0.5111 -0.4617
   31MOL0     H 4153  12.358   3.182   6.061  1.7918  1.6101  0.3536
   31MOL0     H 4154  12.377   3.119   5.910 -1.0854  0.8010 -1.0385
   31MOL0     H 4155  12.538   3.337   6.047 -1.5362  0.7188 -1.2960
   31MOL0     H 4156  12.571   3.296   5.876  1.8899 -0.0688  0.4918
   31MOL0     H 4157  12.617   3.064   5.926 -0.1342  2.5092 -1.0662
   31MOL0     H 4158  12.553   3.082   6.090  1.3829 -1.3761  0.3926
   31MOL0     H 4159  12.807   3.213   6.007  0.8057  0.7169  0.3647
   31MOL0     H 4160  12.721   3.219   6.162 -1.0568  1.9285 -0.8371
   31MOL0     H 4161  12.789   2.936   6.058  1.3539  0.2925 -1.3417
   31MOL0     H 4162  12.813   3.002   6.207  0.6753  0.6489 -0.2714
   31MOL0     H 4163  13.033   2.959   6.146  0.2218 -0.4857  1.3739
   31MOL0     H 4164  12.994   3.016   5.979 -5.3767  0.8658 -0.8109
   31MOL0     H 4165  12.007   3.690   5.916 -3.0127  1.8552 -2.4897
   31MOL0     H 4166  11.770   3.693   5.977  0.6357 -0.8424 -2.2013
   31MOL0     H 4167  11.351   3.608   5.953 -1.7410 -0.6010 -2.4315
   31MOL0     H 4168  11.132   3.593   6.035  0.2212  0.9716  2.0877
   31MOL0     H 4169   9.060   2.919   5.560  1.6290  0.3226  0.9305
   31MOL0     H 4170   8.913   2.732   5.485 -0.0187  0.7900 -0.9612
   31MOL0     H 4171   8.916   2.147   5.422 -0.6910 -0.2535 -1.2594
   31MOL0     H 4172   8.706   2.016   5.475 -2.5568 -0.1224  0.6254
   31MOL0     H 4173   8.367   2.189   5.566  1.5049 -1.7751 -3.5786
   31MOL0     H 4174   8.365   2.140   5.745 -0.2638  0.3873 -0.6139
   31MOL0     H 4175   8.180   2.026   5.651 -0.1435 -0.9485  1.2738
   31MOL0     H 4176   8.311   1.905   5.674  2.5136 -0.0305  0.4021
   31MOL0     H 4177   8.367   1.936   5.434 -0.7067  0.4367  0.3543
   31MOL0     H 4178   8.237   2.049   5.393  5.0995  1.3130 -0.8362
   31MOL0     H 4179   8.187   1.777   5.513  3.0098 -1.1323 -1.1222
   31MOL0     H 4180   8.079   1.926   5.487  2.3557  2.7949  2.4615
   31MOL0     H 4181   8.061   1.697   5.130  2.2731 -0.4418 -1.1157
   31MOL0     H 4182   8.552   2.288   5.734  0.3063 -2.7110  0.7668
   31MOL0     H 4183   8.787   2.553   5.660 -0.6131  0.5631 -0.4273
   31MOL0     H 4184   8.689   2.507   5.801  1.0689  1.2100  1.7073
   31MOL0     H 4185   8.854   2.461   5.801  0.3605 -3.2541 -1.1701
   32MOL0     O 4186   0.167   4.637   5.832 -0.0273  0.7040 -0.1045
   32MOL0     C 4187   0.131   4.559   5.743  0.2795 -0.2696 -0.4625
   32MOL0     O 4188   0.203   4.445   5.704 -0.1879 -0.4523 -0.4375
   32MOL0     C 4189   0.328   4.440   5.763  0.1355  0.0122  0.5694
   32MOL0     C 4190   0.351   4.421   5.898 -0.3603 -0.0492 -0.1403
   32MOL0     C 4191   0.482   4.431   5.957 -0.0054 -0.8662 -0.2180
   32MOL0     C 4192   0.590   4.429   5.876  0.0164  0.0694 -0.2144
   32MOL0     O 4193   0.715   4.415   5.934 -0.4651 -0.0110 -0.0314
   32MOL0     C 4194   0.739   4.524   6.025 -0.4936  0.3777 -0.6006
   32MOL0     C 4195   0.889   4.518   6.073  0.5863 -0.7274 -0.4439
   32MOL0     C 4196   0.970   4.532   5.948 -0.5675  0.1708  0.4531
   32MOL0     C 4197   1.115   4.524   5.977  0.2948 -0.0591  0.2967
   32MOL0     C 4198   1.183   4.517   5.839 -0.5218  0.2130  0.0390
   32MOL0     C 4199   1.321   4.579   5.856 -0.1732 -0.3143 -0.1142
   32MOL0     C 4200   1.416   4.566   5.740  0.3173 -0.5260  0.0750
   32MOL0     C 4201   1.438   4.423   5.695  0.0838 -0.8341  0.2332
   32MOL0     N 4202   1.542   4.416   5.592 -0.2588 -0.2679  0.2895
   32MOL0     C 4203   1.665   4.371   5.624 -0.9728 -0.1425  1.2249
   32MOL0     C 4204   1.733   4.379   5.507  0.2370 -0.0505  0.5598
   32MOL0     C 4205   1.878   4.380   5.499  0.2722  0.0830 -0.4794
   32MOL0     C 4206   1.923   4.316   5.372  0.1891 -0.3204 -0.2131
   32MOL0     C 4207   2.071   4.289   5.350 -0.3205  0.8301 -0.0257
   32MOL0     C 4208   2.159   4.417   5.349  0.1755 -1.5555  0.7964
   32MOL0     O 4209   2.297   4.372   5.345  0.3673 -0.1446 -0.1997
   32MOL0     C 4210   2.401   4.454   5.312 -0.3542  0.1338  0.0203
   32MOL0     C 4211   2.518   4.399   5.260  0.8183 -0.8222  0.3926
   32MOL0     C 4212   2.632   4.471   5.230 -0.6987  0.1212  0.0866
   32MOL0     C 4213   2.629   4.614   5.242 -1.0452 -0.0014 -0.4256
   32MOL0     C 4214   2.750   4.696   5.206  0.7881  0.0443  0.2105
   32MOL0     O 4215   2.863   4.633   5.180 -0.7358 -0.1926 -0.4721
   32MOL0     C 4216   2.977   4.703   5.124  0.3247 -0.0961  0.4040
   32MOL0     C 4217   3.072   4.623   5.057 -0.1473 -0.7009 -0.2331
   32MOL0     C 4218   3.184   4.683   4.997 -0.4181  0.2186 -0.6775
   32MOL0     C 4219   3.223   4.813   5.004 -1.2519 -0.3559 -0.4424
   32MOL0     O 4220   3.339   4.842   4.936 -0.4705 -0.4966 -0.0357
   32MOL0     C 4221   3.378   4.979   4.919 -0.2690 -0.1155 -0.5732
   32MOL0     C 4222   3.456   5.030   5.044 -0.6997  0.0843 -0.2817
   32MOL0     C 4223   3.591   4.965   5.053 -0.1176  0.1287 -0.3137
   32MOL0     C 4224   3.650   5.019   5.182  0.8788 -0.2571  0.0360
   32MOL0     C 4225   3.795   4.988   5.208 -0.0680  0.3810  0.3221
   32MOL0     C 4226   3.828   4.839   5.227 -0.1231  0.7345  0.3343
   32MOL0     C 4227   3.972   4.824   5.285  0.9285 -0.3567  0.1447
   32MOL0     C 4228   4.083   4.878   5.192  0.2013 -0.2680  0.1436
   32MOL0    Cl 4229   4.136   5.049   5.231  0.0901  0.2764 -0.2989
   32MOL0     C 4230   3.132   4.888   5.074  0.8580 -0.5509 -0.9380
   32MOL0     C 4231   3.015   4.836   5.130  0.1978  0.1617 -0.2224
   32MOL0     O 4232   2.721   4.814   5.180 -0.6639 -0.3739  0.0140
   32MOL0     C 4233   2.514   4.674   5.288  0.5850  0.6059 -0.6184
   32MOL0     C 4234   2.406   4.598   5.322  1.1445  0.4903  0.2550
   32MOL0     N 4235   1.649   4.429   5.407  0.5412 -0.1507  0.0437
   32MOL0     N 4236   1.534   4.439   5.460 -0.0610 -0.1779  0.1440
   32MOL0     C 4237   0.572   4.443   5.737 -0.9845 -0.0659  0.1769
   32MOL0     C 4238   0.440   4.449   5.683  0.2375  0.8127 -0.3120
   32MOL0     C 4239   0.004   4.577   5.662  0.1780 -0.4964  0.1547
   32MOL0     C 4240  -0.035   4.483   5.566  1.0937 -0.0870 -0.2121
   32MOL0     C 4241  -0.154   4.490   5.495  0.3542  0.0011 -0.2059
   32MOL0     C 4242  -0.248   4.589   5.518 -0.8088 -0.5251 -0.7084
   32MOL0     O 4243  -0.369   4.586   5.456 -0.9496  0.0525  0.0384
   32MOL0     C 4244  -0.473   4.665   5.506 -0.5588 -0.5112  0.2063
   32MOL0     C 4245  -0.598   4.598   5.458  0.2860 -0.1773  0.1139
   32MOL0     C 4246  -0.716   4.665   5.538 -0.0462  0.0521  0.9042
   32MOL0     C 4247  -0.855   4.586   5.503 -0.1410  0.3039  0.0538
   32MOL0     C 4248  -0.964   4.609   5.597  0.7869 -1.0293 -0.2362
   32MOL0     C 4249  -1.060   4.634   5.670  0.3273 -0.7401 -0.1403
   32MOL0     C 4250  -0.200   4.696   5.603  0.3068 -0.1594  0.6617
   32MOL0     C 4251  -0.078   4.695   5.671  0.2350 -0.0805  0.9213
   32MOL0     C 4252  -0.058   4.809   5.774  0.2840  0.1591 -0.1529
   32MOL0     H 4253   0.268   4.403   5.966  1.3786  0.7807  2.3587
   32MOL0     H 4254   0.502   4.418   6.063  2.8810 -0.9004 -0.6813
   32MOL0     H 4255   0.724   4.625   5.986  2.3145  1.5345  1.0254
   32MOL0     H 4256   0.681   4.524   6.117  0.4825  0.9213  0.0349
   32MOL0     H 4257   0.919   4.434   6.136 -0.1217  0.1128  1.0683
   32MOL0     H 4258   0.908   4.605   6.137 -1.4150 -0.0791 -0.6699
   32MOL0     H 4259   0.931   4.627   5.910 -0.1197 -1.1443 -3.8547
   32MOL0     H 4260   0.941   4.457   5.874 -1.8425  0.9380  0.1551
   32MOL0     H 4261   1.153   4.602   6.043  0.7145 -1.2722  1.5537
   32MOL0     H 4262   1.138   4.433   6.034 -3.1349 -2.5777 -1.9292
   32MOL0     H 4263   1.180   4.410   5.817 -0.2225 -0.5052  3.0073
   32MOL0     H 4264   1.136   4.567   5.754  1.0630  0.8164 -0.5237
   32MOL0     H 4265   1.312   4.688   5.868 -1.6267 -0.5064  0.9019
   32MOL0     H 4266   1.373   4.539   5.944  2.5920  0.5795 -1.2405
   32MOL0     H 4267   1.508   4.602   5.786  0.0068  0.3776  0.0249
   32MOL0     H 4268   1.381   4.626   5.655 -0.7227  1.7949  2.0097
   32MOL0     H 4269   1.463   4.357   5.779 -0.0306 -2.0844 -0.6743
   32MOL0     H 4270   1.344   4.390   5.649 -0.7741  1.4223  0.2652
   32MOL0     H 4271   1.706   4.350   5.723  1.5192 -1.6609 -0.0221
   32MOL0     H 4272   1.910   4.484   5.509  3.1304 -0.8516  1.3954
   32MOL0     H 4273   1.926   4.325   5.580  0.6098  0.1061 -0.6648
   32MOL0     H 4274   1.850   4.238   5.350 -0.2474  0.1674 -0.5300
   32MOL0     H 4275   1.892   4.378   5.287 -2.3995 -0.4721  0.5277
   32MOL0     H 4276   2.091   4.234   5.257 -1.2001 -2.8212  1.7656
   32MOL0     H 4277   2.098   4.217   5.428 -1.5644 -0.7463 -0.9926
   32MOL0     H 4278   2.141   4.476   5.440  1.6356 -0.0491  0.1664
   32MOL0     H 4279   2.131   4.479   5.263  0.5590  0.2008  1.8852
   32MOL0     H 4280   2.506   4.294   5.236 -2.5144 -0.5435  0.3575
   32MOL0     H 4281   2.707   4.409   5.183 -0.4412  3.3598 -4.4971
   32MOL0     H 4282   3.053   4.518   5.038 -0.1474 -1.6190  3.8894
   32MOL0     H 4283   3.255   4.622   4.942  3.4616  1.3838  2.5163
   32MOL0     H 4284   3.449   4.985   4.836  0.9842 -1.1809  0.3804
   32MOL0     H 4285   3.287   5.037   4.898 -1.2066 -0.5728  1.8719
   32MOL0     H 4286   3.458   5.139   5.050 -0.8252  0.0422  0.7977
   32MOL0     H 4287   3.395   5.003   5.131  1.1371 -0.1126  1.0061
   32MOL0     H 4288   3.594   4.856   5.062 -0.5952  0.1500  0.1421
   32MOL0     H 4289   3.653   4.991   4.967  0.6321 -2.0553 -0.4843
   32MOL0     H 4290   3.588   4.988   5.266  1.1634  1.6902  1.0383
   32MOL0     H 4291   3.635   5.127   5.182 -1.8245 -0.5174 -2.4284
   32MOL0     H 4292   3.814   5.047   5.298 -3.1617  1.9853  0.0752
   32MOL0     H 4293   3.851   5.031   5.125  0.0929 -1.7703 -0.7349
   32MOL0     H 4294   3.747   4.794   5.284 -1.8095  2.4340 -0.6248
   32MOL0     H 4295   3.831   4.789   5.130 -2.0395  0.9755  0.1217
   32MOL0     H 4296   3.987   4.716   5.293  2.8527 -0.0183  1.9815
   32MOL0     H 4297   3.978   4.872   5.383 -3.8956  1.5710 -0.2115
   32MOL0     H 4298   4.165   4.806   5.184  1.2395  1.0925 -2.9544
   32MOL0     H 4299   4.039   4.868   5.093 -0.9112 -0.2252  0.6180
   32MOL0     H 4300   3.149   4.992   5.104  2.2621 -0.6297 -1.3876
   32MOL0     H 4301   2.943   4.900   5.181  0.0644 -0.9729  1.0798
   32MOL0     H 4302   2.519   4.782   5.299  0.9138  0.5181  0.1592
   32MOL0     H 4303   2.329   4.657   5.371  0.9278  0.4745 -0.0670
   32MOL0     H 4304   0.653   4.447   5.665 -1.7297  2.8331 -0.6195
   32MOL0     H 4305   0.409   4.463   5.580  1.3224 -1.0693 -0.9467
   32MOL0     H 4306   0.021   4.391   5.548 -2.0362 -2.2660  0.3547
   32MOL0     H 4307  -0.184   4.409   5.429 -0.3619  0.5498 -0.5810
   32MOL0     H 4308  -0.452   4.770   5.482  3.0146 -1.3605 -1.0903
   32MOL0     H 4309  -0.481   4.662   5.615  1.8954  1.8771  0.5633
   32MOL0     H 4310  -0.600   4.494   5.492  2.3060 -0.4248 -0.4032
   32MOL0     H 4311  -0.609   4.600   5.349  1.9071 -2.6503 -0.1705
   32MOL0     H 4312  -0.730   4.771   5.515 -1.8706  0.2750  2.7054
   32MOL0     H 4313  -0.689   4.646   5.642  0.6762  1.9782  1.1153
   32MOL0     H 4314  -0.887   4.594   5.399 -3.0645  1.6807  0.9376
   32MOL0     H 4315  -0.830   4.479   5.507 -1.3612  0.0144  0.7846
   32MOL0     H 4316  -1.142   4.655   5.736 -0.2711 -0.5768 -0.9239
   32MOL0     H 4317  -0.253   4.790   5.610  1.9028  0.6887  1.8514
   32MOL0     H 4318   0.033   4.863   5.746  0.3786  0.2635  0.3526
   32MOL0     H 4319  -0.140   4.881   5.776  0.6899  0.6155  0.1046
   32MOL0     H 4320  -0.038   4.778   5.877  0.6325  2.3494  0.4749
   33MOL0     O 4321   3.059   9.330   0.301 -1.1975  0.2672  0.2871
   33MOL0     C 4322   3.053   9.360   0.179  0.1826 -0.6824 -1.1172
   33MOL0     O 4323   3.146   9.437   0.118  0.3168  0.8097 -0.3673
   33MOL0     C 4324   3.269   9.460   0.178 -0.0416  0.1653  0.5060
   33MOL0     C 4325   3.334   9.581   0.146 -0.0659  0.4937 -0.2572
   33MOL0     C 4326   3.458   9.609   0.209  0.8050  0.3368  1.3523
   33MOL0     C 4327   3.516   9.526   0.302 -1.9162 -0.5344 -0.0975
   33MOL0     O 4328   3.636   9.554   0.374 -0.2093  0.3155 -0.0231
   33MOL0     C 4329   3.675   9.688   0.375 -0.5992 -0.7900 -0.3453
   33MOL0     C 4330   3.763   9.711   0.505 -0.1886 -0.6869 -1.0522
   33MOL0     C 4331   3.758   9.854   0.573  0.4972  0.1278  0.0233
   33MOL0     C 4332   3.762   9.955   0.457  0.0773  0.6683 -0.0493
   33MOL0     C 4333   3.731  10.100   0.504 -0.2368 -0.2793 -0.6858
   33MOL0     C 4334   3.815  10.144   0.620  0.0975  0.6615 -0.1547
   33MOL0     C 4335   3.756  10.265   0.691  0.6751 -0.1766 -0.0404
   33MOL0     C 4336   3.795  10.268   0.839  0.2581 -0.3273  0.7321
   33MOL0     N 4337   3.936  10.290   0.861 -0.1136  0.4957  0.1576
   33MOL0     C 4338   4.027  10.351   0.777  0.0736 -0.4015 -0.5668
   33MOL0     C 4339   4.137  10.346   0.852 -0.7842  0.5089  0.7638
   33MOL0     C 4340   4.278  10.393   0.804 -0.0574 -0.7118  0.8109
   33MOL0     C 4341   4.261  10.538   0.746 -0.1915  0.5810 -0.6657
   33MOL0     C 4342   4.397  10.614   0.726  0.1592 -0.4802 -0.9226
   33MOL0     C 4343   4.476  10.632   0.863  0.0356  0.2002  0.1982
   33MOL0     O 4344   4.584  10.723   0.841  0.0618  0.4507  0.1473
   33MOL0     C 4345   4.695  10.719   0.916  0.5471  0.5576 -0.4225
   33MOL0     C 4346   4.698  10.643   1.035 -0.5119 -0.0549 -0.4039
   33MOL0     C 4347   4.813  10.648   1.113 -0.1801 -0.7270  0.7966
   33MOL0     C 4348   4.936  10.715   1.072 -1.0032 -0.4918 -0.1465
   33MOL0     C 4349   5.060  10.717   1.146  0.6713  0.1131  0.6115
   33MOL0     O 4350   5.062  10.634   1.251  0.3570 -0.3825  0.6744
   33MOL0     C 4351   5.173  10.615   1.329  0.9291  0.0471  0.3284
   33MOL0     C 4352   5.144  10.600   1.463 -0.2995  1.1384 -0.4723
   33MOL0     C 4353   5.250  10.593   1.556  0.2491 -0.0225 -0.4003
   33MOL0     C 4354   5.384  10.596   1.520  1.2123 -0.5470  0.0231
   33MOL0     O 4355   5.470  10.611   1.618  0.1701  0.9051  0.2122
   33MOL0     C 4356   5.608  10.592   1.600 -0.4132  0.4159  0.3226
   33MOL0     C 4357   5.635  10.442   1.621 -0.1005 -0.7808  0.7828
   33MOL0     C 4358   5.780  10.411   1.658 -0.0055 -0.3009  0.6601
   33MOL0     C 4359   5.802  10.431   1.805 -0.4894  0.6669 -0.5366
   33MOL0     C 4360   5.959  10.424   1.822  0.2287 -0.7551 -0.6220
   33MOL0     C 4361   6.003  10.433   1.966  0.3029 -0.4817  0.4578
   33MOL0     C 4362   6.154  10.423   1.978  0.3784 -0.0584  0.0570
   33MOL0     C 4363   6.197  10.283   1.984 -0.6425  0.2787 -0.2246
   33MOL0    Cl 4364   6.373  10.266   2.014  0.5240  0.0913  0.5547
   33MOL0     C 4365   5.402  10.573   1.385 -0.3691  0.1030 -1.0327
   33MOL0     C 4366   5.303  10.585   1.287  0.0238 -0.6346 -1.7541
   33MOL0     O 4367   5.158  10.781   1.115  0.2760 -0.3357 -0.3868
   33MOL0     C 4368   4.933  10.789   0.953 -0.0065 -0.1209 -0.0713
   33MOL0     C 4369   4.811  10.797   0.880  0.0199 -0.2474  0.2428
   33MOL0     N 4370   4.120  10.274   0.969  0.0121 -0.2040  0.1235
   33MOL0     N 4371   3.997  10.243   0.970 -0.1002 -0.1783  0.5916
   33MOL0     C 4372   3.449   9.410   0.337 -0.0292 -0.9122  0.4649
   33MOL0     C 4373   3.328   9.380   0.275  0.0570  0.0302 -0.6344
   33MOL0     C 4374   2.934   9.331   0.096  0.5081  0.4474  0.2177
   33MOL0     C 4375   2.882   9.427   0.024  0.0053 -0.1209 -0.1180
   33MOL0     C 4376   2.773   9.408  -0.058  0.5736 -0.7672  0.4589
   33MOL0     C 4377   2.694   9.286  -0.052 -0.3099 -0.5351  0.3998
   33MOL0     O 4378   2.571   9.270  -0.109 -0.3670  0.8585 -0.5560
   33MOL0     C 4379   2.492   9.387  -0.116  0.4125 -0.2156  0.8939
   33MOL0     C 4380   2.429   9.432   0.022 -0.0790 -0.9609  1.1324
   33MOL0     C 4381   2.321   9.544   0.026  0.4500  0.5194 -0.7536
   33MOL0     C 4382   2.256   9.550   0.156 -0.1249  0.6350 -0.4591
   33MOL0     C 4383   2.146   9.640   0.174  0.1060 -0.8096  0.1277
   33MOL0     C 4384   2.064   9.724   0.196  0.3617  0.0812  0.7936
   33MOL0     C 4385   2.751   9.182   0.025  0.0717  0.5103  0.1454
   33MOL0     C 4386   2.870   9.202   0.099  0.0276 -0.7212 -0.3696
   33MOL0     C 4387   2.910   9.097   0.199  0.3001 -0.7607 -0.3852
   33MOL0     H 4388   3.281   9.657   0.089  0.9214  2.0899  0.8777
   33MOL0     H 4389   3.489   9.705   0.168  0.8384 -0.4691 -0.6218
   33MOL0     H 4390   3.732   9.703   0.282 -3.3864 -1.1221 -2.2368
   33MOL0     H 4391   3.590   9.757   0.372 -1.3909 -1.6766  0.9862
   33MOL0     H 4392   3.869   9.686   0.496 -0.0964 -1.1480  0.8540
   33MOL0     H 4393   3.724   9.646   0.584  2.8478 -0.0284  1.1834
   33MOL0     H 4394   3.842   9.878   0.639 -1.2020 -1.5131  3.0357
   33MOL0     H 4395   3.661   9.863   0.624  0.2804  1.7808 -0.6273
   33MOL0     H 4396   3.862   9.953   0.411  0.3775 -1.4128  0.5600
   33MOL0     H 4397   3.694   9.936   0.374  0.4059  2.4597 -0.7839
   33MOL0     H 4398   3.748  10.169   0.421 -0.4781  2.1312  1.1846
   33MOL0     H 4399   3.628  10.104   0.539  1.0490  0.5332  3.6530
   33MOL0     H 4400   3.829  10.068   0.698 -1.4149  1.3073  0.7829
   33MOL0     H 4401   3.917  10.162   0.584  0.1117  0.9279  0.0181
   33MOL0     H 4402   3.647  10.258   0.684  0.6467 -1.7128  1.3328
   33MOL0     H 4403   3.786  10.360   0.648  1.5576 -0.0790  0.7399
   33MOL0     H 4404   3.752  10.349   0.898  0.5268  0.3359  0.0351
   33MOL0     H 4405   3.758  10.174   0.881  2.1070 -0.6942  1.6523
   33MOL0     H 4406   4.008  10.401   0.683  1.3326  2.0621  0.4127
   33MOL0     H 4407   4.340  10.385   0.894 -0.9530  2.7463  1.9152
   33MOL0     H 4408   4.310  10.321   0.729 -0.5461 -0.0503 -0.0558
   33MOL0     H 4409   4.227  10.536   0.642 -2.4907  0.0330  0.0333
   33MOL0     H 4410   4.183  10.600   0.792  3.1174  3.0242  2.1870
   33MOL0     H 4411   4.375  10.708   0.676 -1.6600 -0.8592 -0.9370
   33MOL0     H 4412   4.460  10.553   0.661  1.9428 -0.9506  1.1269
   33MOL0     H 4413   4.490  10.538   0.918  1.1074  0.5619  0.5914
   33MOL0     H 4414   4.426  10.684   0.945  1.1732  0.2242  0.9017
   33MOL0     H 4415   4.609  10.605   1.083 -0.0342 -1.5026 -0.6313
   33MOL0     H 4416   4.801  10.602   1.211  0.8803 -0.5712  1.0102
   33MOL0     H 4417   5.043  10.619   1.497  0.6294  2.1060  1.9795
   33MOL0     H 4418   5.221  10.596   1.660  1.5181  0.9865 -0.0445
   33MOL0     H 4419   5.639  10.623   1.500 -0.7543 -1.2306 -0.3263
   33MOL0     H 4420   5.658  10.655   1.674  0.3854  0.4323 -0.2108
   33MOL0     H 4421   5.567  10.399   1.695 -0.2328 -0.5158  0.8153
   33MOL0     H 4422   5.611  10.385   1.531 -0.6596 -0.0946  0.4883
   33MOL0     H 4423   5.800  10.310   1.620 -2.6696  1.0670 -5.5844
   33MOL0     H 4424   5.842  10.485   1.608 -3.1185  0.8568 -1.7613
   33MOL0     H 4425   5.747  10.362   1.870 -0.0114 -0.1183 -0.9425
   33MOL0     H 4426   5.766  10.530   1.832  0.3213  0.9390 -0.4431
   33MOL0     H 4427   5.995  10.512   1.769 -1.6016 -0.0331 -0.7416
   33MOL0     H 4428   6.012  10.337   1.781  3.1132 -0.5600  2.2595
   33MOL0     H 4429   5.966  10.521   2.019  1.4024  1.0568 -1.2051
   33MOL0     H 4430   5.958  10.348   2.019  0.4598  0.8489  2.8524
   33MOL0     H 4431   6.191  10.453   2.076 -4.8731  1.4569  1.8787
   33MOL0     H 4432   6.202  10.485   1.901 -0.6959  0.7040 -0.0232
   33MOL0     H 4433   6.138  10.232   2.060 -1.4834 -1.3496 -1.8791
   33MOL0     H 4434   6.175  10.255   1.880 -1.4748 -1.2714  0.3474
   33MOL0     H 4435   5.504  10.559   1.350  0.7105 -4.2011  2.8245
   33MOL0     H 4436   5.317  10.578   1.179  0.1213 -1.3159 -1.7048
   33MOL0     H 4437   5.022  10.846   0.930 -0.2151  1.0193  1.7403
   33MOL0     H 4438   4.823  10.870   0.801 -0.6390  1.4313  1.6196
   33MOL0     H 4439   3.473   9.348   0.422 -0.5645 -1.2728  0.3587
   33MOL0     H 4440   3.275   9.303   0.329 -1.2081  0.3386 -1.3963
   33MOL0     H 4441   2.925   9.525   0.041  0.2459 -0.3343  0.5297
   33MOL0     H 4442   2.738   9.491  -0.118 -0.6994  0.1039  2.3253
   33MOL0     H 4443   2.418   9.364  -0.194  0.1341 -0.1046  1.1244
   33MOL0     H 4444   2.542   9.472  -0.163  0.7984 -0.5958  0.6114
   33MOL0     H 4445   2.508   9.459   0.093 -0.6746 -0.0054  1.4513
   33MOL0     H 4446   2.369   9.349   0.059  0.3025 -0.7689  2.2168
   33MOL0     H 4447   2.247   9.527  -0.053  1.0937  2.5316 -1.8899
   33MOL0     H 4448   2.367   9.636  -0.012  1.9125  0.1737  0.1122
   33MOL0     H 4449   2.219   9.452   0.188  0.4686 -0.1600 -2.0788
   33MOL0     H 4450   2.336   9.566   0.229  1.3511 -5.0846 -0.3620
   33MOL0     H 4451   1.975   9.782   0.204  1.4363  1.7922  0.7313
   33MOL0     H 4452   2.681   9.099   0.033  1.4782 -0.8703 -1.2454
   33MOL0     H 4453   2.891   9.110   0.306  3.1216 -0.3238  0.1571
   33MOL0     H 4454   2.851   9.008   0.176  1.4217 -2.1766  1.8864
   33MOL0     H 4455   3.019   9.085   0.191  0.6832  1.6518  0.2356
   34MOL0     O 4456   5.578   0.753   1.759 -0.3076 -0.0972 -0.1676
   34MOL0     C 4457   5.514   0.825   1.682  0.0004 -0.3018 -0.2367
   34MOL0     O 4458   5.569   0.864   1.558 -0.1052  0.1160  0.4548
   34MOL0     C 4459   5.700   0.840   1.542 -0.7172  0.4663  0.0502
   34MOL0     C 4460   5.794   0.889   1.625 -0.4706 -0.8617 -0.1119
   34MOL0     C 4461   5.933   0.872   1.606 -0.4974  0.5243 -0.7784
   34MOL0     C 4462   5.979   0.783   1.504 -0.4911 -0.1901  0.8184
   34MOL0     O 4463   6.114   0.752   1.487  0.1656 -0.6160  0.2369
   34MOL0     C 4464   6.165   0.763   1.347 -0.8742 -0.6026 -0.7630
   34MOL0     C 4465   6.307   0.728   1.342  0.4893  1.1512  0.3960
   34MOL0     C 4466   6.390   0.791   1.446  0.8554 -0.6442  0.2638
   34MOL0     C 4467   6.543   0.770   1.432  0.4403 -0.1554 -0.7362
   34MOL0     C 4468   6.613   0.860   1.325  0.5592  0.3246 -0.4422
   34MOL0     C 4469   6.770   0.857   1.327  0.2166 -0.3190  0.0752
   34MOL0     C 4470   6.831   0.793   1.195 -0.0137 -0.3788 -0.1354
   34MOL0     C 4471   6.978   0.776   1.207 -0.0748  0.1551 -0.2319
   34MOL0     N 4472   7.040   0.724   1.080 -0.0026 -0.1922 -0.7580
   34MOL0     C 4473   7.018   0.608   1.022  0.2549  0.2278  0.3002
   34MOL0     C 4474   7.102   0.608   0.915 -0.0998 -0.0368 -0.6298
   34MOL0     C 4475   7.109   0.481   0.819 -0.1928 -0.1135  0.4358
   34MOL0     C 4476   7.097   0.537   0.673  0.4661 -0.0356 -0.1535
   34MOL0     C 4477   7.107   0.410   0.587  0.1648 -0.4355  0.1540
   34MOL0     C 4478   7.251   0.357   0.570 -0.8862 -0.4360  1.0940
   34MOL0     O 4479   7.237   0.277   0.457 -0.3096  0.0069 -0.1392
   34MOL0     C 4480   7.345   0.264   0.371  1.3638 -1.1163  0.4974
   34MOL0     C 4481   7.332   0.211   0.240  0.2111 -0.1676  0.2201
   34MOL0     C 4482   7.437   0.175   0.163 -0.1185  0.6055  0.0954
   34MOL0     C 4483   7.567   0.206   0.203  0.5021 -0.5490 -0.5509
   34MOL0     C 4484   7.688   0.164   0.128  1.0560 -0.3877  0.4861
   34MOL0     O 4485   7.819   0.184   0.186 -0.5115  0.1848  0.4365
   34MOL0     C 4486   7.930   0.162   0.108 -0.9032 -0.6810 -1.1243
   34MOL0     C 4487   7.944   0.034   0.056  0.8084 -0.5963 -0.9272
   34MOL0     C 4488   8.062  -0.001  -0.000  0.4523 -0.1250 -0.5789
   34MOL0     C 4489   8.167   0.082  -0.019 -0.4795 -0.0344 -0.4332
   34MOL0     O 4490   8.283   0.048  -0.086 -0.0214  0.0809 -0.4374
   34MOL0     C 4491   8.392   0.023   0.008 -0.6466 -0.7135 -0.2888
   34MOL0     C 4492   8.515   0.076  -0.074 -0.2997  0.7168  0.0648
   34MOL0     C 4493   8.557  -0.016  -0.192  0.1492 -0.1404 -0.3458
   34MOL0     C 4494   8.664   0.050  -0.275 -0.5188  0.1787  0.0177
   34MOL0     C 4495   8.807   0.032  -0.217 -0.1350  0.5214 -0.8226
   34MOL0     C 4496   8.910   0.109  -0.286  0.6179  0.0257  0.1031
   34MOL0     C 4497   9.047   0.066  -0.236 -0.2742 -0.8260 -0.4226
   34MOL0     C 4498   9.151   0.132  -0.328  0.3665  0.6451 -0.0276
   34MOL0    Cl 4499   9.314   0.107  -0.266 -0.0455  0.1154  0.0896
   34MOL0     C 4500   8.152   0.212   0.036 -0.7975  0.1518 -0.8487
   34MOL0     C 4501   8.035   0.252   0.107 -0.3488 -1.0408  0.3846
   34MOL0     O 4502   7.664   0.114   0.015  0.1952 -0.2919  0.0202
   34MOL0     C 4503   7.578   0.272   0.325  0.2963  0.0912 -0.0565
   34MOL0     C 4504   7.475   0.303   0.408  0.2254 -1.0438  0.1595
   34MOL0     N 4505   7.191   0.714   0.926 -0.3665 -0.1498 -0.6637
   34MOL0     N 4506   7.145   0.785   1.023  0.0975 -0.9011 -0.4669
   34MOL0     C 4507   5.887   0.729   1.420 -0.0095 -0.3768  0.5408
   34MOL0     C 4508   5.746   0.751   1.437  0.2209 -0.9456 -0.5280
   34MOL0     C 4509   5.377   0.874   1.721  0.7600 -0.0043  0.1889
   34MOL0     C 4510   5.291   0.915   1.622  0.4740 -0.3799 -0.1793
   34MOL0     C 4511   5.155   0.948   1.659 -0.4132  0.1915  0.0216
   34MOL0     C 4512   5.113   0.944   1.793  0.2507  0.5379 -0.7185
   34MOL0     O 4513   4.985   0.965   1.837  0.2813 -0.4417 -0.3529
   34MOL0     C 4514   4.894   1.032   1.756  0.4132  0.6467  0.2960
   34MOL0     C 4515   4.799   0.940   1.683 -0.1545  0.5315  0.6460
   34MOL0     C 4516   4.688   1.031   1.622  0.2020  0.1048 -0.1872
   34MOL0     C 4517   4.571   0.950   1.556  0.3497 -0.6875  0.3839
   34MOL0     C 4518   4.487   1.045   1.480 -0.5416  0.6562 -0.1812
   34MOL0     C 4519   4.417   1.119   1.417  0.0609 -0.3347 -0.3586
   34MOL0     C 4520   5.201   0.918   1.892 -0.4052  0.3579 -0.7506
   34MOL0     C 4521   5.331   0.883   1.860 -0.8995  1.0506  0.2397
   34MOL0     C 4522   5.427   0.873   1.976 -0.1667 -0.5398  0.1662
   34MOL0     H 4523   5.772   0.942   1.717 -0.1532 -1.5463  0.3768
   34MOL0     H 4524   6.009   0.905   1.676 -0.1981 -1.6818  0.0395
   34MOL0     H 4525   6.106   0.699   1.281 -2.2826 -0.6599  0.4717
   34MOL0     H 4526   6.152   0.868   1.319 -3.1746 -0.9100 -1.0678
   34MOL0     H 4527   6.352   0.738   1.243  0.7571 -3.2961 -0.1376
   34MOL0     H 4528   6.314   0.619   1.357 -1.1855  0.1507 -4.4383
   34MOL0     H 4529   6.357   0.761   1.545  1.4600 -0.7415  0.4383
   34MOL0     H 4530   6.388   0.900   1.446 -1.5066 -0.6447 -0.3773
   34MOL0     H 4531   6.596   0.800   1.523  2.6197 -3.2144 -0.8658
   34MOL0     H 4532   6.566   0.664   1.425  2.3783  0.2131 -0.6528
   34MOL0     H 4533   6.565   0.834   1.230  0.3495 -2.0371  0.2338
   34MOL0     H 4534   6.585   0.965   1.334 -0.0659  0.1073  0.2243
   34MOL0     H 4535   6.810   0.955   1.354 -0.3763 -0.4811  1.6849
   34MOL0     H 4536   6.790   0.786   1.408  1.8388 -1.5598 -1.3508
   34MOL0     H 4537   6.815   0.857   1.108 -1.0174  0.4619  0.6367
   34MOL0     H 4538   6.786   0.694   1.187 -1.1687  0.1271 -0.0902
   34MOL0     H 4539   7.018   0.874   1.234 -0.4171  0.0740  0.5719
   34MOL0     H 4540   6.997   0.701   1.284  0.6286  0.1781 -0.3685
   34MOL0     H 4541   6.939   0.535   1.035 -2.6184  3.4503  2.8418
   34MOL0     H 4542   7.190   0.412   0.841  0.1170  0.2057  0.3083
   34MOL0     H 4543   7.017   0.425   0.839  1.4555 -1.8668  4.0615
   34MOL0     H 4544   6.997   0.577   0.652 -1.9906 -3.6899  3.2343
   34MOL0     H 4545   7.178   0.607   0.648 -0.2406  0.3993 -1.2905
   34MOL0     H 4546   7.061   0.437   0.491 -0.8336 -0.3238  0.6446
   34MOL0     H 4547   7.040   0.336   0.632  1.1448 -1.9240 -0.7536
   34MOL0     H 4548   7.280   0.292   0.653 -0.9173  1.3337  2.5576
   34MOL0     H 4549   7.309   0.447   0.551  0.9836 -2.2246 -2.9308
   34MOL0     H 4550   7.232   0.180   0.212  0.5278 -0.0474 -1.0863
   34MOL0     H 4551   7.415   0.121   0.072  1.5712  0.8216 -0.4816
   34MOL0     H 4552   7.852  -0.024   0.049 -0.8809  1.7929 -0.0378
   34MOL0     H 4553   8.072  -0.104  -0.033 -2.4178 -0.4318 -0.8145
   34MOL0     H 4554   8.375   0.082   0.099  0.7765 -2.4627  1.1948
   34MOL0     H 4555   8.404  -0.082   0.035  1.4013 -0.9259 -1.7587
   34MOL0     H 4556   8.491   0.172  -0.119 -0.0736  0.3458 -0.8724
   34MOL0     H 4557   8.605   0.093  -0.014  0.8541 -0.3006 -1.3021
   34MOL0     H 4558   8.593  -0.116  -0.165  0.6518  0.0371 -0.3612
   34MOL0     H 4559   8.466  -0.029  -0.252 -0.4553  2.1208  0.0111
   34MOL0     H 4560   8.657   0.159  -0.270  1.4994  0.3393  0.0750
   34MOL0     H 4561   8.660   0.026  -0.382  0.2904 -0.6098  0.1542
   34MOL0     H 4562   8.825  -0.074  -0.241 -0.0836  0.4566 -0.4987
   34MOL0     H 4563   8.808   0.057  -0.111  0.0090  1.9718 -1.1411
   34MOL0     H 4564   8.903   0.091  -0.394  3.0268  1.3811 -0.3576
   34MOL0     H 4565   8.898   0.216  -0.267  2.2362 -0.2024  2.9251
   34MOL0     H 4566   9.063  -0.042  -0.249  0.7983 -0.4821 -2.4159
   34MOL0     H 4567   9.070   0.102  -0.135  0.4640  0.8005 -1.1395
   34MOL0     H 4568   9.151   0.086  -0.427  2.7325 -3.1146  1.4873
   34MOL0     H 4569   9.142   0.240  -0.337  2.6593  0.7922 -1.1469
   34MOL0     H 4570   8.235   0.281   0.035 -2.5802  2.5893  2.3424
   34MOL0     H 4571   8.040   0.345   0.163  0.4774  0.4544 -1.9942
   34MOL0     H 4572   7.674   0.282   0.373  0.6307 -1.3505 -0.3762
   34MOL0     H 4573   7.494   0.354   0.502 -0.3066  0.8153 -0.6751
   34MOL0     H 4574   5.926   0.660   1.345 -0.9870 -0.5168  0.1515
   34MOL0     H 4575   5.670   0.696   1.383 -0.3136 -0.0264 -0.7218
   34MOL0     H 4576   5.325   0.917   1.519 -0.4424  2.0446 -0.4983
   34MOL0     H 4577   5.082   0.951   1.578  1.2444 -1.6646 -1.6619
   34MOL0     H 4578   4.941   1.090   1.676  2.0205 -1.4060 -0.3244
   34MOL0     H 4579   4.837   1.097   1.823 -3.1883 -2.6371  0.7767
   34MOL0     H 4580   4.765   0.869   1.758  2.1910 -2.1300 -0.6058
   34MOL0     H 4581   4.849   0.892   1.598 -0.8755  2.0304 -0.6826
   34MOL0     H 4582   4.733   1.096   1.547  1.0168 -2.3457 -1.9183
   34MOL0     H 4583   4.640   1.094   1.698 -0.1215 -0.8428  0.4112
   34MOL0     H 4584   4.621   0.877   1.491  1.5103 -0.8429  1.4063
   34MOL0     H 4585   4.512   0.896   1.630  1.2158 -1.3009  0.6477
   34MOL0     H 4586   4.356   1.188   1.363 -2.1311 -0.7790  1.3724
   34MOL0     H 4587   5.165   0.915   1.994 -0.8557  3.3979 -0.7326
   34MOL0     H 4588   5.434   0.766   2.000 -0.9654 -0.0658  2.8076
   34MOL0     H 4589   5.525   0.909   1.944  0.8987 -1.5385  2.1425
   34MOL0     H 4590   5.387   0.922   2.065 -0.6381  0.4241 -0.5683
   35MOL0     O 4591   2.777   2.492   5.809 -0.3245 -0.1065  0.0995
   35MOL0     C 4592   2.800   2.397   5.888  0.2175  0.7585 -0.1718
   35MOL0     O 4593   2.924   2.360   5.926 -0.7969  0.9664 -0.5551
   35MOL0     C 4594   3.031   2.454   5.934  0.7542  0.1131 -0.3517
   35MOL0     C 4595   3.026   2.591   5.902 -0.1631 -0.2643 -0.7264
   35MOL0     C 4596   3.144   2.668   5.920  0.1105 -0.5136  0.9466
   35MOL0     C 4597   3.266   2.615   5.942 -0.1634 -0.3810 -0.0939
   35MOL0     O 4598   3.377   2.698   5.935 -0.0514  0.1530  0.4865
   35MOL0     C 4599   3.442   2.680   5.807  0.0422  0.2817 -0.4286
   35MOL0     C 4600   3.540   2.798   5.778 -0.2951 -0.2155 -0.6884
   35MOL0     C 4601   3.634   2.833   5.902 -0.4320  0.9574 -0.3496
   35MOL0     C 4602   3.755   2.933   5.852 -1.1485  0.3241 -0.1850
   35MOL0     C 4603   3.863   2.949   5.969 -0.2838  0.1758 -0.3582
   35MOL0     C 4604   3.961   2.832   5.978  0.4942  0.1002 -0.3155
   35MOL0     C 4605   4.019   2.777   5.841  0.1052 -0.4887 -0.7278
   35MOL0     C 4606   4.119   2.664   5.872  0.1547  0.6460  0.0305
   35MOL0     N 4607   4.252   2.718   5.891 -0.7012 -0.5648 -0.7222
   35MOL0     C 4608   4.300   2.756   6.016  0.1266 -0.1560  0.3398
   35MOL0     C 4609   4.436   2.757   6.008 -0.4837  0.1358  0.8582
   35MOL0     C 4610   4.535   2.795   6.116 -0.5074  0.9564 -0.1945
   35MOL0     C 4611   4.631   2.676   6.147 -0.6914  0.5047 -0.1556
   35MOL0     C 4612   4.559   2.563   6.217  0.6170 -0.0087 -0.0744
   35MOL0     C 4613   4.657   2.477   6.312  0.7613  0.1442  0.3343
   35MOL0     O 4614   4.705   2.568   6.413  0.1080  0.2028 -1.2463
   35MOL0     C 4615   4.823   2.538   6.476  0.1564  0.5108  0.1538
   35MOL0     C 4616   4.897   2.415   6.471  0.1384  0.1642  0.0725
   35MOL0     C 4617   5.026   2.406   6.532  0.4228 -0.1273  0.9043
   35MOL0     C 4618   5.082   2.520   6.600  0.2027  0.2152  0.6288
   35MOL0     C 4619   5.227   2.535   6.621 -0.1003 -0.3094  0.6182
   35MOL0     O 4620   5.268   2.630   6.704 -0.1630  0.3131  0.3655
   35MOL0     C 4621   5.396   2.685   6.694  0.5410  0.7067  0.7397
   35MOL0     C 4622   5.463   2.708   6.816  0.3331 -0.3485 -1.1933
   35MOL0     C 4623   5.604   2.740   6.806  0.1046 -0.2391 -0.5640
   35MOL0     C 4624   5.670   2.753   6.680 -0.1342 -0.5015 -0.1640
   35MOL0     O 4625   5.799   2.796   6.681 -0.0513  0.1659  0.2112
   35MOL0     C 4626   5.833   2.918   6.615  0.3933  0.0485 -0.5370
   35MOL0     C 4627   5.945   2.981   6.691  0.0311  0.1058 -0.0900
   35MOL0     C 4628   6.007   3.103   6.620  0.0781  0.1657 -0.0100
   35MOL0     C 4629   6.135   3.087   6.544 -1.0976  0.1627 -0.2915
   35MOL0     C 4630   6.249   3.046   6.650  0.1136  0.1774 -0.6694
   35MOL0     C 4631   6.385   3.016   6.594  0.2777 -0.0619 -0.0098
   35MOL0     C 4632   6.495   3.005   6.698  0.4735  0.2347 -0.8736
   35MOL0     C 4633   6.634   2.986   6.632 -0.0435  0.0340 -0.3916
   35MOL0    Cl 4634   6.767   3.002   6.746 -0.2632 -0.0481 -0.0037
   35MOL0     C 4635   5.600   2.734   6.565 -0.8903  0.4471 -0.6489
   35MOL0     C 4636   5.463   2.699   6.573  0.7151  0.4881  0.5437
   35MOL0     O 4637   5.296   2.451   6.574 -0.0036  0.2919 -0.0807
   35MOL0     C 4638   5.001   2.638   6.608  0.3703 -0.0565  0.4716
   35MOL0     C 4639   4.879   2.649   6.542  0.1310 -0.0909  0.4976
   35MOL0     N 4640   4.468   2.744   5.870  0.0320  1.0116  0.6836
   35MOL0     N 4641   4.353   2.716   5.806 -0.0845  0.4881  0.2953
   35MOL0     C 4642   3.275   2.477   5.959  0.3170 -0.1353 -0.2350
   35MOL0     C 4643   3.155   2.402   5.962 -0.1913 -0.4569  0.2077
   35MOL0     C 4644   2.694   2.295   5.916 -0.0715  0.1634 -0.7485
   35MOL0     C 4645   2.721   2.181   5.999  0.6140  0.3005 -0.3366
   35MOL0     C 4646   2.618   2.087   6.024  0.0329 -0.3197 -0.9275
   35MOL0     C 4647   2.484   2.105   5.997 -1.5698 -0.0463 -0.9827
   35MOL0     O 4648   2.392   2.020   6.043 -0.2069 -0.0649 -0.1368
   35MOL0     C 4649   2.263   2.067   6.077 -0.0036 -0.3374  1.1962
   35MOL0     C 4650   2.198   1.944   6.137  0.5722  1.4115 -1.1926
   35MOL0     C 4651   2.065   1.981   6.214 -0.0846 -0.3640  0.2691
   35MOL0     C 4652   1.954   1.983   6.111  0.4096  0.1976 -0.6219
   35MOL0     C 4653   1.842   2.062   6.175 -0.2789  0.7250 -0.0758
   35MOL0     C 4654   1.764   2.138   6.237 -0.6033  0.2438 -0.3019
   35MOL0     C 4655   2.459   2.215   5.917  0.7492  0.3635  0.5375
   35MOL0     C 4656   2.564   2.300   5.866 -0.3104 -0.1688  0.1948
   35MOL0     C 4657   2.517   2.408   5.764 -0.4263 -0.6534  0.4967
   35MOL0     H 4658   2.935   2.640   5.869  0.7938  0.9867 -1.6265
   35MOL0     H 4659   3.153   2.776   5.906  0.4099 -0.2555  2.8560
   35MOL0     H 4660   3.495   2.585   5.796 -0.4896  0.1544 -2.3528
   35MOL0     H 4661   3.361   2.682   5.734  1.1278  1.6476 -1.6777
   35MOL0     H 4662   3.473   2.882   5.758 -1.5981 -1.1837 -0.5463
   35MOL0     H 4663   3.595   2.779   5.686  1.7885  0.0097  0.4511
   35MOL0     H 4664   3.689   2.744   5.934 -0.0197  0.6664 -1.7617
   35MOL0     H 4665   3.570   2.871   5.982 -1.3059 -4.1401  1.7783
   35MOL0     H 4666   3.807   2.897   5.763  1.4207  1.1060  0.9143
   35MOL0     H 4667   3.719   3.032   5.824 -1.7633  0.1656  0.0153
   35MOL0     H 4668   3.925   3.037   5.948  1.0621 -0.9812 -1.4145
   35MOL0     H 4669   3.802   2.962   6.059 -3.6632 -0.0593 -2.4086
   35MOL0     H 4670   4.046   2.863   6.039 -0.7579 -1.3654  2.3666
   35MOL0     H 4671   3.909   2.747   6.024  3.1161 -0.6515  1.5123
   35MOL0     H 4672   4.054   2.867   5.790  4.4573 -2.4748 -1.7021
   35MOL0     H 4673   3.940   2.734   5.778  1.4882  0.5172 -3.3106
   35MOL0     H 4674   4.089   2.596   5.952 -0.5460 -1.5195 -1.9630
   35MOL0     H 4675   4.121   2.592   5.790 -0.9730 -0.8983  1.2830
   35MOL0     H 4676   4.234   2.760   6.102 -0.0891 -4.0188  0.5167
   35MOL0     H 4677   4.588   2.885   6.083 -3.8281  2.4740 -1.9645
   35MOL0     H 4678   4.479   2.828   6.204  0.1492 -1.1472  1.0789
   35MOL0     H 4679   4.658   2.640   6.047 -2.2460  0.7004 -0.6606
   35MOL0     H 4680   4.722   2.718   6.191 -0.3181  0.7371 -1.1187
   35MOL0     H 4681   4.505   2.509   6.139  0.4834 -1.6776  1.1171
   35MOL0     H 4682   4.484   2.599   6.288 -0.9614  2.7722 -2.8641
   35MOL0     H 4683   4.732   2.426   6.251 -1.5314 -1.1077 -1.6413
   35MOL0     H 4684   4.597   2.400   6.362 -2.1516  3.4247  2.3270
   35MOL0     H 4685   4.854   2.329   6.421  2.0302  0.3898 -2.0836
   35MOL0     H 4686   5.082   2.314   6.514  1.5844  0.4255  1.5771
   35MOL0     H 4687   5.410   2.703   6.910  0.4473 -1.7796 -1.1740
   35MOL0     H 4688   5.656   2.784   6.891  0.8118 -0.7416 -0.7255
   35MOL0     H 4689   5.867   2.905   6.512  0.0182  1.6390 -0.8860
   35MOL0     H 4690   5.746   2.984   6.615 -0.6905 -1.3311 -0.6595
   35MOL0     H 4691   5.916   3.013   6.792  2.3820 -1.9416  1.3421
   35MOL0     H 4692   6.026   2.910   6.708  1.9061  2.2663  0.5164
   35MOL0     H 4693   5.930   3.146   6.556 -0.0766  1.7250  1.1567
   35MOL0     H 4694   6.023   3.179   6.697 -0.6580  2.2577 -1.8365
   35MOL0     H 4695   6.165   3.184   6.504 -0.3817  0.7496  1.5822
   35MOL0     H 4696   6.132   3.006   6.470  1.3363 -1.8064  1.5854
   35MOL0     H 4697   6.216   2.958   6.706 -0.2571  1.8955  1.9981
   35MOL0     H 4698   6.256   3.121   6.729  0.1187 -3.0327  2.6382
   35MOL0     H 4699   6.383   2.921   6.540 -0.0677 -0.8686  1.3666
   35MOL0     H 4700   6.412   3.101   6.531 -1.4947 -0.1618 -0.9588
   35MOL0     H 4701   6.479   2.914   6.757 -0.9115  1.2934  0.4775
   35MOL0     H 4702   6.498   3.093   6.763 -2.3290  0.0229 -0.3441
   35MOL0     H 4703   6.639   2.885   6.590 -0.2692 -0.5846  1.0055
   35MOL0     H 4704   6.640   3.044   6.540 -0.4959 -0.1185 -0.5214
   35MOL0     H 4705   5.649   2.743   6.469  0.1494  1.2483 -0.0702
   35MOL0     H 4706   5.411   2.681   6.479  0.6751  1.0654  0.4466
   35MOL0     H 4707   5.052   2.718   6.663  1.6124 -0.9025  0.5796
   35MOL0     H 4708   4.836   2.749   6.535  0.0416 -0.2118 -0.9590
   35MOL0     H 4709   3.378   2.442   5.967  0.4216  0.2662  0.2250
   35MOL0     H 4710   3.156   2.294   5.960 -2.7844 -0.5566  0.4431
   35MOL0     H 4711   2.819   2.150   6.033 -0.1684 -1.7116  0.2553
   35MOL0     H 4712   2.648   2.000   6.083 -1.1140 -0.3522 -0.3742
   35MOL0     H 4713   2.207   2.089   5.985  0.8032 -0.9596  0.5472
   35MOL0     H 4714   2.282   2.149   6.146  3.1000 -0.0937  0.1953
   35MOL0     H 4715   2.269   1.895   6.204 -3.4712 -1.3189  1.5564
   35MOL0     H 4716   2.176   1.869   6.060 -3.6421  1.0093  0.1296
   35MOL0     H 4717   2.076   2.083   6.254  3.3615 -0.2895 -0.4999
   35MOL0     H 4718   2.058   1.915   6.301  4.1581  2.4389  3.1808
   35MOL0     H 4719   1.973   2.047   6.023 -2.8349  1.7408 -0.3422
   35MOL0     H 4720   1.922   1.882   6.083 -2.8940  0.5762  1.2884
   35MOL0     H 4721   1.698   2.209   6.283 -1.6288 -0.9758  0.1715
   35MOL0     H 4722   2.362   2.233   5.871  1.9155  3.1457 -1.1287
   35MOL0     H 4723   2.516   2.504   5.818 -0.4833  1.1397 -2.4846
   35MOL0     H 4724   2.590   2.409   5.683  0.8971  0.8752  1.6387
   35MOL0     H 4725   2.415   2.382   5.735 -1.0770  1.1502  1.0110
   36MOL0     O 4726   5.730   7.544   4.186 -0.5776  0.0516  0.0379
   36MOL0     C 4727   5.660   7.582   4.087 -0.0457  0.8843 -0.8028
   36MOL0     O 4728   5.565   7.507   4.041  0.5880 -0.2384  0.5903
   36MOL0     C 4729   5.543   7.394   4.108  0.5619  0.0435 -0.5106
   36MOL0     C 4730   5.628   7.286   4.095  0.5686  0.1962 -0.2122
   36MOL0     C 4731   5.584   7.162   4.162  0.1109 -0.1388  0.7486
   36MOL0     C 4732   5.455   7.149   4.215  0.2351 -0.1050  0.2662
   36MOL0     O 4733   5.400   7.038   4.268  0.0144 -0.2920  0.1037
   36MOL0     C 4734   5.441   6.906   4.210 -0.2738 -0.2129  0.1071
   36MOL0     C 4735   5.328   6.803   4.243 -0.2999  0.5743 -0.4855
   36MOL0     C 4736   5.195   6.849   4.200  0.1640  0.3906  0.3465
   36MOL0     C 4737   5.100   6.908   4.295  0.0632  0.3422 -0.1004
   36MOL0     C 4738   4.969   6.963   4.224  0.2466 -0.3763  0.5677
   36MOL0     C 4739   4.881   7.025   4.342 -0.7644  0.5275  0.8668
   36MOL0     C 4740   4.746   7.082   4.295 -0.0388  0.1755 -0.2311
   36MOL0     C 4741   4.759   7.189   4.181 -0.0031  0.2994  0.5519
   36MOL0     N 4742   4.846   7.299   4.218  1.1772 -0.0261 -0.7073
   36MOL0     C 4743   4.811   7.408   4.300 -0.0236  0.6699 -0.4530
   36MOL0     C 4744   4.935   7.467   4.323 -0.4749 -0.2071 -0.4539
   36MOL0     C 4745   4.959   7.600   4.388  0.0924  0.7852  0.0523
   36MOL0     C 4746   5.059   7.694   4.315 -0.4264 -0.1399 -0.4618
   36MOL0     C 4747   5.101   7.810   4.396 -0.4249  0.1796  1.1015
   36MOL0     C 4748   5.192   7.916   4.328  0.2668  0.4804 -0.0502
   36MOL0     O 4749   5.127   7.974   4.208 -0.0513 -0.3084  0.4767
   36MOL0     C 4750   5.188   8.068   4.134  0.1820  0.0538 -0.9761
   36MOL0     C 4751   5.120   8.117   4.026  0.0693 -1.0577  0.5163
   36MOL0     C 4752   5.175   8.220   3.956 -0.4343  0.4450  0.1492
   36MOL0     C 4753   5.301   8.263   3.962 -0.0197  0.6053 -0.0391
   36MOL0     C 4754   5.347   8.375   3.880 -0.2375 -0.7210 -0.0873
   36MOL0     O 4755   5.466   8.432   3.925 -0.0532 -0.7361 -0.4558
   36MOL0     C 4756   5.516   8.553   3.887  0.5840 -0.2601 -0.0511
   36MOL0     C 4757   5.645   8.578   3.936 -0.3035 -0.4370 -0.6176
   36MOL0     C 4758   5.712   8.703   3.920 -0.3144  0.0407  1.2524
   36MOL0     C 4759   5.647   8.809   3.854  0.4128  0.0499  0.6940
   36MOL0     O 4760   5.689   8.936   3.843  0.4064  0.2660  0.1222
   36MOL0     C 4761   5.828   8.942   3.815  0.0345  0.4630 -0.4233
   36MOL0     C 4762   5.911   8.992   3.936  0.0040 -0.1473  0.6676
   36MOL0     C 4763   6.057   8.989   3.903  0.0774  0.4973 -0.0708
   36MOL0     C 4764   6.148   9.038   4.019  0.2499 -1.0111  0.0843
   36MOL0     C 4765   6.290   8.990   4.013 -1.1376  0.2835  0.7045
   36MOL0     C 4766   6.370   9.055   4.133 -0.5129  0.5054  0.6934
   36MOL0     C 4767   6.524   9.050   4.111 -0.7974  0.3435  0.8365
   36MOL0     C 4768   6.583   9.088   4.248 -0.6998 -0.8312  0.3885
   36MOL0    Cl 4769   6.652   8.946   4.345  0.4316 -0.2683  0.0533
   36MOL0     C 4770   5.517   8.786   3.812  0.8189  0.1827  0.8531
   36MOL0     C 4771   5.447   8.665   3.832 -0.4549  0.2277  0.0541
   36MOL0     O 4772   5.280   8.421   3.783 -0.0204  0.1599 -0.1433
   36MOL0     C 4773   5.374   8.218   4.078 -0.3814 -0.3077  0.5369
   36MOL0     C 4774   5.315   8.113   4.165  0.2973  0.0419 -0.2472
   36MOL0     N 4775   5.028   7.398   4.254 -0.4663  0.0481  0.2917
   36MOL0     N 4776   4.972   7.306   4.183 -0.0788 -0.3081  0.4986
   36MOL0     C 4777   5.380   7.264   4.223  0.5497 -0.6398 -0.9460
   36MOL0     C 4778   5.419   7.387   4.171 -0.0339  0.6357 -0.3738
   36MOL0     C 4779   5.675   7.713   4.017 -0.4452 -0.6578  0.2803
   36MOL0     C 4780   5.566   7.777   3.951 -0.4954 -0.2882  0.2442
   36MOL0     C 4781   5.569   7.901   3.883  0.2467  0.4601 -0.7821
   36MOL0     C 4782   5.691   7.959   3.862 -0.7599  0.5012 -0.1234
   36MOL0     O 4783   5.714   8.077   3.793 -0.8136 -0.7597 -0.2464
   36MOL0     C 4784   5.611   8.150   3.723  0.3011  0.3380 -0.0583
   36MOL0     C 4785   5.668   8.285   3.675  0.1480 -0.0275  0.6966
   36MOL0     C 4786   5.784   8.258   3.582 -0.3065 -0.1080 -0.4887
   36MOL0     C 4787   5.832   8.392   3.531  0.2665  0.1690 -0.5344
   36MOL0     C 4788   5.939   8.382   3.431  0.3716  0.6248 -0.4586
   36MOL0     C 4789   6.034   8.386   3.350  0.0871 -0.2568  0.3835
   36MOL0     C 4790   5.806   7.907   3.919 -1.3588  0.1216 -0.1192
   36MOL0     C 4791   5.802   7.786   3.998  0.4992 -0.3808  0.0004
   36MOL0     C 4792   5.926   7.737   4.060 -0.6820 -0.5218 -0.5486
   36MOL0     H 4793   5.710   7.293   4.024 -0.3286  0.4836 -1.2472
   36MOL0     H 4794   5.635   7.068   4.143 -1.1586 -0.5829 -0.7939
   36MOL0     H 4795   5.458   6.919   4.103  1.3754  2.3423  0.5954
   36MOL0     H 4796   5.533   6.868   4.255 -0.7607 -1.8618 -0.2369
   36MOL0     H 4797   5.328   6.784   4.350 -4.1575 -0.4396 -0.5146
   36MOL0     H 4798   5.353   6.711   4.189  0.4892 -0.5241  1.6724
   36MOL0     H 4799   5.140   6.763   4.160 -1.8624  0.8254  2.0233
   36MOL0     H 4800   5.202   6.919   4.116 -0.0478 -2.0470 -1.8564
   36MOL0     H 4801   5.067   6.828   4.361  1.8340  1.4185  2.2153
   36MOL0     H 4802   5.152   6.995   4.336 -1.4314  0.1144  2.4905
   36MOL0     H 4803   5.005   7.026   4.142  2.3947 -2.8087 -0.5137
   36MOL0     H 4804   4.907   6.881   4.186 -0.5548 -0.1495  1.3539
   36MOL0     H 4805   4.874   6.947   4.419  0.6324 -1.0449 -0.5237
   36MOL0     H 4806   4.935   7.105   4.394 -0.8541  1.0146  0.2166
   36MOL0     H 4807   4.700   7.134   4.380  2.8872 -1.3275  2.5240
   36MOL0     H 4808   4.677   7.003   4.265 -2.4639  2.6640 -1.6423
   36MOL0     H 4809   4.797   7.139   4.091  1.4385  1.2841  0.5846
   36MOL0     H 4810   4.657   7.227   4.167  0.0975  0.6974  0.8753
   36MOL0     H 4811   4.714   7.441   4.335 -0.5336 -1.0598 -0.1234
   36MOL0     H 4812   4.866   7.656   4.383 -0.0678  0.4969 -0.1972
   36MOL0     H 4813   4.986   7.588   4.493 -1.1587 -1.1594  0.1938
   36MOL0     H 4814   5.157   7.653   4.288 -0.2235  1.0119 -1.5318
   36MOL0     H 4815   5.017   7.714   4.216 -0.3487 -1.7916 -0.8593
   36MOL0     H 4816   5.148   7.780   4.490 -0.5290  2.3462  1.9158
   36MOL0     H 4817   5.018   7.872   4.433 -0.1111  1.9421 -0.9611
   36MOL0     H 4818   5.289   7.869   4.306  0.2089 -0.0567  0.8390
   36MOL0     H 4819   5.195   7.997   4.401  0.3071 -0.2091  0.7205
   36MOL0     H 4820   5.023   8.076   3.998 -0.1749  1.8444 -3.9999
   36MOL0     H 4821   5.107   8.280   3.896 -2.1102 -0.2910  1.2197
   36MOL0     H 4822   5.701   8.494   3.976 -1.9952 -1.6728 -0.7609
   36MOL0     H 4823   5.813   8.714   3.959  0.3122 -0.2592 -0.2154
   36MOL0     H 4824   5.869   8.850   3.773 -0.5658  0.3290 -0.7298
   36MOL0     H 4825   5.846   9.011   3.731 -1.1178  3.9515  1.9609
   36MOL0     H 4826   5.868   9.088   3.966  0.4610  0.6035 -0.9661
   36MOL0     H 4827   5.892   8.923   4.019  0.2716 -0.2131  0.6781
   36MOL0     H 4828   6.072   8.881   3.892 -2.0930 -0.4255  4.1569
   36MOL0     H 4829   6.080   9.045   3.811  1.3672 -0.8089 -0.5835
   36MOL0     H 4830   6.103   8.997   4.110  0.5106 -0.8091  0.3049
   36MOL0     H 4831   6.134   9.147   4.016 -1.7891 -1.2404 -0.2911
   36MOL0     H 4832   6.327   8.999   3.910 -3.7080 -1.8642 -0.5499
   36MOL0     H 4833   6.308   8.883   4.023  0.3493  0.3515 -0.8115
   36MOL0     H 4834   6.348   9.162   4.127 -1.3709  0.4478  2.1642
   36MOL0     H 4835   6.329   9.022   4.229  0.7941 -0.1078  1.0689
   36MOL0     H 4836   6.542   9.126   4.035  1.3839  1.2773  2.1885
   36MOL0     H 4837   6.562   8.953   4.076 -1.3155  0.9373 -1.5627
   36MOL0     H 4838   6.663   9.162   4.232 -1.0023 -1.0170 -2.5382
   36MOL0     H 4839   6.510   9.141   4.310 -0.0440  0.6838 -0.0748
   36MOL0     H 4840   5.459   8.865   3.765  1.0590  0.1313  0.4675
   36MOL0     H 4841   5.341   8.663   3.808 -0.6043  1.3107  0.5758
   36MOL0     H 4842   5.466   8.273   4.095 -0.5345  0.7117 -1.5071
   36MOL0     H 4843   5.360   8.078   4.257 -0.1771  0.5631  0.1853
   36MOL0     H 4844   5.289   7.253   4.280 -1.2304  2.1627 -2.9788
   36MOL0     H 4845   5.354   7.474   4.169  0.7375  1.2090 -1.6221
   36MOL0     H 4846   5.472   7.726   3.967 -0.1397 -0.9980  0.1051
   36MOL0     H 4847   5.481   7.942   3.835 -1.9742  0.0849  2.5747
   36MOL0     H 4848   5.532   8.173   3.795  0.0050 -1.8640  0.3851
   36MOL0     H 4849   5.571   8.088   3.642  1.3614 -0.4013 -0.0272
   36MOL0     H 4850   5.701   8.343   3.761  1.3508  1.4354 -0.7011
   36MOL0     H 4851   5.587   8.337   3.622  0.5450 -1.5412 -1.5512
   36MOL0     H 4852   5.750   8.189   3.504  2.6292 -2.0890 -0.1595
   36MOL0     H 4853   5.859   8.210   3.644  0.5057  0.0340 -1.3455
   36MOL0     H 4854   5.743   8.439   3.488  0.2601 -0.4659 -1.2379
   36MOL0     H 4855   5.870   8.452   3.615 -0.0001  0.3997 -0.5755
   36MOL0     H 4856   6.113   8.379   3.278 -1.5394  2.6521 -1.8728
   36MOL0     H 4857   5.900   7.962   3.911  1.7306 -4.2509  2.1236
   36MOL0     H 4858   6.012   7.804   4.048 -0.7274 -0.1960  0.8502
   36MOL0     H 4859   5.918   7.747   4.168  0.0393  1.0005 -0.6031
   36MOL0     H 4860   5.960   7.636   4.034  0.8900  0.4455 -2.6022
   37MOL0     O 4861   5.148   4.858  10.710 -0.5762 -0.1618 -0.4997
   37MOL0     C 4862   5.090   4.909  10.803  0.1017 -0.5277 -0.0155
   37MOL0     O 4863   5.141   4.987  10.900 -0.3874  0.4074  0.4781
   37MOL0     C 4864   5.269   5.024  10.893  0.9774  0.6452  0.6957
   37MOL0     C 4865   5.359   4.983  10.988 -0.4281 -0.0630 -0.9402
   37MOL0     C 4866   5.486   5.038  10.987 -0.1118  0.4780  0.3373
   37MOL0     C 4867   5.523   5.138  10.897  0.8613  0.3529  0.1187
   37MOL0     O 4868   5.642   5.209  10.915  0.5189 -0.1608  0.6489
   37MOL0     C 4869   5.768   5.146  10.937  0.2879  0.0218 -0.1133
   37MOL0     C 4870   5.866   5.246  10.989 -0.9166 -0.5385 -0.0347
   37MOL0     C 4871   6.004   5.195  11.021  0.3245 -0.5494  0.1091
   37MOL0     C 4872   6.095   5.303  11.076 -0.0189  0.0902  0.5340
   37MOL0     C 4873   6.243   5.259  11.087 -0.2065 -1.0162 -1.0240
   37MOL0     C 4874   6.329   5.328  11.197  0.1964  0.1943 -0.2377
   37MOL0     C 4875   6.485   5.286  11.205  0.5248 -0.7088 -0.0064
   37MOL0     C 4876   6.545   5.375  11.322  0.8145  0.0449  0.5911
   37MOL0     N 4877   6.686   5.330  11.341 -0.4783 -0.2209 -0.2701
   37MOL0     C 4878   6.779   5.288  11.240  0.3542 -0.6465  0.1061
   37MOL0     C 4879   6.884   5.229  11.312  0.2978 -0.0404  0.5832
   37MOL0     C 4880   7.000   5.163  11.248 -0.1570 -0.1220 -0.5495
   37MOL0     C 4881   6.973   5.009  11.227  0.1419 -0.0936 -0.5946
   37MOL0     C 4882   6.913   4.931  11.339  0.5218  0.0315  0.4404
   37MOL0     C 4883   7.008   4.885  11.445  0.0552  0.4412  0.0677
   37MOL0     O 4884   7.083   4.766  11.402  0.0369 -1.3409 -0.8508
   37MOL0     C 4885   7.139   4.688  11.502  0.3171 -0.2181 -0.3090
   37MOL0     C 4886   7.166   4.736  11.627  0.3901  0.1428 -0.9135
   37MOL0     C 4887   7.221   4.649  11.728  0.7557 -0.1477 -0.0799
   37MOL0     C 4888   7.253   4.514  11.696 -0.8700  0.1043  0.0315
   37MOL0     C 4889   7.316   4.424  11.801  0.5067 -0.2303  0.7696
   37MOL0     O 4890   7.365   4.305  11.754  0.1606 -0.1652  0.6087
   37MOL0     C 4891   7.425   4.214  11.835  0.5572  0.1758  0.8487
   37MOL0     C 4892   7.539   4.155  11.778 -0.7516 -0.1814 -0.1690
   37MOL0     C 4893   7.602   4.054  11.856 -0.2471 -0.8140 -0.2982
   37MOL0     C 4894   7.569   4.019  11.985 -0.5631 -0.2945  1.0639
   37MOL0     O 4895   7.658   3.931  12.048  0.2228 -0.4425  0.0410
   37MOL0     C 4896   7.626   3.907  12.187  0.1539  1.0513 -0.3076
   37MOL0     C 4897   7.677   3.767  12.230 -0.1429  0.4546  0.1448
   37MOL0     C 4898   7.824   3.770  12.229 -1.2539 -0.6792  0.0598
   37MOL0     C 4899   7.887   3.637  12.296  0.3604 -0.3783  0.2561
   37MOL0     C 4900   8.037   3.642  12.276 -0.2511  0.2360  0.3996
   37MOL0     C 4901   8.108   3.516  12.311  0.5029 -0.2305 -0.4949
   37MOL0     C 4902   8.258   3.525  12.270 -0.5271  0.6000  0.1707
   37MOL0     C 4903   8.334   3.397  12.313  0.6189  0.0772 -0.5981
   37MOL0    Cl 4904   8.512   3.437  12.301  0.0185 -0.0199 -0.0209
   37MOL0     C 4905   7.458   4.087  12.040 -0.1137 -0.7050  0.4270
   37MOL0     C 4906   7.389   4.180  11.963  0.2562  0.6655 -0.0459
   37MOL0     O 4907   7.315   4.468  11.917 -0.3558 -0.4663 -0.1003
   37MOL0     C 4908   7.220   4.465  11.563 -0.7795  0.0744  0.6124
   37MOL0     C 4909   7.168   4.556  11.472 -0.2937 -0.1948 -0.2631
   37MOL0     N 4910   6.853   5.253  11.449 -0.3246 -0.1969  0.1767
   37MOL0     N 4911   6.740   5.313  11.469 -0.3343  0.4521 -0.2339
   37MOL0     C 4912   5.427   5.178  10.807  0.5819  0.0646  0.5820
   37MOL0     C 4913   5.302   5.115  10.797  0.7749  0.0009 -0.5634
   37MOL0     C 4914   4.945   4.873  10.833 -0.8052  0.1998  0.5766
   37MOL0     C 4915   4.866   4.959  10.911 -0.4411 -0.1703 -0.3062
   37MOL0     C 4916   4.738   4.922  10.959 -0.7131 -0.7148  0.5341
   37MOL0     C 4917   4.678   4.808  10.903 -0.0250  0.4036 -1.0087
   37MOL0     O 4918   4.554   4.766  10.952  0.0363  0.1365  0.0620
   37MOL0     C 4919   4.489   4.658  10.898 -0.0601 -0.0128 -0.4024
   37MOL0     C 4920   4.357   4.642  10.968  0.6227 -0.1668 -0.2042
   37MOL0     C 4921   4.284   4.512  10.928  0.2869  1.0777  0.0883
   37MOL0     C 4922   4.325   4.388  10.993 -0.2333  0.4172 -0.2579
   37MOL0     C 4923   4.292   4.373  11.134  0.0854 -0.2288  0.3219
   37MOL0     C 4924   4.267   4.357  11.251 -0.4271  0.1041 -0.1246
   37MOL0     C 4925   4.738   4.731  10.804  0.2150 -0.4001  0.4441
   37MOL0     C 4926   4.877   4.761  10.770  1.2270 -0.4404 -0.7815
   37MOL0     C 4927   4.933   4.661  10.672 -0.4620 -0.4560 -0.4260
   37MOL0     H 4928   5.330   4.911  11.065  1.0069  0.9021  0.5755
   37MOL0     H 4929   5.563   5.003  11.055 -1.0779  0.5422  1.5032
   37MOL0     H 4930   5.764   5.061  11.004  0.0911  0.6446  0.6788
   37MOL0     H 4931   5.799   5.108  10.839  2.0591 -2.5576  1.3479
   37MOL0     H 4932   5.824   5.286  11.081 -0.1495 -0.1379  0.1471
   37MOL0     H 4933   5.858   5.324  10.913 -4.7130 -0.2797  0.4350
   37MOL0     H 4934   6.045   5.169  10.922 -3.0531 -0.3287 -1.4878
   37MOL0     H 4935   6.014   5.099  11.074  2.0127 -0.8023 -0.5947
   37MOL0     H 4936   6.093   5.391  11.012 -1.5866  2.7853  3.9698
   37MOL0     H 4937   6.059   5.336  11.174 -1.0223 -0.6047  0.4067
   37MOL0     H 4938   6.256   5.153  11.112 -0.4602 -0.3770  2.1043
   37MOL0     H 4939   6.294   5.285  10.993  4.3886 -1.3113  1.1381
   37MOL0     H 4940   6.338   5.432  11.165  1.8978  0.3058  0.5349
   37MOL0     H 4941   6.275   5.319  11.292 -1.0332 -0.0393 -0.9421
   37MOL0     H 4942   6.533   5.304  11.108 -0.8405  0.6862 -0.4768
   37MOL0     H 4943   6.499   5.183  11.237  0.8117 -0.6562  0.0432
   37MOL0     H 4944   6.544   5.483  11.300  2.9674 -0.5404 -3.4548
   37MOL0     H 4945   6.491   5.357  11.415  0.4464 -2.9359 -0.1226
   37MOL0     H 4946   6.773   5.292  11.131  0.6831  3.3999  0.1179
   37MOL0     H 4947   7.026   5.201  11.149  1.1673 -0.0103 -0.1746
   37MOL0     H 4948   7.088   5.167  11.312  1.4933  1.6191 -2.7447
   37MOL0     H 4949   6.898   4.998  11.149  0.5036 -2.8217 -0.6651
   37MOL0     H 4950   7.066   4.959  11.196  1.3107 -1.2504  3.9195
   37MOL0     H 4951   6.871   4.838  11.300  1.6179 -0.7935  1.1730
   37MOL0     H 4952   6.822   4.977  11.380  1.0762  0.3266  1.3805
   37MOL0     H 4953   6.957   4.862  11.539  2.5475  2.3795  2.0655
   37MOL0     H 4954   7.073   4.969  11.472  2.7200 -1.1688 -0.9264
   37MOL0     H 4955   7.145   4.839  11.655  0.2979 -0.9360  3.9427
   37MOL0     H 4956   7.233   4.687  11.829 -3.1435  0.7135  0.1853
   37MOL0     H 4957   7.582   4.178  11.682  1.8162  2.8822  1.5362
   37MOL0     H 4958   7.689   4.005  11.814  0.8460  0.3886  0.5159
   37MOL0     H 4959   7.653   3.987  12.257  1.0012 -0.0678  0.6737
   37MOL0     H 4960   7.518   3.894  12.199  0.4959  0.8378  4.6248
   37MOL0     H 4961   7.642   3.752  12.332  1.0948 -0.0300  0.5056
   37MOL0     H 4962   7.651   3.686  12.161  1.1835 -0.2841  0.4743
   37MOL0     H 4963   7.862   3.778  12.127 -0.5857 -2.1030  0.1822
   37MOL0     H 4964   7.870   3.849  12.290 -1.8611  2.1342 -2.8666
   37MOL0     H 4965   7.848   3.549  12.245 -0.4577 -0.4565  1.0034
   37MOL0     H 4966   7.870   3.628  12.404  1.0790 -2.0020  0.2647
   37MOL0     H 4967   8.077   3.728  12.330 -0.2897  1.3718 -1.3168
   37MOL0     H 4968   8.045   3.663  12.169 -0.2823 -2.0527 -0.1039
   37MOL0     H 4969   8.101   3.500  12.419  1.3886  2.3276  0.0045
   37MOL0     H 4970   8.063   3.436  12.250  0.5511 -1.8057  1.4223
   37MOL0     H 4971   8.279   3.621  12.318  2.9067  0.8383 -1.4754
   37MOL0     H 4972   8.263   3.536  12.161 -1.5325  0.3812  0.0870
   37MOL0     H 4973   8.310   3.360  12.414 -1.5902 -0.2429 -1.1808
   37MOL0     H 4974   8.299   3.321  12.243 -3.3865 -0.3712  1.5973
   37MOL0     H 4975   7.425   4.072  12.142 -2.8694  1.1402 -0.0904
   37MOL0     H 4976   7.309   4.240  12.006  0.3078  0.7299 -0.0414
   37MOL0     H 4977   7.233   4.362  11.530 -1.7670  0.8461 -2.4191
   37MOL0     H 4978   7.140   4.513  11.377  4.3434 -0.3501 -1.7981
   37MOL0     H 4979   5.446   5.261  10.739 -1.3822  0.4561  0.4468
   37MOL0     H 4980   5.235   5.149  10.718  0.2841  0.6897  0.1306
   37MOL0     H 4981   4.919   5.046  10.946  0.6848 -0.8161 -0.3493
   37MOL0     H 4982   4.674   4.987  11.018 -1.7145  0.4983 -1.7450
   37MOL0     H 4983   4.552   4.574  10.928 -1.0604 -0.5872  0.1560
   37MOL0     H 4984   4.468   4.660  10.790  1.5089  1.3749 -0.7168
   37MOL0     H 4985   4.299   4.733  10.947  0.8636  0.3979  1.3837
   37MOL0     H 4986   4.370   4.653  11.076  0.9615 -0.9048 -0.1671
   37MOL0     H 4987   4.304   4.500  10.821  0.5279 -0.1136  0.2594
   37MOL0     H 4988   4.177   4.527  10.946 -0.6276 -0.2103 -3.3191
   37MOL0     H 4989   4.257   4.313  10.951 -0.5569  1.3063 -1.3765
   37MOL0     H 4990   4.427   4.365  10.959  0.0659  0.1262  0.7969
   37MOL0     H 4991   4.255   4.330  11.354 -3.2431 -1.4275 -0.7505
   37MOL0     H 4992   4.692   4.651  10.747  2.1146 -0.9089 -0.4892
   37MOL0     H 4993   5.016   4.609  10.720 -0.7936  0.0492  0.7299
   37MOL0     H 4994   4.858   4.589  10.639 -0.5375 -0.2468 -0.7098
   37MOL0     H 4995   4.975   4.716  10.588  0.0755  1.2562  0.9140
   38MOL0     O 4996   6.895   5.511   2.319  0.5760 -0.4805 -0.0825
   38MOL0     C 4997   6.925   5.472   2.207  0.1260  0.5509  0.2631
   38MOL0     O 4998   7.047   5.486   2.154  0.4535  0.5067  0.0907
   38MOL0     C 4999   7.155   5.562   2.198 -0.1620 -0.1108  0.6717
   38MOL0     C 5000   7.157   5.645   2.317 -0.5236  0.6012  0.0086
   38MOL0     C 5001   7.275   5.707   2.352 -0.4110  0.0306  0.4518
   38MOL0     C 5002   7.401   5.694   2.277 -0.0424  0.4198 -0.4641
   38MOL0     O 5003   7.526   5.734   2.321  0.5241  0.0681 -0.2261
   38MOL0     C 5004   7.545   5.880   2.350  0.0748 -0.3869  0.5216
   38MOL0     C 5005   7.682   5.923   2.311 -0.3539  0.1194 -0.2785
   38MOL0     C 5006   7.713   5.897   2.161  0.3605  0.8909 -0.0537
   38MOL0     C 5007   7.605   5.963   2.068 -0.5733  0.6487  0.1935
   38MOL0     C 5008   7.656   6.010   1.935 -0.4940  0.6340  0.1978
   38MOL0     C 5009   7.705   5.885   1.836  0.0888  0.1226 -0.5095
   38MOL0     C 5010   7.687   5.922   1.690  0.8416 -0.5803  0.8330
   38MOL0     C 5011   7.755   5.825   1.590 -0.2134  0.7113 -0.8342
   38MOL0     N 5012   7.899   5.823   1.592  0.0329  0.4320 -0.0744
   38MOL0     C 5013   7.994   5.867   1.499 -0.1834 -0.5825 -0.3371
   38MOL0     C 5014   8.111   5.811   1.539 -0.2300  0.3593 -0.2390
   38MOL0     C 5015   8.243   5.815   1.463  0.0894  0.2438 -0.8392
   38MOL0     C 5016   8.326   5.939   1.510 -1.0030 -0.1443  0.1810
   38MOL0     C 5017   8.391   6.002   1.394 -0.4603 -0.1366 -0.4178
   38MOL0     C 5018   8.482   6.116   1.438 -0.0063  0.1637  0.3876
   38MOL0     O 5019   8.593   6.088   1.526  0.0295 -0.1774  0.2192
   38MOL0     C 5020   8.719   6.114   1.486 -0.8142 -0.4268 -0.2034
   38MOL0     C 5021   8.759   6.146   1.352 -0.0985  0.3564 -0.2335
   38MOL0     C 5022   8.893   6.158   1.330  0.6480 -0.5136 -0.0544
   38MOL0     C 5023   8.993   6.156   1.424 -0.3606 -0.6673 -0.0702
   38MOL0     C 5024   9.139   6.192   1.385 -0.3187 -0.3630 -0.9194
   38MOL0     O 5025   9.238   6.181   1.483  0.1805 -0.1747  0.4286
   38MOL0     C 5026   9.362   6.233   1.459 -0.4392  0.2487  0.2469
   38MOL0     C 5027   9.467   6.151   1.472  0.4503 -0.6005 -0.6534
   38MOL0     C 5028   9.595   6.208   1.461  0.7996 -0.4450 -0.2775
   38MOL0     C 5029   9.617   6.344   1.427  0.2165  0.0873 -0.6426
   38MOL0     O 5030   9.735   6.409   1.421 -0.2095  0.6367  1.0237
   38MOL0     C 5031   9.861   6.351   1.470  0.2588 -0.6522  0.8433
   38MOL0     C 5032   9.989   6.423   1.438  0.1820 -0.2379  0.5339
   38MOL0     C 5033   9.982   6.564   1.492 -0.4251 -0.1761 -0.2379
   38MOL0     C 5034  10.106   6.648   1.449  0.3888  0.1228 -0.5562
   38MOL0     C 5035  10.086   6.799   1.488  0.2462  0.1683 -0.1062
   38MOL0     C 5036  10.083   6.844   1.643 -0.4639 -0.0393  0.1780
   38MOL0     C 5037  10.218   6.855   1.708 -0.0722  0.3512 -0.8171
   38MOL0     C 5038  10.298   6.984   1.684  0.0529 -0.0837  0.0532
   38MOL0    Cl 5039  10.184   7.129   1.715 -0.2533 -0.7432 -0.0240
   38MOL0     C 5040   9.502   6.420   1.401  0.0694 -0.0856  0.2515
   38MOL0     C 5041   9.379   6.371   1.427 -0.1861 -0.6155 -0.3464
   38MOL0     O 5042   9.148   6.242   1.276 -0.5790 -0.0423  0.0660
   38MOL0     C 5043   8.952   6.108   1.558  0.3541 -0.6937 -0.0809
   38MOL0     C 5044   8.815   6.098   1.582  0.3053  0.5467  0.5575
   38MOL0     N 5045   8.097   5.738   1.661  0.8065 -0.0876  0.1357
   38MOL0     N 5046   7.972   5.750   1.690 -0.1716 -0.6938 -0.1395
   38MOL0     C 5047   7.389   5.613   2.167 -0.7016  0.3958  1.2202
   38MOL0     C 5048   7.267   5.551   2.118 -0.8335 -0.8179 -0.4309
   38MOL0     C 5049   6.805   5.405   2.139  1.0252  0.0877 -0.2512
   38MOL0     C 5050   6.684   5.384   2.214  0.6457  0.5608 -0.1067
   38MOL0     C 5051   6.562   5.342   2.158 -0.4520  0.1132  0.0658
   38MOL0     C 5052   6.565   5.292   2.027 -0.6948 -1.1898 -0.4637
   38MOL0     O 5053   6.468   5.224   1.962  0.3152  0.2397 -0.2029
   38MOL0     C 5054   6.349   5.202   2.040 -1.0434  0.1359  0.4021
   38MOL0     C 5055   6.260   5.130   1.952  1.2490  0.8911  0.7642
   38MOL0     C 5056   6.194   5.014   2.022 -0.5166 -0.0504 -0.2645
   38MOL0     C 5057   6.087   4.942   1.945  0.7234  0.2200 -0.5791
   38MOL0     C 5058   6.000   4.852   2.035 -0.2411  0.4673 -0.0247
   38MOL0     C 5059   5.943   4.768   2.103 -0.5825  0.1179 -0.2552
   38MOL0     C 5060   6.688   5.307   1.957  0.8415  0.2989 -0.3706
   38MOL0     C 5061   6.808   5.365   2.001  0.2656 -0.9319  0.1162
   38MOL0     C 5062   6.929   5.371   1.911 -1.0748  0.3612  0.2687
   38MOL0     H 5063   7.070   5.646   2.381  2.2377 -1.9175  4.3039
   38MOL0     H 5064   7.277   5.763   2.445  0.5380  2.3614 -0.8752
   38MOL0     H 5065   7.467   5.935   2.297  2.1004 -0.8434 -3.2897
   38MOL0     H 5066   7.525   5.910   2.454 -2.1235  1.8713 -0.4568
   38MOL0     H 5067   7.761   5.876   2.369  0.7666  0.7444 -1.2587
   38MOL0     H 5068   7.680   6.030   2.335  0.5891  0.0197  0.2641
   38MOL0     H 5069   7.722   5.791   2.136 -0.9056  1.2792 -2.3878
   38MOL0     H 5070   7.812   5.939   2.139 -0.7443  3.1785 -0.9257
   38MOL0     H 5071   7.522   5.893   2.052  1.2544 -1.8470  1.0852
   38MOL0     H 5072   7.576   6.052   2.123  1.2129  0.9882  0.6412
   38MOL0     H 5073   7.569   6.055   1.887  1.2017  0.6000 -3.2117
   38MOL0     H 5074   7.732   6.087   1.955  0.5604 -0.1252 -0.7636
   38MOL0     H 5075   7.808   5.861   1.865 -0.0371  0.2828  0.0962
   38MOL0     H 5076   7.647   5.794   1.850 -0.1629 -0.1414 -2.8856
   38MOL0     H 5077   7.726   6.022   1.668  0.0037  0.1757  2.6263
   38MOL0     H 5078   7.579   5.927   1.673  0.7393  5.9141  0.7763
   38MOL0     H 5079   7.724   5.724   1.616  2.5169  0.0130  0.0027
   38MOL0     H 5080   7.720   5.857   1.491  0.9792 -1.4414 -2.0109
   38MOL0     H 5081   7.968   5.919   1.408  1.9040  0.3345 -0.4593
   38MOL0     H 5082   8.309   5.728   1.479  1.4147  1.2354 -0.7504
   38MOL0     H 5083   8.204   5.820   1.361  2.3448 -0.7715 -1.8493
   38MOL0     H 5084   8.254   6.008   1.556 -2.5340 -0.1868 -1.9847
   38MOL0     H 5085   8.401   5.913   1.586 -0.1326  1.5550 -0.0389
   38MOL0     H 5086   8.308   6.047   1.338 -0.2324 -0.1095 -0.7333
   38MOL0     H 5087   8.444   5.929   1.333 -2.6338 -2.5794  0.4626
   38MOL0     H 5088   8.424   6.185   1.500 -0.9946 -0.5764  0.3052
   38MOL0     H 5089   8.506   6.174   1.348 -1.3089 -2.8043 -2.0256
   38MOL0     H 5090   8.692   6.141   1.267  0.0697 -2.9998 -0.3277
   38MOL0     H 5091   8.914   6.176   1.225  0.9305 -0.7958 -0.0467
   38MOL0     H 5092   9.445   6.047   1.498  1.0600 -0.4039  0.7252
   38MOL0     H 5093   9.681   6.143   1.470 -0.1359 -2.2834 -3.4205
   38MOL0     H 5094   9.854   6.334   1.578 -1.9962 -0.0183  0.8506
   38MOL0     H 5095   9.863   6.249   1.429  0.5387 -0.6864  0.9423
   38MOL0     H 5096  10.071   6.370   1.489 -1.4331 -1.8301  1.6018
   38MOL0     H 5097  10.007   6.434   1.330 -2.2230  0.1114  0.1076
   38MOL0     H 5098   9.897   6.614   1.445 -0.9762  0.1205  1.0370
   38MOL0     H 5099   9.970   6.559   1.600 -2.0346 -0.5325 -0.4148
   38MOL0     H 5100  10.116   6.646   1.341  0.5112 -4.2624 -0.6528
   38MOL0     H 5101  10.202   6.618   1.492  0.3657  0.4528 -0.2712
   38MOL0     H 5102   9.992   6.832   1.442 -1.1264 -2.3959  0.6419
   38MOL0     H 5103  10.161   6.861   1.438 -1.4297  2.6185  0.2268
   38MOL0     H 5104  10.030   6.939   1.651 -0.0946  0.0211  3.5976
   38MOL0     H 5105  10.017   6.775   1.697  0.2204  0.3174  1.5203
   38MOL0     H 5106  10.268   6.766   1.668  0.5005 -0.2061  1.0701
   38MOL0     H 5107  10.205   6.855   1.816  2.2752 -0.0446 -0.4869
   38MOL0     H 5108  10.386   6.983   1.750  0.1132  0.1291 -0.0217
   38MOL0     H 5109  10.311   6.991   1.575 -2.4327  2.1980 -0.2104
   38MOL0     H 5110   9.515   6.520   1.361 -1.1613 -1.1133 -2.9840
   38MOL0     H 5111   9.288   6.430   1.421  0.3854  0.2118 -1.2805
   38MOL0     H 5112   9.021   6.095   1.641 -2.0719 -0.6985  2.0519
   38MOL0     H 5113   8.789   6.050   1.676  0.8575 -0.2335  0.3172
   38MOL0     H 5114   7.487   5.595   2.126 -1.5262 -0.7604 -0.3077
   38MOL0     H 5115   7.266   5.483   2.034  1.6075 -0.9765 -0.4200
   38MOL0     H 5116   6.672   5.422   2.315 -2.0351 -0.1583 -0.0650
   38MOL0     H 5117   6.474   5.333   2.221  0.7377 -1.4985  1.6054
   38MOL0     H 5118   6.298   5.292   2.077 -2.0402 -1.0998  2.1704
   38MOL0     H 5119   6.384   5.158   2.134 -0.8943  1.8288  1.1851
   38MOL0     H 5120   6.303   5.088   1.860 -3.2386 -1.1723 -0.6868
   38MOL0     H 5121   6.178   5.188   1.910  1.9182  0.5421 -1.1521
   38MOL0     H 5122   6.153   5.054   2.115  0.9701  1.1812 -0.1068
   38MOL0     H 5123   6.278   4.948   2.046  0.3800 -0.1733 -3.3531
   38MOL0     H 5124   6.024   5.012   1.890 -1.6073 -0.0053  1.6568
   38MOL0     H 5125   6.135   4.874   1.873  1.3161 -0.2009  0.1980
   38MOL0     H 5126   5.888   4.697   2.162 -3.4121  1.6010 -0.9118
   38MOL0     H 5127   6.690   5.271   1.854 -1.2834 -0.8100 -0.0743
   38MOL0     H 5128   6.921   5.291   1.837 -2.9515  2.0543 -1.5119
   38MOL0     H 5129   6.941   5.459   1.848  2.4951  1.2541  1.9445
   38MOL0     H 5130   7.018   5.350   1.971  0.5122  0.2934 -2.0030
   39MOL0     O 5131   6.315   1.722   1.886 -0.7147  0.7378  0.2410
   39MOL0     C 5132   6.279   1.659   1.782  0.0818 -0.4113 -0.8674
   39MOL0     O 5133   6.368   1.576   1.712  0.5930  0.1831  0.3066
   39MOL0     C 5134   6.499   1.556   1.742  0.4237  0.1921  0.3354
   39MOL0     C 5135   6.559   1.430   1.715  0.7139 -0.2579 -0.1973
   39MOL0     C 5136   6.691   1.401   1.742  0.4287  0.2433 -0.2028
   39MOL0     C 5137   6.772   1.505   1.790  0.9624  0.1192 -0.5765
   39MOL0     O 5138   6.903   1.468   1.802  0.1536  0.2992  0.2150
   39MOL0     C 5139   7.007   1.564   1.786 -0.4979 -0.1052  0.5543
   39MOL0     C 5140   7.139   1.486   1.780  0.1525 -0.1262  0.6404
   39MOL0     C 5141   7.247   1.571   1.711 -0.4480 -0.1113  0.4822
   39MOL0     C 5142   7.386   1.507   1.721 -0.3100  0.7129  0.0109
   39MOL0     C 5143   7.475   1.580   1.615 -0.9228  0.2622  0.2455
   39MOL0     C 5144   7.629   1.558   1.630  0.0106 -0.1064 -0.4228
   39MOL0     C 5145   7.715   1.622   1.511 -0.3609  1.1888 -0.6258
   39MOL0     C 5146   7.820   1.517   1.470  0.1100 -0.1957 -0.1574
   39MOL0     N 5147   7.768   1.385   1.426 -0.0605  0.9782 -0.0911
   39MOL0     C 5148   7.667   1.363   1.334  0.3752 -0.2399  1.4215
   39MOL0     C 5149   7.623   1.239   1.347  0.0533  0.6797 -0.1049
   39MOL0     C 5150   7.521   1.169   1.258  0.4223  0.3155 -0.9086
   39MOL0     C 5151   7.584   1.054   1.190  0.3990 -0.5459  0.0718
   39MOL0     C 5152   7.477   0.983   1.110 -0.2664 -0.9788  0.3121
   39MOL0     C 5153   7.538   0.856   1.059  0.3400 -0.3959 -0.4047
   39MOL0     O 5154   7.644   0.875   0.963  0.3690  0.0393 -0.3438
   39MOL0     C 5155   7.634   0.832   0.832 -0.1310 -0.3940  0.5748
   39MOL0     C 5156   7.752   0.815   0.762  0.6268 -0.3137  0.6248
   39MOL0     C 5157   7.753   0.787   0.632 -0.4508  0.4491  0.3564
   39MOL0     C 5158   7.635   0.753   0.560 -0.0614 -0.1700  0.4437
   39MOL0     C 5159   7.626   0.715   0.416 -0.1887  0.7777  0.4767
   39MOL0     O 5160   7.757   0.697   0.356  0.6786  0.0759 -0.6872
   39MOL0     C 5161   7.752   0.664   0.219  0.3677 -0.1395  0.4357
   39MOL0     C 5162   7.757   0.766   0.115  0.3224 -0.0134  0.2225
   39MOL0     C 5163   7.742   0.721  -0.015 -0.3104 -0.3363 -0.2491
   39MOL0     C 5164   7.753   0.599  -0.067 -0.4922  0.9232  0.3700
   39MOL0     O 5165   7.766   0.577  -0.205  0.6542 -0.4682 -0.1792
   39MOL0     C 5166   7.846   0.463  -0.249 -0.4732  0.4417  0.3438
   39MOL0     C 5167   7.974   0.516  -0.316 -0.4597 -0.8668  0.6952
   39MOL0     C 5168   8.094   0.450  -0.240  0.2561  0.2888  0.1615
   39MOL0     C 5169   8.230   0.526  -0.277 -0.5571 -0.0795  0.2682
   39MOL0     C 5170   8.344   0.497  -0.179 -0.2771 -0.0395 -0.2398
   39MOL0     C 5171   8.472   0.580  -0.212  0.3121 -0.6990 -0.3733
   39MOL0     C 5172   8.552   0.607  -0.086  0.6517 -1.0232 -0.2266
   39MOL0     C 5173   8.684   0.667  -0.125 -0.9224  0.2707 -0.3610
   39MOL0    Cl 5174   8.816   0.666   0.003 -0.4433  0.4900  0.0470
   39MOL0     C 5175   7.751   0.503   0.041 -0.7065 -1.0189 -0.2536
   39MOL0     C 5176   7.765   0.528   0.177  0.2049 -0.5242 -0.0461
   39MOL0     O 5177   7.517   0.706   0.358  0.5274  0.0477  0.5459
   39MOL0     C 5178   7.518   0.757   0.635  0.2982  0.3081 -1.1499
   39MOL0     C 5179   7.511   0.805   0.762 -0.3980 -0.6701  0.1332
   39MOL0     N 5180   7.697   1.181   1.452  0.5280  0.2109 -0.3598
   39MOL0     N 5181   7.774   1.269   1.498  0.3892 -0.6016 -0.9423
   39MOL0     C 5182   6.717   1.627   1.814 -0.0075 -0.2360  0.7771
   39MOL0     C 5183   6.587   1.651   1.798  1.0525 -0.2312 -0.4849
   39MOL0     C 5184   6.133   1.676   1.736 -1.2330  0.3460 -0.7577
   39MOL0     C 5185   6.040   1.727   1.823 -1.3211  0.2464  0.2727
   39MOL0     C 5186   5.903   1.740   1.797  0.3347 -0.4284 -0.2895
   39MOL0     C 5187   5.854   1.695   1.679  0.0988  0.4215 -0.1295
   39MOL0     O 5188   5.722   1.691   1.666  0.5812 -0.9675 -0.0008
   39MOL0     C 5189   5.663   1.605   1.572  0.1024 -0.0462  0.2934
   39MOL0     C 5190   5.515   1.610   1.591  0.4309  0.4141 -0.0516
   39MOL0     C 5191   5.426   1.528   1.489 -0.0278  0.6308  0.3337
   39MOL0     C 5192   5.426   1.381   1.534 -0.0395  0.5922 -0.8197
   39MOL0     C 5193   5.316   1.298   1.484  0.3003  0.5905  0.9156
   39MOL0     C 5194   5.231   1.216   1.452 -1.4111 -0.0107 -0.5220
   39MOL0     C 5195   5.946   1.646   1.583  0.0548  0.6184  0.6538
   39MOL0     C 5196   6.080   1.633   1.612 -0.3090 -0.6294 -0.1194
   39MOL0     C 5197   6.172   1.577   1.514 -0.5354  0.1490  0.8843
   39MOL0     H 5198   6.494   1.354   1.672  0.2526  0.9592 -1.7669
   39MOL0     H 5199   6.723   1.301   1.715  0.4767  0.6903 -1.8544
   39MOL0     H 5200   6.987   1.609   1.688  0.1510  1.7765  1.2635
   39MOL0     H 5201   7.007   1.645   1.859 -0.2060 -0.5565  1.0610
   39MOL0     H 5202   7.117   1.404   1.712 -0.8602  1.3777 -0.9304
   39MOL0     H 5203   7.167   1.457   1.882  1.0003 -0.8218  0.2156
   39MOL0     H 5204   7.266   1.664   1.765 -1.0538  0.6675 -0.5952
   39MOL0     H 5205   7.224   1.596   1.607  1.6316  1.8169  0.4170
   39MOL0     H 5206   7.423   1.504   1.823 -0.2238  4.2228  0.2165
   39MOL0     H 5207   7.391   1.400   1.697  1.1143  0.0047  3.0330
   39MOL0     H 5208   7.443   1.529   1.524  1.3152 -2.6034  0.8887
   39MOL0     H 5209   7.459   1.688   1.610  0.4818  0.5100  0.5246
   39MOL0     H 5210   7.668   1.604   1.721  0.8880  0.9907 -1.3079
   39MOL0     H 5211   7.634   1.449   1.629 -2.1261 -0.2528 -2.2375
   39MOL0     H 5212   7.772   1.712   1.536  1.9148 -0.4611  0.4860
   39MOL0     H 5213   7.647   1.640   1.427  0.2856 -0.4955 -1.5775
   39MOL0     H 5214   7.878   1.566   1.392  0.3910  2.0045  1.3037
   39MOL0     H 5215   7.896   1.490   1.544  0.8320 -1.7535 -1.4353
   39MOL0     H 5216   7.626   1.435   1.263  2.0169  1.1674  1.8323
   39MOL0     H 5217   7.444   1.120   1.318  3.3062 -2.3842  0.8764
   39MOL0     H 5218   7.460   1.232   1.192  1.0357 -1.3702 -3.1993
   39MOL0     H 5219   7.666   1.089   1.127  1.1225 -3.6912 -0.8804
   39MOL0     H 5220   7.633   0.989   1.263  2.2755 -0.1428 -0.7599
   39MOL0     H 5221   7.447   1.044   1.024 -0.3756  0.9281  1.6424
   39MOL0     H 5222   7.396   0.954   1.177  0.6279 -1.0724  1.3788
   39MOL0     H 5223   7.458   0.785   1.039  2.4506 -2.0740 -3.8586
   39MOL0     H 5224   7.603   0.818   1.138  0.8545  0.6009 -0.3301
   39MOL0     H 5225   7.838   0.851   0.817 -0.2090  1.2765  0.9612
   39MOL0     H 5226   7.843   0.773   0.573 -0.5197 -1.3504  0.6378
   39MOL0     H 5227   7.750   0.870   0.144  0.5540 -0.1566  0.8201
   39MOL0     H 5228   7.733   0.803  -0.087 -1.1976  0.2343  0.4835
   39MOL0     H 5229   7.862   0.387  -0.172 -0.9360 -0.7607 -0.7189
   39MOL0     H 5230   7.785   0.413  -0.325 -1.3510  1.6859  0.2090
   39MOL0     H 5231   7.975   0.489  -0.422 -1.0507 -2.4872  1.0702
   39MOL0     H 5232   7.992   0.623  -0.303  0.9941 -1.2505  2.2370
   39MOL0     H 5233   8.079   0.455  -0.131 -3.6309 -2.5657 -0.0376
   39MOL0     H 5234   8.107   0.343  -0.254 -0.3455  0.0092  1.5941
   39MOL0     H 5235   8.197   0.630  -0.279 -1.6972 -0.3963 -2.4784
   39MOL0     H 5236   8.264   0.498  -0.377 -1.9337 -0.9299  0.0227
   39MOL0     H 5237   8.378   0.394  -0.192  0.5218  0.3386 -1.3283
   39MOL0     H 5238   8.324   0.518  -0.073 -0.0978 -0.1866 -0.1757
   39MOL0     H 5239   8.530   0.534  -0.293  1.4137  2.2829 -1.3843
   39MOL0     H 5240   8.435   0.674  -0.254  0.1921 -1.3870 -1.9008
   39MOL0     H 5241   8.555   0.517  -0.023 -2.0788 -0.7279  0.4597
   39MOL0     H 5242   8.485   0.679  -0.037  1.4982  0.0510 -0.6048
   39MOL0     H 5243   8.717   0.617  -0.216 -1.1628 -0.0075 -0.2989
   39MOL0     H 5244   8.660   0.770  -0.154 -1.8109 -0.3672 -2.0892
   39MOL0     H 5245   7.729   0.400   0.014  3.1311 -1.3999 -2.7024
   39MOL0     H 5246   7.758   0.450   0.252 -1.7109  0.2587  0.6430
   39MOL0     H 5247   7.424   0.729   0.588  0.5086 -1.2897 -0.6694
   39MOL0     H 5248   7.417   0.802   0.816 -0.8511 -2.2061 -0.6701
   39MOL0     H 5249   6.774   1.707   1.861  3.4767 -0.9623 -1.8320
   39MOL0     H 5250   6.556   1.755   1.808 -1.1321 -0.6447 -2.1021
   39MOL0     H 5251   6.081   1.758   1.918  1.0886 -2.6028  0.3183
   39MOL0     H 5252   5.843   1.788   1.873  0.5953 -1.2428  0.4485
   39MOL0     H 5253   5.699   1.502   1.582 -3.7292 -1.6001  0.2241
   39MOL0     H 5254   5.686   1.629   1.468 -1.6627 -1.0150 -0.3732
   39MOL0     H 5255   5.484   1.714   1.578 -1.9190 -0.3303 -0.8458
   39MOL0     H 5256   5.500   1.584   1.696 -0.1355 -2.0058 -0.6702
   39MOL0     H 5257   5.471   1.537   1.390 -0.7953  2.1929  0.1026
   39MOL0     H 5258   5.329   1.577   1.497 -0.7314 -1.0060  3.1705
   39MOL0     H 5259   5.525   1.336   1.520 -0.6537 -0.1302 -3.2095
   39MOL0     H 5260   5.403   1.371   1.641  0.3888  0.8484 -0.7032
   39MOL0     H 5261   5.171   1.133   1.423  0.3855 -0.6652 -2.6135
   39MOL0     H 5262   5.917   1.615   1.483  1.0412  0.2393  0.4749
   39MOL0     H 5263   6.121   1.537   1.425  1.4820 -0.7382  0.0621
   39MOL0     H 5264   6.232   1.659   1.472 -0.5789 -1.6370 -3.1958
   39MOL0     H 5265   6.229   1.489   1.546 -0.5888 -0.9621 -1.8026
   40MOL0     O 5266   3.008  10.303   0.755 -0.6109 -0.5008 -0.8398
   40MOL0     C 5267   2.982  10.353   0.866 -0.1678 -0.4495 -0.5903
   40MOL0     O 5268   3.022  10.296   0.987  0.8070 -0.9449 -0.0543
   40MOL0     C 5269   3.145  10.235   0.972  0.7881 -0.1894  0.2785
   40MOL0     C 5270   3.146  10.097   0.963  0.0909  0.6887 -0.2274
   40MOL0     C 5271   3.269  10.024   0.958  0.8935 -0.2310 -0.0055
   40MOL0     C 5272   3.392  10.084   0.946 -0.3917  0.5401  0.6135
   40MOL0     O 5273   3.511  10.010   0.922  0.5492 -0.0356  0.2075
   40MOL0     C 5274   3.547   9.922   1.029  0.5151 -0.0751  0.1796
   40MOL0     C 5275   3.590   9.997   1.157  0.5631  0.1143  0.1445
   40MOL0     C 5276   3.736  10.047   1.156  0.3522  0.6983  0.2625
   40MOL0     C 5277   3.770  10.094   1.288  0.4636 -1.0073  0.1220
   40MOL0     C 5278   3.901  10.165   1.316 -0.3267  0.5876  0.6072
   40MOL0     C 5279   4.017  10.075   1.318  1.1995  0.4236 -0.3882
   40MOL0     C 5280   4.144  10.143   1.370  0.4515  0.4283 -0.9318
   40MOL0     C 5281   4.238  10.033   1.409 -0.0923  0.7900  0.5051
   40MOL0     N 5282   4.379  10.074   1.409 -0.8191  0.0422 -1.0454
   40MOL0     C 5283   4.462  10.089   1.515 -0.1840  0.1140 -0.4842
   40MOL0     C 5284   4.585  10.123   1.462  0.0277 -0.3817 -0.0862
   40MOL0     C 5285   4.712  10.156   1.535  0.1476 -0.2791 -0.0826
   40MOL0     C 5286   4.782  10.030   1.588  0.2388 -0.5686 -0.2517
   40MOL0     C 5287   4.891  10.056   1.693 -0.3155 -1.6651 -0.1459
   40MOL0     C 5288   4.948   9.924   1.742  0.1491 -0.2279 -0.1189
   40MOL0     O 5289   5.067   9.950   1.820  0.2840 -0.1521 -0.5647
   40MOL0     C 5290   5.176   9.870   1.810  0.2346  0.1420  0.1775
   40MOL0     C 5291   5.270   9.896   1.908  0.0870  0.0968  0.6202
   40MOL0     C 5292   5.381   9.815   1.923  0.9518  0.7431 -0.5657
   40MOL0     C 5293   5.413   9.725   1.822  0.4305 -0.1363 -0.1806
   40MOL0     C 5294   5.530   9.639   1.835  0.9217 -0.4719  0.2069
   40MOL0     O 5295   5.555   9.546   1.736  0.2182  0.1042 -0.9744
   40MOL0     C 5296   5.647   9.450   1.776  0.9297  0.1187  0.5699
   40MOL0     C 5297   5.784   9.472   1.756 -0.5605 -0.0424 -0.6662
   40MOL0     C 5298   5.885   9.380   1.800  0.7183 -0.2193  0.0724
   40MOL0     C 5299   5.852   9.264   1.868 -0.1235 -0.5485  0.4558
   40MOL0     O 5300   5.929   9.176   1.930  0.1935 -0.1118 -0.6118
   40MOL0     C 5301   5.960   9.201   2.064 -0.3847  0.0717 -0.6133
   40MOL0     C 5302   6.085   9.282   2.094 -1.3658  0.3680  1.0620
   40MOL0     C 5303   6.215   9.216   2.044 -0.8650 -0.6009 -0.5511
   40MOL0     C 5304   6.334   9.308   2.069 -0.1991  0.0214  0.0174
   40MOL0     C 5305   6.456   9.266   1.989  0.5361 -0.3044 -0.5814
   40MOL0     C 5306   6.579   9.347   2.023 -0.7824  0.3415 -0.0374
   40MOL0     C 5307   6.699   9.336   1.927 -0.4833  0.9018 -0.7294
   40MOL0     C 5308   6.832   9.384   1.986 -0.4599 -0.1419  0.6364
   40MOL0    Cl 5309   6.956   9.364   1.859 -0.1524  0.4768 -0.3081
   40MOL0     C 5310   5.711   9.244   1.877  0.0934  0.3256 -0.1401
   40MOL0     C 5311   5.609   9.328   1.833  0.8892  0.2326 -0.5385
   40MOL0     O 5312   5.603   9.663   1.932  0.0028 -0.0396  0.1249
   40MOL0     C 5313   5.323   9.716   1.709 -0.4335 -0.0146 -0.5945
   40MOL0     C 5314   5.196   9.777   1.709 -0.5258 -0.1301 -0.5310
   40MOL0     N 5315   4.565  10.162   1.331 -0.4948 -0.1120  0.6252
   40MOL0     N 5316   4.443  10.120   1.295  0.1266  0.1868  0.1740
   40MOL0     C 5317   3.397  10.225   0.947 -0.6306  1.0927 -0.0033
   40MOL0     C 5318   3.273  10.291   0.967  0.7024 -0.1955  0.3685
   40MOL0     C 5319   2.878  10.455   0.867  0.2992  0.3347 -0.2993
   40MOL0     C 5320   2.853  10.516   0.748  0.1953 -0.2516  0.0505
   40MOL0     C 5321   2.744  10.607   0.735 -0.6602 -0.4717  0.0939
   40MOL0     C 5322   2.661  10.641   0.845 -0.4828 -0.3417  0.2218
   40MOL0     O 5323   2.550  10.720   0.844  0.5960  0.1158 -0.2728
   40MOL0     C 5324   2.471  10.726   0.726 -0.7806 -0.1240  0.0254
   40MOL0     C 5325   2.330  10.689   0.766 -0.2091  0.0213  0.3337
   40MOL0     C 5326   2.323  10.543   0.813  0.3617  0.9568 -0.1902
   40MOL0     C 5327   2.179  10.493   0.835  0.1236  0.2334 -0.3245
   40MOL0     C 5328   2.188  10.354   0.883  0.3660 -1.1363 -0.0152
   40MOL0     C 5329   2.196  10.232   0.906 -0.5634  0.0947 -0.9940
   40MOL0     C 5330   2.688  10.584   0.964  0.2204  0.6029 -0.1126
   40MOL0     C 5331   2.799  10.496   0.977  0.5221 -0.2888  0.1587
   40MOL0     C 5332   2.818  10.440   1.123  0.2338  0.7322  0.1246
   40MOL0     H 5333   3.053  10.043   0.947 -0.3649  1.1505  0.7320
   40MOL0     H 5334   3.266   9.915   0.957  1.5082 -0.2940  1.6592
   40MOL0     H 5335   3.464   9.856   1.057  0.8220 -1.3762 -1.7933
   40MOL0     H 5336   3.621   9.853   0.988  0.1687  0.2106 -0.9538
   40MOL0     H 5337   3.561   9.930   1.239 -1.5573  0.7370 -0.0415
   40MOL0     H 5338   3.535  10.090   1.175 -1.5102 -1.4465  2.4443
   40MOL0     H 5339   3.754  10.121   1.078 -1.4192  1.3316  0.4151
   40MOL0     H 5340   3.791   9.955   1.135 -4.4406 -2.2611 -0.8414
   40MOL0     H 5341   3.703  10.173   1.322  3.9876  2.0183  0.6847
   40MOL0     H 5342   3.756  10.010   1.357 -1.4733 -1.0741 -0.2944
   40MOL0     H 5343   3.925  10.239   1.238  1.3315 -1.7581 -1.2430
   40MOL0     H 5344   3.882  10.221   1.408 -0.4780 -1.8328  2.1289
   40MOL0     H 5345   3.976  10.001   1.388 -0.9203  1.5701 -0.3204
   40MOL0     H 5346   4.025  10.032   1.218 -0.3466 -1.3654  0.1663
   40MOL0     H 5347   4.128  10.195   1.465 -0.7155 -0.3555 -0.6718
   40MOL0     H 5348   4.190  10.212   1.300  0.6441  4.0136  2.3946
   40MOL0     H 5349   4.215   9.988   1.506 -2.4237 -0.4880 -0.5719
   40MOL0     H 5350   4.217   9.949   1.343 -2.8448  0.3381  1.8233
   40MOL0     H 5351   4.449  10.063   1.620 -1.7489  1.0385 -0.4179
   40MOL0     H 5352   4.783  10.205   1.468  0.8302  0.1518  0.9333
   40MOL0     H 5353   4.684  10.222   1.619 -0.5537  1.8770 -1.9108
   40MOL0     H 5354   4.700   9.965   1.621 -1.0896  0.8718 -0.5801
   40MOL0     H 5355   4.830   9.982   1.503  2.6860  0.0166  0.7328
   40MOL0     H 5356   4.851  10.110   1.779 -0.4131 -0.9020 -0.6566
   40MOL0     H 5357   4.970  10.117   1.646 -1.3249 -1.2563 -1.3546
   40MOL0     H 5358   4.951   9.859   1.654 -0.7806 -1.4552  0.7091
   40MOL0     H 5359   4.881   9.869   1.808 -1.2665 -0.2281 -1.4788
   40MOL0     H 5360   5.257   9.966   1.989  0.8109  0.8986  0.0587
   40MOL0     H 5361   5.441   9.827   2.013  0.2036 -0.2698  0.0982
   40MOL0     H 5362   5.819   9.569   1.724  0.8991 -1.1771 -2.7334
   40MOL0     H 5363   5.988   9.413   1.792  0.6723  0.2353  1.1883
   40MOL0     H 5364   5.879   9.245   2.123  1.6111  2.2878  0.6553
   40MOL0     H 5365   5.963   9.100   2.107  0.2561  1.5039  3.1144
   40MOL0     H 5366   6.078   9.368   2.027  3.6940  0.6701  0.5404
   40MOL0     H 5367   6.098   9.302   2.200 -1.9876 -1.0343  1.4321
   40MOL0     H 5368   6.237   9.118   2.086 -1.6110 -1.5799 -2.3468
   40MOL0     H 5369   6.204   9.196   1.938 -0.0196  1.5208 -1.0964
   40MOL0     H 5370   6.350   9.336   2.174  4.2494  1.3787 -0.7933
   40MOL0     H 5371   6.307   9.402   2.022  0.8252  0.2386 -0.1669
   40MOL0     H 5372   6.435   9.292   1.885 -2.7240  1.6411  0.4445
   40MOL0     H 5373   6.466   9.157   1.991  0.8595 -0.3846 -2.9347
   40MOL0     H 5374   6.568   9.455   2.030  2.1135  0.7423 -0.4120
   40MOL0     H 5375   6.614   9.315   2.122  0.5804 -3.2890 -1.5130
   40MOL0     H 5376   6.682   9.390   1.833  0.6990 -1.0116 -2.1234
   40MOL0     H 5377   6.714   9.230   1.904  1.9086  0.1188  3.4854
   40MOL0     H 5378   6.833   9.490   2.009  1.9140  0.3772 -1.3694
   40MOL0     H 5379   6.858   9.321   2.072  0.8262 -0.7129 -0.1226
   40MOL0     H 5380   5.683   9.148   1.919  1.3680 -0.6860 -1.4811
   40MOL0     H 5381   5.505   9.298   1.842  0.8722  0.6197  0.8414
   40MOL0     H 5382   5.359   9.653   1.628  1.3047  0.9229 -0.5914
   40MOL0     H 5383   5.130   9.769   1.623 -0.6645 -1.4901 -0.3227
   40MOL0     H 5384   3.487  10.282   0.929 -1.1059  1.7485 -0.3326
   40MOL0     H 5385   3.270  10.399   0.958 -1.5121 -0.2697 -0.2053
   40MOL0     H 5386   2.907  10.495   0.657 -0.7521  3.4609 -1.5496
   40MOL0     H 5387   2.722  10.654   0.640  1.0568 -1.2545 -0.7373
   40MOL0     H 5388   2.513  10.657   0.653 -1.3240 -2.6941  1.9974
   40MOL0     H 5389   2.471  10.829   0.689 -3.0056  1.2113  3.2646
   40MOL0     H 5390   2.267  10.713   0.680 -0.2572 -3.1142 -0.6109
   40MOL0     H 5391   2.291  10.750   0.848 -2.1182 -3.0212  1.8450
   40MOL0     H 5392   2.383  10.520   0.902  2.5211 -1.2888 -2.0847
   40MOL0     H 5393   2.361  10.481   0.732 -1.8405 -1.5162  0.5469
   40MOL0     H 5394   2.130  10.568   0.898  0.7389  1.8304 -1.6679
   40MOL0     H 5395   2.122  10.491   0.742 -0.6685  1.3760  0.1052
   40MOL0     H 5396   2.209  10.130   0.937 -1.1436 -0.4035 -2.3383
   40MOL0     H 5397   2.624  10.582   1.051 -1.7984  0.5120 -1.5286
   40MOL0     H 5398   2.809  10.331   1.128  2.0653  0.5932  1.7289
   40MOL0     H 5399   2.922  10.458   1.153  1.1485  0.3232 -2.5467
   40MOL0     H 5400   2.753  10.485   1.198  0.2586  0.0993  0.5366
   41MOL0     O 5401   1.608   2.531   1.402  0.3995 -0.9843 -0.1631
   41MOL0     C 5402   1.529   2.445   1.366  0.1538 -0.0230  1.0191
   41MOL0     O 5403   1.554   2.333   1.292 -0.2615  0.0146  0.8020
   41MOL0     C 5404   1.674   2.274   1.293 -1.0164  0.7481  0.1556
   41MOL0     C 5405   1.707   2.194   1.181 -0.0161  0.2058 -0.5532
   41MOL0     C 5406   1.835   2.136   1.186 -0.5105  0.3214 -0.1107
   41MOL0     C 5407   1.927   2.153   1.295  0.7668  0.6554 -0.2403
   41MOL0     O 5408   2.057   2.117   1.268  0.1099  0.0855 -0.3478
   41MOL0     C 5409   2.163   2.123   1.357  0.2910 -0.6527 -0.3182
   41MOL0     C 5410   2.274   2.038   1.286 -0.6420 -0.0113 -0.2654
   41MOL0     C 5411   2.411   2.044   1.361 -0.3460  0.0217  0.1249
   41MOL0     C 5412   2.521   1.959   1.285  0.4180 -0.4188 -0.4012
   41MOL0     C 5413   2.653   1.935   1.358  0.1259  0.0406  0.2941
   41MOL0     C 5414   2.644   1.857   1.491 -0.0827 -0.5885 -0.1357
   41MOL0     C 5415   2.792   1.837   1.525  0.1646 -0.3238 -0.1276
   41MOL0     C 5416   2.794   1.735   1.639 -0.6617 -0.3631 -0.8707
   41MOL0     N 5417   2.930   1.701   1.686 -0.6219 -0.2083  0.4227
   41MOL0     C 5418   3.013   1.608   1.627 -0.5806  0.4962  0.1230
   41MOL0     C 5419   3.118   1.596   1.714 -0.6605 -0.1697 -0.5700
   41MOL0     C 5420   3.223   1.508   1.685 -0.7817  0.0593 -0.5866
   41MOL0     C 5421   3.370   1.564   1.700  1.2705  0.2090 -0.3371
   41MOL0     C 5422   3.477   1.473   1.647 -0.7325  0.2445  0.5681
   41MOL0     C 5423   3.602   1.547   1.591  0.4741  0.2532 -0.3639
   41MOL0     O 5424   3.650   1.514   1.462 -0.3594 -0.2801 -0.4583
   41MOL0     C 5425   3.727   1.606   1.400 -0.7612 -0.2817  0.3727
   41MOL0     C 5426   3.837   1.656   1.464 -0.4465  0.0896 -0.1948
   41MOL0     C 5427   3.934   1.732   1.396  0.1275  0.3740 -0.7968
   41MOL0     C 5428   3.908   1.776   1.268 -1.0546  0.6042  0.2973
   41MOL0     C 5429   4.000   1.859   1.191  0.1878  0.3472 -0.8215
   41MOL0     O 5430   4.080   1.945   1.265  0.9002 -0.1140  0.1516
   41MOL0     C 5431   4.155   2.044   1.202 -0.5362  0.0865  0.0814
   41MOL0     C 5432   4.193   2.064   1.066 -0.5380  0.2402 -0.9465
   41MOL0     C 5433   4.295   2.156   1.035  0.9264  0.3438  0.7183
   41MOL0     C 5434   4.355   2.235   1.130  0.3124 -1.0055 -0.1607
   41MOL0     O 5435   4.433   2.342   1.081 -0.1240  0.3193  0.2758
   41MOL0     C 5436   4.467   2.440   1.183 -0.1714  0.0078  0.0016
   41MOL0     C 5437   4.525   2.558   1.102 -1.2080  0.4459 -0.1976
   41MOL0     C 5438   4.672   2.542   1.063  0.7124 -0.8924 -0.3780
   41MOL0     C 5439   4.764   2.582   1.172  0.1737 -0.2558  0.2939
   41MOL0     C 5440   4.912   2.566   1.138 -0.1170  0.5275 -0.0650
   41MOL0     C 5441   5.018   2.611   1.238 -0.3979 -0.4912  0.5605
   41MOL0     C 5442   5.166   2.625   1.183  0.2978  0.6267 -0.6301
   41MOL0     C 5443   5.246   2.707   1.296  0.7704  1.1408 -0.3283
   41MOL0    Cl 5444   5.410   2.750   1.240 -0.0883  0.0007 -0.3721
   41MOL0     C 5445   4.331   2.210   1.263 -0.2420 -0.3648  0.3988
   41MOL0     C 5446   4.227   2.115   1.298 -0.0459  0.4222 -0.2100
   41MOL0     O 5447   4.013   1.837   1.074 -0.8800 -0.3010  0.4421
   41MOL0     C 5448   3.795   1.728   1.205 -0.3701 -0.0401  0.6602
   41MOL0     C 5449   3.706   1.637   1.265 -0.2694 -0.3362 -0.4852
   41MOL0     N 5450   3.087   1.685   1.820 -0.2068  0.4818  0.4794
   41MOL0     N 5451   2.975   1.744   1.806  0.4748 -0.0271  0.1857
   41MOL0     C 5452   1.893   2.241   1.395  0.2233 -0.1236  0.4227
   41MOL0     C 5453   1.771   2.297   1.399  0.5602 -0.2150 -0.6942
   41MOL0     C 5454   1.384   2.457   1.405  0.6676 -0.6529  0.7743
   41MOL0     C 5455   1.304   2.347   1.393  0.7671  0.3865  0.6508
   41MOL0     C 5456   1.171   2.343   1.420 -1.1015  0.0475 -0.2164
   41MOL0     C 5457   1.110   2.462   1.468  0.3719 -0.3060 -0.1421
   41MOL0     O 5458   0.973   2.479   1.477  0.9713  0.1999  1.4983
   41MOL0     C 5459   0.870   2.386   1.435 -0.3104  0.3357 -0.2970
   41MOL0     C 5460   0.841   2.382   1.284  0.2336 -0.2634  0.4855
   41MOL0     C 5461   0.957   2.311   1.201  0.7479 -0.4401 -0.2130
   41MOL0     C 5462   0.894   2.281   1.071 -0.1711 -0.5378  0.0819
   41MOL0     C 5463   0.977   2.199   0.986  0.2297 -0.1083  0.6640
   41MOL0     C 5464   1.049   2.122   0.931  0.0712  0.2548 -0.0748
   41MOL0     C 5465   1.190   2.572   1.486  0.6873  0.6710 -0.5846
   41MOL0     C 5466   1.328   2.581   1.457 -0.2900  0.4680  0.6483
   41MOL0     C 5467   1.397   2.708   1.486 -0.3595 -0.7204  0.9022
   41MOL0     H 5468   1.635   2.181   1.101 -1.4924  0.2940  0.7054
   41MOL0     H 5469   1.880   2.092   1.098 -0.2666  1.7319 -0.7157
   41MOL0     H 5470   2.191   2.228   1.345 -2.3963  0.1116 -0.5734
   41MOL0     H 5471   2.138   2.096   1.460 -1.3146 -1.9474 -0.9941
   41MOL0     H 5472   2.286   2.088   1.190  1.2341  1.3376  0.5907
   41MOL0     H 5473   2.241   1.937   1.263  0.1080 -0.4374  0.4398
   41MOL0     H 5474   2.408   2.012   1.465  4.3883 -2.0294 -0.1383
   41MOL0     H 5475   2.445   2.148   1.361  0.0375 -0.1036  0.2561
   41MOL0     H 5476   2.468   1.865   1.271 -2.4962  0.8323  1.2802
   41MOL0     H 5477   2.540   2.001   1.186  0.9434 -0.5785 -0.3668
   41MOL0     H 5478   2.707   1.874   1.285  0.2114 -1.8216  1.8445
   41MOL0     H 5479   2.697   2.031   1.389 -0.2910  0.0664  0.8191
   41MOL0     H 5480   2.601   1.915   1.573 -1.1414 -2.3002  0.5756
   41MOL0     H 5481   2.582   1.767   1.482 -0.2050 -0.3487 -2.1270
   41MOL0     H 5482   2.838   1.934   1.543 -0.3044 -0.2352  0.6538
   41MOL0     H 5483   2.843   1.799   1.436 -0.2066  2.2965 -1.5581
   41MOL0     H 5484   2.744   1.787   1.720  1.5033  4.4447 -2.2376
   41MOL0     H 5485   2.738   1.642   1.622 -0.2023 -0.5321 -1.5271
   41MOL0     H 5486   3.002   1.550   1.536  3.2521  1.8545 -1.4310
   41MOL0     H 5487   3.207   1.419   1.747 -1.8517  1.8874  1.9543
   41MOL0     H 5488   3.227   1.480   1.580 -1.3577 -1.9982 -0.1109
   41MOL0     H 5489   3.363   1.665   1.660 -1.0879  1.2802  2.4229
   41MOL0     H 5490   3.390   1.573   1.807 -0.1207  0.5093 -0.0790
   41MOL0     H 5491   3.436   1.421   1.560 -1.8944 -0.1733  1.3382
   41MOL0     H 5492   3.509   1.395   1.717  2.9973  0.4840 -0.6518
   41MOL0     H 5493   3.684   1.517   1.656  0.6221 -1.3143 -1.2316
   41MOL0     H 5494   3.585   1.655   1.604 -2.2699 -0.0190 -1.0420
   41MOL0     H 5495   3.852   1.644   1.571  1.5430  0.5000 -0.3723
   41MOL0     H 5496   4.014   1.765   1.462  1.8271 -3.4240 -0.7248
   41MOL0     H 5497   4.151   2.003   0.988  1.2795  1.0194 -2.6199
   41MOL0     H 5498   4.324   2.174   0.932 -1.9328  1.9031  0.0844
   41MOL0     H 5499   4.377   2.486   1.225  1.4338  1.3160  2.2167
   41MOL0     H 5500   4.539   2.408   1.259  2.0128 -1.5203 -2.5314
   41MOL0     H 5501   4.457   2.573   1.017 -1.8804 -1.2491  0.0129
   41MOL0     H 5502   4.523   2.647   1.166  0.9371  0.4990 -0.1414
   41MOL0     H 5503   4.689   2.438   1.035  0.7583 -1.8916  2.9532
   41MOL0     H 5504   4.699   2.607   0.979  2.3253 -1.8541 -0.6399
   41MOL0     H 5505   4.739   2.519   1.257 -0.8111 -0.6663 -0.2764
   41MOL0     H 5506   4.746   2.686   1.201  2.0660  0.3152 -0.4659
   41MOL0     H 5507   4.926   2.619   1.043 -0.3222 -1.7669 -1.4624
   41MOL0     H 5508   4.931   2.461   1.114 -1.0985  0.2983  0.1163
   41MOL0     H 5509   4.993   2.706   1.285  3.7444  1.5425 -0.8666
   41MOL0     H 5510   5.006   2.539   1.320  1.7336 -0.0225  1.3402
   41MOL0     H 5511   5.168   2.689   1.094  1.7435 -0.9683 -1.8111
   41MOL0     H 5512   5.216   2.529   1.170 -0.5200  0.1780 -0.5150
   41MOL0     H 5513   5.192   2.794   1.332  2.0591  0.8459  2.6105
   41MOL0     H 5514   5.256   2.642   1.384  0.7676  0.5903 -0.7291
   41MOL0     H 5515   4.384   2.276   1.331  1.4312  0.7803 -1.8484
   41MOL0     H 5516   4.210   2.098   1.404 -0.9780 -0.1297 -0.4331
   41MOL0     H 5517   3.773   1.761   1.104 -0.3486  0.3956  0.7946
   41MOL0     H 5518   3.612   1.605   1.222 -1.2400  3.1402 -1.2713
   41MOL0     H 5519   1.971   2.266   1.467  2.0506  2.7306 -2.3018
   41MOL0     H 5520   1.751   2.354   1.488  0.3736 -1.9995  0.4602
   41MOL0     H 5521   1.348   2.252   1.365 -2.1906 -0.0199 -3.4209
   41MOL0     H 5522   1.123   2.246   1.413 -0.1628 -0.3231 -1.8851
   41MOL0     H 5523   0.780   2.412   1.491 -0.6638 -1.4493  0.0415
   41MOL0     H 5524   0.903   2.290   1.477  0.1935  1.4465  1.9953
   41MOL0     H 5525   0.825   2.485   1.251 -1.1312  0.3648  2.9153
   41MOL0     H 5526   0.744   2.335   1.266  0.1069  0.9459 -2.6709
   41MOL0     H 5527   0.988   2.220   1.254  2.1132 -0.0244 -0.2777
   41MOL0     H 5528   1.044   2.376   1.189 -0.2158  0.7455 -1.0508
   41MOL0     H 5529   0.801   2.224   1.078 -0.8356  0.3273 -1.2797
   41MOL0     H 5530   0.861   2.372   1.019 -4.5468 -0.5070  2.4145
   41MOL0     H 5531   1.120   2.058   0.882 -0.9518 -1.6906  0.8748
   41MOL0     H 5532   1.137   2.661   1.519  0.0878 -1.3616  4.9023
   41MOL0     H 5533   1.460   2.688   1.573 -0.7142 -0.6660  1.1758
   41MOL0     H 5534   1.456   2.760   1.410 -3.0943  2.6609  0.8102
   41MOL0     H 5535   1.322   2.779   1.524 -1.2368 -0.3436 -1.3720
   42MOL0     O 5536   9.839   7.954   1.205 -0.5856  0.1631  0.0448
   42MOL0     C 5537   9.803   7.834   1.194 -0.2505 -0.9422 -0.2571
   42MOL0     O 5538   9.828   7.740   1.287 -0.7732  0.8497 -0.5398
   42MOL0     C 5539   9.881   7.781   1.411 -0.7645  0.4008  0.2250
   42MOL0     C 5540   9.806   7.877   1.486  0.8595  0.6028 -0.0461
   42MOL0     C 5541   9.862   7.927   1.604 -0.2057 -0.3495  0.5166
   42MOL0     C 5542   9.986   7.881   1.649 -0.8129 -0.2359  0.5478
   42MOL0     O 5543  10.036   7.924   1.767  0.5877 -0.5196  0.1788
   42MOL0     C 5544  10.052   8.064   1.782 -0.5608 -0.4967  0.1318
   42MOL0     C 5545  10.156   8.090   1.896  0.0202 -0.5126  0.2706
   42MOL0     C 5546  10.289   8.007   1.861  0.0881 -0.5987  0.2308
   42MOL0     C 5547  10.411   8.087   1.894 -0.2916  0.5312 -0.6766
   42MOL0     C 5548  10.537   7.997   1.873 -0.8838 -0.2943  0.6916
   42MOL0     C 5549  10.662   8.070   1.939  0.8708  1.0071  0.4351
   42MOL0     C 5550  10.650   8.106   2.089 -0.0739 -0.3269 -0.2111
   42MOL0     C 5551  10.624   7.981   2.181 -0.8038  0.6668  0.0746
   42MOL0     N 5552  10.740   7.891   2.196  0.0419 -0.1198  0.3802
   42MOL0     C 5553  10.735   7.751   2.214  0.3097 -0.3174 -0.1180
   42MOL0     C 5554  10.859   7.701   2.189 -0.3719 -0.5619 -0.4366
   42MOL0     C 5555  10.916   7.557   2.182  0.6536  0.0814  0.3197
   42MOL0     C 5556  10.964   7.503   2.311 -0.1339 -0.4030 -0.4566
   42MOL0     C 5557  11.103   7.540   2.351  1.0038  0.3578  0.2615
   42MOL0     C 5558  11.101   7.679   2.414 -0.6072 -0.5145  0.8028
   42MOL0     O 5559  11.184   7.682   2.537  0.3512 -0.1166 -0.8250
   42MOL0     C 5560  11.312   7.723   2.533  0.1229  0.7165 -0.5082
   42MOL0     C 5561  11.395   7.707   2.424 -0.2780  1.3126  0.6137
   42MOL0     C 5562  11.536   7.711   2.429  0.6988  0.3515  0.0591
   42MOL0     C 5563  11.588   7.743   2.556 -0.6596  0.2460 -0.0856
   42MOL0     C 5564  11.732   7.755   2.564 -1.0066  0.4215 -0.7177
   42MOL0     O 5565  11.809   7.737   2.451 -0.0099  0.5608 -0.2049
   42MOL0     C 5566  11.943   7.735   2.468  0.6148  0.5874  0.1256
   42MOL0     C 5567  12.020   7.651   2.552 -0.8550  0.8128  0.8973
   42MOL0     C 5568  12.162   7.671   2.547 -0.0329 -0.4192 -0.1292
   42MOL0     C 5569  12.218   7.764   2.466 -0.7150 -0.1809  0.3446
   42MOL0     O 5570  12.358   7.786   2.463  0.3559 -0.0864  0.3831
   42MOL0     C 5571  12.441   7.766   2.573 -0.6212  0.5737 -0.7886
   42MOL0     C 5572  12.516   7.625   2.570 -0.0751  0.6171 -0.0368
   42MOL0     C 5573  12.605   7.599   2.452 -0.5688  0.0926  0.2789
   42MOL0     C 5574  12.662   7.458   2.449 -0.3704 -0.0860 -0.2330
   42MOL0     C 5575  12.777   7.435   2.345 -0.1313 -0.4180 -0.9456
   42MOL0     C 5576  12.721   7.434   2.199  0.0872  1.2932 -0.0116
   42MOL0     C 5577  12.839   7.417   2.111  0.7845 -0.3828 -0.6898
   42MOL0     C 5578  12.810   7.411   1.959 -0.2533 -0.0745 -0.5449
   42MOL0    Cl 5579  12.734   7.256   1.913 -0.4268 -0.5614  0.4693
   42MOL0     C 5580  12.137   7.851   2.388 -1.0011 -0.0682 -0.5032
   42MOL0     C 5581  12.003   7.835   2.396  0.0664  0.1926 -0.1235
   42MOL0     O 5582  11.778   7.789   2.673  0.9189  0.7995 -0.5472
   42MOL0     C 5583  11.502   7.790   2.655 -0.6342  0.1624 -1.7084
   42MOL0     C 5584  11.368   7.766   2.652  0.1161  0.1098 -0.4238
   42MOL0     N 5585  10.944   7.815   2.165 -0.5468  0.8657 -0.2805
   42MOL0     N 5586  10.872   7.924   2.169 -0.0977 -0.0288 -0.3152
   42MOL0     C 5587  10.055   7.778   1.583  0.6569 -0.4393  0.2009
   42MOL0     C 5588  10.003   7.730   1.464 -0.0416  0.0990 -0.2064
   42MOL0     C 5589   9.715   7.813   1.079  0.3540  0.4954 -1.1735
   42MOL0     C 5590   9.637   7.698   1.080 -0.5151  0.4908 -0.1515
   42MOL0     C 5591   9.557   7.663   0.976  0.1457  0.9759 -0.8919
   42MOL0     C 5592   9.553   7.746   0.869  0.4112 -1.0756 -0.1741
   42MOL0     O 5593   9.471   7.712   0.767  0.5780 -0.6189  0.5178
   42MOL0     C 5594   9.339   7.768   0.779  0.3239  0.7686 -0.0809
   42MOL0     C 5595   9.274   7.749   0.639  0.0843 -0.0271 -0.5719
   42MOL0     C 5596   9.129   7.781   0.633 -0.1448 -0.3707  0.3089
   42MOL0     C 5597   9.061   7.745   0.498 -0.9469  0.0809 -0.7820
   42MOL0     C 5598   9.063   7.859   0.401  0.6154  0.1565 -0.1597
   42MOL0     C 5599   9.082   7.949   0.316 -0.6945  1.0666  0.1090
   42MOL0     C 5600   9.632   7.857   0.862 -0.3927 -0.2264 -0.5357
   42MOL0     C 5601   9.712   7.889   0.956 -0.5804 -0.2251 -0.6664
   42MOL0     C 5602   9.785   8.014   0.931 -0.3809  0.8769 -0.6605
   42MOL0     H 5603   9.705   7.902   1.456  1.0373  0.5125 -0.7451
   42MOL0     H 5604   9.810   8.005   1.658  1.0617  2.5302 -2.0805
   42MOL0     H 5605  10.094   8.101   1.689  1.5589 -3.6899 -0.3275
   42MOL0     H 5606   9.955   8.114   1.793  1.2673  3.2129  0.9528
   42MOL0     H 5607  10.106   8.073   1.992  0.5716  1.4089  0.9590
   42MOL0     H 5608  10.169   8.198   1.881 -1.4030 -0.4201 -0.5072
   42MOL0     H 5609  10.289   7.989   1.753 -0.5863 -1.5190  0.3766
   42MOL0     H 5610  10.292   7.908   1.907  2.7093 -0.3135  0.8383
   42MOL0     H 5611  10.424   8.183   1.843  0.3693  0.6933 -0.2258
   42MOL0     H 5612  10.407   8.115   2.000 -0.2382  3.2487 -1.2947
   42MOL0     H 5613  10.536   7.897   1.918 -0.8034 -0.8414 -0.4687
   42MOL0     H 5614  10.560   7.978   1.767 -1.0094 -1.3022  0.8323
   42MOL0     H 5615  10.750   8.006   1.929 -1.0293 -1.8195  0.5869
   42MOL0     H 5616  10.672   8.169   1.893 -0.4232  0.3596 -1.3573
   42MOL0     H 5617  10.564   8.170   2.110  1.9799  1.5340  3.4395
   42MOL0     H 5618  10.741   8.158   2.118 -0.5583 -0.0418  0.8540
   42MOL0     H 5619  10.602   8.014   2.282 -1.8240  1.9842 -0.5575
   42MOL0     H 5620  10.535   7.930   2.144  0.8207 -1.5547 -1.0242
   42MOL0     H 5621  10.640   7.702   2.235  0.3184  0.7061  2.6897
   42MOL0     H 5622  10.828   7.495   2.160  0.3197  0.9550 -0.8869
   42MOL0     H 5623  10.989   7.547   2.102 -0.8470 -0.9140 -0.9996
   42MOL0     H 5624  10.897   7.545   2.386 -0.5101  0.4531 -1.2458
   42MOL0     H 5625  10.960   7.393   2.307 -0.8810 -0.3825 -0.2516
   42MOL0     H 5626  11.171   7.541   2.265 -1.8936  2.5180 -2.2632
   42MOL0     H 5627  11.150   7.467   2.418 -0.1295 -2.8502 -2.1573
   42MOL0     H 5628  10.997   7.711   2.427 -0.0922  0.8890  1.6206
   42MOL0     H 5629  11.139   7.758   2.348 -0.6508 -0.3525  0.9743
   42MOL0     H 5630  11.362   7.686   2.322  1.7932 -4.1788  0.7380
   42MOL0     H 5631  11.598   7.688   2.343 -0.0767  1.1609 -0.7447
   42MOL0     H 5632  11.979   7.570   2.611  1.2581  0.0304  1.4058
   42MOL0     H 5633  12.208   7.607   2.622 -1.5378  0.8676  2.0092
   42MOL0     H 5634  12.526   7.834   2.562  0.8772 -1.4809 -3.1952
   42MOL0     H 5635  12.397   7.786   2.671 -0.0515 -1.3368 -0.0979
   42MOL0     H 5636  12.579   7.617   2.660  0.1346 -0.1637 -0.2512
   42MOL0     H 5637  12.447   7.540   2.562  2.3397 -1.3081 -1.7271
   42MOL0     H 5638  12.557   7.614   2.355  0.1094 -1.6489 -0.3606
   42MOL0     H 5639  12.691   7.668   2.457 -1.1243  0.8252 -0.0818
   42MOL0     H 5640  12.580   7.388   2.432 -1.1464  0.3130  1.6038
   42MOL0     H 5641  12.703   7.430   2.547 -1.1467 -0.0957  0.0931
   42MOL0     H 5642  12.829   7.342   2.372  0.9989  0.6501  0.6780
   42MOL0     H 5643  12.851   7.514   2.357  1.2698 -1.3977 -2.6738
   42MOL0     H 5644  12.634   7.369   2.183 -0.6917  2.9381 -3.3743
   42MOL0     H 5645  12.672   7.529   2.179 -1.2899  1.0879  1.9949
   42MOL0     H 5646  12.883   7.322   2.143  2.1952  0.2949 -0.5335
   42MOL0     H 5647  12.915   7.495   2.125 -0.2040  0.9691 -2.4164
   42MOL0     H 5648  12.760   7.493   1.907  0.7838  0.7174 -0.3231
   42MOL0     H 5649  12.908   7.406   1.912 -0.3797 -2.1345 -0.6603
   42MOL0     H 5650  12.185   7.927   2.329 -0.8578  0.4722  0.2948
   42MOL0     H 5651  11.941   7.895   2.330  0.8629 -0.1549 -1.2166
   42MOL0     H 5652  11.556   7.828   2.741 -0.3500 -0.4057 -1.6310
   42MOL0     H 5653  11.312   7.782   2.743  0.1287 -1.0506 -0.2084
   42MOL0     H 5654  10.148   7.729   1.612  0.4071 -1.3807 -0.5322
   42MOL0     H 5655  10.055   7.646   1.420 -2.5879  0.2701 -3.9511
   42MOL0     H 5656   9.646   7.614   1.148  0.4064 -1.0321 -2.0466
   42MOL0     H 5657   9.507   7.568   0.990  0.5055  1.2031  2.8565
   42MOL0     H 5658   9.326   7.871   0.812 -0.9680  0.2287  1.2296
   42MOL0     H 5659   9.288   7.716   0.860  4.0931 -0.9782  1.4229
   42MOL0     H 5660   9.281   7.644   0.609  0.3376  0.7820 -3.6640
   42MOL0     H 5661   9.330   7.805   0.564  1.4062  0.1037  0.4700
   42MOL0     H 5662   9.129   7.889   0.652  2.2284  0.1441 -1.9921
   42MOL0     H 5663   9.087   7.725   0.717  2.0268  2.5261  3.6294
   42MOL0     H 5664   9.127   7.669   0.456 -1.2878 -0.2620 -0.6974
   42MOL0     H 5665   8.965   7.698   0.522  0.8167 -2.2841  2.4743
   42MOL0     H 5666   9.099   8.022   0.240 -1.7158  2.2903  0.9966
   42MOL0     H 5667   9.617   7.904   0.765  0.1166 -1.2177 -1.1004
   42MOL0     H 5668   9.891   7.999   0.952 -0.4870  1.9215  0.7797
   42MOL0     H 5669   9.768   8.047   0.828 -1.8830 -3.2218 -1.9295
   42MOL0     H 5670   9.748   8.090   1.000 -2.2051  0.3480 -0.9958
   43MOL0     O 5671  10.379   7.627   2.109  0.0087  0.2489  0.1496
   43MOL0     C 5672  10.304   7.575   2.023 -0.5038 -0.1193 -0.1524
   43MOL0     O 5673  10.350   7.507   1.904 -0.0747  0.1113 -0.5663
   43MOL0     C 5674  10.477   7.533   1.869  0.2467  0.7639 -0.2447
   43MOL0     C 5675  10.576   7.465   1.933 -1.0904  0.1846  0.6019
   43MOL0     C 5676  10.708   7.477   1.895 -0.6226  0.1559  0.5719
   43MOL0     C 5677  10.745   7.567   1.795 -0.0060  0.9024  0.1989
   43MOL0     O 5678  10.882   7.577   1.752  0.4199  0.2786  0.2673
   43MOL0     C 5679  10.953   7.689   1.809  1.2954 -0.2900  0.8944
   43MOL0     C 5680  11.094   7.647   1.845 -0.3394 -0.6043  0.3144
   43MOL0     C 5681  11.186   7.767   1.904 -0.9422  0.6035 -0.2203
   43MOL0     C 5682  11.289   7.706   1.996  0.0803 -0.9275  0.2520
   43MOL0     C 5683  11.392   7.811   2.047 -0.5811  0.2260  0.3946
   43MOL0     C 5684  11.328   7.916   2.126  0.0255  0.2713  0.2420
   43MOL0     C 5685  11.444   7.994   2.190 -0.2109 -0.7338  0.1061
   43MOL0     C 5686  11.399   8.134   2.241 -0.0724  0.3516  0.7847
   43MOL0     N 5687  11.502   8.207   2.318 -0.4243 -0.1728  0.7608
   43MOL0     C 5688  11.633   8.231   2.270  0.0666 -0.5814  0.1819
   43MOL0     C 5689  11.699   8.301   2.363  0.8138 -0.9632 -0.3776
   43MOL0     C 5690  11.838   8.346   2.341 -0.4432 -0.3620 -0.7614
   43MOL0     C 5691  11.916   8.293   2.462  0.0843  0.0041 -0.8929
   43MOL0     C 5692  11.886   8.139   2.482 -1.1285 -0.5353 -0.3581
   43MOL0     C 5693  11.975   8.097   2.600 -0.0490 -0.2697  0.1646
   43MOL0     O 5694  11.972   8.178   2.717  0.5902  0.2874 -0.3031
   43MOL0     C 5695  12.083   8.164   2.804  0.1032 -0.1390 -0.7922
   43MOL0     C 5696  12.095   8.260   2.904 -0.1150 -0.2344  0.6414
   43MOL0     C 5697  12.209   8.260   2.993 -0.1408  0.3011 -1.1606
   43MOL0     C 5698  12.310   8.162   2.980 -0.4053  0.8688 -0.9398
   43MOL0     C 5699  12.435   8.162   3.058  0.9285  0.3872 -0.8286
   43MOL0     O 5700  12.537   8.092   3.011 -0.1517 -0.1308 -0.3296
   43MOL0     C 5701  12.651   8.105   3.078 -0.2045  0.1056 -0.0067
   43MOL0     C 5702  12.679   8.031   3.191 -0.4343  0.5518 -0.5534
   43MOL0     C 5703  12.808   8.034   3.243  0.2472 -0.8618 -0.3199
   43MOL0     C 5704  12.910   8.107   3.185 -0.7254 -0.4088 -0.2370
   43MOL0     O 5705  13.038   8.123   3.239  0.3341  0.5424  0.1123
   43MOL0     C 5706  13.058   8.082   3.374  0.3800 -0.8468 -0.2360
   43MOL0     C 5707  13.205   8.095   3.419 -0.1029  0.9167 -0.4243
   43MOL0     C 5708  13.217   8.082   3.578 -0.2441 -0.2815 -0.3938
   43MOL0     C 5709  13.157   8.214   3.641  0.3774 -0.8347  0.0501
   43MOL0     C 5710  13.151   8.224   3.789 -0.2651 -0.0032 -0.8786
   43MOL0     C 5711  13.022   8.159   3.842 -0.9169 -0.0653  0.3018
   43MOL0     C 5712  12.900   8.246   3.841 -0.0089  0.9162 -0.3022
   43MOL0     C 5713  12.778   8.172   3.903 -0.4025  0.4629 -0.5944
   43MOL0    Cl 5714  12.788   8.138   4.076  0.0063  0.0228  0.0083
   43MOL0     C 5715  12.879   8.180   3.071  0.6165  0.1440  0.0621
   43MOL0     C 5716  12.751   8.175   3.015  0.7891 -0.0324 -0.0145
   43MOL0     O 5717  12.435   8.236   3.155 -0.4054  0.3794  0.1908
   43MOL0     C 5718  12.293   8.067   2.876 -0.5113  0.2685  1.3185
   43MOL0     C 5719  12.185   8.069   2.789 -0.2019 -1.1211  0.1682
   43MOL0     N 5720  11.609   8.324   2.464  0.7803 -0.8031 -0.4606
   43MOL0     N 5721  11.486   8.274   2.438  0.7831  0.1566 -0.0071
   43MOL0     C 5722  10.641   7.645   1.736 -0.4279  0.2039  0.3484
   43MOL0     C 5723  10.509   7.618   1.766  0.0701  0.5653 -0.1211
   43MOL0     C 5724  10.163   7.564   2.053 -0.0686 -0.0619 -0.9421
   43MOL0     C 5725  10.074   7.549   1.953 -0.0252  0.5194  0.9694
   43MOL0     C 5726   9.939   7.523   1.957 -0.7026  0.1937  0.4949
   43MOL0     C 5727   9.877   7.508   2.082 -0.9027 -0.4914 -0.2279
   43MOL0     O 5728   9.746   7.472   2.077  0.5524  0.7105 -0.7369
   43MOL0     C 5729   9.679   7.439   2.203 -0.2189  0.4180  0.5749
   43MOL0     C 5730   9.532   7.395   2.157 -0.5488  0.4104  0.3125
   43MOL0     C 5731   9.450   7.506   2.098  0.8163 -0.3914  0.4804
   43MOL0     C 5732   9.317   7.443   2.061 -0.1409 -0.0517 -0.4700
   43MOL0     C 5733   9.307   7.372   1.940 -0.0661 -0.6587 -0.2466
   43MOL0     C 5734   9.288   7.311   1.832 -0.1195 -0.1450 -1.2127
   43MOL0     C 5735   9.954   7.534   2.189  0.2459 -0.0827 -0.3713
   43MOL0     C 5736  10.094   7.564   2.179  0.2475 -0.0733 -0.8628
   43MOL0     C 5737  10.179   7.577   2.305  0.3737  0.3869 -0.3156
   43MOL0     H 5738  10.558   7.398   2.017  2.1140  0.7724  1.8891
   43MOL0     H 5739  10.792   7.430   1.945 -1.5173 -2.2866 -0.0634
   43MOL0     H 5740  10.959   7.763   1.729  1.3115  1.0863  2.1344
   43MOL0     H 5741  10.908   7.746   1.891  2.2216 -0.8025  1.7719
   43MOL0     H 5742  11.150   7.607   1.759  0.3562  0.7211  0.1318
   43MOL0     H 5743  11.106   7.558   1.907  2.0877 -0.5559  0.0299
   43MOL0     H 5744  11.130   7.838   1.965  0.8343  0.3664  1.8392
   43MOL0     H 5745  11.246   7.823   1.831  1.6314  1.4122  2.3088
   43MOL0     H 5746  11.237   7.671   2.085 -0.3739  2.2357  1.3369
   43MOL0     H 5747  11.342   7.627   1.943  2.3514 -0.0012  1.0043
   43MOL0     H 5748  11.468   7.759   2.104  0.5009  1.9244  0.5780
   43MOL0     H 5749  11.449   7.858   1.967  2.8321  1.1037  3.1225
   43MOL0     H 5750  11.269   7.986   2.065 -1.2950  0.6440  1.8623
   43MOL0     H 5751  11.265   7.872   2.204 -0.6294  0.1364 -0.3571
   43MOL0     H 5752  11.519   8.016   2.113  0.1324 -0.1466  0.5958
   43MOL0     H 5753  11.502   7.941   2.266  0.2090  0.9766  1.0406
   43MOL0     H 5754  11.369   8.193   2.154  0.2808 -0.3419  0.1794
   43MOL0     H 5755  11.309   8.124   2.304 -0.3285 -0.2779  0.3287
   43MOL0     H 5756  11.678   8.217   2.173  0.2799 -0.5603  0.2782
   43MOL0     H 5757  11.878   8.297   2.252  0.7383  1.6473 -1.3886
   43MOL0     H 5758  11.840   8.454   2.326 -0.1752 -0.1527  0.6692
   43MOL0     H 5759  12.024   8.310   2.454  1.1098 -4.2931  1.0690
   43MOL0     H 5760  11.882   8.353   2.547  1.5225  0.2173 -0.4383
   43MOL0     H 5761  11.904   8.098   2.383 -1.0591  1.9502 -1.4633
   43MOL0     H 5762  11.790   8.108   2.523 -0.7473 -1.7883 -0.3690
   43MOL0     H 5763  12.075   8.084   2.558 -0.7948 -0.0874 -1.7534
   43MOL0     H 5764  11.954   7.991   2.621 -1.3801  0.3111  2.0884
   43MOL0     H 5765  12.013   8.331   2.913 -0.3871 -0.0811 -2.0632
   43MOL0     H 5766  12.224   8.331   3.074  4.6788 -1.9754  0.3157
   43MOL0     H 5767  12.613   7.961   3.241  3.0921 -0.5919  3.0951
   43MOL0     H 5768  12.816   7.966   3.327 -2.4990 -1.0559 -0.1254
   43MOL0     H 5769  12.996   8.152   3.430 -1.0878 -2.2395 -0.0388
   43MOL0     H 5770  13.028   7.978   3.394 -2.7758 -0.6023 -2.7458
   43MOL0     H 5771  13.268   8.016   3.376  0.3665  1.3056 -0.4623
   43MOL0     H 5772  13.246   8.189   3.383  0.2105 -0.4473 -4.0638
   43MOL0     H 5773  13.166   7.993   3.617 -4.7641  2.2285  0.0395
   43MOL0     H 5774  13.323   8.067   3.599  0.0466 -0.1267 -1.6734
   43MOL0     H 5775  13.053   8.215   3.606  0.4328  0.6409 -0.1354
   43MOL0     H 5776  13.221   8.292   3.600  0.6376  0.2083  2.2652
   43MOL0     H 5777  13.143   8.326   3.827 -0.7345 -0.0236 -0.9190
   43MOL0     H 5778  13.236   8.189   3.848  0.1902  1.4119 -0.6576
   43MOL0     H 5779  12.993   8.078   3.775  0.8031 -0.1808 -0.3415
   43MOL0     H 5780  13.043   8.111   3.938 -0.1722 -0.8217 -0.2280
   43MOL0     H 5781  12.884   8.285   3.740  2.3048  2.3781 -0.1710
   43MOL0     H 5782  12.910   8.342   3.893  0.3406  1.7278 -1.8049
   43MOL0     H 5783  12.687   8.230   3.884 -2.8336 -3.0214 -0.4016
   43MOL0     H 5784  12.761   8.080   3.847  1.0421 -0.7907  0.9060
   43MOL0     H 5785  12.951   8.240   3.016  1.2023  0.1791  0.8548
   43MOL0     H 5786  12.723   8.214   2.918  0.0001 -0.8774 -0.1424
   43MOL0     H 5787  12.360   7.990   2.842 -3.2073 -0.7823 -2.2324
   43MOL0     H 5788  12.173   7.988   2.718 -2.9155 -2.4285  1.9466
   43MOL0     H 5789  10.655   7.718   1.657 -1.7542 -1.5098 -1.5760
   43MOL0     H 5790  10.429   7.670   1.715  0.9263  2.3437  0.2578
   43MOL0     H 5791  10.102   7.555   1.848  0.5173  1.9376  1.1794
   43MOL0     H 5792   9.871   7.492   1.878  0.1825 -2.4020  0.6646
   43MOL0     H 5793   9.667   7.528   2.265  0.3531  1.2394 -0.4746
   43MOL0     H 5794   9.723   7.348   2.247 -0.2312 -1.2147 -2.5126
   43MOL0     H 5795   9.481   7.362   2.248 -1.4815 -0.2322 -0.4162
   43MOL0     H 5796   9.553   7.319   2.082  2.6804  1.1363  0.3177
   43MOL0     H 5797   9.488   7.563   2.012 -0.9737  2.5604  1.4957
   43MOL0     H 5798   9.435   7.581   2.176  1.2282 -2.9054  3.1025
   43MOL0     H 5799   9.275   7.382   2.142  1.4715 -0.9150 -0.2463
   43MOL0     H 5800   9.254   7.531   2.041  0.3754  0.1030 -1.4384
   43MOL0     H 5801   9.291   7.266   1.735  2.6028  0.0566 -1.3099
   43MOL0     H 5802   9.917   7.522   2.291 -0.3302  1.5373 -0.3520
   43MOL0     H 5803  10.243   7.489   2.307 -0.7430 -0.5609 -2.4081
   43MOL0     H 5804  10.249   7.660   2.314  0.3307  0.5761 -1.5394
   43MOL0     H 5805  10.118   7.571   2.396  1.2686  1.6370  0.3939
   44MOL0     O 5806  10.217   5.377   4.559 -0.2181  0.2163  0.1194
   44MOL0     C 5807  10.127   5.378   4.640  0.9438  0.3511 -0.1293
   44MOL0     O 5808  10.139   5.421   4.765 -0.1743 -0.2622  0.2748
   44MOL0     C 5809  10.275   5.419   4.816 -0.1619 -0.5270  0.0178
   44MOL0     C 5810  10.313   5.536   4.887  0.4810  0.4137  0.8217
   44MOL0     C 5811  10.443   5.538   4.938 -0.8996  0.5076 -0.0543
   44MOL0     C 5812  10.530   5.427   4.941  0.6616  0.0274  0.1856
   44MOL0     O 5813  10.653   5.440   4.996  0.0445 -0.9028  0.4157
   44MOL0     C 5814  10.719   5.317   5.043  0.8346  0.0094  0.7752
   44MOL0     C 5815  10.845   5.358   5.121 -0.5177  0.5171  0.0166
   44MOL0     C 5816  10.823   5.445   5.250  0.9666 -0.6958  0.4430
   44MOL0     C 5817  10.956   5.469   5.322  0.6715 -0.0968  0.4897
   44MOL0     C 5818  10.959   5.587   5.416 -0.3786 -0.7800  0.8289
   44MOL0     C 5819  10.954   5.727   5.351 -0.4030 -0.3961  0.2324
   44MOL0     C 5820  11.045   5.755   5.225 -0.8780 -0.1326  0.0858
   44MOL0     C 5821  11.197   5.736   5.258 -0.7611 -0.3527  0.3309
   44MOL0     N 5822  11.296   5.825   5.183 -0.1468 -0.3393  0.0824
   44MOL0     C 5823  11.323   5.831   5.049 -0.1660 -0.0674  0.5523
   44MOL0     C 5824  11.412   5.932   5.031  0.2984 -0.9490 -0.6521
   44MOL0     C 5825  11.474   5.968   4.893 -0.8081 -0.6247 -0.0123
   44MOL0     C 5826  11.618   6.018   4.917 -0.6758  0.8722  0.0528
   44MOL0     C 5827  11.692   6.050   4.782  0.7906 -0.0541  0.1180
   44MOL0     C 5828  11.816   6.128   4.806 -0.3088  0.7301 -0.6938
   44MOL0     O 5829  11.905   6.040   4.876 -0.6308  0.2585 -0.6528
   44MOL0     C 5830  12.037   6.040   4.839 -0.3445  0.3840  0.6550
   44MOL0     C 5831  12.101   6.159   4.798  0.4827 -0.5653 -0.7663
   44MOL0     C 5832  12.236   6.154   4.775  0.3603  1.1982  0.1808
   44MOL0     C 5833  12.307   6.036   4.778  0.3212  0.0929  0.1397
   44MOL0     C 5834  12.451   6.043   4.751 -0.2658 -1.0171  0.1992
   44MOL0     O 5835  12.505   6.161   4.726  0.2149 -0.1689  0.2150
   44MOL0     C 5836  12.637   6.194   4.689  0.7360  0.7162  0.1872
   44MOL0     C 5837  12.665   6.328   4.670 -0.1369  0.0389  0.3371
   44MOL0     C 5838  12.794   6.373   4.651  0.6552 -0.6103  0.6557
   44MOL0     C 5839  12.900   6.294   4.639  0.4299  0.8588  0.1136
   44MOL0     O 5840  13.028   6.332   4.601  0.4679  0.1146 -0.3621
   44MOL0     C 5841  13.052   6.476   4.585  1.0447  0.7754 -0.5122
   44MOL0     C 5842  13.195   6.497   4.558 -1.5358 -0.0033 -1.0375
   44MOL0     C 5843  13.282   6.472   4.675  0.2588  0.1503 -0.3626
   44MOL0     C 5844  13.427   6.484   4.622  0.0499  0.2449 -0.2655
   44MOL0     C 5845  13.514   6.424   4.733  0.6308  0.2576  0.8900
   44MOL0     C 5846  13.665   6.449   4.708 -0.5745  0.6640 -1.2114
   44MOL0     C 5847  13.753   6.422   4.841 -0.3293  0.5063  0.5188
   44MOL0     C 5848  13.889   6.493   4.813 -0.1147 -0.2400  0.7482
   44MOL0    Cl 5849  13.900   6.670   4.800 -0.0734 -0.2590  0.0843
   44MOL0     C 5850  12.868   6.157   4.661  0.6743 -0.5571  0.1270
   44MOL0     C 5851  12.745   6.109   4.683  0.2729 -0.3207  0.1100
   44MOL0     O 5852  12.511   5.935   4.733 -0.8762  0.0553  0.0346
   44MOL0     C 5853  12.246   5.912   4.810  0.0435 -0.6255 -0.0270
   44MOL0     C 5854  12.112   5.918   4.843 -0.3816 -0.4327  0.4731
   44MOL0     N 5855  11.435   5.997   5.157 -0.3134  0.2552  0.4987
   44MOL0     N 5856  11.374   5.922   5.248  0.1220  0.1215  0.2271
   44MOL0     C 5857  10.486   5.317   4.870  0.5162  0.0609  0.0695
   44MOL0     C 5858  10.362   5.309   4.806  0.6713 -0.1991  0.1873
   44MOL0     C 5859   9.988   5.340   4.599 -0.3848 -0.2893  0.0490
   44MOL0     C 5860   9.879   5.422   4.636  0.3631 -0.3697  0.2246
   44MOL0     C 5861   9.751   5.392   4.574  0.0092  0.0900  0.7404
   44MOL0     C 5862   9.734   5.280   4.490 -0.3882 -0.4869  0.9345
   44MOL0     O 5863   9.617   5.238   4.418  0.3179  0.6782  0.2825
   44MOL0     C 5864   9.514   5.328   4.398  0.0681 -0.0347  0.1033
   44MOL0     C 5865   9.389   5.262   4.334 -0.3740 -0.9166  0.3987
   44MOL0     C 5866   9.279   5.367   4.315  0.0610 -0.3585 -0.0856
   44MOL0     C 5867   9.137   5.311   4.330 -0.2979  0.1290 -0.6137
   44MOL0     C 5868   9.034   5.418   4.308 -0.1115  0.0082 -0.7881
   44MOL0     C 5869   8.939   5.500   4.305  0.0015  1.1399 -0.0197
   44MOL0     C 5870   9.839   5.208   4.458  0.0380  0.1004  0.0828
   44MOL0     C 5871   9.967   5.240   4.508 -0.0879  1.1152 -0.6536
   44MOL0     C 5872  10.063   5.138   4.466 -0.9708  0.2324 -0.1261
   44MOL0     H 5873  10.241   5.617   4.900  2.7288  2.4454  1.2242
   44MOL0     H 5874  10.479   5.629   4.985  1.0826  0.4598 -1.3872
   44MOL0     H 5875  10.647   5.259   5.101  0.4414 -2.2416 -1.7114
   44MOL0     H 5876  10.744   5.253   4.957  1.3889 -0.6236  1.3959
   44MOL0     H 5877  10.894   5.411   5.038 -2.2153  0.0281 -1.3580
   44MOL0     H 5878  10.905   5.271   5.148 -0.9111  0.2970  0.1830
   44MOL0     H 5879  10.752   5.392   5.314 -0.6446  0.0264 -0.7017
   44MOL0     H 5880  10.775   5.539   5.222 -0.5399 -1.0389  1.7609
   44MOL0     H 5881  10.974   5.374   5.374 -0.1010 -2.1852 -2.7428
   44MOL0     H 5882  11.042   5.466   5.255  0.9838 -0.6012  0.9063
   44MOL0     H 5883  10.867   5.588   5.474 -1.3398 -0.5153 -0.6309
   44MOL0     H 5884  11.043   5.572   5.484 -0.7701  3.8898  2.7083
   44MOL0     H 5885  10.851   5.741   5.315 -0.3574 -0.8373 -0.0726
   44MOL0     H 5886  10.977   5.801   5.429  0.6995  0.5591 -0.9520
   44MOL0     H 5887  11.026   5.857   5.191  1.8791 -0.2938 -2.3521
   44MOL0     H 5888  11.024   5.685   5.144  2.1996 -0.3696 -0.6110
   44MOL0     H 5889  11.219   5.776   5.357 -1.2370  2.9127 -0.7480
   44MOL0     H 5890  11.222   5.629   5.253  1.0955  0.0902 -1.2648
   44MOL0     H 5891  11.277   5.767   4.974 -0.3561  1.9724 -1.1862
   44MOL0     H 5892  11.483   5.890   4.817  3.2597  0.1654 -0.5639
   44MOL0     H 5893  11.408   6.048   4.860 -2.5621 -1.3450  1.5624
   44MOL0     H 5894  11.632   6.109   4.976  5.2035  2.0841 -2.4603
   44MOL0     H 5895  11.683   5.939   4.954 -2.2629 -0.2704  0.5141
   44MOL0     H 5896  11.633   6.118   4.721  1.9054  1.0682  0.2602
   44MOL0     H 5897  11.706   5.960   4.720  1.8667 -0.8668  1.4898
   44MOL0     H 5898  11.781   6.208   4.871 -2.1945 -2.8024  3.1298
   44MOL0     H 5899  11.859   6.164   4.712  2.5468 -0.6524 -0.0372
   44MOL0     H 5900  12.035   6.245   4.809  0.5147 -0.7862  1.9261
   44MOL0     H 5901  12.274   6.254   4.757 -1.3976  1.5650 -1.9550
   44MOL0     H 5902  12.585   6.398   4.689 -0.8130 -0.4571 -0.5943
   44MOL0     H 5903  12.816   6.479   4.646 -1.0302 -0.2834 -0.6880
   44MOL0     H 5904  12.991   6.514   4.502 -0.0655  1.7345  0.6978
   44MOL0     H 5905  13.018   6.525   4.677  0.8849  2.0045 -1.2055
   44MOL0     H 5906  13.233   6.421   4.489  1.3376  1.5684 -1.3280
   44MOL0     H 5907  13.210   6.599   4.520  1.3466  0.4828  1.1400
   44MOL0     H 5908  13.264   6.544   4.756 -1.3599 -0.3108 -0.2760
   44MOL0     H 5909  13.258   6.372   4.710 -2.9341  1.3173  1.2114
   44MOL0     H 5910  13.441   6.591   4.602 -2.1512  0.3513 -1.5099
   44MOL0     H 5911  13.438   6.427   4.530 -0.4817 -0.1084 -0.1103
   44MOL0     H 5912  13.484   6.319   4.735  0.0054  0.0757 -4.3714
   44MOL0     H 5913  13.478   6.476   4.823 -2.5644  0.9995 -0.6573
   44MOL0     H 5914  13.696   6.393   4.620 -1.3619 -0.7412 -0.6374
   44MOL0     H 5915  13.696   6.550   4.682  0.7210  0.7349  0.4376
   44MOL0     H 5916  13.783   6.318   4.858  1.6692  0.4522 -2.4470
   44MOL0     H 5917  13.699   6.465   4.926 -1.3881 -0.3381  0.2983
   44MOL0     H 5918  13.945   6.478   4.906  1.2118  4.6874  1.0016
   44MOL0     H 5919  13.950   6.448   4.734  0.1500 -0.9113  1.3231
   44MOL0     H 5920  12.947   6.083   4.673 -1.0406 -2.2316  1.7893
   44MOL0     H 5921  12.745   6.005   4.714  0.8691  0.2764  2.3287
   44MOL0     H 5922  12.297   5.816   4.811  0.4821 -0.3952  0.4983
   44MOL0     H 5923  12.056   5.829   4.870 -1.3616  0.2908  0.8872
   44MOL0     H 5924  10.561   5.240   4.860  2.5698  1.6780  1.9723
   44MOL0     H 5925  10.330   5.221   4.752  0.1758  0.0580  0.0557
   44MOL0     H 5926   9.906   5.502   4.705  2.0950 -1.6191  1.0922
   44MOL0     H 5927   9.664   5.455   4.593  0.1569  0.2628  0.8414
   44MOL0     H 5928   9.555   5.408   4.334 -0.7284  1.9573  1.9571
   44MOL0     H 5929   9.474   5.361   4.494 -3.7723 -1.5043 -0.8209
   44MOL0     H 5930   9.351   5.183   4.398  1.9567 -3.2531 -0.8827
   44MOL0     H 5931   9.415   5.218   4.237  0.9041 -0.5198  0.5339
   44MOL0     H 5932   9.307   5.413   4.219 -2.2415  0.9207 -0.2196
   44MOL0     H 5933   9.289   5.446   4.390  0.9106  0.3202 -0.8776
   44MOL0     H 5934   9.119   5.221   4.271  2.5039 -2.5309  2.1560
   44MOL0     H 5935   9.124   5.273   4.432  0.7324  1.1012 -0.0956
   44MOL0     H 5936   8.852   5.560   4.288 -0.5229 -0.0310 -1.7844
   44MOL0     H 5937   9.819   5.132   4.383  0.8560  1.2414 -1.3476
   44MOL0     H 5938  10.013   5.043   4.447 -0.5398  0.2415 -1.3950
   44MOL0     H 5939  10.092   5.156   4.362 -1.0385 -0.5287 -0.2802
   44MOL0     H 5940  10.147   5.121   4.534 -1.6888  0.9183  0.9687
   45MOL0     O 5941   6.706   0.940   2.073 -0.0279 -0.1430 -0.2327
   45MOL0     C 5942   6.592   0.983   2.119 -0.2289  0.4464  0.1795
   45MOL0     O 5943   6.569   1.005   2.252  0.0675 -0.2632 -0.1088
   45MOL0     C 5944   6.667   0.979   2.347 -0.0837 -0.6932  0.6773
   45MOL0     C 5945   6.626   0.902   2.465 -0.1395 -0.2417  0.3974
   45MOL0     C 5946   6.720   0.872   2.563 -0.2209 -0.1041 -0.3936
   45MOL0     C 5947   6.859   0.901   2.540 -0.0050  0.0160 -0.1473
   45MOL0     O 5948   6.952   0.871   2.630 -0.7140  0.7992  0.3199
   45MOL0     C 5949   7.015   0.736   2.612 -0.2385 -0.2860 -0.3542
   45MOL0     C 5950   7.145   0.732   2.695  0.1589 -0.5910  0.1422
   45MOL0     C 5951   7.206   0.586   2.703 -0.0191 -0.0058 -0.5377
   45MOL0     C 5952   7.350   0.582   2.756  0.2216  0.3012  0.7462
   45MOL0     C 5953   7.403   0.443   2.769 -0.1928  0.5773  0.2666
   45MOL0     C 5954   7.560   0.445   2.783 -0.9509 -0.2461  0.6738
   45MOL0     C 5955   7.605   0.532   2.899  0.4336 -0.0946  0.2942
   45MOL0     C 5956   7.571   0.484   3.048  0.0011 -0.1366  0.4207
   45MOL0     N 5957   7.650   0.368   3.094  0.2326 -0.3817 -0.4135
   45MOL0     C 5958   7.665   0.250   3.035 -0.4613 -0.4263 -0.7384
   45MOL0     C 5959   7.764   0.188   3.097 -0.8693 -0.3934 -0.4417
   45MOL0     C 5960   7.831   0.053   3.059  0.5749  0.3348  0.4839
   45MOL0     C 5961   7.953   0.055   2.968  0.4228 -0.4523 -0.1016
   45MOL0     C 5962   7.930   0.153   2.843  0.1519  0.1561  0.0954
   45MOL0     C 5963   8.045   0.135   2.730 -0.3115  0.1910  0.7308
   45MOL0     O 5964   8.172   0.122   2.790  0.8091  0.2729  0.6264
   45MOL0     C 5965   8.285   0.080   2.726  0.8596 -0.1221  0.3215
   45MOL0     C 5966   8.298   0.072   2.591  0.5498 -0.4939  0.3024
   45MOL0     C 5967   8.418   0.020   2.533  0.4732 -0.0391  0.1196
   45MOL0     C 5968   8.528  -0.029   2.614  0.0706 -0.6287  0.2465
   45MOL0     C 5969   8.652  -0.084   2.560  0.6244 -0.0226 -0.1440
   45MOL0     O 5970   8.689  -0.052   2.437 -0.1763  0.6629  0.2176
   45MOL0     C 5971   8.787  -0.130   2.373  0.5942 -0.0362  0.1620
   45MOL0     C 5972   8.863  -0.055   2.285  0.4237  0.3420  0.9063
   45MOL0     C 5973   8.963  -0.110   2.208  0.6417 -0.0879  0.4390
   45MOL0     C 5974   8.982  -0.255   2.198  0.0177  0.0884  0.4969
   45MOL0     O 5975   9.067  -0.312   2.106 -0.0375 -0.1867 -0.0016
   45MOL0     C 5976   9.039  -0.443   2.047 -0.5694 -0.2112 -0.6415
   45MOL0     C 5977   9.111  -0.453   1.905  0.4001 -0.4436  0.7444
   45MOL0     C 5978   9.263  -0.451   1.922 -0.0908  0.0517 -0.3316
   45MOL0     C 5979   9.345  -0.567   1.854  0.1007 -0.4566  0.4484
   45MOL0     C 5980   9.496  -0.534   1.861  0.6417  0.6105 -0.2796
   45MOL0     C 5981   9.557  -0.554   1.997 -0.9327 -0.5271 -0.4403
   45MOL0     C 5982   9.709  -0.542   1.990 -0.2059  0.7359 -0.6258
   45MOL0     C 5983   9.772  -0.551   2.122  0.4277 -0.4750 -0.2018
   45MOL0    Cl 5984   9.691  -0.459   2.252  0.0719 -0.1093 -0.1575
   45MOL0     C 5985   8.898  -0.330   2.288  0.2606  0.7758 -0.3381
   45MOL0     C 5986   8.798  -0.270   2.369 -1.1313 -0.5174 -1.2242
   45MOL0     O 5987   8.725  -0.154   2.640 -0.1375  0.0666 -0.2624
   45MOL0     C 5988   8.513  -0.012   2.750 -0.6219 -0.2311 -0.0613
   45MOL0     C 5989   8.399   0.053   2.802 -0.2251  0.6156 -0.1415
   45MOL0     N 5990   7.812   0.267   3.209 -0.1528 -0.7445  0.5729
   45MOL0     N 5991   7.751   0.380   3.192 -0.2021  0.5159  0.3312
   45MOL0     C 5992   6.903   0.984   2.435 -0.7601 -0.0673  0.8750
   45MOL0     C 5993   6.799   1.030   2.338 -0.1961 -0.0118  0.8608
   45MOL0     C 5994   6.478   1.007   2.029 -0.5957  0.4106  0.2408
   45MOL0     C 5995   6.351   1.057   2.088  0.2667 -0.4070  0.0464
   45MOL0     C 5996   6.249   1.097   2.003  0.4537 -0.1394  0.5371
   45MOL0     C 5997   6.253   1.084   1.870  0.1680  0.3837  0.1587
   45MOL0     O 5998   6.133   1.102   1.807  0.1079 -0.1895 -0.4400
   45MOL0     C 5999   6.121   1.228   1.734 -0.1185 -0.1856  0.7577
   45MOL0     C 6000   5.966   1.260   1.725 -0.3048  0.1290 -0.4170
   45MOL0     C 6001   5.910   1.297   1.865  0.3395 -0.2765 -0.4773
   45MOL0     C 6002   5.770   1.369   1.865 -0.9136 -0.4927 -0.1373
   45MOL0     C 6003   5.665   1.278   1.833 -0.4257  0.0255 -0.1593
   45MOL0     C 6004   5.576   1.208   1.793 -0.4496  0.1083 -0.2303
   45MOL0     C 6005   6.365   1.032   1.804 -0.0450 -0.2388  0.3834
   45MOL0     C 6006   6.480   1.001   1.879  0.2753  0.0758 -0.3003
   45MOL0     C 6007   6.604   0.951   1.809 -0.0086 -1.2342 -0.3474
   45MOL0     H 6008   6.526   0.866   2.486 -0.0628  0.0187  1.2466
   45MOL0     H 6009   6.684   0.826   2.654  1.4418 -0.5808  0.0649
   45MOL0     H 6010   6.943   0.663   2.649 -0.3304  0.6066  1.3225
   45MOL0     H 6011   7.034   0.709   2.507 -1.8674 -4.0366  0.1569
   45MOL0     H 6012   7.124   0.768   2.797  0.1498  0.5968 -0.2671
   45MOL0     H 6013   7.225   0.791   2.651  1.1789 -2.8391 -1.1905
   45MOL0     H 6014   7.198   0.537   2.606  3.1999  1.1034 -1.4873
   45MOL0     H 6015   7.143   0.538   2.778  2.3244 -0.8341  1.0247
   45MOL0     H 6016   7.416   0.635   2.686  1.2386 -1.2414  0.4668
   45MOL0     H 6017   7.351   0.632   2.853 -0.6888 -0.7967  1.3372
   45MOL0     H 6018   7.353   0.385   2.847 -0.5926 -0.4243 -0.7012
   45MOL0     H 6019   7.383   0.387   2.677  0.7435 -0.7016  0.8121
   45MOL0     H 6020   7.595   0.342   2.792  2.1444  0.3763 -2.2542
   45MOL0     H 6021   7.600   0.485   2.689  2.7487 -3.8149  0.4678
   45MOL0     H 6022   7.579   0.638   2.889 -1.6845 -0.7447 -2.1934
   45MOL0     H 6023   7.714   0.534   2.893  0.3796  2.5869 -3.2387
   45MOL0     H 6024   7.599   0.565   3.116  0.5273 -1.4382  1.8103
   45MOL0     H 6025   7.464   0.466   3.063 -0.3804 -0.9152 -2.6141
   45MOL0     H 6026   7.607   0.217   2.950 -2.3066 -1.2434  0.7794
   45MOL0     H 6027   7.853  -0.011   3.145  2.5749  0.4323  0.0854
   45MOL0     H 6028   7.770  -0.001   2.986  1.0953  1.7929 -1.1026
   45MOL0     H 6029   8.040   0.073   3.032 -1.4555 -0.4344  2.6441
   45MOL0     H 6030   7.959  -0.048   2.929  0.7066 -1.4039  2.2860
   45MOL0     H 6031   7.932   0.256   2.879  1.4806 -0.0761  0.7724
   45MOL0     H 6032   7.833   0.135   2.797  1.1241 -0.7983 -1.7063
   45MOL0     H 6033   8.027   0.211   2.653 -0.3486 -2.1685 -1.7136
   45MOL0     H 6034   8.030   0.044   2.672 -0.5359  1.1314 -0.7488
   45MOL0     H 6035   8.213   0.105   2.532  1.6288  1.8995  0.0026
   45MOL0     H 6036   8.415   0.001   2.426 -0.4731 -4.5599  0.7647
   45MOL0     H 6037   8.850   0.051   2.265  5.4401  0.5646 -3.2659
   45MOL0     H 6038   9.029  -0.045   2.152  0.7286 -1.2559 -0.8977
   45MOL0     H 6039   9.075  -0.522   2.113  1.4379 -1.1970 -2.7660
   45MOL0     H 6040   8.932  -0.455   2.029 -0.5213  1.6555 -2.7852
   45MOL0     H 6041   9.064  -0.541   1.860 -0.3965  0.2864  0.1283
   45MOL0     H 6042   9.078  -0.366   1.848 -0.4776 -0.6271  0.9608
   45MOL0     H 6043   9.297  -0.356   1.879 -0.6561  1.0086  1.2608
   45MOL0     H 6044   9.287  -0.442   2.028  0.4661  1.3691 -0.5487
   45MOL0     H 6045   9.302  -0.581   1.755  1.6127  1.7973 -0.6114
   45MOL0     H 6046   9.330  -0.656   1.916 -0.4950  0.4751  1.6982
   45MOL0     H 6047   9.516  -0.431   1.832  0.5891 -0.1124 -3.2075
   45MOL0     H 6048   9.543  -0.603   1.790 -2.8777  0.4102 -2.6451
   45MOL0     H 6049   9.508  -0.480   2.062  0.6032  2.3393 -2.3009
   45MOL0     H 6050   9.531  -0.655   2.029 -0.1304  0.5775  4.4978
   45MOL0     H 6051   9.751  -0.454   1.941 -1.4835  3.2422  2.4039
   45MOL0     H 6052   9.744  -0.631   1.938 -0.3012  1.3756 -1.8213
   45MOL0     H 6053   9.793  -0.652   2.157  1.6324 -0.4015 -0.6477
   45MOL0     H 6054   9.876  -0.519   2.110  0.3341  0.1763  0.6370
   45MOL0     H 6055   8.895  -0.437   2.270 -1.2510  1.0546 -1.9916
   45MOL0     H 6056   8.728  -0.336   2.420  1.3668 -2.5618 -0.1564
   45MOL0     H 6057   8.588  -0.030   2.827  2.0235  0.9316 -2.2014
   45MOL0     H 6058   8.375   0.063   2.907  0.7903  0.4778  0.1196
   45MOL0     H 6059   7.005   1.016   2.422 -0.9499 -0.2841 -1.5410
   45MOL0     H 6060   6.821   1.089   2.250  1.8015 -3.1071 -0.9317
   45MOL0     H 6061   6.333   1.051   2.195 -2.5788 -2.4298 -0.4193
   45MOL0     H 6062   6.157   1.134   2.049 -2.3759 -1.5450 -3.4580
   45MOL0     H 6063   6.157   1.228   1.631 -1.0366 -0.1033  0.4322
   45MOL0     H 6064   6.182   1.306   1.781 -1.0807  1.3754 -0.5188
   45MOL0     H 6065   5.918   1.170   1.687 -0.0115  0.0287 -0.5568
   45MOL0     H 6066   5.970   1.342   1.653  3.8317 -0.5786 -1.2989
   45MOL0     H 6067   5.988   1.357   1.914  0.1998 -1.7716  1.6950
   45MOL0     H 6068   5.890   1.205   1.921 -1.1194 -0.5375 -1.3656
   45MOL0     H 6069   5.730   1.408   1.959 -3.5996 -0.9275 -1.0129
   45MOL0     H 6070   5.765   1.449   1.790 -0.8642 -2.5624 -2.4864
   45MOL0     H 6071   5.487   1.152   1.773 -0.4795  0.3129 -0.6726
   45MOL0     H 6072   6.365   1.024   1.696  3.2929  0.7680  0.1960
   45MOL0     H 6073   6.573   0.944   1.705 -5.0497  2.6042  0.4882
   45MOL0     H 6074   6.687   1.022   1.815  0.1679 -1.5362  1.5452
   45MOL0     H 6075   6.642   0.857   1.851 -0.8705 -1.1498  0.6574
   46MOL0     O 6076   1.390   4.510   9.801 -0.2775  0.3684 -0.7592
   46MOL0     C 6077   1.499   4.460   9.814 -0.0818  0.2732 -0.1691
   46MOL0     O 6078   1.530   4.352   9.890 -0.3142 -0.0053  0.8508
   46MOL0     C 6079   1.428   4.267   9.924 -0.7411  0.4718 -0.7381
   46MOL0     C 6080   1.334   4.204   9.842  0.6682 -0.1650 -0.2598
   46MOL0     C 6081   1.231   4.126   9.891  0.5437 -0.7452 -0.1787
   46MOL0     C 6082   1.222   4.102  10.029 -0.6866  0.8317 -0.1452
   46MOL0     O 6083   1.135   4.014  10.094 -0.8159 -0.1254 -0.1043
   46MOL0     C 6084   1.005   4.032  10.062  0.4796  0.1398  0.8802
   46MOL0     C 6085   0.924   3.951  10.170 -0.3783  0.0856  0.7062
   46MOL0     C 6086   0.769   3.968  10.147  0.0647  0.2159  0.4394
   46MOL0     C 6087   0.719   3.937  10.001 -0.1749  1.0002 -0.4899
   46MOL0     C 6088   0.559   3.953  10.015  0.0458  0.9689  0.2604
   46MOL0     C 6089   0.500   3.910   9.877 -0.3276  0.2480 -0.1548
   46MOL0     C 6090   0.343   3.928   9.887  0.1279  0.3568  0.6741
   46MOL0     C 6091   0.272   3.901   9.745  0.5736 -0.2239  0.3505
   46MOL0     N 6092   0.315   3.998   9.642  0.0850  0.0701 -0.8621
   46MOL0     C 6093   0.283   4.131   9.627  0.2052 -0.7190 -0.2941
   46MOL0     C 6094   0.357   4.171   9.519  0.9270 -0.4203  0.9991
   46MOL0     C 6095   0.352   4.304   9.453 -0.6630 -0.5112 -0.2928
   46MOL0     C 6096   0.423   4.406   9.546  0.1541 -0.4924  0.9701
   46MOL0     C 6097   0.353   4.541   9.532  0.7989  0.8735  0.1009
   46MOL0     C 6098   0.439   4.657   9.582  0.6343 -0.0975  0.0444
   46MOL0     O 6099   0.505   4.611   9.702  0.3695 -0.2162 -0.3757
   46MOL0     C 6100   0.605   4.691   9.753 -0.0556 -1.0405 -0.1604
   46MOL0     C 6101   0.598   4.828   9.785  0.3059 -0.0523  0.4418
   46MOL0     C 6102   0.702   4.900   9.819  0.6293  0.2604 -1.3182
   46MOL0     C 6103   0.833   4.844   9.833 -0.2210 -0.0931 -0.2772
   46MOL0     C 6104   0.945   4.911   9.901  0.0978 -0.6693 -0.5866
   46MOL0     O 6105   1.072   4.861   9.894  0.5989  0.2068  0.8800
   46MOL0     C 6106   1.177   4.889   9.974 -0.5918 -0.2405 -0.7083
   46MOL0     C 6107   1.177   4.966  10.088  0.5497 -0.1485  0.6397
   46MOL0     C 6108   1.293   4.980  10.158 -0.3761 -1.2700  1.3574
   46MOL0     C 6109   1.413   4.906  10.130  0.4251  0.7015  0.0682
   46MOL0     O 6110   1.529   4.911  10.206  0.2383  0.6484 -1.3060
   46MOL0     C 6111   1.545   5.012  10.311 -0.6797 -0.2602  0.0244
   46MOL0     C 6112   1.663   5.000  10.409  0.2447  0.8787 -0.6483
   46MOL0     C 6113   1.778   4.932  10.340  0.5041 -0.1259  0.2589
   46MOL0     C 6114   1.910   4.951  10.411  0.9415  0.6882  0.1652
   46MOL0     C 6115   1.923   4.864  10.535 -0.7129 -0.1029  0.2552
   46MOL0     C 6116   2.067   4.857  10.584  0.3469 -0.2950 -0.2943
   46MOL0     C 6117   2.062   4.779  10.720 -0.2385 -0.1452  0.3379
   46MOL0     C 6118   2.188   4.807  10.808 -0.0407 -0.4253 -0.2118
   46MOL0    Cl 6119   2.185   4.680  10.936  0.2855 -0.3957 -0.3123
   46MOL0     C 6120   1.412   4.822  10.022  0.2596 -0.1860  0.1135
   46MOL0     C 6121   1.299   4.820   9.943  0.1866 -0.8521  0.1635
   46MOL0     O 6122   0.912   5.021   9.957 -0.3326 -0.1927  0.2818
   46MOL0     C 6123   0.846   4.713   9.780 -0.1346 -0.0684  0.4723
   46MOL0     C 6124   0.735   4.640   9.746  0.0710  0.3520 -0.4272
   46MOL0     N 6125   0.427   4.057   9.477 -0.0021  0.0452 -0.0381
   46MOL0     N 6126   0.411   3.959   9.552 -0.7145 -0.1236 -0.5872
   46MOL0     C 6127   1.327   4.138  10.109  0.1850  0.5637  0.0689
   46MOL0     C 6128   1.423   4.228  10.063  0.4757 -0.2709  0.7275
   46MOL0     C 6129   1.618   4.518   9.740  0.0786 -0.6027  0.0249
   46MOL0     C 6130   1.589   4.596   9.626  0.5271  0.2980 -0.4728
   46MOL0     C 6131   1.690   4.659   9.551 -0.2698  0.0846  0.0129
   46MOL0     C 6132   1.825   4.637   9.583  0.8657  0.2417  0.9509
   46MOL0     O 6133   1.915   4.702   9.509  0.7155  0.5925  0.8814
   46MOL0     C 6134   1.996   4.801   9.583 -0.0654  0.0754 -0.1540
   46MOL0     C 6135   2.011   4.922   9.494 -0.1564  0.3708  0.2114
   46MOL0     C 6136   1.873   4.999   9.493  0.4791  1.1870  1.1837
   46MOL0     C 6137   1.864   5.120   9.395  0.2064 -0.0993  0.1248
   46MOL0     C 6138   1.737   5.189   9.421 -0.5009  0.5730 -0.0370
   46MOL0     C 6139   1.634   5.241   9.441  0.1974 -0.1116 -0.2987
   46MOL0     C 6140   1.854   4.559   9.694 -0.3066  0.2481 -0.0295
   46MOL0     C 6141   1.755   4.503   9.773 -1.1943  1.2663 -0.0263
   46MOL0     C 6142   1.805   4.437   9.900  0.1602  0.0049  0.6358
   46MOL0     H 6143   1.306   4.221   9.739 -1.8390  0.1911  0.4231
   46MOL0     H 6144   1.156   4.082   9.826  0.5391 -3.3727  1.4321
   46MOL0     H 6145   0.974   4.137  10.065 -0.2878 -0.0676  0.5833
   46MOL0     H 6146   0.985   3.991   9.962  0.6099 -0.8237  1.2373
   46MOL0     H 6147   0.950   3.966  10.275 -0.9552 -0.1957  0.8948
   46MOL0     H 6148   0.948   3.846  10.152 -0.2354  0.2825 -0.3476
   46MOL0     H 6149   0.751   4.073  10.172 -0.5302  1.4830 -4.3003
   46MOL0     H 6150   0.731   3.891  10.215  1.5283 -3.0165 -2.1164
   46MOL0     H 6151   0.768   3.997   9.924  2.5828 -3.0212 -2.1879
   46MOL0     H 6152   0.740   3.833   9.977 -1.9556  0.8525 -1.5064
   46MOL0     H 6153   0.515   3.889  10.092  2.6000  0.0847  1.1017
   46MOL0     H 6154   0.541   4.054  10.051 -2.3637  0.0533  1.8511
   46MOL0     H 6155   0.547   3.968   9.798  0.2465  0.3915  0.2799
   46MOL0     H 6156   0.519   3.804   9.855  0.5076 -0.0898  1.9450
   46MOL0     H 6157   0.314   4.027   9.922 -1.6401 -1.0374  3.5076
   46MOL0     H 6158   0.302   3.867   9.968  0.4927 -0.0721  0.5398
   46MOL0     H 6159   0.292   3.804   9.698 -1.0609  0.6165 -2.2958
   46MOL0     H 6160   0.164   3.912   9.759  0.7249  0.6037  0.9795
   46MOL0     H 6161   0.211   4.189   9.683 -0.9409 -0.6892 -1.7400
   46MOL0     H 6162   0.392   4.307   9.352 -0.9963 -0.5472 -0.4263
   46MOL0     H 6163   0.246   4.330   9.446 -1.4945 -3.2864  0.6290
   46MOL0     H 6164   0.414   4.368   9.648  3.1272 -2.0629  0.7507
   46MOL0     H 6165   0.531   4.406   9.526  0.3706  0.0374  2.0770
   46MOL0     H 6166   0.257   4.533   9.583  1.4263  0.5314  1.2662
   46MOL0     H 6167   0.340   4.559   9.425  2.5707 -0.3895 -0.3736
   46MOL0     H 6168   0.376   4.744   9.605  1.1376  0.5560 -0.9607
   46MOL0     H 6169   0.523   4.679   9.515 -0.1927 -0.7282 -1.2292
   46MOL0     H 6170   0.505   4.885   9.783  1.7923  2.6913  3.0194
   46MOL0     H 6171   0.688   4.998   9.866 -0.8306 -2.0431  3.7818
   46MOL0     H 6172   1.085   5.008  10.128  0.1380 -4.5684  5.4287
   46MOL0     H 6173   1.304   5.055  10.235  3.3904 -0.5237  0.3383
   46MOL0     H 6174   1.566   5.099  10.248  1.1679 -1.1745 -0.6930
   46MOL0     H 6175   1.454   5.006  10.372 -1.1830 -1.1557 -0.7823
   46MOL0     H 6176   1.694   5.092  10.459  0.7554  0.8296 -0.8581
   46MOL0     H 6177   1.625   4.932  10.485 -3.0100  1.5437 -1.5557
   46MOL0     H 6178   1.747   4.827  10.328  3.3059 -1.0054  0.0133
   46MOL0     H 6179   1.788   4.981  10.242  3.8810 -2.7114 -0.8708
   46MOL0     H 6180   1.932   5.053  10.443  3.1389 -0.2382  1.8885
   46MOL0     H 6181   1.980   4.924  10.332  1.3299 -0.2670  0.8173
   46MOL0     H 6182   1.892   4.761  10.513  0.5786 -0.1306 -1.6727
   46MOL0     H 6183   1.857   4.903  10.614  1.3303 -0.3646  2.2085
   46MOL0     H 6184   2.116   4.810  10.498  1.4793 -1.7073  1.0684
   46MOL0     H 6185   2.113   4.953  10.607  3.7189 -1.7011 -0.5150
   46MOL0     H 6186   2.053   4.671  10.700  1.0279 -0.4273  1.1641
   46MOL0     H 6187   1.977   4.811  10.781 -0.8933 -1.7597  0.3261
   46MOL0     H 6188   2.278   4.802  10.745  0.3887  1.5953  0.1497
   46MOL0     H 6189   2.181   4.902  10.862 -0.3436  0.3750 -1.6099
   46MOL0     H 6190   1.503   4.764  10.008 -0.3268 -1.8090  2.3622
   46MOL0     H 6191   1.297   4.754   9.857 -0.2790 -0.0694 -0.4408
   46MOL0     H 6192   0.948   4.677   9.768  0.0839  1.3799 -3.0961
   46MOL0     H 6193   0.754   4.537   9.719  0.5860 -0.6013  3.1032
   46MOL0     H 6194   1.322   4.100  10.211 -0.5420 -1.4288 -0.6573
   46MOL0     H 6195   1.498   4.270  10.129  1.0191  2.4026 -1.4274
   46MOL0     H 6196   1.489   4.631   9.601 -0.2897  1.2357  3.3900
   46MOL0     H 6197   1.672   4.722   9.464  0.5950 -2.2259 -1.9768
   46MOL0     H 6198   2.091   4.753   9.610 -1.3280 -0.6674  3.3950
   46MOL0     H 6199   1.948   4.835   9.675 -0.0040 -0.1479 -0.0394
   46MOL0     H 6200   2.022   4.888   9.390 -0.5653 -0.1118  0.3212
   46MOL0     H 6201   2.089   4.994   9.520 -0.8796  0.9325  0.8740
   46MOL0     H 6202   1.858   5.040   9.594 -1.0841  0.9163  1.0842
   46MOL0     H 6203   1.786   4.935   9.481  0.3555  1.6930 -0.8672
   46MOL0     H 6204   1.947   5.189   9.406  1.5205 -1.0713 -2.7098
   46MOL0     H 6205   1.863   5.092   9.289 -0.2366  0.5026 -0.0332
   46MOL0     H 6206   1.534   5.278   9.448  0.0025 -0.8719  1.6211
   46MOL0     H 6207   1.958   4.542   9.720 -0.8950 -2.6166  0.7922
   46MOL0     H 6208   1.794   4.506   9.985 -0.1266  2.6775 -1.4413
   46MOL0     H 6209   1.755   4.345   9.931  0.9002 -1.2927 -1.7378
   46MOL0     H 6210   1.914   4.426   9.893  0.2889  1.7390 -0.9418
   47MOL0     O 6211   6.356   7.286   4.243  0.2935 -0.6242  0.0526
   47MOL0     C 6212   6.430   7.248   4.327 -0.1707  0.2439  0.0539
   47MOL0     O 6213   6.560   7.206   4.311 -0.1565 -0.0512 -0.1783
   47MOL0     C 6214   6.619   7.221   4.187 -0.3098  0.2075  0.5737
   47MOL0     C 6215   6.739   7.297   4.177  0.3662  0.5973  0.3711
   47MOL0     C 6216   6.797   7.334   4.055  0.3789  1.1874 -1.2957
   47MOL0     C 6217   6.735   7.297   3.935 -0.1294 -0.6361 -0.7918
   47MOL0     O 6218   6.769   7.355   3.815 -0.1288 -0.0590 -0.3592
   47MOL0     C 6219   6.900   7.411   3.794  0.2684 -0.2613  0.2997
   47MOL0     C 6220   6.924   7.402   3.639  0.0148 -0.4773 -1.3442
   47MOL0     C 6221   7.066   7.452   3.595 -0.7905  0.0951 -0.3597
   47MOL0     C 6222   7.096   7.427   3.452 -0.0807  0.1172  0.2704
   47MOL0     C 6223   7.236   7.488   3.428  0.3726  0.3105  0.3143
   47MOL0     C 6224   7.277   7.444   3.290  0.4855  0.4414  0.4670
   47MOL0     C 6225   7.420   7.497   3.268 -0.1142  0.0881 -0.0887
   47MOL0     C 6226   7.439   7.640   3.256 -1.1516 -0.6602  0.5998
   47MOL0     N 6227   7.584   7.674   3.269  0.0907 -0.1223 -0.4040
   47MOL0     C 6228   7.628   7.803   3.303 -0.3171 -0.0346  0.2275
   47MOL0     C 6229   7.760   7.794   3.326 -0.3385 -0.8817 -0.6769
   47MOL0     C 6230   7.855   7.908   3.365  0.2315 -0.5722  0.4935
   47MOL0     C 6231   8.003   7.879   3.345 -0.0317  0.9264 -0.4727
   47MOL0     C 6232   8.051   7.846   3.209 -0.5875 -1.0819  0.6650
   47MOL0     C 6233   8.190   7.897   3.187 -1.0073 -0.4713  0.4129
   47MOL0     O 6234   8.274   7.822   3.278 -0.0883  0.0547  0.1671
   47MOL0     C 6235   8.414   7.829   3.268 -0.3315 -0.1420  0.8480
   47MOL0     C 6236   8.474   7.902   3.167 -0.1099 -0.7538  0.6619
   47MOL0     C 6237   8.613   7.929   3.168 -0.6250 -0.0703  0.4598
   47MOL0     C 6238   8.703   7.874   3.262 -0.1236 -0.4287  0.3044
   47MOL0     C 6239   8.845   7.886   3.261  1.1014 -0.4118 -0.0432
   47MOL0     O 6240   8.911   7.877   3.381  0.2166  1.0283 -0.6369
   47MOL0     C 6241   9.049   7.882   3.392  0.5737 -0.3947  0.3018
   47MOL0     C 6242   9.088   7.950   3.509  0.7430  0.6339  0.0839
   47MOL0     C 6243   9.220   7.940   3.552  0.7555 -0.2586  0.5187
   47MOL0     C 6244   9.314   7.869   3.483 -0.7167 -0.0818  0.1222
   47MOL0     O 6245   9.439   7.859   3.543  0.2024 -0.7315  0.0727
   47MOL0     C 6246   9.563   7.834   3.476 -0.4291 -0.1233  0.3228
   47MOL0     C 6247   9.668   7.853   3.584  0.3774 -0.6942  0.0295
   47MOL0     C 6248   9.690   8.002   3.608 -0.2776 -0.0647 -0.8053
   47MOL0     C 6249   9.768   8.020   3.740 -0.8469  0.4742 -0.2935
   47MOL0     C 6250   9.815   8.166   3.764  0.1253  0.2748  0.4580
   47MOL0     C 6251   9.880   8.196   3.898  0.0392  0.5395 -0.5981
   47MOL0     C 6252   9.979   8.092   3.953 -0.1363 -0.5151 -1.0063
   47MOL0     C 6253  10.119   8.066   3.892  0.0714 -0.1404  0.1452
   47MOL0    Cl 6254  10.210   8.208   3.844 -0.4033  0.3395  0.6612
   47MOL0     C 6255   9.281   7.830   3.351  0.7737 -0.1401  0.2568
   47MOL0     C 6256   9.148   7.826   3.307 -0.1680  0.6075  0.3184
   47MOL0     O 6257   8.895   7.874   3.153 -0.4522  0.3576  0.4680
   47MOL0     C 6258   8.637   7.805   3.362  0.1168  0.4996  0.1868
   47MOL0     C 6259   8.496   7.789   3.367 -1.1895 -0.4083  0.0903
   47MOL0     N 6260   7.795   7.665   3.306  0.1114  0.1250 -0.2754
   47MOL0     N 6261   7.694   7.592   3.268  0.5210 -0.2869  0.2420
   47MOL0     C 6262   6.628   7.216   3.935  0.0350  0.2701  0.6170
   47MOL0     C 6263   6.569   7.175   4.060  1.2687 -0.3615  0.1105
   47MOL0     C 6264   6.369   7.249   4.461 -0.2512  0.1847 -0.1108
   47MOL0     C 6265   6.300   7.364   4.500 -0.4426  0.2698  0.5514
   47MOL0     C 6266   6.246   7.374   4.628 -0.2748  0.0312 -0.6024
   47MOL0     C 6267   6.259   7.269   4.723  0.7716 -1.2770  0.2988
   47MOL0     O 6268   6.228   7.274   4.851  0.7485 -0.4200 -1.3098
   47MOL0     C 6269   6.193   7.402   4.915 -0.1416 -0.6473  0.0965
   47MOL0     C 6270   6.311   7.454   4.999  0.1402  0.5265  0.4916
   47MOL0     C 6271   6.425   7.512   4.912  0.1599  0.6463  0.4845
   47MOL0     C 6272   6.544   7.561   4.991 -0.2241  0.6767  0.0808
   47MOL0     C 6273   6.662   7.580   4.905  0.6496  0.1160  0.0500
   47MOL0     C 6274   6.761   7.598   4.840 -1.1599 -0.4527  0.1543
   47MOL0     C 6275   6.316   7.155   4.683  0.7048  0.2662 -0.0235
   47MOL0     C 6276   6.373   7.146   4.557  0.5501  0.2151 -0.4939
   47MOL0     C 6277   6.433   7.018   4.533 -0.7661 -0.2519  0.1596
   47MOL0     H 6278   6.803   7.322   4.262  0.9342  3.2043 -0.7164
   47MOL0     H 6279   6.888   7.392   4.044  1.7311 -0.3003  1.0264
   47MOL0     H 6280   6.898   7.515   3.826 -0.2220  0.1850 -1.1018
   47MOL0     H 6281   6.976   7.357   3.850 -0.2250 -1.3711 -0.0578
   47MOL0     H 6282   6.843   7.463   3.597 -1.5959 -1.6788 -0.1098
   47MOL0     H 6283   6.911   7.307   3.588 -1.3894 -0.1675 -1.5962
   47MOL0     H 6284   7.144   7.399   3.651 -0.3294 -0.7002 -1.6879
   47MOL0     H 6285   7.079   7.558   3.616 -3.0017  0.0740  1.4643
   47MOL0     H 6286   7.099   7.319   3.432 -0.2723 -0.1361  1.5222
   47MOL0     H 6287   7.023   7.483   3.393 -1.3009 -2.6365 -0.9835
   47MOL0     H 6288   7.241   7.597   3.440 -1.2065  0.5344 -0.7429
   47MOL0     H 6289   7.310   7.443   3.495 -0.4463  3.1966  3.4068
   47MOL0     H 6290   7.279   7.337   3.267  1.3363  0.9219 -2.0290
   47MOL0     H 6291   7.211   7.490   3.216  0.1846  0.1063  0.5267
   47MOL0     H 6292   7.455   7.454   3.174  0.4457  1.9493 -0.7783
   47MOL0     H 6293   7.491   7.467   3.345  0.1267  1.5922  0.3007
   47MOL0     H 6294   7.403   7.675   3.159  3.9658  1.0798 -1.0072
   47MOL0     H 6295   7.402   7.694   3.344  2.4063  0.7102  1.4147
   47MOL0     H 6296   7.562   7.889   3.303  0.8224  0.8592  0.7506
   47MOL0     H 6297   7.819   7.998   3.313  2.3430  0.7635  1.2064
   47MOL0     H 6298   7.836   7.903   3.472  1.1561 -2.2610  0.6219
   47MOL0     H 6299   8.053   7.969   3.381 -1.2221  1.7437 -0.7866
   47MOL0     H 6300   8.018   7.787   3.401 -1.5408 -0.9926 -2.9687
   47MOL0     H 6301   7.986   7.899   3.139  3.2517  0.0593 -2.3795
   47MOL0     H 6302   8.044   7.738   3.191  0.0897 -1.1768  0.9588
   47MOL0     H 6303   8.198   8.004   3.211  0.6319 -0.1891 -1.1405
   47MOL0     H 6304   8.209   7.888   3.080 -1.1358 -0.2397  0.3682
   47MOL0     H 6305   8.423   7.931   3.076 -0.5549 -3.6996 -0.1499
   47MOL0     H 6306   8.649   7.996   3.091  0.5861 -0.1800  0.9120
   47MOL0     H 6307   9.024   8.019   3.564  0.7347  0.3977  0.3802
   47MOL0     H 6308   9.258   7.979   3.646 -3.9454 -0.8747  2.9481
   47MOL0     H 6309   9.567   7.729   3.447 -0.7000  0.0705 -0.4370
   47MOL0     H 6310   9.572   7.900   3.390 -1.8102 -0.1009  0.1688
   47MOL0     H 6311   9.640   7.807   3.679  6.6124 -0.2322  2.5667
   47MOL0     H 6312   9.763   7.813   3.549  0.3045  0.7572 -1.9776
   47MOL0     H 6313   9.744   8.056   3.530 -1.7072  2.2043 -0.3311
   47MOL0     H 6314   9.593   8.052   3.621  1.0628  1.9882  2.8162
   47MOL0     H 6315   9.859   7.959   3.731 -1.7304 -1.0001  0.3270
   47MOL0     H 6316   9.708   7.981   3.823  0.7911 -2.7356 -0.4222
   47MOL0     H 6317   9.722   8.224   3.768  1.4523  2.5938 -0.3998
   47MOL0     H 6318   9.866   8.205   3.675  1.1306  0.7360  1.2207
   47MOL0     H 6319   9.924   8.296   3.890  2.1370 -0.3209 -0.7281
   47MOL0     H 6320   9.804   8.196   3.976 -0.2874  1.3373 -0.9093
   47MOL0     H 6321   9.923   7.998   3.958 -0.7596 -0.1423 -0.9184
   47MOL0     H 6322   9.986   8.116   4.059 -5.2249  2.8906 -1.0753
   47MOL0     H 6323  10.185   8.007   3.957  0.7027 -1.8632 -1.9203
   47MOL0     H 6324  10.105   8.007   3.801 -0.6045  0.7027 -0.3076
   47MOL0     H 6325   9.357   7.788   3.287 -0.4613  0.2482 -1.5258
   47MOL0     H 6326   9.116   7.772   3.218  1.8780 -1.4243  0.7135
   47MOL0     H 6327   8.686   7.775   3.454  1.0480  1.5646  0.0623
   47MOL0     H 6328   8.435   7.744   3.444 -2.3648 -0.8735 -1.0839
   47MOL0     H 6329   6.563   7.198   3.849  0.4355 -1.2984  0.6156
   47MOL0     H 6330   6.478   7.116   4.056  0.2463  0.8855  2.6144
   47MOL0     H 6331   6.283   7.446   4.431  0.8423 -0.0090 -0.1333
   47MOL0     H 6332   6.196   7.469   4.642  0.6065  0.6052 -1.2182
   47MOL0     H 6333   6.113   7.386   4.987 -1.1570  3.0546 -0.0280
   47MOL0     H 6334   6.160   7.482   4.848  0.0965 -2.0224 -1.7617
   47MOL0     H 6335   6.358   7.378   5.062 -0.6000  2.4260  3.5462
   47MOL0     H 6336   6.288   7.536   5.069 -0.4749 -0.7298  1.8181
   47MOL0     H 6337   6.387   7.605   4.867  3.3702  2.5159  1.3121
   47MOL0     H 6338   6.466   7.441   4.840 -2.1274 -0.1848 -0.1060
   47MOL0     H 6339   6.520   7.658   5.036 -2.2831  0.3673 -0.2768
   47MOL0     H 6340   6.580   7.491   5.068  1.9438  1.6741  0.0592
   47MOL0     H 6341   6.843   7.616   4.774 -2.1055  1.5384 -0.5673
   47MOL0     H 6342   6.326   7.072   4.752 -0.5928  0.3008  0.2317
   47MOL0     H 6343   6.517   7.025   4.463 -2.4573 -0.4274 -2.0164
   47MOL0     H 6344   6.472   6.993   4.632  0.9515  2.0923  0.1410
   47MOL0     H 6345   6.362   6.942   4.496 -0.3812 -0.3394 -0.4185
   48MOL0     O 6346   7.592   3.985   7.739  0.1187 -0.2979 -0.4134
   48MOL0     C 6347   7.529   3.894   7.690  0.2936 -0.9073 -0.0644
   48MOL0     O 6348   7.545   3.764   7.715  0.4233  0.0870 -0.4971
   48MOL0     C 6349   7.658   3.718   7.770 -0.0313  1.1304 -0.6603
   48MOL0     C 6350   7.642   3.639   7.891 -0.9923 -0.0731 -0.2200
   48MOL0     C 6351   7.757   3.595   7.961 -0.0932  0.0694  0.6870
   48MOL0     C 6352   7.883   3.630   7.914  0.1144  0.4678 -0.0818
   48MOL0     O 6353   8.005   3.605   7.975 -0.1934 -0.2173  0.3373
   48MOL0     C 6354   8.012   3.483   8.054 -0.3816  0.4515  0.7443
   48MOL0     C 6355   8.153   3.429   8.068  0.8924 -0.0099 -0.3645
   48MOL0     C 6356   8.205   3.399   7.926  0.1642  0.0977  0.2828
   48MOL0     C 6357   8.343   3.358   7.934 -0.6698  0.8022  0.9535
   48MOL0     C 6358   8.390   3.290   7.811  0.5871 -0.2788  0.1171
   48MOL0     C 6359   8.531   3.259   7.836 -0.7379 -0.0730 -0.2269
   48MOL0     C 6360   8.570   3.167   7.720 -0.6247 -0.6260 -0.9668
   48MOL0     C 6361   8.710   3.119   7.745 -0.2055  0.9601  0.7716
   48MOL0     N 6362   8.732   3.031   7.860  0.0178  0.0978  0.4445
   48MOL0     C 6363   8.671   2.911   7.872 -0.2386  0.1038  0.2519
   48MOL0     C 6364   8.665   2.876   8.003  0.4458 -0.6312  0.6673
   48MOL0     C 6365   8.609   2.749   8.063 -0.1513 -0.6575 -0.2134
   48MOL0     C 6366   8.704   2.631   8.065 -0.0892 -0.2311 -0.1761
   48MOL0     C 6367   8.818   2.655   8.158  0.9267  0.2799 -0.4040
   48MOL0     C 6368   8.907   2.533   8.168  0.6807  0.4650  0.5619
   48MOL0     O 6369   9.002   2.545   8.273 -0.2779  0.2919 -0.2866
   48MOL0     C 6370   9.135   2.567   8.242 -0.2229 -0.0255  0.8875
   48MOL0     C 6371   9.232   2.476   8.285  0.2549 -0.1899 -0.9170
   48MOL0     C 6372   9.363   2.509   8.269  0.1521 -0.1184 -0.5568
   48MOL0     C 6373   9.409   2.636   8.214 -0.0262 -0.1033 -0.1340
   48MOL0     C 6374   9.554   2.662   8.192 -0.4632  0.1873 -0.5976
   48MOL0     O 6375   9.596   2.764   8.116 -0.4337  0.2002  0.1314
   48MOL0     C 6376   9.736   2.790   8.107  0.4802  0.3848 -0.6065
   48MOL0     C 6377   9.795   2.781   7.978  0.5275  0.1027  0.0628
   48MOL0     C 6378   9.932   2.789   7.964  0.7383 -0.1134 -0.0870
   48MOL0     C 6379  10.005   2.816   8.084 -0.1222  0.4299  0.3086
   48MOL0     O 6380  10.135   2.829   8.042 -0.4217 -0.4448  0.4016
   48MOL0     C 6381  10.229   2.911   8.122  0.5911 -0.2244 -0.6120
   48MOL0     C 6382  10.303   2.997   8.026  0.4120 -0.3181 -0.3234
   48MOL0     C 6383  10.230   3.130   7.998  0.3989  0.1294 -0.3346
   48MOL0     C 6384  10.314   3.210   7.890  0.8052 -0.8438  0.1266
   48MOL0     C 6385  10.254   3.349   7.867  1.3794 -0.2354 -0.2711
   48MOL0     C 6386  10.097   3.354   7.851  0.5221 -0.3996  0.7874
   48MOL0     C 6387  10.050   3.500   7.818 -0.2202  0.5469  0.9332
   48MOL0     C 6388   9.916   3.491   7.745 -0.1848 -0.3459 -0.1304
   48MOL0    Cl 6389   9.923   3.411   7.584 -0.1354  0.4513  0.1655
   48MOL0     C 6390   9.959   2.841   8.206 -0.4328 -0.6364  0.3463
   48MOL0     C 6391   9.818   2.837   8.221  0.1130  0.3847 -1.3417
   48MOL0     O 6392   9.629   2.589   8.261  0.0471 -0.5374 -0.0668
   48MOL0     C 6393   9.316   2.722   8.161 -0.1216  0.2751 -0.2319
   48MOL0     C 6394   9.176   2.687   8.179 -0.1561 -0.2082  0.4956
   48MOL0     N 6395   8.714   2.982   8.072 -0.3023  0.6679 -0.2696
   48MOL0     N 6396   8.752   3.072   7.985  0.1101  0.4078  0.0790
   48MOL0     C 6397   7.895   3.691   7.785  0.5284  0.4213 -0.5438
   48MOL0     C 6398   7.779   3.732   7.714 -0.2817 -0.4585 -1.3027
   48MOL0     C 6399   7.417   3.934   7.597  0.6245  0.4222 -1.4956
   48MOL0     C 6400   7.314   3.845   7.578  0.2847  0.0071 -0.0390
   48MOL0     C 6401   7.205   3.867   7.503  0.5803  0.9388  1.0317
   48MOL0     C 6402   7.193   3.982   7.431  0.1975 -0.5843  0.5533
   48MOL0     O 6403   7.085   3.996   7.347  0.7925  0.5616  0.4950
   48MOL0     C 6404   7.072   4.105   7.254 -0.2987 -0.3483 -0.4075
   48MOL0     C 6405   6.946   4.096   7.167  0.4662  0.8597  0.1226
   48MOL0     C 6406   6.981   4.057   7.022 -0.0587  0.4512  0.6224
   48MOL0     C 6407   6.998   3.902   7.003  0.1839 -0.0484  0.1771
   48MOL0     C 6408   7.038   3.867   6.869  0.0907 -0.4260  0.7508
   48MOL0     C 6409   7.068   3.858   6.750  0.0440  0.0342 -0.0179
   48MOL0     C 6410   7.286   4.085   7.456 -1.2231 -0.3810 -0.3918
   48MOL0     C 6411   7.394   4.061   7.544  0.0913 -0.9626  0.5340
   48MOL0     C 6412   7.492   4.178   7.564  0.0902  0.6888 -0.0195
   48MOL0     H 6413   7.550   3.604   7.937 -0.2964 -2.7527 -0.7152
   48MOL0     H 6414   7.747   3.538   8.053  4.8062  0.6910  1.8790
   48MOL0     H 6415   7.975   3.508   8.154  0.1413 -0.6559  1.2347
   48MOL0     H 6416   7.951   3.406   8.007  3.4264 -2.0770 -0.5620
   48MOL0     H 6417   8.158   3.343   8.135 -0.9839  2.2369  2.9672
   48MOL0     H 6418   8.211   3.506   8.119  0.5000  0.1702 -0.1801
   48MOL0     H 6419   8.214   3.486   7.860 -0.5984 -0.0143  0.0214
   48MOL0     H 6420   8.148   3.320   7.877  0.4905  1.0768 -1.7734
   48MOL0     H 6421   8.407   3.446   7.949  0.6913 -0.2381  1.4746
   48MOL0     H 6422   8.363   3.297   8.022  3.9613  0.5748  0.0136
   48MOL0     H 6423   8.326   3.204   7.788 -2.9002  1.9869  0.5808
   48MOL0     H 6424   8.385   3.357   7.724  1.3222 -0.6634 -0.2302
   48MOL0     H 6425   8.585   3.353   7.826 -0.7053 -0.1740 -1.1032
   48MOL0     H 6426   8.543   3.212   7.934  0.9732  0.0126 -0.3717
   48MOL0     H 6427   8.571   3.227   7.628  1.0563  0.2476 -0.4292
   48MOL0     H 6428   8.502   3.082   7.712  0.5908 -1.6870 -0.4152
   48MOL0     H 6429   8.726   3.053   7.659  1.0548  0.9829  0.9780
   48MOL0     H 6430   8.779   3.204   7.741 -2.7258  3.1736  1.1997
   48MOL0     H 6431   8.629   2.850   7.793 -0.0279 -1.1352  1.0808
   48MOL0     H 6432   8.578   2.780   8.164 -2.9631  1.1467 -1.5096
   48MOL0     H 6433   8.515   2.730   8.010  0.2431  0.3339 -1.3110
   48MOL0     H 6434   8.642   2.549   8.102 -0.3264 -0.4960 -1.1183
   48MOL0     H 6435   8.744   2.608   7.966 -2.4522  1.2012 -1.5798
   48MOL0     H 6436   8.783   2.670   8.261 -0.4943 -1.5673 -0.5678
   48MOL0     H 6437   8.880   2.739   8.125  2.9224 -0.7671  0.4928
   48MOL0     H 6438   8.957   2.520   8.071 -0.2395 -0.9770  0.2481
   48MOL0     H 6439   8.841   2.447   8.187 -0.1933  0.9455 -0.2354
   48MOL0     H 6440   9.201   2.382   8.331 -2.5006  0.8978 -0.3525
   48MOL0     H 6441   9.449   2.447   8.295  0.0207  0.1729  0.6036
   48MOL0     H 6442   9.727   2.764   7.896 -0.8187 -3.8070  1.7584
   48MOL0     H 6443   9.979   2.781   7.866 -2.0738 -1.8224 -1.4444
   48MOL0     H 6444  10.176   2.971   8.196  1.1629  2.9908 -2.6072
   48MOL0     H 6445  10.307   2.852   8.170  2.3249  2.6097  0.3330
   48MOL0     H 6446  10.392   3.027   8.083  1.1210  0.3729 -1.7445
   48MOL0     H 6447  10.323   2.931   7.941  1.8913 -0.0391 -0.2146
   48MOL0     H 6448  10.129   3.109   7.962 -0.6055 -0.5263  2.5810
   48MOL0     H 6449  10.238   3.182   8.094 -0.1741 -1.0394  0.3695
   48MOL0     H 6450  10.315   3.155   7.795 -0.6482  0.3999 -0.6391
   48MOL0     H 6451  10.417   3.214   7.928  0.8781 -2.2652  0.1599
   48MOL0     H 6452  10.305   3.387   7.779  0.2243 -1.6137 -1.6009
   48MOL0     H 6453  10.285   3.417   7.947 -0.4026 -2.0393  2.1447
   48MOL0     H 6454  10.061   3.280   7.780  0.8814  0.0144  0.1587
   48MOL0     H 6455  10.048   3.332   7.946 -3.6237 -2.5523 -1.5638
   48MOL0     H 6456  10.117   3.534   7.738 -1.0862  0.4231  0.1316
   48MOL0     H 6457  10.047   3.566   7.905 -0.1218 -0.8593  2.0443
   48MOL0     H 6458   9.844   3.437   7.806  2.9451 -0.3100  4.0785
   48MOL0     H 6459   9.882   3.594   7.737  0.7629  0.1732  1.8454
   48MOL0     H 6460  10.029   2.859   8.286  0.0237 -0.0932 -0.1672
   48MOL0     H 6461   9.777   2.846   8.321  2.6560 -0.8198 -0.1026
   48MOL0     H 6462   9.347   2.815   8.114 -1.8735 -0.1086 -2.2873
   48MOL0     H 6463   9.098   2.757   8.152 -0.9147 -1.7455 -1.4927
   48MOL0     H 6464   7.996   3.709   7.751  1.5373 -2.6264  0.5240
   48MOL0     H 6465   7.779   3.781   7.618  0.0408 -0.0098 -1.0725
   48MOL0     H 6466   7.331   3.744   7.614 -0.2935  0.0123  0.2522
   48MOL0     H 6467   7.122   3.797   7.503  0.5507  0.9264 -0.6799
   48MOL0     H 6468   7.162   4.107   7.192  0.2642  3.4763  0.2937
   48MOL0     H 6469   7.073   4.199   7.310  1.2817  0.6911 -2.0799
   48MOL0     H 6470   6.899   4.194   7.160 -1.6733 -0.0957  0.3319
   48MOL0     H 6471   6.883   4.016   7.208  0.9382  0.8772  0.8955
   48MOL0     H 6472   7.078   4.099   6.992  0.1271 -0.3520  0.0428
   48MOL0     H 6473   6.896   4.085   6.959 -0.4647 -2.0286 -0.0308
   48MOL0     H 6474   7.073   3.853   7.066  0.1128  0.4297  0.6473
   48MOL0     H 6475   6.908   3.847   7.030 -1.5934  2.0789 -1.0353
   48MOL0     H 6476   7.093   3.844   6.647  0.8964 -0.6671  0.2713
   48MOL0     H 6477   7.270   4.177   7.401 -1.0100 -0.1383 -0.0532
   48MOL0     H 6478   7.492   4.261   7.493  1.4549  1.4594  0.8544
   48MOL0     H 6479   7.503   4.221   7.663  2.9660  0.5975 -0.2153
   48MOL0     H 6480   7.590   4.138   7.536 -0.3655  1.3978 -3.0251
   49MOL0     O 6481   8.730  10.267   7.272  0.9842  0.3000 -0.1557
   49MOL0     C 6482   8.662  10.235   7.178  0.0907 -0.2616 -0.7158
   49MOL0     O 6483   8.718  10.216   7.051  0.2510 -0.1081 -0.5084
   49MOL0     C 6484   8.813  10.304   7.006 -0.1875  1.1817  0.3428
   49MOL0     C 6485   8.877  10.265   6.884  0.1156  0.2135 -0.0522
   49MOL0     C 6486   8.994  10.334   6.844  0.3667 -0.4860  0.1348
   49MOL0     C 6487   9.044  10.448   6.902 -0.9308  0.0830  0.2129
   49MOL0     O 6488   9.150  10.516   6.849 -0.6522  0.4498  0.3654
   49MOL0     C 6489   9.244  10.439   6.771  0.8814  0.8208  0.2248
   49MOL0     C 6490   9.380  10.495   6.784 -0.4830  0.0734  0.6344
   49MOL0     C 6491   9.442  10.495   6.927  0.0608  0.2208 -0.1956
   49MOL0     C 6492   9.566  10.584   6.927 -0.1729 -0.0216  1.1570
   49MOL0     C 6493   9.580  10.634   7.074 -0.0467  0.1843  1.2331
   49MOL0     C 6494   9.707  10.717   7.061 -0.4649 -0.7099  0.2641
   49MOL0     C 6495   9.735  10.791   7.194  0.1262  1.0967 -0.6740
   49MOL0     C 6496   9.878  10.843   7.198  0.6743 -0.6787  0.5330
   49MOL0     N 6497   9.972  10.730   7.233  0.0820  0.5524 -0.1224
   49MOL0     C 6498  10.009  10.687   7.363 -0.2973  0.0103  0.2011
   49MOL0     C 6499  10.112  10.598   7.345  0.1454  0.0877  0.4172
   49MOL0     C 6500  10.202  10.522   7.436 -0.1457  0.6570 -0.0521
   49MOL0     C 6501  10.323  10.594   7.487  0.3805  0.2434  0.0297
   49MOL0     C 6502  10.410  10.623   7.363 -0.1293 -0.1088  0.3281
   49MOL0     C 6503  10.542  10.675   7.402  0.6446 -0.7397 -0.4495
   49MOL0     O 6504  10.614  10.579   7.470 -0.4654  0.3490 -0.6777
   49MOL0     C 6505  10.738  10.623   7.501  0.1895  0.4156  0.2273
   49MOL0     C 6506  10.779  10.757   7.518 -0.4451 -0.6311 -0.5587
   49MOL0     C 6507  10.911  10.801   7.544 -0.6374 -0.1806  0.0038
   49MOL0     C 6508  11.009  10.694   7.542 -0.0073  0.5640 -0.4279
   49MOL0     C 6509  11.149  10.721   7.551  0.3000  0.4989  0.1483
   49MOL0     O 6510  11.199  10.844   7.532 -0.1822 -0.1160  1.0036
   49MOL0     C 6511  11.335  10.869   7.554 -0.4034  0.3436  0.0658
   49MOL0     C 6512  11.429  10.810   7.647  0.6195  0.0777  0.1367
   49MOL0     C 6513  11.565  10.849   7.646  1.1003 -0.1424 -0.7842
   49MOL0     C 6514  11.610  10.955   7.565 -0.3015  0.3391 -0.2185
   49MOL0     O 6515  11.737  10.995   7.568 -0.1600 -0.0992  0.0086
   49MOL0     C 6516  11.797  10.995   7.698  0.8918 -0.7803  0.7197
   49MOL0     C 6517  11.925  11.087   7.704  0.1015  0.3712  0.4459
   49MOL0     C 6518  11.893  11.230   7.701  0.0755  0.6859  0.2147
   49MOL0     C 6519  12.015  11.320   7.676  0.2077 -0.1980  0.5552
   49MOL0     C 6520  12.071  11.296   7.532 -0.5792  0.5541 -0.5149
   49MOL0     C 6521  12.148  11.413   7.464 -0.0522 -0.4845 -1.1776
   49MOL0     C 6522  12.249  11.486   7.555 -0.3271 -0.3494 -0.2272
   49MOL0     C 6523  12.291  11.628   7.500  1.1559  0.3169 -0.3130
   49MOL0    Cl 6524  12.440  11.674   7.567 -0.1939  0.2005  0.0448
   49MOL0     C 6525  11.523  10.996   7.468  0.1276 -0.1836  0.6723
   49MOL0     C 6526  11.392  10.964   7.467 -0.7442 -0.0098  0.1669
   49MOL0     O 6527  11.213  10.623   7.588  0.6224  0.3773  0.0693
   49MOL0     C 6528  10.965  10.560   7.532 -0.1382 -0.4904  1.1410
   49MOL0     C 6529  10.836  10.528   7.504 -0.4677 -0.1056  0.6630
   49MOL0     N 6530  10.125  10.566   7.208  0.5728 -0.3966  0.2346
   49MOL0     N 6531  10.054  10.660   7.144 -0.0050 -0.5326  0.0747
   49MOL0     C 6532   8.971  10.501   7.003 -0.2489 -1.0281  0.1984
   49MOL0     C 6533   8.866  10.423   7.066  0.6142 -0.0445 -0.1720
   49MOL0     C 6534   8.523  10.190   7.199  0.1903 -0.5758 -0.2863
   49MOL0     C 6535   8.448  10.180   7.078 -0.9030 -0.2692 -0.1046
   49MOL0     C 6536   8.308  10.157   7.081  0.0750  0.1966  0.5505
   49MOL0     C 6537   8.243  10.143   7.202 -0.8015 -1.2094 -0.8669
   49MOL0     O 6538   8.117  10.099   7.194  0.3316  0.5446  0.2850
   49MOL0     C 6539   8.027  10.093   7.305  0.2532 -0.6546  0.2768
   49MOL0     C 6540   7.881  10.105   7.263 -0.9286 -1.1121 -1.4446
   49MOL0     C 6541   7.823   9.981   7.197 -0.1639 -0.0807  0.5147
   49MOL0     C 6542   7.760   9.876   7.286 -1.0513  1.1311  0.5679
   49MOL0     C 6543   7.770   9.752   7.209 -0.4291  0.3764 -0.0828
   49MOL0     C 6544   7.781   9.636   7.175  0.1491  0.6450 -0.0660
   49MOL0     C 6545   8.314  10.158   7.323  0.0502  0.5640 -0.1733
   49MOL0     C 6546   8.458  10.178   7.329 -0.1242  0.4253 -0.2138
   49MOL0     C 6547   8.525  10.189   7.469  0.2528 -0.2428  0.7222
   49MOL0     H 6548   8.863  10.167   6.841 -0.1206  0.2087  0.0324
   49MOL0     H 6549   9.044  10.309   6.751 -1.0177 -0.6882 -0.5811
   49MOL0     H 6550   9.246  10.334   6.802 -0.7746  0.2214 -1.5136
   49MOL0     H 6551   9.214  10.425   6.667 -1.5555 -0.3031  1.0145
   49MOL0     H 6552   9.369  10.591   6.734  2.0633 -1.0760 -2.5220
   49MOL0     H 6553   9.457  10.442   6.727  1.3189  2.1045  1.0454
   49MOL0     H 6554   9.473  10.393   6.952 -0.2601  0.0553 -0.4651
   49MOL0     H 6555   9.360  10.517   6.997 -0.8180 -0.5693 -0.9378
   49MOL0     H 6556   9.657  10.534   6.891  0.5275  3.1086 -2.0434
   49MOL0     H 6557   9.551  10.664   6.854  1.5017 -0.8797 -0.2173
   49MOL0     H 6558   9.491  10.689   7.106 -0.6335 -0.1981  0.2991
   49MOL0     H 6559   9.619  10.557   7.141  6.1841  2.7484  1.2024
   49MOL0     H 6560   9.788  10.650   7.030 -0.3126 -1.3786  1.9901
   49MOL0     H 6561   9.695  10.790   6.980  0.2606  0.1661  0.9332
   49MOL0     H 6562   9.713  10.726   7.279 -2.2364  0.5658 -1.6340
   49MOL0     H 6563   9.669  10.878   7.192  1.9977  2.5718 -1.0011
   49MOL0     H 6564   9.899  10.874   7.095 -1.7401  1.1476  0.5039
   49MOL0     H 6565   9.885  10.931   7.263 -0.4037  1.4668 -2.0556
   49MOL0     H 6566   9.968  10.708   7.462  2.4613 -3.0223  2.1952
   49MOL0     H 6567  10.139  10.497   7.522 -2.7811 -2.6375 -2.6472
   49MOL0     H 6568  10.230  10.428   7.387  2.2956  1.1931  0.1457
   49MOL0     H 6569  10.296  10.686   7.539  0.2710 -0.4089  1.1526
   49MOL0     H 6570  10.380  10.531   7.556 -2.2283 -0.1137  1.9865
   49MOL0     H 6571  10.362  10.699   7.301 -2.5663 -0.5664  1.5397
   49MOL0     H 6572  10.427  10.538   7.296  2.1772  1.3450 -1.0498
   49MOL0     H 6573  10.528  10.754   7.477 -1.1517 -2.2359  0.8869
   49MOL0     H 6574  10.586  10.712   7.309  3.0831 -0.8796  0.5707
   49MOL0     H 6575  10.710  10.841   7.520  0.7949  0.4063  0.1337
   49MOL0     H 6576  10.928  10.908   7.536 -0.5793 -0.1737  0.1971
   49MOL0     H 6577  11.403  10.728   7.714 -1.1729  2.3087  2.3506
   49MOL0     H 6578  11.620  10.797   7.724  0.7941  2.0411  0.9699
   49MOL0     H 6579  11.726  11.017   7.778  2.7306  2.2046  1.7405
   49MOL0     H 6580  11.840  10.897   7.721  3.2986 -0.2633 -1.1267
   49MOL0     H 6581  11.982  11.071   7.796  2.5622  0.9792 -0.8968
   49MOL0     H 6582  11.986  11.057   7.619 -4.7638  0.6271 -3.5834
   49MOL0     H 6583  11.817  11.246   7.624  0.4721 -2.5267 -1.0045
   49MOL0     H 6584  11.854  11.258   7.800  1.1188 -2.7391  1.7406
   49MOL0     H 6585  12.095  11.292   7.745  0.5906  0.5564  0.4325
   49MOL0     H 6586  11.983  11.424   7.689  1.1886  0.1708  0.1465
   49MOL0     H 6587  12.001  11.258   7.457 -1.6551 -1.9801  1.5992
   49MOL0     H 6588  12.142  11.214   7.547  0.4422  1.1960 -1.7549
   49MOL0     H 6589  12.191  11.375   7.371  1.0179 -1.7448 -0.1970
   49MOL0     H 6590  12.072  11.485   7.432 -1.1704 -0.5083  1.2092
   49MOL0     H 6591  12.340  11.428   7.570  0.3790  0.8594  0.2572
   49MOL0     H 6592  12.211  11.503   7.656 -1.8528  0.1272 -0.8498
   49MOL0     H 6593  12.288  11.625   7.391 -1.0058  0.0890 -0.2893
   49MOL0     H 6594  12.217  11.701   7.535 -0.1332  0.5783 -3.3276
   49MOL0     H 6595  11.563  11.079   7.411  2.1499  0.5550  3.0157
   49MOL0     H 6596  11.332  11.021   7.397  0.5542  0.7577 -0.3569
   49MOL0     H 6597  11.038  10.481   7.543  1.2936  0.9996  3.0751
   49MOL0     H 6598  10.821  10.424   7.479 -0.6885  0.0077  0.3057
   49MOL0     H 6599   8.998  10.594   7.052  1.1983 -1.9715  1.2699
   49MOL0     H 6600   8.832  10.469   7.158  2.1823 -1.7963  1.3654
   49MOL0     H 6601   8.502  10.210   6.988  1.9969 -0.6075  1.3901
   49MOL0     H 6602   8.250  10.145   6.990  1.9327 -2.5728 -0.4070
   49MOL0     H 6603   8.063  10.169   7.376 -1.5046 -1.1940  1.8100
   49MOL0     H 6604   8.034   9.999   7.361  1.8716 -1.0858 -0.5880
   49MOL0     H 6605   7.883  10.194   7.199 -0.7477  0.3334  0.4687
   49MOL0     H 6606   7.821  10.119   7.353 -0.3757  0.8230 -1.3272
   49MOL0     H 6607   7.896   9.942   7.126  0.2869  1.3119  0.1886
   49MOL0     H 6608   7.742  10.020   7.135  0.2408 -0.6976 -0.4255
   49MOL0     H 6609   7.809   9.877   7.384  0.4747  0.0750 -0.1384
   49MOL0     H 6610   7.656   9.900   7.307 -1.5076  0.0466 -0.3870
   49MOL0     H 6611   7.776   9.536   7.137 -0.2310  1.2425 -1.6771
   49MOL0     H 6612   8.274  10.155   7.424  2.1522  2.7263  0.8040
   49MOL0     H 6613   8.472  10.116   7.532 -0.9730 -0.7142 -0.7858
   49MOL0     H 6614   8.630  10.162   7.459  1.6148  2.9402  4.1187
   49MOL0     H 6615   8.528  10.290   7.511  2.2514 -0.5791  1.4759
   50MOL0     O 6616  10.044   4.734   1.587 -0.0467 -0.4716 -0.6889
   50MOL0     C 6617  10.006   4.832   1.645 -0.5137  0.1061 -0.8067
   50MOL0     O 6618  10.078   4.943   1.677  0.0200 -0.0055  0.1987
   50MOL0     C 6619  10.195   4.970   1.616  0.0276  1.0681 -0.2706
   50MOL0     C 6620  10.307   4.939   1.697  0.6637 -0.0616  0.5484
   50MOL0     C 6621  10.433   4.936   1.631  0.3387  0.0575  0.1886
   50MOL0     C 6622  10.443   4.975   1.492 -0.0829 -0.0986 -0.6020
   50MOL0     O 6623  10.562   4.993   1.434  0.0487 -0.9461  0.0257
   50MOL0     C 6624  10.685   4.957   1.502 -0.1893  0.0394 -0.4060
   50MOL0     C 6625  10.693   4.796   1.512  0.5151  0.3535  0.4821
   50MOL0     C 6626  10.706   4.724   1.380 -0.6923 -0.1023 -0.7393
   50MOL0     C 6627  10.744   4.573   1.407  0.5958 -0.8227 -0.4691
   50MOL0     C 6628  10.767   4.491   1.277  0.8447  0.0870  0.0697
   50MOL0     C 6629  10.882   4.545   1.189 -0.3847  0.1836 -0.1647
   50MOL0     C 6630  10.889   4.468   1.048 -0.1810 -0.2125 -0.4441
   50MOL0     C 6631  10.945   4.321   1.072 -0.5126 -0.0386  0.4164
   50MOL0     N 6632  11.093   4.325   1.105 -0.4506  0.7951  0.0285
   50MOL0     C 6633  11.195   4.327   1.015  0.3351  0.4219 -0.1988
   50MOL0     C 6634  11.310   4.314   1.085  0.7192 -0.4331  0.2507
   50MOL0     C 6635  11.448   4.303   1.029  0.0843 -0.2685  0.0256
   50MOL0     C 6636  11.523   4.421   1.099 -0.7485 -0.0427  0.7281
   50MOL0     C 6637  11.677   4.424   1.070 -0.0300  0.0500 -0.3752
   50MOL0     C 6638  11.743   4.284   1.064 -0.4425 -0.9835  0.8706
   50MOL0     O 6639  11.888   4.305   1.035 -0.0008 -0.3220 -0.4038
   50MOL0     C 6640  11.970   4.213   1.080 -0.0307  0.4903  0.2095
   50MOL0     C 6641  11.941   4.078   1.131  0.8142 -0.1644 -0.2290
   50MOL0     C 6642  12.031   3.991   1.182  0.2252  0.0124 -0.8478
   50MOL0     C 6643  12.162   4.029   1.190  1.1363  0.3997  0.8791
   50MOL0     C 6644  12.270   3.936   1.227  0.0039  0.4177 -0.7939
   50MOL0     O 6645  12.401   3.982   1.215  0.1941  0.1181  0.6007
   50MOL0     C 6646  12.516   3.916   1.225 -0.0475 -0.1274 -0.3296
   50MOL0     C 6647  12.629   3.991   1.217 -0.3483 -0.1766 -0.0949
   50MOL0     C 6648  12.756   3.943   1.236 -0.3763  0.4804 -0.1585
   50MOL0     C 6649  12.776   3.804   1.240  0.4154  0.2356 -0.7306
   50MOL0     O 6650  12.905   3.749   1.238 -0.6450  0.8614  0.6607
   50MOL0     C 6651  12.941   3.681   1.359 -0.3103  0.0940 -0.2687
   50MOL0     C 6652  13.048   3.774   1.425  0.4146 -0.1226 -0.1090
   50MOL0     C 6653  13.174   3.793   1.344  0.6754  0.5735 -0.6121
   50MOL0     C 6654  13.232   3.929   1.359 -0.6927  0.5288  0.3253
   50MOL0     C 6655  13.192   4.019   1.243  0.4111 -0.2253  0.5216
   50MOL0     C 6656  13.216   4.177   1.263 -0.6259 -0.6358 -0.3135
   50MOL0     C 6657  13.114   4.254   1.169  0.0521  0.4713  0.1624
   50MOL0     C 6658  13.125   4.404   1.149 -0.2848  0.6641 -0.0373
   50MOL0    Cl 6659  13.120   4.496   1.307 -0.2871  0.3079 -0.2094
   50MOL0     C 6660  12.661   3.722   1.245 -0.1093  0.0416  0.6440
   50MOL0     C 6661  12.534   3.781   1.239 -0.1828 -0.8103 -0.4816
   50MOL0     O 6662  12.232   3.817   1.252  0.1774 -0.4029  0.2167
   50MOL0     C 6663  12.192   4.164   1.155 -0.2347 -0.1968 -0.1699
   50MOL0     C 6664  12.105   4.257   1.102  0.5153 -0.0462  1.0633
   50MOL0     N 6665  11.272   4.286   1.212  0.8794 -0.3570 -0.4852
   50MOL0     N 6666  11.143   4.290   1.228 -0.5187 -0.5860 -0.0902
   50MOL0     C 6667  10.326   4.996   1.426 -0.5414 -0.9387 -0.0246
   50MOL0     C 6668  10.201   4.997   1.481  0.9984  0.1330  0.4306
   50MOL0     C 6669   9.862   4.834   1.696  0.1732 -0.0569  1.1067
   50MOL0     C 6670   9.815   4.951   1.768 -0.3987  0.0701  0.0497
   50MOL0     C 6671   9.678   4.975   1.801  0.0141  0.0775  0.6126
   50MOL0     C 6672   9.589   4.873   1.766  0.2624  0.2137  0.4483
   50MOL0     O 6673   9.456   4.892   1.769  0.1463 -0.2744 -0.1563
   50MOL0     C 6674   9.411   4.894   1.904  0.5344 -0.6468 -0.5101
   50MOL0     C 6675   9.284   4.808   1.910  0.7899 -0.0484  0.0739
   50MOL0     C 6676   9.309   4.662   1.930 -0.4057 -0.0953  0.1498
   50MOL0     C 6677   9.385   4.633   2.061 -0.2865  0.1197 -0.0060
   50MOL0     C 6678   9.333   4.690   2.189  0.1570  0.3109  0.1787
   50MOL0     C 6679   9.294   4.748   2.291 -0.4519  0.9105 -0.2772
   50MOL0     C 6680   9.628   4.753   1.724  0.2603 -0.1815  0.2444
   50MOL0     C 6681   9.764   4.733   1.682  0.7928  0.4692  0.1636
   50MOL0     C 6682   9.791   4.598   1.608  0.3789 -0.7182  0.3210
   50MOL0     H 6683  10.296   4.922   1.804  0.7750  1.1190  0.7539
   50MOL0     H 6684  10.516   4.911   1.695  1.8982  0.7887 -1.4626
   50MOL0     H 6685  10.780   4.981   1.453  1.8897 -1.4484  2.5722
   50MOL0     H 6686  10.691   5.008   1.599  1.7444 -0.6189 -0.1385
   50MOL0     H 6687  10.603   4.757   1.561 -0.7608  0.5611 -1.5731
   50MOL0     H 6688  10.781   4.770   1.572  1.3761  2.3956  0.1820
   50MOL0     H 6689  10.789   4.778   1.333 -1.2514  3.2664  1.7054
   50MOL0     H 6690  10.613   4.733   1.324 -0.9977  1.7321 -0.0140
   50MOL0     H 6691  10.831   4.578   1.472 -0.1060  0.6555  0.4003
   50MOL0     H 6692  10.657   4.536   1.462  0.5992  2.0890  1.7333
   50MOL0     H 6693  10.791   4.389   1.307  2.3525  0.4171  0.0843
   50MOL0     H 6694  10.675   4.500   1.218  1.7802  0.0490 -1.4351
   50MOL0     H 6695  10.868   4.651   1.170  1.5123  0.5805  0.4693
   50MOL0     H 6696  10.969   4.532   1.253 -0.5292  0.0456  0.0077
   50MOL0     H 6697  10.951   4.523   0.977 -2.0232  2.7286  0.0827
   50MOL0     H 6698  10.790   4.470   1.002 -0.5164 -2.3325  0.0805
   50MOL0     H 6699  10.890   4.290   1.162 -4.1273  5.0718  0.4214
   50MOL0     H 6700  10.930   4.266   0.979 -2.4939 -0.1975  0.7966
   50MOL0     H 6701  11.194   4.323   0.907  1.1964 -0.2173 -0.1935
   50MOL0     H 6702  11.488   4.206   1.062  3.6390  0.5203 -1.4075
   50MOL0     H 6703  11.459   4.310   0.920  0.3795 -0.1451  0.0616
   50MOL0     H 6704  11.475   4.514   1.069 -0.1027 -0.5544 -2.2468
   50MOL0     H 6705  11.505   4.407   1.206 -0.5993 -1.6370  0.5774
   50MOL0     H 6706  11.721   4.482   1.151  1.0353  2.1632 -2.3520
   50MOL0     H 6707  11.688   4.482   0.977 -1.5262  0.2883 -0.4352
   50MOL0     H 6708  11.691   4.231   0.983 -1.2840  0.8856  0.1249
   50MOL0     H 6709  11.736   4.232   1.160  2.8287 -1.6301  0.9031
   50MOL0     H 6710  11.840   4.038   1.125  0.7738  0.1568 -3.3482
   50MOL0     H 6711  11.997   3.894   1.217 -1.7178  1.7771  2.8043
   50MOL0     H 6712  12.621   4.099   1.209  2.2090 -0.0087 -1.8505
   50MOL0     H 6713  12.843   4.008   1.229 -0.3197  0.3879 -0.3214
   50MOL0     H 6714  12.853   3.669   1.425  0.7267  1.4733  1.4505
   50MOL0     H 6715  12.982   3.584   1.327 -2.0914  0.5157 -4.5039
   50MOL0     H 6716  13.003   3.873   1.433  0.5883 -0.0058 -0.5563
   50MOL0     H 6717  13.078   3.735   1.523 -0.9802  2.7208  1.5716
   50MOL0     H 6718  13.241   3.716   1.383 -0.4774  0.2867  0.9268
   50MOL0     H 6719  13.163   3.783   1.236  3.0021  0.6553 -0.9085
   50MOL0     H 6720  13.342   3.925   1.357 -0.7062 -0.8193  0.7465
   50MOL0     H 6721  13.205   3.962   1.460 -1.6199 -1.1247  0.6560
   50MOL0     H 6722  13.084   4.011   1.226  0.2098  2.5554  0.0809
   50MOL0     H 6723  13.250   3.990   1.155  1.4184 -0.9457  1.3983
   50MOL0     H 6724  13.185   4.208   1.363  0.7701 -0.7308  0.1757
   50MOL0     H 6725  13.319   4.201   1.236 -0.6776  0.0473  0.0703
   50MOL0     H 6726  13.013   4.235   1.206 -0.8373  1.5208 -1.5912
   50MOL0     H 6727  13.128   4.210   1.070  2.1261  0.5181  0.3910
   50MOL0     H 6728  13.226   4.417   1.111 -0.3285 -1.2810 -0.8875
   50MOL0     H 6729  13.042   4.441   1.088 -3.0901 -2.7314  1.3622
   50MOL0     H 6730  12.674   3.614   1.245 -1.0822 -0.0964 -0.3436
   50MOL0     H 6731  12.450   3.713   1.253  0.0008 -1.1200 -0.8569
   50MOL0     H 6732  12.289   4.201   1.188  0.0186 -0.3702 -0.7109
   50MOL0     H 6733  12.141   4.354   1.070  2.1470 -1.1330 -0.6595
   50MOL0     H 6734  10.337   5.019   1.320 -2.0303 -1.1148 -0.2426
   50MOL0     H 6735  10.113   5.024   1.423  1.0102 -1.4698 -0.3883
   50MOL0     H 6736   9.879   5.037   1.785 -0.1185 -0.2013  0.3647
   50MOL0     H 6737   9.631   5.069   1.825 -1.5228  0.9185 -4.5270
   50MOL0     H 6738   9.395   5.000   1.926  0.2088 -0.7207 -0.3819
   50MOL0     H 6739   9.484   4.861   1.978 -1.0872  0.1771  1.5340
   50MOL0     H 6740   9.226   4.821   1.818 -2.5932 -1.4353  1.8432
   50MOL0     H 6741   9.209   4.851   1.977 -0.4776 -2.1304  0.0793
   50MOL0     H 6742   9.373   4.622   1.851  0.4426 -1.5383  1.5006
   50MOL0     H 6743   9.213   4.610   1.939 -2.4447  3.5068  1.7301
   50MOL0     H 6744   9.386   4.525   2.082 -1.1407  0.1523  0.2539
   50MOL0     H 6745   9.490   4.661   2.050  0.0594 -1.6252 -1.7441
   50MOL0     H 6746   9.262   4.788   2.385 -0.0745  1.1589 -0.2533
   50MOL0     H 6747   9.555   4.674   1.712  0.0274  0.3398 -2.4703
   50MOL0     H 6748   9.709   4.527   1.621 -1.2454  1.0301  0.0456
   50MOL0     H 6749   9.816   4.612   1.503  0.3454  0.1956  0.4317
   50MOL0     H 6750   9.878   4.549   1.653 -0.1778 -0.3280  1.9101
   51MOL0     O 6751   0.242   7.455   2.039 -0.3268 -0.1335 -0.2990
   51MOL0     C 6752   0.200   7.351   2.082  1.1340  1.1961  0.2478
   51MOL0     O 6753   0.260   7.275   2.181  0.1786 -0.0638 -0.1550
   51MOL0     C 6754   0.392   7.276   2.187 -0.3157  0.8734 -0.4333
   51MOL0     C 6755   0.451   7.382   2.248 -0.2766 -1.0283 -0.1067
   51MOL0     C 6756   0.589   7.398   2.233  0.7332 -0.6310  0.0581
   51MOL0     C 6757   0.666   7.302   2.167  0.2438 -0.3851 -0.4435
   51MOL0     O 6758   0.802   7.302   2.170  0.3372 -0.5790 -0.1294
   51MOL0     C 6759   0.872   7.422   2.201  0.9637 -0.5992  0.3797
   51MOL0     C 6760   1.012   7.397   2.141  1.2895 -0.0394 -0.1319
   51MOL0     C 6761   1.029   7.329   2.005 -0.5069  0.2941 -0.4702
   51MOL0     C 6762   1.001   7.419   1.891  0.4904  0.5345  0.5178
   51MOL0     C 6763   0.942   7.344   1.771  0.5084  0.1882 -0.0447
   51MOL0     C 6764   0.842   7.429   1.698  0.3089 -0.1586 -0.2410
   51MOL0     C 6765   0.736   7.344   1.615 -0.1717  0.4850  0.4312
   51MOL0     C 6766   0.632   7.417   1.529  0.1715  0.0691 -0.4941
   51MOL0     N 6767   0.572   7.527   1.605 -0.1186 -0.5228 -0.3623
   51MOL0     C 6768   0.493   7.532   1.721 -0.0346 -0.0090 -0.0351
   51MOL0     C 6769   0.457   7.666   1.741 -0.5957  0.5372 -0.3414
   51MOL0     C 6770   0.363   7.722   1.844 -0.4555  0.1691 -0.4071
   51MOL0     C 6771   0.425   7.802   1.947 -0.9634 -0.4268 -0.3974
   51MOL0     C 6772   0.552   7.732   2.012 -0.1149  0.3043 -0.0355
   51MOL0     C 6773   0.683   7.746   1.932  0.0510  0.0399 -0.2415
   51MOL0     O 6774   0.792   7.745   2.030  0.0748  0.0763  0.2179
   51MOL0     C 6775   0.923   7.756   1.997 -0.3349 -0.2159  0.9200
   51MOL0     C 6776   1.005   7.764   2.103  0.2252  0.1066  0.1631
   51MOL0     C 6777   1.149   7.758   2.074  0.9899  0.0115 -0.5865
   51MOL0     C 6778   1.203   7.761   1.953 -0.0452 -0.8253  0.1957
   51MOL0     C 6779   1.353   7.767   1.939 -0.8236  1.5472  0.3281
   51MOL0     O 6780   1.432   7.784   2.051  0.8207 -0.2303 -0.6136
   51MOL0     C 6781   1.571   7.775   2.059  1.1279 -0.9595  0.3161
   51MOL0     C 6782   1.618   7.753   2.190 -0.2910 -0.4563  0.2927
   51MOL0     C 6783   1.753   7.726   2.214 -0.2710 -0.5678  0.1002
   51MOL0     C 6784   1.844   7.719   2.111  0.1547 -0.3820 -0.0114
   51MOL0     O 6785   1.976   7.699   2.149 -0.8411  0.9342  0.1339
   51MOL0     C 6786   2.048   7.626   2.048 -0.4831  0.3663 -0.5639
   51MOL0     C 6787   2.197   7.587   2.106  0.3034 -0.1812  0.2642
   51MOL0     C 6788   2.267   7.502   1.987  0.0635  0.8148  0.0790
   51MOL0     C 6789   2.419   7.486   2.026 -0.2509 -0.1246 -0.4316
   51MOL0     C 6790   2.494   7.414   1.920 -0.5557  0.7121 -0.3370
   51MOL0     C 6791   2.641   7.434   1.924  0.2410 -1.0195  0.0638
   51MOL0     C 6792   2.698   7.361   1.806  0.0008  0.0521  0.6383
   51MOL0     C 6793   2.848   7.335   1.824  0.1082  0.5725  0.0058
   51MOL0    Cl 6794   2.927   7.272   1.668 -0.0189  0.0478 -0.1061
   51MOL0     C 6795   1.793   7.741   1.980  1.0927  0.6439  1.0193
   51MOL0     C 6796   1.657   7.767   1.952  0.2007 -0.3418  0.7653
   51MOL0     O 6797   1.394   7.747   1.828 -0.0788  0.6266  0.5953
   51MOL0     C 6798   1.114   7.765   1.835 -0.3189  0.8122 -0.6256
   51MOL0     C 6799   0.970   7.768   1.868 -0.7351  0.2550  0.2732
   51MOL0     N 6800   0.536   7.736   1.644 -0.5770 -0.1933  0.9437
   51MOL0     N 6801   0.604   7.657   1.566 -0.1727  0.1312 -0.7081
   51MOL0     C 6802   0.602   7.192   2.109 -0.1119 -0.7291  0.5823
   51MOL0     C 6803   0.468   7.176   2.121 -0.2185  0.6127  0.4788
   51MOL0     C 6804   0.057   7.323   2.064 -0.7780 -0.8392  0.0954
   51MOL0     C 6805  -0.011   7.273   2.175 -0.0441  0.2346 -0.8085
   51MOL0     C 6806  -0.146   7.246   2.163 -0.2814  0.9339 -0.4716
   51MOL0     C 6807  -0.213   7.266   2.045 -0.0007 -0.7054  0.3185
   51MOL0     O 6808  -0.339   7.226   2.027 -0.4991 -1.1878  0.9947
   51MOL0     C 6809  -0.349   7.081   2.004  0.1740 -0.1310 -0.1723
   51MOL0     C 6810  -0.483   7.038   1.952 -0.0308  0.1558 -0.0708
   51MOL0     C 6811  -0.595   7.067   2.050  0.8773  0.6288 -0.2987
   51MOL0     C 6812  -0.732   7.038   1.975 -0.0811  0.6409  0.0036
   51MOL0     C 6813  -0.829   6.984   2.068  0.4499 -0.4017  0.6242
   51MOL0     C 6814  -0.913   6.930   2.135 -0.6618  0.3470  0.0073
   51MOL0     C 6815  -0.140   7.298   1.929  0.8180  0.4041  0.2484
   51MOL0     C 6816  -0.010   7.333   1.936  0.2217  0.1441  0.1973
   51MOL0     C 6817   0.065   7.362   1.804  0.1981  0.1792  0.5615
   51MOL0     H 6818   0.382   7.453   2.292  1.7753  0.1630  1.3315
   51MOL0     H 6819   0.629   7.492   2.270 -1.8565  0.4517  0.3509
   51MOL0     H 6820   0.819   7.498   2.143  0.1500  0.8443  2.8687
   51MOL0     H 6821   0.885   7.450   2.306  1.5736  2.7327 -0.4650
   51MOL0     H 6822   1.061   7.333   2.216  1.2774  0.6494  0.4703
   51MOL0     H 6823   1.078   7.484   2.134  0.0452  0.8603 -1.0086
   51MOL0     H 6824   0.976   7.234   2.001  0.1387 -0.0886 -0.1751
   51MOL0     H 6825   1.137   7.310   2.000 -0.0972  2.0546  0.5440
   51MOL0     H 6826   0.929   7.490   1.933  0.4683 -1.0562  3.4954
   51MOL0     H 6827   1.084   7.479   1.853 -1.0564  2.5486  0.1687
   51MOL0     H 6828   1.021   7.317   1.701  0.7339  2.7646 -0.9105
   51MOL0     H 6829   0.889   7.254   1.804  2.7037 -0.9288  0.6169
   51MOL0     H 6830   0.784   7.493   1.765  1.9331 -0.2591  1.3474
   51MOL0     H 6831   0.899   7.495   1.633  0.3478  1.4522  1.3503
   51MOL0     H 6832   0.697   7.270   1.686  3.0727 -0.7351  1.1435
   51MOL0     H 6833   0.796   7.285   1.546 -0.8914  0.0301  0.1902
   51MOL0     H 6834   0.673   7.473   1.445  0.6722 -2.1641 -1.8172
   51MOL0     H 6835   0.549   7.353   1.497 -2.1710  1.9654  1.3345
   51MOL0     H 6836   0.456   7.445   1.773  0.9922 -1.1347 -1.1338
   51MOL0     H 6837   0.289   7.785   1.794  1.0701  0.7056 -2.1122
   51MOL0     H 6838   0.292   7.652   1.889 -1.1576  0.8726 -0.3895
   51MOL0     H 6839   0.447   7.905   1.920 -2.1994  0.9742  3.2581
   51MOL0     H 6840   0.346   7.803   2.024  1.1634 -2.3075  1.9928
   51MOL0     H 6841   0.527   7.628   2.031 -1.9225  0.5583 -0.8249
   51MOL0     H 6842   0.564   7.782   2.109 -0.5624 -0.3516  0.3639
   51MOL0     H 6843   0.683   7.848   1.892  2.0020 -0.0368 -0.5305
   51MOL0     H 6844   0.693   7.672   1.852  1.7396  1.4991 -1.4448
   51MOL0     H 6845   0.969   7.749   2.204  0.8086 -0.7506  0.2523
   51MOL0     H 6846   1.215   7.750   2.160 -0.9248 -4.6773  0.7428
   51MOL0     H 6847   1.551   7.761   2.275 -1.1643  0.6467 -0.4691
   51MOL0     H 6848   1.795   7.727   2.314  0.7052 -3.8903 -0.1541
   51MOL0     H 6849   1.996   7.530   2.036 -1.6379  1.0997 -1.7062
   51MOL0     H 6850   2.049   7.681   1.953 -3.0526  3.6633  1.1092
   51MOL0     H 6851   2.251   7.681   2.120 -1.2599  0.6610  0.9628
   51MOL0     H 6852   2.187   7.541   2.204  0.9139  0.8521  0.8365
   51MOL0     H 6853   2.210   7.411   1.962 -0.9430  1.7371 -1.1239
   51MOL0     H 6854   2.270   7.556   1.892  5.4000 -1.3426 -1.3676
   51MOL0     H 6855   2.418   7.436   2.123  0.5289 -0.3814 -0.5504
   51MOL0     H 6856   2.467   7.584   2.035 -1.9742  0.8418 -1.1638
   51MOL0     H 6857   2.459   7.440   1.820 -2.7707  1.6674  0.6165
   51MOL0     H 6858   2.472   7.308   1.935 -2.9236  1.5665  3.7145
   51MOL0     H 6859   2.665   7.540   1.926 -0.0034 -0.9613  1.4425
   51MOL0     H 6860   2.673   7.390   2.020  3.0165 -0.8561 -0.7051
   51MOL0     H 6861   2.682   7.422   1.717 -0.4029  0.6755  1.1347
   51MOL0     H 6862   2.638   7.270   1.800  3.4306 -2.2813 -1.9514
   51MOL0     H 6863   2.904   7.426   1.848 -2.7732  2.2406  0.9183
   51MOL0     H 6864   2.856   7.264   1.906 -2.5681  1.7223  1.3817
   51MOL0     H 6865   1.845   7.739   1.885 -1.4226  1.3079 -0.4626
   51MOL0     H 6866   1.619   7.774   1.851 -0.8107  1.4774  1.2259
   51MOL0     H 6867   1.156   7.774   1.736 -1.3123  1.2651 -1.0150
   51MOL0     H 6868   0.898   7.767   1.786 -1.8588  3.3111  1.0800
   51MOL0     H 6869   0.664   7.121   2.055  0.2437  0.2216 -0.2854
   51MOL0     H 6870   0.415   7.091   2.078 -0.9321  0.4850  1.5913
   51MOL0     H 6871   0.030   7.268   2.275 -1.6893  0.6503 -0.0731
   51MOL0     H 6872  -0.207   7.237   2.252  2.1135 -2.3066  1.0317
   51MOL0     H 6873  -0.336   7.037   2.103  0.7201 -2.7730 -1.3452
   51MOL0     H 6874  -0.269   7.051   1.937  2.6272  0.1761  2.4180
   51MOL0     H 6875  -0.469   6.932   1.929  2.1011  0.3981 -0.1018
   51MOL0     H 6876  -0.516   7.078   1.855 -1.5782  0.6850  0.6394
   51MOL0     H 6877  -0.597   7.171   2.085 -0.8752  0.8410 -0.9300
   51MOL0     H 6878  -0.587   7.005   2.139  0.0391  0.1070 -0.5818
   51MOL0     H 6879  -0.778   7.122   1.921 -1.2717 -0.6241 -1.0389
   51MOL0     H 6880  -0.712   6.959   1.902 -1.5044  1.4704 -1.3718
   51MOL0     H 6881  -0.994   6.897   2.197  2.0612  0.4987  4.0195
   51MOL0     H 6882  -0.192   7.296   1.834  1.9488 -2.7989 -0.4196
   51MOL0     H 6883   0.081   7.470   1.790 -0.7843  0.2077 -0.5844
   51MOL0     H 6884   0.164   7.316   1.807  0.0215 -0.1880  0.8067
   51MOL0     H 6885   0.009   7.322   1.719  2.1537 -0.9323 -0.2724
   52MOL0     O 6886   4.713   8.427   1.402 -0.3565 -0.2636  0.6134
   52MOL0     C 6887   4.745   8.538   1.448  0.3777 -0.2560  0.9914
   52MOL0     O 6888   4.850   8.615   1.408  0.6847  1.0122  0.0940
   52MOL0     C 6889   4.909   8.585   1.291  0.5335 -0.3282  0.5002
   52MOL0     C 6890   5.050   8.609   1.286  0.6233 -0.9839  0.2042
   52MOL0     C 6891   5.120   8.590   1.168 -0.2722  0.0133  0.2141
   52MOL0     C 6892   5.056   8.560   1.051  0.3787 -0.7381  1.2552
   52MOL0     O 6893   5.118   8.541   0.929 -0.0516  0.4520  0.5048
   52MOL0     C 6894   5.259   8.530   0.914 -0.7232  0.0655 -1.3214
   52MOL0     C 6895   5.329   8.668   0.903  0.1443 -0.4232  0.4728
   52MOL0     C 6896   5.481   8.643   0.922  0.0480  0.2301 -0.1734
   52MOL0     C 6897   5.572   8.766   0.904  0.0559  0.2767 -0.5260
   52MOL0     C 6898   5.718   8.718   0.890 -0.6987  0.2934 -0.2896
   52MOL0     C 6899   5.812   8.828   0.850 -0.2010  0.3004  0.5766
   52MOL0     C 6900   5.952   8.760   0.816 -0.3455  0.4721 -0.2652
   52MOL0     C 6901   6.033   8.849   0.735 -0.0665 -0.5686  0.0240
   52MOL0     N 6902   6.085   8.972   0.797 -0.7537  0.1355 -0.2754
   52MOL0     C 6903   6.041   9.099   0.779 -0.8647  0.3249 -0.6328
   52MOL0     C 6904   6.116   9.171   0.865 -1.0654 -0.4503  0.1869
   52MOL0     C 6905   6.093   9.318   0.886  0.5902  0.1205  0.1256
   52MOL0     C 6906   6.186   9.374   0.982  0.1129 -0.4648  0.0545
   52MOL0     C 6907   6.319   9.398   0.916 -0.3968  0.3848  0.5713
   52MOL0     C 6908   6.408   9.498   1.001 -0.1922 -0.2341  0.3780
   52MOL0     O 6909   6.425   9.441   1.131  0.1955  0.1165 -0.6522
   52MOL0     C 6910   6.537   9.488   1.191 -0.0761  0.9115 -0.5525
   52MOL0     C 6911   6.549   9.606   1.253  0.8257 -0.4528  0.3598
   52MOL0     C 6912   6.669   9.641   1.318  0.4557 -0.9794  0.1101
   52MOL0     C 6913   6.773   9.551   1.334 -0.7222  0.0291 -0.0537
   52MOL0     C 6914   6.883   9.570   1.428  0.2353 -1.1931 -0.3667
   52MOL0     O 6915   6.891   9.690   1.492  0.3519 -0.2402  0.3346
   52MOL0     C 6916   6.977   9.693   1.604 -0.4255  0.0534 -0.0514
   52MOL0     C 6917   7.112   9.721   1.595  0.0625  0.6390 -0.0091
   52MOL0     C 6918   7.173   9.764   1.703  0.1264 -0.8217 -0.5825
   52MOL0     C 6919   7.119   9.758   1.832  0.4635 -0.3190  0.3458
   52MOL0     O 6920   7.197   9.788   1.941  0.0115 -0.4672  0.4001
   52MOL0     C 6921   7.150   9.777   2.076  0.1509  0.4592 -0.7314
   52MOL0     C 6922   7.264   9.805   2.172  0.0327 -0.6476 -0.0656
   52MOL0     C 6923   7.295   9.958   2.160 -0.4493  0.5847 -0.1005
   52MOL0     C 6924   7.428   9.985   2.241 -0.4400  0.1156 -0.2565
   52MOL0     C 6925   7.477  10.127   2.236  1.5802 -1.0926  0.1784
   52MOL0     C 6926   7.606  10.145   2.318 -0.1935 -0.3699 -0.2803
   52MOL0     C 6927   7.691  10.273   2.305 -0.2246 -0.2507  0.4162
   52MOL0     C 6928   7.807  10.261   2.400 -0.1468 -0.0407 -0.3000
   52MOL0    Cl 6929   7.900  10.416   2.424 -0.5127  0.4505  0.4796
   52MOL0     C 6930   6.987   9.704   1.843 -0.5739 -0.8312 -0.9683
   52MOL0     C 6931   6.915   9.674   1.731  0.5131 -1.0227  0.7756
   52MOL0     O 6932   6.954   9.480   1.460 -0.2858  0.8927  0.1484
   52MOL0     C 6933   6.760   9.431   1.258 -0.1082 -0.1166 -0.6657
   52MOL0     C 6934   6.637   9.399   1.201  0.0722  0.7054  0.2610
   52MOL0     N 6935   6.214   9.086   0.927  0.2174 -0.0447 -0.0049
   52MOL0     N 6936   6.199   8.966   0.882  0.0403 -0.0960  0.1710
   52MOL0     C 6937   4.909   8.563   1.053 -0.6246 -0.1010  0.3384
   52MOL0     C 6938   4.832   8.569   1.170 -0.5355  0.1205  0.2084
   52MOL0     C 6939   4.665   8.579   1.570 -0.1629 -0.3304 -0.0629
   52MOL0     C 6940   4.548   8.511   1.596  0.1843 -0.3507  0.2978
   52MOL0     C 6941   4.464   8.554   1.708 -0.5819 -0.2969 -0.6862
   52MOL0     C 6942   4.496   8.660   1.795 -0.0300  0.8855 -0.0032
   52MOL0     O 6943   4.422   8.713   1.895 -0.1310 -0.0165 -0.1942
   52MOL0     C 6944   4.283   8.686   1.912 -0.2278 -0.3118 -0.1973
   52MOL0     C 6945   4.264   8.559   1.992  0.3404  0.3284  0.9475
   52MOL0     C 6946   4.109   8.546   2.022 -0.3713  0.1973  0.3134
   52MOL0     C 6947   4.046   8.672   2.088 -0.0240 -0.4307 -0.0064
   52MOL0     C 6948   3.909   8.646   2.141 -0.0139  0.4040 -0.5964
   52MOL0     C 6949   3.795   8.611   2.173 -0.4560  0.2480  1.0405
   52MOL0     C 6950   4.626   8.714   1.776 -0.3278 -0.2340 -0.7638
   52MOL0     C 6951   4.708   8.677   1.668 -0.7303 -0.0328 -0.2076
   52MOL0     C 6952   4.846   8.739   1.670  0.5169 -1.3527  0.7603
   52MOL0     H 6953   5.104   8.629   1.377  1.8074 -0.5080 -0.5813
   52MOL0     H 6954   5.228   8.593   1.159 -0.3150 -0.8108 -0.8663
   52MOL0     H 6955   5.296   8.462   0.991 -3.4657 -4.6351 -3.6842
   52MOL0     H 6956   5.279   8.468   0.826  0.3957 -3.2564  1.0649
   52MOL0     H 6957   5.295   8.745   0.973  1.9221  1.8562 -1.0106
   52MOL0     H 6958   5.306   8.707   0.803 -1.3829 -0.5115  0.7750
   52MOL0     H 6959   5.506   8.556   0.861 -1.7778 -4.1818  4.5849
   52MOL0     H 6960   5.488   8.614   1.028 -0.9988 -4.0157 -1.0867
   52MOL0     H 6961   5.522   8.811   0.817  0.4708  0.1408 -0.8332
   52MOL0     H 6962   5.579   8.837   0.987  0.2774 -0.7352  0.3344
   52MOL0     H 6963   5.761   8.698   0.989 -1.8709  2.9786  0.8703
   52MOL0     H 6964   5.705   8.643   0.812 -2.2088  2.9739 -2.8212
   52MOL0     H 6965   5.780   8.884   0.761 -1.7233 -0.3295  0.6885
   52MOL0     H 6966   5.818   8.896   0.936  0.6043 -0.3965  1.0885
   52MOL0     H 6967   5.935   8.669   0.758  2.3919  0.5606 -1.3537
   52MOL0     H 6968   6.006   8.743   0.910  1.2532  4.4023 -0.2854
   52MOL0     H 6969   6.107   8.786   0.684 -0.0584  0.0186 -0.7137
   52MOL0     H 6970   5.979   8.877   0.644 -1.9304  0.5674  1.4087
   52MOL0     H 6971   5.969   9.135   0.707 -0.2042 -0.4426 -1.6948
   52MOL0     H 6972   6.098   9.367   0.788 -0.9072  0.0525 -0.0107
   52MOL0     H 6973   5.992   9.337   0.924  0.0819 -0.5608 -0.8459
   52MOL0     H 6974   6.139   9.468   1.010 -1.0012 -0.2478 -2.2626
   52MOL0     H 6975   6.191   9.317   1.075  0.8756 -1.7828 -0.7677
   52MOL0     H 6976   6.305   9.445   0.818  0.6780 -1.0607 -0.3140
   52MOL0     H 6977   6.372   9.306   0.891 -0.7067 -0.3623  2.4776
   52MOL0     H 6978   6.350   9.590   1.001 -1.8949 -1.2012  2.8332
   52MOL0     H 6979   6.505   9.501   0.951 -0.5528 -0.1199 -0.3221
   52MOL0     H 6980   6.459   9.667   1.249  0.4816 -1.0149 -1.9942
   52MOL0     H 6981   6.677   9.732   1.378  2.7899 -1.9825  1.4500
   52MOL0     H 6982   7.160   9.716   1.498  0.2908 -1.8915  0.1586
   52MOL0     H 6983   7.274   9.803   1.701  0.9751 -2.4023  3.1759
   52MOL0     H 6984   7.072   9.853   2.091 -0.6719 -0.8510  2.4913
   52MOL0     H 6985   7.101   9.681   2.090 -1.3751  0.9494 -2.3497
   52MOL0     H 6986   7.231   9.778   2.273  1.5236  0.5020  0.7691
   52MOL0     H 6987   7.349   9.738   2.160 -0.8371 -2.1762  1.8120
   52MOL0     H 6988   7.307   9.988   2.056 -1.6336 -0.1359 -0.4679
   52MOL0     H 6989   7.211  10.017   2.196 -1.3423 -0.1225 -0.9753
   52MOL0     H 6990   7.511   9.918   2.213 -1.3006 -0.1152 -2.4598
   52MOL0     H 6991   7.407   9.972   2.348 -0.6453  0.0432 -0.3051
   52MOL0     H 6992   7.404  10.198   2.275  2.2642  0.1995 -0.8005
   52MOL0     H 6993   7.481  10.155   2.131 -1.4476 -2.5712 -0.4384
   52MOL0     H 6994   7.580  10.137   2.424  3.5203  1.5805  0.9563
   52MOL0     H 6995   7.673  10.060   2.304 -0.0030 -0.0491 -1.4695
   52MOL0     H 6996   7.639  10.364   2.336  0.8160  0.2702  0.6824
   52MOL0     H 6997   7.743  10.285   2.210  1.3101 -2.1296  0.9413
   52MOL0     H 6998   7.765  10.227   2.495 -0.1284 -1.5576 -0.7942
   52MOL0     H 6999   7.872  10.184   2.357 -1.3096 -0.5512 -1.1960
   52MOL0     H 7000   6.938   9.686   1.938  3.2314 -0.5076  1.2475
   52MOL0     H 7001   6.810   9.650   1.741  0.3187 -1.4962 -1.7911
   52MOL0     H 7002   6.835   9.353   1.270 -1.3054 -1.3209 -0.6342
   52MOL0     H 7003   6.629   9.300   1.157  0.9394  0.5282  0.4879
   52MOL0     H 7004   4.868   8.558   0.952 -2.4545  3.0124  0.8099
   52MOL0     H 7005   4.724   8.559   1.171 -0.5792 -0.2156 -2.0649
   52MOL0     H 7006   4.508   8.430   1.536 -0.4395 -0.5114  0.9269
   52MOL0     H 7007   4.371   8.498   1.719 -0.5573  0.1319  2.5163
   52MOL0     H 7008   4.228   8.672   1.818 -0.9299 -0.6057  0.2532
   52MOL0     H 7009   4.247   8.774   1.966 -0.6000  0.3084 -1.4121
   52MOL0     H 7010   4.320   8.564   2.086 -1.5758 -2.3703  2.3608
   52MOL0     H 7011   4.290   8.467   1.939  0.3526  1.6275 -1.4136
   52MOL0     H 7012   4.090   8.468   2.095 -1.9258  0.8523  0.6549
   52MOL0     H 7013   4.064   8.521   1.925 -0.8468  0.1525  0.5428
   52MOL0     H 7014   4.110   8.716   2.165 -2.6890  0.3249  1.9542
   52MOL0     H 7015   4.033   8.754   2.016 -0.2571  0.5383  1.0943
   52MOL0     H 7016   3.693   8.582   2.187 -0.1156 -0.5466  1.9971
   52MOL0     H 7017   4.658   8.786   1.850 -2.7011  0.0040  0.1248
   52MOL0     H 7018   4.860   8.802   1.758 -0.4669  1.8961 -1.2332
   52MOL0     H 7019   4.920   8.659   1.677 -0.4442 -2.1344  3.2898
   52MOL0     H 7020   4.865   8.799   1.581  0.6764  1.5009  2.5960
   53MOL0     O 7021   2.361   3.685   1.130  0.4178 -0.2774  0.3398
   53MOL0     C 7022   2.381   3.741   1.235 -0.0783  0.9243  0.5677
   53MOL0     O 7023   2.441   3.674   1.349 -0.7435 -0.1874 -0.5385
   53MOL0     C 7024   2.439   3.542   1.348  0.7517  0.3945  0.4674
   53MOL0     C 7025   2.335   3.467   1.402  0.7826  0.3146 -0.0068
   53MOL0     C 7026   2.328   3.324   1.390 -0.0244 -0.1705 -0.2034
   53MOL0     C 7027   2.440   3.267   1.337 -0.4662  0.0282  0.0702
   53MOL0     O 7028   2.459   3.130   1.324 -0.0065  0.5170  0.0514
   53MOL0     C 7029   2.377   3.039   1.401 -1.5634  0.5555  0.1837
   53MOL0     C 7030   2.440   2.905   1.412 -0.0001  0.0646 -0.8005
   53MOL0     C 7031   2.545   2.905   1.524 -0.0624  0.1037  0.2446
   53MOL0     C 7032   2.620   2.765   1.546 -1.3587 -0.1792 -0.1092
   53MOL0     C 7033   2.707   2.779   1.674 -1.1770  0.2458  0.1478
   53MOL0     C 7034   2.782   2.652   1.686  0.2326 -0.6396  1.0199
   53MOL0     C 7035   2.879   2.654   1.801 -0.1013 -0.0448 -0.8528
   53MOL0     C 7036   3.021   2.719   1.765 -0.1264  0.5642  0.4449
   53MOL0     N 7037   3.103   2.611   1.704  0.5420 -0.7860 -0.0599
   53MOL0     C 7038   3.187   2.521   1.772  0.4799  0.8746 -0.0336
   53MOL0     C 7039   3.232   2.430   1.678  0.9089 -0.9227 -0.6809
   53MOL0     C 7040   3.323   2.315   1.699 -0.1227 -0.2035 -0.3361
   53MOL0     C 7041   3.414   2.322   1.818 -0.2793 -0.3024 -0.2528
   53MOL0     C 7042   3.487   2.193   1.828  0.1942 -0.2720  0.2911
   53MOL0     C 7043   3.574   2.180   1.956  0.9318 -0.6705  0.0703
   53MOL0     O 7044   3.656   2.293   1.970 -0.4255 -0.6268  0.5356
   53MOL0     C 7045   3.766   2.311   1.885 -0.0140  0.7432 -0.1699
   53MOL0     C 7046   3.835   2.428   1.917  0.3166  0.3287  0.6563
   53MOL0     C 7047   3.953   2.472   1.849 -0.3188  0.0893  0.3507
   53MOL0     C 7048   4.001   2.391   1.745  0.2441  0.7308  0.1183
   53MOL0     C 7049   4.120   2.430   1.675 -0.6776 -0.3108  0.5567
   53MOL0     O 7050   4.182   2.550   1.716 -0.1012  0.8396  0.3874
   53MOL0     C 7051   4.305   2.582   1.669  0.0313  0.1428  0.5375
   53MOL0     C 7052   4.392   2.633   1.767  0.8220 -0.4639  0.4803
   53MOL0     C 7053   4.518   2.682   1.734  0.5700 -0.1899  0.1656
   53MOL0     C 7054   4.553   2.680   1.596  0.0573 -0.4277  0.0274
   53MOL0     O 7055   4.675   2.725   1.551 -0.4240  0.8584 -0.3942
   53MOL0     C 7056   4.678   2.871   1.528 -0.4235  0.7882  0.2156
   53MOL0     C 7057   4.817   2.913   1.557  0.2091 -0.0047  1.0226
   53MOL0     C 7058   4.841   3.053   1.514 -0.4239 -0.7646  0.9246
   53MOL0     C 7059   4.968   3.107   1.571 -0.9491 -0.5974 -0.4070
   53MOL0     C 7060   5.021   3.231   1.499 -0.1179 -0.3625 -0.9909
   53MOL0     C 7061   5.117   3.308   1.590 -0.2027 -0.6566  0.2453
   53MOL0     C 7062   5.171   3.434   1.538  0.2141  0.3514 -0.8495
   53MOL0     C 7063   5.295   3.481   1.594  0.0422  0.1823  0.1948
   53MOL0    Cl 7064   5.319   3.660   1.588  0.2611  0.5149  0.0964
   53MOL0     C 7065   4.470   2.616   1.499 -0.3174 -0.1509 -0.2686
   53MOL0     C 7066   4.342   2.574   1.532 -0.2484 -0.3034  0.4460
   53MOL0     O 7067   4.163   2.353   1.590 -0.8788  0.3904 -0.3965
   53MOL0     C 7068   3.934   2.265   1.722  0.8121  0.2613  0.0396
   53MOL0     C 7069   3.818   2.223   1.790 -0.2717 -0.0663  0.1065
   53MOL0     N 7070   3.171   2.470   1.561 -0.1672  0.3700  0.3240
   53MOL0     N 7071   3.100   2.574   1.571  0.4197 -0.2838 -0.7709
   53MOL0     C 7072   2.552   3.338   1.292  0.3041  0.2798  0.1472
   53MOL0     C 7073   2.547   3.473   1.294 -0.3825 -0.8696  0.5027
   53MOL0     C 7074   2.349   3.891   1.245 -0.3307 -0.8301  0.1979
   53MOL0     C 7075   2.422   3.967   1.331  0.2415 -0.2848  0.0557
   53MOL0     C 7076   2.418   4.111   1.333  0.2694  0.5267  0.0006
   53MOL0     C 7077   2.320   4.178   1.256 -0.4802  0.0829  0.1507
   53MOL0     O 7078   2.298   4.304   1.301  0.2091  0.0775  0.7856
   53MOL0     C 7079   2.217   4.391   1.217  0.4179 -0.0730  0.3473
   53MOL0     C 7080   2.194   4.529   1.283 -0.9000  0.3709 -0.1583
   53MOL0     C 7081   2.186   4.525   1.436  0.4239 -0.0422  0.1465
   53MOL0     C 7082   2.185   4.672   1.489 -0.1545 -0.2705  0.1549
   53MOL0     C 7083   2.315   4.747   1.459  0.7981 -0.1719 -0.2484
   53MOL0     C 7084   2.399   4.827   1.444 -0.5547 -0.7938  0.2081
   53MOL0     C 7085   2.247   4.102   1.168  0.2041 -0.4258  0.3249
   53MOL0     C 7086   2.271   3.960   1.153 -0.0770 -0.3346  0.1623
   53MOL0     C 7087   2.193   3.886   1.052  0.1967 -0.0166 -0.0661
   53MOL0     H 7088   2.257   3.526   1.450 -0.6418 -1.2481 -0.3044
   53MOL0     H 7089   2.251   3.257   1.426  0.2426  0.6839  2.0733
   53MOL0     H 7090   2.353   3.074   1.501 -2.1965 -0.8245  0.5403
   53MOL0     H 7091   2.283   3.030   1.344 -0.8700 -1.2285 -0.7486
   53MOL0     H 7092   2.482   2.882   1.314 -1.4834 -1.2170 -1.1815
   53MOL0     H 7093   2.369   2.828   1.442 -0.9363  1.4496  0.7171
   53MOL0     H 7094   2.503   2.949   1.616  2.8207  1.4503  1.0365
   53MOL0     H 7095   2.621   2.976   1.492  2.2750 -1.3490  2.2228
   53MOL0     H 7096   2.554   2.679   1.553 -1.2952 -0.2160  0.0331
   53MOL0     H 7097   2.691   2.750   1.465  0.1993 -2.1042  1.5113
   53MOL0     H 7098   2.782   2.858   1.664 -1.8440  0.8876  0.0598
   53MOL0     H 7099   2.644   2.797   1.762 -1.0622 -0.9593  0.4949
   53MOL0     H 7100   2.713   2.575   1.720  0.5664 -0.7033  1.5722
   53MOL0     H 7101   2.825   2.617   1.592 -2.4246  1.7165 -1.2591
   53MOL0     H 7102   2.874   2.549   1.830 -1.4792 -0.1316 -1.3342
   53MOL0     H 7103   2.841   2.710   1.888  0.5364 -1.2986  0.2722
   53MOL0     H 7104   3.002   2.797   1.691  1.3837 -0.3201 -0.9384
   53MOL0     H 7105   3.069   2.762   1.853 -0.9737 -0.0760  1.2458
   53MOL0     H 7106   3.216   2.525   1.876 -1.4673 -0.1012  0.5880
   53MOL0     H 7107   3.253   2.231   1.714  0.1337 -0.2458  0.6904
   53MOL0     H 7108   3.388   2.306   1.612  1.0786 -2.0870  0.6882
   53MOL0     H 7109   3.485   2.403   1.799 -1.7253  1.2427  0.6314
   53MOL0     H 7110   3.343   2.334   1.900 -1.3463  1.5833 -1.3843
   53MOL0     H 7111   3.549   2.186   1.737 -1.6392 -2.5611 -0.8922
   53MOL0     H 7112   3.426   2.104   1.810 -0.6775  0.2811  0.4631
   53MOL0     H 7113   3.623   2.082   1.960 -0.5742 -1.4387  0.7311
   53MOL0     H 7114   3.502   2.182   2.039 -3.2032 -1.6586 -3.1660
   53MOL0     H 7115   3.796   2.482   2.002 -0.2307  1.5722 -0.3421
   53MOL0     H 7116   4.000   2.566   1.875  2.1014 -0.0565 -2.8723
   53MOL0     H 7117   4.356   2.650   1.868  0.8811 -2.2804  0.8296
   53MOL0     H 7118   4.596   2.722   1.798  0.6608 -1.2913  0.7650
   53MOL0     H 7119   4.660   2.890   1.422 -0.0916 -3.0643 -0.6613
   53MOL0     H 7120   4.606   2.926   1.590  2.3167  2.7787  1.8429
   53MOL0     H 7121   4.829   2.914   1.666 -0.1247  1.6163  1.0660
   53MOL0     H 7122   4.894   2.854   1.506 -0.4079 -0.7938  0.9880
   53MOL0     H 7123   4.832   3.054   1.405  2.6115 -0.1043  0.5831
   53MOL0     H 7124   4.767   3.125   1.551  0.1367  0.0007  0.5880
   53MOL0     H 7125   5.040   3.027   1.591 -0.7056 -0.0289  1.1151
   53MOL0     H 7126   4.948   3.149   1.670  0.5988  2.6673 -1.3615
   53MOL0     H 7127   4.932   3.288   1.470 -0.8905 -2.9446 -4.2994
   53MOL0     H 7128   5.074   3.194   1.411 -2.2313 -3.3705 -1.1590
   53MOL0     H 7129   5.067   3.341   1.682  0.8665 -1.0080  0.9798
   53MOL0     H 7130   5.193   3.245   1.637  1.1183  0.4593 -0.3087
   53MOL0     H 7131   5.095   3.511   1.556 -0.3468  0.1203 -2.1730
   53MOL0     H 7132   5.180   3.428   1.430 -2.2650  1.1868 -1.1729
   53MOL0     H 7133   5.298   3.456   1.700  3.4239  2.3121  0.7747
   53MOL0     H 7134   5.380   3.432   1.546  0.2039 -0.0966  0.7597
   53MOL0     H 7135   4.500   2.620   1.395 -1.4408  1.1324 -0.5834
   53MOL0     H 7136   4.277   2.527   1.459 -0.5458 -0.0268  0.5279
   53MOL0     H 7137   3.972   2.202   1.642 -1.7631 -2.5687  0.8457
   53MOL0     H 7138   3.775   2.126   1.765  1.4480 -0.1353 -3.1446
   53MOL0     H 7139   2.629   3.269   1.257 -0.6167 -0.6952 -0.0201
   53MOL0     H 7140   2.626   3.533   1.250 -1.7500 -0.4059 -1.4468
   53MOL0     H 7141   2.492   3.915   1.396 -0.6691 -4.0086 -1.6563
   53MOL0     H 7142   2.488   4.158   1.401  2.0743 -1.2294 -0.5077
   53MOL0     H 7143   2.120   4.340   1.216 -1.1983  2.7747  0.6378
   53MOL0     H 7144   2.248   4.390   1.112 -1.0878 -0.7946 -0.1247
   53MOL0     H 7145   2.103   4.579   1.251 -2.0439 -0.8728  0.9878
   53MOL0     H 7146   2.277   4.591   1.249 -1.6190  2.4263  1.6184
   53MOL0     H 7147   2.264   4.463   1.480  1.6884  2.2225  1.3054
   53MOL0     H 7148   2.098   4.478   1.480 -0.6059  1.1184 -0.5972
   53MOL0     H 7149   2.113   4.740   1.442  1.2121  0.3010 -1.1917
   53MOL0     H 7150   2.155   4.661   1.593 -2.4623  1.3893 -0.2556
   53MOL0     H 7151   2.474   4.900   1.426 -0.7356 -0.5803  0.3167
   53MOL0     H 7152   2.165   4.145   1.112  1.0161  2.3401  1.0681
   53MOL0     H 7153   2.261   3.831   0.987  0.9578 -1.1257  1.5941
   53MOL0     H 7154   2.119   3.819   1.098 -1.0650  1.4088  0.0776
   53MOL0     H 7155   2.134   3.960   0.997 -3.0855 -0.2990  2.6720
   54MOL0     O 7156  10.417   0.316   0.588  0.3272 -0.0008  0.0975
   54MOL0     C 7157  10.409   0.436   0.591 -0.3290 -0.2489 -0.2592
   54MOL0     O 7158  10.488   0.521   0.514 -0.3508  0.0301  0.5932
   54MOL0     C 7159  10.622   0.491   0.477  0.6804 -0.3115 -0.1040
   54MOL0     C 7160  10.702   0.385   0.528 -0.0523  0.2909 -0.5399
   54MOL0     C 7161  10.837   0.370   0.500  0.7990  0.7292  1.1327
   54MOL0     C 7162  10.902   0.462   0.423  0.3346  0.5919 -0.0736
   54MOL0     O 7163  11.038   0.449   0.402 -0.2433 -0.0919 -0.2223
   54MOL0     C 7164  11.115   0.532   0.480  0.2036 -0.6351  0.3135
   54MOL0     C 7165  11.258   0.530   0.434  0.0947 -0.1761  0.2393
   54MOL0     C 7166  11.354   0.623   0.512  0.8200 -0.4742  0.3978
   54MOL0     C 7167  11.485   0.632   0.424  0.2040 -0.8690 -0.2566
   54MOL0     C 7168  11.579   0.733   0.488  0.3432  0.4411  0.2437
   54MOL0     C 7169  11.719   0.708   0.428  0.3408  0.1744 -0.2490
   54MOL0     C 7170  11.807   0.819   0.479 -0.0224 -0.7438 -0.5339
   54MOL0     C 7171  11.939   0.816   0.403 -0.9907  0.0114 -0.1404
   54MOL0     N 7172  12.011   0.948   0.422 -0.5578  0.2005 -0.5692
   54MOL0     C 7173  11.963   1.076   0.440  0.3084  0.2264 -0.6918
   54MOL0     C 7174  12.072   1.152   0.458 -1.1298 -0.2068  0.4802
   54MOL0     C 7175  12.077   1.298   0.480  0.3905  0.7266  0.3588
   54MOL0     C 7176  12.206   1.377   0.429  0.5293  0.5822  0.2455
   54MOL0     C 7177  12.201   1.524   0.479 -0.8509  0.1864  1.0630
   54MOL0     C 7178  12.110   1.624   0.391 -0.1274 -0.2006  0.3028
   54MOL0     O 7179  12.137   1.604   0.251 -0.3844  0.3441  0.1595
   54MOL0     C 7180  12.247   1.669   0.192  0.4757 -0.1266 -0.4366
   54MOL0     C 7181  12.263   1.622   0.063 -0.4207 -0.5516 -0.6376
   54MOL0     C 7182  12.375   1.673  -0.005 -0.4543 -0.0963  0.5352
   54MOL0     C 7183  12.453   1.774   0.047 -0.7963  0.2682 -0.2878
   54MOL0     C 7184  12.541   1.846  -0.043  0.4563 -0.2229 -0.3178
   54MOL0     O 7185  12.515   1.831  -0.178 -0.3818  0.4537 -0.0635
   54MOL0     C 7186  12.584   1.925  -0.255  0.0795 -0.1133 -0.7898
   54MOL0     C 7187  12.584   2.063  -0.221 -0.7539 -0.0853 -0.6305
   54MOL0     C 7188  12.667   2.152  -0.283  0.4532  0.1358 -0.0004
   54MOL0     C 7189  12.739   2.113  -0.400 -0.4673  0.7437 -0.0642
   54MOL0     O 7190  12.820   2.200  -0.471  0.3329 -0.0865 -0.2675
   54MOL0     C 7191  12.801   2.339  -0.447 -0.0964 -0.9285 -0.2361
   54MOL0     C 7192  12.885   2.414  -0.549 -0.8021 -0.0254 -0.7467
   54MOL0     C 7193  12.855   2.378  -0.701 -0.3914 -0.3852 -0.7471
   54MOL0     C 7194  12.951   2.442  -0.803 -0.2878  0.6714  0.0960
   54MOL0     C 7195  13.079   2.370  -0.804  0.9640  0.0264 -0.5156
   54MOL0     C 7196  13.184   2.422  -0.905 -0.2239 -0.1882 -0.2043
   54MOL0     C 7197  13.303   2.330  -0.924  0.8585 -0.5128  0.0280
   54MOL0     C 7198  13.379   2.355  -1.055  0.2238 -1.2299  0.4854
   54MOL0    Cl 7199  13.460   2.203  -1.105  0.0191 -0.5135  0.0335
   54MOL0     C 7200  12.735   1.978  -0.440 -0.1391 -0.4571  0.7903
   54MOL0     C 7201  12.660   1.889  -0.370 -1.0362  0.4593  0.1842
   54MOL0     O 7202  12.633   1.907   0.009 -0.3414 -0.4646 -0.3677
   54MOL0     C 7203  12.441   1.808   0.182 -0.3413  0.1809  0.3254
   54MOL0     C 7204  12.340   1.759   0.258  0.3033  0.3124 -0.6812
   54MOL0     N 7205  12.184   1.072   0.452  0.6340  0.1551  0.4469
   54MOL0     N 7206  12.144   0.953   0.433  0.2530 -0.1737  0.0976
   54MOL0     C 7207  10.829   0.569   0.375  0.1298 -0.5727 -0.6177
   54MOL0     C 7208  10.692   0.579   0.395  0.2660  0.4612  1.2046
   54MOL0     C 7209  10.289   0.494   0.664  0.0878 -0.0286  1.2050
   54MOL0     C 7210  10.171   0.426   0.646  0.4267  0.2513  0.1778
   54MOL0     C 7211  10.057   0.470   0.714  0.4369  0.0551 -0.1872
   54MOL0     C 7212  10.058   0.580   0.789 -0.0357  0.2623 -0.0358
   54MOL0     O 7213   9.942   0.626   0.847  0.2401 -0.2698 -0.2120
   54MOL0     C 7214   9.913   0.601   0.979 -0.3903 -0.2959 -0.1691
   54MOL0     C 7215   9.812   0.488   1.002  0.7943  0.1146 -0.1191
   54MOL0     C 7216   9.678   0.520   0.934  0.0289 -0.4440 -0.4443
   54MOL0     C 7217   9.582   0.416   0.970  0.8470  0.0092  0.9571
   54MOL0     C 7218   9.465   0.423   0.884  0.1763 -0.8346  0.2664
   54MOL0     C 7219   9.376   0.451   0.801 -0.2663 -0.4054 -0.4807
   54MOL0     C 7220  10.171   0.654   0.814  0.0074 -0.1419  0.5786
   54MOL0     C 7221  10.298   0.609   0.743 -0.1039 -0.4076  0.1074
   54MOL0     C 7222  10.433   0.687   0.769  0.5324 -0.3327  0.4153
   54MOL0     H 7223  10.659   0.311   0.595  0.8410  0.9518  0.8254
   54MOL0     H 7224  10.896   0.284   0.532 -0.0881 -0.3117  0.0678
   54MOL0     H 7225  11.083   0.637   0.475  2.3607  0.1085  0.7374
   54MOL0     H 7226  11.115   0.504   0.586 -0.6422  2.1871  1.1640
   54MOL0     H 7227  11.256   0.563   0.329  0.0081 -2.0347 -0.3713
   54MOL0     H 7228  11.294   0.429   0.455  1.3232  0.2571  0.3303
   54MOL0     H 7229  11.364   0.587   0.615  1.6527  0.1271  0.5409
   54MOL0     H 7230  11.322   0.726   0.529  0.3934 -0.5334 -0.0467
   54MOL0     H 7231  11.527   0.531   0.425 -0.9347 -1.3819 -1.5402
   54MOL0     H 7232  11.453   0.670   0.327 -0.2702  1.7350  0.8429
   54MOL0     H 7233  11.531   0.831   0.478 -1.6862 -0.3085  1.9518
   54MOL0     H 7234  11.586   0.705   0.594  0.9183 -3.7377 -0.7516
   54MOL0     H 7235  11.751   0.610   0.463 -3.5278 -1.7791 -1.6603
   54MOL0     H 7236  11.713   0.710   0.319  0.5947 -0.4556 -0.2772
   54MOL0     H 7237  11.833   0.797   0.584  1.2704  2.0643 -0.1894
   54MOL0     H 7238  11.756   0.915   0.488  0.8476 -0.3299  0.1558
   54MOL0     H 7239  12.003   0.732   0.431 -0.5201  0.8083  1.2884
   54MOL0     H 7240  11.921   0.823   0.296  4.1674  1.0747 -1.1978
   54MOL0     H 7241  11.860   1.107   0.431  0.3480 -0.2289 -3.6116
   54MOL0     H 7242  11.987   1.335   0.431 -0.0393  0.6012  1.0366
   54MOL0     H 7243  12.062   1.316   0.587  0.5875  1.7208  0.2255
   54MOL0     H 7244  12.294   1.340   0.483 -1.4435 -1.8588  2.0618
   54MOL0     H 7245  12.223   1.360   0.323  2.6863 -0.7236  0.7478
   54MOL0     H 7246  12.302   1.564   0.481 -0.3671 -0.9941  1.2901
   54MOL0     H 7247  12.163   1.530   0.582 -0.5708 -1.9647  1.3359
   54MOL0     H 7248  12.135   1.727   0.419  0.9063 -1.1765  3.3118
   54MOL0     H 7249  12.003   1.613   0.407 -0.3867 -0.6433 -1.4960
   54MOL0     H 7250  12.190   1.554   0.020  1.9123 -2.8990 -1.1772
   54MOL0     H 7251  12.383   1.648  -0.111  2.7214  3.2185 -0.2105
   54MOL0     H 7252  12.507   2.094  -0.151  0.9527  2.0707  0.3925
   54MOL0     H 7253  12.654   2.253  -0.246 -0.4174  0.0905 -0.1551
   54MOL0     H 7254  12.700   2.378  -0.459 -0.1016 -1.5237 -2.7097
   54MOL0     H 7255  12.843   2.363  -0.349  2.3601  0.5025 -1.5445
   54MOL0     H 7256  12.871   2.521  -0.532  0.0860 -0.1876  1.2727
   54MOL0     H 7257  12.990   2.388  -0.530 -0.9077  0.8734  1.2494
   54MOL0     H 7258  12.861   2.269  -0.713  1.4344 -0.4558  0.4214
   54MOL0     H 7259  12.753   2.412  -0.724 -0.6549 -1.4635 -1.2361
   54MOL0     H 7260  12.957   2.551  -0.796  1.0961  0.8036 -2.1779
   54MOL0     H 7261  12.900   2.416  -0.896  0.3849 -1.6931  0.3042
   54MOL0     H 7262  13.058   2.264  -0.818 -1.6629  0.3477  0.4943
   54MOL0     H 7263  13.124   2.369  -0.704 -1.5323  1.1537  0.6999
   54MOL0     H 7264  13.130   2.440  -0.999 -1.4961  0.5153  0.6328
   54MOL0     H 7265  13.215   2.517  -0.862  1.6892 -0.9956  0.2831
   54MOL0     H 7266  13.258   2.231  -0.922  0.6435 -0.5052 -2.1516
   54MOL0     H 7267  13.383   2.348  -0.852  0.1334 -1.3699  1.0789
   54MOL0     H 7268  13.309   2.369  -1.138 -0.0867  0.9907  1.0578
   54MOL0     H 7269  13.453   2.435  -1.044 -1.9429  0.8333  1.0481
   54MOL0     H 7270  12.801   1.960  -0.525  0.3206 -0.1353  1.0731
   54MOL0     H 7271  12.654   1.787  -0.408  2.7961  0.0718  0.1964
   54MOL0     H 7272  12.513   1.879   0.222  2.5662 -1.4047 -1.6362
   54MOL0     H 7273  12.324   1.788   0.361  0.3989 -1.7620 -0.0381
   54MOL0     H 7274  10.866   0.654   0.317 -3.7887  3.3950  2.0598
   54MOL0     H 7275  10.643   0.667   0.356  2.1628  1.2181  0.4143
   54MOL0     H 7276  10.158   0.338   0.583  0.4762 -0.6332  1.3563
   54MOL0     H 7277   9.964   0.419   0.693  0.9775 -1.2203  0.3925
   54MOL0     H 7278   9.885   0.695   1.028  0.0434  0.3438 -1.1008
   54MOL0     H 7279  10.007   0.581   1.031 -0.1825 -0.5153 -0.6261
   54MOL0     H 7280   9.807   0.483   1.112 -0.4175  2.8607  0.0185
   54MOL0     H 7281   9.856   0.395   0.963  1.0511  0.0404  0.3279
   54MOL0     H 7282   9.691   0.530   0.825  0.1295  0.5419 -0.3478
   54MOL0     H 7283   9.643   0.615   0.974 -1.8205 -0.1735 -2.5143
   54MOL0     H 7284   9.629   0.319   0.950 -0.0622  0.1604 -2.5334
   54MOL0     H 7285   9.559   0.412   1.077  0.4728  0.5253  0.9009
   54MOL0     H 7286   9.304   0.471   0.724  0.9716  0.7296 -1.4035
   54MOL0     H 7287  10.167   0.745   0.872 -1.2292  1.3376 -1.6786
   54MOL0     H 7288  10.499   0.619   0.824 -0.6492 -2.3211 -0.5221
   54MOL0     H 7289  10.481   0.740   0.686 -0.3055 -0.7178 -0.3324
   54MOL0     H 7290  10.409   0.769   0.838 -0.2450  0.9162 -1.2610
   55MOL0     O 7291   9.694   2.026   2.986  0.4497  0.2763  0.0762
   55MOL0     C 7292   9.633   2.130   3.016  0.3148  0.3180 -0.7553
   55MOL0     O 7293   9.660   2.211   3.122  0.9103 -0.3394 -0.0238
   55MOL0     C 7294   9.748   2.147   3.212 -1.0664 -0.5510  0.4073
   55MOL0     C 7295   9.884   2.164   3.178 -0.7240 -0.6237 -0.1694
   55MOL0     C 7296   9.986   2.106   3.255  0.7439 -0.5099 -0.5651
   55MOL0     C 7297   9.949   2.028   3.367  0.5449 -0.0076  0.4187
   55MOL0     O 7298  10.045   1.957   3.439  0.2678  0.1773 -0.4131
   55MOL0     C 7299  10.154   2.033   3.510  0.7417  0.9457 -0.2083
   55MOL0     C 7300  10.292   1.961   3.499  0.6196 -0.5266 -0.9915
   55MOL0     C 7301  10.389   2.012   3.602 -0.9366  0.0943 -1.1371
   55MOL0     C 7302  10.528   1.938   3.591  0.6382  0.3745 -0.1657
   55MOL0     C 7303  10.622   2.011   3.684  0.5980  0.4771 -0.3540
   55MOL0     C 7304  10.762   1.964   3.663 -0.7589 -0.0664 -0.5766
   55MOL0     C 7305  10.873   2.058   3.702 -0.3266  0.2096 -0.4054
   55MOL0     C 7306  10.883   2.082   3.859  0.2283  0.3692 -0.7733
   55MOL0     N 7307  11.019   2.129   3.886 -0.2312  0.3401 -0.4507
   55MOL0     C 7308  11.057   2.261   3.905 -0.8132 -0.1560 -0.2269
   55MOL0     C 7309  11.179   2.260   3.958 -0.5525  0.2882 -0.5756
   55MOL0     C 7310  11.257   2.368   4.027  0.4073 -0.5919 -0.0897
   55MOL0     C 7311  11.308   2.470   3.930 -0.1053  0.5776 -0.3485
   55MOL0     C 7312  11.439   2.435   3.863  0.8147 -0.3378 -0.2158
   55MOL0     C 7313  11.432   2.335   3.746 -0.7658  0.3310 -0.2264
   55MOL0     O 7314  11.561   2.287   3.706  0.0326  0.4683 -0.3639
   55MOL0     C 7315  11.644   2.220   3.795  0.4860 -0.8891  0.3395
   55MOL0     C 7316  11.769   2.222   3.751  0.4723 -1.0006  0.0395
   55MOL0     C 7317  11.881   2.178   3.824  0.9096 -0.0824  0.1157
   55MOL0     C 7318  11.853   2.127   3.952  0.0328  0.4161 -1.1014
   55MOL0     C 7319  11.959   2.078   4.044 -0.2353  0.1447 -0.6421
   55MOL0     O 7320  12.092   2.076   3.999  0.0734  0.3245 -0.6055
   55MOL0     C 7321  12.170   1.978   4.056 -0.3241 -0.5984 -0.8708
   55MOL0     C 7322  12.143   1.850   4.008  0.2424  0.4070  0.2970
   55MOL0     C 7323  12.211   1.744   4.071 -0.4005 -0.3152  0.2704
   55MOL0     C 7324  12.300   1.759   4.174  1.1507 -0.1836 -1.2890
   55MOL0     O 7325  12.358   1.654   4.239  1.1731  0.2869  0.3229
   55MOL0     C 7326  12.380   1.660   4.381 -0.2928 -0.2664  0.0501
   55MOL0     C 7327  12.464   1.538   4.417 -0.3416 -0.0283 -0.2609
   55MOL0     C 7328  12.612   1.558   4.412 -0.6482 -0.2266  0.1464
   55MOL0     C 7329  12.691   1.439   4.475  0.1297 -0.2881  0.2800
   55MOL0     C 7330  12.837   1.454   4.434  0.1861 -0.9508 -0.3869
   55MOL0     C 7331  12.899   1.588   4.499 -0.6126 -0.0771 -0.2094
   55MOL0     C 7332  13.031   1.608   4.427  0.3344  0.0567  0.8079
   55MOL0     C 7333  13.138   1.498   4.459  0.0910  0.3308  0.1127
   55MOL0    Cl 7334  13.301   1.577   4.441 -0.1963 -0.1407  0.2704
   55MOL0     C 7335  12.329   1.899   4.216  0.0097  0.6323 -0.1048
   55MOL0     C 7336  12.272   2.005   4.148  0.0138  0.7465  0.0573
   55MOL0     O 7337  11.924   2.023   4.149  0.4100  0.2879  0.3038
   55MOL0     C 7338  11.725   2.116   3.995 -0.0730 -0.2060 -0.2700
   55MOL0     C 7339  11.622   2.151   3.911 -0.5539 -0.0323  0.0074
   55MOL0     N 7340  11.222   2.125   3.968 -0.0256  0.4738  0.0102
   55MOL0     N 7341  11.124   2.048   3.932  1.1963  0.9034  0.9851
   55MOL0     C 7342   9.814   2.012   3.405  0.4576 -0.0294  0.9248
   55MOL0     C 7343   9.716   2.075   3.326  0.6833  2.0163  0.7846
   55MOL0     C 7344   9.525   2.175   2.927 -0.0388  1.5628  0.1273
   55MOL0     C 7345   9.417   2.232   2.998  0.5062 -0.1604 -0.4216
   55MOL0     C 7346   9.312   2.285   2.925  0.4111  0.5519 -0.3573
   55MOL0     C 7347   9.311   2.276   2.791  0.4990  0.2113 -0.6344
   55MOL0     O 7348   9.194   2.332   2.734 -0.6412 -0.5030 -0.3901
   55MOL0     C 7349   9.142   2.266   2.617 -0.3628  0.7299  0.6288
   55MOL0     C 7350   9.059   2.153   2.682 -0.3513 -0.1750 -0.1476
   55MOL0     C 7351   8.938   2.209   2.768  0.0324  0.1195  0.1634
   55MOL0     C 7352   8.837   2.287   2.689  0.3839 -0.0404  0.1307
   55MOL0     C 7353   8.712   2.304   2.761  0.5578 -0.5775 -0.2769
   55MOL0     C 7354   8.605   2.313   2.815 -0.4278 -0.1391  0.1853
   55MOL0     C 7355   9.424   2.228   2.716  0.3336  0.1553  0.0904
   55MOL0     C 7356   9.526   2.172   2.781 -0.0092 -0.6837 -0.4504
   55MOL0     C 7357   9.642   2.120   2.704  0.1990 -0.9034 -0.1106
   55MOL0     H 7358   9.904   2.220   3.087  2.3048  0.5974  1.1085
   55MOL0     H 7359  10.089   2.124   3.226  0.7916 -0.3435 -0.2961
   55MOL0     H 7360  10.162   2.134   3.471  1.1504  1.6534  1.5874
   55MOL0     H 7361  10.136   2.032   3.618 -1.6924 -1.9719 -0.5113
   55MOL0     H 7362  10.343   1.991   3.407  0.9373  1.7138 -0.1435
   55MOL0     H 7363  10.271   1.856   3.518  2.0367 -0.1136  4.8631
   55MOL0     H 7364  10.346   2.006   3.702 -1.8553 -0.9393 -1.5726
   55MOL0     H 7365  10.402   2.118   3.577 -1.4538  0.3268 -0.4318
   55MOL0     H 7366  10.528   1.837   3.631  1.8227 -0.0393 -1.1567
   55MOL0     H 7367  10.569   1.940   3.490  3.3367  0.6029  0.8588
   55MOL0     H 7368  10.616   2.118   3.662 -0.5697  0.3483 -0.7331
   55MOL0     H 7369  10.589   1.998   3.787 -2.3904 -1.9190 -1.4671
   55MOL0     H 7370  10.761   1.871   3.721 -0.3705  1.6446  2.3972
   55MOL0     H 7371  10.781   1.939   3.558  0.2730 -0.8845 -0.2150
   55MOL0     H 7372  10.873   2.150   3.643  2.2466  0.3973 -0.2518
   55MOL0     H 7373  10.971   2.016   3.678 -1.4440 -1.8847 -1.5794
   55MOL0     H 7374  10.809   2.153   3.896  1.5835 -0.0709  3.1920
   55MOL0     H 7375  10.861   1.995   3.920 -0.8678  1.2862  0.1814
   55MOL0     H 7376  10.998   2.350   3.883 -0.2126 -0.1720 -2.0690
   55MOL0     H 7377  11.196   2.422   4.101  2.3061  0.6143  0.6695
   55MOL0     H 7378  11.337   2.328   4.090  0.3196 -0.5140  0.0721
   55MOL0     H 7379  11.238   2.503   3.852 -0.5904  0.4847  0.0404
   55MOL0     H 7380  11.329   2.560   3.989  0.0401  1.3225 -1.5049
   55MOL0     H 7381  11.502   2.392   3.941  0.6232  0.9188  0.6635
   55MOL0     H 7382  11.493   2.526   3.836  0.6204  0.0369  0.6333
   55MOL0     H 7383  11.383   2.392   3.665 -1.2498  2.6821  1.6105
   55MOL0     H 7384  11.365   2.253   3.771  0.5325 -0.9168 -0.7050
   55MOL0     H 7385  11.786   2.266   3.654 -0.2844 -1.9646 -0.5549
   55MOL0     H 7386  11.978   2.172   3.776  0.7926  0.4470 -0.1889
   55MOL0     H 7387  12.070   1.825   3.931 -0.8368 -0.4061  1.5439
   55MOL0     H 7388  12.195   1.639   4.047 -1.2852 -0.7119  2.3713
   55MOL0     H 7389  12.432   1.751   4.410  0.4325 -1.2499  1.9521
   55MOL0     H 7390  12.281   1.669   4.427  0.6180  1.1063  1.8343
   55MOL0     H 7391  12.443   1.526   4.524 -0.2939 -1.9314 -0.4346
   55MOL0     H 7392  12.440   1.448   4.360  0.6065  0.0145 -0.7421
   55MOL0     H 7393  12.647   1.578   4.310 -2.3420  2.1622 -0.0477
   55MOL0     H 7394  12.625   1.646   4.476  0.1353 -0.2080 -0.0328
   55MOL0     H 7395  12.654   1.344   4.436 -1.6038  0.2438  0.5334
   55MOL0     H 7396  12.687   1.444   4.584  1.1144  2.3610  0.2720
   55MOL0     H 7397  12.851   1.462   4.326 -0.3256  3.1064 -0.3170
   55MOL0     H 7398  12.894   1.366   4.465 -0.2240 -2.0602 -2.5817
   55MOL0     H 7399  12.834   1.674   4.478  0.6492  0.5941 -1.5521
   55MOL0     H 7400  12.899   1.600   4.607  0.3932  3.4671 -0.4518
   55MOL0     H 7401  13.069   1.704   4.461  3.3076 -0.3269 -1.1239
   55MOL0     H 7402  13.017   1.610   4.318  1.1306  1.2890  0.7131
   55MOL0     H 7403  13.140   1.455   4.560 -0.9609 -2.7099 -1.0428
   55MOL0     H 7404  13.135   1.417   4.386  1.2211 -0.9560  1.4437
   55MOL0     H 7405  12.413   1.916   4.283 -0.2672  1.8298 -0.0418
   55MOL0     H 7406  12.311   2.099   4.186 -1.5023  1.2087  0.5323
   55MOL0     H 7407  11.692   2.071   4.088  2.5348 -0.0613  0.7963
   55MOL0     H 7408  11.521   2.138   3.947  0.1726 -2.1740  1.4550
   55MOL0     H 7409   9.777   1.951   3.487 -1.4267  2.1500  1.8091
   55MOL0     H 7410   9.615   2.060   3.362  0.8185  0.6674  0.6616
   55MOL0     H 7411   9.412   2.248   3.105  0.8150 -0.4810 -0.3584
   55MOL0     H 7412   9.229   2.321   2.984 -0.4996  1.4736 -2.1295
   55MOL0     H 7413   9.212   2.216   2.550 -0.9527 -0.2217  0.6910
   55MOL0     H 7414   9.080   2.338   2.562 -1.4182 -0.1824  0.5803
   55MOL0     H 7415   9.133   2.099   2.741 -2.3098 -1.1281  1.5528
   55MOL0     H 7416   9.015   2.085   2.608 -2.8782 -0.5710  1.5929
   55MOL0     H 7417   8.980   2.271   2.848  1.0539  2.4686 -2.0310
   55MOL0     H 7418   8.892   2.122   2.815  2.8157 -0.8241  1.3160
   55MOL0     H 7419   8.870   2.390   2.670 -0.7640  0.0068 -1.9186
   55MOL0     H 7420   8.831   2.240   2.590  3.7918  2.8855 -1.6836
   55MOL0     H 7421   8.513   2.327   2.867  0.4510  0.7047  1.5926
   55MOL0     H 7422   9.423   2.238   2.608  3.0117  3.1232  0.1718
   55MOL0     H 7423   9.625   2.105   2.597 -0.1874 -1.7242  0.0596
   55MOL0     H 7424   9.722   2.192   2.721 -0.9934  0.4231  0.0173
   55MOL0     H 7425   9.684   2.026   2.742  1.0831 -0.2920  0.4420
   56MOL0     O 7426  10.729   1.429   9.095  0.3690  0.5467  0.1300
   56MOL0     C 7427  10.749   1.548   9.111 -1.3831 -1.0693  0.4051
   56MOL0     O 7428  10.871   1.609   9.075  0.0239  0.2132  0.2755
   56MOL0     C 7429  10.980   1.527   9.055 -0.3431 -0.4622 -0.0534
   56MOL0     C 7430  11.050   1.529   8.931  0.7168 -0.9308 -0.2959
   56MOL0     C 7431  11.156   1.446   8.914 -0.6883 -0.2995 -0.3762
   56MOL0     C 7432  11.195   1.347   9.006 -0.3906 -1.0191  1.1117
   56MOL0     O 7433  11.302   1.264   8.967 -0.7325  0.2567  0.2164
   56MOL0     C 7434  11.386   1.228   9.080 -0.1255 -0.6578 -0.6552
   56MOL0     C 7435  11.502   1.135   9.037  0.3575 -0.2470  0.0875
   56MOL0     C 7436  11.564   1.056   9.152  0.0127  0.2354 -0.7223
   56MOL0     C 7437  11.672   0.954   9.098  1.1901  0.1973 -0.4081
   56MOL0     C 7438  11.715   0.861   9.214 -0.8429  0.0776  0.2103
   56MOL0     C 7439  11.816   0.754   9.159  0.4410 -0.5503 -0.2688
   56MOL0     C 7440  11.838   0.651   9.273 -0.7522 -0.3946 -0.5089
   56MOL0     C 7441  11.919   0.530   9.220  0.4506  0.8832  0.0859
   56MOL0     N 7442  11.853   0.435   9.131 -0.3495 -0.3917  0.2948
   56MOL0     C 7443  11.830   0.303   9.166  0.1311 -0.1070  0.1248
   56MOL0     C 7444  11.828   0.229   9.048 -0.0441  0.1514 -0.0382
   56MOL0     C 7445  11.832   0.076   9.033  0.2111 -0.8594 -0.3218
   56MOL0     C 7446  11.700   0.008   8.984  0.1145 -0.1397 -0.5657
   56MOL0     C 7447  11.718  -0.143   8.992 -0.1492 -0.1038  0.2043
   56MOL0     C 7448  11.590  -0.217   8.953  0.3795  0.2356  0.0513
   56MOL0     O 7449  11.569  -0.202   8.816 -0.2217 -0.4278  1.0117
   56MOL0     C 7450  11.452  -0.252   8.771  0.4938  0.0356 -0.9898
   56MOL0     C 7451  11.379  -0.362   8.826  0.4357  0.0770  0.4614
   56MOL0     C 7452  11.262  -0.413   8.756 -0.1957 -0.7527  0.1550
   56MOL0     C 7453  11.202  -0.352   8.649 -1.2271 -0.1299 -0.2787
   56MOL0     C 7454  11.067  -0.398   8.596  0.2860 -0.0399  0.4998
   56MOL0     O 7455  11.022  -0.320   8.489 -0.2833 -0.2427  0.2684
   56MOL0     C 7456  10.900  -0.349   8.436 -0.7472  0.0093 -0.4944
   56MOL0     C 7457  10.774  -0.369   8.509  0.5706  0.4891  0.0593
   56MOL0     C 7458  10.654  -0.384   8.437 -0.5107 -0.5090 -0.4475
   56MOL0     C 7459  10.657  -0.370   8.302  0.6199 -0.2883 -0.2773
   56MOL0     O 7460  10.535  -0.381   8.234  0.1930 -0.5316  0.5935
   56MOL0     C 7461  10.490  -0.280   8.138  0.3351  0.2293 -0.5713
   56MOL0     C 7462  10.364  -0.339   8.072  0.1708 -1.4696  0.1158
   56MOL0     C 7463  10.244  -0.347   8.170  0.6077 -0.2175 -0.6788
   56MOL0     C 7464  10.132  -0.429   8.102 -0.1328  0.2832 -0.3257
   56MOL0     C 7465   9.996  -0.425   8.172  0.3824 -0.3623 -0.9416
   56MOL0     C 7466   9.873  -0.506   8.120  0.1447 -0.4986  0.6392
   56MOL0     C 7467   9.748  -0.455   8.187 -0.2757  0.0162  0.3587
   56MOL0     C 7468   9.620  -0.514   8.127 -0.3272  0.2124 -0.7210
   56MOL0    Cl 7469   9.612  -0.687   8.146  0.1595 -0.4050 -0.4441
   56MOL0     C 7470  10.776  -0.351   8.226  1.3468 -0.4387  0.6890
   56MOL0     C 7471  10.892  -0.326   8.299  1.0978  1.6106  0.8798
   56MOL0     O 7472  10.998  -0.481   8.657  0.2610 -0.1522  0.4005
   56MOL0     C 7473  11.272  -0.240   8.601 -0.0501  0.0813 -0.5777
   56MOL0     C 7474  11.387  -0.194   8.660 -0.4406  0.4751 -0.5503
   56MOL0     N 7475  11.848   0.316   8.946 -0.3114  0.7318 -0.3392
   56MOL0     N 7476  11.879   0.434   8.998 -0.9490 -0.7649 -0.3963
   56MOL0     C 7477  11.111   1.330   9.118  0.1809 -0.3014 -0.4853
   56MOL0     C 7478  11.016   1.425   9.143  0.4612 -0.7893 -1.0206
   56MOL0     C 7479  10.638   1.639   9.141 -0.2103  0.1847  1.4431
   56MOL0     C 7480  10.654   1.769   9.095 -0.1060  0.4947 -0.3926
   56MOL0     C 7481  10.560   1.871   9.111 -0.0920  0.5528 -0.5837
   56MOL0     C 7482  10.451   1.850   9.205  0.2238  1.1931 -0.3160
   56MOL0     O 7483  10.363   1.946   9.246 -0.1266 -0.3163  0.3324
   56MOL0     C 7484  10.269   1.921   9.364 -1.3757  0.2912  0.2699
   56MOL0     C 7485  10.220   2.054   9.427  0.6379  0.7827  0.4061
   56MOL0     C 7486  10.167   2.019   9.565  0.4096  0.0022 -1.1268
   56MOL0     C 7487  10.030   1.947   9.576 -0.0599  0.1887  0.0229
   56MOL0     C 7488   9.923   1.992   9.488  0.0094  0.7673 -0.3296
   56MOL0     C 7489   9.840   2.035   9.413  0.8667  0.2460 -0.5211
   56MOL0     C 7490  10.435   1.717   9.254 -0.2952 -0.2428 -0.1844
   56MOL0     C 7491  10.526   1.612   9.223 -1.4397  0.0079  1.2543
   56MOL0     C 7492  10.492   1.475   9.271  0.3752 -0.3211 -0.1050
   56MOL0     H 7493  11.020   1.595   8.851 -0.7312 -0.8345  0.2977
   56MOL0     H 7494  11.220   1.438   8.826  1.1372 -0.1333  0.8904
   56MOL0     H 7495  11.423   1.323   9.118 -2.0301  0.2289 -0.8712
   56MOL0     H 7496  11.334   1.170   9.157 -0.3288  1.3992  0.8352
   56MOL0     H 7497  11.576   1.197   8.985 -1.2672  1.8590  0.2059
   56MOL0     H 7498  11.458   1.071   8.959  1.1778  2.0571 -2.4235
   56MOL0     H 7499  11.490   0.990   9.199  1.1943 -2.8824 -2.9053
   56MOL0     H 7500  11.612   1.118   9.228 -1.3100 -1.5328  1.7061
   56MOL0     H 7501  11.630   0.894   9.017 -2.1542  2.5182 -0.5933
   56MOL0     H 7502  11.757   1.002   9.048  1.5379 -2.1551 -2.2616
   56MOL0     H 7503  11.767   0.925   9.286 -0.4375  1.3522 -1.1477
   56MOL0     H 7504  11.631   0.821   9.271 -1.3672 -0.8454 -1.1878
   56MOL0     H 7505  11.770   0.711   9.070 -1.6963  1.2471 -0.1372
   56MOL0     H 7506  11.913   0.793   9.130  0.1247  0.6381  0.2159
   56MOL0     H 7507  11.745   0.618   9.320 -0.3500  1.8017  2.1321
   56MOL0     H 7508  11.890   0.700   9.356  2.5903 -2.1744 -1.4029
   56MOL0     H 7509  12.011   0.564   9.172  0.5860  3.5567  2.0429
   56MOL0     H 7510  11.957   0.470   9.304 -2.3374 -1.5207 -0.1861
   56MOL0     H 7511  11.821   0.268   9.269  1.7490  3.2396  1.5360
   56MOL0     H 7512  11.914   0.052   8.965  1.2361 -0.9046  0.8893
   56MOL0     H 7513  11.862   0.039   9.131  2.5374  0.8164 -0.3195
   56MOL0     H 7514  11.618   0.029   9.053  1.8617 -0.9049  1.8835
   56MOL0     H 7515  11.681   0.043   8.882  1.6090 -4.7333 -2.6667
   56MOL0     H 7516  11.750  -0.170   9.094  0.4118 -0.3906 -0.0439
   56MOL0     H 7517  11.806  -0.171   8.934 -1.3133 -1.0248 -1.1671
   56MOL0     H 7518  11.496  -0.183   8.998  0.2883  0.3675 -0.2340
   56MOL0     H 7519  11.614  -0.322   8.975 -1.5865  0.3178  3.2491
   56MOL0     H 7520  11.419  -0.422   8.907  0.3213  0.6013  0.9109
   56MOL0     H 7521  11.215  -0.495   8.809  0.1797  0.0582  1.7726
   56MOL0     H 7522  10.773  -0.358   8.617 -1.0265  2.1892 -0.0753
   56MOL0     H 7523  10.562  -0.387   8.495 -0.7619 -0.3179 -0.8257
   56MOL0     H 7524  10.461  -0.186   8.185  1.3135 -0.0226  0.6091
   56MOL0     H 7525  10.564  -0.269   8.059 -0.9126 -1.2513 -2.0011
   56MOL0     H 7526  10.337  -0.274   7.988  0.5493 -1.2931  0.1285
   56MOL0     H 7527  10.383  -0.439   8.034  1.1518 -0.9202 -0.9003
   56MOL0     H 7528  10.272  -0.388   8.267  0.8119  1.4095 -0.0133
   56MOL0     H 7529  10.204  -0.249   8.197 -2.0938 -1.3410 -0.2721
   56MOL0     H 7530  10.165  -0.533   8.090  0.7523  0.0521  3.0280
   56MOL0     H 7531  10.109  -0.393   8.002 -0.8938 -3.6027 -1.7352
   56MOL0     H 7532   9.966  -0.320   8.164  0.9501 -0.1121  0.0460
   56MOL0     H 7533  10.010  -0.449   8.278  3.7166 -0.5659 -1.3025
   56MOL0     H 7534   9.863  -0.486   8.013 -0.3671 -1.2031  0.5511
   56MOL0     H 7535   9.886  -0.614   8.135  4.0770 -0.4498 -1.0213
   56MOL0     H 7536   9.740  -0.346   8.187  0.1337  0.0474 -0.8001
   56MOL0     H 7537   9.750  -0.491   8.291  2.0298  1.7656  0.9799
   56MOL0     H 7538   9.533  -0.463   8.170  0.2878  1.7900 -1.2860
   56MOL0     H 7539   9.610  -0.513   8.018 -0.5247 -2.1532 -0.7770
   56MOL0     H 7540  10.779  -0.367   8.119 -0.4230  0.0880  0.5265
   56MOL0     H 7541  10.984  -0.309   8.244  0.2312 -3.2056 -2.7029
   56MOL0     H 7542  11.233  -0.188   8.514  2.0807 -0.6540 -2.0435
   56MOL0     H 7543  11.432  -0.105   8.617  0.3472  0.2008 -0.3268
   56MOL0     H 7544  11.126   1.250   9.190 -0.5068  1.6627  1.9661
   56MOL0     H 7545  10.972   1.422   9.242  0.5297  6.2953 -0.2128
   56MOL0     H 7546  10.739   1.794   9.032  1.6491 -0.5769  1.4411
   56MOL0     H 7547  10.588   1.967   9.069  1.4242  0.8330  0.9705
   56MOL0     H 7548  10.329   1.880   9.446  0.9783  0.3836 -1.2893
   56MOL0     H 7549  10.189   1.852   9.336 -3.0194  1.9794  0.6879
   56MOL0     H 7550  10.138   2.100   9.372 -0.2714 -0.4221  0.7006
   56MOL0     H 7551  10.311   2.115   9.429  1.4754 -0.3453 -0.8331
   56MOL0     H 7552  10.156   2.111   9.622  0.5621 -1.2231  0.9693
   56MOL0     H 7553  10.238   1.969   9.631  1.2195  2.4462 -0.0392
   56MOL0     H 7554  10.043   1.840   9.556 -0.7505 -0.3005  1.9954
   56MOL0     H 7555   9.989   1.960   9.676  2.6484 -2.2654  1.6096
   56MOL0     H 7556   9.764   2.065   9.344 -1.5956 -0.0108  1.9066
   56MOL0     H 7557  10.341   1.691   9.303  0.2671  2.4248  2.5451
   56MOL0     H 7558  10.563   1.435   9.343 -0.3113 -3.1760 -0.8555
   56MOL0     H 7559  10.397   1.481   9.324  0.4711  3.1215 -0.1472
   56MOL0     H 7560  10.488   1.406   9.185 -0.0291 -0.8332  0.3195
   57MOL0     O 7561   6.429   3.311  11.099 -0.2289 -0.3240  0.6006
   57MOL0     C 7562   6.378   3.429  11.106  0.4917  0.6044 -0.5704
   57MOL0     O 7563   6.438   3.539  11.049  0.3173 -0.0657  0.4418
   57MOL0     C 7564   6.544   3.518  10.972 -0.2723 -0.8376  0.2113
   57MOL0     C 7565   6.675   3.490  11.023  0.1258  0.1226  0.0811
   57MOL0     C 7566   6.782   3.473  10.929 -0.6631 -0.6552  0.7390
   57MOL0     C 7567   6.756   3.490  10.793  0.9919 -0.3274 -0.4724
   57MOL0     O 7568   6.848   3.461  10.696  0.3356  0.3547 -0.5141
   57MOL0     C 7569   6.983   3.510  10.701  1.1450 -1.0299 -0.1479
   57MOL0     C 7570   7.037   3.518  10.558  0.2167  0.3738 -0.2636
   57MOL0     C 7571   7.183   3.569  10.569  0.6252 -0.2727  0.3500
   57MOL0     C 7572   7.235   3.613  10.434  0.1601 -0.2677  0.0543
   57MOL0     C 7573   7.378   3.653  10.453 -0.5236 -0.7965  0.5082
   57MOL0     C 7574   7.410   3.759  10.340 -1.5565 -0.2944  0.0978
   57MOL0     C 7575   7.554   3.818  10.345  0.5331 -0.4594 -0.7972
   57MOL0     C 7576   7.561   3.918  10.223 -0.0964  0.1017  0.6369
   57MOL0     N 7577   7.703   3.954  10.192  0.1071 -0.2808 -0.3529
   57MOL0     C 7578   7.801   3.862  10.165  0.8956  0.2429  0.0643
   57MOL0     C 7579   7.915   3.934  10.150 -0.2099 -0.3259  0.3477
   57MOL0     C 7580   8.049   3.873  10.107  0.7126  0.7183  0.5941
   57MOL0     C 7581   8.151   3.875  10.223 -0.7058 -0.8094 -0.5336
   57MOL0     C 7582   8.202   4.014  10.257 -1.0055 -0.6779 -0.3506
   57MOL0     C 7583   8.358   4.017  10.278  0.7631  0.2247  0.4499
   57MOL0     O 7584   8.385   4.147  10.333 -0.2430 -0.5735 -0.0190
   57MOL0     C 7585   8.523   4.176  10.353 -0.8505 -0.5604 -0.0050
   57MOL0     C 7586   8.561   4.294  10.427  0.6039  0.1980  0.2057
   57MOL0     C 7587   8.696   4.329  10.448  0.6884  0.0023 -0.3417
   57MOL0     C 7588   8.801   4.253  10.403 -0.5083 -0.2325  1.0914
   57MOL0     C 7589   8.943   4.285  10.412 -0.1755 -0.3229 -0.2611
   57MOL0     O 7590   9.037   4.203  10.350 -0.6523 -0.1899 -0.0075
   57MOL0     C 7591   9.162   4.261  10.344  0.6411  0.6226 -0.0041
   57MOL0     C 7592   9.236   4.281  10.226  0.5172  0.0278 -0.7656
   57MOL0     C 7593   9.364   4.339  10.229  0.1374  0.3460 -0.0855
   57MOL0     C 7594   9.421   4.378  10.352  0.3241 -0.2721  0.0833
   57MOL0     O 7595   9.539   4.448  10.358  0.0090  0.0189 -0.2684
   57MOL0     C 7596   9.642   4.420  10.266 -0.2708  0.1029 -0.4027
   57MOL0     C 7597   9.775   4.490  10.301 -0.2018 -0.2114 -0.1221
   57MOL0     C 7598   9.885   4.453  10.195 -1.0610 -0.6152 -0.3808
   57MOL0     C 7599  10.027   4.511  10.241 -1.0876  0.0895  0.6059
   57MOL0     C 7600  10.126   4.499  10.120  0.1753 -0.2420 -0.6452
   57MOL0     C 7601  10.161   4.347  10.090  0.0355  0.2121 -0.3601
   57MOL0     C 7602  10.277   4.341   9.987  0.2168  0.4090 -0.2418
   57MOL0     C 7603  10.271   4.198   9.922  0.0420 -0.5235 -1.3649
   57MOL0    Cl 7604  10.131   4.191   9.811  0.0434 -0.4308 -0.0364
   57MOL0     C 7605   9.348   4.343  10.473  0.1169  0.5404  0.5751
   57MOL0     C 7606   9.226   4.284  10.464  0.6172  0.7049  0.0123
   57MOL0     O 7607   8.978   4.381  10.477 -0.1780  0.2888  0.9511
   57MOL0     C 7608   8.762   4.131  10.349  0.3278  0.3401 -0.0800
   57MOL0     C 7609   8.626   4.090  10.327 -0.8734 -0.8356  0.6756
   57MOL0     N 7610   7.890   4.073  10.144 -0.0262 -0.8413 -0.0341
   57MOL0     N 7611   7.762   4.082  10.183 -0.3758  0.2418 -0.1218
   57MOL0     C 7612   6.629   3.537  10.749  0.8195 -0.6191 -0.5675
   57MOL0     C 7613   6.526   3.557  10.842 -0.4171 -0.0000 -0.0685
   57MOL0     C 7614   6.237   3.443  11.158 -0.2123  0.6575  0.0921
   57MOL0     C 7615   6.160   3.548  11.109  0.0680 -0.4361  0.3384
   57MOL0     C 7616   6.020   3.563  11.142 -0.0450 -0.8662 -0.3295
   57MOL0     C 7617   5.964   3.489  11.243  0.1803  0.2579  0.5349
   57MOL0     O 7618   5.831   3.515  11.266 -0.6530  0.5669  0.1459
   57MOL0     C 7619   5.773   3.481  11.392 -0.4715 -1.0465 -0.4294
   57MOL0     C 7620   5.719   3.596  11.471  0.8724  0.7720  0.0562
   57MOL0     C 7621   5.823   3.692  11.534 -0.5158  0.1693  0.2078
   57MOL0     C 7622   5.869   3.652  11.671 -0.2458  1.0178  0.6788
   57MOL0     C 7623   5.775   3.586  11.764 -0.4648 -0.1276  0.6652
   57MOL0     C 7624   5.689   3.536  11.838  0.0490  0.6960  0.5959
   57MOL0     C 7625   6.043   3.380  11.291  0.8928  0.6617  0.4529
   57MOL0     C 7626   6.174   3.357  11.257 -0.1509  0.2575 -0.7058
   57MOL0     C 7627   6.234   3.239  11.319  0.3836  0.2955 -0.5187
   57MOL0     H 7628   6.691   3.469  11.128 -2.7235  1.3473  0.8360
   57MOL0     H 7629   6.883   3.443  10.956 -0.1356 -5.1104 -4.4190
   57MOL0     H 7630   6.982   3.614  10.734 -1.9890 -0.7142 -0.9704
   57MOL0     H 7631   7.044   3.448  10.768  0.2246 -1.4602  0.3109
   57MOL0     H 7632   6.968   3.565  10.487  2.0520  0.3156 -2.1805
   57MOL0     H 7633   7.046   3.414  10.525  1.0799  0.0936  0.8030
   57MOL0     H 7634   7.247   3.495  10.616  0.2664 -1.6203 -1.1916
   57MOL0     H 7635   7.185   3.657  10.634  0.4068 -1.1761  1.6127
   57MOL0     H 7636   7.231   3.534  10.359  1.1226 -0.9386  0.6953
   57MOL0     H 7637   7.177   3.699  10.398  0.4628 -1.9832 -5.3856
   57MOL0     H 7638   7.390   3.687  10.556  0.7659  1.1855 -0.2300
   57MOL0     H 7639   7.439   3.562  10.448 -0.6607 -0.8486 -0.4996
   57MOL0     H 7640   7.401   3.698  10.250  1.0872  0.6304 -0.9018
   57MOL0     H 7641   7.335   3.838  10.342 -0.6220  0.6371 -0.5923
   57MOL0     H 7642   7.628   3.738  10.330  0.3189 -0.5971 -1.1277
   57MOL0     H 7643   7.573   3.873  10.437  2.6491  1.0498 -2.0492
   57MOL0     H 7644   7.529   3.873  10.128  1.3102  1.2132 -0.4025
   57MOL0     H 7645   7.503   4.008  10.242 -0.4072 -0.0014  0.1982
   57MOL0     H 7646   7.788   3.755  10.156 -0.5299  0.1760  2.2037
   57MOL0     H 7647   8.028   3.769  10.077  1.9259  0.9109 -1.1052
   57MOL0     H 7648   8.082   3.927  10.018 -1.0208 -1.6699 -1.6558
   57MOL0     H 7649   8.113   3.824  10.312  3.1913 -1.7491  0.7531
   57MOL0     H 7650   8.235   3.808  10.206  1.5384  1.1412  2.0594
   57MOL0     H 7651   8.165   4.059  10.350 -0.5889  0.4151 -0.6925
   57MOL0     H 7652   8.179   4.087  10.178  4.0545  2.3300  0.4758
   57MOL0     H 7653   8.407   4.016  10.180  0.2464 -1.6956  0.1780
   57MOL0     H 7654   8.399   3.938  10.341  1.9054  0.3449 -0.1113
   57MOL0     H 7655   8.474   4.348  10.463  0.2986 -2.6782  4.3394
   57MOL0     H 7656   8.719   4.425  10.493 -2.3513  1.6174 -1.9392
   57MOL0     H 7657   9.194   4.267  10.127 -1.2120  0.5378 -0.1591
   57MOL0     H 7658   9.414   4.371  10.138  0.3389  2.6387  0.7731
   57MOL0     H 7659   9.659   4.312  10.256  0.1669  0.2315 -1.0326
   57MOL0     H 7660   9.604   4.458  10.171 -3.3503 -3.2602 -0.7437
   57MOL0     H 7661   9.750   4.597  10.300  0.0837 -0.1359  0.5625
   57MOL0     H 7662   9.802   4.476  10.405 -3.8202 -1.7719  0.7800
   57MOL0     H 7663   9.903   4.345  10.193  0.0214 -0.4393 -1.8933
   57MOL0     H 7664   9.856   4.489  10.096  1.2327 -0.5478 -1.0862
   57MOL0     H 7665  10.065   4.461  10.330 -2.3726  2.5106  2.6661
   57MOL0     H 7666  10.015   4.614  10.278 -3.5221 -0.7219  2.3875
   57MOL0     H 7667  10.219   4.547  10.153 -0.5402 -0.3440  1.6477
   57MOL0     H 7668  10.090   4.545  10.027 -0.0164 -2.0442 -1.4971
   57MOL0     H 7669  10.193   4.301  10.185 -0.7155  3.4842  1.6183
   57MOL0     H 7670  10.070   4.295  10.059  0.4297 -1.4547  1.0732
   57MOL0     H 7671  10.370   4.358  10.044 -1.6521  0.4703  3.0831
   57MOL0     H 7672  10.261   4.415   9.908 -2.8153 -1.4980 -1.5865
   57MOL0     H 7673  10.358   4.168   9.862 -0.6432 -1.5938 -1.8446
   57MOL0     H 7674  10.268   4.126  10.004  0.9958  1.2907  0.3525
   57MOL0     H 7675   9.398   4.357  10.568 -2.8624  2.9641  1.9551
   57MOL0     H 7676   9.172   4.249  10.551 -1.1496  0.6791 -1.0558
   57MOL0     H 7677   8.839   4.064  10.312  1.0049  1.2710 -0.4075
   57MOL0     H 7678   8.605   3.990  10.290 -1.0466 -0.4977 -0.1729
   57MOL0     H 7679   6.594   3.537  10.646 -0.4135 -1.1207 -0.1655
   57MOL0     H 7680   6.435   3.589  10.792 -0.1416 -1.7815 -1.8455
   57MOL0     H 7681   6.202   3.618  11.038 -0.0532  0.7530  1.3998
   57MOL0     H 7682   5.970   3.641  11.086  1.3575  1.2657  1.2141
   57MOL0     H 7683   5.850   3.443  11.460  0.0769  1.2717  0.3538
   57MOL0     H 7684   5.688   3.413  11.381 -2.0703  1.0298 -1.5757
   57MOL0     H 7685   5.645   3.563  11.545  3.0347  0.1897  2.0955
   57MOL0     H 7686   5.651   3.652  11.406 -1.4939 -0.8342  1.0160
   57MOL0     H 7687   5.776   3.791  11.542  0.3900  0.6058  0.2933
   57MOL0     H 7688   5.917   3.704  11.479 -0.5298 -1.7245 -0.2721
   57MOL0     H 7689   5.948   3.576  11.663  1.0666  2.4264 -0.2931
   57MOL0     H 7690   5.909   3.743  11.715 -0.1135  1.2699  0.0517
   57MOL0     H 7691   5.619   3.490  11.905 -2.3542  0.9613 -1.5697
   57MOL0     H 7692   5.983   3.318  11.358 -3.0674 -0.1104 -3.3643
   57MOL0     H 7693   6.213   3.145  11.267  1.5635  0.6653 -1.7340
   57MOL0     H 7694   6.339   3.267  11.327  0.1078  1.5682 -1.0709
   57MOL0     H 7695   6.187   3.229  11.417 -1.7583 -2.6721 -1.6717
   58MOL0     O 7696   1.104   7.237  10.429  0.6462  0.3039 -0.0869
   58MOL0     C 7697   1.125   7.225  10.312 -0.1078 -0.2731  0.4007
   58MOL0     O 7698   1.220   7.151  10.258  0.0121  0.1211  0.0493
   58MOL0     C 7699   1.335   7.124  10.331 -0.0700 -0.2761  0.5823
   58MOL0     C 7700   1.359   6.996  10.363  0.1794  0.3934  0.2541
   58MOL0     C 7701   1.466   6.951  10.436  0.9441 -0.5180  0.5382
   58MOL0     C 7702   1.565   7.044  10.478  0.9851  0.0684 -0.2577
   58MOL0     O 7703   1.675   7.009  10.553  0.8029 -0.4992  0.1074
   58MOL0     C 7704   1.689   6.879  10.593  0.2062  0.2776  0.0032
   58MOL0     C 7705   1.827   6.867  10.655 -1.0820 -0.8025 -0.0576
   58MOL0     C 7706   1.948   6.899  10.559  0.2236 -0.4893 -0.4928
   58MOL0     C 7707   2.019   6.775  10.513  0.1488  0.4058 -0.6167
   58MOL0     C 7708   2.125   6.797  10.400  0.4351  0.8610 -0.2892
   58MOL0     C 7709   2.189   6.661  10.362  0.2103  0.3913 -0.7895
   58MOL0     C 7710   2.313   6.687  10.277  0.8548  1.0598  0.0369
   58MOL0     C 7711   2.351   6.555  10.202 -0.4748  0.6604 -0.3865
   58MOL0     N 7712   2.477   6.563  10.119 -0.7201 -0.1199 -0.1452
   58MOL0     C 7713   2.489   6.520   9.994 -0.5825  0.1225  0.0977
   58MOL0     C 7714   2.623   6.517   9.964 -0.2711 -1.4068 -0.2243
   58MOL0     C 7715   2.697   6.487   9.832  0.3069  0.0170 -0.4201
   58MOL0     C 7716   2.713   6.332   9.796 -0.9431 -0.2601 -0.9824
   58MOL0     C 7717   2.808   6.258   9.892 -0.5190  0.2049  0.7831
   58MOL0     C 7718   2.963   6.274   9.864  0.8936 -0.7317 -1.0744
   58MOL0     O 7719   2.972   6.266   9.718  1.0854  0.0699  0.4300
   58MOL0     C 7720   3.090   6.270   9.658  0.2681 -1.0106  0.6662
   58MOL0     C 7721   3.219   6.303   9.710  0.6222 -0.6837  0.1924
   58MOL0     C 7722   3.326   6.276   9.624 -0.6172  0.2487  0.0124
   58MOL0     C 7723   3.320   6.246   9.489 -0.5973  0.5984  0.3658
   58MOL0     C 7724   3.436   6.230   9.401 -0.0121 -0.7311  0.0626
   58MOL0     O 7725   3.415   6.233   9.269  1.1646  0.0922 -1.1286
   58MOL0     C 7726   3.523   6.269   9.186 -0.1004 -0.7601  0.0766
   58MOL0     C 7727   3.559   6.188   9.090 -0.5164  0.7971  1.0150
   58MOL0     C 7728   3.666   6.212   9.002 -0.0743 -1.0672  0.9155
   58MOL0     C 7729   3.743   6.325   9.028  0.1418 -0.0760 -0.4501
   58MOL0     O 7730   3.835   6.360   8.932  0.3647  0.5782 -0.0426
   58MOL0     C 7731   3.953   6.444   8.956  0.1269  0.6179  0.0581
   58MOL0     C 7732   3.933   6.581   8.905  0.2456  0.5995 -0.4077
   58MOL0     C 7733   4.044   6.671   8.950 -0.7701  0.2365  0.2792
   58MOL0     C 7734   4.030   6.735   9.089  0.9303  0.9011  0.4942
   58MOL0     C 7735   4.149   6.825   9.113 -0.0768  0.6626 -0.3421
   58MOL0     C 7736   4.156   6.876   9.258 -0.1411 -0.7346  0.0454
   58MOL0     C 7737   4.068   6.997   9.273 -0.0176 -0.0731 -0.0834
   58MOL0     C 7738   4.034   7.030   9.418 -0.3334 -0.7533  0.2180
   58MOL0    Cl 7739   3.886   6.950   9.458  0.1834 -0.0679 -0.2341
   58MOL0     C 7740   3.706   6.418   9.124  0.3093 -0.5586  0.1860
   58MOL0     C 7741   3.594   6.395   9.206 -0.3008 -0.0982 -1.0795
   58MOL0     O 7742   3.548   6.228   9.455 -0.0316 -0.1717 -0.1988
   58MOL0     C 7743   3.189   6.227   9.446 -0.6703  0.1449  0.6016
   58MOL0     C 7744   3.084   6.231   9.521  0.6233  0.2559 -0.0619
   58MOL0     N 7745   2.688   6.559  10.078 -0.1562  0.5464  0.0602
   58MOL0     N 7746   2.601   6.593  10.166 -0.0321  1.2505  0.1752
   58MOL0     C 7747   1.541   7.185  10.447 -0.0862  0.3816  0.3003
   58MOL0     C 7748   1.424   7.222  10.380 -0.2451 -0.5295  0.6571
   58MOL0     C 7749   1.021   7.274  10.213 -0.9824 -0.1619 -0.6526
   58MOL0     C 7750   1.060   7.361  10.110  0.1626  0.6379  1.4844
   58MOL0     C 7751   0.970   7.425  10.026 -0.7908  0.3101  0.3854
   58MOL0     C 7752   0.834   7.390  10.027 -0.4239  0.6087 -0.5205
   58MOL0     O 7753   0.750   7.445   9.931 -0.0479 -0.3142 -0.0838
   58MOL0     C 7754   0.609   7.431   9.933  0.9717 -0.7434 -0.4452
   58MOL0     C 7755   0.530   7.528   9.858  0.0864 -0.7463 -0.4164
   58MOL0     C 7756   0.501   7.499   9.710  0.2396 -0.8005  0.0936
   58MOL0     C 7757   0.417   7.622   9.659  0.5042 -0.4316  0.0173
   58MOL0     C 7758   0.411   7.626   9.510 -0.1888  0.2766  0.2422
   58MOL0     C 7759   0.410   7.621   9.389  0.4540  0.3182  0.2321
   58MOL0     C 7760   0.798   7.307  10.132 -0.0648 -1.1021 -0.1488
   58MOL0     C 7761   0.891   7.252  10.223 -0.8117 -0.8160 -0.3664
   58MOL0     C 7762   0.837   7.140  10.311  0.0443 -0.2201  0.4138
   58MOL0     H 7763   1.292   6.912  10.352  1.2544 -0.4103 -0.4394
   58MOL0     H 7764   1.475   6.843  10.446  0.3653 -0.6419 -0.2059
   58MOL0     H 7765   1.610   6.852  10.665  0.9630 -1.3881  0.2684
   58MOL0     H 7766   1.687   6.817  10.503 -0.0871 -1.4453  1.1430
   58MOL0     H 7767   1.830   6.762  10.687  0.0275 -0.3805  1.3055
   58MOL0     H 7768   1.846   6.925  10.745 -1.0099 -1.1493  0.1528
   58MOL0     H 7769   2.021   6.959  10.614 -1.1653  1.5673 -0.7571
   58MOL0     H 7770   1.917   6.961  10.474  3.8384  1.4831 -0.5663
   58MOL0     H 7771   2.067   6.727  10.599 -0.2083  1.2504  0.0721
   58MOL0     H 7772   1.947   6.702  10.474 -1.6392  1.3077  0.8225
   58MOL0     H 7773   2.068   6.835  10.315 -1.5408 -0.3199  0.4394
   58MOL0     H 7774   2.204   6.868  10.428  0.2501  1.3063 -0.8781
   58MOL0     H 7775   2.217   6.618  10.459  1.4542 -1.8748 -2.0799
   58MOL0     H 7776   2.111   6.601  10.314 -0.1967 -0.8772  1.3345
   58MOL0     H 7777   2.382   6.730  10.351 -0.1197  0.1432  1.5215
   58MOL0     H 7778   2.290   6.753  10.194 -0.2159 -0.5773 -1.0273
   58MOL0     H 7779   2.374   6.480  10.278  1.1055  1.3166 -0.1687
   58MOL0     H 7780   2.259   6.526  10.151 -1.3639  0.5657  1.1872
   58MOL0     H 7781   2.413   6.485   9.925 -0.7464  1.0395 -0.2029
   58MOL0     H 7782   2.630   6.524   9.754  1.1847  0.8808 -0.7921
   58MOL0     H 7783   2.789   6.542   9.811  0.0627 -0.0177 -1.6399
   58MOL0     H 7784   2.615   6.284   9.796 -3.2787  4.0514 -1.3531
   58MOL0     H 7785   2.751   6.316   9.694 -2.2244 -3.1532 -1.0936
   58MOL0     H 7786   2.783   6.154   9.872 -0.1187  0.0965  0.8426
   58MOL0     H 7787   2.782   6.297   9.991  0.8990  3.1175  0.1220
   58MOL0     H 7788   3.021   6.203   9.923 -0.0596  0.1934  1.0913
   58MOL0     H 7789   3.005   6.367   9.903  0.2379 -0.2557 -1.4720
   58MOL0     H 7790   3.249   6.336   9.809 -0.9079 -0.4068  0.5922
   58MOL0     H 7791   3.421   6.299   9.673 -0.6972  2.0805 -0.6123
   58MOL0     H 7792   3.504   6.094   9.083  1.5254 -0.6382  2.8460
   58MOL0     H 7793   3.688   6.138   8.926  2.1012  1.8867 -1.5488
   58MOL0     H 7794   3.972   6.460   9.062  0.7841 -1.3835  0.2874
   58MOL0     H 7795   4.045   6.408   8.910  0.1515  2.4008 -1.3994
   58MOL0     H 7796   3.920   6.591   8.797 -2.1641  0.0529 -0.2285
   58MOL0     H 7797   3.836   6.610   8.947 -1.4655 -3.0580 -1.3657
   58MOL0     H 7798   4.141   6.623   8.934 -1.8023 -1.7576 -0.3267
   58MOL0     H 7799   4.050   6.752   8.877  0.1732 -0.3157 -0.2810
   58MOL0     H 7800   4.042   6.649   9.156  0.3147  0.0126 -0.4974
   58MOL0     H 7801   3.937   6.793   9.098  0.5230  0.1927  1.0003
   58MOL0     H 7802   4.147   6.902   9.035 -0.5950  0.8848 -0.1110
   58MOL0     H 7803   4.236   6.760   9.101  1.0215  1.5239  2.3167
   58MOL0     H 7804   4.112   6.800   9.323 -2.8976  1.0322  0.4052
   58MOL0     H 7805   4.263   6.892   9.275 -0.4443  0.5964  0.8986
   58MOL0     H 7806   3.974   6.978   9.220  0.1840 -2.0246  0.2046
   58MOL0     H 7807   4.116   7.084   9.227 -1.9197  0.5683 -0.9643
   58MOL0     H 7808   4.123   7.011   9.479  1.0953 -0.1098 -1.5477
   58MOL0     H 7809   4.010   7.136   9.424  1.1185 -0.4861  3.9401
   58MOL0     H 7810   3.774   6.499   9.145 -0.0565 -0.4482  0.9729
   58MOL0     H 7811   3.573   6.465   9.286 -3.9229  0.4732 -2.3810
   58MOL0     H 7812   3.159   6.206   9.344 -2.0649 -0.1409  1.0481
   58MOL0     H 7813   2.987   6.203   9.482 -0.2764 -1.4372  2.9900
   58MOL0     H 7814   1.585   7.278  10.482 -1.9533  1.4352  0.0102
   58MOL0     H 7815   1.408   7.326  10.354  0.0633 -0.5844  0.2377
   58MOL0     H 7816   1.158   7.407  10.111  1.0065 -1.0287  0.7777
   58MOL0     H 7817   1.017   7.487   9.951  1.3584 -1.0057  0.5385
   58MOL0     H 7818   0.564   7.437  10.032 -1.2560 -1.0828 -1.3703
   58MOL0     H 7819   0.592   7.336   9.880  2.9291  0.1540 -2.9246
   58MOL0     H 7820   0.580   7.622   9.880 -1.2327 -0.7176  3.1191
   58MOL0     H 7821   0.434   7.531   9.911 -0.1957  1.1010 -0.9501
   58MOL0     H 7822   0.437   7.413   9.691 -0.9934  0.0268  0.3702
   58MOL0     H 7823   0.597   7.484   9.659  0.1525  1.3586 -0.8205
   58MOL0     H 7824   0.311   7.615   9.684  0.7320 -0.5208  1.0048
   58MOL0     H 7825   0.448   7.711   9.715 -0.9820 -2.3499  4.3370
   58MOL0     H 7826   0.397   7.624   9.283  1.8032  1.3080  0.0738
   58MOL0     H 7827   0.692   7.284  10.134 -0.6400  1.0283 -1.8150
   58MOL0     H 7828   0.862   7.148  10.417  2.4189  1.9199 -0.1982
   58MOL0     H 7829   0.728   7.140  10.308 -0.2549  1.2663  4.8787
   58MOL0     H 7830   0.881   7.047  10.274  2.9860  1.2256 -0.0440
   59MOL0     O 7831   9.910   6.958   6.270 -0.5967  0.2764 -0.9078
   59MOL0     C 7832   9.865   6.869   6.343  0.2772 -0.5744 -0.7729
   59MOL0     O 7833   9.734   6.831   6.349 -0.1631  0.1024 -0.1965
   59MOL0     C 7834   9.643   6.860   6.244  0.0795 -0.0208  0.3048
   59MOL0     C 7835   9.681   6.879   6.108  0.6725  0.7835  0.1113
   59MOL0     C 7836   9.567   6.907   6.022 -0.4797 -0.2241 -0.1682
   59MOL0     C 7837   9.436   6.918   6.062  0.5854 -0.2245  0.2588
   59MOL0     O 7838   9.337   6.950   5.959 -1.2098 -0.0473 -0.0004
   59MOL0     C 7839   9.235   6.854   5.931  0.3113 -0.7994  0.5457
   59MOL0     C 7840   9.277   6.755   5.820  0.2780  0.0809 -1.0683
   59MOL0     C 7841   9.327   6.812   5.683 -0.6028 -0.2388 -0.3443
   59MOL0     C 7842   9.402   6.701   5.610  0.6022 -0.2899 -0.0344
   59MOL0     C 7843   9.433   6.732   5.464  0.2428 -0.3443  0.1825
   59MOL0     C 7844   9.534   6.853   5.442  0.4735 -0.2934 -0.4912
   59MOL0     C 7845   9.676   6.820   5.502  0.6202 -0.0346  0.1540
   59MOL0     C 7846   9.766   6.940   5.478 -0.5203  0.1820 -0.7905
   59MOL0     N 7847   9.883   6.939   5.569 -0.0675 -0.5558 -0.1265
   59MOL0     C 7848   9.896   6.913   5.707 -0.5876 -0.6067  0.1247
   59MOL0     C 7849  10.023   6.952   5.743  0.2454  0.3791 -0.6531
   59MOL0     C 7850  10.098   6.948   5.883 -0.0005 -0.4290  0.1426
   59MOL0     C 7851  10.173   7.080   5.908  0.0091 -0.5118 -0.9576
   59MOL0     C 7852  10.214   7.089   6.057  0.2542  0.1226 -0.4274
   59MOL0     C 7853  10.316   7.201   6.080 -0.8117  0.2792 -0.0614
   59MOL0     O 7854  10.340   7.194   6.226 -0.9185 -0.6885  0.3781
   59MOL0     C 7855  10.454   7.259   6.264 -0.1902 -0.5421  0.8276
   59MOL0     C 7856  10.455   7.381   6.329  0.2593 -0.1383 -0.3919
   59MOL0     C 7857  10.573   7.438   6.365  0.2404  0.5824 -0.0428
   59MOL0     C 7858  10.698   7.381   6.319  0.0255  0.4393  0.1046
   59MOL0     C 7859  10.817   7.457   6.363 -0.2414 -1.1378 -0.3690
   59MOL0     O 7860  10.923   7.450   6.286  0.1147  0.3559 -0.7953
   59MOL0     C 7861  11.048   7.512   6.312  0.2990 -0.3207  1.0440
   59MOL0     C 7862  11.114   7.525   6.431 -0.2107 -0.2985  0.0413
   59MOL0     C 7863  11.228   7.602   6.453  0.1988  0.4896 -0.2605
   59MOL0     C 7864  11.276   7.672   6.339 -0.5037 -0.4457 -0.7298
   59MOL0     O 7865  11.389   7.745   6.367 -0.4216  0.1745  1.2144
   59MOL0     C 7866  11.488   7.770   6.262  1.2572 -0.6071 -0.1016
   59MOL0     C 7867  11.604   7.844   6.326  0.3323  0.2378  0.0454
   59MOL0     C 7868  11.710   7.897   6.232  0.3542  0.1457 -0.8297
   59MOL0     C 7869  11.791   8.007   6.299  0.0095  0.2697 -0.5017
   59MOL0     C 7870  11.857   8.103   6.196 -0.7138  0.7825 -0.2013
   59MOL0     C 7871  11.999   8.071   6.159 -0.0094 -0.2329  0.1237
   59MOL0     C 7872  12.041   8.162   6.040  0.3575 -0.1105 -0.7483
   59MOL0     C 7873  12.181   8.142   5.980 -0.5492 -0.3903 -1.0102
   59MOL0    Cl 7874  12.318   8.173   6.106 -0.0786  0.1562  0.0243
   59MOL0     C 7875  11.226   7.655   6.215 -0.5960 -0.0395 -0.1629
   59MOL0     C 7876  11.101   7.589   6.203 -0.3939  0.6122  0.0528
   59MOL0     O 7877  10.809   7.520   6.466 -0.2271 -0.0010 -0.0148
   59MOL0     C 7878  10.698   7.256   6.251 -0.1395 -0.1238 -0.4839
   59MOL0     C 7879  10.573   7.197   6.224  0.1254 -0.0138 -0.1536
   59MOL0     N 7880  10.095   6.983   5.627  1.0503 -0.1403 -0.2942
   59MOL0     N 7881  10.008   6.991   5.535  0.8382  1.1907  0.3410
   59MOL0     C 7882   9.411   6.892   6.195  1.2357 -0.1269 -0.5655
   59MOL0     C 7883   9.508   6.862   6.284  0.2354  0.1498  0.4386
   59MOL0     C 7884   9.953   6.818   6.457 -0.0514  0.9800  0.6112
   59MOL0     C 7885   9.891   6.728   6.545 -0.1306 -0.5384  0.0948
   59MOL0     C 7886   9.960   6.668   6.646 -0.3255  0.4912 -0.6772
   59MOL0     C 7887  10.097   6.692   6.669  0.5056  0.2348 -0.7382
   59MOL0     O 7888  10.159   6.644   6.785 -0.4554  0.0361 -0.3660
   59MOL0     C 7889  10.284   6.698   6.842 -0.2350  0.5035 -0.1137
   59MOL0     C 7890  10.400   6.607   6.788 -0.0563 -1.1449  0.0524
   59MOL0     C 7891  10.421   6.472   6.856 -0.2205 -0.3587 -0.2960
   59MOL0     C 7892  10.306   6.375   6.819  0.7333  0.0035 -0.7934
   59MOL0     C 7893  10.345   6.246   6.871 -0.4341  0.6173  0.5027
   59MOL0     C 7894  10.380   6.129   6.888  0.5435  0.1168  0.3615
   59MOL0     C 7895  10.158   6.783   6.581  0.4362  0.1147  0.3202
   59MOL0     C 7896  10.088   6.851   6.479  0.3968  0.2866  0.0265
   59MOL0     C 7897  10.171   6.936   6.398  0.7505 -0.8395  0.4578
   59MOL0     H 7898   9.781   6.886   6.067  0.3014 -1.7510 -1.4105
   59MOL0     H 7899   9.596   6.930   5.920 -0.1246 -0.6562 -0.1670
   59MOL0     H 7900   9.224   6.793   6.021 -0.1246 -0.2075  0.9007
   59MOL0     H 7901   9.143   6.910   5.908 -0.2725 -2.3899 -1.3024
   59MOL0     H 7902   9.192   6.689   5.800  1.3127 -1.7194  0.2475
   59MOL0     H 7903   9.342   6.681   5.867 -1.9464 -1.4872 -0.3258
   59MOL0     H 7904   9.404   6.887   5.705  1.2715 -3.0451  3.8961
   59MOL0     H 7905   9.255   6.860   5.616 -0.2602 -1.8908 -1.9710
   59MOL0     H 7906   9.489   6.666   5.668  0.7886  1.8284  1.0482
   59MOL0     H 7907   9.342   6.611   5.596  1.1138 -0.3436 -2.2248
   59MOL0     H 7908   9.470   6.638   5.422 -1.0647  0.2743 -2.5410
   59MOL0     H 7909   9.341   6.753   5.411  0.8347 -0.6529 -0.9961
   59MOL0     H 7910   9.540   6.856   5.332 -4.2981 -1.0411 -1.0180
   59MOL0     H 7911   9.494   6.949   5.477 -1.4793 -0.7640 -1.2936
   59MOL0     H 7912   9.710   6.728   5.454 -0.0702  0.1436 -0.7096
   59MOL0     H 7913   9.678   6.805   5.611 -1.8471 -0.6492  0.1698
   59MOL0     H 7914   9.794   6.946   5.372 -0.3615 -3.0755 -1.0086
   59MOL0     H 7915   9.706   7.031   5.492  0.3643  0.8399 -1.1592
   59MOL0     H 7916   9.830   6.860   5.774  0.8499 -1.4271  0.9485
   59MOL0     H 7917  10.021   6.937   5.961 -1.0386 -1.8227 -1.0145
   59MOL0     H 7918  10.159   6.858   5.879  0.4736 -0.0749 -0.9696
   59MOL0     H 7919  10.261   7.081   5.843 -1.4859  0.8050 -3.0700
   59MOL0     H 7920  10.109   7.167   5.890  1.6702  1.2088  0.8983
   59MOL0     H 7921  10.244   6.988   6.088 -0.7120  0.7238  2.8969
   59MOL0     H 7922  10.122   7.116   6.111 -0.0432  3.8342 -2.4740
   59MOL0     H 7923  10.274   7.302   6.070 -0.3324  0.3702 -1.3059
   59MOL0     H 7924  10.407   7.185   6.022 -0.6871  1.7287 -0.2942
   59MOL0     H 7925  10.365   7.436   6.352  0.4105 -0.3871  0.8445
   59MOL0     H 7926  10.581   7.528   6.424  0.7351 -0.3058  1.2891
   59MOL0     H 7927  11.084   7.478   6.524  0.4915  1.8437  1.4269
   59MOL0     H 7928  11.283   7.614   6.546 -1.4378 -3.4247  1.4467
   59MOL0     H 7929  11.526   7.682   6.209  1.4497 -0.1075 -0.8185
   59MOL0     H 7930  11.445   7.838   6.187  0.7418 -1.4059 -0.5459
   59MOL0     H 7931  11.577   7.919   6.402  1.4913 -0.3790  1.1030
   59MOL0     H 7932  11.646   7.761   6.384  1.1852  0.4184 -0.3071
   59MOL0     H 7933  11.778   7.814   6.214  1.6570  0.7177  1.2517
   59MOL0     H 7934  11.675   7.941   6.138 -1.2004  1.0544  0.1285
   59MOL0     H 7935  11.861   7.957   6.366 -0.7289  1.2228  1.0521
   59MOL0     H 7936  11.731   8.066   6.370 -0.1936  1.5361 -1.6720
   59MOL0     H 7937  11.846   8.207   6.229  5.0786  1.0709  2.2215
   59MOL0     H 7938  11.804   8.102   6.101 -0.6937 -2.1405 -0.2530
   59MOL0     H 7939  12.065   8.081   6.246  1.5148  2.8892 -1.2375
   59MOL0     H 7940  12.002   7.966   6.127 -1.1230 -2.1927  5.4318
   59MOL0     H 7941  12.028   8.267   6.066  1.7117  0.5379 -2.4585
   59MOL0     H 7942  11.969   8.143   5.959 -1.0628 -0.7974  0.6229
   59MOL0     H 7943  12.177   8.039   5.942 -3.8654 -0.5010 -0.6847
   59MOL0     H 7944  12.200   8.220   5.906  2.9401  0.4425  0.5822
   59MOL0     H 7945  11.247   7.718   6.130 -2.1493  0.9907  0.1694
   59MOL0     H 7946  11.042   7.594   6.112  0.3141 -0.2837 -0.4774
   59MOL0     H 7947  10.792   7.215   6.215  1.5138  1.8204  1.3823
   59MOL0     H 7948  10.570   7.105   6.165  0.6038 -0.3610  0.3481
   59MOL0     H 7949   9.308   6.897   6.228  1.0796  1.7159 -1.1828
   59MOL0     H 7950   9.482   6.855   6.389  4.1007  3.1319  1.8513
   59MOL0     H 7951   9.783   6.723   6.556  0.0972 -0.1189  3.8976
   59MOL0     H 7952   9.904   6.603   6.712  0.3214  0.2891 -0.3155
   59MOL0     H 7953  10.274   6.680   6.949 -4.0183  0.3768 -0.3584
   59MOL0     H 7954  10.296   6.805   6.822 -2.4548  0.6346 -1.0449
   59MOL0     H 7955  10.498   6.655   6.782 -0.8566  0.4705 -0.6528
   59MOL0     H 7956  10.384   6.575   6.685 -1.4211 -2.6413  0.6725
   59MOL0     H 7957  10.426   6.490   6.964 -1.2808 -2.0598  0.0769
   59MOL0     H 7958  10.517   6.424   6.832  0.9136 -0.1598  3.3194
   59MOL0     H 7959  10.223   6.416   6.876  1.1208 -0.8478  0.4262
   59MOL0     H 7960  10.272   6.353   6.717 -1.0712  0.4105 -0.3139
   59MOL0     H 7961  10.416   6.030   6.906  1.3060 -0.3078 -2.8030
   59MOL0     H 7962  10.260   6.814   6.605  0.4793 -0.4880  0.9579
   59MOL0     H 7963  10.136   6.954   6.296  1.7135  2.6343  0.6277
   59MOL0     H 7964  10.179   7.036   6.441  1.5151 -1.2843  1.3859
   59MOL0     H 7965  10.272   6.895   6.405  1.9590  1.9953  1.0646
   60MOL0     O 7966   7.307   5.988   7.784  0.1341 -0.3688  0.0344
   60MOL0     C 7967   7.235   5.898   7.816 -0.6587  0.0115 -0.1977
   60MOL0     O 7968   7.279   5.769   7.847  0.2480 -0.3371  0.6308
   60MOL0     C 7969   7.408   5.736   7.820  0.5273 -0.6559  0.6040
   60MOL0     C 7970   7.523   5.793   7.887  0.0151  0.0953  0.2950
   60MOL0     C 7971   7.649   5.761   7.834  0.4158  0.4659 -0.1445
   60MOL0     C 7972   7.678   5.677   7.728 -0.2762  0.4914 -0.4011
   60MOL0     O 7973   7.802   5.638   7.688  0.7789  0.0413  0.4078
   60MOL0     C 7974   7.909   5.655   7.772  0.3745 -0.3096 -0.0664
   60MOL0     C 7975   8.022   5.566   7.723  0.5291  0.1143 -0.2316
   60MOL0     C 7976   8.128   5.624   7.624  0.8470 -0.9206  0.0834
   60MOL0     C 7977   8.072   5.665   7.493 -0.7473 -0.2429  0.1427
   60MOL0     C 7978   8.174   5.712   7.377  0.0590 -0.3914  0.2477
   60MOL0     C 7979   8.115   5.761   7.242  0.2636  0.2359 -0.2163
   60MOL0     C 7980   8.213   5.829   7.155 -0.3341  0.1650  0.6978
   60MOL0     C 7981   8.257   5.966   7.199  0.0791 -0.4295 -0.9138
   60MOL0     N 7982   8.296   6.056   7.085  0.0526  0.1664  0.2257
   60MOL0     C 7983   8.394   6.026   7.007 -0.5967 -0.2589 -0.2427
   60MOL0     C 7984   8.386   6.114   6.905 -0.5068 -1.0328  0.2272
   60MOL0     C 7985   8.488   6.133   6.787  0.4581 -0.0054  0.0545
   60MOL0     C 7986   8.554   6.272   6.755 -0.6886 -0.2167  0.5085
   60MOL0     C 7987   8.658   6.276   6.656  0.4804 -0.8507 -0.5346
   60MOL0     C 7988   8.777   6.185   6.675 -0.8121 -0.7402 -1.4526
   60MOL0     O 7989   8.836   6.234   6.794  0.1883  0.8039 -0.3172
   60MOL0     C 7990   8.970   6.194   6.804 -0.1519  0.2461 -0.0348
   60MOL0     C 7991   9.001   6.086   6.883  0.1312 -1.2758  0.1006
   60MOL0     C 7992   9.134   6.051   6.908 -0.4047  0.5686  0.5189
   60MOL0     C 7993   9.236   6.124   6.849 -0.4767  0.8112  0.5068
   60MOL0     C 7994   9.373   6.091   6.867 -0.3867 -0.4901 -0.3667
   60MOL0     O 7995   9.413   5.963   6.872  0.3869  0.3196 -0.3051
   60MOL0     C 7996   9.546   5.941   6.890  0.1045 -0.4644 -0.5602
   60MOL0     C 7997   9.592   5.872   7.008  0.1934  0.2404  0.4391
   60MOL0     C 7998   9.732   5.866   7.030  0.2385  0.7600 -0.9261
   60MOL0     C 7999   9.826   5.890   6.936  0.2084 -1.1483 -0.9762
   60MOL0     O 8000   9.956   5.850   6.959 -0.1831 -0.1292 -0.0210
   60MOL0     C 8001  10.032   5.914   7.063  0.2835  0.7033 -0.5229
   60MOL0     C 8002  10.174   5.846   7.070 -0.1872 -0.4862 -0.1719
   60MOL0     C 8003  10.245   5.884   7.205 -0.3020  0.2288  0.5637
   60MOL0     C 8004  10.348   5.786   7.251  0.1070 -0.1894 -1.1900
   60MOL0     C 8005  10.479   5.804   7.174 -0.3534  0.8369 -0.2088
   60MOL0     C 8006  10.563   5.929   7.205 -0.2656  1.4261 -0.0669
   60MOL0     C 8007  10.639   5.915   7.334  0.2602 -0.1791 -0.2044
   60MOL0     C 8008  10.757   6.008   7.325 -0.1441  0.5249  0.5129
   60MOL0    Cl 8009  10.878   6.023   7.457 -0.3680  0.0059  0.1954
   60MOL0     C 8010   9.781   5.949   6.810  0.0067  0.0587 -0.1098
   60MOL0     C 8011   9.643   5.977   6.791 -0.1596  0.0580 -0.1046
   60MOL0     O 8012   9.451   6.187   6.865 -0.0355  0.1827 -0.0219
   60MOL0     C 8013   9.204   6.239   6.773  0.0282 -0.0777  0.9729
   60MOL0     C 8014   9.071   6.262   6.735  0.0482  1.1240  0.2294
   60MOL0     N 8015   8.270   6.184   6.920 -0.8570 -0.5245 -0.0182
   60MOL0     N 8016   8.216   6.145   7.030 -0.0215 -0.3704  0.0283
   60MOL0     C 8017   7.558   5.631   7.660  0.4622 -0.0460  0.8415
   60MOL0     C 8018   7.428   5.661   7.704 -0.6292 -0.4565 -0.3092
   60MOL0     C 8019   7.092   5.917   7.852  0.3583 -0.8106 -0.3370
   60MOL0     C 8020   7.011   5.799   7.874  0.8450 -0.3559 -0.0701
   60MOL0     C 8021   6.874   5.817   7.903  0.0648  0.0810 -0.2811
   60MOL0     C 8022   6.813   5.941   7.933 -0.6704 -0.8967  0.0556
   60MOL0     O 8023   6.687   5.967   7.970 -0.1050 -0.5720 -0.1055
   60MOL0     C 8024   6.607   5.857   7.995  0.0200  0.7768 -0.3467
   60MOL0     C 8025   6.461   5.900   8.034 -0.0483  0.4953  0.6503
   60MOL0     C 8026   6.372   5.948   7.908  0.0058 -1.6996  0.5197
   60MOL0     C 8027   6.233   5.969   7.948 -0.8030 -0.5789 -0.1643
   60MOL0     C 8028   6.216   6.096   8.022 -0.4587  0.5699  0.0532
   60MOL0     C 8029   6.191   6.196   8.087 -0.2783 -0.5473 -0.1704
   60MOL0     C 8030   6.895   6.054   7.906  0.7828 -0.1697 -0.2371
   60MOL0     C 8031   7.028   6.047   7.863  0.3299  0.2119 -0.5327
   60MOL0     C 8032   7.106   6.179   7.839 -0.0017  0.3209 -0.1566
   60MOL0     H 8033   7.496   5.860   7.968 -2.0066 -1.1346  0.6907
   60MOL0     H 8034   7.732   5.804   7.890 -0.0299  2.6357 -1.0603
   60MOL0     H 8035   7.939   5.760   7.772  2.7983 -0.9429 -0.6568
   60MOL0     H 8036   7.890   5.625   7.876 -1.2812  2.0974  0.4121
   60MOL0     H 8037   7.985   5.482   7.664 -1.9247  1.6183 -1.0232
   60MOL0     H 8038   8.078   5.527   7.809 -2.7704  2.7889  3.5073
   60MOL0     H 8039   8.205   5.547   7.609  0.4697 -0.9765 -1.6729
   60MOL0     H 8040   8.169   5.710   7.678  0.2524 -0.8943  0.4994
   60MOL0     H 8041   8.023   5.576   7.453 -0.7264 -0.3744  0.4110
   60MOL0     H 8042   7.998   5.744   7.508 -0.9148 -0.6979  1.8070
   60MOL0     H 8043   8.246   5.788   7.408 -1.2714  1.1066 -0.2040
   60MOL0     H 8044   8.243   5.629   7.359 -1.8703 -1.7027 -1.6298
   60MOL0     H 8045   8.068   5.672   7.199 -1.4430  0.3718  1.2225
   60MOL0     H 8046   8.032   5.830   7.262 -0.9036 -1.1900 -0.0015
   60MOL0     H 8047   8.165   5.822   7.057  0.6226 -0.2872  0.2579
   60MOL0     H 8048   8.299   5.763   7.153 -0.7017 -0.3376  1.1418
   60MOL0     H 8049   8.175   6.009   7.257 -0.4320 -2.8816  0.2894
   60MOL0     H 8050   8.344   5.967   7.266 -0.4586  4.6906  0.1054
   60MOL0     H 8051   8.464   5.945   7.026 -2.3493 -1.1932  2.7982
   60MOL0     H 8052   8.567   6.060   6.806 -0.1978 -1.1209 -1.3467
   60MOL0     H 8053   8.431   6.099   6.701 -1.1623 -1.8695  1.7595
   60MOL0     H 8054   8.475   6.347   6.742  0.7531  1.2811  0.1198
   60MOL0     H 8055   8.596   6.302   6.851 -0.3333  0.5263  0.1343
   60MOL0     H 8056   8.701   6.376   6.648  1.3597 -1.2542 -1.0640
   60MOL0     H 8057   8.622   6.261   6.554  2.3435 -1.3233 -1.1808
   60MOL0     H 8058   8.850   6.202   6.595  3.2485  2.4542  2.3638
   60MOL0     H 8059   8.757   6.078   6.676 -0.9425 -0.7190 -1.6857
   60MOL0     H 8060   8.919   6.033   6.930 -0.6566 -1.0720 -1.0030
   60MOL0     H 8061   9.141   5.955   6.959 -3.8531 -1.1327 -1.8121
   60MOL0     H 8062   9.517   5.841   7.079 -0.8450  1.8742  0.1176
   60MOL0     H 8063   9.757   5.819   7.125 -2.2124 -1.7440 -1.3824
   60MOL0     H 8064  10.052   6.019   7.041  1.3477  0.8446  0.9693
   60MOL0     H 8065   9.985   5.900   7.160 -0.2107  2.8756 -0.4081
   60MOL0     H 8066  10.145   5.740   7.065 -2.8301  0.1526 -0.0387
   60MOL0     H 8067  10.225   5.884   6.982 -1.6347 -0.2401 -0.9416
   60MOL0     H 8068  10.289   5.984   7.199 -2.6112  1.3158  0.6776
   60MOL0     H 8069  10.166   5.884   7.280 -0.9584 -0.7710 -0.1084
   60MOL0     H 8070  10.311   5.684   7.233 -1.0585  0.0306 -0.1467
   60MOL0     H 8071  10.371   5.792   7.357 -1.0902  1.5900 -0.9969
   60MOL0     H 8072  10.467   5.803   7.066  1.8073  0.4033 -0.4946
   60MOL0     H 8073  10.543   5.720   7.201  0.0623  1.0912 -0.3997
   60MOL0     H 8074  10.640   5.927   7.128 -1.9151 -2.9612 -1.9484
   60MOL0     H 8075  10.492   6.012   7.193 -0.0073  1.5000 -1.2367
   60MOL0     H 8076  10.690   5.821   7.359  0.9855  0.9230  2.9600
   60MOL0     H 8077  10.582   5.951   7.421  2.6390  0.1438  1.3087
   60MOL0     H 8078  10.811   5.979   7.234 -1.6030 -2.3135  0.4093
   60MOL0     H 8079  10.714   6.105   7.297 -2.9103 -1.5296 -3.4742
   60MOL0     H 8080   9.847   5.974   6.728 -1.9457 -0.3332 -1.8751
   60MOL0     H 8081   9.628   6.033   6.699 -0.6400 -1.8876 -1.2576
   60MOL0     H 8082   9.279   6.308   6.736 -1.3892  0.6450 -0.6921
   60MOL0     H 8083   9.051   6.354   6.682  0.2341  0.4562 -1.0389
   60MOL0     H 8084   7.565   5.568   7.571 -1.2972  1.8168 -0.6914
   60MOL0     H 8085   7.343   5.602   7.670 -1.1692 -1.3626  2.4190
   60MOL0     H 8086   7.060   5.703   7.863  0.0065 -0.8451  0.3720
   60MOL0     H 8087   6.820   5.723   7.894 -0.6934  0.6670 -2.6115
   60MOL0     H 8088   6.667   5.802   8.068  1.3404  2.6657  0.0718
   60MOL0     H 8089   6.595   5.798   7.904  0.7806  1.5068 -0.9420
   60MOL0     H 8090   6.474   5.981   8.105  0.6193 -0.1624  1.2963
   60MOL0     H 8091   6.409   5.811   8.071 -1.7551 -0.3997 -3.3695
   60MOL0     H 8092   6.378   5.867   7.835  1.3632 -1.1656 -0.0158
   60MOL0     H 8093   6.415   6.042   7.872 -4.4137  1.3816  2.4789
   60MOL0     H 8094   6.167   5.987   7.863  0.0313  3.6630 -0.1550
   60MOL0     H 8095   6.200   5.896   8.022 -0.7157 -0.8970 -0.4352
   60MOL0     H 8096   6.171   6.291   8.132  0.3279 -1.9829  3.5154
   60MOL0     H 8097   6.855   6.154   7.921 -0.2679 -0.3202 -1.8307
   60MOL0     H 8098   7.135   6.186   7.733 -1.4916  0.4333 -0.5881
   60MOL0     H 8099   7.038   6.262   7.864 -2.2888 -1.1346 -1.1535
   60MOL0     H 8100   7.194   6.188   7.902 -1.4961 -0.7746  2.2343
   61MOL0     O 8101   7.194   7.449   2.663  0.1358  0.3034 -0.1347
   61MOL0     C 8102   7.162   7.421   2.778 -0.1028 -0.4601 -0.4983
   61MOL0     O 8103   7.243   7.410   2.882  0.1809 -0.5803 -0.5519
   61MOL0     C 8104   7.374   7.414   2.867 -1.0140 -0.1022  0.1040
   61MOL0     C 8105   7.433   7.546   2.864  0.0400  0.6568 -1.0853
   61MOL0     C 8106   7.569   7.567   2.873  0.2876  0.0712 -0.8072
   61MOL0     C 8107   7.658   7.458   2.880  0.3144 -0.4392  0.5318
   61MOL0     O 8108   7.791   7.485   2.884  0.0737  0.2818 -0.9046
   61MOL0     C 8109   7.886   7.384   2.936  0.1931  1.3620  0.9530
   61MOL0     C 8110   8.021   7.443   2.963 -0.0335 -0.2071  0.4307
   61MOL0     C 8111   8.139   7.347   2.975  0.5440 -1.2889 -0.2276
   61MOL0     C 8112   8.266   7.416   3.034  0.3935  0.7198  0.2354
   61MOL0     C 8113   8.357   7.463   2.924  0.0326  0.5407  0.0305
   61MOL0     C 8114   8.391   7.611   2.939 -0.0241  0.6069 -0.9305
   61MOL0     C 8115   8.521   7.646   2.866  0.2328 -0.6093 -0.4168
   61MOL0     C 8116   8.647   7.607   2.947  1.0100  0.0705 -0.0133
   61MOL0     N 8117   8.762   7.611   2.859  0.2251 -0.1369 -0.2220
   61MOL0     C 8118   8.854   7.700   2.874  0.3796 -0.3780 -0.5330
   61MOL0     C 8119   8.949   7.676   2.773  0.3719  0.1260 -0.1742
   61MOL0     C 8120   9.080   7.748   2.741  0.5373  0.4549  0.1332
   61MOL0     C 8121   9.170   7.773   2.863 -1.2743 -0.5721  0.1052
   61MOL0     C 8122   9.303   7.834   2.813  0.0861  0.6301 -0.3350
   61MOL0     C 8123   9.397   7.833   2.929 -0.2739 -0.3197 -0.1942
   61MOL0     O 8124   9.456   7.704   2.960 -0.7101 -0.3680 -0.6516
   61MOL0     C 8125   9.560   7.700   3.048  0.1790 -0.0496 -0.5221
   61MOL0     C 8126   9.621   7.817   3.108  0.1288 -0.4092  0.1644
   61MOL0     C 8127   9.730   7.791   3.194 -0.0637  0.2570  0.0673
   61MOL0     C 8128   9.778   7.666   3.216 -0.5957  0.6234  0.7196
   61MOL0     C 8129   9.899   7.645   3.297 -0.2744  1.5032  0.6812
   61MOL0     O 8130   9.954   7.739   3.371 -0.2387  0.3551 -0.1148
   61MOL0     C 8131  10.077   7.744   3.419 -0.1537  0.0086 -0.2937
   61MOL0     C 8132  10.102   7.833   3.521  0.7196 -0.5831  0.0742
   61MOL0     C 8133  10.234   7.850   3.575 -0.6874  0.2528 -0.1906
   61MOL0     C 8134  10.341   7.779   3.529  0.4941 -0.2795 -0.3586
   61MOL0     O 8135  10.463   7.825   3.579  0.6429 -0.0139  0.0389
   61MOL0     C 8136  10.588   7.768   3.529  0.2388  0.3422 -0.2665
   61MOL0     C 8137  10.703   7.865   3.559  1.0898  0.6315  0.1781
   61MOL0     C 8138  10.827   7.821   3.497 -0.3547 -0.0278  0.0551
   61MOL0     C 8139  10.937   7.900   3.555  0.4692 -0.1572  0.6606
   61MOL0     C 8140  10.965   8.025   3.484 -0.4914 -0.2021  0.1796
   61MOL0     C 8141  11.057   8.112   3.577 -1.8896 -1.3109 -0.0096
   61MOL0     C 8142  11.091   8.251   3.514  0.5054  0.0050 -0.1617
   61MOL0     C 8143  11.149   8.341   3.615  0.0687  0.1700 -0.4323
   61MOL0    Cl 8144  11.310   8.283   3.657  0.2644  0.5168  0.2157
   61MOL0     C 8145  10.312   7.675   3.432  0.4695  0.4715 -0.4349
   61MOL0     C 8146  10.185   7.657   3.384 -0.3903  0.1370 -0.0736
   61MOL0     O 8147   9.945   7.532   3.275  0.2164  0.1211 -0.6468
   61MOL0     C 8148   9.713   7.559   3.166 -0.3221 -0.4215 -1.1124
   61MOL0     C 8149   9.605   7.576   3.081  0.7052 -0.7195 -0.2765
   61MOL0     N 8150   8.906   7.559   2.719 -1.0860 -0.0203  0.9019
   61MOL0     N 8151   8.796   7.513   2.771 -0.5105  0.2337  0.8298
   61MOL0     C 8152   7.605   7.326   2.872  0.4064 -0.0202 -0.8363
   61MOL0     C 8153   7.461   7.304   2.861 -0.3258 -0.3048  0.0135
   61MOL0     C 8154   7.021   7.390   2.806  0.0454 -0.5880  0.4446
   61MOL0     C 8155   6.984   7.373   2.943 -0.2113  0.4611  0.4160
   61MOL0     C 8156   6.850   7.349   2.989 -0.4764 -0.4313  0.2339
   61MOL0     C 8157   6.752   7.348   2.887 -0.3893  0.3127 -0.0710
   61MOL0     O 8158   6.618   7.322   2.919 -0.4732 -0.1574  0.3245
   61MOL0     C 8159   6.597   7.206   3.001  0.1533 -0.5926  0.0770
   61MOL0     C 8160   6.450   7.188   3.017  0.2544  0.0387  0.6630
   61MOL0     C 8161   6.407   7.045   3.044 -0.3889 -0.4600  0.4990
   61MOL0     C 8162   6.265   7.046   3.097  0.1644  0.2060 -0.0438
   61MOL0     C 8163   6.277   7.038   3.242  0.0399 -0.1558  0.7087
   61MOL0     C 8164   6.285   7.030   3.362 -0.1379  0.8329 -0.3179
   61MOL0     C 8165   6.781   7.358   2.751 -0.3660  0.2322 -0.1770
   61MOL0     C 8166   6.914   7.386   2.710 -0.3326  0.5412  0.5688
   61MOL0     C 8167   6.928   7.412   2.560  0.6801  0.0847 -0.2953
   61MOL0     H 8168   7.375   7.637   2.850 -2.5874 -1.1266 -2.6105
   61MOL0     H 8169   7.616   7.665   2.872 -0.0765  0.2452 -0.8180
   61MOL0     H 8170   7.845   7.334   3.024  0.5042  1.2626  1.0411
   61MOL0     H 8171   7.896   7.301   2.866 -0.1739  2.5361 -0.5582
   61MOL0     H 8172   8.004   7.496   3.058 -5.0443 -0.9384  0.2263
   61MOL0     H 8173   8.042   7.510   2.880 -1.3241  0.5733  0.6998
   61MOL0     H 8174   8.156   7.314   2.872 -1.7008 -0.4955 -0.9067
   61MOL0     H 8175   8.111   7.268   3.045 -1.6602 -1.1558 -0.8885
   61MOL0     H 8176   8.228   7.502   3.089 -2.1844 -0.5225  0.5604
   61MOL0     H 8177   8.320   7.353   3.106 -2.7404 -0.2265  1.9368
   61MOL0     H 8178   8.447   7.401   2.932  1.0807  1.9872  0.0354
   61MOL0     H 8179   8.337   7.444   2.818  0.1962 -1.6033  0.3506
   61MOL0     H 8180   8.306   7.668   2.901 -2.6360 -0.0038  3.3568
   61MOL0     H 8181   8.393   7.637   3.045  0.5717 -0.8571 -0.5484
   61MOL0     H 8182   8.532   7.753   2.850 -0.3859 -0.8132 -2.6157
   61MOL0     H 8183   8.525   7.605   2.764 -3.3884 -1.7282 -0.2290
   61MOL0     H 8184   8.652   7.664   3.041  0.9929 -2.5074  1.6666
   61MOL0     H 8185   8.637   7.508   2.994 -2.3139  0.7285  0.9466
   61MOL0     H 8186   8.868   7.788   2.935  2.6828 -1.3450  0.4377
   61MOL0     H 8187   9.129   7.686   2.666  0.6276 -0.3239  0.8279
   61MOL0     H 8188   9.066   7.844   2.690  1.6611 -0.2780 -1.6642
   61MOL0     H 8189   9.118   7.844   2.928 -0.6564  1.3532 -1.4190
   61MOL0     H 8190   9.194   7.676   2.908 -2.4441 -1.4822 -1.1356
   61MOL0     H 8191   9.280   7.938   2.790 -1.4239  0.4373  0.2421
   61MOL0     H 8192   9.343   7.768   2.735 -0.4869 -0.5309  0.3297
   61MOL0     H 8193   9.347   7.868   3.020  1.9655 -0.7606  1.2827
   61MOL0     H 8194   9.474   7.905   2.903 -1.1929  1.6648  2.1987
   61MOL0     H 8195   9.599   7.921   3.086 -0.2729 -0.5612 -0.1908
   61MOL0     H 8196   9.789   7.876   3.228  1.1117 -0.7977  0.7233
   61MOL0     H 8197  10.012   7.862   3.575 -1.1967  0.6617 -3.5160
   61MOL0     H 8198  10.242   7.919   3.658  0.0980 -0.9776  0.7798
   61MOL0     H 8199  10.598   7.666   3.568 -0.2030  0.7485  0.9435
   61MOL0     H 8200  10.580   7.768   3.419  1.8465 -1.0472 -0.4300
   61MOL0     H 8201  10.668   7.959   3.515  0.2521  1.9249  3.3051
   61MOL0     H 8202  10.709   7.862   3.668  2.5150 -1.9437  0.1028
   61MOL0     H 8203  10.833   7.713   3.514  1.2894 -0.0722 -0.6257
   61MOL0     H 8204  10.808   7.846   3.392  1.4294  0.8999 -0.0892
   61MOL0     H 8205  11.027   7.838   3.565  0.0957 -1.1132 -1.4517
   61MOL0     H 8206  10.915   7.938   3.656  4.1273  2.6099  0.5958
   61MOL0     H 8207  10.870   8.076   3.468 -0.5545  0.1478  1.5629
   61MOL0     H 8208  11.011   8.024   3.384 -3.0144  1.6978 -1.1224
   61MOL0     H 8209  10.996   8.143   3.662 -4.6169 -3.3757 -1.0505
   61MOL0     H 8210  11.151   8.064   3.607 -0.2764  1.3246 -0.5586
   61MOL0     H 8211  10.997   8.290   3.473  1.0445  1.5427 -0.0262
   61MOL0     H 8212  11.148   8.241   3.421 -1.0082  0.5419 -1.1931
   61MOL0     H 8213  11.140   8.446   3.585 -2.7245  0.5644  1.4063
   61MOL0     H 8214  11.083   8.337   3.703 -1.1243  0.0924 -1.3121
   61MOL0     H 8215  10.396   7.611   3.405 -1.1315 -2.6609  1.4594
   61MOL0     H 8216  10.175   7.567   3.323  0.9813 -0.0445 -0.0560
   61MOL0     H 8217   9.747   7.456   3.172  6.1464  1.3491  0.1661
   61MOL0     H 8218   9.553   7.488   3.044  0.8562 -0.4837 -1.0692
   61MOL0     H 8219   7.669   7.240   2.884 -1.2680 -0.9623  2.5668
   61MOL0     H 8220   7.417   7.204   2.866 -2.5048  0.5863  0.0634
   61MOL0     H 8221   7.063   7.382   3.017  0.6765 -2.1854 -0.1095
   61MOL0     H 8222   6.834   7.340   3.095 -0.8426 -0.5221  0.1720
   61MOL0     H 8223   6.639   7.213   3.102 -0.6435  0.2211  0.3609
   61MOL0     H 8224   6.649   7.120   2.955  0.8098  2.0318 -4.8091
   61MOL0     H 8225   6.386   7.207   2.931 -0.4170 -0.3703  1.0657
   61MOL0     H 8226   6.413   7.254   3.096 -1.1408 -0.4765  0.4590
   61MOL0     H 8227   6.474   7.001   3.119 -1.2143  0.9663  2.1370
   61MOL0     H 8228   6.410   6.995   2.946 -2.5682 -0.5903  0.4535
   61MOL0     H 8229   6.205   7.133   3.070  0.8319  0.6465 -0.1246
   61MOL0     H 8230   6.221   6.950   3.068 -0.2498 -0.1696  1.6596
   61MOL0     H 8231   6.293   7.016   3.468 -2.7091 -0.4599 -0.2026
   61MOL0     H 8232   6.705   7.348   2.675  0.9855 -3.2470 -1.2851
   61MOL0     H 8233   6.837   7.396   2.500  1.4186  1.4041 -1.8574
   61MOL0     H 8234   6.955   7.517   2.551 -1.8043  0.8483  0.2492
   61MOL0     H 8235   6.999   7.345   2.512 -1.2222  0.8921 -4.7763
   62MOL0     O 8236   7.306   8.097   6.226  0.8014 -0.0253 -1.0436
   62MOL0     C 8237   7.339   8.094   6.113 -0.6599  0.1552  0.3181
   62MOL0     O 8238   7.467   8.090   6.074 -0.5884  0.2903  0.1371
   62MOL0     C 8239   7.568   8.136   6.161  0.5108  0.5793 -0.3864
   62MOL0     C 8240   7.688   8.064   6.159 -0.6835  0.1618 -0.0754
   62MOL0     C 8241   7.795   8.108   6.238 -0.5966 -0.0488  0.1867
   62MOL0     C 8242   7.786   8.226   6.312  0.0447 -0.5822  0.3420
   62MOL0     O 8243   7.878   8.262   6.408 -0.2904 -0.3257  0.1979
   62MOL0     C 8244   7.982   8.185   6.460 -0.1386 -0.6770  0.5201
   62MOL0     C 8245   8.112   8.197   6.379 -0.0547  0.6807  0.1040
   62MOL0     C 8246   8.215   8.260   6.476 -1.3020  0.7183 -0.5982
   62MOL0     C 8247   8.368   8.246   6.431  0.0150 -0.8483 -0.4254
   62MOL0     C 8248   8.452   8.338   6.524  0.1454  1.4627 -0.8237
   62MOL0     C 8249   8.580   8.365   6.470  0.5346 -0.4896 -0.3683
   62MOL0     C 8250   8.639   8.484   6.551  0.1816  1.2127 -0.2908
   62MOL0     C 8251   8.768   8.547   6.493  0.3031  0.4027 -0.1579
   62MOL0     N 8252   8.811   8.650   6.582  0.0304 -0.1443 -0.7964
   62MOL0     C 8253   8.879   8.636   6.703 -0.3022  0.0919 -0.2011
   62MOL0     C 8254   8.898   8.768   6.743  0.3708 -0.5136 -0.2714
   62MOL0     C 8255   8.982   8.798   6.865 -0.3223 -0.3050  0.2794
   62MOL0     C 8256   9.121   8.726   6.862  0.3718 -0.3581 -0.4424
   62MOL0     C 8257   9.188   8.751   6.726 -0.3557 -0.2062 -0.3153
   62MOL0     C 8258   9.345   8.741   6.736  0.0011 -0.2048 -0.1584
   62MOL0     O 8259   9.385   8.605   6.728  0.0957 -0.2176  0.0476
   62MOL0     C 8260   9.519   8.591   6.773  0.4301  0.7653 -0.3536
   62MOL0     C 8261   9.635   8.650   6.712  0.6041 -0.4043 -0.3792
   62MOL0     C 8262   9.755   8.617   6.762 -1.3925 -0.5993 -0.7204
   62MOL0     C 8263   9.786   8.530   6.870  0.9553  0.2830 -0.4714
   62MOL0     C 8264   9.918   8.503   6.908  0.5906  0.6513  0.2007
   62MOL0     O 8265  10.019   8.549   6.820  0.0217  0.1219  0.1205
   62MOL0     C 8266  10.143   8.523   6.873 -0.0475  1.0392  1.0841
   62MOL0     C 8267  10.219   8.427   6.816 -0.3981 -0.6775 -0.0951
   62MOL0     C 8268  10.358   8.407   6.855  0.6518  1.0309 -0.4461
   62MOL0     C 8269  10.423   8.495   6.945  1.2948  0.5785  0.3642
   62MOL0     O 8270  10.551   8.470   6.993  0.3213 -0.3428  0.1301
   62MOL0     C 8271  10.560   8.336   7.044  0.6664  0.3326  0.0730
   62MOL0     C 8272  10.708   8.302   7.101  0.8052 -0.2359  1.0328
   62MOL0     C 8273  10.805   8.312   6.982  0.2329  0.3753  0.2248
   62MOL0     C 8274  10.944   8.281   7.026 -0.7638  0.7646  0.7074
   62MOL0     C 8275  11.036   8.328   6.909  0.0752 -0.3085  0.1687
   62MOL0     C 8276  11.175   8.327   6.959 -0.6443 -0.7115 -0.0351
   62MOL0     C 8277  11.269   8.373   6.850 -0.2612 -0.2679 -0.7618
   62MOL0     C 8278  11.412   8.305   6.853 -0.1027  0.0754 -0.1545
   62MOL0    Cl 8279  11.517   8.369   6.983 -0.4078  0.0443  0.1622
   62MOL0     C 8280  10.345   8.600   7.001  0.0761 -0.2307 -0.1257
   62MOL0     C 8281  10.206   8.606   6.970 -0.4929  0.5793 -0.5308
   62MOL0     O 8282   9.929   8.450   7.021 -0.0550  0.0866  0.0309
   62MOL0     C 8283   9.672   8.473   6.929 -0.2738 -0.1002 -0.4622
   62MOL0     C 8284   9.543   8.499   6.882 -0.4892  0.3954 -0.0040
   62MOL0     N 8285   8.847   8.859   6.650 -0.1557  0.3100  0.0404
   62MOL0     N 8286   8.789   8.787   6.558 -0.1305  0.3164 -0.2164
   62MOL0     C 8287   7.670   8.291   6.320 -0.0451  0.7921 -0.1855
   62MOL0     C 8288   7.561   8.251   6.246  0.6634  1.2830  1.2492
   62MOL0     C 8289   7.228   8.062   6.019 -0.3777  0.0407  0.5950
   62MOL0     C 8290   7.263   8.096   5.879 -0.0152  0.4298 -0.9728
   62MOL0     C 8291   7.169   8.094   5.777 -0.1312  0.7672 -0.5309
   62MOL0     C 8292   7.037   8.054   5.803  0.6086 -0.4683  0.1286
   62MOL0     O 8293   6.929   8.052   5.719  0.1980  0.2673 -0.0868
   62MOL0     C 8294   6.959   8.054   5.577 -0.5612 -0.2766 -0.1228
   62MOL0     C 8295   6.831   8.106   5.503 -0.6637 -0.5721  0.4426
   62MOL0     C 8296   6.823   8.257   5.502 -0.4092 -1.0097  0.5965
   62MOL0     C 8297   6.709   8.308   5.422  0.7335 -0.0248  0.1298
   62MOL0     C 8298   6.714   8.273   5.280 -0.1788 -0.2963 -0.5028
   62MOL0     C 8299   6.729   8.256   5.163 -0.1475  0.2259  0.1543
   62MOL0     C 8300   7.000   8.031   5.940  0.5151 -0.0010 -0.1186
   62MOL0     C 8301   7.091   8.038   6.048 -1.2192  0.7987  0.1580
   62MOL0     C 8302   7.042   8.003   6.182  0.1557  0.0575  0.7947
   62MOL0     H 8303   7.703   7.974   6.099 -3.7170 -0.1943 -0.4728
   62MOL0     H 8304   7.891   8.058   6.226 -1.0972 -0.3698 -4.5598
   62MOL0     H 8305   7.989   8.223   6.562 -0.4341 -0.1136  0.3369
   62MOL0     H 8306   7.947   8.082   6.462  1.5372 -1.3017 -0.1735
   62MOL0     H 8307   8.102   8.266   6.294  0.9812 -0.0569 -0.6391
   62MOL0     H 8308   8.142   8.105   6.330  0.2951  1.2624 -0.8069
   62MOL0     H 8309   8.200   8.202   6.567 -1.9037  0.5296 -0.8129
   62MOL0     H 8310   8.191   8.366   6.489 -0.8719  0.7135  0.2912
   62MOL0     H 8311   8.407   8.144   6.424  1.5331 -0.1621 -3.6205
   62MOL0     H 8312   8.381   8.288   6.331  0.5330 -0.5745 -0.2448
   62MOL0     H 8313   8.406   8.433   6.553  0.9025  1.5228  0.2385
   62MOL0     H 8314   8.459   8.280   6.616 -2.7277  2.6472  0.2745
   62MOL0     H 8315   8.645   8.277   6.476 -0.5008 -1.2193  0.8314
   62MOL0     H 8316   8.556   8.403   6.371 -1.0416  0.6475  0.3975
   62MOL0     H 8317   8.663   8.446   6.651 -3.1040  0.6571  0.4023
   62MOL0     H 8318   8.569   8.566   6.568  0.4589  1.2777  0.6396
   62MOL0     H 8319   8.850   8.478   6.472 -0.3683 -0.5669  0.3510
   62MOL0     H 8320   8.750   8.600   6.399 -0.1808  1.4887  0.5338
   62MOL0     H 8321   8.908   8.546   6.757  0.5384  0.8700  0.6806
   62MOL0     H 8322   9.002   8.905   6.868 -0.4105 -0.2770 -0.1472
   62MOL0     H 8323   8.931   8.767   6.957  1.7220 -0.9185  1.2611
   62MOL0     H 8324   9.178   8.770   6.944  1.8382 -1.5857 -0.7668
   62MOL0     H 8325   9.115   8.620   6.888 -1.3251 -0.5183 -1.3131
   62MOL0     H 8326   9.155   8.848   6.687 -1.5058 -1.4248 -2.6400
   62MOL0     H 8327   9.146   8.689   6.646 -1.6035  0.0081  0.1491
   62MOL0     H 8328   9.382   8.785   6.829  1.2304  3.8005 -2.3102
   62MOL0     H 8329   9.398   8.796   6.659 -1.2333 -2.6133 -2.9296
   62MOL0     H 8330   9.619   8.701   6.618  1.3733 -0.3017 -0.4556
   62MOL0     H 8331   9.838   8.669   6.714 -0.4975 -1.4113 -0.0913
   62MOL0     H 8332  10.191   8.372   6.727  1.8182  1.3231 -2.1672
   62MOL0     H 8333  10.399   8.318   6.807 -0.8279 -0.6104  1.1897
   62MOL0     H 8334  10.475   8.326   7.112 -0.2934  1.3280 -0.9479
   62MOL0     H 8335  10.546   8.263   6.964  5.3171 -0.6218 -0.1631
   62MOL0     H 8336  10.734   8.371   7.182  1.4130 -0.4852  1.0531
   62MOL0     H 8337  10.703   8.196   7.130  1.5785 -0.3764  0.6630
   62MOL0     H 8338  10.786   8.228   6.915  2.8069 -1.5809  1.7444
   62MOL0     H 8339  10.803   8.405   6.923  2.6687 -0.2815 -1.0669
   62MOL0     H 8340  10.959   8.173   7.039 -1.8169  0.7686  2.2975
   62MOL0     H 8341  10.969   8.336   7.117  1.0491  2.5039 -0.7584
   62MOL0     H 8342  11.007   8.429   6.878 -0.0180  0.8654  3.6498
   62MOL0     H 8343  11.033   8.269   6.817  1.7662 -0.2907  0.0710
   62MOL0     H 8344  11.177   8.393   7.046 -2.4122 -3.0699  1.9315
   62MOL0     H 8345  11.203   8.222   6.976  3.4980 -0.1989 -2.4652
   62MOL0     H 8346  11.271   8.481   6.861  1.5249 -0.4121  0.7849
   62MOL0     H 8347  11.236   8.350   6.748 -0.2089 -1.5805 -0.5044
   62MOL0     H 8348  11.398   8.198   6.869  0.7027 -0.4142 -2.4102
   62MOL0     H 8349  11.453   8.324   6.753 -1.8542 -1.5978 -1.2426
   62MOL0     H 8350  10.385   8.665   7.078 -1.3614  1.6363 -0.8777
   62MOL0     H 8351  10.144   8.688   7.004  1.0729  2.5963 -2.2899
   62MOL0     H 8352   9.685   8.405   7.013  0.2401  0.3198 -0.1942
   62MOL0     H 8353   9.454   8.459   6.931 -0.1740 -2.3110 -1.4363
   62MOL0     H 8354   7.671   8.373   6.391 -0.4873 -0.2734  1.0890
   62MOL0     H 8355   7.466   8.299   6.266 -0.6090 -1.2396  1.6876
   62MOL0     H 8356   7.355   8.120   5.828  0.8647 -1.5325 -0.4293
   62MOL0     H 8357   7.211   8.113   5.679  1.8825  1.6704  0.4395
   62MOL0     H 8358   6.978   7.956   5.533 -0.4686 -0.7034  0.8584
   62MOL0     H 8359   7.036   8.127   5.551  0.0309  0.4513  3.2917
   62MOL0     H 8360   6.740   8.060   5.542 -0.6321 -0.4403  0.6731
   62MOL0     H 8361   6.844   8.077   5.398  2.0119  2.0665 -0.0728
   62MOL0     H 8362   6.914   8.300   5.458 -0.3573 -0.1629  1.4905
   62MOL0     H 8363   6.806   8.304   5.599  0.1301 -0.6763  0.5359
   62MOL0     H 8364   6.621   8.274   5.479 -1.4466  1.3166 -2.2262
   62MOL0     H 8365   6.718   8.417   5.426  3.2266 -0.1531 -0.4809
   62MOL0     H 8366   6.757   8.245   5.060  1.7054  5.4193 -0.1852
   62MOL0     H 8367   6.895   8.014   5.961 -0.1849  1.9650 -1.5916
   62MOL0     H 8368   7.115   7.925   6.203  1.2870  0.4501 -1.3941
   62MOL0     H 8369   7.057   8.091   6.246 -2.6150  0.6199  0.8052
   62MOL0     H 8370   6.943   7.958   6.193 -0.6631  1.7017  0.4632
   63MOL0     O 8371   6.226   6.016   9.378 -0.1358  0.1821 -0.2826
   63MOL0     C 8372   6.240   5.896   9.390  0.1651  1.0565 -0.3054
   63MOL0     O 8373   6.348   5.839   9.464 -0.4403  0.2163 -0.1615
   63MOL0     C 8374   6.445   5.929   9.493 -0.3937 -0.4262 -1.3291
   63MOL0     C 8375   6.441   5.999   9.619  0.5975 -0.1325 -0.6548
   63MOL0     C 8376   6.551   6.066   9.660 -0.6377  0.3839  0.0117
   63MOL0     C 8377   6.666   6.078   9.575  0.2840  0.4030 -0.5477
   63MOL0     O 8378   6.778   6.146   9.611  0.1065 -0.3806 -0.4803
   63MOL0     C 8379   6.787   6.281   9.569  0.3542 -0.4595  0.9037
   63MOL0     C 8380   6.879   6.370   9.653  0.3600 -0.5545 -0.5390
   63MOL0     C 8381   7.028   6.352   9.626 -0.2306  0.1230  0.6108
   63MOL0     C 8382   7.084   6.236   9.709 -0.3659  0.5869 -0.2075
   63MOL0     C 8383   7.238   6.243   9.701  0.1092  0.0247 -0.1252
   63MOL0     C 8384   7.295   6.346   9.806 -0.6959  0.2959 -0.1813
   63MOL0     C 8385   7.446   6.348   9.800  1.2515  0.5233 -0.2033
   63MOL0     C 8386   7.504   6.445   9.908 -0.1678  0.2684  0.4423
   63MOL0     N 8387   7.634   6.407   9.939  0.4743  0.1861 -0.1090
   63MOL0     C 8388   7.740   6.408   9.857 -0.0930  0.0655 -0.1878
   63MOL0     C 8389   7.842   6.347   9.926  0.2508 -0.5402 -0.8470
   63MOL0     C 8390   7.983   6.316   9.884  0.1724 -0.0265  0.0438
   63MOL0     C 8391   8.082   6.406   9.948  0.6731 -0.3709 -0.4023
   63MOL0     C 8392   8.047   6.555   9.943  0.4472 -1.0934  0.0015
   63MOL0     C 8393   8.172   6.641   9.957 -1.2178  0.4139 -0.8881
   63MOL0     O 8394   8.214   6.629  10.093 -0.3026 -0.3677 -0.7461
   63MOL0     C 8395   8.345   6.668  10.129  0.5327 -0.5597 -0.7101
   63MOL0     C 8396   8.364   6.677  10.264  0.9921  0.1436 -0.5689
   63MOL0     C 8397   8.487   6.696  10.311 -0.2059 -0.3381  0.0073
   63MOL0     C 8398   8.594   6.734  10.225 -0.4564 -0.0111  0.0647
   63MOL0     C 8399   8.730   6.773  10.273  0.4043  0.2664 -0.2355
   63MOL0     O 8400   8.833   6.795  10.179  0.5117  0.0758 -0.3042
   63MOL0     C 8401   8.947   6.857  10.217 -0.2407  0.1652 -0.0461
   63MOL0     C 8402   9.066   6.790  10.185 -0.0819  0.0952  0.2843
   63MOL0     C 8403   9.181   6.859  10.235 -0.9630 -0.1808  0.0932
   63MOL0     C 8404   9.181   6.978  10.301  0.3366  0.4749 -0.1010
   63MOL0     O 8405   9.308   7.027  10.333 -0.6278 -0.5120  0.1280
   63MOL0     C 8406   9.326   7.155  10.393 -0.0694 -0.3083 -0.2751
   63MOL0     C 8407   9.467   7.202  10.396  0.9761  0.8589  1.0520
   63MOL0     C 8408   9.488   7.317  10.487  0.6759 -0.5370 -0.2521
   63MOL0     C 8409   9.612   7.390  10.460 -0.6718 -0.8467 -0.6033
   63MOL0     C 8410   9.638   7.485  10.575 -0.2046  0.0692  0.3932
   63MOL0     C 8411   9.784   7.539  10.566  0.3689 -0.3809  0.1639
   63MOL0     C 8412   9.823   7.612  10.690 -0.4439  1.2796  0.2218
   63MOL0     C 8413   9.952   7.687  10.658  0.0036 -0.2299  0.3410
   63MOL0    Cl 8414   9.919   7.836  10.571  0.1170 -0.0591 -0.3562
   63MOL0     C 8415   9.061   7.037  10.327  0.3262  0.7516  0.3192
   63MOL0     C 8416   8.939   6.969  10.292 -0.0840 -1.1763 -0.0133
   63MOL0     O 8417   8.737   6.793  10.391 -0.2077 -0.8541 -0.3709
   63MOL0     C 8418   8.568   6.732  10.088  0.3493 -0.2285  0.2786
   63MOL0     C 8419   8.448   6.704  10.037  0.2479 -0.2247  0.2038
   63MOL0     N 8420   7.796   6.326  10.048 -0.3422 -0.4103 -0.1967
   63MOL0     N 8421   7.674   6.351  10.055  0.3610 -0.3575 -0.8389
   63MOL0     C 8422   6.660   6.020   9.449  0.3757  0.4937 -0.1135
   63MOL0     C 8423   6.557   5.937   9.414  0.3491  0.2385  0.9922
   63MOL0     C 8424   6.135   5.802   9.340 -0.2069 -1.4567  0.3739
   63MOL0     C 8425   6.152   5.665   9.352 -0.6985  0.0704  0.0192
   63MOL0     C 8426   6.068   5.573   9.281  1.3150 -0.3727  0.3558
   63MOL0     C 8427   5.960   5.617   9.196 -0.4168 -0.1438  0.6732
   63MOL0     O 8428   5.877   5.512   9.149  0.4055  0.0345 -0.0028
   63MOL0     C 8429   5.762   5.542   9.080  1.0966  0.2867  0.1418
   63MOL0     C 8430   5.646   5.566   9.187  0.3524  0.1130 -0.2476
   63MOL0     C 8431   5.645   5.450   9.292 -0.2427  0.3868  0.3213
   63MOL0     C 8432   5.541   5.472   9.398  0.5232 -0.7953 -0.1884
   63MOL0     C 8433   5.592   5.398   9.521  0.3797 -0.5154  0.4670
   63MOL0     C 8434   5.633   5.320   9.605  0.2387  0.9595 -0.0764
   63MOL0     C 8435   5.955   5.752   9.183 -0.6120 -0.1582  0.5306
   63MOL0     C 8436   6.030   5.847   9.254 -0.1695 -0.0048  0.3903
   63MOL0     C 8437   6.002   5.995   9.213 -0.5623 -0.5944  0.7808
   63MOL0     H 8438   6.362   5.991   9.693  0.2598  2.5396 -0.6630
   63MOL0     H 8439   6.550   6.125   9.751 -1.6951  2.2703 -1.1487
   63MOL0     H 8440   6.820   6.277   9.464  2.3036  2.5688  1.2905
   63MOL0     H 8441   6.694   6.338   9.565  1.6391  1.7048  0.5123
   63MOL0     H 8442   6.865   6.345   9.759  0.4843  2.3914  0.2528
   63MOL0     H 8443   6.850   6.474   9.640 -2.9702 -1.4841 -1.4181
   63MOL0     H 8444   7.074   6.446   9.660 -0.7296  0.4174  0.4793
   63MOL0     H 8445   7.059   6.342   9.521  1.2570 -1.4435  1.1587
   63MOL0     H 8446   7.051   6.227   9.813  1.1631  0.9951  0.3311
   63MOL0     H 8447   7.060   6.138   9.666  2.0819  0.2952 -1.0593
   63MOL0     H 8448   7.268   6.144   9.738  0.0670 -0.0001 -0.1571
   63MOL0     H 8449   7.278   6.263   9.601  2.4152  1.0785  0.9217
   63MOL0     H 8450   7.257   6.449   9.805 -0.3770  0.4232  0.5093
   63MOL0     H 8451   7.273   6.310   9.907  0.5704 -1.5737 -0.5400
   63MOL0     H 8452   7.482   6.369   9.699  3.7191 -1.5039  0.1681
   63MOL0     H 8453   7.487   6.252   9.831 -0.1590 -0.2853 -0.7465
   63MOL0     H 8454   7.499   6.548   9.873 -3.8944 -0.6119 -2.2481
   63MOL0     H 8455   7.434   6.437   9.992 -2.5848  0.5170 -1.4460
   63MOL0     H 8456   7.756   6.425   9.751  3.4338 -1.5854 -0.0575
   63MOL0     H 8457   7.994   6.211   9.915 -2.1171 -0.1468  0.6290
   63MOL0     H 8458   7.996   6.320   9.775 -1.1802  0.0335 -0.1275
   63MOL0     H 8459   8.085   6.393  10.057  1.3312  0.0695 -0.3644
   63MOL0     H 8460   8.183   6.394   9.909  0.7481  0.0033 -0.3231
   63MOL0     H 8461   7.968   6.572  10.017  1.2598 -2.4419  1.2358
   63MOL0     H 8462   8.006   6.586   9.847 -0.6150 -1.5208  0.3060
   63MOL0     H 8463   8.154   6.746   9.935 -1.0818 -0.1641 -4.2655
   63MOL0     H 8464   8.244   6.603   9.884 -0.7297 -0.6133  0.0940
   63MOL0     H 8465   8.276   6.651  10.322 -0.7455  1.0442 -2.6425
   63MOL0     H 8466   8.513   6.692  10.417  0.1532 -0.0176 -0.0699
   63MOL0     H 8467   9.065   6.689  10.146 -0.7186 -0.7147  2.2660
   63MOL0     H 8468   9.277   6.816  10.207  0.6638  3.4358 -0.4364
   63MOL0     H 8469   9.273   7.224  10.327  0.5398  1.3205  0.8685
   63MOL0     H 8470   9.278   7.148  10.491  1.4737 -1.2222  0.4493
   63MOL0     H 8471   9.538   7.120  10.412 -0.1162 -0.2751  0.2766
   63MOL0     H 8472   9.495   7.240  10.298  1.0597 -2.1980 -0.2062
   63MOL0     H 8473   9.405   7.389  10.486 -2.3980 -3.5914  3.6623
   63MOL0     H 8474   9.487   7.270  10.585  1.3255 -1.6329 -0.7576
   63MOL0     H 8475   9.606   7.447  10.366 -0.4314  2.0384  0.9942
   63MOL0     H 8476   9.694   7.319  10.463  0.0214 -0.0270  0.6786
   63MOL0     H 8477   9.617   7.439  10.672  0.0641  0.0330  0.4349
   63MOL0     H 8478   9.566   7.565  10.556 -0.0897  0.6027  2.0082
   63MOL0     H 8479   9.856   7.456  10.561  0.8088  0.0183 -0.3591
   63MOL0     H 8480   9.787   7.599  10.474 -1.8883  0.3233  0.4982
   63MOL0     H 8481   9.848   7.531  10.759  1.4193  1.1539 -0.5390
   63MOL0     H 8482   9.748   7.683  10.727 -2.3164 -0.2354 -0.5650
   63MOL0     H 8483  10.002   7.709  10.753 -1.3967 -0.0901  1.0665
   63MOL0     H 8484  10.023   7.623  10.604 -0.4144 -1.3686  1.1106
   63MOL0     H 8485   9.054   7.130  10.384  1.4392  0.2628  1.3009
   63MOL0     H 8486   8.845   7.010  10.327 -0.1908 -1.2165 -0.2470
   63MOL0     H 8487   8.644   6.763  10.017  1.1420  1.2250  1.6958
   63MOL0     H 8488   8.413   6.717   9.935 -2.8320 -1.9395  0.9407
   63MOL0     H 8489   6.744   6.035   9.382 -0.2679  1.5653 -0.7126
   63MOL0     H 8490   6.555   5.879   9.322 -1.5266  0.1137  1.0726
   63MOL0     H 8491   6.217   5.619   9.426 -1.5994 -1.5299 -0.1487
   63MOL0     H 8492   6.078   5.465   9.294 -1.0019 -0.3351  3.5335
   63MOL0     H 8493   5.736   5.462   9.010  0.5501  0.5453  0.0445
   63MOL0     H 8494   5.777   5.635   9.023  2.2809 -0.0317 -0.0896
   63MOL0     H 8495   5.545   5.570   9.146 -0.8020 -0.1061  2.4211
   63MOL0     H 8496   5.662   5.664   9.233  1.4825 -0.5948  0.9435
   63MOL0     H 8497   5.743   5.456   9.339 -0.0213  0.6029 -0.1638
   63MOL0     H 8498   5.634   5.346   9.261  0.5203 -0.0907  1.5736
   63MOL0     H 8499   5.524   5.575   9.430 -1.2710 -1.3615  0.7500
   63MOL0     H 8500   5.448   5.430   9.361  1.1040 -2.1930 -0.1319
   63MOL0     H 8501   5.678   5.255   9.677 -1.1562  1.7109  1.5455
   63MOL0     H 8502   5.879   5.791   9.117  2.0095  1.5933 -1.6925
   63MOL0     H 8503   5.965   6.037   9.307 -1.6661 -3.6542  1.8415
   63MOL0     H 8504   6.093   6.044   9.177 -1.4182 -0.3702 -1.2363
   63MOL0     H 8505   5.933   6.000   9.128  0.0627 -0.4992  0.2677
   64MOL0     O 8506   5.442   1.241  10.236  0.6178  0.0607  0.5186
   64MOL0     C 8507   5.414   1.277  10.348  0.6785  0.5417 -0.0350
   64MOL0     O 8508   5.502   1.339  10.437 -0.4376  0.1781  0.0205
   64MOL0     C 8509   5.626   1.335  10.383 -0.5988  0.0985 -0.3604
   64MOL0     C 8510   5.715   1.238  10.418  1.1877 -0.5084  0.8253
   64MOL0     C 8511   5.837   1.230  10.346  1.0831 -0.1849 -0.9561
   64MOL0     C 8512   5.868   1.316  10.248  0.4752  0.8204  0.1885
   64MOL0     O 8513   5.984   1.312  10.181  0.1135  0.1900 -0.4177
   64MOL0     C 8514   6.057   1.192  10.183  0.3175 -0.2212  0.2049
   64MOL0     C 8515   6.181   1.217  10.105 -0.5805 -0.1129  0.2373
   64MOL0     C 8516   6.281   1.102  10.104  0.3192 -0.3738 -0.3125
   64MOL0     C 8517   6.385   1.117   9.994 -0.6141  0.9978  0.2680
   64MOL0     C 8518   6.507   1.021  10.008 -0.3333  0.0181  0.0645
   64MOL0     C 8519   6.583   1.028   9.875  0.1524  0.1979  0.3262
   64MOL0     C 8520   6.727   0.963   9.905  0.0066  0.7159 -0.1333
   64MOL0     C 8521   6.815   0.962   9.775  0.1344  0.7950 -0.0266
   64MOL0     N 8522   6.946   0.900   9.776 -0.1275  0.1771 -0.3541
   64MOL0     C 8523   6.966   0.779   9.832 -0.1715  0.0863 -0.0750
   64MOL0     C 8524   7.102   0.759   9.816  0.0622  0.2595 -0.0044
   64MOL0     C 8525   7.185   0.636   9.873 -0.0052 -0.8857 -0.3824
   64MOL0     C 8526   7.323   0.638   9.800 -0.7716 -0.0642 -0.4387
   64MOL0     C 8527   7.409   0.513   9.839 -0.1678  0.2765  1.5412
   64MOL0     C 8528   7.490   0.528   9.962  0.9133 -0.1641 -0.0170
   64MOL0     O 8529   7.552   0.402  10.002  0.1041  0.2106 -0.9585
   64MOL0     C 8530   7.684   0.413  10.038  0.0311 -0.5226  0.9547
   64MOL0     C 8531   7.769   0.521  10.067  0.2120  0.6379  0.3712
   64MOL0     C 8532   7.904   0.507  10.060 -0.1068  0.6000  0.0741
   64MOL0     C 8533   7.972   0.385  10.038 -0.5193 -0.4603  0.1874
   64MOL0     C 8534   8.115   0.375  10.036 -0.4657 -0.4205 -0.3230
   64MOL0     O 8535   8.190   0.483   9.998 -0.0570 -0.5352  0.5598
   64MOL0     C 8536   8.324   0.473  10.001 -0.7068  0.8142 -0.8775
   64MOL0     C 8537   8.395   0.499   9.877  0.1316  0.6123 -0.0559
   64MOL0     C 8538   8.535   0.506   9.879 -0.4278 -0.4800  0.1278
   64MOL0     C 8539   8.613   0.499   9.993  1.0131  0.3423 -0.5405
   64MOL0     O 8540   8.748   0.519   9.999  0.0402  0.0378 -0.0319
   64MOL0     C 8541   8.821   0.572   9.885 -0.5399  0.4614 -0.7062
   64MOL0     C 8542   8.978   0.579   9.903  0.1709 -0.0440 -0.1202
   64MOL0     C 8543   9.054   0.444   9.921 -0.1921 -0.9168  0.2965
   64MOL0     C 8544   9.198   0.485   9.960  0.3508 -0.7815 -0.5729
   64MOL0     C 8545   9.290   0.357   9.973 -0.1643 -1.2060 -0.0899
   64MOL0     C 8546   9.326   0.306   9.833  0.4153  0.7218  0.5372
   64MOL0     C 8547   9.434   0.203   9.840 -1.0403 -0.1130  0.0753
   64MOL0     C 8548   9.574   0.269   9.821 -0.3892 -0.2491 -0.3577
   64MOL0    Cl 8549   9.697   0.138   9.793  0.0594  0.4089  0.3398
   64MOL0     C 8550   8.546   0.470  10.112  1.2168 -0.3169  0.4069
   64MOL0     C 8551   8.404   0.447  10.115 -0.3235 -0.3775 -0.3964
   64MOL0     O 8552   8.165   0.269  10.076  0.2043  0.4999  0.3365
   64MOL0     C 8553   7.888   0.275  10.026 -0.2738  0.2769  0.4219
   64MOL0     C 8554   7.749   0.293  10.015 -0.0064 -0.2628 -1.1934
   64MOL0     N 8555   7.146   0.858   9.740 -0.2691  0.6426  0.3507
   64MOL0     N 8556   7.059   0.943   9.713 -0.4098 -0.2203  0.3478
   64MOL0     C 8557   5.786   1.432  10.233  0.7247  0.5721 -0.0857
   64MOL0     C 8558   5.668   1.442  10.301  0.2584  0.0691  0.6263
   64MOL0     C 8559   5.270   1.278  10.382  1.0754 -0.7521  0.3123
   64MOL0     C 8560   5.170   1.321  10.291  1.0387  0.6641 -0.6073
   64MOL0     C 8561   5.038   1.325  10.334  0.2741 -0.4689 -0.3611
   64MOL0     C 8562   4.992   1.271  10.451 -0.2120  0.0179  0.1828
   64MOL0     O 8563   4.863   1.289  10.489  0.2972  0.5516 -0.0632
   64MOL0     C 8564   4.808   1.150  10.506 -0.2372 -0.5775 -0.2744
   64MOL0     C 8565   4.731   1.113  10.380 -0.4344 -0.0520 -0.0549
   64MOL0     C 8566   4.840   1.030  10.284  0.0385 -0.2111  0.1487
   64MOL0     C 8567   4.757   0.927  10.206  0.2707 -0.3819 -0.8125
   64MOL0     C 8568   4.646   0.989  10.131  0.1356  0.6540  0.6937
   64MOL0     C 8569   4.560   1.048  10.068 -0.6181 -0.6234 -1.0506
   64MOL0     C 8570   5.091   1.217  10.541  0.3751  0.0255  0.3528
   64MOL0     C 8571   5.229   1.217  10.502  0.3459 -0.0565 -0.9472
   64MOL0     C 8572   5.337   1.156  10.597  0.0008 -0.8244 -0.5813
   64MOL0     H 8573   5.688   1.159  10.487  0.3442 -1.3937 -0.4703
   64MOL0     H 8574   5.897   1.144  10.373  0.4137 -0.4139 -0.1552
   64MOL0     H 8575   6.088   1.160  10.282 -0.0130 -1.2483 -0.0089
   64MOL0     H 8576   6.008   1.108  10.132  1.0780 -1.7333  1.8647
   64MOL0     H 8577   6.245   1.299  10.138 -0.5592  0.2599 -0.6976
   64MOL0     H 8578   6.148   1.235  10.002 -0.9655  0.0091  0.3820
   64MOL0     H 8579   6.228   1.010  10.077  0.7260  0.0826 -2.9150
   64MOL0     H 8580   6.321   1.073  10.201 -2.3471 -4.6920 -0.2138
   64MOL0     H 8581   6.335   1.099   9.898  1.2274  2.1010 -0.9536
   64MOL0     H 8582   6.423   1.220   9.991 -0.6011  1.0469  1.6248
   64MOL0     H 8583   6.575   1.059  10.086  1.1643 -1.5045 -0.4325
   64MOL0     H 8584   6.488   0.918  10.040  1.5356 -0.6008 -0.6817
   64MOL0     H 8585   6.526   0.975   9.799 -0.1176 -0.8042  1.2121
   64MOL0     H 8586   6.600   1.131   9.842 -1.2712 -0.1249 -1.5346
   64MOL0     H 8587   6.703   0.859   9.931  0.8168  0.7547  0.8336
   64MOL0     H 8588   6.778   1.016   9.985  0.5277 -0.7711  0.5696
   64MOL0     H 8589   6.757   0.911   9.698  0.6729  0.9472 -0.5408
   64MOL0     H 8590   6.829   1.069   9.754  0.8290  1.5241  3.4919
   64MOL0     H 8591   6.884   0.727   9.879 -1.2007  1.9619  0.2912
   64MOL0     H 8592   7.197   0.650   9.980  0.2687 -0.9739 -0.4029
   64MOL0     H 8593   7.125   0.545   9.858  0.7251 -1.1651 -1.7702
   64MOL0     H 8594   7.309   0.634   9.691  1.0891  0.7212 -0.7516
   64MOL0     H 8595   7.377   0.730   9.824 -1.2428  0.9018 -2.7553
   64MOL0     H 8596   7.476   0.493   9.755 -0.3896  1.0525  1.1746
   64MOL0     H 8597   7.334   0.433   9.844 -3.7489  3.0884 -1.2211
   64MOL0     H 8598   7.426   0.561  10.044 -0.1583  0.2526 -0.9910
   64MOL0     H 8599   7.559   0.610   9.945  1.3326 -0.5859 -0.3788
   64MOL0     H 8600   7.726   0.619  10.083  1.0107  1.8009 -3.4515
   64MOL0     H 8601   7.961   0.598  10.076  2.2325 -0.7600 -0.0309
   64MOL0     H 8602   8.344   0.515   9.783  2.4756  1.7142 -1.2360
   64MOL0     H 8603   8.577   0.538   9.784 -1.9370  1.4797  0.0364
   64MOL0     H 8604   8.796   0.520   9.792  1.6271  1.6476 -2.0624
   64MOL0     H 8605   8.789   0.677   9.885  1.4146  1.1961  2.5327
   64MOL0     H 8606   9.019   0.629   9.815  2.4720  2.4097  2.1757
   64MOL0     H 8607   8.991   0.648   9.987 -0.0614  1.4743 -1.2883
   64MOL0     H 8608   9.025   0.378  10.004  1.0781 -1.0618  0.6505
   64MOL0     H 8609   9.063   0.387   9.829  0.9671  0.5563 -0.5606
   64MOL0     H 8610   9.187   0.535  10.057 -0.3717 -0.4123 -0.8373
   64MOL0     H 8611   9.246   0.554   9.891  1.3471 -0.0639  0.7942
   64MOL0     H 8612   9.245   0.269  10.021  0.4097  0.1246  3.1586
   64MOL0     H 8613   9.382   0.377  10.030 -0.8573  3.3564 -0.2141
   64MOL0     H 8614   9.230   0.274   9.791  1.5841 -1.0991 -0.8666
   64MOL0     H 8615   9.361   0.389   9.771  1.3815 -1.0418 -1.3833
   64MOL0     H 8616   9.417   0.127   9.764  1.2038 -0.9793  0.3694
   64MOL0     H 8617   9.429   0.157   9.939  0.1200 -0.1967  0.1017
   64MOL0     H 8618   9.557   0.318   9.724 -3.4620  0.0271  0.2282
   64MOL0     H 8619   9.605   0.354   9.882  3.6746  0.6162 -3.2190
   64MOL0     H 8620   8.592   0.476  10.210 -2.1162  3.0046  2.0324
   64MOL0     H 8621   8.360   0.434  10.213  0.1219 -2.3322 -0.4113
   64MOL0     H 8622   7.919   0.172  10.011  2.3971  1.0522  0.2502
   64MOL0     H 8623   7.679   0.211  10.006  3.0355 -2.9539 -2.2070
   64MOL0     H 8624   5.816   1.510  10.165  2.3164 -1.8589 -2.3489
   64MOL0     H 8625   5.585   1.506  10.273  0.3170 -0.1069  0.0455
   64MOL0     H 8626   5.189   1.339  10.185  0.6672 -0.3512 -0.8588
   64MOL0     H 8627   4.971   1.368  10.260 -3.4728 -2.7785  1.3657
   64MOL0     H 8628   4.751   1.155  10.599  1.5853  2.7462  0.8157
   64MOL0     H 8629   4.876   1.066  10.526  0.0233 -0.2323  0.3214
   64MOL0     H 8630   4.690   1.204  10.335  1.0049  0.3708 -0.5917
   64MOL0     H 8631   4.650   1.044  10.405  0.1326 -0.2793  1.2121
   64MOL0     H 8632   4.921   0.989  10.345 -1.3157  1.0990  3.0737
   64MOL0     H 8633   4.893   1.097  10.216 -1.0731 -1.5159 -2.1282
   64MOL0     H 8634   4.823   0.880  10.133 -0.5971  2.1234 -3.4419
   64MOL0     H 8635   4.721   0.856  10.281 -1.1211  2.1046  1.0643
   64MOL0     H 8636   4.484   1.104  10.018  0.3857  1.4163 -0.4270
   64MOL0     H 8637   5.061   1.181  10.640  0.2479 -2.4173 -0.5054
   64MOL0     H 8638   5.401   1.237  10.634 -0.6846  1.6002 -4.1661
   64MOL0     H 8639   5.282   1.110  10.679 -3.7553  0.3235 -2.2281
   64MOL0     H 8640   5.410   1.088  10.552  1.8933 -0.2300  1.4051
   65MOL0     O 8641   3.894   3.899   5.064  0.8273 -1.0036  0.1753
   65MOL0     C 8642   3.856   3.840   4.963  0.1878  0.2605  1.0904
   65MOL0     O 8643   3.939   3.831   4.849  0.3013  0.3118 -0.3180
   65MOL0     C 8644   4.052   3.908   4.842 -0.6503  1.0604 -0.6903
   65MOL0     C 8645   4.169   3.840   4.796 -0.6815  0.2075 -0.3133
   65MOL0     C 8646   4.290   3.904   4.779  0.2820  0.6726 -1.2118
   65MOL0     C 8647   4.302   4.040   4.810  0.2094  0.1369 -0.5977
   65MOL0     O 8648   4.429   4.098   4.809  0.1846 -1.0924  0.3280
   65MOL0     C 8649   4.465   4.157   4.936 -0.5352  0.1959  0.1305
   65MOL0     C 8650   4.591   4.252   4.922  0.3192  0.6625  0.2738
   65MOL0     C 8651   4.641   4.314   5.054  0.5011  0.1799  0.2956
   65MOL0     C 8652   4.760   4.393   5.030  0.5678 -0.2493  0.2500
   65MOL0     C 8653   4.827   4.430   5.163 -0.3809  0.5018 -0.2996
   65MOL0     C 8654   4.964   4.480   5.133 -0.2274 -0.9088  0.4665
   65MOL0     C 8655   5.019   4.533   5.268  0.1418 -0.3783  0.2401
   65MOL0     C 8656   5.082   4.427   5.353  0.7307 -0.9614  1.7642
   65MOL0     N 8657   5.190   4.359   5.270  0.7814  1.4204  0.2003
   65MOL0     C 8658   5.303   4.421   5.218  0.3732 -0.0209 -0.2489
   65MOL0     C 8659   5.395   4.317   5.204  0.6583 -0.4489  0.1663
   65MOL0     C 8660   5.531   4.336   5.152  0.6554  0.7006 -0.9932
   65MOL0     C 8661   5.531   4.303   5.008  1.0779 -0.1510 -0.0877
   65MOL0     C 8662   5.663   4.329   4.937 -0.8083  0.7817  0.1511
   65MOL0     C 8663   5.669   4.263   4.798 -0.5999  0.2087  0.2882
   65MOL0     O 8664   5.775   4.315   4.727 -0.3457 -0.1399  0.4129
   65MOL0     C 8665   5.895   4.260   4.758 -0.2663  0.4744 -0.4653
   65MOL0     C 8666   5.986   4.331   4.851 -0.6102  0.7830 -0.0554
   65MOL0     C 8667   6.116   4.285   4.875  0.4559  0.1126 -0.5471
   65MOL0     C 8668   6.161   4.174   4.797 -0.8112 -0.4863 -0.2433
   65MOL0     C 8669   6.300   4.135   4.807 -0.1659 -0.0002  0.1907
   65MOL0     O 8670   6.376   4.223   4.878 -0.2620 -0.1462  0.5220
   65MOL0     C 8671   6.501   4.244   4.814  0.1269  0.4572 -0.0437
   65MOL0     C 8672   6.612   4.236   4.899  1.1911  0.0412 -0.1011
   65MOL0     C 8673   6.738   4.252   4.857  0.2427  0.5659  0.6508
   65MOL0     C 8674   6.777   4.270   4.721 -0.3931 -0.3358 -0.1432
   65MOL0     O 8675   6.905   4.293   4.690  0.4901  0.2370 -0.0752
   65MOL0     C 8676   6.962   4.215   4.581 -0.6412 -0.7390 -0.6775
   65MOL0     C 8677   7.066   4.297   4.507 -0.0717 -1.0012 -0.8088
   65MOL0     C 8678   7.191   4.325   4.594  0.5694 -0.2693  0.5648
   65MOL0     C 8679   7.287   4.414   4.515 -0.5151 -0.4288  1.1100
   65MOL0     C 8680   7.419   4.446   4.582  0.4439 -0.1421 -0.1603
   65MOL0     C 8681   7.531   4.502   4.501 -0.1770 -0.1044  0.1046
   65MOL0     C 8682   7.670   4.460   4.564  1.0387 -0.1083 -0.5672
   65MOL0     C 8683   7.789   4.553   4.532  0.7121  0.3205  0.4860
   65MOL0    Cl 8684   7.829   4.578   4.359  0.3005  0.4224 -0.0394
   65MOL0     C 8685   6.666   4.277   4.631  0.5919  0.1202 -0.4194
   65MOL0     C 8686   6.529   4.265   4.679 -0.0918  0.2482  0.0085
   65MOL0     O 8687   6.341   4.041   4.736  0.1479  0.0780  0.4486
   65MOL0     C 8688   6.078   4.111   4.707 -0.4498  0.4520 -0.2999
   65MOL0     C 8689   5.944   4.148   4.686  0.2135 -0.5518  0.3280
   65MOL0     N 8690   5.328   4.200   5.239  0.0990  0.6139  0.3718
   65MOL0     N 8691   5.210   4.223   5.287 -0.2930 -0.6942  0.1984
   65MOL0     C 8692   4.185   4.105   4.846 -0.4882  0.2149 -0.8763
   65MOL0     C 8693   4.061   4.043   4.865  0.7191  0.0329  0.6034
   65MOL0     C 8694   3.720   3.778   4.968  0.1175 -0.1683  0.6533
   65MOL0     C 8695   3.706   3.652   4.910  0.5129 -1.0563 -0.2830
   65MOL0     C 8696   3.578   3.588   4.908  0.1420  0.2690 -0.3326
   65MOL0     C 8697   3.468   3.654   4.963 -0.5973  0.0656  0.4352
   65MOL0     O 8698   3.346   3.601   4.968 -0.2592  0.2161  0.1565
   65MOL0     C 8699   3.329   3.460   4.919 -0.0120 -0.7014  0.6273
   65MOL0     C 8700   3.188   3.426   4.913  0.2086  0.0558 -0.5826
   65MOL0     C 8701   3.115   3.463   5.045  0.3683 -0.0841 -0.2197
   65MOL0     C 8702   3.057   3.606   5.058  0.5630  0.0768 -0.5447
   65MOL0     C 8703   2.944   3.601   5.150  0.5569  0.4120 -0.2800
   65MOL0     C 8704   2.837   3.599   5.217  0.2420 -0.4127 -0.0689
   65MOL0     C 8705   3.483   3.782   5.010 -1.0104 -0.5501  0.3758
   65MOL0     C 8706   3.604   3.849   5.016 -0.1880  0.4446  0.5654
   65MOL0     C 8707   3.602   3.994   5.062  0.2314 -0.2211  0.5059
   65MOL0     H 8708   4.158   3.735   4.771 -0.9429  0.1794 -0.0763
   65MOL0     H 8709   4.368   3.844   4.734  1.1239  1.2714 -0.5731
   65MOL0     H 8710   4.381   4.210   4.982 -1.6069 -2.1608  1.0501
   65MOL0     H 8711   4.497   4.078   5.004  0.5010 -0.1644 -0.7383
   65MOL0     H 8712   4.556   4.328   4.852  0.3936  0.0499 -0.4418
   65MOL0     H 8713   4.671   4.189   4.882 -0.4926 -1.9758  2.4926
   65MOL0     H 8714   4.654   4.222   5.112 -1.5366 -0.1461  0.3275
   65MOL0     H 8715   4.556   4.371   5.094 -1.5453  1.2063 -4.7558
   65MOL0     H 8716   4.828   4.339   4.964  1.7135 -0.2742  1.3965
   65MOL0     H 8717   4.715   4.483   4.988 -0.8386 -0.3857  1.3556
   65MOL0     H 8718   4.775   4.500   5.230 -1.9818 -0.9411  0.0071
   65MOL0     H 8719   4.837   4.336   5.218  2.5329  1.2774  0.7219
   65MOL0     H 8720   5.031   4.402   5.097  2.3103  0.4307  2.0388
   65MOL0     H 8721   4.956   4.550   5.050  1.0275  1.8377  2.5418
   65MOL0     H 8722   4.937   4.586   5.316  1.0672  2.1782 -0.8220
   65MOL0     H 8723   5.098   4.608   5.256  0.4618 -0.7637 -0.1154
   65MOL0     H 8724   5.125   4.478   5.440  0.8076  2.5813 -0.2065
   65MOL0     H 8725   5.009   4.352   5.384 -0.3631 -0.5518  0.2370
   65MOL0     H 8726   5.322   4.527   5.201 -0.0759  0.0364 -0.3990
   65MOL0     H 8727   5.581   4.431   5.171  0.7415  0.7356 -1.3752
   65MOL0     H 8728   5.594   4.265   5.207 -0.1968  1.3319  0.8529
   65MOL0     H 8729   5.507   4.198   4.991 -0.5535 -0.0223  1.1341
   65MOL0     H 8730   5.457   4.369   4.962 -0.3423 -0.7932  1.1699
   65MOL0     H 8731   5.745   4.287   4.995  0.3845  0.5598 -1.5993
   65MOL0     H 8732   5.687   4.435   4.932 -4.2006  1.6777  0.6229
   65MOL0     H 8733   5.572   4.288   4.754 -1.0550 -1.2033  0.4593
   65MOL0     H 8734   5.673   4.155   4.815  0.3523  0.5276  2.5076
   65MOL0     H 8735   5.945   4.420   4.897 -0.8554 -0.0565  1.4014
   65MOL0     H 8736   6.184   4.340   4.940 -1.5493  0.6548  1.1761
   65MOL0     H 8737   6.595   4.227   5.005 -0.4191 -0.0617 -0.3403
   65MOL0     H 8738   6.818   4.245   4.929 -0.1435  1.0146  1.1290
   65MOL0     H 8739   7.011   4.124   4.617  2.6937  0.7774 -0.9709
   65MOL0     H 8740   6.888   4.181   4.507 -0.3623  0.2958 -1.4687
   65MOL0     H 8741   7.094   4.231   4.424  0.0496 -0.2113 -1.4152
   65MOL0     H 8742   7.016   4.387   4.467  1.2005 -0.3786 -1.0423
   65MOL0     H 8743   7.160   4.361   4.692  0.7886  2.7497 -0.3755
   65MOL0     H 8744   7.238   4.227   4.607 -1.1407 -1.5745 -2.1897
   65MOL0     H 8745   7.240   4.506   4.477 -2.4419 -2.2435 -1.2733
   65MOL0     H 8746   7.315   4.356   4.427  3.2600  0.4420  1.5890
   65MOL0     H 8747   7.443   4.354   4.636 -0.6536 -0.9965 -1.0728
   65MOL0     H 8748   7.399   4.527   4.652 -1.0849  0.1433 -0.8827
   65MOL0     H 8749   7.527   4.459   4.400  3.1723  3.0212 -1.5958
   65MOL0     H 8750   7.517   4.609   4.484 -0.6736  0.2022  2.2353
   65MOL0     H 8751   7.704   4.362   4.531 -0.0136 -1.3889  1.9395
   65MOL0     H 8752   7.644   4.466   4.670 -1.7912 -0.9147 -1.1492
   65MOL0     H 8753   7.768   4.646   4.585 -4.8890 -1.4666  1.9923
   65MOL0     H 8754   7.877   4.512   4.583  0.6716  1.4048  1.4674
   65MOL0     H 8755   6.688   4.305   4.528 -0.3388  0.8049 -0.4381
   65MOL0     H 8756   6.453   4.283   4.604  1.0545 -0.4693 -1.3856
   65MOL0     H 8757   6.118   4.032   4.644  0.8969 -0.6430  1.7841
   65MOL0     H 8758   5.886   4.098   4.610  0.4091 -0.3926  0.0705
   65MOL0     H 8759   4.193   4.213   4.853  1.7295  0.0238  0.6779
   65MOL0     H 8760   3.973   4.104   4.877  0.8623  0.5634 -0.8973
   65MOL0     H 8761   3.799   3.609   4.876  0.6605  1.0274 -2.7999
   65MOL0     H 8762   3.573   3.489   4.866 -0.2805  0.3209 -0.4091
   65MOL0     H 8763   3.382   3.395   4.990  1.1440 -0.7872 -0.2768
   65MOL0     H 8764   3.374   3.441   4.822  1.9072 -2.2973  1.7497
   65MOL0     H 8765   3.194   3.317   4.911  2.8312  0.1357 -0.1384
   65MOL0     H 8766   3.140   3.467   4.823  3.2592  1.2820 -1.7896
   65MOL0     H 8767   3.189   3.444   5.124 -1.5113  1.1800  1.9834
   65MOL0     H 8768   3.024   3.404   5.057 -1.3543  2.4802  0.0932
   65MOL0     H 8769   3.135   3.678   5.084  1.5078 -1.2285  0.3292
   65MOL0     H 8770   3.012   3.638   4.963 -2.0390 -2.2899 -0.2224
   65MOL0     H 8771   2.769   3.605   5.299  3.9701 -1.8719  3.5173
   65MOL0     H 8772   3.391   3.817   5.055 -1.3722 -2.2440  1.0416
   65MOL0     H 8773   3.682   4.062   5.030 -1.3086  1.9268  0.9453
   65MOL0     H 8774   3.508   4.036   5.026  1.2103  1.5541 -0.1170
   65MOL0     H 8775   3.574   4.009   5.166 -0.5456  1.4355  0.0998
   66MOL0     O 8776  10.445   2.717   1.511 -0.2441  0.5772  0.6532
   66MOL0     C 8777  10.415   2.788   1.420  1.0865 -0.5176 -0.1669
   66MOL0     O 8778  10.502   2.866   1.340 -0.4266 -0.5238 -0.0741
   66MOL0     C 8779  10.633   2.871   1.373 -0.2622 -0.5564  0.4284
   66MOL0     C 8780  10.680   2.942   1.489  0.5539 -0.4594 -0.3554
   66MOL0     C 8781  10.820   2.963   1.512 -0.4185  0.4505  0.8219
   66MOL0     C 8782  10.909   2.882   1.442 -0.7101 -0.3716  0.9896
   66MOL0     O 8783  11.038   2.880   1.480 -0.8813  0.5020  0.7865
   66MOL0     C 8784  11.092   2.746   1.478 -0.8454  0.8094  0.5466
   66MOL0     C 8785  11.184   2.714   1.594  0.1329  0.1498  0.2335
   66MOL0     C 8786  11.292   2.814   1.612 -0.3720  0.6046  0.0087
   66MOL0     C 8787  11.414   2.738   1.665  0.9086  0.8167  0.6231
   66MOL0     C 8788  11.524   2.832   1.705 -0.1255 -0.2220  0.2120
   66MOL0     C 8789  11.579   2.908   1.580  0.0803 -0.7361  0.7667
   66MOL0     C 8790  11.723   2.953   1.588 -1.0141  0.8951  0.2739
   66MOL0     C 8791  11.748   3.072   1.493  0.4252  0.3492 -0.7949
   66MOL0     N 8792  11.848   3.163   1.547 -0.3430 -0.0526 -0.2746
   66MOL0     C 8793  11.804   3.274   1.619 -1.1742 -0.1723 -0.7505
   66MOL0     C 8794  11.912   3.297   1.694 -0.5900 -0.0999  0.8807
   66MOL0     C 8795  11.922   3.398   1.803  0.0321 -0.1509 -0.4813
   66MOL0     C 8796  11.941   3.539   1.765 -0.3410 -0.6264  0.2981
   66MOL0     C 8797  12.080   3.584   1.713 -0.1766  1.2365 -0.5309
   66MOL0     C 8798  12.190   3.573   1.824 -0.0449 -0.0526  0.6431
   66MOL0     O 8799  12.323   3.623   1.788  0.3933  0.1562  0.1712
   66MOL0     C 8800  12.395   3.543   1.699 -0.0324  0.0749  0.0712
   66MOL0     C 8801  12.361   3.412   1.653 -0.2414  0.8617  0.4146
   66MOL0     C 8802  12.455   3.344   1.575 -0.3502 -0.5506 -0.4771
   66MOL0     C 8803  12.567   3.403   1.532 -0.8191  0.1200  0.0731
   66MOL0     C 8804  12.664   3.325   1.459 -0.1890  1.0365 -0.0961
   66MOL0     O 8805  12.620   3.214   1.400 -0.2603 -0.8862  0.1307
   66MOL0     C 8806  12.703   3.134   1.325  0.7266 -0.2048 -1.2460
   66MOL0     C 8807  12.649   3.004   1.300  0.1098  0.1562  0.2787
   66MOL0     C 8808  12.719   2.910   1.224  0.3466  0.0174 -0.6692
   66MOL0     C 8809  12.848   2.960   1.167 -0.3546  0.3427 -0.3518
   66MOL0     O 8810  12.921   2.874   1.088 -0.8074  0.6052  1.5246
   66MOL0     C 8811  12.990   2.769   1.158  0.3735  0.5060 -0.0619
   66MOL0     C 8812  13.095   2.713   1.059 -0.1158 -0.3042  0.9159
   66MOL0     C 8813  13.170   2.596   1.115  0.4753  0.2039 -0.2393
   66MOL0     C 8814  13.293   2.558   1.031  0.7023 -0.8101 -0.1061
   66MOL0     C 8815  13.391   2.450   1.087 -0.6098 -0.5402 -0.8334
   66MOL0     C 8816  13.516   2.436   1.007  0.6906  0.0741 -0.6941
   66MOL0     C 8817  13.637   2.410   1.097  0.1881  0.3476 -0.4928
   66MOL0     C 8818  13.758   2.359   1.006  0.2293 -0.2556  0.2363
   66MOL0    Cl 8819  13.827   2.507   0.951  0.2300 -0.1342  0.4173
   66MOL0     C 8820  12.893   3.086   1.188 -0.1793  0.4157  0.3049
   66MOL0     C 8821  12.824   3.169   1.271 -0.0419  0.4208  0.0556
   66MOL0     O 8822  12.778   3.370   1.454  0.8403 -0.1717  0.0380
   66MOL0     C 8823  12.588   3.532   1.550  0.8597 -0.2548 -0.3264
   66MOL0     C 8824  12.508   3.607   1.643 -0.1292  0.0231 -1.1291
   66MOL0     N 8825  12.019   3.213   1.652  0.1634  0.0765  0.1634
   66MOL0     N 8826  11.978   3.135   1.561  0.5329  0.1517 -0.2743
   66MOL0     C 8827  10.861   2.800   1.340 -0.2163  0.3167 -0.3658
   66MOL0     C 8828  10.726   2.797   1.300 -0.6992  0.8001 -0.1743
   66MOL0     C 8829  10.263   2.813   1.384  0.2738  0.6899 -1.3508
   66MOL0     C 8830  10.233   2.885   1.267  0.5279 -0.4169 -0.7173
   66MOL0     C 8831  10.105   2.912   1.223 -0.4748  0.2876  0.4783
   66MOL0     C 8832   9.994   2.870   1.304  0.1418 -0.8140  0.5199
   66MOL0     O 8833   9.866   2.901   1.263 -0.1585 -0.0889 -0.0936
   66MOL0     C 8834   9.750   2.851   1.325 -0.9204 -0.5612 -0.0788
   66MOL0     C 8835   9.712   2.711   1.270  0.7119  0.1998  0.2101
   66MOL0     C 8836   9.689   2.709   1.117  0.2310 -0.1616  0.1219
   66MOL0     C 8837   9.640   2.576   1.054 -0.9843 -0.3512  0.3768
   66MOL0     C 8838   9.707   2.456   1.108  0.2765 -0.1364 -0.3076
   66MOL0     C 8839   9.757   2.348   1.139 -0.2127  0.6435  0.7435
   66MOL0     C 8840  10.025   2.804   1.420 -0.5719 -0.1593  0.1141
   66MOL0     C 8841  10.156   2.772   1.467 -0.0152 -0.4255  0.3670
   66MOL0     C 8842  10.169   2.716   1.603 -0.2447 -0.1666 -0.4380
   66MOL0     H 8843  10.615   2.990   1.561  1.6200 -2.4265  2.0577
   66MOL0     H 8844  10.856   3.028   1.591  0.3458  1.7568 -0.5453
   66MOL0     H 8845  11.017   2.666   1.476  0.7167 -0.7887 -2.8126
   66MOL0     H 8846  11.154   2.733   1.388 -3.0146 -3.0574 -0.6494
   66MOL0     H 8847  11.227   2.614   1.591 -2.2160 -0.9171  0.0286
   66MOL0     H 8848  11.114   2.722   1.678 -0.4994  0.7107 -0.3370
   66MOL0     H 8849  11.267   2.906   1.665 -1.7929  0.8313 -0.9985
   66MOL0     H 8850  11.324   2.855   1.516  0.1929 -0.2720 -0.1951
   66MOL0     H 8851  11.390   2.683   1.756  1.6104 -0.4590  0.0618
   66MOL0     H 8852  11.447   2.667   1.588  2.4504  3.7232 -1.5980
   66MOL0     H 8853  11.479   2.908   1.770  0.7664  1.8633 -1.4724
   66MOL0     H 8854  11.605   2.780   1.756  1.3106  0.8631 -0.8724
   66MOL0     H 8855  11.566   2.832   1.504  0.5599 -2.0270  1.9354
   66MOL0     H 8856  11.513   2.990   1.551  1.1714  0.6759  2.0478
   66MOL0     H 8857  11.786   2.865   1.571 -3.6764 -1.1488  0.3048
   66MOL0     H 8858  11.735   2.986   1.692 -1.7568  1.7426  0.0997
   66MOL0     H 8859  11.763   3.046   1.387 -0.6115  1.8023 -1.3273
   66MOL0     H 8860  11.656   3.131   1.491  1.1771  1.7909  2.1935
   66MOL0     H 8861  11.707   3.320   1.634 -0.3126  1.1984  1.0004
   66MOL0     H 8862  11.833   3.395   1.865  0.1880 -0.8378 -0.2791
   66MOL0     H 8863  11.996   3.352   1.869 -0.4660 -1.0141 -0.5077
   66MOL0     H 8864  11.861   3.555   1.692  0.0283  0.0459  0.0275
   66MOL0     H 8865  11.923   3.612   1.844  0.7503  0.9596 -0.8524
   66MOL0     H 8866  12.075   3.686   1.674 -0.9558  0.9718 -1.1511
   66MOL0     H 8867  12.104   3.526   1.623  1.5777  0.9332  0.0844
   66MOL0     H 8868  12.199   3.468   1.852  0.8139 -0.0728  0.3259
   66MOL0     H 8869  12.156   3.634   1.908 -1.7864  2.8191 -1.9308
   66MOL0     H 8870  12.274   3.352   1.677  0.3105 -0.1029  0.0613
   66MOL0     H 8871  12.427   3.242   1.553 -0.4135 -0.5212 -0.5337
   66MOL0     H 8872  12.554   2.967   1.337  0.3590 -0.1369  0.6325
   66MOL0     H 8873  12.673   2.813   1.207 -0.1578  0.2367 -0.5739
   66MOL0     H 8874  13.033   2.813   1.249 -0.6270 -0.2866  0.8066
   66MOL0     H 8875  12.919   2.691   1.186  0.9448  0.5015  1.4561
   66MOL0     H 8876  13.032   2.681   0.975  0.7832 -1.2786  0.5874
   66MOL0     H 8877  13.165   2.795   1.040  1.6417 -1.4491  2.1257
   66MOL0     H 8878  13.207   2.614   1.216  0.1037  1.8808 -0.3725
   66MOL0     H 8879  13.094   2.517   1.126  1.8008 -0.9833  0.7320
   66MOL0     H 8880  13.356   2.647   1.024  1.2680 -1.2428 -0.5782
   66MOL0     H 8881  13.263   2.539   0.928 -1.3502  2.7494 -0.3076
   66MOL0     H 8882  13.348   2.352   1.110 -0.0093 -0.0489  3.2652
   66MOL0     H 8883  13.409   2.487   1.188 -0.0744 -1.7270 -0.4754
   66MOL0     H 8884  13.498   2.346   0.947  0.7832 -1.7885  1.8804
   66MOL0     H 8885  13.535   2.535   0.965  0.7583 -0.3922 -1.8147
   66MOL0     H 8886  13.608   2.329   1.165  1.8502  0.5956  0.5697
   66MOL0     H 8887  13.664   2.498   1.157  1.7203 -0.2103 -0.3327
   66MOL0     H 8888  13.834   2.306   1.064 -0.7693 -0.2957  1.5534
   66MOL0     H 8889  13.719   2.291   0.930  3.8851 -0.5613 -1.5981
   66MOL0     H 8890  12.985   3.104   1.134 -0.3021 -0.0239 -0.0561
   66MOL0     H 8891  12.876   3.264   1.277  0.0260  0.4842 -1.3045
   66MOL0     H 8892  12.687   3.573   1.532  1.2015  0.1562  2.0338
   66MOL0     H 8893  12.532   3.711   1.662 -0.2186 -0.2331  0.5318
   66MOL0     H 8894  10.932   2.742   1.281  1.2003 -0.5167  2.0328
   66MOL0     H 8895  10.710   2.727   1.219 -0.3432  1.2697 -0.6598
   66MOL0     H 8896  10.312   2.901   1.194 -1.5947  0.3184 -3.0165
   66MOL0     H 8897  10.090   2.977   1.138  2.8665  0.3459 -0.2183
   66MOL0     H 8898   9.669   2.919   1.298 -3.3124 -3.2341 -0.0530
   66MOL0     H 8899   9.760   2.850   1.434  1.9914 -1.0280 -0.2773
   66MOL0     H 8900   9.621   2.675   1.320 -0.4788 -0.1755 -2.1117
   66MOL0     H 8901   9.787   2.636   1.298  1.7287  0.3583 -1.9079
   66MOL0     H 8902   9.781   2.750   1.076  0.1135 -0.7519 -0.7594
   66MOL0     H 8903   9.608   2.779   1.093 -0.7754 -1.3050  0.0818
   66MOL0     H 8904   9.530   2.570   1.054 -1.3051  3.3692 -0.1706
   66MOL0     H 8905   9.670   2.580   0.949  2.7796 -2.3576  1.2086
   66MOL0     H 8906   9.799   2.254   1.169 -0.6249  0.2460  0.0994
   66MOL0     H 8907   9.943   2.766   1.480  0.8793  0.7187  2.8257
   66MOL0     H 8908  10.230   2.781   1.667 -0.9564  2.9659 -2.7155
   66MOL0     H 8909  10.070   2.720   1.648 -1.1322  3.0708 -2.3792
   66MOL0     H 8910  10.206   2.613   1.601  0.5967  0.1283 -0.6156
   67MOL0     O 8911   5.561   9.235   1.336 -0.3737 -0.8487 -0.1102
   67MOL0     C 8912   5.632   9.186   1.427  1.7617  0.1794 -0.5218
   67MOL0     O 8913   5.576   9.125   1.534 -0.2649  0.2153 -0.2334
   67MOL0     C 8914   5.443   9.153   1.578 -0.0965 -0.2512  1.2630
   67MOL0     C 8915   5.390   9.283   1.575 -0.0186 -0.6497  0.6177
   67MOL0     C 8916   5.252   9.308   1.615  0.7911 -0.3222  0.3395
   67MOL0     C 8917   5.174   9.199   1.664  0.5474  0.9977  0.5041
   67MOL0     O 8918   5.047   9.212   1.707  0.0505 -0.4539 -0.3625
   67MOL0     C 8919   4.967   9.301   1.629 -0.3321  0.2216  0.1702
   67MOL0     C 8920   4.827   9.301   1.684 -0.1657 -0.9588 -0.0098
   67MOL0     C 8921   4.737   9.193   1.613  0.0808  0.1494 -0.5404
   67MOL0     C 8922   4.588   9.195   1.666 -0.2699  0.0360 -0.8670
   67MOL0     C 8923   4.527   9.050   1.633  0.6731 -0.1497  0.2915
   67MOL0     C 8924   4.379   9.041   1.643  0.0911 -0.1858 -0.2472
   67MOL0     C 8925   4.343   9.061   1.798  0.4744  0.6711 -0.0848
   67MOL0     C 8926   4.189   9.066   1.833 -1.1227  0.0667 -0.7168
   67MOL0     N 8927   4.118   9.178   1.770  0.0902 -0.1141 -0.5416
   67MOL0     C 8928   4.073   9.173   1.638 -0.3097  0.5928 -0.4053
   67MOL0     C 8929   4.051   9.304   1.614  0.6198 -0.1890  0.6969
   67MOL0     C 8930   4.009   9.364   1.476  0.4856 -0.6776  0.1239
   67MOL0     C 8931   4.132   9.421   1.386 -0.3900 -0.3954  0.2628
   67MOL0     C 8932   4.238   9.517   1.459  0.9231  0.2376 -0.9985
   67MOL0     C 8933   4.326   9.581   1.352  0.2020  0.2377  0.4960
   67MOL0     O 8934   4.433   9.653   1.416 -0.1360 -0.0163  0.2582
   67MOL0     C 8935   4.557   9.610   1.405  0.6107 -0.1438  1.1986
   67MOL0     C 8936   4.658   9.697   1.435  0.3254 -0.2466  0.1278
   67MOL0     C 8937   4.793   9.671   1.414  0.3934  0.6118 -0.3593
   67MOL0     C 8938   4.832   9.540   1.378  0.9375  0.0902  0.2912
   67MOL0     C 8939   4.969   9.512   1.348 -0.4480 -0.1862  0.1495
   67MOL0     O 8940   5.056   9.608   1.373  0.5422  0.3500 -0.1109
   67MOL0     C 8941   5.187   9.611   1.339  0.4962 -0.3040 -1.2925
   67MOL0     C 8942   5.243   9.739   1.322  0.1552  0.3563 -0.4823
   67MOL0     C 8943   5.373   9.751   1.302  0.5859 -0.4210  1.2263
   67MOL0     C 8944   5.458   9.639   1.277 -0.7674 -0.3766  0.3398
   67MOL0     O 8945   5.590   9.675   1.252 -0.4966 -0.0680 -0.2757
   67MOL0     C 8946   5.684   9.567   1.218  0.3017 -0.1321  0.1730
   67MOL0     C 8947   5.810   9.626   1.158 -0.1526 -1.1034 -0.1832
   67MOL0     C 8948   5.911   9.683   1.266 -0.2140 -0.0141 -0.0955
   67MOL0     C 8949   6.018   9.583   1.321 -0.4058  0.4058  0.1153
   67MOL0     C 8950   6.088   9.628   1.452  0.0467 -0.3835 -0.2655
   67MOL0     C 8951   6.199   9.539   1.498 -0.1227  0.5804  0.8523
   67MOL0     C 8952   6.285   9.608   1.602  1.5124 -0.1845  0.7627
   67MOL0     C 8953   6.405   9.544   1.654 -0.0229  0.3168  1.1437
   67MOL0    Cl 8954   6.482   9.661   1.768  0.0162 -0.0629 -0.0444
   67MOL0     C 8955   5.407   9.512   1.289  0.7490 -0.5250  0.2468
   67MOL0     C 8956   5.271   9.497   1.319  0.4313 -1.4372  0.0352
   67MOL0     O 8957   4.991   9.415   1.279 -1.1435  0.1827 -0.5264
   67MOL0     C 8958   4.726   9.447   1.351  0.3049 -0.3589 -0.4968
   67MOL0     C 8959   4.588   9.483   1.353 -0.3588  1.1033 -0.0741
   67MOL0     N 8960   4.076   9.384   1.731 -1.5285 -0.8671  0.2436
   67MOL0     N 8961   4.109   9.303   1.826  0.7758 -0.3791  0.0871
   67MOL0     C 8962   5.233   9.073   1.665  0.5388 -0.0190  0.7481
   67MOL0     C 8963   5.364   9.048   1.618  0.4143  0.1810 -0.4970
   67MOL0     C 8964   5.776   9.183   1.411 -0.3238 -0.1640 -0.3648
   67MOL0     C 8965   5.845   9.164   1.528 -0.2068 -0.3697 -0.6506
   67MOL0     C 8966   5.992   9.153   1.526  0.8609 -0.0651 -0.8331
   67MOL0     C 8967   6.062   9.172   1.408 -0.3766  0.2372 -1.2447
   67MOL0     O 8968   6.200   9.161   1.421  0.2511 -0.6019  0.2595
   67MOL0     C 8969   6.275   9.171   1.298 -1.4124  0.3344  0.6746
   67MOL0     C 8970   6.424   9.171   1.337  0.3697 -0.0634 -0.8933
   67MOL0     C 8971   6.456   9.049   1.422 -0.2990  0.1132 -0.2555
   67MOL0     C 8972   6.610   9.037   1.445 -0.4975 -0.1043  0.0872
   67MOL0     C 8973   6.660   9.161   1.518 -0.4644 -0.0594 -0.3962
   67MOL0     C 8974   6.715   9.262   1.573  0.5380  0.4317 -0.2715
   67MOL0     C 8975   5.994   9.197   1.293 -0.1478  0.2428 -0.1546
   67MOL0     C 8976   5.851   9.199   1.291 -0.4077 -0.0641 -0.8906
   67MOL0     C 8977   5.786   9.220   1.157 -0.2156  0.2713  0.1863
   67MOL0     H 8978   5.454   9.370   1.563 -0.1240 -0.1236  3.3277
   67MOL0     H 8979   5.211   9.404   1.643  0.5667 -0.8564  1.9717
   67MOL0     H 8980   5.016   9.398   1.642  2.6695 -0.3584 -4.4966
   67MOL0     H 8981   4.966   9.268   1.525 -0.5004  0.4828  0.0876
   67MOL0     H 8982   4.798   9.405   1.668  4.3157  0.6004  0.5866
   67MOL0     H 8983   4.824   9.287   1.792  2.2063  0.5307  0.3293
   67MOL0     H 8984   4.779   9.097   1.642  1.1848  1.3820  2.3285
   67MOL0     H 8985   4.745   9.208   1.505 -0.4937 -2.2828 -0.9778
   67MOL0     H 8986   4.587   9.213   1.773  0.4524 -2.7537 -0.2969
   67MOL0     H 8987   4.530   9.273   1.616  1.4459  1.6434 -0.4547
   67MOL0     H 8988   4.542   9.030   1.527 -0.9196 -2.5560  0.4444
   67MOL0     H 8989   4.576   8.972   1.693  0.2236 -1.6886 -1.2544
   67MOL0     H 8990   4.333   9.120   1.583 -0.5792  0.6992  1.3648
   67MOL0     H 8991   4.344   8.942   1.609 -4.4259  0.9413  0.3835
   67MOL0     H 8992   4.378   9.164   1.815  0.2122  2.0040 -5.8202
   67MOL0     H 8993   4.397   8.986   1.856  0.9477  2.9062  2.6491
   67MOL0     H 8994   4.146   8.972   1.795 -0.2957 -0.2908 -0.7797
   67MOL0     H 8995   4.161   9.068   1.939 -1.4204 -2.7201 -0.6480
   67MOL0     H 8996   4.072   9.090   1.567  0.2902  1.4541 -1.4627
   67MOL0     H 8997   3.969   9.279   1.420 -0.4851  0.3819 -0.8340
   67MOL0     H 8998   3.929   9.437   1.487 -0.6673 -1.7447 -0.8782
   67MOL0     H 8999   4.188   9.337   1.343 -0.9634 -1.0592  0.8015
   67MOL0     H 9000   4.078   9.478   1.309 -0.7112  0.1381  0.8716
   67MOL0     H 9001   4.306   9.452   1.515 -1.2490 -3.2927 -2.0713
   67MOL0     H 9002   4.183   9.587   1.523  0.3929 -0.3812 -0.7610
   67MOL0     H 9003   4.259   9.648   1.296 -0.9522 -1.8287 -0.7306
   67MOL0     H 9004   4.356   9.513   1.271  1.9825 -0.0984  1.4001
   67MOL0     H 9005   4.627   9.793   1.474 -1.7343 -1.0391  0.5288
   67MOL0     H 9006   4.866   9.749   1.434 -1.5439  1.9443  2.0827
   67MOL0     H 9007   5.190   9.829   1.353 -2.6519  0.3803 -4.4492
   67MOL0     H 9008   5.418   9.849   1.288 -1.3546  0.2266 -1.1290
   67MOL0     H 9009   5.703   9.500   1.302  2.8538 -1.3267 -1.2410
   67MOL0     H 9010   5.644   9.516   1.129  2.4466  1.9648 -2.1559
   67MOL0     H 9011   5.863   9.551   1.098  1.0008 -2.1522  2.0176
   67MOL0     H 9012   5.770   9.705   1.094 -0.8611  0.0210  1.5585
   67MOL0     H 9013   5.965   9.770   1.228  0.1428 -0.2609 -0.1673
   67MOL0     H 9014   5.853   9.720   1.352  1.4850 -2.3881  2.2603
   67MOL0     H 9015   6.094   9.568   1.244 -0.8894  0.4725 -0.3762
   67MOL0     H 9016   5.976   9.482   1.334  1.5418 -0.6365 -1.1281
   67MOL0     H 9017   6.014   9.645   1.531  1.4982  1.0657  0.8461
   67MOL0     H 9018   6.144   9.716   1.421  0.7686 -0.0127  1.9208
   67MOL0     H 9019   6.161   9.443   1.535 -1.9015  1.1904  0.6917
   67MOL0     H 9020   6.264   9.517   1.413 -1.9268 -0.5911 -0.3082
   67MOL0     H 9021   6.222   9.634   1.687  1.4597  0.2370  0.5981
   67MOL0     H 9022   6.313   9.699   1.549 -2.0549 -0.6769 -2.4315
   67MOL0     H 9023   6.370   9.451   1.699 -1.6547 -1.3772 -3.0426
   67MOL0     H 9024   6.476   9.523   1.574  0.5411  0.3788  1.6248
   67MOL0     H 9025   5.479   9.431   1.283  0.6187 -0.7096  1.0223
   67MOL0     H 9026   5.224   9.399   1.326 -0.6230 -0.8492  2.2410
   67MOL0     H 9027   4.751   9.349   1.313  0.7017 -0.6048  0.3720
   67MOL0     H 9028   4.523   9.401   1.324 -0.2291  0.4958  1.2669
   67MOL0     H 9029   5.178   8.986   1.701  0.5621 -1.8089 -3.1045
   67MOL0     H 9030   5.405   8.947   1.619  0.2564  0.0572  2.3894
   67MOL0     H 9031   5.799   9.172   1.626  2.3229 -1.1063  0.6960
   67MOL0     H 9032   6.052   9.138   1.616  0.8529  2.4192 -0.3470
   67MOL0     H 9033   6.276   9.271   1.254  2.0952 -0.1849 -0.7776
   67MOL0     H 9034   6.243   9.090   1.231 -1.6375 -0.7658  2.0818
   67MOL0     H 9035   6.436   9.264   1.394 -3.9442  0.9719 -1.3813
   67MOL0     H 9036   6.493   9.166   1.252  1.2315 -0.8281 -0.1769
   67MOL0     H 9037   6.434   8.957   1.366  2.4099 -0.0421 -1.1823
   67MOL0     H 9038   6.405   9.055   1.519  1.2065 -1.2684  0.6691
   67MOL0     H 9039   6.619   8.951   1.512 -3.6516 -0.7569 -0.1961
   67MOL0     H 9040   6.659   9.024   1.349 -0.2530  1.9408 -0.1216
   67MOL0     H 9041   6.758   9.344   1.628 -0.1015  0.2272  0.5500
   67MOL0     H 9042   6.044   9.206   1.198 -1.6705 -0.5260 -1.0711
   67MOL0     H 9043   5.721   9.136   1.128  0.7085  0.0536 -1.4029
   67MOL0     H 9044   5.721   9.307   1.157 -0.7185  0.0472  3.7820
   67MOL0     H 9045   5.862   9.233   1.079 -1.5033 -0.9946 -1.3562
   68MOL0     O 9046   0.419   1.626   1.998 -0.0129  0.2254  0.5529
   68MOL0     C 9047   0.452   1.630   1.883  0.4853 -0.1383 -0.1851
   68MOL0     O 9048   0.534   1.725   1.827  0.2992 -0.3148 -0.0494
   68MOL0     C 9049   0.576   1.819   1.905 -0.8816 -0.5736  0.2069
   68MOL0     C 9050   0.713   1.825   1.920  0.0063  0.0398  0.3309
   68MOL0     C 9051   0.767   1.927   1.997 -0.3923 -0.1995 -0.6460
   68MOL0     C 9052   0.688   2.012   2.073 -0.8052 -0.6715  0.6405
   68MOL0     O 9053   0.752   2.108   2.146 -0.0912 -0.9785  0.5497
   68MOL0     C 9054   0.668   2.182   2.238  0.4185 -0.1240  0.3529
   68MOL0     C 9055   0.757   2.300   2.295 -0.1884  0.4149  0.0415
   68MOL0     C 9056   0.851   2.246   2.406 -0.0741 -0.1906 -1.0532
   68MOL0     C 9057   0.993   2.295   2.397 -0.5171  0.2292  0.3527
   68MOL0     C 9058   0.994   2.446   2.431  0.0187 -0.1859 -0.6377
   68MOL0     C 9059   1.129   2.516   2.440  0.4686  0.0025 -0.1177
   68MOL0     C 9060   1.208   2.529   2.302 -0.6845 -0.3982 -0.2822
   68MOL0     C 9061   1.353   2.550   2.316  0.0239 -0.3959 -0.6954
   68MOL0     N 9062   1.418   2.424   2.344  0.0946 -0.3950  0.3306
   68MOL0     C 9063   1.424   2.360   2.460 -1.4207  0.1441 -0.0672
   68MOL0     C 9064   1.509   2.259   2.435  0.1857  0.0619  0.2286
   68MOL0     C 9065   1.538   2.158   2.537  0.2951 -0.5092  0.2180
   68MOL0     C 9066   1.670   2.170   2.597 -0.5518 -0.2612  0.1024
   68MOL0     C 9067   1.701   2.314   2.632  0.3638 -0.5522 -0.1384
   68MOL0     C 9068   1.772   2.333   2.769  0.2155  0.5608 -0.4176
   68MOL0     O 9069   1.888   2.245   2.801 -0.0286 -1.4440 -0.7023
   68MOL0     C 9070   2.003   2.272   2.728  0.1812  0.3089  0.8986
   68MOL0     C 9071   2.085   2.385   2.760 -0.3574  0.2283  0.6270
   68MOL0     C 9072   2.198   2.408   2.686 -0.4653  0.4051  0.5816
   68MOL0     C 9073   2.243   2.311   2.591 -0.1780 -0.0088  0.6361
   68MOL0     C 9074   2.364   2.350   2.513 -0.0221  0.1058  0.0672
   68MOL0     O 9075   2.417   2.475   2.529  0.1741 -0.5397  0.0368
   68MOL0     C 9076   2.527   2.509   2.460 -0.7232  0.0983 -1.1292
   68MOL0     C 9077   2.652   2.483   2.518 -0.5448 -0.3910  0.6489
   68MOL0     C 9078   2.770   2.534   2.447 -0.1938 -0.0864 -0.5435
   68MOL0     C 9079   2.766   2.589   2.322  0.7476 -0.3216 -0.3332
   68MOL0     O 9080   2.874   2.624   2.247  0.2872  0.0283  0.5892
   68MOL0     C 9081   2.997   2.540   2.259 -0.1999  0.9855 -0.1752
   68MOL0     C 9082   3.093   2.566   2.144 -0.4964  0.6395  0.9127
   68MOL0     C 9083   3.148   2.715   2.136  0.5454 -0.1549  0.8323
   68MOL0     C 9084   3.297   2.724   2.115 -0.1089 -0.3251  0.5580
   68MOL0     C 9085   3.340   2.864   2.098 -0.0752 -0.0999  0.3667
   68MOL0     C 9086   3.485   2.891   2.087  0.1901  0.5815 -0.1802
   68MOL0     C 9087   3.512   3.037   2.094 -0.1130 -0.6604  0.0034
   68MOL0     C 9088   3.665   3.066   2.102  0.3382  0.5724  0.4186
   68MOL0    Cl 9089   3.743   3.022   1.943  0.6448  0.6300  0.2554
   68MOL0     C 9090   2.634   2.604   2.269  0.1791 -0.0033 -0.2193
   68MOL0     C 9091   2.517   2.559   2.334  0.4946  0.1696 -0.3531
   68MOL0     O 9092   2.410   2.263   2.444 -0.1577 -0.0119  0.1089
   68MOL0     C 9093   2.172   2.188   2.576 -1.4143 -0.7069  0.4941
   68MOL0     C 9094   2.045   2.172   2.633  0.3694 -0.5968  0.4259
   68MOL0     N 9095   1.547   2.268   2.301 -0.4460  0.5174 -0.6434
   68MOL0     N 9096   1.491   2.368   2.249  0.3568  0.5015  1.2219
   68MOL0     C 9097   0.541   2.002   2.050  0.4301 -0.3708  0.0097
   68MOL0     C 9098   0.492   1.917   1.954  0.4499 -0.1033  0.2017
   68MOL0     C 9099   0.389   1.526   1.798 -0.8377  0.3222 -0.5104
   68MOL0     C 9100   0.399   1.552   1.657 -0.4122  0.2583 -0.3256
   68MOL0     C 9101   0.341   1.465   1.562  0.0127  0.3154  0.6686
   68MOL0     C 9102   0.266   1.357   1.607  0.0742 -0.0490 -0.1961
   68MOL0     O 9103   0.210   1.269   1.510 -0.6413 -0.6889 -0.2107
   68MOL0     C 9104   0.241   1.134   1.530 -0.1393 -0.4610  1.1031
   68MOL0     C 9105   0.130   1.065   1.594 -0.2287  0.2553 -0.5340
   68MOL0     C 9106   0.011   1.019   1.498 -0.1878  0.5963 -0.5791
   68MOL0     C 9107  -0.089   1.131   1.473 -0.0599 -0.0265 -0.8567
   68MOL0     C 9108  -0.224   1.082   1.444 -0.0225  1.4097  0.5329
   68MOL0     C 9109  -0.330   1.036   1.409 -0.2458 -0.0696  0.7089
   68MOL0     C 9110   0.259   1.334   1.747  0.6227 -0.4028  0.9121
   68MOL0     C 9111   0.319   1.408   1.847  0.1981 -0.5056  0.2597
   68MOL0     C 9112   0.298   1.359   1.988 -0.3973  0.8205  0.2703
   68MOL0     H 9113   0.779   1.750   1.878  0.1649 -0.7205  1.8630
   68MOL0     H 9114   0.875   1.937   2.000 -0.4453  0.2088  2.6239
   68MOL0     H 9115   0.595   2.238   2.180 -0.6950  0.0098  1.8316
   68MOL0     H 9116   0.622   2.128   2.321  0.6319 -0.2406  0.3973
   68MOL0     H 9117   0.693   2.379   2.336  0.0040 -0.1659  1.5172
   68MOL0     H 9118   0.804   2.359   2.215 -1.8976  3.0638  0.8644
   68MOL0     H 9119   0.858   2.137   2.405  1.6622 -0.1225 -0.4223
   68MOL0     H 9120   0.806   2.282   2.499  0.9420  1.7632 -1.2471
   68MOL0     H 9121   1.065   2.239   2.457  1.7947  2.1308 -0.5253
   68MOL0     H 9122   1.028   2.282   2.295  0.9799 -0.2919  0.9104
   68MOL0     H 9123   0.932   2.502   2.361  0.8231 -0.3693 -1.5182
   68MOL0     H 9124   0.941   2.453   2.526 -1.4920 -1.0324 -1.3814
   68MOL0     H 9125   1.122   2.612   2.493  0.8638  0.8916 -1.6004
   68MOL0     H 9126   1.184   2.454   2.511  1.1394  2.7962  1.9677
   68MOL0     H 9127   1.178   2.624   2.256  0.7844  0.6989  0.9548
   68MOL0     H 9128   1.188   2.441   2.239 -1.7915 -0.5665  0.2737
   68MOL0     H 9129   1.399   2.595   2.227  1.2730  2.6044  1.3318
   68MOL0     H 9130   1.382   2.628   2.386  1.3083 -0.5747 -0.9941
   68MOL0     H 9131   1.383   2.387   2.557 -2.0104  2.6274 -0.9344
   68MOL0     H 9132   1.461   2.169   2.613 -1.5360  2.7160 -1.8750
   68MOL0     H 9133   1.522   2.060   2.492 -2.7047  0.6881 -1.6319
   68MOL0     H 9134   1.674   2.105   2.685  0.5972 -0.5498 -0.1389
   68MOL0     H 9135   1.740   2.125   2.526  1.8559  0.5917  1.8157
   68MOL0     H 9136   1.622   2.389   2.625  1.6912  0.7484 -2.2373
   68MOL0     H 9137   1.767   2.359   2.557 -2.3468  0.2565 -2.1843
   68MOL0     H 9138   1.694   2.305   2.840  3.0273  0.8110  3.0718
   68MOL0     H 9139   1.802   2.438   2.775 -2.8927  1.4773  0.9692
   68MOL0     H 9140   2.061   2.459   2.835  0.8969  1.3619 -0.0375
   68MOL0     H 9141   2.248   2.503   2.701  3.3265 -1.1771 -0.9123
   68MOL0     H 9142   2.669   2.440   2.616  2.4681 -1.3206 -0.1635
   68MOL0     H 9143   2.868   2.517   2.493 -0.7937 -2.9520 -0.0941
   68MOL0     H 9144   3.060   2.562   2.345  0.8040  1.4851 -1.0197
   68MOL0     H 9145   2.974   2.433   2.257 -3.3162  1.3829  3.2344
   68MOL0     H 9146   3.177   2.496   2.151  0.6185  1.8156 -0.1132
   68MOL0     H 9147   3.041   2.546   2.050  1.5516 -0.0924 -0.1428
   68MOL0     H 9148   3.095   2.763   2.054  1.3833 -1.6988 -0.6875
   68MOL0     H 9149   3.126   2.779   2.222  2.7732  0.6278  0.8891
   68MOL0     H 9150   3.323   2.675   2.021 -2.2958  2.6675 -1.8195
   68MOL0     H 9151   3.332   2.678   2.207 -0.3673 -3.3016 -0.7393
   68MOL0     H 9152   3.304   2.930   2.178  0.8409 -1.2832  1.7952
   68MOL0     H 9153   3.284   2.883   2.006  1.7260 -1.7731 -1.1558
   68MOL0     H 9154   3.541   2.855   2.174  1.5377 -0.2348 -1.3354
   68MOL0     H 9155   3.531   2.834   2.006  0.7346  1.8477 -0.8018
   68MOL0     H 9156   3.464   3.078   2.183 -1.9238 -0.4300 -1.0341
   68MOL0     H 9157   3.465   3.096   2.016 -1.6279  1.6380  2.4814
   68MOL0     H 9158   3.677   3.175   2.104 -2.7081  1.1328 -2.1969
   68MOL0     H 9159   3.709   3.005   2.182 -1.9487  1.2198  2.2677
   68MOL0     H 9160   2.627   2.673   2.186 -1.3833 -0.7060 -0.6939
   68MOL0     H 9161   2.419   2.580   2.292  1.3754  1.6764 -1.7508
   68MOL0     H 9162   2.215   2.109   2.515  3.9104  1.4500  0.8804
   68MOL0     H 9163   1.977   2.088   2.630  1.7531 -1.7588 -1.9273
   68MOL0     H 9164   0.465   2.058   2.104  0.5570 -0.2772  0.0906
   68MOL0     H 9165   0.386   1.895   1.947  0.4358  0.2603 -1.0569
   68MOL0     H 9166   0.450   1.639   1.616  1.6041 -0.5763  0.2567
   68MOL0     H 9167   0.356   1.500   1.460  0.4463 -1.3330  0.1258
   68MOL0     H 9168   0.338   1.129   1.580  0.6643 -0.2264 -0.3749
   68MOL0     H 9169   0.258   1.091   1.430 -1.1218  0.7957  0.3662
   68MOL0     H 9170   0.081   1.113   1.679  0.8889 -1.3722  1.1133
   68MOL0     H 9171   0.165   0.966   1.625 -1.6697 -0.2194 -0.3612
   68MOL0     H 9172  -0.032   0.931   1.545  0.5936  0.4392 -0.1352
   68MOL0     H 9173   0.040   0.987   1.397 -0.3826 -0.5039 -0.3000
   68MOL0     H 9174  -0.105   1.196   1.560 -0.6868 -1.5139  0.1861
   68MOL0     H 9175  -0.054   1.191   1.388 -2.9661 -2.2655 -3.8956
   68MOL0     H 9176  -0.425   1.006   1.369 -1.0325  3.1916 -0.1457
   68MOL0     H 9177   0.197   1.252   1.781  0.5206 -0.0793  1.5072
   68MOL0     H 9178   0.251   1.261   1.990  2.3520 -0.5909  1.6339
   68MOL0     H 9179   0.392   1.357   2.045 -0.9338 -0.2567  1.1539
   68MOL0     H 9180   0.235   1.432   2.039 -2.1249  0.3984 -1.1426
   69MOL0     O 9181   9.669   8.647   4.338  0.1966  0.0722  0.3947
   69MOL0     C 9182   9.671   8.617   4.222 -0.5911  0.5041  1.0143
   69MOL0     O 9183   9.758   8.522   4.165  0.1603 -0.0188 -0.3456
   69MOL0     C 9184   9.839   8.444   4.239  0.1105  0.1397  0.4071
   69MOL0     C 9185   9.810   8.391   4.371 -0.2142  0.2353  0.3295
   69MOL0     C 9186   9.899   8.315   4.439 -1.1970 -0.0601 -0.5014
   69MOL0     C 9187  10.026   8.289   4.397  0.1800 -0.4564 -1.1292
   69MOL0     O 9188  10.118   8.212   4.470  0.3089  0.3327  0.2035
   69MOL0     C 9189  10.221   8.283   4.534 -0.5517 -0.5836  0.0697
   69MOL0     C 9190  10.192   8.292   4.688  0.4921 -0.5052  0.2256
   69MOL0     C 9191  10.319   8.352   4.759  0.3966  0.1286  0.2008
   69MOL0     C 9192  10.300   8.357   4.918  0.6065 -0.1234  0.9150
   69MOL0     C 9193  10.405   8.444   4.974 -0.9332 -0.0164 -0.1291
   69MOL0     C 9194  10.376   8.459   5.122  0.2229  0.0552 -0.1389
   69MOL0     C 9195  10.447   8.579   5.161 -0.5620 -0.3478 -0.6862
   69MOL0     C 9196  10.461   8.609   5.311  0.2138 -0.2672  0.2599
   69MOL0     N 9197  10.582   8.692   5.336  0.0791  0.1423 -0.1639
   69MOL0     C 9198  10.581   8.828   5.349  0.0718  0.1910 -0.0606
   69MOL0     C 9199  10.712   8.855   5.346  0.1573  0.1130 -0.3177
   69MOL0     C 9200  10.772   8.993   5.352 -0.9587  0.1695 -0.7821
   69MOL0     C 9201  10.678   9.080   5.425  0.4705 -0.1833  0.9449
   69MOL0     C 9202  10.754   9.211   5.465  0.4187 -0.0227  1.4633
   69MOL0     C 9203  10.677   9.310   5.542 -0.2989 -0.7851  0.0150
   69MOL0     O 9204  10.747   9.435   5.551  0.0135  0.4796 -0.3094
   69MOL0     C 9205  10.862   9.463   5.625  0.1415 -0.2680  0.1518
   69MOL0     C 9206  10.902   9.390   5.740  0.4176  0.0808  0.2815
   69MOL0     C 9207  11.009   9.418   5.820 -0.7184 -0.8603 -0.1122
   69MOL0     C 9208  11.081   9.535   5.794  0.5704 -0.8608  0.1514
   69MOL0     C 9209  11.201   9.562   5.867 -0.1918 -0.0043 -0.7122
   69MOL0     O 9210  11.217   9.475   5.970  0.2127  0.4768 -0.3871
   69MOL0     C 9211  11.336   9.478   6.041  0.8468  0.8633  0.2182
   69MOL0     C 9212  11.327   9.489   6.178  0.4301 -0.1800  0.0616
   69MOL0     C 9213  11.438   9.501   6.258 -0.6084 -0.3041 -0.9129
   69MOL0     C 9214  11.567   9.461   6.211  0.1858  0.0113  1.4157
   69MOL0     O 9215  11.684   9.475   6.292 -1.0492  0.6081 -0.7348
   69MOL0     C 9216  11.808   9.428   6.248 -0.2666  1.0309 -0.1411
   69MOL0     C 9217  11.917   9.407   6.348  0.0881  0.3504  0.2144
   69MOL0     C 9218  12.054   9.390   6.280 -0.2802 -0.1903  0.6784
   69MOL0     C 9219  12.174   9.363   6.359 -0.0229  0.0060 -0.1274
   69MOL0     C 9220  12.214   9.492   6.435 -0.0891  0.7112 -0.2422
   69MOL0     C 9221  12.359   9.484   6.467  0.4435 -0.5288  0.1674
   69MOL0     C 9222  12.413   9.604   6.544 -0.1167 -0.1044  0.3529
   69MOL0     C 9223  12.557   9.578   6.596  0.7278  0.5908  0.2198
   69MOL0    Cl 9224  12.691   9.586   6.484 -0.0470 -0.1381 -0.1502
   69MOL0     C 9225  11.578   9.436   6.072  0.0102  0.2187  0.7897
   69MOL0     C 9226  11.464   9.444   5.987  0.3011  0.2067 -0.0022
   69MOL0     O 9227  11.274   9.646   5.829  0.4448 -0.9867 -0.8253
   69MOL0     C 9228  11.045   9.624   5.684  1.2845 -0.0473  1.0698
   69MOL0     C 9229  10.932   9.579   5.604 -0.0096 -0.8486 -0.2074
   69MOL0     N 9230  10.792   8.745   5.344  0.5550  0.6171 -0.5594
   69MOL0     N 9231  10.711   8.642   5.336  0.4437  0.5123  0.0624
   69MOL0     C 9232  10.057   8.341   4.270  0.1975 -0.0235  0.2365
   69MOL0     C 9233   9.968   8.414   4.183  0.3766 -0.0957 -0.3158
   69MOL0     C 9234   9.584   8.682   4.120 -0.8218  0.3681 -1.3982
   69MOL0     C 9235   9.642   8.719   4.000  0.3520  0.5973  0.1773
   69MOL0     C 9236   9.571   8.785   3.904 -0.4515 -0.4247 -0.0994
   69MOL0     C 9237   9.438   8.819   3.929 -0.0979  1.3268  0.5128
   69MOL0     O 9238   9.356   8.885   3.842 -0.0133  0.1296 -0.7593
   69MOL0     C 9239   9.397   8.924   3.708 -0.7520  0.6325  0.9312
   69MOL0     C 9240   9.279   8.954   3.611 -0.5625  0.7081 -0.1743
   69MOL0     C 9241   9.189   9.058   3.666 -0.2316 -0.2854 -0.8415
   69MOL0     C 9242   9.245   9.192   3.686 -0.2644 -0.8690  1.1572
   69MOL0     C 9243   9.284   9.265   3.561  0.1881  0.0921 -0.2627
   69MOL0     C 9244   9.304   9.315   3.455  0.7870 -0.0560  0.2804
   69MOL0     C 9245   9.373   8.774   4.042 -0.8697  0.4633  0.3749
   69MOL0     C 9246   9.444   8.704   4.140 -0.6544  0.0274  0.0725
   69MOL0     C 9247   9.366   8.662   4.255  0.2065  0.4299  0.1048
   69MOL0     H 9248   9.712   8.404   4.414 -0.7878 -2.8009  0.1611
   69MOL0     H 9249   9.854   8.268   4.525  1.2598 -1.0364  0.3430
   69MOL0     H 9250  10.315   8.230   4.516 -1.4687 -1.8853 -1.1362
   69MOL0     H 9251  10.229   8.382   4.490 -0.6953 -0.8129 -0.4774
   69MOL0     H 9252  10.174   8.190   4.724  2.3510 -0.9644 -0.0493
   69MOL0     H 9253  10.099   8.348   4.700  0.6379 -0.6789  2.6535
   69MOL0     H 9254  10.330   8.454   4.720  0.0907 -0.1437 -0.5916
   69MOL0     H 9255  10.405   8.288   4.741  0.3228 -0.2834  1.2036
   69MOL0     H 9256  10.203   8.408   4.929  0.8111  0.3410  0.5892
   69MOL0     H 9257  10.298   8.252   4.949  2.6035 -0.1872  0.9538
   69MOL0     H 9258  10.505   8.399   4.971 -1.4446 -1.2676  0.7361
   69MOL0     H 9259  10.403   8.533   4.910  1.8499  0.1645 -0.0980
   69MOL0     H 9260  10.269   8.474   5.138  0.4162  1.8893 -0.3692
   69MOL0     H 9261  10.408   8.366   5.170  2.1221 -0.1472 -1.6392
   69MOL0     H 9262  10.396   8.665   5.116  0.8984 -0.0474 -1.8401
   69MOL0     H 9263  10.552   8.566   5.133 -1.4889 -3.8222 -3.2252
   69MOL0     H 9264  10.370   8.659   5.347  0.9204  0.6140  0.8777
   69MOL0     H 9265  10.476   8.514   5.363  1.3140 -0.3565 -0.2031
   69MOL0     H 9266  10.495   8.894   5.343  1.7777  2.4661 -0.4172
   69MOL0     H 9267  10.872   8.994   5.394 -1.5956  1.2486  0.8193
   69MOL0     H 9268  10.778   9.030   5.249  0.8437  0.9540 -0.4193
   69MOL0     H 9269  10.602   9.107   5.351  0.1507 -2.1525  0.4850
   69MOL0     H 9270  10.625   9.025   5.503 -2.4966 -1.9365 -2.0119
   69MOL0     H 9271  10.800   9.261   5.380  3.5518 -0.9530  2.4689
   69MOL0     H 9272  10.832   9.178   5.535  2.0993  0.9333  0.1307
   69MOL0     H 9273  10.653   9.280   5.644  0.5815  0.5406  0.6415
   69MOL0     H 9274  10.586   9.335   5.488 -0.3547 -0.6794  0.1587
   69MOL0     H 9275  10.834   9.307   5.760 -0.5180  0.8701  0.4404
   69MOL0     H 9276  11.042   9.361   5.907  1.9835  3.1390  1.7811
   69MOL0     H 9277  11.239   9.530   6.228 -1.0967 -1.2556 -1.6599
   69MOL0     H 9278  11.425   9.546   6.356 -0.8868 -1.9654 -0.1425
   69MOL0     H 9279  11.791   9.328   6.209 -0.0494  0.7906  0.3713
   69MOL0     H 9280  11.852   9.499   6.177  1.2197  1.8440  1.5127
   69MOL0     H 9281  11.916   9.486   6.423 -0.2311 -0.0441  0.6271
   69MOL0     H 9282  11.900   9.314   6.404  5.2032 -0.5165  0.8913
   69MOL0     H 9283  12.050   9.316   6.200 -0.7703  2.3712 -1.8588
   69MOL0     H 9284  12.071   9.490   6.238 -1.6065 -0.7251 -1.2592
   69MOL0     H 9285  12.260   9.338   6.295 -0.5140 -1.1337 -0.3746
   69MOL0     H 9286  12.166   9.275   6.425  1.5317  0.9039  1.3472
   69MOL0     H 9287  12.166   9.500   6.533  3.5150 -0.2416  1.7707
   69MOL0     H 9288  12.200   9.588   6.383  0.1324  0.3788 -0.9183
   69MOL0     H 9289  12.367   9.388   6.519 -0.2999 -1.6706 -1.7173
   69MOL0     H 9290  12.410   9.487   6.370 -1.8351  0.1698 -1.0774
   69MOL0     H 9291  12.347   9.610   6.631 -1.0188  2.8527 -0.4155
   69MOL0     H 9292  12.405   9.691   6.478  0.0757  0.4382  1.0386
   69MOL0     H 9293  12.560   9.657   6.672 -1.0548 -0.1188  1.1111
   69MOL0     H 9294  12.561   9.488   6.659  1.5728 -0.2410 -0.9775
   69MOL0     H 9295  11.679   9.410   6.041 -0.3533 -1.5602  0.9521
   69MOL0     H 9296  11.485   9.424   5.882 -0.7236 -1.4051  0.0627
   69MOL0     H 9297  11.100   9.712   5.652 -0.3859  0.1524 -1.5379
   69MOL0     H 9298  10.907   9.641   5.519  0.9869 -2.3097 -1.6379
   69MOL0     H 9299  10.160   8.334   4.235 -0.0462 -0.1795 -0.4776
   69MOL0     H 9300  10.002   8.455   4.089 -0.1891  0.2184 -0.3866
   69MOL0     H 9301   9.747   8.694   3.985  0.2836  1.5685 -2.2853
   69MOL0     H 9302   9.621   8.824   3.816  0.6148  0.5761  0.9155
   69MOL0     H 9303   9.457   8.839   3.675  0.1730  1.2224  1.0457
   69MOL0     H 9304   9.460   9.013   3.713 -0.7689  0.6371  1.0629
   69MOL0     H 9305   9.232   8.856   3.600  3.2700 -1.0805 -2.7502
   69MOL0     H 9306   9.317   8.976   3.511  0.3763 -1.8270 -0.4459
   69MOL0     H 9307   9.156   9.030   3.767  0.1792 -2.2216 -1.1938
   69MOL0     H 9308   9.101   9.068   3.601 -1.7644 -2.5143  0.7250
   69MOL0     H 9309   9.170   9.254   3.735  0.5815 -1.1683  2.9002
   69MOL0     H 9310   9.331   9.190   3.752 -0.5981  0.7872  1.6713
   69MOL0     H 9311   9.329   9.374   3.369  0.7023  3.1169  2.2576
   69MOL0     H 9312   9.270   8.802   4.063 -1.7404 -1.7083 -0.6789
   69MOL0     H 9313   9.257   8.673   4.250 -0.5966 -4.6426  0.5681
   69MOL0     H 9314   9.370   8.553   4.257  3.4674  0.4721  0.8740
   69MOL0     H 9315   9.410   8.695   4.349  0.8416 -1.0282  0.3367
   70MOL0     O 9316   0.024   0.340   4.581 -0.5955  0.8405 -0.4298
   70MOL0     C 9317  -0.077   0.395   4.618  0.3190 -0.2652 -0.0090
   70MOL0     O 9318  -0.097   0.530   4.657 -0.1956  0.4348  0.7408
   70MOL0     C 9319   0.008   0.611   4.613 -1.4858 -0.5490 -0.9104
   70MOL0     C 9320  -0.032   0.733   4.553  0.7851  1.2782  0.2102
   70MOL0     C 9321   0.068   0.825   4.518  0.7855  0.7379  0.4906
   70MOL0     C 9322   0.206   0.791   4.526  0.2779  0.2186 -0.1560
   70MOL0     O 9323   0.305   0.873   4.476 -0.3538  0.5831 -0.0454
   70MOL0     C 9324   0.271   0.967   4.373 -0.2391 -0.0376 -0.3274
   70MOL0     C 9325   0.260   1.106   4.431  0.0547 -0.3407 -0.0660
   70MOL0     C 9326   0.394   1.165   4.486 -0.1054  0.3741 -0.1881
   70MOL0     C 9327   0.366   1.308   4.538 -0.0711 -0.2358 -0.7380
   70MOL0     C 9328   0.292   1.320   4.671  0.5840  0.1164 -0.5171
   70MOL0     C 9329   0.353   1.242   4.786  0.9066 -0.4297  0.1956
   70MOL0     C 9330   0.499   1.276   4.827 -0.2457  0.0611 -0.3448
   70MOL0     C 9331   0.497   1.393   4.932 -0.0548 -0.1160  0.5324
   70MOL0     N 9332   0.627   1.460   4.934 -0.4530  0.2490 -0.1124
   70MOL0     C 9333   0.709   1.503   4.831 -0.1017 -0.3751 -0.6858
   70MOL0     C 9334   0.820   1.555   4.887  0.8725 -0.0971  0.7820
   70MOL0     C 9335   0.938   1.594   4.814 -0.1239  0.1241  0.4648
   70MOL0     C 9336   1.044   1.671   4.889 -0.2459  0.8022 -0.3380
   70MOL0     C 9337   1.165   1.699   4.800  0.0014  0.2336  0.3648
   70MOL0     C 9338   1.259   1.787   4.880 -0.6315  0.1172 -0.1878
   70MOL0     O 9339   1.381   1.819   4.812 -0.4674  0.3345 -0.3820
   70MOL0     C 9340   1.499   1.750   4.830  0.1414 -0.2480  0.5942
   70MOL0     C 9341   1.612   1.789   4.763 -0.4204  0.7423  0.8518
   70MOL0     C 9342   1.736   1.739   4.790 -0.6836  0.2614  0.1420
   70MOL0     C 9343   1.746   1.640   4.892  0.4772  0.3479 -0.0298
   70MOL0     C 9344   1.880   1.587   4.933  0.2737 -0.2199  0.0380
   70MOL0     O 9345   1.884   1.461   4.996 -0.0753  0.2874  0.1865
   70MOL0     C 9346   2.005   1.401   5.015  0.3748  0.2010 -0.6380
   70MOL0     C 9347   2.003   1.322   5.126 -0.6925 -0.3893 -0.5442
   70MOL0     C 9348   2.115   1.248   5.168 -0.0525 -0.1563 -0.3656
   70MOL0     C 9349   2.234   1.253   5.085  0.4716 -0.1465 -0.1427
   70MOL0     O 9350   2.358   1.203   5.123  0.4628  0.5336  0.3725
   70MOL0     C 9351   2.353   1.117   5.237 -1.1398 -0.6412  0.4876
   70MOL0     C 9352   2.498   1.065   5.257  0.7576  0.6414  0.8229
   70MOL0     C 9353   2.488   0.997   5.398  0.2851  0.9038  0.5239
   70MOL0     C 9354   2.594   0.900   5.439 -0.7922 -0.6379  0.5235
   70MOL0     C 9355   2.591   0.870   5.595  0.2108 -0.1966  0.0914
   70MOL0     C 9356   2.697   0.944   5.665 -0.7006 -0.2640  0.1159
   70MOL0     C 9357   2.685   0.913   5.814  0.7280  0.4062  1.0307
   70MOL0     C 9358   2.803   0.994   5.879  0.1856  0.1587 -0.1920
   70MOL0    Cl 9359   2.799   0.973   6.056 -0.4109 -0.0922  0.2005
   70MOL0     C 9360   2.237   1.342   4.973 -0.1310 -0.8156 -0.5310
   70MOL0     C 9361   2.113   1.409   4.927  0.1889 -0.0921 -0.6189
   70MOL0     O 9362   1.978   1.659   4.915 -0.0033  0.2588 -0.1346
   70MOL0     C 9363   1.629   1.593   4.947 -0.6631  0.2386 -1.1204
   70MOL0     C 9364   1.505   1.646   4.915  0.0101 -0.8249  0.3359
   70MOL0     N 9365   0.811   1.545   5.021 -0.0515 -0.3427 -0.5814
   70MOL0     N 9366   0.694   1.487   5.045 -0.2013 -0.2205 -0.6948
   70MOL0     C 9367   0.239   0.671   4.596 -0.0624 -0.4562  0.4048
   70MOL0     C 9368   0.141   0.589   4.645 -0.2962  0.3178 -0.1544
   70MOL0     C 9369  -0.194   0.306   4.667 -0.5469  0.2620  0.7096
   70MOL0     C 9370  -0.314   0.370   4.689  0.4171  0.0527 -0.0577
   70MOL0     C 9371  -0.435   0.308   4.714  0.1183 -0.1117 -0.3943
   70MOL0     C 9372  -0.433   0.171   4.734 -0.0281  0.0167  0.1354
   70MOL0     O 9373  -0.551   0.111   4.772  0.6243 -0.1344  0.0057
   70MOL0     C 9374  -0.560  -0.020   4.738  0.3358 -0.4109  0.3298
   70MOL0     C 9375  -0.707  -0.054   4.736 -0.2129 -0.3957  0.1657
   70MOL0     C 9376  -0.771   0.015   4.609 -0.4471 -0.1326 -0.6195
   70MOL0     C 9377  -0.910  -0.043   4.561  1.1950 -0.0603  0.1047
   70MOL0     C 9378  -1.028  -0.040   4.653 -0.6204  0.6983 -0.1856
   70MOL0     C 9379  -1.114  -0.031   4.739 -0.4285 -1.2396 -0.0088
   70MOL0     C 9380  -0.314   0.097   4.713  0.0312 -0.0662  0.4593
   70MOL0     C 9381  -0.195   0.166   4.672  0.3064  0.0630  0.6424
   70MOL0     C 9382  -0.082   0.065   4.637 -0.4374 -0.5967 -0.2162
   70MOL0     H 9383  -0.139   0.754   4.554 -0.2113 -2.8766  1.7288
   70MOL0     H 9384   0.028   0.921   4.486  0.6259  0.6903  0.5424
   70MOL0     H 9385   0.351   0.972   4.299  0.3581  0.2035  0.3272
   70MOL0     H 9386   0.185   0.932   4.314  0.1144  1.3258 -1.7123
   70MOL0     H 9387   0.174   1.109   4.500 -0.2618  0.5762 -0.4884
   70MOL0     H 9388   0.230   1.173   4.350  0.1253  2.0354  1.7365
   70MOL0     H 9389   0.469   1.155   4.407 -0.3089 -2.1090 -0.1393
   70MOL0     H 9390   0.424   1.102   4.570 -1.6770  0.3173  0.3717
   70MOL0     H 9391   0.465   1.351   4.555 -1.0414  0.7929  3.3633
   70MOL0     H 9392   0.311   1.352   4.455 -2.0584  0.2436  0.7706
   70MOL0     H 9393   0.284   1.426   4.696 -1.0743  0.0182 -0.4745
   70MOL0     H 9394   0.191   1.285   4.647  1.7015 -0.5838 -5.2779
   70MOL0     H 9395   0.284   1.257   4.871 -1.5854  1.1540 -1.9489
   70MOL0     H 9396   0.346   1.136   4.759  0.6168 -0.8610  1.8411
   70MOL0     H 9397   0.553   1.305   4.736  0.9996  0.6013  0.5435
   70MOL0     H 9398   0.543   1.186   4.871  0.1906  0.6195  0.3709
   70MOL0     H 9399   0.428   1.471   4.900  2.1427  0.6450 -2.9039
   70MOL0     H 9400   0.470   1.367   5.035  4.2189 -0.3501  1.8021
   70MOL0     H 9401   0.692   1.482   4.726  1.5450 -0.1174 -1.0200
   70MOL0     H 9402   0.996   1.514   4.768  0.0908 -0.5143  1.7982
   70MOL0     H 9403   0.904   1.650   4.726  1.7142 -0.4506 -0.6641
   70MOL0     H 9404   1.005   1.767   4.924 -2.8287  0.7363 -2.6862
   70MOL0     H 9405   1.084   1.621   4.978  1.1152 -0.6602 -1.7007
   70MOL0     H 9406   1.133   1.764   4.718 -0.8293 -0.5190  0.0748
   70MOL0     H 9407   1.219   1.622   4.745 -0.8841  0.2458 -0.5429
   70MOL0     H 9408   1.289   1.746   4.977  3.4700  0.2822 -1.1858
   70MOL0     H 9409   1.202   1.876   4.906  1.2023  1.2012  0.2792
   70MOL0     H 9410   1.605   1.876   4.699  0.0819  0.4590  0.3993
   70MOL0     H 9411   1.824   1.792   4.754 -0.6146  1.2632  1.7074
   70MOL0     H 9412   1.914   1.326   5.188 -0.8050  1.2528 -0.7613
   70MOL0     H 9413   2.106   1.187   5.257  1.6674  0.0293 -0.0181
   70MOL0     H 9414   2.328   1.192   5.313 -0.5451  1.2562 -1.1011
   70MOL0     H 9415   2.282   1.036   5.218 -1.7819  0.5120 -2.8273
   70MOL0     H 9416   2.522   0.998   5.174  0.2774  3.0688 -1.4218
   70MOL0     H 9417   2.553   1.158   5.237 -1.3333  1.9314  0.6911
   70MOL0     H 9418   2.488   1.082   5.467 -0.7142  0.7493  0.7371
   70MOL0     H 9419   2.393   0.944   5.411  0.7656 -0.0549  0.2158
   70MOL0     H 9420   2.691   0.947   5.422 -1.0086  0.4033  1.9434
   70MOL0     H 9421   2.579   0.803   5.391 -2.1041 -0.5382  0.6850
   70MOL0     H 9422   2.606   0.762   5.603 -0.4827 -0.1731  2.3209
   70MOL0     H 9423   2.490   0.882   5.637  0.8154  1.9738  1.0581
   70MOL0     H 9424   2.799   0.914   5.639 -0.5367  0.0073  0.4322
   70MOL0     H 9425   2.682   1.048   5.633  1.6414  0.3373  0.7218
   70MOL0     H 9426   2.674   0.806   5.831 -0.8507  0.7060  2.1782
   70MOL0     H 9427   2.590   0.952   5.851 -1.9402 -1.8296 -2.8716
   70MOL0     H 9428   2.901   0.980   5.831  0.6239  0.6930  0.5362
   70MOL0     H 9429   2.777   1.097   5.858  0.9986  0.2390 -0.8761
   70MOL0     H 9430   2.330   1.354   4.919 -0.1627 -0.1268 -0.4412
   70MOL0     H 9431   2.100   1.464   4.835 -1.6726 -0.2274 -0.4809
   70MOL0     H 9432   1.633   1.518   5.026 -0.2145  0.8625 -0.5334
   70MOL0     H 9433   1.420   1.601   4.965 -1.0186 -0.3592 -0.9412
   70MOL0     H 9434   0.345   0.669   4.616  0.7463 -0.4696 -3.2330
   70MOL0     H 9435   0.176   0.495   4.687 -1.5447  0.6616  1.7684
   70MOL0     H 9436  -0.335   0.476   4.674 -2.2158 -0.4267 -0.3125
   70MOL0     H 9437  -0.530   0.362   4.718  0.4191  0.4071 -0.1810
   70MOL0     H 9438  -0.511  -0.083   4.812  2.0251  0.3798 -0.0636
   70MOL0     H 9439  -0.509  -0.025   4.641  0.1537  3.3732 -0.1209
   70MOL0     H 9440  -0.756  -0.026   4.829 -1.8105 -0.7353 -0.5419
   70MOL0     H 9441  -0.702  -0.161   4.716  0.8564 -0.4958  0.8838
   70MOL0     H 9442  -0.700  -0.005   4.528  3.0559 -1.8755  2.5899
   70MOL0     H 9443  -0.768   0.124   4.618  2.5999 -0.2945  2.9610
   70MOL0     H 9444  -0.945   0.009   4.471  0.3711  1.8154  1.4399
   70MOL0     H 9445  -0.894  -0.150   4.543  2.5772 -0.2278  2.1089
   70MOL0     H 9446  -1.187  -0.030   4.818  0.9335 -2.2740  1.3219
   70MOL0     H 9447  -0.296  -0.009   4.727  3.6350  0.5844  2.0523
   70MOL0     H 9448   0.010   0.118   4.610 -0.8188  0.0647 -0.2461
   70MOL0     H 9449  -0.050   0.001   4.719  0.7952 -0.3404 -0.4796
   70MOL0     H 9450  -0.118   0.003   4.554 -0.7367 -0.4723 -0.1809
   71MOL0     O 9451   4.804   7.459   2.307  0.6780 -0.1358  0.7751
   71MOL0     C 9452   4.801   7.343   2.267 -0.5912  0.2496 -0.4394
   71MOL0     O 9453   4.913   7.260   2.239 -0.0014 -0.1056 -0.2570
   71MOL0     C 9454   5.039   7.317   2.259 -0.4791 -0.1915 -0.0592
   71MOL0     C 9455   5.101   7.367   2.145  0.2616 -0.0609 -0.1924
   71MOL0     C 9456   5.231   7.415   2.146  0.2098 -0.0345 -0.2369
   71MOL0     C 9457   5.298   7.432   2.271 -0.2462  0.4304  0.2725
   71MOL0     O 9458   5.421   7.480   2.290 -0.4718  0.0362 -0.0397
   71MOL0     C 9459   5.500   7.493   2.166  0.3645 -0.7692 -0.5951
   71MOL0     C 9460   5.636   7.525   2.210  0.0955 -0.2707  0.7199
   71MOL0     C 9461   5.746   7.524   2.103 -0.4074  0.2614  0.1335
   71MOL0     C 9462   5.883   7.521   2.154 -0.1072  0.9565 -0.7026
   71MOL0     C 9463   5.930   7.381   2.181  0.3789 -1.1112 -0.4421
   71MOL0     C 9464   6.078   7.378   2.221 -0.8002  0.3812  0.2958
   71MOL0     C 9465   6.178   7.398   2.107  0.6812  0.0501  0.5372
   71MOL0     C 9466   6.313   7.361   2.155 -0.4433  0.7634  0.7740
   71MOL0     N 9467   6.384   7.470   2.215  0.4646  0.2982  0.3849
   71MOL0     C 9468   6.496   7.454   2.300  0.3043  0.0050 -0.0026
   71MOL0     C 9469   6.508   7.567   2.373 -0.0912  1.1790  1.1719
   71MOL0     C 9470   6.623   7.587   2.460  0.4009 -0.6302 -0.5636
   71MOL0     C 9471   6.726   7.674   2.386  0.9299 -0.9248  0.3080
   71MOL0     C 9472   6.674   7.818   2.371 -0.5726  0.1608  0.0361
   71MOL0     C 9473   6.792   7.900   2.329 -0.3770 -0.1079  0.1535
   71MOL0     O 9474   6.885   7.909   2.434  0.1684 -0.2079  0.1464
   71MOL0     C 9475   7.007   7.969   2.408 -0.3584 -0.0845  0.4308
   71MOL0     C 9476   7.106   7.949   2.508  0.8674 -0.4793 -1.4201
   71MOL0     C 9477   7.234   8.004   2.506  0.0690  0.5199 -0.0721
   71MOL0     C 9478   7.263   8.083   2.388  0.1181  0.3064 -0.0160
   71MOL0     C 9479   7.401   8.134   2.369 -0.5562 -0.4899 -0.0663
   71MOL0     O 9480   7.479   8.147   2.487 -0.2756  0.0267  0.0765
   71MOL0     C 9481   7.613   8.171   2.461 -1.0160 -0.6749 -0.2359
   71MOL0     C 9482   7.666   8.290   2.517 -0.8709  0.2605 -1.3655
   71MOL0     C 9483   7.809   8.305   2.523 -0.2309  0.3906  0.3900
   71MOL0     C 9484   7.889   8.214   2.453 -0.4105 -0.6751  0.5313
   71MOL0     O 9485   8.024   8.229   2.431  0.8517 -0.2692 -0.1956
   71MOL0     C 9486   8.074   8.350   2.358  0.9946  0.0164 -0.7663
   71MOL0     C 9487   8.209   8.402   2.415 -0.4590  0.1229  0.6771
   71MOL0     C 9488   8.277   8.509   2.312 -0.0088  0.8353 -1.4426
   71MOL0     C 9489   8.414   8.535   2.366  0.1270 -0.6218  1.0684
   71MOL0     C 9490   8.498   8.596   2.249  0.4639  0.4660 -1.1324
   71MOL0     C 9491   8.461   8.743   2.211 -0.4985  0.2761 -0.0200
   71MOL0     C 9492   8.548   8.789   2.096  0.7280  0.4796  0.3176
   71MOL0     C 9493   8.692   8.813   2.131 -0.4468 -0.5427  0.3674
   71MOL0    Cl 9494   8.729   8.938   2.263  0.2269 -0.2437  0.0965
   71MOL0     C 9495   7.835   8.106   2.388  0.5042 -0.5058 -0.4380
   71MOL0     C 9496   7.694   8.083   2.397  0.4939 -1.2983 -0.7308
   71MOL0     O 9497   7.440   8.144   2.257 -1.2157  0.1527  0.6169
   71MOL0     C 9498   7.169   8.100   2.289 -0.9584  0.0393 -0.2566
   71MOL0     C 9499   7.034   8.051   2.301 -0.2179 -0.0313  0.1404
   71MOL0     N 9500   6.409   7.651   2.336 -0.4899 -0.1279  0.0215
   71MOL0     N 9501   6.341   7.594   2.238  0.1936 -0.0748  0.1624
   71MOL0     C 9502   5.226   7.390   2.386  0.9355 -0.6043 -0.6165
   71MOL0     C 9503   5.105   7.323   2.381 -0.4711  0.6150 -0.0286
   71MOL0     C 9504   4.671   7.281   2.225 -0.6374  0.7931 -0.0716
   71MOL0     C 9505   4.614   7.353   2.120  0.9896 -0.2335 -0.7329
   71MOL0     C 9506   4.495   7.318   2.065 -0.4157 -0.0716 -0.5130
   71MOL0     C 9507   4.423   7.210   2.118  0.7494 -0.4945  0.7213
   71MOL0     O 9508   4.300   7.194   2.067 -0.4235  0.3295 -0.1815
   71MOL0     C 9509   4.270   7.065   2.010  0.5783  0.1164  0.3418
   71MOL0     C 9510   4.139   7.081   1.921 -0.0969  0.1975 -1.0672
   71MOL0     C 9511   4.018   7.156   1.994  0.0409  0.1018  0.5141
   71MOL0     C 9512   3.884   7.078   1.984  0.3046 -0.5709 -0.7968
   71MOL0     C 9513   3.785   7.161   2.052  0.4272 -0.2294 -0.3227
   71MOL0     C 9514   3.709   7.211   2.127  0.0280  0.3427 -0.4830
   71MOL0     C 9515   4.466   7.145   2.230 -0.5063 -0.3588 -0.0815
   71MOL0     C 9516   4.593   7.179   2.287 -0.6348  0.2303  0.1738
   71MOL0     C 9517   4.650   7.092   2.406  0.3301 -0.1402 -0.4284
   71MOL0     H 9518   5.052   7.367   2.048  0.3539 -1.2918 -0.2537
   71MOL0     H 9519   5.293   7.434   2.059  0.0621  1.4804 -0.0282
   71MOL0     H 9520   5.497   7.396   2.116  1.1587 -1.4333  0.5741
   71MOL0     H 9521   5.466   7.576   2.104  0.6985  0.1798  0.4517
   71MOL0     H 9522   5.657   7.446   2.283  0.3954 -1.8094 -0.9417
   71MOL0     H 9523   5.643   7.620   2.264 -2.4258 -0.0295  0.7321
   71MOL0     H 9524   5.737   7.614   2.041  0.0907 -1.7650 -3.1080
   71MOL0     H 9525   5.731   7.440   2.035 -1.4944  2.3776 -2.4227
   71MOL0     H 9526   5.958   7.566   2.087  1.8352 -0.6620  0.2436
   71MOL0     H 9527   5.876   7.566   2.253 -1.4844 -0.9316  0.1343
   71MOL0     H 9528   5.863   7.344   2.260  0.6736  1.7039  1.2709
   71MOL0     H 9529   5.922   7.327   2.087 -2.4493  0.6649 -1.3371
   71MOL0     H 9530   6.093   7.449   2.303 -1.4249  0.8631 -0.0048
   71MOL0     H 9531   6.096   7.278   2.261 -3.4694 -1.6510 -3.0873
   71MOL0     H 9532   6.181   7.498   2.063 -0.1209  1.1117  2.7295
   71MOL0     H 9533   6.151   7.334   2.022 -1.6143  1.2845  0.2539
   71MOL0     H 9534   6.323   7.280   2.229  0.5605  2.2008  2.2914
   71MOL0     H 9535   6.370   7.322   2.070 -0.8525 -0.5949  1.0867
   71MOL0     H 9536   6.564   7.369   2.298  0.0126 -0.2464 -2.6089
   71MOL0     H 9537   6.583   7.631   2.552 -0.4184  2.4571 -2.2897
   71MOL0     H 9538   6.664   7.489   2.487 -0.8631 -1.3737 -1.2342
   71MOL0     H 9539   6.824   7.677   2.435  1.5472  2.2981 -0.8290
   71MOL0     H 9540   6.752   7.634   2.288 -0.0141  1.2139 -0.8843
   71MOL0     H 9541   6.627   7.848   2.465  0.0357 -0.1775  0.4634
   71MOL0     H 9542   6.597   7.828   2.294  1.7751  1.7934 -2.2674
   71MOL0     H 9543   6.759   8.003   2.314 -0.6629 -0.2694 -0.3493
   71MOL0     H 9544   6.833   7.861   2.236 -0.0457  0.5446  0.0216
   71MOL0     H 9545   7.083   7.884   2.591  2.3094 -2.8595 -2.7453
   71MOL0     H 9546   7.303   7.982   2.587  0.9534 -2.0472 -1.4247
   71MOL0     H 9547   7.607   8.371   2.558 -1.0323 -0.4087 -0.2347
   71MOL0     H 9548   7.851   8.389   2.578 -0.7185  1.2769 -0.5647
   71MOL0     H 9549   8.092   8.331   2.252  2.6092  1.8072 -0.8753
   71MOL0     H 9550   7.999   8.430   2.354 -0.0991 -0.8716  0.8036
   71MOL0     H 9551   8.200   8.441   2.516 -0.9835 -1.5256  1.3074
   71MOL0     H 9552   8.268   8.310   2.418  2.8785  1.7025 -4.0134
   71MOL0     H 9553   8.284   8.475   2.209 -0.3961  1.1578 -1.5750
   71MOL0     H 9554   8.219   8.601   2.315 -1.3436  0.0425 -1.9450
   71MOL0     H 9555   8.468   8.450   2.408  1.1083  0.7800  2.7586
   71MOL0     H 9556   8.405   8.615   2.440  0.8245 -0.6043  1.1410
   71MOL0     H 9557   8.505   8.534   2.159 -0.0560 -0.9579 -0.2249
   71MOL0     H 9558   8.599   8.595   2.291  1.5528  2.2033 -3.5081
   71MOL0     H 9559   8.354   8.758   2.192 -0.4456  1.6643  0.6398
   71MOL0     H 9560   8.480   8.798   2.303  1.7773  1.8898 -1.3458
   71MOL0     H 9561   8.505   8.886   2.070  0.6176  0.3182 -0.0958
   71MOL0     H 9562   8.532   8.717   2.016 -3.8029  1.1363  0.3896
   71MOL0     H 9563   8.737   8.720   2.168  0.9880 -0.2164 -0.4815
   71MOL0     H 9564   8.740   8.854   2.042 -2.8295 -0.2151 -0.8567
   71MOL0     H 9565   7.911   8.043   2.343  0.4410 -0.4326 -0.6501
   71MOL0     H 9566   7.648   7.989   2.369 -2.2108  0.6469 -3.5009
   71MOL0     H 9567   7.189   8.166   2.205  0.2609 -1.6371 -1.3496
   71MOL0     H 9568   6.955   8.084   2.235  0.6341  1.6036 -0.1160
   71MOL0     H 9569   5.279   7.389   2.480  0.9641 -0.2510 -0.6277
   71MOL0     H 9570   5.049   7.278   2.462 -1.8009  0.7476 -0.8343
   71MOL0     H 9571   4.663   7.436   2.069  1.9824 -1.3177 -1.6231
   71MOL0     H 9572   4.470   7.377   1.977  1.6950  0.6544 -0.6871
   71MOL0     H 9573   4.247   6.998   2.094  0.9298  1.1043  1.2520
   71MOL0     H 9574   4.358   7.040   1.950 -0.3409  0.3716 -1.1684
   71MOL0     H 9575   4.108   6.980   1.894 -1.2090  0.7790 -2.0407
   71MOL0     H 9576   4.166   7.131   1.827  1.9434 -0.7419 -1.0364
   71MOL0     H 9577   4.012   7.255   1.949  2.4207  0.7666  1.4949
   71MOL0     H 9578   4.038   7.172   2.100 -0.1089  0.9307  0.4257
   71MOL0     H 9579   3.860   7.067   1.878  0.8122 -1.0534 -0.8664
   71MOL0     H 9580   3.891   6.979   2.029  0.7251 -0.4676 -0.6324
   71MOL0     H 9581   3.650   7.262   2.201  2.7536  2.0711  0.6800
   71MOL0     H 9582   4.408   7.073   2.285 -2.7940  2.0644  0.8984
   71MOL0     H 9583   4.566   7.072   2.474  0.0039  0.2346 -0.7159
   71MOL0     H 9584   4.692   6.997   2.372 -1.4233 -0.9404 -0.4768
   71MOL0     H 9585   4.719   7.147   2.470 -0.5659 -0.9586  1.3090
   72MOL0     O 9586   0.125   2.969   1.248  0.0680  0.6272  0.1443
   72MOL0     C 9587   0.083   2.949   1.131 -1.1288 -0.5294 -0.0842
   72MOL0     O 9588   0.164   2.907   1.034 -0.4187  0.0274 -0.0896
   72MOL0     C 9589   0.302   2.894   1.064  0.2295 -0.0589  0.1401
   72MOL0     C 9590   0.373   3.019   1.087 -0.0751 -0.1657 -0.1345
   72MOL0     C 9591   0.507   3.016   1.108 -0.7216 -1.0736 -0.2066
   72MOL0     C 9592   0.579   2.901   1.116  0.6522 -0.1301 -0.3047
   72MOL0     O 9593   0.711   2.908   1.130 -0.1346 -0.1057  0.0204
   72MOL0     C 9594   0.753   2.931   1.261  0.1655 -1.1943 -0.0117
   72MOL0     C 9595   0.869   2.835   1.299  0.6412 -0.1700  0.6782
   72MOL0     C 9596   0.936   2.876   1.436  0.3239  0.0329  1.1602
   72MOL0     C 9597   0.848   2.854   1.562 -0.1881  0.0282 -0.6358
   72MOL0     C 9598   0.906   2.938   1.679  0.3082  0.2784 -0.2414
   72MOL0     C 9599   1.004   2.857   1.765  0.3806 -0.4012 -0.6773
   72MOL0     C 9600   1.061   2.942   1.877 -0.8748  0.0850 -0.1906
   72MOL0     C 9601   1.113   2.860   1.987  1.0113  0.3916 -0.7222
   72MOL0     N 9602   1.219   2.766   1.945  1.0456  0.5535 -0.2073
   72MOL0     C 9603   1.344   2.805   1.905  0.8973 -0.3643 -0.0055
   72MOL0     C 9604   1.414   2.696   1.877  0.9609  0.3370 -0.5263
   72MOL0     C 9605   1.548   2.672   1.813  0.4338  0.1223  0.7401
   72MOL0     C 9606   1.661   2.649   1.913  0.2796 -0.1593  0.4984
   72MOL0     C 9607   1.659   2.523   1.989 -0.0856  0.1863 -0.0009
   72MOL0     C 9608   1.662   2.394   1.903  0.7035  0.0188  0.5038
   72MOL0     O 9609   1.775   2.416   1.818  0.0699 -0.0639 -0.0860
   72MOL0     C 9610   1.846   2.303   1.789 -0.2397 -0.0238  0.3615
   72MOL0     C 9611   1.987   2.305   1.809  0.2554 -1.0848  0.0468
   72MOL0     C 9612   2.066   2.191   1.794  0.2238 -0.5188  0.2597
   72MOL0     C 9613   2.012   2.074   1.752 -0.2541 -1.1179  0.5278
   72MOL0     C 9614   2.096   1.950   1.771  0.1732 -0.0496  1.1614
   72MOL0     O 9615   2.230   1.955   1.734 -0.4845  0.1017 -0.2113
   72MOL0     C 9616   2.306   1.840   1.746 -0.7238  0.5849 -1.2025
   72MOL0     C 9617   2.323   1.756   1.639  0.2990  0.0057  0.2088
   72MOL0     C 9618   2.404   1.636   1.644  1.2980  0.2889 -0.4768
   72MOL0     C 9619   2.464   1.597   1.760  0.3775 -0.3564 -0.5625
   72MOL0     O 9620   2.546   1.482   1.765 -0.1028  0.6848  0.0389
   72MOL0     C 9621   2.623   1.458   1.886  0.3817 -0.0557  0.0345
   72MOL0     C 9622   2.696   1.322   1.872  0.2072  0.1100 -0.0789
   72MOL0     C 9623   2.804   1.304   1.978  0.3461 -0.1500  0.1749
   72MOL0     C 9624   2.863   1.162   1.984 -0.3328  0.1465 -0.1090
   72MOL0     C 9625   2.926   1.121   1.852  0.2429 -0.1230  0.3920
   72MOL0     C 9626   3.044   1.025   1.870  0.3384  0.1023 -0.3268
   72MOL0     C 9627   3.088   0.966   1.737  0.4479 -0.4864  0.2199
   72MOL0     C 9628   3.238   0.957   1.710  0.3214 -0.6272 -0.1787
   72MOL0    Cl 9629   3.287   0.855   1.567  0.1525  0.3945 -0.3257
   72MOL0     C 9630   2.443   1.677   1.875 -0.3581  0.2951  0.7032
   72MOL0     C 9631   2.368   1.795   1.863  0.2518 -0.3841 -0.5917
   72MOL0     O 9632   2.036   1.854   1.811  0.1448  0.8841  0.3861
   72MOL0     C 9633   1.876   2.069   1.730 -0.3413  0.3966  0.2802
   72MOL0     C 9634   1.789   2.182   1.747 -0.0718  0.0294  0.7081
   72MOL0     N 9635   1.330   2.586   1.906  0.3231 -0.7324  0.2178
   72MOL0     N 9636   1.220   2.636   1.964 -0.1631 -0.6714 -0.2302
   72MOL0     C 9637   0.508   2.779   1.108  0.3905 -0.1328 -0.6050
   72MOL0     C 9638   0.368   2.778   1.082  0.1007 -0.1357  0.6238
   72MOL0     C 9639  -0.063   2.960   1.112  0.0642  0.6110  0.0702
   72MOL0     C 9640  -0.144   3.026   1.215 -0.3618 -0.7676  0.4586
   72MOL0     C 9641  -0.277   3.057   1.195  0.6400  0.2114  0.8073
   72MOL0     C 9642  -0.333   3.009   1.083 -0.2130  0.1848  0.9514
   72MOL0     O 9643  -0.468   3.019   1.052 -0.1862 -0.9177 -0.2122
   72MOL0     C 9644  -0.525   3.144   1.082  0.5386 -0.4774  0.3148
   72MOL0     C 9645  -0.651   3.163   0.995 -0.4433 -0.7106  0.9728
   72MOL0     C 9646  -0.755   3.039   1.011 -0.0250 -0.2720  1.0850
   72MOL0     C 9647  -0.738   2.941   0.889  0.0929 -0.0241  0.2953
   72MOL0     C 9648  -0.862   2.877   0.851 -0.2384 -0.1326  0.6751
   72MOL0     C 9649  -0.966   2.826   0.840  0.8896 -0.1725 -0.6054
   72MOL0     C 9650  -0.273   2.922   0.988  0.1910  0.0926 -0.3234
   72MOL0     C 9651  -0.134   2.897   1.005 -0.0669  0.3013 -0.2471
   72MOL0     C 9652  -0.067   2.804   0.901 -0.0732  0.1670 -0.1886
   72MOL0     H 9653   0.324   3.115   1.095  0.4174  0.1295 -0.6185
   72MOL0     H 9654   0.561   3.110   1.105  0.5296 -1.7831 -2.4546
   72MOL0     H 9655   0.784   3.035   1.272  0.5401 -1.4816  2.1852
   72MOL0     H 9656   0.681   2.907   1.340 -0.5298 -0.4786 -0.4157
   72MOL0     H 9657   0.942   2.847   1.218 -0.7321  1.8015 -0.3638
   72MOL0     H 9658   0.830   2.733   1.306  0.0163  0.1019  1.3045
   72MOL0     H 9659   0.969   2.980   1.427 -1.7345  0.5375 -1.8208
   72MOL0     H 9660   1.019   2.806   1.427  0.0493 -0.0035 -3.3308
   72MOL0     H 9661   0.747   2.893   1.545 -1.3380 -2.3498  0.3023
   72MOL0     H 9662   0.844   2.748   1.588  0.2605  0.5338  1.6652
   72MOL0     H 9663   0.944   3.028   1.630 -1.9748 -0.5127 -3.8877
   72MOL0     H 9664   0.826   2.969   1.746  0.7788  1.7440 -0.3352
   72MOL0     H 9665   0.971   2.759   1.802  1.3256  0.4197  2.6796
   72MOL0     H 9666   1.088   2.835   1.698  0.4364 -2.2187 -0.0674
   72MOL0     H 9667   0.985   3.002   1.928 -1.9475 -2.3699  1.2090
   72MOL0     H 9668   1.139   3.011   1.840 -0.3415  1.2425  2.7883
   72MOL0     H 9669   1.157   2.924   2.064  2.6782 -2.3682  0.7980
   72MOL0     H 9670   1.037   2.800   2.037  0.3176  2.0506  0.3217
   72MOL0     H 9671   1.375   2.908   1.891  0.8903 -0.4642 -0.8476
   72MOL0     H 9672   1.542   2.589   1.741  1.0026  0.2776  0.5106
   72MOL0     H 9673   1.573   2.759   1.750  1.6427  0.1938  1.2930
   72MOL0     H 9674   1.761   2.667   1.872 -0.7835 -0.1433 -2.2979
   72MOL0     H 9675   1.656   2.741   1.972  1.1360 -0.1005  0.4974
   72MOL0     H 9676   1.561   2.508   2.036 -1.8948  0.8769 -3.2666
   72MOL0     H 9677   1.743   2.524   2.060  1.4293  2.1787 -1.7324
   72MOL0     H 9678   1.572   2.386   1.842  2.2043 -0.5142 -1.7535
   72MOL0     H 9679   1.655   2.304   1.965 -1.3430  0.8835  1.6572
   72MOL0     H 9680   2.032   2.400   1.837  3.1376 -1.4998 -2.6484
   72MOL0     H 9681   2.163   2.203   1.839  0.2755 -3.5628  1.1711
   72MOL0     H 9682   2.270   1.766   1.545 -0.9409 -3.1269  0.4893
   72MOL0     H 9683   2.407   1.560   1.567  4.5397  0.7909 -1.0101
   72MOL0     H 9684   2.697   1.539   1.887  0.7561 -0.1512 -3.9849
   72MOL0     H 9685   2.548   1.450   1.965 -1.3045 -0.7420 -1.5778
   72MOL0     H 9686   2.621   1.243   1.867 -0.9629  1.2719 -2.4693
   72MOL0     H 9687   2.738   1.318   1.770 -0.9195 -2.8639 -0.5444
   72MOL0     H 9688   2.876   1.379   1.947  0.7860 -0.6004  0.0977
   72MOL0     H 9689   2.776   1.332   2.080  0.0053  2.1556 -0.4940
   72MOL0     H 9690   2.784   1.092   2.010 -2.1597  2.1996  0.1581
   72MOL0     H 9691   2.944   1.161   2.058  0.6771  1.7964 -1.1107
   72MOL0     H 9692   2.962   1.209   1.800 -1.8369  0.1190 -0.7250
   72MOL0     H 9693   2.847   1.079   1.789  0.3356  2.1417 -1.3444
   72MOL0     H 9694   3.117   1.078   1.931 -0.2498 -0.0006  0.4812
   72MOL0     H 9695   3.001   0.943   1.928  0.0767  1.3622  1.3356
   72MOL0     H 9696   3.047   1.037   1.665  2.8604 -0.8484 -1.6130
   72MOL0     H 9697   3.033   0.874   1.718 -0.3246  0.0329 -0.1018
   72MOL0     H 9698   3.280   1.056   1.689  2.3384 -1.5198 -0.5502
   72MOL0     H 9699   3.290   0.926   1.801 -0.3483 -0.6580  0.2022
   72MOL0     H 9700   2.493   1.657   1.969  0.6678 -2.7129 -0.3644
   72MOL0     H 9701   2.361   1.855   1.953 -1.6741  0.4031 -1.2214
   72MOL0     H 9702   1.832   1.970   1.720  1.8279 -0.4211 -1.8846
   72MOL0     H 9703   1.682   2.161   1.739 -0.0870  0.7579 -3.5945
   72MOL0     H 9704   0.571   2.692   1.125 -0.4670 -0.9532 -1.5146
   72MOL0     H 9705   0.312   2.686   1.069  0.6057 -0.2162 -1.3380
   72MOL0     H 9706  -0.108   3.052   1.314 -2.7050 -0.8540  1.3832
   72MOL0     H 9707  -0.336   3.103   1.274  4.5796  1.0850  3.5178
   72MOL0     H 9708  -0.451   3.223   1.062 -1.8071  1.0856 -3.1762
   72MOL0     H 9709  -0.542   3.143   1.190  1.3057  1.3751  0.4972
   72MOL0     H 9710  -0.630   3.174   0.888 -2.9134 -0.0217  0.5073
   72MOL0     H 9711  -0.706   3.250   1.033 -0.4113  1.1761 -2.7856
   72MOL0     H 9712  -0.859   3.071   1.015 -0.4097 -1.1375 -0.7589
   72MOL0     H 9713  -0.744   2.980   1.102  0.6929 -0.1554  1.0803
   72MOL0     H 9714  -0.691   2.989   0.802 -0.9998  1.3782  0.4316
   72MOL0     H 9715  -0.668   2.869   0.931  1.2634  1.4060  0.8546
   72MOL0     H 9716  -1.064   2.784   0.841  1.2333 -1.0574 -1.7781
   72MOL0     H 9717  -0.346   2.889   0.915 -0.7207  0.7479  0.2569
   72MOL0     H 9718  -0.143   2.769   0.830 -0.8767  3.5315 -1.1677
   72MOL0     H 9719   0.008   2.859   0.844 -1.3371  2.3140  0.1212
   72MOL0     H 9720  -0.024   2.720   0.956 -2.6140 -0.6608  0.6852
   73MOL0     O 9721   0.344   9.332   1.256 -0.0165  0.3461 -0.0253
   73MOL0     C 9722   0.313   9.312   1.134  0.8643 -0.7315 -1.1616
   73MOL0     O 9723   0.397   9.335   1.026 -0.0150  0.0715 -0.3066
   73MOL0     C 9724   0.500   9.429   1.046  0.6904 -0.1441 -1.2934
   73MOL0     C 9725   0.474   9.555   1.109 -0.3927  0.4756 -0.1282
   73MOL0     C 9726   0.579   9.643   1.145  0.0032  0.0852 -0.3508
   73MOL0     C 9727   0.711   9.616   1.105 -0.3425  0.0411 -0.1161
   73MOL0     O 9728   0.820   9.698   1.136 -0.1144 -0.5172 -0.5007
   73MOL0     C 9729   0.895   9.746   1.025 -0.0937 -0.7363  0.3506
   73MOL0     C 9730   1.004   9.838   1.058 -0.1915 -0.8206 -0.4828
   73MOL0     C 9731   0.980   9.923   1.181 -0.8589  0.2459  0.7088
   73MOL0     C 9732   1.027  10.067   1.158  0.0220  0.3326 -0.7016
   73MOL0     C 9733   1.043  10.161   1.284  0.4020  0.5139  0.0961
   73MOL0     C 9734   1.154  10.122   1.379  0.3372 -0.0848 -0.1937
   73MOL0     C 9735   1.209  10.234   1.475  0.0102  0.5629  0.2074
   73MOL0     C 9736   1.107  10.239   1.591 -0.5942  0.2326 -0.2548
   73MOL0     N 9737   1.143  10.306   1.718 -0.0481 -0.4323  0.2824
   73MOL0     C 9738   1.269  10.339   1.763 -0.1871 -0.7499 -0.4592
   73MOL0     C 9739   1.253  10.373   1.897  0.5604 -0.1129  0.1238
   73MOL0     C 9740   1.365  10.410   1.991 -0.1759  0.7831 -0.4222
   73MOL0     C 9741   1.402  10.283   2.077  0.1239  0.0076 -0.0846
   73MOL0     C 9742   1.449  10.337   2.205 -0.4245  0.0717 -1.1240
   73MOL0     C 9743   1.500  10.232   2.308  0.4806  0.2639 -0.5338
   73MOL0     O 9744   1.611  10.150   2.256 -0.1050 -0.7965 -0.2837
   73MOL0     C 9745   1.747  10.184   2.254  0.4191 -0.8698 -0.4413
   73MOL0     C 9746   1.835  10.087   2.192  0.2389  0.1780  0.5350
   73MOL0     C 9747   1.968  10.104   2.178 -0.5756 -0.2792  0.0764
   73MOL0     C 9748   2.016  10.236   2.216  0.0070 -0.1578 -0.3627
   73MOL0     C 9749   2.157  10.271   2.191 -0.0885  0.1884  0.9148
   73MOL0     O 9750   2.248  10.166   2.178  0.0977  0.0549  0.2198
   73MOL0     C 9751   2.377  10.205   2.158 -0.0972  0.5926 -0.0117
   73MOL0     C 9752   2.418  10.218   2.027 -0.7508  0.3669 -0.4094
   73MOL0     C 9753   2.556  10.226   1.997 -0.2528 -0.0085 -0.3469
   73MOL0     C 9754   2.650  10.238   2.103  0.6070 -1.2401 -0.2044
   73MOL0     O 9755   2.783  10.267   2.058  0.0967  0.3809  0.4859
   73MOL0     C 9756   2.885  10.306   2.143  0.5655  1.2487 -0.0369
   73MOL0     C 9757   3.019  10.277   2.062  0.1859  0.0059  0.2925
   73MOL0     C 9758   3.040  10.362   1.932 -0.6484 -0.4527 -0.1649
   73MOL0     C 9759   3.197  10.389   1.902  1.1422  0.1442  0.1467
   73MOL0     C 9760   3.242  10.522   1.962  0.1866  0.5958  0.5377
   73MOL0     C 9761   3.378  10.568   1.923 -1.2995  0.4198 -0.7201
   73MOL0     C 9762   3.488  10.493   1.999 -0.3695 -0.4752  0.1528
   73MOL0     C 9763   3.625  10.517   1.941  0.3151  0.3716  0.5023
   73MOL0    Cl 9764   3.746  10.467   2.067  0.4562  0.0362  0.0927
   73MOL0     C 9765   2.614  10.231   2.243 -0.1123  0.0436  0.3153
   73MOL0     C 9766   2.472  10.201   2.260 -0.6600 -0.2735 -0.4043
   73MOL0     O 9767   2.180  10.390   2.192  0.0290  0.0386 -0.2076
   73MOL0     C 9768   1.932  10.333   2.279  0.3183  0.7463  0.1354
   73MOL0     C 9769   1.800  10.307   2.294 -0.1179  0.0346 -0.8202
   73MOL0     N 9770   1.118  10.366   1.930 -0.1347  0.3533  0.3844
   73MOL0     N 9771   1.053  10.332   1.822 -0.1089 -0.1672 -0.0835
   73MOL0     C 9772   0.730   9.493   1.030  0.4210 -0.6263  0.4112
   73MOL0     C 9773   0.627   9.399   1.008 -1.0084  0.1443  0.5088
   73MOL0     C 9774   0.180   9.275   1.084 -0.2633  0.3523  1.4922
   73MOL0     C 9775   0.142   9.307   0.950 -0.2690 -0.0625 -0.1316
   73MOL0     C 9776   0.019   9.267   0.902 -0.3386  0.0162  1.6158
   73MOL0     C 9777  -0.067   9.187   0.968 -1.0477  0.2217  0.8710
   73MOL0     O 9778  -0.184   9.138   0.912  0.4793 -0.6752 -0.6010
   73MOL0     C 9779  -0.257   9.237   0.824  0.8926 -0.6155 -0.0852
   73MOL0     C 9780  -0.407   9.236   0.867  0.0874  0.5575  0.2769
   73MOL0     C 9781  -0.454   9.091   0.850  0.7779  0.0366  0.7581
   73MOL0     C 9782  -0.603   9.078   0.865  0.0218  1.0107  0.0820
   73MOL0     C 9783  -0.678   9.104   0.742 -1.0001  0.3833  0.3828
   73MOL0     C 9784  -0.724   9.124   0.628  0.3266 -0.1464  0.1585
   73MOL0     C 9785  -0.026   9.137   1.092  0.3539  0.3123  0.7377
   73MOL0     C 9786   0.088   9.192   1.158 -0.4468 -0.2227 -0.9318
   73MOL0     C 9787   0.108   9.141   1.308  0.0877  0.6720 -0.2712
   73MOL0     H 9788   0.371   9.576   1.140  0.2042  1.4527  1.3437
   73MOL0     H 9789   0.547   9.727   1.205 -0.4851 -0.0445 -0.4212
   73MOL0     H 9790   0.939   9.658   0.976  2.8539  0.0177  1.4180
   73MOL0     H 9791   0.824   9.797   0.959  0.1850  2.2135  2.1544
   73MOL0     H 9792   1.039   9.895   0.971  1.2985 -1.8122 -0.5769
   73MOL0     H 9793   1.088   9.772   1.082  0.5420  1.2803  3.7649
   73MOL0     H 9794   1.046   9.877   1.255  0.2975  0.2224 -0.3107
   73MOL0     H 9795   0.880   9.921   1.225  0.1953 -2.4504  3.2951
   73MOL0     H 9796   1.125  10.051   1.111 -0.6557 -1.0652 -1.7297
   73MOL0     H 9797   0.966  10.116   1.082 -0.2608 -0.7065 -1.1600
   73MOL0     H 9798   1.057  10.261   1.243 -0.0406 -0.4112 -2.5059
   73MOL0     H 9799   0.944  10.167   1.332  0.3464 -0.0583  0.0640
   73MOL0     H 9800   1.131  10.034   1.439 -0.3877 -0.0812 -0.4478
   73MOL0     H 9801   1.230  10.097   1.305  2.8220  0.7216  1.9535
   73MOL0     H 9802   1.199  10.332   1.427 -2.7614 -0.0205 -0.6044
   73MOL0     H 9803   1.307  10.200   1.509  0.8010  0.3308 -2.1073
   73MOL0     H 9804   1.004  10.268   1.570 -1.0867 -1.2340  0.0148
   73MOL0     H 9805   1.105  10.133   1.616 -2.4698  0.4043  0.4697
   73MOL0     H 9806   1.365  10.326   1.713 -0.7237 -4.2825 -0.7530
   73MOL0     H 9807   1.462  10.431   1.946 -0.4155  1.4842 -0.6195
   73MOL0     H 9808   1.345  10.503   2.045  1.6845  0.8799  0.1766
   73MOL0     H 9809   1.317  10.219   2.101  1.2271 -0.9067  1.5314
   73MOL0     H 9810   1.474  10.217   2.027  2.1742  1.2915  1.0358
   73MOL0     H 9811   1.366  10.374   2.265 -1.3954 -2.6587 -0.6318
   73MOL0     H 9812   1.528  10.412   2.195  0.8675 -0.5589  2.7042
   73MOL0     H 9813   1.415  10.167   2.327  1.1019 -1.5409 -3.2042
   73MOL0     H 9814   1.523  10.276   2.405 -3.0808 -1.4981  1.2651
   73MOL0     H 9815   1.776  10.005   2.154  1.4302 -0.5499  0.1902
   73MOL0     H 9816   2.031  10.034   2.124 -0.1676  1.1921 -1.4367
   73MOL0     H 9817   2.349  10.213   1.944  1.1201  1.0522 -2.0715
   73MOL0     H 9818   2.587  10.233   1.893 -0.8258  0.9607 -0.4596
   73MOL0     H 9819   2.874  10.414   2.155 -1.5305  1.0101  0.4778
   73MOL0     H 9820   2.884  10.255   2.240  2.1030  1.6838  0.2417
   73MOL0     H 9821   3.106  10.298   2.125  0.6206 -2.6267  0.6950
   73MOL0     H 9822   3.018  10.173   2.028  1.3053 -0.9568  2.9247
   73MOL0     H 9823   2.986  10.320   1.847  0.4645  1.3592 -1.8306
   73MOL0     H 9824   2.998  10.457   1.965 -2.5962 -1.3844  0.2396
   73MOL0     H 9825   3.202  10.389   1.793  1.8747 -1.8632  0.1307
   73MOL0     H 9826   3.258  10.301   1.925  0.5282 -0.5201 -0.7199
   73MOL0     H 9827   3.237  10.506   2.070  0.2631 -1.1341  0.3102
   73MOL0     H 9828   3.167  10.596   1.935  0.5825  0.6207 -0.5186
   73MOL0     H 9829   3.398  10.559   1.816  0.4120 -0.7158 -0.3438
   73MOL0     H 9830   3.394  10.674   1.945  0.2673 -0.0404  0.5902
   73MOL0     H 9831   3.458  10.388   2.003 -1.0073 -0.3105  4.2831
   73MOL0     H 9832   3.486  10.515   2.106  1.8577  1.0663 -0.0568
   73MOL0     H 9833   3.626  10.468   1.843 -0.7374  0.9715  0.1729
   73MOL0     H 9834   3.629  10.625   1.922 -0.6094  0.1275 -1.3812
   73MOL0     H 9835   2.690  10.247   2.319  1.8587  2.2523 -1.9264
   73MOL0     H 9836   2.429  10.185   2.358 -1.7201  0.0292 -0.7963
   73MOL0     H 9837   1.973  10.431   2.301  1.5097  1.5081 -4.5087
   73MOL0     H 9838   1.744  10.391   2.335  1.0551 -0.1143  1.2037
   73MOL0     H 9839   0.830   9.485   0.987  0.9435 -0.2359  1.5060
   73MOL0     H 9840   0.645   9.301   0.966  0.7858  0.6904 -0.1217
   73MOL0     H 9841   0.199   9.365   0.879 -2.2370  0.3537 -1.4628
   73MOL0     H 9842  -0.020   9.285   0.802 -3.4212 -1.3702  2.4417
   73MOL0     H 9843  -0.249   9.213   0.718  0.3042  0.6288 -0.4297
   73MOL0     H 9844  -0.232   9.342   0.841  0.1081  0.4505 -4.3731
   73MOL0     H 9845  -0.460   9.304   0.799 -1.1953 -0.5325  0.1355
   73MOL0     H 9846  -0.412   9.266   0.972  0.2610  1.8253 -0.0703
   73MOL0     H 9847  -0.414   9.027   0.930  2.6592 -1.6875 -1.3909
   73MOL0     H 9848  -0.430   9.050   0.751 -0.2492 -2.5315  1.4901
   73MOL0     H 9849  -0.613   8.976   0.903  3.0482 -0.0084 -1.4843
   73MOL0     H 9850  -0.628   9.147   0.945 -1.2282 -2.3325  2.8257
   73MOL0     H 9851  -0.767   9.157   0.535 -2.6698  0.2381  1.5876
   73MOL0     H 9852  -0.079   9.052   1.133  2.0830 -1.5124 -0.6482
   73MOL0     H 9853   0.013   9.091   1.328 -1.0955  3.3986  1.4947
   73MOL0     H 9854   0.197   9.079   1.323  0.2024  0.5106 -1.5017
   73MOL0     H 9855   0.108   9.225   1.378 -2.6013 -1.3961  2.5060
   74MOL0     O 9856   8.959  11.245   3.173  0.8615 -0.9974 -0.7363
   74MOL0     C 9857   8.967  11.248   3.054  0.6164 -0.1044 -0.1373
   74MOL0     O 9858   8.860  11.293   2.972 -0.5032  0.7066 -0.4573
   74MOL0     C 9859   8.757  11.362   3.037 -0.7344  0.0713  0.1142
   74MOL0     C 9860   8.646  11.291   3.081  0.6403  0.7006  0.0776
   74MOL0     C 9861   8.543  11.362   3.141  0.1423  0.0555 -0.2229
   74MOL0     C 9862   8.556  11.501   3.163  0.1988 -0.6993  0.0254
   74MOL0     O 9863   8.465  11.587   3.217  0.4033 -0.1600  0.0448
   74MOL0     C 9864   8.334  11.549   3.253  0.0894  0.0185  0.0233
   74MOL0     C 9865   8.248  11.676   3.294 -0.8019  0.2817  0.8007
   74MOL0     C 9866   8.159  11.713   3.171 -0.1165  0.3387  0.0930
   74MOL0     C 9867   8.226  11.791   3.058 -0.0973 -0.2623 -0.1127
   74MOL0     C 9868   8.268  11.938   3.114 -0.8462 -0.4653  0.0887
   74MOL0     C 9869   8.283  12.028   2.992 -0.1209 -0.6095 -0.0483
   74MOL0     C 9870   8.386  11.979   2.876  0.0316  0.0252  0.2168
   74MOL0     C 9871   8.533  11.985   2.934 -0.3888  0.1476 -0.5254
   74MOL0     N 9872   8.635  11.903   2.868 -0.8284 -0.8847 -0.2938
   74MOL0     C 9873   8.620  11.775   2.826 -0.7125  0.7353  0.1542
   74MOL0     C 9874   8.735  11.744   2.765  0.2272 -1.1226  0.0111
   74MOL0     C 9875   8.777  11.608   2.719  0.4680 -0.2003 -0.2480
   74MOL0     C 9876   8.934  11.602   2.683  0.3391 -0.3104 -0.0084
   74MOL0     C 9877   8.992  11.472   2.633 -0.3179 -0.2420 -0.3236
   74MOL0     C 9878   9.139  11.477   2.616  0.6354 -0.3690  0.0796
   74MOL0     O 9879   9.162  11.370   2.525  0.0848  0.1654 -0.0945
   74MOL0     C 9880   9.296  11.361   2.481  0.1177 -0.0758  0.0545
   74MOL0     C 9881   9.324  11.265   2.377  0.2939 -0.2539  0.8584
   74MOL0     C 9882   9.455  11.241   2.333  0.1119  0.4320 -0.4931
   74MOL0     C 9883   9.559  11.315   2.386 -0.6221 -0.5509 -0.3217
   74MOL0     C 9884   9.696  11.297   2.347  0.0666 -0.1725  0.1340
   74MOL0     O 9885   9.777  11.400   2.363  0.2357  0.2959  0.3079
   74MOL0     C 9886   9.917  11.373   2.344  0.3223 -0.9679  0.3267
   74MOL0     C 9887   9.977  11.435   2.237  0.3091  0.0316  0.5638
   74MOL0     C 9888  10.115  11.428   2.230  0.3313  0.8306  0.6879
   74MOL0     C 9889  10.189  11.358   2.324 -0.1361 -0.9362 -0.8711
   74MOL0     O 9890  10.329  11.348   2.329  0.3146  0.5996  0.6617
   74MOL0     C 9891  10.406  11.409   2.232 -0.6799 -0.5916 -0.4130
   74MOL0     C 9892  10.540  11.337   2.233  0.2104  0.2565  0.2343
   74MOL0     C 9893  10.528  11.182   2.200  0.3990  0.0277 -0.1809
   74MOL0     C 9894  10.514  11.090   2.324  0.0983  0.4067  0.5524
   74MOL0     C 9895  10.477  10.945   2.288  0.0358 -0.5283  0.5556
   74MOL0     C 9896  10.326  10.908   2.319  0.4529 -0.7346  0.0523
   74MOL0     C 9897  10.295  10.765   2.279  0.1610 -0.3651 -0.4817
   74MOL0     C 9898  10.153  10.730   2.323  0.3530 -0.4468  0.0907
   74MOL0    Cl 9899  10.096  10.583   2.231  0.1198 -0.0512  0.3831
   74MOL0     C 9900  10.126  11.298   2.429  0.0535  0.7058 -0.6173
   74MOL0     C 9901   9.984  11.306   2.435  0.2584  0.4885 -0.1231
   74MOL0     O 9902   9.728  11.195   2.289  0.4969  0.2033  0.3734
   74MOL0     C 9903   9.525  11.413   2.487 -0.9511  0.4644  0.1138
   74MOL0     C 9904   9.398  11.435   2.538  0.2092 -0.3915  0.2107
   74MOL0     N 9905   8.815  11.855   2.765  1.3022 -0.0261 -0.1469
   74MOL0     N 9906   8.758  11.947   2.835  0.1778 -0.4706  0.4266
   74MOL0     C 9907   8.669  11.572   3.123  0.0856  1.0417 -0.4500
   74MOL0     C 9908   8.772  11.503   3.057 -0.3540 -1.4750 -0.2760
   74MOL0     C 9909   9.082  11.173   2.995 -0.0004  0.3703 -0.7333
   74MOL0     C 9910   9.145  11.211   2.872  0.1523 -0.0280 -0.4156
   74MOL0     C 9911   9.251  11.142   2.807  0.3372 -1.2997 -0.5650
   74MOL0     C 9912   9.305  11.032   2.867  0.3911 -0.5276 -0.1302
   74MOL0     O 9913   9.407  10.951   2.817 -0.2688  0.1803  0.7409
   74MOL0     C 9914   9.449  10.965   2.682 -0.2704 -0.8247 -0.4579
   74MOL0     C 9915   9.334  10.925   2.594 -0.3766 -0.9177  0.3793
   74MOL0     C 9916   9.371  10.805   2.505  0.0406  0.0977 -0.5286
   74MOL0     C 9917   9.243  10.738   2.463 -0.3285  0.2483 -0.3917
   74MOL0     C 9918   9.280  10.620   2.379  0.4994  0.7239 -0.2289
   74MOL0     C 9919   9.292  10.526   2.305 -0.7649 -0.2784 -0.6112
   74MOL0     C 9920   9.261  11.002   2.993 -0.0552 -0.2451 -0.2687
   74MOL0     C 9921   9.158  11.071   3.065 -0.0558 -0.2290 -0.1190
   74MOL0     C 9922   9.131  11.028   3.209  0.1819 -0.7364 -0.1833
   74MOL0     H 9923   8.631  11.187   3.056  2.4006  0.4880 -0.2229
   74MOL0     H 9924   8.458  11.299   3.163  0.5007  0.0010  1.0498
   74MOL0     H 9925   8.285  11.497   3.170  0.9488  0.4521 -0.7736
   74MOL0     H 9926   8.350  11.482   3.339  1.8470  0.1430 -0.1679
   74MOL0     H 9927   8.320  11.754   3.323  0.5942 -1.2404  1.6349
   74MOL0     H 9928   8.191  11.635   3.378 -1.3441 -1.5294 -0.3871
   74MOL0     H 9929   8.070  11.769   3.201 -0.4358 -0.7750  1.3646
   74MOL0     H 9930   8.132  11.626   3.111  4.0813 -1.7954  0.9212
   74MOL0     H 9931   8.307  11.734   3.011  0.1545 -0.2089  0.2432
   74MOL0     H 9932   8.161  11.801   2.971 -0.3528  1.6258  0.2617
   74MOL0     H 9933   8.175  11.969   3.162 -1.9219 -1.5018 -1.2487
   74MOL0     H 9934   8.352  11.947   3.184 -1.7613  1.7834  1.0090
   74MOL0     H 9935   8.184  12.043   2.948 -0.5654  1.3195  1.4525
   74MOL0     H 9936   8.320  12.126   3.026  2.0426 -1.2859 -0.2943
   74MOL0     H 9937   8.379  12.042   2.787  1.9465 -0.7965 -0.5483
   74MOL0     H 9938   8.370  11.877   2.841  1.4123  0.0472 -0.5541
   74MOL0     H 9939   8.568  12.089   2.932  1.7704 -0.5228 -0.3265
   74MOL0     H 9940   8.533  11.959   3.041  1.0418  2.0491 -0.0186
   74MOL0     H 9941   8.539  11.707   2.849 -1.8080  2.0655  0.3565
   74MOL0     H 9942   8.748  11.528   2.788  2.0399 -0.2053  0.4429
   74MOL0     H 9943   8.718  11.585   2.629  0.1983 -0.2673 -0.0541
   74MOL0     H 9944   8.956  11.684   2.614 -0.9889 -2.2694 -2.9380
   74MOL0     H 9945   8.987  11.622   2.777  0.1109 -0.2083  0.0992
   74MOL0     H 9946   8.942  11.452   2.538 -1.8379 -0.5228  0.5016
   74MOL0     H 9947   8.954  11.400   2.706  1.7891 -0.6262  0.4598
   74MOL0     H 9948   9.196  11.456   2.707  1.0302  1.0895  0.1915
   74MOL0     H 9949   9.165  11.574   2.574  4.5142 -0.9537  0.7369
   74MOL0     H 9950   9.252  11.194   2.336 -1.4843 -1.4019  5.3065
   74MOL0     H 9951   9.460  11.164   2.256 -1.3820  1.0688 -1.2648
   74MOL0     H 9952   9.915  11.481   2.162  1.3681 -1.2393 -1.1605
   74MOL0     H 9953  10.166  11.480   2.150  0.1439 -0.0778 -0.0290
   74MOL0     H 9954  10.356  11.405   2.135 -0.7572 -1.3286 -0.3515
   74MOL0     H 9955  10.425  11.514   2.256 -1.8603 -0.4704  0.0348
   74MOL0     H 9956  10.612  11.374   2.160  1.0656  0.3315  1.0990
   74MOL0     H 9957  10.588  11.359   2.329  0.7822  4.1660 -0.7682
   74MOL0     H 9958  10.447  11.168   2.128 -1.5176 -1.2064  2.0762
   74MOL0     H 9959  10.611  11.136   2.145  0.8314 -0.1665  0.6195
   74MOL0     H 9960  10.446  11.121   2.404 -0.0599 -1.5655  1.2293
   74MOL0     H 9961  10.614  11.082   2.365  1.4951 -2.0176 -2.8680
   74MOL0     H 9962  10.533  10.876   2.352 -1.9414 -1.2262  1.6414
   74MOL0     H 9963  10.506  10.941   2.183 -1.0378  0.5999  0.1899
   74MOL0     H 9964  10.312  10.911   2.427 -1.6909 -1.3247 -0.1742
   74MOL0     H 9965  10.248  10.972   2.276 -0.7759 -1.1008  1.6566
   74MOL0     H 9966  10.369  10.694   2.318 -0.5608 -1.5613 -1.2207
   74MOL0     H 9967  10.315  10.745   2.173  0.3693  1.3850 -0.8098
   74MOL0     H 9968  10.159  10.703   2.429  0.5232  3.3982  1.1878
   74MOL0     H 9969  10.084  10.812   2.305 -0.0762 -1.2380 -2.3225
   74MOL0     H 9970  10.169  11.239   2.509 -2.4982 -1.0262 -0.4016
   74MOL0     H 9971   9.933  11.253   2.514 -3.3383 -1.0775 -3.1936
   74MOL0     H 9972   9.614  11.455   2.533  1.1981 -3.3323 -0.1479
   74MOL0     H 9973   9.382  11.506   2.618 -1.3496  0.5714 -0.8868
   74MOL0     H 9974   8.653  11.676   3.149 -1.7702  0.1616  2.4561
   74MOL0     H 9975   8.858  11.565   3.032 -1.5071  0.6396  0.6772
   74MOL0     H 9976   9.085  11.282   2.816  1.1269  1.3313  0.2082
   74MOL0     H 9977   9.291  11.170   2.710 -0.0568  0.4088 -0.2634
   74MOL0     H 9978   9.536  10.903   2.660 -0.0758 -0.5259 -0.5459
   74MOL0     H 9979   9.487  11.068   2.678 -1.3991  0.1430  5.2298
   74MOL0     H 9980   9.299  10.994   2.517 -1.9666 -1.0022  0.9843
   74MOL0     H 9981   9.243  10.908   2.652  0.4911 -1.2486  1.6778
   74MOL0     H 9982   9.435  10.747   2.572  0.4709  2.4878  1.2825
   74MOL0     H 9983   9.428  10.835   2.417  1.9703 -1.1387  0.2332
   74MOL0     H 9984   9.195  10.702   2.554 -0.5192 -0.4975 -0.7786
   74MOL0     H 9985   9.185  10.811   2.405  0.1908  0.3121 -0.8355
   74MOL0     H 9986   9.302  10.453   2.227 -2.7015 -0.6675 -0.5367
   74MOL0     H 9987   9.314  10.933   3.057 -2.6071 -0.2864  2.0181
   74MOL0     H 9988   9.144  11.119   3.267 -1.3175  1.1546 -2.6332
   74MOL0     H 9989   9.034  10.983   3.233 -0.2370 -0.0307 -0.5368
   74MOL0     H 9990   9.208  10.965   3.255  1.4176  2.7833  3.0669
   75MOL0     O 9991   9.243   7.908   9.690 -0.0666  0.4893 -0.3639
   75MOL0     C 9992   9.197   7.891   9.803 -0.2883 -1.1533  0.1820
   75MOL0     O 9993   9.270   7.907   9.917 -0.2758 -0.5208  0.4081
   75MOL0     C 9994   9.399   7.950   9.911  0.4755  0.0639 -0.0887
   75MOL0     C 9995   9.446   8.082   9.935  0.5242 -0.3093  0.0529
   75MOL0     C 9996   9.585   8.113   9.916 -0.1252  0.7586  0.3584
   75MOL0     C 9997   9.677   8.009   9.894 -0.6220  0.3311 -0.3584
   75MOL0     O 9998   9.810   8.053   9.898  1.0953 -0.5260  0.4261
   75MOL0     C 9999   9.909   7.953   9.948  0.5737 -0.1753 -0.0066
   75MOL0     C10000  10.053   8.010   9.962  0.0875  0.0282  0.5037
   75MOL0     C10001  10.137   7.886   9.966 -0.5499 -0.4191 -0.2381
   75MOL0     C10002  10.287   7.927   9.994 -0.4202 -0.5204 -0.5176
   75MOL0     C10003  10.368   7.998   9.878 -0.9624  1.0717 -0.0079
   75MOL0     C10004  10.396   8.150   9.920  0.1849 -0.0691 -0.5157
   75MOL0     C10005  10.505   8.161  10.029  0.2734  0.7382 -0.6746
   75MOL0     C10006  10.639   8.175   9.958  0.2805  0.1539 -0.3517
   75MOL0     N10007  10.741   8.188  10.061  0.2573 -0.6064 -0.2905
   75MOL0     C10008  10.873   8.153  10.048  0.0562  0.0763  0.0540
   75MOL0     C10009  10.933   8.190  10.163 -0.7741 -0.0727 -0.0262
   75MOL0     C10010  11.081   8.161  10.195 -0.0817  0.5090  0.2509
   75MOL0     C10011  11.102   8.031  10.278  0.1253 -0.6701 -1.4808
   75MOL0     C10012  11.250   7.989  10.272  0.1051 -0.6113  0.8672
   75MOL0     C10013  11.358   8.095  10.311  0.0094  0.1402 -0.3489
   75MOL0     O10014  11.486   8.047  10.279 -0.9843  0.2980 -0.5384
   75MOL0     C10015  11.587   8.060  10.375 -1.3915  0.2762  0.5482
   75MOL0     C10016  11.628   8.180  10.435  0.2384  0.5178 -0.3728
   75MOL0     C10017  11.732   8.179  10.521 -0.3326 -0.0164  1.5101
   75MOL0     C10018  11.815   8.069  10.542  0.6030 -0.1498  0.1091
   75MOL0     C10019  11.941   8.078  10.621  0.1623  0.4080 -0.1071
   75MOL0     O10020  12.024   7.960  10.635  0.4714 -0.1276 -0.2950
   75MOL0     C10021  12.109   7.960  10.740  0.3732  0.1496 -0.7865
   75MOL0     C10022  12.078   8.003  10.875  0.1336  0.1665  0.6152
   75MOL0     C10023  12.167   7.978  10.971  0.1402 -0.3742 -0.3357
   75MOL0     C10024  12.295   7.932  10.941  0.8955 -0.3481 -0.4821
   75MOL0     O10025  12.377   7.919  11.040  0.7413  0.1550 -0.0698
   75MOL0     C10026  12.416   7.782  11.055 -0.1900 -0.5340  0.5329
   75MOL0     C10027  12.553   7.777  11.133  0.0416  0.0097  0.4220
   75MOL0     C10028  12.668   7.846  11.059  0.3971  0.2517 -0.4850
   75MOL0     C10029  12.805   7.812  11.116  0.0744  0.3059  0.1537
   75MOL0     C10030  12.908   7.921  11.085 -0.1294 -0.0674 -0.1005
   75MOL0     C10031  13.039   7.883  11.156  1.0469  0.0253  0.2588
   75MOL0     C10032  13.136   7.995  11.180 -0.4198 -0.2504 -0.7885
   75MOL0     C10033  13.279   7.953  11.227  0.3179  0.0748  0.5332
   75MOL0    Cl10034  13.378   8.093  11.270 -0.0510  0.3004  0.1412
   75MOL0     C10035  12.325   7.894  10.809 -1.0894  0.8812 -0.6536
   75MOL0     C10036  12.234   7.907  10.710 -0.4053  0.0811  0.0810
   75MOL0     O10037  11.960   8.186  10.689 -0.0040  0.0262  0.5376
   75MOL0     C10038  11.781   7.950  10.474 -0.1071 -0.0367  0.3795
   75MOL0     C10039  11.664   7.946  10.396 -0.0920 -0.0835  0.0305
   75MOL0     N10040  10.847   8.258  10.244 -0.3516 -0.0389  0.4315
   75MOL0     N10041  10.733   8.271  10.167  0.1401  0.4455 -0.4982
   75MOL0     C10042   9.640   7.873   9.867  0.6970 -0.4154  0.0662
   75MOL0     C10043   9.498   7.848   9.879 -0.1248 -0.3670  0.1673
   75MOL0     C10044   9.058   7.836   9.806  0.2733 -0.9514 -0.4454
   75MOL0     C10045   8.982   7.797   9.686  0.3630  0.2115 -0.6203
   75MOL0     C10046   8.854   7.738   9.694  0.4100 -0.2201  0.7926
   75MOL0     C10047   8.798   7.733   9.820  0.0963  0.8730  0.2644
   75MOL0     O10048   8.672   7.697   9.852  0.1501 -0.4898  0.6380
   75MOL0     C10049   8.585   7.668   9.743 -0.4671  0.3557  1.0533
   75MOL0     C10050   8.608   7.527   9.683 -0.7022 -0.3818 -0.6510
   75MOL0     C10051   8.488   7.477   9.598  0.6490 -0.4923 -0.2777
   75MOL0     C10052   8.445   7.566   9.484 -0.3266 -0.6788  0.1974
   75MOL0     C10053   8.558   7.621   9.402  0.6055  0.5799 -1.0822
   75MOL0     C10054   8.648   7.615   9.321  0.5510  0.6832  0.2125
   75MOL0     C10055   8.866   7.773   9.932  0.3116 -0.5057  0.6524
   75MOL0     C10056   8.990   7.827   9.938 -0.1185 -0.4036 -0.6299
   75MOL0     C10057   9.045   7.871  10.071  0.5258 -0.2925 -0.4540
   75MOL0     H10058   9.376   8.162   9.958  2.6853  1.7395 -0.1741
   75MOL0     H10059   9.625   8.213   9.930 -2.0950  1.3614  2.0869
   75MOL0     H10060   9.873   7.915  10.044  1.7696 -0.0296  0.5211
   75MOL0     H10061   9.910   7.871   9.876  0.2624  0.0370 -0.2546
   75MOL0     H10062  10.059   8.070  10.053 -0.4953 -0.5348  0.9187
   75MOL0     H10063  10.070   8.077   9.877  0.2766 -0.0495  0.4813
   75MOL0     H10064  10.134   7.832   9.871 -1.9059  1.2312 -1.2113
   75MOL0     H10065  10.112   7.825  10.053  2.1253  2.6693  2.9825
   75MOL0     H10066  10.291   7.986  10.085 -0.3827 -0.2113 -0.7182
   75MOL0     H10067  10.340   7.835  10.021  0.7259  0.1792 -0.3317
   75MOL0     H10068  10.465   7.949   9.863 -1.2093  0.2227  1.0664
   75MOL0     H10069  10.310   8.001   9.785 -2.3252  2.3915  0.8463
   75MOL0     H10070  10.431   8.204   9.832  0.9680  2.2401  1.1186
   75MOL0     H10071  10.305   8.200   9.951  0.5470  0.1631  0.1858
   75MOL0     H10072  10.502   8.075  10.097  1.1066 -0.3980 -2.0190
   75MOL0     H10073  10.484   8.255  10.082  2.3968  2.2683 -2.3557
   75MOL0     H10074  10.657   8.083   9.902  2.7766 -0.4372  1.2229
   75MOL0     H10075  10.644   8.268   9.902 -2.1827  0.5864  0.0679
   75MOL0     H10076  10.914   8.096   9.966  0.4685  0.1884  0.1802
   75MOL0     H10077  11.146   8.161  10.107  0.6058  0.6670  0.7576
   75MOL0     H10078  11.106   8.249  10.254 -2.7966  0.8410  1.0708
   75MOL0     H10079  11.077   8.045  10.383 -0.3706 -0.9244 -1.5607
   75MOL0     H10080  11.035   7.949  10.250 -1.3138 -1.5300  3.5591
   75MOL0     H10081  11.268   7.961  10.168  0.2501  2.2069  0.0421
   75MOL0     H10082  11.263   7.898  10.331  2.2796 -0.4848  0.6596
   75MOL0     H10083  11.349   8.124  10.416  0.8128  1.1631 -0.5454
   75MOL0     H10084  11.331   8.190  10.264 -2.2648 -1.4345 -2.5309
   75MOL0     H10085  11.580   8.275  10.412 -0.1406  0.6542  0.9116
   75MOL0     H10086  11.758   8.269  10.576  0.4410  0.8366 -0.1659
   75MOL0     H10087  11.987   8.057  10.902  0.3754  0.6677  0.4430
   75MOL0     H10088  12.130   7.992  11.072  0.4362 -0.5786 -0.1975
   75MOL0     H10089  12.344   7.721  11.109  0.9063 -2.6343 -0.2463
   75MOL0     H10090  12.425   7.734  10.957 -2.1448 -0.1086  0.1163
   75MOL0     H10091  12.530   7.839  11.221 -0.5592  0.5588 -0.1111
   75MOL0     H10092  12.575   7.679  11.174 -0.0604  0.8144  2.5592
   75MOL0     H10093  12.667   7.834  10.950 -0.3165  3.5293 -0.9238
   75MOL0     H10094  12.652   7.953  11.074 -2.5945  0.2829 -2.9100
   75MOL0     H10095  12.842   7.718  11.074  3.3527  2.1279 -1.3985
   75MOL0     H10096  12.812   7.800  11.225  0.9682 -2.1588 -0.1220
   75MOL0     H10097  12.873   8.018  11.121  0.1330 -0.3840  1.0629
   75MOL0     H10098  12.908   7.913  10.976 -2.5967 -1.5823 -0.0688
   75MOL0     H10099  13.020   7.824  11.247  0.6450 -1.2446 -0.6146
   75MOL0     H10100  13.089   7.804  11.099 -0.9942 -3.3353  2.6686
   75MOL0     H10101  13.090   8.060  11.256 -1.1920 -1.6618 -0.0005
   75MOL0     H10102  13.152   8.055  11.091 -0.8018  1.2249  0.0957
   75MOL0     H10103  13.264   7.899  11.321 -1.5447  0.6118  0.5658
   75MOL0     H10104  13.328   7.882  11.159 -0.4173  0.5275 -0.4860
   75MOL0     H10105  12.421   7.851  10.784 -1.7503 -2.6199  1.9863
   75MOL0     H10106  12.259   7.874  10.610  2.3866  1.3347  0.2697
   75MOL0     H10107  11.840   7.858  10.477 -2.4575 -1.6528 -0.1458
   75MOL0     H10108  11.648   7.852  10.345  1.4669 -0.0198 -0.6165
   75MOL0     H10109   9.707   7.792   9.842 -0.4123 -2.0963  2.1722
   75MOL0     H10110   9.462   7.746   9.878  2.0681 -1.2097  0.9036
   75MOL0     H10111   9.020   7.794   9.584 -0.0832  3.7871 -1.0048
   75MOL0     H10112   8.805   7.700   9.606  0.2961  0.0158  0.7545
   75MOL0     H10113   8.594   7.742   9.664 -0.0101 -0.3463  0.4310
   75MOL0     H10114   8.480   7.677   9.770 -1.0799  1.2172 -1.3774
   75MOL0     H10115   8.622   7.467   9.774  2.6347  0.6062 -0.3527
   75MOL0     H10116   8.697   7.521   9.619 -2.1761 -0.7012 -2.7428
   75MOL0     H10117   8.399   7.448   9.654 -0.0172  0.0323 -1.0519
   75MOL0     H10118   8.522   7.390   9.542 -0.1307  0.0836 -1.6897
   75MOL0     H10119   8.366   7.517   9.427 -1.1273 -0.4643  1.1049
   75MOL0     H10120   8.386   7.644   9.531 -2.6796 -1.5964 -1.0743
   75MOL0     H10121   8.733   7.604   9.257  0.7837  0.3647  0.5708
   75MOL0     H10122   8.817   7.778  10.029  1.0137  0.2433  0.9873
   75MOL0     H10123   9.086   7.972  10.068  0.8450 -0.4519 -1.7255
   75MOL0     H10124   8.966   7.887  10.144  0.2336  0.2331 -0.8860
   75MOL0     H10125   9.113   7.789  10.099 -0.5874 -1.4196 -0.9753
   76MOL0     O10126   7.850   1.094   1.953 -0.6026 -0.2176  0.4290
   76MOL0     C10127   7.787   1.020   2.021  0.1557  0.0623 -0.8419
   76MOL0     O10128   7.839   0.937   2.121  0.0565 -0.1417 -0.6965
   76MOL0     C10129   7.969   0.930   2.143  1.4757 -0.3337  0.0491
   76MOL0     C10130   8.063   0.925   2.037  0.0971 -0.3849  0.1479
   76MOL0     C10131   8.196   0.899   2.068 -0.2342 -0.5572 -0.2785
   76MOL0     C10132   8.238   0.872   2.204  0.2004  0.4000  0.3829
   76MOL0     O10133   8.362   0.833   2.243 -0.2165  0.5847  0.5280
   76MOL0     C10134   8.479   0.854   2.162  1.2225  0.9169  0.4112
   76MOL0     C10135   8.603   0.875   2.240 -0.8772  0.4238  0.0043
   76MOL0     C10136   8.600   0.977   2.360 -0.9841 -0.0018  0.3464
   76MOL0     C10137   8.737   1.000   2.419 -1.1556  0.1985  0.5917
   76MOL0     C10138   8.821   0.865   2.446 -0.7463 -0.1377  0.5316
   76MOL0     C10139   8.973   0.887   2.490  0.1556 -0.4885  0.4321
   76MOL0     C10140   9.031   0.755   2.550 -0.2131  0.4977  0.0334
   76MOL0     C10141   9.178   0.767   2.590  0.2679  0.7818 -0.3950
   76MOL0     N10142   9.217   0.643   2.666 -0.1562  0.8059 -0.5449
   76MOL0     C10143   9.178   0.612   2.794  0.0939  0.2177 -0.3273
   76MOL0     C10144   9.228   0.485   2.816 -0.6069 -0.3711 -0.2086
   76MOL0     C10145   9.218   0.390   2.932  0.6105  0.4160  0.3299
   76MOL0     C10146   9.222   0.468   3.068  0.2843  0.4317  0.2340
   76MOL0     C10147   9.107   0.444   3.159 -0.2454 -0.0220 -0.1100
   76MOL0     C10148   8.986   0.522   3.125 -0.9629  0.1424  0.1867
   76MOL0     O10149   8.893   0.510   3.230  0.5963 -1.4207 -1.0523
   76MOL0     C10150   8.792   0.608   3.245 -0.0716  0.5816 -0.4555
   76MOL0     C10151   8.775   0.720   3.166  0.6592  0.8198 -0.2635
   76MOL0     C10152   8.670   0.810   3.195 -0.2650  0.9358 -0.0808
   76MOL0     C10153   8.584   0.787   3.299 -0.1873 -0.2986  0.7497
   76MOL0     C10154   8.471   0.872   3.327  0.1202 -0.1035 -0.0455
   76MOL0     O10155   8.397   0.851   3.441  0.3313 -0.2003 -0.7773
   76MOL0     C10156   8.279   0.916   3.471  1.6161 -0.4623  0.7165
   76MOL0     C10157   8.167   0.843   3.519 -0.0714 -0.0702  0.0282
   76MOL0     C10158   8.061   0.910   3.566 -0.2484 -0.2344 -0.4601
   76MOL0     C10159   8.050   1.050   3.577  0.0887 -0.0418  0.0466
   76MOL0     O10160   7.934   1.098   3.627 -0.2022 -0.2909 -0.4152
   76MOL0     C10161   7.931   1.241   3.640 -0.4820  0.0260  0.6467
   76MOL0     C10162   7.809   1.295   3.696 -0.3900 -0.6418 -0.0353
   76MOL0     C10163   7.689   1.236   3.622  0.7256 -0.0648  0.2352
   76MOL0     C10164   7.554   1.299   3.664 -0.1545  0.1717  0.3601
   76MOL0     C10165   7.441   1.209   3.621  0.2684  0.3560 -0.2786
   76MOL0     C10166   7.295   1.249   3.665  0.7629  0.2806 -0.1927
   76MOL0     C10167   7.262   1.154   3.777 -0.1609  0.5363 -0.1412
   76MOL0     C10168   7.160   1.216   3.877  0.0574  0.2286  1.3844
   76MOL0    Cl10169   7.017   1.277   3.802  0.4329  0.3968  0.0628
   76MOL0     C10170   8.161   1.123   3.527 -0.4404 -0.7537  0.7880
   76MOL0     C10171   8.276   1.060   3.473  0.2996  0.2513 -0.8274
   76MOL0     O10172   8.437   0.962   3.244 -0.8240 -0.0915  0.5344
   76MOL0     C10173   8.610   0.674   3.382  0.9538  0.6728  0.4332
   76MOL0     C10174   8.712   0.588   3.353  0.6371  0.0519 -0.2055
   76MOL0     N10175   9.294   0.442   2.701  1.0006 -0.5560 -0.2082
   76MOL0     N10176   9.297   0.542   2.616 -0.2936  0.5721 -0.2957
   76MOL0     C10177   8.143   0.883   2.300  0.4698 -0.3697 -0.3139
   76MOL0     C10178   8.008   0.904   2.271 -0.2473  0.7865 -0.0616
   76MOL0     C10179   7.641   1.007   2.006  0.9329 -0.4938 -0.4664
   76MOL0     C10180   7.572   0.909   2.080  0.6089 -0.1142 -0.2674
   76MOL0     C10181   7.440   0.874   2.046 -0.1913 -0.1742 -0.0974
   76MOL0     C10182   7.369   0.945   1.955 -0.2066  0.6989 -0.5764
   76MOL0     O10183   7.240   0.915   1.929  0.3252  0.0135  1.7874
   76MOL0     C10184   7.184   0.785   1.970  0.8334 -0.0586  0.2358
   76MOL0     C10185   7.054   0.762   1.891 -0.1097  0.1259  0.5958
   76MOL0     C10186   7.057   0.776   1.745 -0.4820 -0.7781 -0.4094
   76MOL0     C10187   6.921   0.823   1.697  0.0368  0.0523 -0.3722
   76MOL0     C10188   6.937   0.965   1.651 -0.3201 -0.4599 -0.2409
   76MOL0     C10189   6.963   1.084   1.619  0.3635  0.2933 -0.2999
   76MOL0     C10190   7.424   1.059   1.902  0.7201  0.3470 -0.0566
   76MOL0     C10191   7.562   1.087   1.917 -1.1086 -0.7061 -0.7266
   76MOL0     C10192   7.620   1.192   1.821 -0.3883 -0.0913  0.1741
   76MOL0     H10193   8.030   0.939   1.935  0.2486 -1.1891 -0.0158
   76MOL0     H10194   8.268   0.893   1.986  0.8799 -3.7084  0.7830
   76MOL0     H10195   8.487   0.757   2.113  1.7075  0.1998  1.8628
   76MOL0     H10196   8.469   0.935   2.089  1.2434  0.3049 -0.2845
   76MOL0     H10197   8.683   0.900   2.170 -1.1854  1.6655  0.0743
   76MOL0     H10198   8.617   0.776   2.285 -1.3657  0.4834  0.2918
   76MOL0     H10199   8.534   0.952   2.443 -1.3448 -1.3820 -0.3350
   76MOL0     H10200   8.579   1.077   2.321 -0.5818 -0.0190  0.0853
   76MOL0     H10201   8.795   1.078   2.371 -1.2786  1.8665  2.9867
   76MOL0     H10202   8.726   1.038   2.521  3.3496 -3.2152  2.7091
   76MOL0     H10203   8.763   0.803   2.515 -0.1269  0.3436  1.5046
   76MOL0     H10204   8.831   0.810   2.351  0.4417 -1.0698  1.1565
   76MOL0     H10205   9.030   0.924   2.404  0.7195  0.9188  1.3736
   76MOL0     H10206   9.001   0.969   2.557  1.6482 -2.5582  2.5009
   76MOL0     H10207   9.019   0.677   2.475  0.8808  1.1930 -0.8967
   76MOL0     H10208   8.977   0.728   2.641 -0.8661 -1.2516 -0.8200
   76MOL0     H10209   9.241   0.781   2.502  0.8005  1.3644  0.0599
   76MOL0     H10210   9.188   0.850   2.661 -0.5116  0.1185  0.5050
   76MOL0     H10211   9.121   0.682   2.853 -0.8616  0.4271 -1.4571
   76MOL0     H10212   9.130   0.326   2.916  0.8750 -0.9754  3.6133
   76MOL0     H10213   9.300   0.319   2.942 -0.5372 -0.8658  0.8996
   76MOL0     H10214   9.305   0.437   3.132 -2.0244  0.1759  3.3192
   76MOL0     H10215   9.228   0.577   3.055  0.3632  0.2092 -1.8341
   76MOL0     H10216   9.132   0.466   3.263  2.5145  2.9963 -1.2612
   76MOL0     H10217   9.081   0.337   3.153  0.6917 -0.2036 -1.4578
   76MOL0     H10218   8.947   0.475   3.034 -0.4853  0.2204 -0.0629
   76MOL0     H10219   9.014   0.627   3.115 -1.6658  0.6703  3.0327
   76MOL0     H10220   8.828   0.738   3.073 -0.6897 -0.2127 -1.2842
   76MOL0     H10221   8.655   0.890   3.124  0.0331  2.6161  1.6722
   76MOL0     H10222   8.179   0.736   3.502 -0.9509 -0.0388 -0.8522
   76MOL0     H10223   7.981   0.848   3.605 -0.4242 -0.2776 -0.8863
   76MOL0     H10224   7.995   1.276   3.722 -2.4693 -0.6705  2.5822
   76MOL0     H10225   7.961   1.284   3.544 -0.6989 -2.7302 -0.7381
   76MOL0     H10226   7.803   1.278   3.804  2.3876 -1.6030  0.0352
   76MOL0     H10227   7.808   1.404   3.687  2.2048 -0.5050  0.6367
   76MOL0     H10228   7.714   1.239   3.515 -0.9238 -0.3697 -0.1969
   76MOL0     H10229   7.699   1.127   3.632  0.3391 -0.0793  0.5034
   76MOL0     H10230   7.538   1.395   3.613  0.0571  0.0982  0.1536
   76MOL0     H10231   7.553   1.326   3.770  2.0384  0.9972  0.2124
   76MOL0     H10232   7.447   1.101   3.638 -0.9962  0.0699 -1.4686
   76MOL0     H10233   7.447   1.211   3.512  2.5205 -0.1454 -0.2124
   76MOL0     H10234   7.287   1.348   3.710 -2.5004 -0.2909  0.7285
   76MOL0     H10235   7.224   1.243   3.582  1.1397  1.3628 -0.6145
   76MOL0     H10236   7.352   1.152   3.839 -0.0730  2.8665 -0.1278
   76MOL0     H10237   7.234   1.055   3.741  1.1059 -0.4164  1.3493
   76MOL0     H10238   7.132   1.146   3.956 -1.5935 -0.4303  0.2768
   76MOL0     H10239   7.197   1.312   3.912  0.2254  1.8336 -2.6288
   76MOL0     H10240   8.163   1.232   3.530 -0.7247 -0.6107 -1.6757
   76MOL0     H10241   8.350   1.122   3.424 -0.0499 -0.4708 -2.3045
   76MOL0     H10242   8.556   0.642   3.471  1.2328 -0.1429  0.3210
   76MOL0     H10243   8.735   0.507   3.421  0.5399  0.5821  0.4699
   76MOL0     H10244   8.177   0.868   2.402  1.2491 -2.6404 -0.8573
   76MOL0     H10245   7.935   0.908   2.351 -2.1130  1.5821 -1.7155
   76MOL0     H10246   7.623   0.831   2.135  1.6430 -0.1479 -1.2364
   76MOL0     H10247   7.411   0.782   2.095  0.0245 -1.0064 -1.4765
   76MOL0     H10248   7.173   0.769   2.077 -0.3250 -5.7861 -0.3994
   76MOL0     H10249   7.261   0.714   1.936  0.2341 -0.2381 -0.8114
   76MOL0     H10250   6.990   0.845   1.923  0.9838  1.4040 -0.4174
   76MOL0     H10251   7.019   0.664   1.925  0.8999 -0.6329 -0.4881
   76MOL0     H10252   7.102   0.685   1.705  3.4538  1.3586 -1.3032
   76MOL0     H10253   7.136   0.850   1.730  2.5046 -2.6629  4.0709
   76MOL0     H10254   6.899   0.755   1.614  2.5312 -2.8357  1.1352
   76MOL0     H10255   6.831   0.807   1.756  0.4751 -0.3667  0.1912
   76MOL0     H10256   6.981   1.187   1.593 -2.2398  0.3387 -2.4004
   76MOL0     H10257   7.371   1.108   1.821  0.9515  1.7322  0.5935
   76MOL0     H10258   7.545   1.246   1.763 -0.5414 -0.2857  0.1931
   76MOL0     H10259   7.680   1.271   1.867 -0.4794  1.6958 -2.5391
   76MOL0     H10260   7.689   1.139   1.754  0.2503 -0.9876  1.4956
   77MOL0     O10261   4.629   7.743   2.038  0.3272  0.0790  0.9899
   77MOL0     C10262   4.679   7.798   2.141  0.9685 -0.1341 -0.0740
   77MOL0     O10263   4.806   7.842   2.154  0.2607 -0.2646 -0.3626
   77MOL0     C10264   4.891   7.825   2.050  0.7416  0.0577 -0.0353
   77MOL0     C10265   4.916   7.923   1.954  0.8416  0.0924 -0.9920
   77MOL0     C10266   5.005   7.907   1.850  0.2700 -0.0449 -0.1001
   77MOL0     C10267   5.085   7.788   1.842 -0.1250 -0.5475  0.6045
   77MOL0     O10268   5.178   7.764   1.749 -0.5758  0.0966  0.1147
   77MOL0     C10269   5.212   7.867   1.656 -0.8430 -0.1993 -0.1176
   77MOL0     C10270   5.287   7.978   1.718 -0.1844  0.5103  0.5429
   77MOL0     C10271   5.376   8.043   1.613 -0.5235  0.1280  0.8342
   77MOL0     C10272   5.466   8.162   1.660 -0.3003  0.2164  0.1913
   77MOL0     C10273   5.598   8.197   1.583  0.2982  0.4089  0.4008
   77MOL0     C10274   5.590   8.244   1.434 -0.2295 -0.6729 -0.1920
   77MOL0     C10275   5.736   8.267   1.393  0.5560 -0.6903 -0.5010
   77MOL0     C10276   5.753   8.279   1.248  0.1083  0.4801 -0.7778
   77MOL0     N10277   5.890   8.308   1.203 -0.4037 -0.2877 -0.3836
   77MOL0     C10278   6.011   8.235   1.213  0.7116  0.1700 -0.0032
   77MOL0     C10279   6.104   8.310   1.143  0.4034  0.0098  0.8739
   77MOL0     C10280   6.233   8.246   1.100  0.3112 -0.2543  0.6675
   77MOL0     C10281   6.359   8.279   1.179  0.2771 -0.0374 -0.0534
   77MOL0     C10282   6.495   8.263   1.093  0.3758 -0.3043 -0.6035
   77MOL0     C10283   6.511   8.360   0.975 -0.4158  0.1233  0.1524
   77MOL0     O10284   6.639   8.328   0.906 -0.3437 -0.5333  0.6574
   77MOL0     C10285   6.759   8.390   0.940  0.4501  0.3958 -0.8743
   77MOL0     C10286   6.874   8.356   0.867 -0.4022  0.5349 -0.1259
   77MOL0     C10287   6.997   8.423   0.892  0.1589 -0.1206  0.3531
   77MOL0     C10288   7.015   8.519   0.996  0.4975  0.2960  0.0907
   77MOL0     C10289   7.149   8.570   1.032  0.4897 -0.2853  0.8203
   77MOL0     O10290   7.180   8.587   1.166  0.2535 -0.9645 -0.4815
   77MOL0     C10291   7.298   8.648   1.204  0.4208 -0.3386 -0.1547
   77MOL0     C10292   7.337   8.771   1.159 -0.1555 -0.4752 -0.3145
   77MOL0     C10293   7.455   8.831   1.212 -1.1402  0.9166  0.4934
   77MOL0     C10294   7.544   8.749   1.294  0.4337 -1.0508 -0.2828
   77MOL0     O10295   7.674   8.789   1.322 -0.4764  0.3641  0.5096
   77MOL0     C10296   7.726   8.916   1.279 -0.0299 -0.0748  0.6083
   77MOL0     C10297   7.862   8.938   1.349  0.1967  0.0622  0.5264
   77MOL0     C10298   7.960   8.819   1.326  0.0429  0.9146  0.3451
   77MOL0     C10299   8.034   8.834   1.191 -0.2850 -0.3954 -0.1755
   77MOL0     C10300   8.134   8.708   1.157  0.7012  0.2020 -0.7443
   77MOL0     C10301   8.185   8.693   1.012 -0.8910  0.6475 -0.6715
   77MOL0     C10302   8.251   8.553   0.986 -0.2842 -0.3639  0.7176
   77MOL0     C10303   8.257   8.520   0.848 -0.2282  0.4685  0.3703
   77MOL0    Cl10304   8.314   8.364   0.821  0.1264 -0.1387  0.4110
   77MOL0     C10305   7.493   8.629   1.347  0.0813  0.4431  0.3730
   77MOL0     C10306   7.372   8.576   1.291 -0.0942  0.0911 -0.2182
   77MOL0     O10307   7.219   8.600   0.937 -0.6420  0.6332 -1.0741
   77MOL0     C10308   6.899   8.551   1.067 -0.9981 -0.0420 -0.3064
   77MOL0     C10309   6.778   8.478   1.046  0.9191  0.6398 -1.0422
   77MOL0     N10310   6.041   8.425   1.094 -0.7076  0.2168 -0.0271
   77MOL0     N10311   5.916   8.423   1.130 -0.5465 -0.1796 -0.5910
   77MOL0     C10312   5.051   7.682   1.928 -0.0339 -0.0718 -0.3266
   77MOL0     C10313   4.964   7.701   2.034  1.0388  0.7642  0.3466
   77MOL0     C10314   4.597   7.828   2.260  0.9602 -0.2549 -0.0433
   77MOL0     C10315   4.632   7.938   2.341  0.7922  0.4509  0.0764
   77MOL0     C10316   4.554   7.972   2.450 -0.3282 -0.1434  0.1147
   77MOL0     C10317   4.428   7.914   2.473 -0.7028  0.0687 -0.1904
   77MOL0     O10318   4.332   7.949   2.559 -0.3436 -0.3202 -0.1948
   77MOL0     C10319   4.321   8.081   2.609 -0.3373 -0.3306 -0.8560
   77MOL0     C10320   4.313   8.187   2.495  0.0004  0.3713  0.6097
   77MOL0     C10321   4.186   8.186   2.407  0.4547  0.3428 -0.0820
   77MOL0     C10322   4.056   8.188   2.498  0.5205 -0.7649  1.1641
   77MOL0     C10323   3.953   8.244   2.406 -1.1836 -0.0401  0.9668
   77MOL0     C10324   3.866   8.299   2.334 -0.9625  0.4306  0.3186
   77MOL0     C10325   4.389   7.802   2.392 -0.0034  0.0036 -1.5580
   77MOL0     C10326   4.477   7.757   2.294 -1.1488 -0.2822  0.8275
   77MOL0     C10327   4.424   7.644   2.216  0.0890  0.3925  0.7644
   77MOL0     H10328   4.871   8.017   1.984 -2.4053 -2.0581  1.6546
   77MOL0     H10329   5.016   7.992   1.784 -2.6068  2.0777  1.9044
   77MOL0     H10330   5.271   7.821   1.577  0.6795  1.8285 -0.2531
   77MOL0     H10331   5.129   7.914   1.601  0.9955  1.8129 -1.3348
   77MOL0     H10332   5.351   7.934   1.795  2.7188 -1.2277 -2.6068
   77MOL0     H10333   5.220   8.048   1.768 -0.1411 -1.0942  3.0497
   77MOL0     H10334   5.313   8.086   1.534  0.4516  0.2124  0.0844
   77MOL0     H10335   5.440   7.971   1.561  0.8909  0.6456  1.7990
   77MOL0     H10336   5.396   8.246   1.664  0.0991  0.5482  0.2811
   77MOL0     H10337   5.495   8.148   1.764  2.7685  1.7364 -0.3408
   77MOL0     H10338   5.646   8.276   1.641 -3.1689  0.2579  3.8151
   77MOL0     H10339   5.658   8.106   1.588 -2.2578 -1.4058  0.1593
   77MOL0     H10340   5.545   8.163   1.376 -0.8619 -0.4629 -0.0010
   77MOL0     H10341   5.527   8.333   1.427  0.8163  0.3181  1.8613
   77MOL0     H10342   5.784   8.171   1.413 -0.3389 -1.6928 -2.7379
   77MOL0     H10343   5.782   8.348   1.449  1.4079 -1.1380 -0.5237
   77MOL0     H10344   5.727   8.181   1.207  0.6675 -0.4919  1.0608
   77MOL0     H10345   5.678   8.351   1.213 -2.4573 -0.4926  2.1858
   77MOL0     H10346   6.032   8.134   1.247  3.2745  0.3289 -0.9257
   77MOL0     H10347   6.221   8.138   1.098 -2.3103 -0.0416  0.8302
   77MOL0     H10348   6.245   8.271   0.994 -2.6527 -1.3854 -0.0301
   77MOL0     H10349   6.357   8.379   1.224 -1.5273  0.2714 -0.7042
   77MOL0     H10350   6.351   8.208   1.262 -2.3759  1.7828  1.4214
   77MOL0     H10351   6.487   8.162   1.050  1.2764 -0.7352  0.1895
   77MOL0     H10352   6.584   8.262   1.158 -0.0809  2.8884  0.2354
   77MOL0     H10353   6.508   8.465   1.002 -0.7850  0.2267 -0.2824
   77MOL0     H10354   6.439   8.346   0.894  0.9654  2.2688 -1.5394
   77MOL0     H10355   6.881   8.286   0.784  1.2227 -0.6694  0.9553
   77MOL0     H10356   7.088   8.392   0.842 -0.1310 -1.2977  0.5468
   77MOL0     H10357   7.270   8.826   1.094  1.6725  1.3288 -0.7631
   77MOL0     H10358   7.474   8.934   1.184  0.2976  0.6522  0.4358
   77MOL0     H10359   7.729   8.920   1.169 -2.8934  1.1660  0.4825
   77MOL0     H10360   7.662   8.995   1.318  1.7495  1.0749  1.3261
   77MOL0     H10361   7.891   9.033   1.302  0.5846 -1.3368 -2.2535
   77MOL0     H10362   7.844   8.951   1.456  0.6702  1.3095  0.4729
   77MOL0     H10363   8.037   8.816   1.402 -3.1533 -1.1196  3.8608
   77MOL0     H10364   7.906   8.724   1.317 -1.9819  1.9895  0.3592
   77MOL0     H10365   8.098   8.922   1.190 -1.8644  0.8066  0.3980
   77MOL0     H10366   7.953   8.836   1.117 -1.6807 -3.5455  1.0886
   77MOL0     H10367   8.080   8.617   1.186 -0.7929  0.9896 -0.9263
   77MOL0     H10368   8.223   8.713   1.220  1.8278  0.7171 -2.3189
   77MOL0     H10369   8.101   8.712   0.945 -2.7604  0.6964  1.5817
   77MOL0     H10370   8.270   8.761   0.998 -0.9016  1.4811  2.5045
   77MOL0     H10371   8.186   8.481   1.037  1.4558 -1.7932  1.0261
   77MOL0     H10372   8.351   8.545   1.031  1.0155  3.1488 -1.1976
   77MOL0     H10373   8.154   8.527   0.814 -0.6514  1.4289  1.7882
   77MOL0     H10374   8.320   8.589   0.791 -0.3937 -1.3191 -2.1697
   77MOL0     H10375   7.552   8.576   1.421  0.8295 -0.6913 -0.9958
   77MOL0     H10376   7.330   8.484   1.330  0.4906  0.2427  0.8099
   77MOL0     H10377   6.884   8.634   1.135 -2.1222 -0.9143  0.5722
   77MOL0     H10378   6.694   8.501   1.111 -0.8035  0.0832 -2.9911
   77MOL0     H10379   5.081   7.578   1.919  3.7108  0.5528  2.6082
   77MOL0     H10380   4.932   7.621   2.100  0.6432 -0.5572 -1.3574
   77MOL0     H10381   4.702   8.016   2.312  0.2820  0.5540 -0.9241
   77MOL0     H10382   4.597   8.050   2.513 -0.8562 -1.1941  1.8711
   77MOL0     H10383   4.418   8.103   2.654  0.1446 -2.2010 -0.9056
   77MOL0     H10384   4.244   8.096   2.686  1.6609  0.2205  1.1519
   77MOL0     H10385   4.398   8.189   2.426  0.6681  0.1221  1.4054
   77MOL0     H10386   4.322   8.284   2.545 -0.2266  1.8823 -2.1011
   77MOL0     H10387   4.186   8.092   2.350 -1.4094 -0.2323  0.7969
   77MOL0     H10388   4.184   8.275   2.344 -0.9532 -0.8999 -1.9197
   77MOL0     H10389   4.045   8.087   2.540  1.7828 -0.9313  1.1642
   77MOL0     H10390   4.060   8.246   2.590 -4.2514 -0.6553  1.5403
   77MOL0     H10391   3.790   8.342   2.273 -0.0186 -1.4960 -2.3745
   77MOL0     H10392   4.293   7.753   2.403  0.5477 -0.6828  0.6093
   77MOL0     H10393   4.395   7.670   2.114 -1.9285 -0.9024  0.9625
   77MOL0     H10394   4.511   7.578   2.223 -1.0246 -1.0166  2.1720
   77MOL0     H10395   4.342   7.588   2.263 -0.3384 -1.3214 -1.8071
   78MOL0     O10396   0.092   7.613   8.805  0.0340 -0.4988 -0.0440
   78MOL0     C10397   0.034   7.557   8.712 -0.4686  1.0917  0.2708
   78MOL0     O10398   0.075   7.469   8.616  0.0514 -0.0209 -0.4852
   78MOL0     C10399   0.197   7.416   8.614 -0.7092  0.0785 -0.5718
   78MOL0     C10400   0.225   7.324   8.511 -0.3161 -0.1605  0.0449
   78MOL0     C10401   0.352   7.269   8.495  0.1034  0.9799 -0.4611
   78MOL0     C10402   0.456   7.289   8.588  0.0535 -0.3255  0.7114
   78MOL0     O10403   0.568   7.216   8.573  0.2461  0.7609  0.2983
   78MOL0     C10404   0.695   7.278   8.562  0.5195 -0.3320  0.4489
   78MOL0     C10405   0.796   7.184   8.489  0.2560 -0.8286  0.5929
   78MOL0     C10406   0.780   7.194   8.338  0.5898 -0.1153  0.2118
   78MOL0     C10407   0.886   7.092   8.282 -0.4861 -0.6399 -0.1409
   78MOL0     C10408   0.935   7.140   8.151 -0.1895 -0.3386  0.0785
   78MOL0     C10409   1.068   7.212   8.150 -0.3974 -0.4462 -0.4503
   78MOL0     C10410   1.049   7.370   8.144 -0.6787 -0.0720 -1.1222
   78MOL0     C10411   1.156   7.454   8.218  0.5675 -0.3243  0.5235
   78MOL0     N10412   1.175   7.425   8.363 -0.1274  0.1542  0.1693
   78MOL0     C10413   1.248   7.321   8.421 -0.9535  0.2901  0.3353
   78MOL0     C10414   1.243   7.344   8.560 -0.3995  0.7136  0.9088
   78MOL0     C10415   1.296   7.269   8.675 -0.2980  0.5645 -0.3090
   78MOL0     C10416   1.187   7.217   8.772  0.6681  0.0351 -0.0632
   78MOL0     C10417   1.223   7.151   8.902 -0.0203 -0.1568 -0.1205
   78MOL0     C10418   1.347   7.060   8.905  0.3803 -0.1587 -0.2429
   78MOL0     O10419   1.337   6.933   8.837  0.2716 -0.2875 -0.0094
   78MOL0     C10420   1.455   6.881   8.785 -0.1447 -0.0026  0.8736
   78MOL0     C10421   1.585   6.905   8.839 -0.1158 -0.8097  0.6754
   78MOL0     C10422   1.706   6.854   8.779 -0.3985  0.3287  0.0713
   78MOL0     C10423   1.696   6.781   8.649 -0.1692 -0.0874  0.4142
   78MOL0     C10424   1.803   6.756   8.562 -0.3252  0.5951  0.0430
   78MOL0     O10425   1.904   6.837   8.585  1.2906 -0.5238  0.3578
   78MOL0     C10426   2.026   6.808   8.529  0.2724 -0.3170 -0.6660
   78MOL0     C10427   2.043   6.806   8.386 -0.1907  1.0483 -0.2670
   78MOL0     C10428   2.171   6.755   8.334  0.0559  0.4048 -0.1446
   78MOL0     C10429   2.280   6.735   8.417  0.0912  0.2598 -0.7599
   78MOL0     O10430   2.391   6.695   8.348 -0.2140 -0.0443  0.3943
   78MOL0     C10431   2.518   6.711   8.411 -0.5453  0.4708 -0.5636
   78MOL0     C10432   2.612   6.730   8.294 -0.0630 -0.6534  0.6083
   78MOL0     C10433   2.761   6.699   8.331  0.6482  0.4931 -0.2442
   78MOL0     C10434   2.853   6.767   8.223 -0.1555 -0.1485 -0.4584
   78MOL0     C10435   2.988   6.710   8.224 -0.5329  0.5902  0.3993
   78MOL0     C10436   3.065   6.744   8.348  0.6391 -0.1190  0.5451
   78MOL0     C10437   3.194   6.666   8.358 -0.6511  0.0594 -0.0019
   78MOL0     C10438   3.265   6.646   8.492 -0.0891 -0.0340  0.7399
   78MOL0    Cl10439   3.323   6.814   8.547  0.1366 -0.4595  0.1991
   78MOL0     C10440   2.266   6.760   8.550  0.0608 -0.7420 -0.8186
   78MOL0     C10441   2.139   6.796   8.608 -0.2929 -0.7711 -0.1158
   78MOL0     O10442   1.810   6.662   8.481 -0.0571 -0.8476 -0.3233
   78MOL0     C10443   1.562   6.755   8.600 -0.0456 -0.8064 -0.7510
   78MOL0     C10444   1.448   6.803   8.670 -0.0417  0.0675 -0.1041
   78MOL0     N10445   1.182   7.464   8.581  0.0926 -0.0552 -0.6501
   78MOL0     N10446   1.140   7.510   8.465 -0.0192 -0.4724 -0.0125
   78MOL0     C10447   0.431   7.372   8.689  0.3803 -0.1783  0.2043
   78MOL0     C10448   0.308   7.446   8.698 -0.5725  0.0873  1.4199
   78MOL0     C10449  -0.117   7.586   8.716  0.0104  0.5085  0.0807
   78MOL0     C10450  -0.160   7.716   8.743  0.2949  0.6556  0.1800
   78MOL0     C10451  -0.293   7.759   8.734  0.2148 -0.7890  0.0095
   78MOL0     C10452  -0.387   7.662   8.710  0.0669  0.2196 -0.4060
   78MOL0     O10453  -0.511   7.709   8.740 -0.2508 -0.2815 -0.2731
   78MOL0     C10454  -0.629   7.643   8.701 -0.2862 -0.3963  0.1631
   78MOL0     C10455  -0.715   7.756   8.658  0.3971 -0.1792  0.1941
   78MOL0     C10456  -0.841   7.698   8.581  0.4010  0.5193  0.3606
   78MOL0     C10457  -0.893   7.803   8.480  0.5847 -0.0618 -0.3791
   78MOL0     C10458  -0.955   7.914   8.551  0.1897  0.6322  0.4024
   78MOL0     C10459  -1.002   8.019   8.608  0.9243  0.7954 -1.0046
   78MOL0     C10460  -0.350   7.525   8.692 -0.9418  0.7612 -0.1941
   78MOL0     C10461  -0.215   7.491   8.687 -0.6639  0.4900 -0.0632
   78MOL0     C10462  -0.179   7.349   8.646 -0.5538  0.3656  0.8870
   78MOL0     H10463   0.143   7.298   8.444 -1.8996  2.6038  0.7564
   78MOL0     H10464   0.354   7.198   8.414 -2.3409 -0.5264  0.6705
   78MOL0     H10465   0.687   7.373   8.508  1.0746 -0.4393  0.1798
   78MOL0     H10466   0.725   7.278   8.667 -1.8579 -0.0704  1.1991
   78MOL0     H10467   0.781   7.082   8.525  1.1846 -0.9067  0.7720
   78MOL0     H10468   0.895   7.219   8.519 -0.0256 -0.8077  1.5265
   78MOL0     H10469   0.805   7.292   8.297  1.3809  0.0760  1.1015
   78MOL0     H10470   0.680   7.163   8.308 -0.7739  0.4745  3.6594
   78MOL0     H10471   0.976   7.074   8.341  1.3739  2.8277 -1.6229
   78MOL0     H10472   0.840   6.994   8.268  2.6701 -2.2727  0.0746
   78MOL0     H10473   0.958   7.050   8.093  0.4252 -0.5512  0.6343
   78MOL0     H10474   0.861   7.199   8.095 -1.9981 -1.3401  1.3070
   78MOL0     H10475   1.134   7.173   8.228  0.4290 -1.3391 -1.5493
   78MOL0     H10476   1.115   7.182   8.056  1.2911  1.0339 -0.1414
   78MOL0     H10477   0.947   7.396   8.173 -0.1582 -0.1800  0.9154
   78MOL0     H10478   1.075   7.386   8.039  3.7093 -2.2317 -0.5933
   78MOL0     H10479   1.243   7.420   8.162 -0.4422 -2.5988  0.2240
   78MOL0     H10480   1.142   7.562   8.210 -2.8161 -0.6083  1.0079
   78MOL0     H10481   1.302   7.238   8.376 -2.0537 -1.5753  2.2296
   78MOL0     H10482   1.368   7.190   8.652  1.9879  2.8135 -1.3078
   78MOL0     H10483   1.354   7.332   8.742  2.4071 -0.9221 -1.0690
   78MOL0     H10484   1.115   7.296   8.798 -1.2755 -1.1167 -1.6908
   78MOL0     H10485   1.128   7.149   8.710  0.5581 -0.2265  0.3235
   78MOL0     H10486   1.132   7.100   8.935 -2.1786  1.3936 -3.1898
   78MOL0     H10487   1.249   7.238   8.962  0.6745  1.3374 -2.4417
   78MOL0     H10488   1.365   7.051   9.013  1.4289  0.7134 -0.3303
   78MOL0     H10489   1.427   7.120   8.862 -0.7769  1.1165 -0.6505
   78MOL0     H10490   1.600   6.968   8.926  1.5673  1.2081 -0.9655
   78MOL0     H10491   1.800   6.862   8.834  0.5983 -1.8806 -1.1886
   78MOL0     H10492   1.964   6.821   8.313  0.4417  3.8144 -0.4664
   78MOL0     H10493   2.176   6.721   8.231  0.0131  0.3428 -0.1260
   78MOL0     H10494   2.503   6.797   8.478 -1.3187 -1.0831  1.3550
   78MOL0     H10495   2.535   6.621   8.471 -0.0807  0.1857 -1.1227
   78MOL0     H10496   2.581   6.660   8.216  1.6399 -1.4805  0.6245
   78MOL0     H10497   2.606   6.837   8.270 -1.7381 -1.0211 -0.8728
   78MOL0     H10498   2.787   6.753   8.423  3.7636  0.3359 -0.9396
   78MOL0     H10499   2.781   6.592   8.335  1.2327  0.5989 -0.1858
   78MOL0     H10500   2.882   6.868   8.255  2.9345 -1.9189  3.0814
   78MOL0     H10501   2.815   6.761   8.121 -4.5239 -2.1481  1.0380
   78MOL0     H10502   3.045   6.739   8.136  0.5181  0.3185  0.9671
   78MOL0     H10503   2.985   6.601   8.217 -3.1516  0.6737 -1.3309
   78MOL0     H10504   3.084   6.851   8.356 -0.3071  0.2679 -1.6292
   78MOL0     H10505   3.006   6.710   8.434  2.3586 -0.1240  1.7815
   78MOL0     H10506   3.279   6.712   8.306  1.3625  0.7973  3.5719
   78MOL0     H10507   3.183   6.566   8.317 -1.5119  0.0259  0.3008
   78MOL0     H10508   3.203   6.601   8.570 -3.5281 -3.7585 -3.6047
   78MOL0     H10509   3.350   6.579   8.475  0.5818  1.0756 -0.5023
   78MOL0     H10510   2.338   6.728   8.625 -1.1280  1.3833  1.3961
   78MOL0     H10511   2.120   6.800   8.714 -2.6274 -2.3230 -0.4006
   78MOL0     H10512   1.548   6.686   8.518 -1.3015 -2.5326  0.8273
   78MOL0     H10513   1.356   6.769   8.623  0.1457 -0.5751 -0.0180
   78MOL0     H10514   0.498   7.405   8.767 -0.0326  2.1371 -0.3615
   78MOL0     H10515   0.300   7.528   8.769 -4.9681  1.2684 -0.1086
   78MOL0     H10516  -0.082   7.782   8.782  1.3941  0.3084 -1.3511
   78MOL0     H10517  -0.322   7.863   8.742  1.1423 -0.3031 -2.1078
   78MOL0     H10518  -0.684   7.589   8.778 -0.9482  0.7794  0.5454
   78MOL0     H10519  -0.613   7.571   8.620 -0.6023  1.3783 -1.5721
   78MOL0     H10520  -0.662   7.828   8.595 -1.9542  0.3120 -1.3448
   78MOL0     H10521  -0.741   7.825   8.738  0.5201 -0.1529  0.2117
   78MOL0     H10522  -0.917   7.676   8.655  1.6648  0.4195  1.6708
   78MOL0     H10523  -0.814   7.603   8.534  1.6492 -1.5083  4.6934
   78MOL0     H10524  -0.819   7.836   8.406 -0.8868 -2.1615 -2.9671
   78MOL0     H10525  -0.966   7.750   8.418  2.9908 -1.5188 -2.1814
   78MOL0     H10526  -1.048   8.101   8.659 -0.5997 -0.1878 -0.7285
   78MOL0     H10527  -0.418   7.441   8.692 -0.9074  0.6838  1.8658
   78MOL0     H10528  -0.264   7.281   8.647 -1.2177  0.9878 -2.1799
   78MOL0     H10529  -0.148   7.349   8.540 -3.5916 -2.1257 -0.1479
   78MOL0     H10530  -0.091   7.312   8.699  1.9980 -2.4663 -4.4750
   79MOL0     O10531  11.088   6.699   7.593  0.3918 -0.0191 -0.1638
   79MOL0     C10532  11.054   6.580   7.590  0.0645  0.3067 -0.3651
   79MOL0     O10533  11.131   6.470   7.568 -0.3621 -0.8582  0.4800
   79MOL0     C10534  11.264   6.496   7.571  0.2724 -0.0497  0.9965
   79MOL0     C10535  11.347   6.476   7.689  0.7002 -1.1060  0.4621
   79MOL0     C10536  11.484   6.514   7.689 -0.3080  0.4187 -0.0393
   79MOL0     C10537  11.542   6.560   7.576 -0.6052 -0.0258  0.7468
   79MOL0     O10538  11.673   6.587   7.568 -0.4320  0.6642 -0.1889
   79MOL0     C10539  11.769   6.564   7.673 -0.3204  0.0559  0.1362
   79MOL0     C10540  11.904   6.632   7.635  0.2922  0.0483 -0.4004
   79MOL0     C10541  11.908   6.774   7.689  0.0599 -1.2788  0.7098
   79MOL0     C10542  12.022   6.860   7.633  0.6242 -0.2615  0.8711
   79MOL0     C10543  12.031   6.978   7.718 -0.0971 -1.1383 -0.5412
   79MOL0     C10544  12.113   7.095   7.653 -0.1448 -0.2582 -0.0832
   79MOL0     C10545  12.253   7.090   7.712 -0.6959  0.7496  0.3598
   79MOL0     C10546  12.339   7.212   7.672 -0.2810  0.4988  0.3878
   79MOL0     N10547  12.473   7.207   7.740 -0.6836  0.1677  1.2167
   79MOL0     C10548  12.568   7.100   7.727  0.2451 -0.1193 -0.3248
   79MOL0     C10549  12.677   7.152   7.781  0.2803 -0.6501 -0.1070
   79MOL0     C10550  12.806   7.089   7.779 -0.1365  0.1007 -0.7151
   79MOL0     C10551  12.938   7.174   7.765  0.1850  0.1071 -0.2688
   79MOL0     C10552  12.971   7.175   7.619  0.5866 -0.2974 -0.3770
   79MOL0     C10553  13.118   7.228   7.592  0.3835  1.3646 -0.5512
   79MOL0     O10554  13.121   7.363   7.638 -0.2006 -0.2006 -0.3141
   79MOL0     C10555  13.232   7.442   7.610  0.2355  0.3831  0.2200
   79MOL0     C10556  13.230   7.568   7.655  0.1819 -0.9401  0.6453
   79MOL0     C10557  13.321   7.662   7.614  0.1055  0.0991 -0.0795
   79MOL0     C10558  13.429   7.622   7.539  0.1521  0.1545  0.3428
   79MOL0     C10559  13.539   7.732   7.519 -0.3849 -0.4430 -0.7116
   79MOL0     O10560  13.671   7.686   7.497 -0.2267  0.4892  0.1596
   79MOL0     C10561  13.767   7.780   7.485  0.4393  0.1338 -0.0506
   79MOL0     C10562  13.828   7.805   7.360 -0.3311 -0.3589  0.5910
   79MOL0     C10563  13.930   7.903   7.348 -0.4688  0.1215  0.2741
   79MOL0     C10564  13.966   7.985   7.457  0.5011 -0.3598 -0.0450
   79MOL0     O10565  14.045   8.091   7.436 -0.7251 -1.1334  0.1165
   79MOL0     C10566  14.184   8.062   7.399  0.2801  0.4303 -0.0177
   79MOL0     C10567  14.261   8.196   7.384 -0.4169  0.5069  1.7134
   79MOL0     C10568  14.416   8.172   7.365  0.6322 -0.6713  0.5586
   79MOL0     C10569  14.506   8.300   7.369 -0.3871  0.3554  0.2349
   79MOL0     C10570  14.471   8.414   7.275  0.1002 -0.1778  0.0696
   79MOL0     C10571  14.578   8.513   7.239 -1.2493 -0.1791 -0.1579
   79MOL0     C10572  14.585   8.630   7.331 -0.4505 -0.3683  0.9147
   79MOL0     C10573  14.666   8.742   7.281 -0.8005  0.7063 -0.2448
   79MOL0    Cl10574  14.652   8.886   7.389 -0.3403  0.3876  0.0734
   79MOL0     C10575  13.908   7.951   7.577  0.0866 -0.4253 -1.3599
   79MOL0     C10576  13.817   7.846   7.596  0.4742 -0.5926  0.6705
   79MOL0     O10577  13.513   7.848   7.545  0.2677 -0.3491  0.0365
   79MOL0     C10578  13.437   7.487   7.500 -0.3030 -0.4751  0.3204
   79MOL0     C10579  13.338   7.396   7.531  0.1553 -0.7920  0.0020
   79MOL0     N10580  12.651   7.277   7.833  0.5977 -0.6488 -0.5905
   79MOL0     N10581  12.535   7.313   7.812  0.1845  1.1819 -0.4191
   79MOL0     C10582  11.466   6.589   7.462  0.1606 -0.9275 -0.5042
   79MOL0     C10583  11.335   6.551   7.459 -0.0254  0.1819  0.9751
   79MOL0     C10584  10.904   6.560   7.602  0.8260  0.3849 -1.2074
   79MOL0     C10585  10.817   6.669   7.574 -0.5619 -0.0607  0.4699
   79MOL0     C10586  10.683   6.674   7.595 -0.2709 -0.8348  0.3765
   79MOL0     C10587  10.619   6.560   7.641  0.5427 -0.0653  0.2103
   79MOL0     O10588  10.483   6.571   7.643  1.2134 -0.1380  0.3552
   79MOL0     C10589  10.399   6.459   7.674  0.2320  0.6016  0.9117
   79MOL0     C10590  10.250   6.500   7.660 -0.2134 -0.1180 -0.2526
   79MOL0     C10591  10.194   6.545   7.803 -0.0457  0.0341  0.3949
   79MOL0     C10592  10.044   6.553   7.781  0.0910  0.3393 -0.9217
   79MOL0     C10593   9.978   6.593   7.899 -0.5209  0.1870  0.2752
   79MOL0     C10594   9.921   6.646   7.988  0.1282  0.3904  0.1966
   79MOL0     C10595  10.698   6.443   7.669 -0.2342 -0.1026 -0.1515
   79MOL0     C10596  10.840   6.448   7.649  0.0693  0.2574  0.0695
   79MOL0     C10597  10.908   6.325   7.682 -0.4181  0.1052 -0.3082
   79MOL0     H10598  11.307   6.443   7.785  0.6536 -0.7953  0.5487
   79MOL0     H10599  11.539   6.497   7.782 -1.3960 -0.8518  0.3967
   79MOL0     H10600  11.727   6.605   7.765 -3.2916 -1.0492 -0.6036
   79MOL0     H10601  11.787   6.456   7.684  0.5278  0.1341 -0.3808
   79MOL0     H10602  11.899   6.637   7.525 -3.1007 -0.3352 -0.3572
   79MOL0     H10603  11.987   6.572   7.674  0.1411  0.0288 -0.1101
   79MOL0     H10604  11.905   6.773   7.798  0.4527  0.6982  0.7731
   79MOL0     H10605  11.823   6.829   7.647  0.2349 -0.6710  1.1483
   79MOL0     H10606  12.114   6.802   7.620  1.0047  0.2118  1.3937
   79MOL0     H10607  11.994   6.893   7.532  1.7051  1.6546  1.1380
   79MOL0     H10608  11.929   7.017   7.717  0.1446 -0.4210  0.6515
   79MOL0     H10609  12.066   6.958   7.820  1.1701  0.9286 -0.4966
   79MOL0     H10610  12.113   7.082   7.544 -2.8681 -0.7774 -0.0941
   79MOL0     H10611  12.065   7.188   7.684 -1.1482 -1.3261  1.7935
   79MOL0     H10612  12.300   6.996   7.683 -3.8388 -1.0891  0.8016
   79MOL0     H10613  12.246   7.086   7.821  2.2878 -1.6260  0.5778
   79MOL0     H10614  12.347   7.193   7.564 -0.7452 -2.0965  0.7377
   79MOL0     H10615  12.292   7.308   7.694  2.6977  1.8045  1.5015
   79MOL0     H10616  12.571   7.006   7.673  2.4901 -0.0286 -0.4591
   79MOL0     H10617  12.814   7.031   7.872  0.1711 -0.1114 -0.8711
   79MOL0     H10618  12.806   7.004   7.710  0.9958 -0.0396 -0.5635
   79MOL0     H10619  12.931   7.275   7.806  2.8792  0.4720 -0.5468
   79MOL0     H10620  13.018   7.128   7.822  0.6867  0.3736 -0.7428
   79MOL0     H10621  12.898   7.232   7.561  1.1797 -1.3626 -2.2694
   79MOL0     H10622  12.966   7.076   7.573 -0.4729 -0.9843  1.1194
   79MOL0     H10623  13.134   7.220   7.484 -0.5615  1.2713 -0.6869
   79MOL0     H10624  13.198   7.165   7.633  0.8908  1.4773 -1.3423
   79MOL0     H10625  13.153   7.592   7.728  0.6300 -3.1729  1.9571
   79MOL0     H10626  13.302   7.764   7.647 -0.7877  0.0067 -0.2763
   79MOL0     H10627  13.793   7.742   7.279 -2.7429  0.7742  0.6767
   79MOL0     H10628  13.976   7.922   7.252 -0.0511  1.7343  0.7489
   79MOL0     H10629  14.225   8.018   7.489  0.1184  0.3312  0.0083
   79MOL0     H10630  14.192   7.997   7.311  1.0501  0.5957 -0.0755
   79MOL0     H10631  14.228   8.250   7.295  0.9815 -0.5246  0.5175
   79MOL0     H10632  14.236   8.257   7.471  0.0705  1.2242  1.3664
   79MOL0     H10633  14.450   8.099   7.439 -3.2873  0.0373  3.3731
   79MOL0     H10634  14.430   8.136   7.263 -1.6640 -2.4238  0.7861
   79MOL0     H10635  14.610   8.268   7.365 -1.1042 -2.2069  0.1899
   79MOL0     H10636  14.499   8.346   7.469 -1.3915  0.0407  0.3220
   79MOL0     H10637  14.392   8.472   7.324  0.6638  0.7292 -0.0671
   79MOL0     H10638  14.435   8.377   7.178 -0.6499  0.8605 -0.0684
   79MOL0     H10639  14.679   8.472   7.235 -0.8568  0.3542  2.5197
   79MOL0     H10640  14.536   8.551   7.145 -0.6986  3.3943  0.9326
   79MOL0     H10641  14.632   8.597   7.424  0.9519  2.0139  1.1078
   79MOL0     H10642  14.484   8.661   7.362 -0.7616 -1.7488  1.3610
   79MOL0     H10643  14.772   8.714   7.280 -1.3904 -1.7166 -0.3163
   79MOL0     H10644  14.636   8.765   7.179 -1.8875  0.6445  0.0467
   79MOL0     H10645  13.935   7.999   7.671  3.9198 -2.5283 -1.1550
   79MOL0     H10646  13.782   7.828   7.697  2.0831  4.1768  2.3682
   79MOL0     H10647  13.524   7.450   7.447 -0.1726  0.1583  0.0756
   79MOL0     H10648  13.336   7.292   7.500 -1.3005 -1.7238  2.8751
   79MOL0     H10649  11.510   6.625   7.370 -2.4177  2.7669 -0.5058
   79MOL0     H10650  11.286   6.570   7.364  1.3616  1.2919  0.4523
   79MOL0     H10651  10.863   6.761   7.538  0.2582 -0.6012  0.1130
   79MOL0     H10652  10.629   6.767   7.578  3.4011  1.4005 -0.2951
   79MOL0     H10653  10.406   6.417   7.774 -1.5340  0.1435  0.8678
   79MOL0     H10654  10.422   6.381   7.600  0.4813  1.4084  0.1172
   79MOL0     H10655  10.197   6.409   7.630  2.0893 -1.0231 -1.8059
   79MOL0     H10656  10.234   6.573   7.581 -5.4676  0.5120  0.9787
   79MOL0     H10657  10.247   6.638   7.824  1.2251 -0.2199 -1.4133
   79MOL0     H10658  10.226   6.485   7.888 -0.9898  1.8163  2.0649
   79MOL0     H10659  10.020   6.631   7.708 -1.8253  0.3304 -0.3694
   79MOL0     H10660  10.012   6.457   7.740  1.0727 -0.1059 -0.6713
   79MOL0     H10661   9.878   6.707   8.064 -0.9616 -0.7867  0.5376
   79MOL0     H10662  10.656   6.347   7.698  1.2579 -0.1736  2.0729
   79MOL0     H10663  10.964   6.327   7.775  1.3881 -0.3303 -1.3298
   79MOL0     H10664  10.831   6.247   7.672 -1.1086  0.9313 -1.7509
   79MOL0     H10665  10.978   6.305   7.601  0.4275 -0.7085  0.6005
   80MOL0     O10666   3.938   9.121   7.488 -0.1094  0.0993  0.0613
   80MOL0     C10667   3.830   9.076   7.460  0.8701  0.1113  0.0474
   80MOL0     O10668   3.785   9.053   7.329 -0.1077  0.5328 -0.0246
   80MOL0     C10669   3.876   9.051   7.233 -0.1965  0.4018  0.2915
   80MOL0     C10670   3.948   8.934   7.211 -0.4373  0.3130  0.5906
   80MOL0     C10671   4.059   8.934   7.121  0.1786  0.4321  0.2032
   80MOL0     C10672   4.083   9.046   7.038  0.5535  0.6357  0.7840
   80MOL0     O10673   4.191   9.055   6.945  0.0547  0.2963  0.4174
   80MOL0     C10674   4.166   9.069   6.804 -0.4967 -0.3736  0.7374
   80MOL0     C10675   4.108   8.936   6.734 -0.0903 -0.3288 -1.0562
   80MOL0     C10676   4.077   8.941   6.587 -0.0993 -0.3466 -0.4788
   80MOL0     C10677   4.197   8.894   6.499 -0.6680  0.1859  0.6742
   80MOL0     C10678   4.333   8.963   6.526 -0.4275  0.7048 -1.1771
   80MOL0     C10679   4.450   8.926   6.435 -0.4241  0.2830 -0.3627
   80MOL0     C10680   4.577   8.992   6.474  0.5494 -0.0866 -0.8303
   80MOL0     C10681   4.686   8.958   6.376  0.6023 -0.7016  0.1830
   80MOL0     N10682   4.807   9.047   6.370  0.0650  0.1223  0.8265
   80MOL0     C10683   4.822   9.186   6.361 -0.6850  0.3102 -0.0916
   80MOL0     C10684   4.953   9.209   6.343 -0.3163  0.3326  0.1366
   80MOL0     C10685   5.008   9.336   6.276  0.2077 -0.5455  0.5492
   80MOL0     C10686   5.153   9.373   6.315 -0.6742  0.4057 -0.4070
   80MOL0     C10687   5.207   9.464   6.209 -0.5312  0.4674 -0.4564
   80MOL0     C10688   5.348   9.527   6.227  0.7273 -0.1775 -1.1075
   80MOL0     O10689   5.379   9.595   6.090  0.2342 -0.1420  0.2005
   80MOL0     C10690   5.506   9.649   6.076 -0.1247  0.7635  0.8156
   80MOL0     C10691   5.540   9.704   5.958  0.3297  0.0505  0.0220
   80MOL0     C10692   5.677   9.750   5.932  1.2158 -0.2075  0.4135
   80MOL0     C10693   5.780   9.726   6.021 -0.5203 -0.0329 -0.3964
   80MOL0     C10694   5.913   9.782   6.002  0.1134 -0.5421  0.3044
   80MOL0     O10695   5.998   9.799   6.104  0.4802 -0.3914  0.6112
   80MOL0     C10696   6.131   9.819   6.085  0.4321 -0.1867  0.1327
   80MOL0     C10697   6.213   9.730   6.017  0.1420 -0.2295 -0.6863
   80MOL0     C10698   6.347   9.758   6.004 -0.1245 -0.5816  0.0833
   80MOL0     C10699   6.410   9.873   6.066  0.1537 -0.7009 -0.1546
   80MOL0     O10700   6.543   9.897   6.055 -0.6488 -0.4393 -0.3149
   80MOL0     C10701   6.596   9.878   5.923 -0.3111 -0.4714 -0.7451
   80MOL0     C10702   6.710   9.975   5.905 -0.0797 -0.2462  0.0033
   80MOL0     C10703   6.784   9.931   5.780 -0.4959 -0.4625 -0.5299
   80MOL0     C10704   6.900  10.021   5.746  0.3719 -0.6955  1.2703
   80MOL0     C10705   6.867  10.130   5.649 -0.2797 -0.0541  0.0292
   80MOL0     C10706   6.973  10.241   5.626 -0.2608  0.0224 -0.0687
   80MOL0     C10707   7.110  10.173   5.615 -0.0261 -0.5022  0.2238
   80MOL0     C10708   7.225  10.258   5.568  0.1388  0.1404  0.0680
   80MOL0    Cl10709   7.231  10.411   5.656  0.1554  0.2271 -0.0399
   80MOL0     C10710   6.331   9.957   6.148  0.2357 -0.4901  0.5859
   80MOL0     C10711   6.192   9.928   6.161  0.0095 -0.2458 -0.5929
   80MOL0     O10712   5.949   9.804   5.887 -0.0586  0.2715  0.1821
   80MOL0     C10713   5.748   9.661   6.140  0.3432 -0.8088 -0.0491
   80MOL0     C10714   5.617   9.624   6.169  0.1800 -0.1713  0.1691
   80MOL0     N10715   5.012   9.085   6.348 -0.7395  0.6597  0.1981
   80MOL0     N10716   4.928   8.990   6.380  0.2820  0.6587  0.1824
   80MOL0     C10717   4.003   9.152   7.052  0.3969 -1.2283  0.2919
   80MOL0     C10718   3.898   9.162   7.147  0.0837  0.4129 -0.0822
   80MOL0     C10719   3.721   9.066   7.565  0.1779  0.5304  0.1006
   80MOL0     C10720   3.589   9.082   7.524  0.2651 -0.8440 -0.4095
   80MOL0     C10721   3.478   9.082   7.615  0.5532 -0.2726  0.1588
   80MOL0     C10722   3.512   9.073   7.752  0.6042 -0.1635  0.3824
   80MOL0     O10723   3.422   9.084   7.857  0.2897  0.1716  0.0144
   80MOL0     C10724   3.277   9.062   7.835 -0.5262  0.0386 -0.4730
   80MOL0     C10725   3.237   8.917   7.819  0.6632  0.3153  0.6962
   80MOL0     C10726   3.076   8.905   7.822  0.1777 -0.1353 -0.6944
   80MOL0     C10727   3.026   8.759   7.855 -0.2136  1.1846 -0.3883
   80MOL0     C10728   3.065   8.652   7.760  0.3061  0.9286  0.6179
   80MOL0     C10729   3.086   8.564   7.677  0.3233 -0.1653  0.3246
   80MOL0     C10730   3.640   9.051   7.792 -0.0960 -0.7863 -0.6898
   80MOL0     C10731   3.746   9.040   7.700  0.3348 -0.4838 -0.6689
   80MOL0     C10732   3.889   9.005   7.751  0.4298  0.3863  0.5090
   80MOL0     H10733   3.926   8.845   7.270  3.2099 -0.3035  1.2871
   80MOL0     H10734   4.134   8.855   7.124 -0.5096 -0.2190  2.4577
   80MOL0     H10735   4.095   9.150   6.783  0.8461  0.7197  0.3199
   80MOL0     H10736   4.261   9.096   6.757 -1.0607  0.1541 -0.1237
   80MOL0     H10737   4.013   8.903   6.777 -2.0223  2.6944 -2.6998
   80MOL0     H10738   4.180   8.856   6.754 -1.1649 -0.8577  1.0367
   80MOL0     H10739   4.052   9.045   6.564 -0.2789  0.3727  2.4796
   80MOL0     H10740   3.985   8.885   6.570  0.4650 -1.6576  0.5621
   80MOL0     H10741   4.199   8.784   6.507  0.0826  0.2967  3.0876
   80MOL0     H10742   4.176   8.923   6.396  1.5599  2.1316  0.6686
   80MOL0     H10743   4.320   9.071   6.531  0.0686  0.7055  0.5409
   80MOL0     H10744   4.358   8.930   6.627  0.6193 -0.8911 -1.9116
   80MOL0     H10745   4.462   8.817   6.433  0.0172  0.2584  1.6795
   80MOL0     H10746   4.430   8.956   6.331 -1.0610  0.8558 -0.0820
   80MOL0     H10747   4.608   8.939   6.565 -1.0925 -1.1182 -0.8211
   80MOL0     H10748   4.556   9.097   6.494  0.6742  0.3179 -2.6462
   80MOL0     H10749   4.716   8.855   6.399  1.2184  0.1348  3.7479
   80MOL0     H10750   4.637   8.967   6.279  1.5704  1.3991 -0.1750
   80MOL0     H10751   4.738   9.255   6.354 -0.1201  1.0187  0.0368
   80MOL0     H10752   5.003   9.324   6.167  1.4009  1.8188  0.1594
   80MOL0     H10753   4.946   9.423   6.298 -0.3229 -1.5742  3.5650
   80MOL0     H10754   5.149   9.427   6.409  2.7203 -0.1030  0.1525
   80MOL0     H10755   5.209   9.280   6.332  2.6359  2.3304  0.0632
   80MOL0     H10756   5.143   9.551   6.189  2.3518  2.8823  0.1806
   80MOL0     H10757   5.207   9.404   6.118 -1.3177  0.3951 -0.4156
   80MOL0     H10758   5.420   9.451   6.257 -0.1590 -0.4300  0.5006
   80MOL0     H10759   5.355   9.605   6.304  0.3648  0.4828 -1.7219
   80MOL0     H10760   5.464   9.709   5.882 -1.3451 -0.3612  1.5955
   80MOL0     H10761   5.705   9.800   5.839  0.4033  1.3257  0.9691
   80MOL0     H10762   6.173   9.643   5.966 -1.2247  1.1293 -2.0077
   80MOL0     H10763   6.398   9.690   5.936 -0.6863 -0.5702 -0.3532
   80MOL0     H10764   6.622   9.776   5.894 -1.5688 -0.9612 -0.2478
   80MOL0     H10765   6.519   9.908   5.851  0.6628 -1.9496 -2.4787
   80MOL0     H10766   6.684  10.079   5.883 -0.8439 -0.0368  1.7631
   80MOL0     H10767   6.782   9.977   5.988  0.8009 -3.8275 -0.5055
   80MOL0     H10768   6.818   9.829   5.796  3.8494  0.9590  0.6815
   80MOL0     H10769   6.714   9.939   5.696 -1.6621 -0.0103  0.4549
   80MOL0     H10770   6.975   9.954   5.702  0.2960 -0.3418  0.5852
   80MOL0     H10771   6.936  10.061   5.842 -2.7441  0.5814  2.0280
   80MOL0     H10772   6.783  10.192   5.684  1.4799  3.6556 -1.7773
   80MOL0     H10773   6.836  10.090   5.552 -2.8760 -2.1559  1.5700
   80MOL0     H10774   6.946  10.296   5.535 -1.9926  0.4693  0.6728
   80MOL0     H10775   6.971  10.314   5.708  1.3701 -0.7189  0.6669
   80MOL0     H10776   7.094  10.105   5.531  0.6673  2.8354 -2.9030
   80MOL0     H10777   7.141  10.119   5.705  0.6253  0.9953  0.9415
   80MOL0     H10778   7.313  10.195   5.578 -1.0099 -1.3397  1.5590
   80MOL0     H10779   7.213  10.286   5.463  1.9017  2.0464  0.3129
   80MOL0     H10780   6.374  10.041   6.200 -1.3623  2.0650 -1.9382
   80MOL0     H10781   6.123   9.980   6.226 -0.6077 -1.9470  0.1710
   80MOL0     H10782   5.819   9.637   6.218  1.3217  2.6900  0.3193
   80MOL0     H10783   5.594   9.588   6.268 -1.0007  1.4674  0.5406
   80MOL0     H10784   4.039   9.235   6.991 -1.8261  0.4685  1.1354
   80MOL0     H10785   3.846   9.257   7.161 -1.1917 -0.0867 -1.1484
   80MOL0     H10786   3.560   9.097   7.420  0.1101 -0.4214 -0.3102
   80MOL0     H10787   3.375   9.087   7.582  0.1656  0.3885  1.3757
   80MOL0     H10788   3.242   9.130   7.757 -0.1435  2.5713  1.4769
   80MOL0     H10789   3.227   9.098   7.925 -2.3289  0.2963 -1.5168
   80MOL0     H10790   3.288   8.863   7.899  0.3857  0.6766  1.1137
   80MOL0     H10791   3.270   8.877   7.722 -0.8088  2.3754 -0.7612
   80MOL0     H10792   3.033   8.933   7.725 -1.4351  0.3952  0.1307
   80MOL0     H10793   3.032   8.977   7.892  1.8911 -0.4322  0.7540
   80MOL0     H10794   3.059   8.727   7.954  1.8118  2.3377 -0.6304
   80MOL0     H10795   2.917   8.751   7.852 -0.0599 -1.9026 -0.9056
   80MOL0     H10796   3.088   8.477   7.615  3.5478  0.6456 -0.8985
   80MOL0     H10797   3.669   9.051   7.896 -3.0195 -0.2873  0.2087
   80MOL0     H10798   3.901   8.975   7.855  3.1127  2.2442  0.8304
   80MOL0     H10799   3.937   8.927   7.691 -3.1159 -0.2502 -1.7834
   80MOL0     H10800   3.953   9.094   7.746  0.4590  0.4962  2.3186
   81MOL0     O10801   0.294  10.047   0.567 -0.6004 -0.4293  1.0150
   81MOL0     C10802   0.246  10.146   0.501  0.1318  1.3416 -0.6170
   81MOL0     O10803   0.302  10.204   0.391 -0.5675  0.5254  0.8018
   81MOL0     C10804   0.437  10.195   0.366  1.5243  0.4221 -0.4904
   81MOL0     C10805   0.541  10.204   0.466  0.1012 -0.3137  0.8028
   81MOL0     C10806   0.678  10.206   0.430 -0.3628 -0.0167  0.3389
   81MOL0     C10807   0.706  10.205   0.289  0.1767  0.3899  0.7155
   81MOL0     O10808   0.841  10.205   0.259  0.5463  0.1703  0.5027
   81MOL0     C10809   0.887  10.093   0.176  0.2185 -0.1584  0.0758
   81MOL0     C10810   1.010  10.025   0.243 -0.5371 -0.1846 -0.1809
   81MOL0     C10811   0.996   9.984   0.392 -0.0822  0.2162  0.3748
   81MOL0     C10812   1.077   9.849   0.423  0.2605 -0.3117  0.9459
   81MOL0     C10813   1.019   9.722   0.361 -0.1405  0.2967 -0.0241
   81MOL0     C10814   1.098   9.590   0.419  0.1148  0.0236  0.5912
   81MOL0     C10815   1.242   9.578   0.345 -0.1004  0.6960 -0.9386
   81MOL0     C10816   1.311   9.447   0.348 -0.4719  0.8972  0.0452
   81MOL0     N10817   1.451   9.460   0.321 -0.8451 -0.5300  0.2296
   81MOL0     C10818   1.506   9.534   0.216  0.3405  0.2188 -0.0469
   81MOL0     C10819   1.641   9.531   0.242  0.8879 -0.8221 -0.5089
   81MOL0     C10820   1.749   9.580   0.149  0.2167  0.4867  0.2689
   81MOL0     C10821   1.725   9.526   0.008 -0.3305 -0.4954 -0.0238
   81MOL0     C10822   1.857   9.528  -0.069 -0.2752  0.8089 -0.3433
   81MOL0     C10823   1.831   9.518  -0.221 -1.1514  0.3460 -0.3737
   81MOL0     O10824   1.951   9.477  -0.294 -0.2150  0.1382 -0.0705
   81MOL0     C10825   2.060   9.554  -0.302  0.8327 -0.0206 -0.3520
   81MOL0     C10826   2.057   9.697  -0.296 -1.0466  0.5874 -0.0840
   81MOL0     C10827   2.175   9.770  -0.313 -0.6191  0.4073  0.8657
   81MOL0     C10828   2.293   9.698  -0.337  0.2505  0.3924 -0.6918
   81MOL0     C10829   2.414   9.779  -0.369  0.8000 -0.2154 -0.0640
   81MOL0     O10830   2.535   9.725  -0.389  0.3780  0.2331 -0.5955
   81MOL0     C10831   2.611   9.793  -0.473  0.1225 -0.2968  1.0534
   81MOL0     C10832   2.729   9.840  -0.405 -0.7188 -0.6409 -0.1510
   81MOL0     C10833   2.826   9.906  -0.482  0.2009 -0.1446  0.0926
   81MOL0     C10834   2.816   9.920  -0.617  0.0211 -0.7112  0.0224
   81MOL0     O10835   2.920   9.993  -0.668  0.2058  1.0243  1.4027
   81MOL0     C10836   2.905  10.071  -0.790  0.1903 -0.4060 -0.6790
   81MOL0     C10837   2.923   9.993  -0.920  0.0880 -0.4531  0.5317
   81MOL0     C10838   3.056   9.912  -0.913  1.4257 -0.8142 -0.2802
   81MOL0     C10839   3.183   9.987  -0.892 -0.3707 -0.4156 -0.6791
   81MOL0     C10840   3.301   9.886  -0.894  0.2722  0.2892  0.0149
   81MOL0     C10841   3.439   9.928  -0.939 -0.0319 -0.5293 -0.3488
   81MOL0     C10842   3.463   9.983  -1.076  0.4314  0.0614 -0.0106
   81MOL0     C10843   3.598   9.945  -1.136 -0.3392  1.0786 -0.3150
   81MOL0    Cl10844   3.579   9.777  -1.190  0.6561  0.1527 -0.3224
   81MOL0     C10845   2.700   9.877  -0.683  0.5303 -0.8645  0.5207
   81MOL0     C10846   2.598   9.812  -0.612  0.4397 -0.1289  0.8763
   81MOL0     O10847   2.384   9.899  -0.398 -0.3366  0.3505 -0.4935
   81MOL0     C10848   2.299   9.559  -0.341 -0.2799  0.1062  0.5497
   81MOL0     C10849   2.185   9.485  -0.324  0.8776  0.0852 -1.0674
   81MOL0     N10850   1.667   9.464   0.366  0.1893 -0.5783  0.5559
   81MOL0     N10851   1.557   9.426   0.410 -0.3278  0.1105 -0.6589
   81MOL0     C10852   0.604  10.192   0.191  0.6965  0.1847  0.7163
   81MOL0     C10853   0.473  10.192   0.232  0.3357  0.3782 -0.0796
   81MOL0     C10854   0.112  10.197   0.540  0.0029 -0.1236  0.1183
   81MOL0     C10855   0.049  10.284   0.449 -0.2070 -0.2715  0.9918
   81MOL0     C10856  -0.083  10.338   0.464 -0.3881 -0.1472 -0.3421
   81MOL0     C10857  -0.155  10.323   0.585 -0.8488  0.6311  0.3840
   81MOL0     O10858  -0.270  10.394   0.603 -0.5998  0.2006  0.0626
   81MOL0     C10859  -0.340  10.444   0.484  0.4807  0.0347 -1.0312
   81MOL0     C10860  -0.486  10.478   0.511  0.7306  0.0352  0.1212
   81MOL0     C10861  -0.555  10.338   0.520  0.5677 -0.3015 -1.0774
   81MOL0     C10862  -0.705  10.368   0.518 -0.5679 -0.9677  0.5534
   81MOL0     C10863  -0.770  10.239   0.531  0.0115  0.4144  0.4994
   81MOL0     C10864  -0.825  10.134   0.544 -0.5341 -0.4094 -0.4334
   81MOL0     C10865  -0.094  10.236   0.679 -0.2407  0.5629 -1.2796
   81MOL0     C10866   0.032  10.174   0.657  0.7166 -0.1372  0.3561
   81MOL0     C10867   0.078  10.080   0.766  0.9212 -0.7040  0.8755
   81MOL0     H10868   0.499  10.212   0.566 -1.8031  0.6568 -0.0286
   81MOL0     H10869   0.767  10.199   0.491  1.5017 -0.4966 -2.2311
   81MOL0     H10870   0.820  10.006   0.173  1.4225 -1.2046  1.7113
   81MOL0     H10871   0.923  10.128   0.079  2.2414  2.4941  1.6581
   81MOL0     H10872   1.097  10.091   0.234 -0.7571  0.0316 -0.7851
   81MOL0     H10873   1.038   9.937   0.185  1.5822 -1.8996  3.1389
   81MOL0     H10874   0.889   9.969   0.409 -0.0037 -2.0481 -0.6547
   81MOL0     H10875   1.045  10.062   0.450  2.2736 -0.1175 -1.0311
   81MOL0     H10876   1.170   9.855   0.365 -1.4233 -1.8379 -2.1773
   81MOL0     H10877   1.098   9.840   0.530 -0.4594 -1.1383  1.0269
   81MOL0     H10878   0.912   9.714   0.383 -0.0481  0.3475  0.4704
   81MOL0     H10879   1.015   9.725   0.252  1.0158  0.2908 -0.0711
   81MOL0     H10880   1.105   9.602   0.527  0.4059  1.0947  0.4681
   81MOL0     H10881   1.037   9.503   0.391 -2.1016  0.8242  2.5549
   81MOL0     H10882   1.305   9.657   0.385 -1.5685  1.0070  0.8580
   81MOL0     H10883   1.224   9.592   0.238  0.6088  1.3619 -0.9769
   81MOL0     H10884   1.301   9.403   0.448 -0.8200 -2.9437 -1.4905
   81MOL0     H10885   1.269   9.378   0.274  1.1431 -1.2481  1.0227
   81MOL0     H10886   1.460   9.585   0.132 -0.3514 -0.6799 -0.2316
   81MOL0     H10887   1.767   9.688   0.161 -0.4387  0.6473 -0.1248
   81MOL0     H10888   1.843   9.539   0.187 -1.0118  0.1985  3.2706
   81MOL0     H10889   1.688   9.423   0.014  0.8698 -0.8548  2.1180
   81MOL0     H10890   1.654   9.584  -0.052  1.3292  1.4154 -0.2664
   81MOL0     H10891   1.913   9.436  -0.049  0.9638  1.3382 -1.2346
   81MOL0     H10892   1.909   9.620  -0.042 -1.3603  1.2286  0.3655
   81MOL0     H10893   1.794   9.615  -0.254 -0.7005  0.7224  0.2017
   81MOL0     H10894   1.751   9.450  -0.249 -1.5583  0.4228  0.5771
   81MOL0     H10895   1.962   9.749  -0.288 -1.6186 -0.2920 -1.0370
   81MOL0     H10896   2.179   9.878  -0.306  0.4870  0.3856  0.8271
   81MOL0     H10897   2.748   9.823  -0.300  0.9810  3.0619  0.3127
   81MOL0     H10898   2.920   9.941  -0.440  0.4357  0.1851 -0.6918
   81MOL0     H10899   2.808  10.121  -0.792  1.0026  1.3345  0.5480
   81MOL0     H10900   2.978  10.152  -0.779 -0.6631  0.0643  2.7103
   81MOL0     H10901   2.838   9.926  -0.937 -0.6034  1.0057 -2.5593
   81MOL0     H10902   2.928  10.056  -1.010 -1.0270 -3.3144 -1.7010
   81MOL0     H10903   3.051   9.841  -0.830  0.1080  1.6507  1.8913
   81MOL0     H10904   3.056   9.859  -1.009 -2.4600  0.8467 -1.3706
   81MOL0     H10905   3.176  10.044  -0.799 -0.2423 -1.7342  0.1731
   81MOL0     H10906   3.188  10.067  -0.967 -1.1065  0.9494  0.6740
   81MOL0     H10907   3.279   9.798  -0.955  1.7479 -0.1770  0.1286
   81MOL0     H10908   3.305   9.859  -0.788  0.9922  1.2517  0.2415
   81MOL0     H10909   3.475  10.006  -0.871  0.0512  1.0494 -2.1434
   81MOL0     H10910   3.507   9.842  -0.929 -1.0155 -1.1839  1.1109
   81MOL0     H10911   3.464  10.091  -1.057 -2.0795  0.2569 -0.6989
   81MOL0     H10912   3.374   9.964  -1.136 -0.1488  0.5669  0.6642
   81MOL0     H10913   3.616  10.013  -1.220 -0.4319 -0.4415 -1.6400
   81MOL0     H10914   3.687   9.950  -1.073 -0.9427  1.7749  0.4894
   81MOL0     H10915   2.697   9.883  -0.791  0.3882 -0.5367  0.5429
   81MOL0     H10916   2.508   9.781  -0.664  0.0918 -1.6247  2.2715
   81MOL0     H10917   2.388   9.504  -0.371 -1.8551 -1.5990 -1.3370
   81MOL0     H10918   2.172   9.380  -0.350 -2.1304  0.0667  0.1499
   81MOL0     H10919   0.632  10.203   0.087 -1.1062  3.2480  0.4004
   81MOL0     H10920   0.401  10.217   0.154  3.3599  0.8113 -2.9445
   81MOL0     H10921   0.097  10.313   0.356 -1.5358  2.7151  1.1218
   81MOL0     H10922  -0.123  10.393   0.380 -3.1305 -1.8515 -0.2909
   81MOL0     H10923  -0.336  10.370   0.403 -1.6715 -0.9220 -0.3343
   81MOL0     H10924  -0.280  10.529   0.449  3.6027 -1.6558 -0.1454
   81MOL0     H10925  -0.527  10.541   0.432  1.6078 -0.0108 -0.3830
   81MOL0     H10926  -0.489  10.549   0.594  0.7632 -0.8936  0.9425
   81MOL0     H10927  -0.520  10.293   0.613 -0.4943 -0.0395 -0.5469
   81MOL0     H10928  -0.511  10.265   0.451  0.6527  0.3830 -1.7698
   81MOL0     H10929  -0.737  10.440   0.594  1.4283  2.4205 -1.5684
   81MOL0     H10930  -0.717  10.417   0.421  2.8161  1.4513  1.1811
   81MOL0     H10931  -0.872  10.038   0.547  0.2713 -0.8164 -0.6667
   81MOL0     H10932  -0.154  10.217   0.767  0.3753  0.7361 -0.8192
   81MOL0     H10933   0.163  10.135   0.807  2.4563 -1.9115 -0.5290
   81MOL0     H10934   0.009  10.053   0.846  0.2764  0.6542  0.8179
   81MOL0     H10935   0.110   9.988   0.717  2.2054  0.6797 -1.0572
   82MOL0     O10936   6.353   2.646  11.114 -0.0055 -0.6052 -0.0710
   82MOL0     C10937   6.282   2.550  11.150  0.9650 -0.1765 -0.6159
   82MOL0     O10938   6.329   2.454  11.231 -0.6581  0.0564 -0.3251
   82MOL0     C10939   6.463   2.459  11.261  1.1149  1.3864 -0.2108
   82MOL0     C10940   6.546   2.372  11.184 -1.3023  0.2918  0.6647
   82MOL0     C10941   6.682   2.383  11.195  0.4153  0.0796  0.1500
   82MOL0     C10942   6.740   2.456  11.293 -0.3087  0.2347  0.6770
   82MOL0     O10943   6.878   2.460  11.302 -0.8781 -0.0698 -0.2958
   82MOL0     C10944   6.951   2.572  11.359 -0.0630  0.4586  0.7244
   82MOL0     C10945   6.977   2.555  11.503 -0.1028  0.3984  0.1237
   82MOL0     C10946   7.121   2.600  11.533  0.5246  0.5707 -0.0591
   82MOL0     C10947   7.156   2.609  11.682  0.3555  0.7860  1.5981
   82MOL0     C10948   7.310   2.638  11.693 -0.9772  0.2448 -0.0656
   82MOL0     C10949   7.376   2.649  11.837 -0.1022  0.4500  0.0052
   82MOL0     C10950   7.525   2.678  11.814 -0.6112  1.1389  0.2491
   82MOL0     C10951   7.594   2.745  11.936 -0.1053  0.1670 -0.0700
   82MOL0     N10952   7.725   2.801  11.902  0.3598  0.7413 -0.1788
   82MOL0     C10953   7.832   2.749  11.828  1.0091  0.3930 -0.6053
   82MOL0     C10954   7.926   2.849  11.829 -0.1987  0.8403  0.1213
   82MOL0     C10955   8.050   2.850  11.739  0.8425 -0.7585  0.0912
   82MOL0     C10956   8.169   2.770  11.804  0.1657  0.3189 -0.0809
   82MOL0     C10957   8.236   2.845  11.917 -0.4252 -0.0694  0.0470
   82MOL0     C10958   8.372   2.775  11.973  0.3224 -0.2451 -0.7563
   82MOL0     O10959   8.473   2.772  11.879 -0.2108  0.3912  0.0001
   82MOL0     C10960   8.606   2.762  11.913 -0.1411  0.4226  0.8773
   82MOL0     C10961   8.649   2.717  12.038 -0.2350  0.6244 -0.0540
   82MOL0     C10962   8.795   2.722  12.066  0.2443  1.2049  0.6370
   82MOL0     C10963   8.884   2.756  11.966 -0.5729  0.4108  0.6471
   82MOL0     C10964   9.033   2.768  11.989 -0.0806  0.3904 -0.8746
   82MOL0     O10965   9.073   2.798  12.121 -0.1744 -0.8781  0.2789
   82MOL0     C10966   9.209   2.815  12.132  0.2610 -0.3742  0.8189
   82MOL0     C10967   9.255   2.943  12.151 -0.1493  0.2815  1.1303
   82MOL0     C10968   9.396   2.957  12.170 -0.0375 -0.3802 -0.0415
   82MOL0     C10969   9.482   2.849  12.164 -0.1896  0.0167  0.4783
   82MOL0     O10970   9.618   2.872  12.199  0.0795 -0.7255  0.2126
   82MOL0     C10971   9.718   2.799  12.115 -0.9050  0.1459 -0.2153
   82MOL0     C10972   9.825   2.900  12.068  0.1077 -0.3944  0.7366
   82MOL0     C10973   9.926   2.931  12.189  0.8092  1.0374 -0.2508
   82MOL0     C10974  10.015   3.052  12.155 -0.8013 -0.2426  0.3840
   82MOL0     C10975  10.127   3.020  12.053  0.2297 -0.7419 -0.4758
   82MOL0     C10976  10.215   3.148  12.055 -0.7307 -0.3348  0.8262
   82MOL0     C10977  10.340   3.118  11.964  1.2231 -0.0923 -0.4107
   82MOL0     C10978  10.315   3.179  11.823 -0.2033  0.5455  0.9465
   82MOL0    Cl10979  10.457   3.148  11.719  0.0368  0.0366 -0.4442
   82MOL0     C10980   9.430   2.728  12.148 -0.3190  0.2111  0.1607
   82MOL0     C10981   9.297   2.709  12.121 -0.4627 -0.2099 -0.0657
   82MOL0     O10982   9.113   2.752  11.897 -0.0664  0.9629  0.6650
   82MOL0     C10983   8.831   2.792  11.840 -0.0723 -0.4406  0.2884
   82MOL0     C10984   8.698   2.789  11.810 -1.5144  0.7796  0.4892
   82MOL0     N10985   7.876   2.955  11.893 -0.4261  0.0112  0.3182
   82MOL0     N10986   7.766   2.919  11.949 -0.0008  0.6074  0.6786
   82MOL0     C10987   6.653   2.536  11.378  1.4379  0.2705  0.2811
   82MOL0     C10988   6.515   2.550  11.353 -0.9702 -0.2864  0.6073
   82MOL0     C10989   6.143   2.538  11.101  0.3142  0.1536 -0.9256
   82MOL0     C10990   6.056   2.437  11.161  0.1626  0.2216  0.5626
   82MOL0     C10991   5.918   2.425  11.130 -0.1133 -0.4085 -0.2198
   82MOL0     C10992   5.867   2.513  11.042  0.8679  0.4936  0.1715
   82MOL0     O10993   5.731   2.529  11.022 -0.3022 -0.0918 -0.3664
   82MOL0     C10994   5.675   2.422  10.947  0.7676 -0.7912  0.4730
   82MOL0     C10995   5.546   2.473  10.884  0.1514 -0.0322  0.4345
   82MOL0     C10996   5.443   2.536  10.976  0.9320  0.4929 -0.0250
   82MOL0     C10997   5.313   2.578  10.901 -1.0347 -0.2440 -0.1017
   82MOL0     C10998   5.229   2.457  10.884 -0.0376  0.5183  0.2044
   82MOL0     C10999   5.169   2.352  10.874  1.1111 -0.5397  0.1241
   82MOL0     C11000   5.946   2.620  10.998 -0.4081  0.2811  0.4745
   82MOL0     C11001   6.083   2.631  11.014 -0.2001 -1.0334 -0.7829
   82MOL0     C11002   6.158   2.736  10.935  0.6119 -0.3151  0.8855
   82MOL0     H11003   6.502   2.311  11.105  0.4853  1.1379 -1.0688
   82MOL0     H11004   6.745   2.325  11.129 -0.8512  1.0848 -2.0690
   82MOL0     H11005   7.041   2.584  11.300 -1.1419  2.7321 -0.5531
   82MOL0     H11006   6.898   2.667  11.352  1.3131  1.3256  1.6687
   82MOL0     H11007   6.968   2.451  11.535  2.5873  0.5244  1.6148
   82MOL0     H11008   6.897   2.607  11.556 -1.2846  0.6086 -1.7402
   82MOL0     H11009   7.151   2.692  11.481  2.7307 -1.4967 -2.7282
   82MOL0     H11010   7.185   2.523  11.489  2.5548  0.8384  2.2115
   82MOL0     H11011   7.108   2.702  11.714 -0.8941  0.8727 -0.3548
   82MOL0     H11012   7.120   2.529  11.747 -2.8517  0.2990 -0.5299
   82MOL0     H11013   7.367   2.563  11.637 -1.1082 -1.0324  1.4171
   82MOL0     H11014   7.321   2.736  11.648 -3.1159  0.7430  0.3682
   82MOL0     H11015   7.329   2.727  11.898 -0.5489  1.3912 -1.4985
   82MOL0     H11016   7.378   2.554  11.891  1.4962  0.5101  0.1232
   82MOL0     H11017   7.536   2.748  11.731  0.8836  1.0846  0.3668
   82MOL0     H11018   7.566   2.583  11.779  0.7878  1.6631  0.4105
   82MOL0     H11019   7.526   2.820  11.975  0.1396  0.1614  0.3726
   82MOL0     H11020   7.602   2.677  12.022 -1.2526  2.5560  2.0471
   82MOL0     H11021   7.832   2.657  11.770 -0.1697  1.2755 -2.0728
   82MOL0     H11022   8.027   2.808  11.641 -2.4263 -0.4404  0.5864
   82MOL0     H11023   8.075   2.953  11.714 -0.0824 -0.6880 -0.6139
   82MOL0     H11024   8.134   2.679  11.853 -1.7419  1.4639  0.8207
   82MOL0     H11025   8.251   2.754  11.732 -0.9444  0.5937 -1.4505
   82MOL0     H11026   8.163   2.873  11.994 -0.3563  1.5276 -0.4317
   82MOL0     H11027   8.283   2.939  11.886  0.9259 -0.8109 -0.2392
   82MOL0     H11028   8.342   2.672  11.993 -1.3651 -0.2439 -2.8936
   82MOL0     H11029   8.400   2.828  12.064 -0.6339 -0.2666 -0.4359
   82MOL0     H11030   8.578   2.718  12.121  2.3264  0.2731  2.3054
   82MOL0     H11031   8.819   2.684  12.165 -2.3339  0.4174  1.0313
   82MOL0     H11032   9.174   3.015  12.149  1.5498  2.2817  0.4975
   82MOL0     H11033   9.439   3.056  12.183  0.7853 -0.4022 -2.1927
   82MOL0     H11034   9.772   2.719  12.167  1.3963  2.5467  1.3960
   82MOL0     H11035   9.670   2.749  12.030  1.7988 -0.7595 -1.3400
   82MOL0     H11036   9.881   2.864  11.981 -0.2890 -0.2886  0.4292
   82MOL0     H11037   9.772   2.987  12.029  0.2636  0.0321  1.4641
   82MOL0     H11038   9.863   2.943  12.278 -2.4611 -0.7088 -2.1417
   82MOL0     H11039   9.991   2.845  12.206  0.1899  0.3366 -1.3623
   82MOL0     H11040  10.057   3.095  12.247 -1.4363 -0.1159  0.6208
   82MOL0     H11041   9.952   3.131  12.113 -1.3422 -1.3280 -0.9275
   82MOL0     H11042  10.076   3.011  11.957 -0.6398 -0.0816 -0.0959
   82MOL0     H11043  10.180   2.926  12.072  1.0766 -0.0435  0.7211
   82MOL0     H11044  10.154   3.229  12.015  2.9846  1.2009 -2.4586
   82MOL0     H11045  10.235   3.166  12.161 -1.0189 -1.1091  1.0231
   82MOL0     H11046  10.366   3.012  11.962  0.0341 -0.4605  1.5420
   82MOL0     H11047  10.434   3.162  12.001  3.9942 -5.0061 -0.7622
   82MOL0     H11048  10.223   3.151  11.771 -0.6762  3.2108  0.2000
   82MOL0     H11049  10.310   3.287  11.839 -0.1313  0.3553  2.4076
   82MOL0     H11050   9.497   2.646  12.171 -0.5587  0.0282  0.2229
   82MOL0     H11051   9.262   2.607  12.111  0.5156 -0.6186  0.4707
   82MOL0     H11052   8.905   2.802  11.761  1.6868 -4.1691  1.2514
   82MOL0     H11053   8.660   2.824  11.715 -0.4149 -0.1320 -0.3074
   82MOL0     H11054   6.703   2.593  11.456  1.3768  1.3910 -0.4711
   82MOL0     H11055   6.446   2.603  11.417 -0.1261  0.3722  0.9976
   82MOL0     H11056   6.095   2.372  11.239  1.7265  1.0509  0.5020
   82MOL0     H11057   5.860   2.348  11.181  0.2204 -0.4199  0.1521
   82MOL0     H11058   5.654   2.337  11.013  0.3021  1.4247  3.3726
   82MOL0     H11059   5.729   2.399  10.855 -1.0774 -2.4780 -0.2692
   82MOL0     H11060   5.504   2.393  10.823  3.4048  0.4196 -2.7745
   82MOL0     H11061   5.579   2.541  10.805 -0.4803  0.0887  0.2687
   82MOL0     H11062   5.495   2.621  11.023  0.3579  1.7503 -1.6010
   82MOL0     H11063   5.430   2.469  11.062 -0.8495 -0.3159 -0.8791
   82MOL0     H11064   5.264   2.650  10.966  0.6980  0.8893  0.0106
   82MOL0     H11065   5.331   2.632  10.807 -1.5130  0.9725  0.4829
   82MOL0     H11066   5.101   2.270  10.884 -0.9112  0.8519 -1.1576
   82MOL0     H11067   5.896   2.697  10.940  1.0064  0.6141 -0.3440
   82MOL0     H11068   6.238   2.684  10.882  0.1438 -1.0312  0.8737
   82MOL0     H11069   6.101   2.786  10.856 -0.7791 -1.2617  1.2451
   82MOL0     H11070   6.199   2.810  11.005 -1.7720  1.1090  0.8801
   83MOL0     O11071   4.405   7.957   4.332 -0.6108 -0.1227  0.1128
   83MOL0     C11072   4.501   7.985   4.411 -0.2712  0.7330 -0.2053
   83MOL0     O11073   4.629   7.946   4.398  0.7888 -0.3843  0.4749
   83MOL0     C11074   4.673   7.927   4.272  0.1270  0.2083 -0.5681
   83MOL0     C11075   4.719   8.040   4.199 -0.6074  0.3257  0.2161
   83MOL0     C11076   4.775   8.018   4.074 -0.1011 -0.4198 -0.0670
   83MOL0     C11077   4.801   7.891   4.014  0.1519 -0.1936 -0.3542
   83MOL0     O11078   4.830   7.888   3.879 -0.8294  0.4515 -0.3474
   83MOL0     C11079   4.860   7.759   3.823 -0.5964  0.0700  0.6498
   83MOL0     C11080   5.009   7.730   3.817  0.7004  0.0425  0.8335
   83MOL0     C11081   5.076   7.824   3.715 -0.6066 -0.2079 -0.2930
   83MOL0     C11082   5.229   7.795   3.717 -0.2485  0.0295  1.1582
   83MOL0     C11083   5.264   7.658   3.658  0.7953  1.3454  0.0739
   83MOL0     C11084   5.410   7.646   3.639  0.5982  0.0187 -0.1355
   83MOL0     C11085   5.445   7.505   3.576  0.3076  0.3147 -0.7531
   83MOL0     C11086   5.579   7.444   3.615  0.5413  0.3786 -0.0550
   83MOL0     N11087   5.687   7.537   3.635 -0.5348 -0.2777  0.6322
   83MOL0     C11088   5.715   7.649   3.560  0.0375  0.1648  0.2274
   83MOL0     C11089   5.832   7.696   3.600 -0.0654  0.4675 -0.1969
   83MOL0     C11090   5.901   7.821   3.552  0.1247 -0.6362  0.7992
   83MOL0     C11091   6.050   7.828   3.583 -0.3044 -0.8746 -0.6005
   83MOL0     C11092   6.130   7.703   3.526 -0.0547 -0.8297  0.1884
   83MOL0     C11093   6.285   7.696   3.543  0.6828  0.1474  0.2621
   83MOL0     O11094   6.351   7.805   3.480  0.1265 -0.2228  0.3411
   83MOL0     C11095   6.487   7.810   3.486 -0.1719 -0.5183 -0.1432
   83MOL0     C11096   6.544   7.927   3.427 -0.2869 -0.9896  0.1635
   83MOL0     C11097   6.679   7.946   3.438 -0.3565  0.4775  0.4656
   83MOL0     C11098   6.765   7.861   3.511 -0.4812  0.6423 -0.6577
   83MOL0     C11099   6.907   7.878   3.507  0.7144  0.6349  0.2557
   83MOL0     O11100   6.948   8.007   3.476 -0.6394  0.1708 -0.2078
   83MOL0     C11101   7.077   8.045   3.475 -0.0461  0.4364 -0.0421
   83MOL0     C11102   7.109   8.146   3.389  0.3628  0.1168 -0.2278
   83MOL0     C11103   7.240   8.188   3.369  0.9851 -0.7431 -0.0060
   83MOL0     C11104   7.346   8.135   3.438  1.2654  0.2321 -0.2758
   83MOL0     O11105   7.472   8.174   3.420 -0.1079 -0.2061  0.1705
   83MOL0     C11106   7.509   8.272   3.324 -0.1030 -1.0769 -0.5958
   83MOL0     C11107   7.661   8.286   3.321  0.7566 -0.9860  0.0482
   83MOL0     C11108   7.701   8.357   3.184  0.5988 -0.2109 -0.0440
   83MOL0     C11109   7.852   8.376   3.174 -0.4940  0.3379 -0.4134
   83MOL0     C11110   7.883   8.444   3.044 -0.3201 -0.5474  0.4877
   83MOL0     C11111   8.033   8.485   3.047  0.0735  0.1455 -0.5226
   83MOL0     C11112   8.075   8.576   2.933  0.0432  0.2703  0.1932
   83MOL0     C11113   8.070   8.523   2.785  0.0249  0.0881 -0.3148
   83MOL0    Cl11114   8.234   8.456   2.763  0.1179  0.0223 -0.2461
   83MOL0     C11115   7.317   8.026   3.530  0.0526  0.2901 -0.6376
   83MOL0     C11116   7.182   7.986   3.548  0.2267 -0.4901 -0.2437
   83MOL0     O11117   6.976   7.779   3.519 -0.3615 -0.0335 -0.5591
   83MOL0     C11118   6.703   7.745   3.556  0.1859  0.3412 -0.2232
   83MOL0     C11119   6.568   7.715   3.548  1.0116 -0.5509  0.4734
   83MOL0     N11120   5.874   7.617   3.706  0.7312  1.1469  0.1602
   83MOL0     N11121   5.788   7.518   3.721  0.4943  0.0750  0.1375
   83MOL0     C11122   4.758   7.783   4.093  0.0475 -0.4749 -0.1877
   83MOL0     C11123   4.706   7.799   4.224 -1.1673 -0.3276  0.0062
   83MOL0     C11124   4.464   8.027   4.550 -0.3325  0.4063  0.0271
   83MOL0     C11125   4.569   8.031   4.645 -0.7363  0.4295 -0.9544
   83MOL0     C11126   4.541   8.043   4.783 -0.1979  0.6050  0.6751
   83MOL0     C11127   4.412   8.065   4.821 -0.8439 -0.5493  0.0282
   83MOL0     O11128   4.373   8.078   4.945  0.2380  0.1072 -0.2968
   83MOL0     C11129   4.440   8.012   5.047 -0.0521  1.2730  0.1667
   83MOL0     C11130   4.335   7.958   5.144  1.2433  0.4471 -0.0457
   83MOL0     C11131   4.254   7.838   5.080 -0.4468  0.5742 -0.3888
   83MOL0     C11132   4.135   7.788   5.173 -0.0757 -0.3723  0.7911
   83MOL0     C11133   4.050   7.706   5.085  0.1201  0.5308  0.4561
   83MOL0     C11134   3.982   7.622   5.028  0.2010 -0.1056 -0.7615
   83MOL0     C11135   4.307   8.062   4.737  0.6309 -0.2063  0.7212
   83MOL0     C11136   4.332   8.050   4.599 -0.2047 -1.0372 -0.4834
   83MOL0     C11137   4.214   8.077   4.507 -0.2155  0.6980 -0.1420
   83MOL0     H11138   4.720   8.143   4.231  0.7014 -0.1894  1.9249
   83MOL0     H11139   4.812   8.105   4.020 -0.4246  1.0489  1.9592
   83MOL0     H11140   4.804   7.678   3.871  0.0501 -0.5070  0.4485
   83MOL0     H11141   4.833   7.769   3.717  3.3609  1.0167 -0.4364
   83MOL0     H11142   5.024   7.630   3.776  0.1501  0.0044  0.7127
   83MOL0     H11143   5.050   7.741   3.918 -0.9584  1.6289  1.4054
   83MOL0     H11144   5.060   7.929   3.741 -1.1762 -0.7953  1.9538
   83MOL0     H11145   5.031   7.815   3.616 -0.6407  3.0414 -0.6684
   83MOL0     H11146   5.275   7.877   3.660  2.7575  0.7017  4.2284
   83MOL0     H11147   5.263   7.801   3.820  1.5168 -1.6801  0.7474
   83MOL0     H11148   5.227   7.583   3.730  2.3605 -0.4745 -0.9079
   83MOL0     H11149   5.205   7.642   3.568  0.3973  1.1977  0.3568
   83MOL0     H11150   5.440   7.730   3.576 -0.9823  0.2026 -0.6953
   83MOL0     H11151   5.452   7.657   3.740 -0.1654  2.9332 -0.0595
   83MOL0     H11152   5.435   7.511   3.467  1.5328 -3.3038 -1.1862
   83MOL0     H11153   5.379   7.424   3.610 -0.5536  0.9367 -0.8974
   83MOL0     H11154   5.558   7.393   3.709  0.8950 -1.2158 -0.8026
   83MOL0     H11155   5.603   7.366   3.542 -1.2633  0.1290 -0.4399
   83MOL0     H11156   5.648   7.685   3.482 -0.9922  0.6090  1.2773
   83MOL0     H11157   5.884   7.836   3.445 -2.2053 -1.8148  0.9414
   83MOL0     H11158   5.850   7.907   3.596 -1.3109  1.8601 -4.8626
   83MOL0     H11159   6.104   7.916   3.547  0.9596 -1.2056  0.4314
   83MOL0     H11160   6.066   7.839   3.690  2.0281  0.0122 -0.9715
   83MOL0     H11161   6.101   7.709   3.421 -0.7246 -1.3595  0.3351
   83MOL0     H11162   6.088   7.613   3.573  0.0663 -0.4786  0.9874
   83MOL0     H11163   6.306   7.599   3.497 -0.3417  0.4422 -0.8988
   83MOL0     H11164   6.303   7.681   3.650 -2.7774 -1.8540  0.7342
   83MOL0     H11165   6.484   7.996   3.369 -1.6394 -0.9822  1.5268
   83MOL0     H11166   6.720   8.033   3.388  0.5534 -0.4085 -0.3860
   83MOL0     H11167   7.031   8.200   3.336 -0.7367 -2.2778 -1.1860
   83MOL0     H11168   7.262   8.261   3.291 -0.2134 -1.4461 -1.0459
   83MOL0     H11169   7.472   8.257   3.223 -1.6092  1.5593 -0.5175
   83MOL0     H11170   7.468   8.370   3.349  1.1184 -0.6769 -0.0679
   83MOL0     H11171   7.704   8.341   3.406  1.5321 -0.3268 -0.7486
   83MOL0     H11172   7.696   8.182   3.328 -1.9816 -2.1811 -2.1530
   83MOL0     H11173   7.666   8.284   3.109 -0.8271 -0.0731  0.4470
   83MOL0     H11174   7.645   8.450   3.173  0.5627 -0.1435  0.6773
   83MOL0     H11175   7.908   8.282   3.175  2.4035  1.9355  1.0465
   83MOL0     H11176   7.887   8.430   3.262  1.5859 -0.4576 -0.6983
   83MOL0     H11177   7.822   8.534   3.034  0.4216  0.4216  3.5668
   83MOL0     H11178   7.863   8.381   2.957  0.8341 -0.5429  0.2127
   83MOL0     H11179   8.054   8.537   3.141 -1.6084  1.6547 -0.9363
   83MOL0     H11180   8.097   8.398   3.033  0.9614  1.0627 -2.5438
   83MOL0     H11181   8.181   8.602   2.941  0.6352 -1.9479  0.2057
   83MOL0     H11182   8.016   8.668   2.939  0.8449  0.7667  0.6908
   83MOL0     H11183   7.985   8.455   2.778 -0.6964  0.9793 -0.4269
   83MOL0     H11184   8.060   8.607   2.716  1.0485  0.5454  0.0695
   83MOL0     H11185   7.394   7.978   3.588 -0.1681 -0.4209 -0.9232
   83MOL0     H11186   7.151   7.904   3.611 -2.2176  0.1895 -0.4717
   83MOL0     H11187   6.765   7.667   3.600 -1.2174  0.0431  1.3454
   83MOL0     H11188   6.529   7.623   3.592  2.3925 -1.7872 -0.7352
   83MOL0     H11189   4.768   7.684   4.048 -1.6748 -0.0598 -1.5336
   83MOL0     H11190   4.662   7.712   4.271 -2.3294 -1.0066 -2.2398
   83MOL0     H11191   4.674   8.024   4.621 -0.0732  0.1312  1.7876
   83MOL0     H11192   4.627   8.037   4.849  0.0345  4.8542  0.9885
   83MOL0     H11193   4.517   8.076   5.092  2.4581 -0.7149 -1.0287
   83MOL0     H11194   4.498   7.930   5.003 -0.6767  1.3076 -0.7287
   83MOL0     H11195   4.260   8.037   5.158  0.3903 -0.2721 -0.4685
   83MOL0     H11196   4.382   7.923   5.236  0.1689  1.4805  0.9396
   83MOL0     H11197   4.318   7.750   5.072 -1.4685 -0.2289  0.0639
   83MOL0     H11198   4.225   7.864   4.978 -1.5238  1.3309  0.0949
   83MOL0     H11199   4.165   7.738   5.266  3.7936 -2.8407 -1.4738
   83MOL0     H11200   4.069   7.863   5.218  3.7008  2.0638  2.7413
   83MOL0     H11201   3.935   7.550   4.965  3.1562 -2.0719 -0.9005
   83MOL0     H11202   4.204   8.070   4.770  0.7475 -0.6537  1.2072
   83MOL0     H11203   4.128   8.109   4.567  0.4061  3.6916 -0.7194
   83MOL0     H11204   4.249   8.150   4.434 -1.1650 -0.6270 -2.0116
   83MOL0     H11205   4.197   7.989   4.444  4.4282  0.6956 -1.7381
   84MOL0     O11206   8.212   8.711   0.092 -0.2375 -0.4711  0.2499
   84MOL0     C11207   8.191   8.592   0.070  0.3870  0.4765  0.4178
   84MOL0     O11208   8.246   8.479   0.137  0.3272 -0.2129  0.5841
   84MOL0     C11209   8.313   8.505   0.260 -0.6729 -0.0445  0.0615
   84MOL0     C11210   8.404   8.406   0.299 -0.1720  0.4616  0.0514
   84MOL0     C11211   8.482   8.422   0.414 -0.5082 -0.1676  0.6824
   84MOL0     C11212   8.478   8.536   0.496  0.4810  0.1827  0.1531
   84MOL0     O11213   8.563   8.550   0.600  0.5208  0.2408  0.1648
   84MOL0     C11214   8.642   8.439   0.639 -0.4275  0.2835  0.3473
   84MOL0     C11215   8.713   8.491   0.767  0.0906 -0.4916 -0.6803
   84MOL0     C11216   8.827   8.587   0.720 -1.0304  0.1697 -0.9101
   84MOL0     C11217   8.936   8.622   0.840 -0.0516  0.5039  0.6891
   84MOL0     C11218   9.061   8.670   0.768  0.9236  1.2150 -0.6402
   84MOL0     C11219   9.168   8.675   0.876 -0.8039  0.0081  0.2729
   84MOL0     C11220   9.285   8.757   0.820 -0.6289 -0.3748 -0.4842
   84MOL0     C11221   9.396   8.754   0.927 -0.8827 -0.5419  0.4795
   84MOL0     N11222   9.525   8.785   0.863 -0.6317  0.5992  0.4079
   84MOL0     C11223   9.560   8.906   0.819 -0.4545 -0.0677  0.2069
   84MOL0     C11224   9.690   8.893   0.798 -0.6326 -0.5674 -0.3010
   84MOL0     C11225   9.780   9.011   0.774 -0.4458  0.4520 -0.4709
   84MOL0     C11226   9.903   9.003   0.858  1.3001  0.9288 -1.4451
   84MOL0     C11227  10.007   9.114   0.844 -0.2503  0.7452 -0.2015
   84MOL0     C11228  10.125   9.085   0.936  0.4915 -0.3642 -0.0112
   84MOL0     O11229  10.198   9.205   0.948  0.0944 -0.6844 -0.1766
   84MOL0     C11230  10.302   9.204   1.044  1.1001  0.6827 -0.0510
   84MOL0     C11231  10.392   9.309   1.050 -0.1317 -0.1027 -0.0863
   84MOL0     C11232  10.517   9.300   1.112 -0.9726 -0.3840 -0.0675
   84MOL0     C11233  10.557   9.188   1.178 -0.3039 -1.0185 -0.9180
   84MOL0     C11234  10.676   9.189   1.261 -0.5475 -0.4993 -0.4269
   84MOL0     O11235  10.690   9.086   1.342  0.1699  0.3865 -0.7396
   84MOL0     C11236  10.808   9.064   1.407 -0.6817 -0.3879  0.6896
   84MOL0     C11237  10.906   9.001   1.328 -0.0911  0.0481  0.0913
   84MOL0     C11238  11.027   8.955   1.396  1.4047  0.7187 -0.1995
   84MOL0     C11239  11.035   8.971   1.534  0.1134 -0.3611  0.6601
   84MOL0     O11240  11.147   8.908   1.581  0.4907 -0.4318 -0.2382
   84MOL0     C11241  11.181   8.934   1.719  0.0975 -0.2493 -0.3695
   84MOL0     C11242  11.321   8.886   1.743 -0.8062 -0.4276  0.3912
   84MOL0     C11243  11.432   8.954   1.654  0.2482  0.0100 -0.2462
   84MOL0     C11244  11.573   8.902   1.691 -0.7944  0.4062 -0.0553
   84MOL0     C11245  11.688   9.000   1.655  0.8525 -0.0993  0.4262
   84MOL0     C11246  11.818   8.953   1.717 -0.8997 -0.0133 -1.1319
   84MOL0     C11247  11.940   9.041   1.682 -0.1316 -0.5569 -0.3223
   84MOL0     C11248  11.961   9.163   1.779  1.4969  0.9448 -0.3970
   84MOL0    Cl11249  12.101   9.248   1.702 -0.2120 -0.3179 -0.4747
   84MOL0     C11250  10.938   9.043   1.604  0.5075  0.3233 -0.3951
   84MOL0     C11251  10.819   9.079   1.542  0.4539 -0.4496 -0.3837
   84MOL0     O11252  10.758   9.280   1.252  0.1658 -0.4011  0.2449
   84MOL0     C11253  10.465   9.080   1.186  0.0167 -0.8250  1.1096
   84MOL0     C11254  10.341   9.082   1.113  0.3455 -0.4638 -0.4926
   84MOL0     N11255   9.733   8.761   0.812  0.2362  0.3442  0.3367
   84MOL0     N11256   9.625   8.693   0.842 -0.8234  0.7830 -0.0276
   84MOL0     C11257   8.386   8.634   0.450 -0.1148 -0.5875 -0.6809
   84MOL0     C11258   8.303   8.611   0.344 -0.4384 -0.7144 -0.4177
   84MOL0     C11259   8.109   8.546  -0.044 -0.1409  0.3659  0.0226
   84MOL0     C11260   8.029   8.430  -0.021 -0.0305 -0.8931 -0.1033
   84MOL0     C11261   7.929   8.386  -0.115 -0.1739 -0.5881  0.2418
   84MOL0     C11262   7.907   8.455  -0.234 -0.3834  0.5988  0.0724
   84MOL0     O11263   7.829   8.407  -0.336  0.2127 -0.1474  0.8971
   84MOL0     C11264   7.692   8.461  -0.338 -0.1838  0.5198  0.8578
   84MOL0     C11265   7.602   8.339  -0.330  0.0109 -0.1716  0.5041
   84MOL0     C11266   7.596   8.253  -0.450  0.0727  0.0926  0.6003
   84MOL0     C11267   7.483   8.150  -0.438 -0.0466 -1.0155 -0.3973
   84MOL0     C11268   7.357   8.227  -0.437 -0.3856 -0.1648 -0.5043
   84MOL0     C11269   7.247   8.275  -0.446 -0.4784 -0.9361 -0.1631
   84MOL0     C11270   7.978   8.582  -0.255 -0.2137 -1.3657 -0.5629
   84MOL0     C11271   8.076   8.625  -0.159  0.5678  0.1498  0.1404
   84MOL0     C11272   8.150   8.751  -0.193  0.0207  0.5856 -1.0598
   84MOL0     H11273   8.419   8.325   0.229 -1.9250  0.4891 -0.3936
   84MOL0     H11274   8.557   8.343   0.414 -1.5784 -1.2386 -0.3440
   84MOL0     H11275   8.581   8.349   0.649  0.7091 -0.9809 -2.8454
   84MOL0     H11276   8.722   8.411   0.569  0.3035 -1.5296  1.8203
   84MOL0     H11277   8.763   8.408   0.818 -0.0078  0.3734  0.8972
   84MOL0     H11278   8.646   8.528   0.845 -1.5133 -1.9200 -1.3327
   84MOL0     H11279   8.777   8.675   0.679 -5.8597 -0.3539  2.8409
   84MOL0     H11280   8.879   8.539   0.638 -1.7444 -3.2241  0.4491
   84MOL0     H11281   8.895   8.700   0.904 -0.8193  2.4664 -2.0111
   84MOL0     H11282   8.944   8.529   0.898 -0.4190  2.3473  3.9481
   84MOL0     H11283   9.098   8.598   0.695  1.8755  1.0466 -0.0125
   84MOL0     H11284   9.032   8.766   0.725 -1.6637  1.5176  1.5256
   84MOL0     H11285   9.136   8.713   0.973  2.2300 -1.1641  1.8388
   84MOL0     H11286   9.206   8.579   0.911 -2.4547 -0.3648  1.1346
   84MOL0     H11287   9.246   8.859   0.817 -0.8356 -0.2720  2.4901
   84MOL0     H11288   9.311   8.722   0.720  0.7035  1.3515 -0.7958
   84MOL0     H11289   9.365   8.817   1.010 -2.7173 -0.6821 -0.0478
   84MOL0     H11290   9.387   8.655   0.973 -1.2225  0.2342  2.1545
   84MOL0     H11291   9.500   8.995   0.808  0.2265  0.1581 -2.5053
   84MOL0     H11292   9.813   9.015   0.670 -0.5078  0.2505 -0.4992
   84MOL0     H11293   9.738   9.110   0.799  0.6307  0.0764  3.3950
   84MOL0     H11294   9.873   8.999   0.964  0.7136  0.6703 -1.6178
   84MOL0     H11295   9.945   8.905   0.836 -2.3148 -1.0557 -0.3046
   84MOL0     H11296   9.960   9.209   0.869  0.0846  0.7870  0.2773
   84MOL0     H11297  10.057   9.116   0.747  1.0586 -1.4172  0.3592
   84MOL0     H11298  10.181   9.002   0.890 -0.4491  0.3729 -2.6615
   84MOL0     H11299  10.079   9.060   1.032 -0.8034  1.3516 -0.1448
   84MOL0     H11300  10.361   9.388   0.982  0.4875 -1.2317 -1.7122
   84MOL0     H11301  10.584   9.385   1.111  0.2133 -1.2832 -1.0310
   84MOL0     H11302  10.893   8.984   1.221 -0.8970 -0.5637  0.2823
   84MOL0     H11303  11.107   8.914   1.336  0.7211 -2.9068  1.1386
   84MOL0     H11304  11.177   9.042   1.733 -0.0117 -0.4517  1.4498
   84MOL0     H11305  11.107   8.894   1.789  2.0641  0.2465  2.1522
   84MOL0     H11306  11.341   8.910   1.848  1.3292  0.3439 -0.1327
   84MOL0     H11307  11.331   8.777   1.737  3.7614 -0.1990  0.2067
   84MOL0     H11308  11.422   8.924   1.549 -0.8607  0.0945 -0.1674
   84MOL0     H11309  11.420   9.063   1.655  1.1590  0.1413  1.7033
   84MOL0     H11310  11.604   8.804   1.653  0.8664  0.4904  0.9845
   84MOL0     H11311  11.571   8.900   1.800 -0.7204  1.1151 -0.0394
   84MOL0     H11312  11.665   9.097   1.701  0.7787 -1.3867  3.3455
   84MOL0     H11313  11.680   9.011   1.547 -0.4950  0.3238  0.5428
   84MOL0     H11314  11.801   8.963   1.825  1.5778  0.9067 -0.7491
   84MOL0     H11315  11.828   8.855   1.670  1.0220  0.6729 -2.2868
   84MOL0     H11316  11.946   9.070   1.576 -1.4234  0.0803 -0.2448
   84MOL0     H11317  12.024   8.973   1.693 -1.8997 -2.6476  0.9685
   84MOL0     H11318  11.876   9.233   1.784 -0.5926 -1.4820  0.1214
   84MOL0     H11319  11.980   9.142   1.884  1.7044  0.8276 -0.4581
   84MOL0     H11320  10.958   9.057   1.710 -0.0460  0.0802 -0.2524
   84MOL0     H11321  10.739   9.128   1.596  0.7953 -0.1947 -0.1050
   84MOL0     H11322  10.490   8.987   1.237 -2.9087 -0.8039  2.7972
   84MOL0     H11323  10.276   8.996   1.120 -2.7800  1.7495  0.1179
   84MOL0     H11324   8.366   8.727   0.502 -2.2739  0.1268 -2.6278
   84MOL0     H11325   8.239   8.697   0.326  1.1059  0.0429 -2.7772
   84MOL0     H11326   8.036   8.374   0.071 -0.0775 -0.2645  0.2933
   84MOL0     H11327   7.873   8.299  -0.083  0.8425 -1.5406 -0.4987
   84MOL0     H11328   7.674   8.503  -0.438  1.3803 -0.8692 -0.0721
   84MOL0     H11329   7.684   8.528  -0.252  2.3305 -0.4755  1.9612
   84MOL0     H11330   7.502   8.375  -0.305 -0.4180 -1.7934  1.2392
   84MOL0     H11331   7.633   8.266  -0.255  0.8324  0.3289  0.6640
   84MOL0     H11332   7.692   8.204  -0.469 -0.0219  0.6941 -1.6789
   84MOL0     H11333   7.586   8.325  -0.532 -0.0487 -0.5154  0.0746
   84MOL0     H11334   7.492   8.091  -0.530 -0.5489  1.9185 -2.4707
   84MOL0     H11335   7.483   8.087  -0.349 -2.2518  1.3683  1.4495
   84MOL0     H11336   7.160   8.335  -0.460  0.3535  0.1764 -0.6775
   84MOL0     H11337   7.959   8.641  -0.343  0.0092  1.4889  1.1695
   84MOL0     H11338   8.139   8.833  -0.121 -0.2681 -0.8576  0.6005
   84MOL0     H11339   8.256   8.724  -0.198 -0.5088 -1.7773 -0.5522
   84MOL0     H11340   8.119   8.789  -0.291  0.3192  1.8649 -0.6811
   85MOL0     O11341   4.747   3.043   8.253  0.5686  0.0281 -0.0090
   85MOL0     C11342   4.697   2.964   8.179 -0.2648  0.2641 -0.6392
   85MOL0     O11343   4.742   2.827   8.172  0.4993 -0.7186  0.3794
   85MOL0     C11344   4.862   2.799   8.234 -0.8178 -0.3353  0.1955
   85MOL0     C11345   4.984   2.868   8.232  1.0011  0.5752  0.0588
   85MOL0     C11346   5.087   2.837   8.318 -0.7586 -0.0810  1.0235
   85MOL0     C11347   5.078   2.718   8.395  0.2345  0.6710  0.6837
   85MOL0     O11348   5.191   2.691   8.474  0.6394  0.6031  0.6095
   85MOL0     C11349   5.172   2.608   8.594 -0.3178  0.9523  0.1117
   85MOL0     C11350   5.312   2.596   8.665 -0.0903  0.0160 -0.6679
   85MOL0     C11351   5.414   2.544   8.563  0.0529 -1.1187  0.7986
   85MOL0     C11352   5.554   2.566   8.610  0.9199 -0.0471  0.5529
   85MOL0     C11353   5.672   2.526   8.511  0.5582 -1.0336  0.5110
   85MOL0     C11354   5.798   2.549   8.584  0.1890 -0.2350  0.2306
   85MOL0     C11355   5.905   2.486   8.494 -0.4804 -0.2713 -0.2995
   85MOL0     C11356   6.035   2.475   8.575 -0.4184  0.1507  0.5109
   85MOL0     N11357   6.151   2.418   8.497  0.0584 -0.0394 -0.8715
   85MOL0     C11358   6.171   2.286   8.460  0.9997  0.4965 -0.0174
   85MOL0     C11359   6.281   2.288   8.379  0.1633 -0.0973 -0.1225
   85MOL0     C11360   6.314   2.176   8.291  0.2400 -0.2091 -0.4867
   85MOL0     C11361   6.458   2.134   8.275 -0.4272 -0.0013 -0.9031
   85MOL0     C11362   6.544   2.235   8.201  0.7804 -0.4978 -0.0810
   85MOL0     C11363   6.684   2.183   8.157  0.2618  0.0995 -0.3666
   85MOL0     O11364   6.778   2.155   8.264  0.4470  0.2196  0.2383
   85MOL0     C11365   6.835   2.254   8.339 -0.3506 -0.2948 -0.7181
   85MOL0     C11366   6.816   2.394   8.325  0.8937  0.4931  0.0134
   85MOL0     C11367   6.892   2.477   8.407  1.1605  0.6738 -0.6263
   85MOL0     C11368   6.980   2.434   8.504  0.1654  0.3041 -0.6539
   85MOL0     C11369   7.045   2.536   8.597 -0.5708  0.6879 -0.5038
   85MOL0     O11370   7.171   2.515   8.641  0.0424 -0.1253 -0.0275
   85MOL0     C11371   7.237   2.596   8.725  0.9669 -0.0679  0.3895
   85MOL0     C11372   7.272   2.728   8.683  0.5042  0.0643 -0.4364
   85MOL0     C11373   7.343   2.816   8.779 -0.8126 -0.0858  0.2400
   85MOL0     C11374   7.373   2.769   8.908 -0.3322 -0.3052  0.2175
   85MOL0     O11375   7.445   2.855   8.990  0.0504 -0.4807  0.1221
   85MOL0     C11376   7.396   2.883   9.121  0.6124 -0.4341  0.1834
   85MOL0     C11377   7.353   3.030   9.123 -0.2533 -0.2913 -0.0221
   85MOL0     C11378   7.262   3.052   9.248 -1.0400  0.2833  0.2684
   85MOL0     C11379   7.344   3.052   9.377  0.1327  0.4389 -0.3510
   85MOL0     C11380   7.262   3.084   9.499 -0.8388 -0.8392  0.1300
   85MOL0     C11381   7.347   3.105   9.624 -0.2486 -0.1808 -0.2086
   85MOL0     C11382   7.263   3.093   9.752  0.1012  0.2822  0.3579
   85MOL0     C11383   7.353   3.098   9.871 -0.7533  0.2469 -1.2252
   85MOL0    Cl11384   7.460   3.238   9.876  0.2693 -0.2907 -0.0818
   85MOL0     C11385   7.331   2.640   8.944 -1.5575 -0.8106 -0.3769
   85MOL0     C11386   7.261   2.559   8.854 -0.8093  1.1953 -0.6227
   85MOL0     O11387   6.981   2.640   8.620  0.3340 -0.3729  0.4842
   85MOL0     C11388   6.992   2.299   8.524  0.8913 -0.8296 -0.4349
   85MOL0     C11389   6.918   2.213   8.441  0.3039 -0.0948  0.1980
   85MOL0     N11390   6.329   2.421   8.365 -0.6074 -0.2019 -0.8868
   85MOL0     N11391   6.244   2.493   8.434  0.2881 -0.3815  1.0126
   85MOL0     C11392   4.961   2.634   8.389 -0.0155 -0.3576 -0.2920
   85MOL0     C11393   4.852   2.683   8.306  0.2799  0.2174  0.4484
   85MOL0     C11394   4.582   3.002   8.091 -0.7234  0.2455 -0.4807
   85MOL0     C11395   4.479   2.912   8.066 -0.0033  0.4821 -0.0864
   85MOL0     C11396   4.371   2.930   7.971 -0.5403 -0.8535 -0.0487
   85MOL0     C11397   4.371   3.045   7.901 -0.1533  0.4327 -0.5691
   85MOL0     O11398   4.288   3.077   7.800 -0.2146 -0.0031  0.4647
   85MOL0     C11399   4.181   2.989   7.769  1.0683 -0.8160  0.0966
   85MOL0     C11400   4.090   3.087   7.696  0.4395 -0.0308  0.2847
   85MOL0     C11401   3.959   3.013   7.658  0.4465  0.1916 -0.4279
   85MOL0     C11402   3.870   3.100   7.568  0.0146 -0.0270  0.1120
   85MOL0     C11403   3.929   3.135   7.440 -0.9446 -1.1938  0.5348
   85MOL0     C11404   3.970   3.176   7.332  0.5572  0.5668  0.1776
   85MOL0     C11405   4.474   3.138   7.924 -0.0922  0.1169  0.2312
   85MOL0     C11406   4.571   3.124   8.022 -1.0109 -0.5087 -0.1674
   85MOL0     C11407   4.684   3.222   8.018 -0.0178  0.0769  0.0775
   85MOL0     H11408   4.988   2.962   8.178 -4.0455  0.0242 -1.9167
   85MOL0     H11409   5.171   2.904   8.331 -0.9566 -0.3204  4.4389
   85MOL0     H11410   5.102   2.662   8.659 -2.3782  1.6659 -2.5254
   85MOL0     H11411   5.134   2.506   8.581  1.2286  0.4019 -0.2772
   85MOL0     H11412   5.304   2.531   8.752 -1.3001 -0.2586 -0.9787
   85MOL0     H11413   5.336   2.702   8.680 -2.2350  0.8621 -2.5880
   85MOL0     H11414   5.394   2.589   8.466  0.6934 -0.0538  1.1381
   85MOL0     H11415   5.400   2.436   8.559  1.0372 -1.2051 -1.0588
   85MOL0     H11416   5.568   2.669   8.643 -0.8835  0.3773  0.0838
   85MOL0     H11417   5.561   2.507   8.702  1.4583 -2.7211 -1.0773
   85MOL0     H11418   5.659   2.422   8.479 -1.7539 -0.5619 -0.2846
   85MOL0     H11419   5.668   2.588   8.420  0.1212 -3.3681 -1.1416
   85MOL0     H11420   5.816   2.655   8.603  0.0084 -0.3295  0.9285
   85MOL0     H11421   5.797   2.492   8.677 -0.4512 -0.1494  0.2756
   85MOL0     H11422   5.914   2.557   8.411 -0.6211  1.4682  1.0876
   85MOL0     H11423   5.879   2.386   8.460 -0.1625 -0.9501  1.3846
   85MOL0     H11424   6.071   2.577   8.590  2.3847 -0.3520 -1.9370
   85MOL0     H11425   6.019   2.425   8.671  1.3439 -0.6652  0.4160
   85MOL0     H11426   6.099   2.211   8.491  0.3449  1.7476  1.6626
   85MOL0     H11427   6.243   2.099   8.323 -1.1251  1.2995  0.2608
   85MOL0     H11428   6.281   2.210   8.193  0.8516  1.9733  0.0144
   85MOL0     H11429   6.513   2.129   8.370 -0.8274  2.7586 -0.4551
   85MOL0     H11430   6.448   2.045   8.213 -1.7990  1.2231 -2.5337
   85MOL0     H11431   6.560   2.325   8.261 -2.3697  0.0600  0.1195
   85MOL0     H11432   6.486   2.267   8.114 -1.6193 -0.2018  1.5338
   85MOL0     H11433   6.733   2.260   8.096 -0.0191  2.2998  1.9997
   85MOL0     H11434   6.679   2.089   8.101 -2.2418  1.0119 -1.8300
   85MOL0     H11435   6.759   2.438   8.244  1.8045  2.6078  0.4507
   85MOL0     H11436   6.893   2.581   8.377  2.2795  0.3962 -1.6353
   85MOL0     H11437   7.231   2.754   8.585 -1.9468  0.4702  0.6314
   85MOL0     H11438   7.375   2.917   8.755  1.2543 -0.9496 -0.8978
   85MOL0     H11439   7.312   2.818   9.147 -0.4987  1.5157  1.8040
   85MOL0     H11440   7.479   2.862   9.189  0.5069 -2.4845 -0.2827
   85MOL0     H11441   7.434   3.102   9.110  2.4324 -3.3913 -1.9593
   85MOL0     H11442   7.278   3.036   9.044 -0.3487 -1.6670 -0.0525
   85MOL0     H11443   7.211   3.149   9.245 -1.7564 -0.0985 -0.6121
   85MOL0     H11444   7.190   2.973   9.268  0.7698 -1.0876  1.7316
   85MOL0     H11445   7.419   3.131   9.372 -0.6110  1.1614 -0.3310
   85MOL0     H11446   7.385   2.953   9.399 -0.1105  0.5249  0.5379
   85MOL0     H11447   7.189   3.004   9.509 -1.3107 -0.3345  0.8428
   85MOL0     H11448   7.218   3.184   9.488  2.1983  0.6471  0.2290
   85MOL0     H11449   7.426   3.029   9.621 -0.4461 -0.6950  3.1443
   85MOL0     H11450   7.399   3.201   9.626  0.6328 -0.5563 -2.4168
   85MOL0     H11451   7.207   3.000   9.749 -1.3643  1.1355  0.4361
   85MOL0     H11452   7.198   3.181   9.754  0.9651  0.9188  1.1945
   85MOL0     H11453   7.285   3.090   9.956 -2.5922  1.3482 -2.5244
   85MOL0     H11454   7.415   3.008   9.879  0.6566  1.3357  1.0024
   85MOL0     H11455   7.350   2.611   9.047 -1.2539  1.4982  0.2770
   85MOL0     H11456   7.214   2.471   8.896 -0.4554  1.2233 -0.1551
   85MOL0     H11457   7.059   2.271   8.604 -1.2019 -1.0136  1.3591
   85MOL0     H11458   6.907   2.106   8.458  0.7104  0.1754  2.4453
   85MOL0     H11459   4.945   2.557   8.463  4.8590  2.2088  4.1234
   85MOL0     H11460   4.761   2.625   8.315  0.6543 -0.2172  1.7719
   85MOL0     H11461   4.488   2.816   8.116 -2.0981 -1.0976 -2.4947
   85MOL0     H11462   4.295   2.854   7.955 -0.3794 -1.1976  0.7915
   85MOL0     H11463   4.120   2.952   7.852 -0.4853 -2.5109 -1.6905
   85MOL0     H11464   4.209   2.904   7.707 -1.6617 -2.0668  0.4403
   85MOL0     H11465   4.138   3.124   7.605 -2.8068 -0.1498 -1.6271
   85MOL0     H11466   4.066   3.167   7.767 -0.4117 -3.6707  4.6395
   85MOL0     H11467   3.904   2.982   7.747  1.2373 -0.7517 -0.2545
   85MOL0     H11468   3.965   2.919   7.602 -2.0472 -0.9682  1.0896
   85MOL0     H11469   3.782   3.041   7.542  0.3261 -0.2904 -0.3500
   85MOL0     H11470   3.838   3.191   7.621 -0.1223  0.2264 -0.4034
   85MOL0     H11471   3.985   3.209   7.232  0.4889  1.0361  0.3196
   85MOL0     H11472   4.490   3.230   7.868 -1.4099  0.8100  0.9600
   85MOL0     H11473   4.772   3.188   7.962  0.8020 -0.2651  1.5298
   85MOL0     H11474   4.656   3.316   7.968 -0.0526  0.2344  0.3898
   85MOL0     H11475   4.707   3.254   8.120 -1.6489 -0.9372  0.8083
   86MOL0     O11476   1.392   3.299   8.067  0.3514 -0.0253  0.6791
   86MOL0     C11477   1.368   3.207   8.146 -0.2446 -0.2640 -0.1057
   86MOL0     O11478   1.462   3.112   8.189  0.5878 -0.3944  0.6877
   86MOL0     C11479   1.591   3.113   8.148 -0.0135  0.6333 -0.0865
   86MOL0     C11480   1.668   3.033   8.230  0.0300  0.6148  0.9170
   86MOL0     C11481   1.798   3.005   8.199  0.3634  0.4402 -0.6765
   86MOL0     C11482   1.863   3.066   8.096  0.0068  0.1636  0.5195
   86MOL0     O11483   1.997   3.062   8.061 -0.4059 -0.0706 -1.1408
   86MOL0     C11484   2.085   3.030   8.167  0.4394 -0.9776 -0.1492
   86MOL0     C11485   2.221   3.094   8.141 -0.8294  0.7014  0.2236
   86MOL0     C11486   2.288   3.020   8.033  0.0050  0.0834  0.9788
   86MOL0     C11487   2.421   3.090   8.008 -0.3967 -0.4270  0.3685
   86MOL0     C11488   2.517   3.019   7.914  0.0196 -0.8249 -0.1924
   86MOL0     C11489   2.651   3.088   7.921  0.1391 -0.2949 -0.0927
   86MOL0     C11490   2.652   3.233   7.875  0.0179 -0.2739 -0.1946
   86MOL0     C11491   2.798   3.293   7.879  0.0991  0.0848 -0.0357
   86MOL0     N11492   2.884   3.234   7.764 -0.8915 -0.5534  0.2188
   86MOL0     C11493   2.856   3.262   7.631  0.0517 -0.5426 -0.7952
   86MOL0     C11494   2.914   3.165   7.563 -0.1104  0.2801  0.3277
   86MOL0     C11495   2.918   3.129   7.418 -0.5917 -0.1328  0.2087
   86MOL0     C11496   3.053   3.107   7.368 -0.9575  0.8993  0.6929
   86MOL0     C11497   3.131   3.234   7.358  0.1085  0.1181  0.0839
   86MOL0     C11498   3.231   3.256   7.473 -0.7432  0.2537  0.1720
   86MOL0     O11499   3.288   3.384   7.460 -0.7304  0.2314 -0.3779
   86MOL0     C11500   3.423   3.394   7.485  1.3478 -1.2596 -0.4219
   86MOL0     C11501   3.472   3.373   7.623  0.7518  0.0600  0.3317
   86MOL0     C11502   3.597   3.416   7.657 -0.3969  0.5527 -0.1096
   86MOL0     C11503   3.686   3.454   7.556 -0.1763  0.1621 -0.2903
   86MOL0     C11504   3.829   3.482   7.592  0.0045 -0.2591  0.4103
   86MOL0     O11505   3.869   3.508   7.726 -0.2513 -0.1389  0.4248
   86MOL0     C11506   4.004   3.512   7.762  0.7821  1.6269 -0.8498
   86MOL0     C11507   4.038   3.583   7.875  0.0494 -0.1303  0.1093
   86MOL0     C11508   4.165   3.596   7.928 -0.2859  0.0286  0.1303
   86MOL0     C11509   4.269   3.530   7.866  0.6123  0.7020 -0.9046
   86MOL0     O11510   4.396   3.521   7.915  0.1091  0.3687  0.1407
   86MOL0     C11511   4.437   3.628   8.004 -0.8038 -0.6553 -0.1938
   86MOL0     C11512   4.585   3.633   8.025  0.3514 -0.1692  0.0398
   86MOL0     C11513   4.616   3.726   8.153  0.3343 -0.1820  0.3171
   86MOL0     C11514   4.765   3.709   8.196 -0.2953 -0.2265  0.2085
   86MOL0     C11515   4.827   3.818   8.292  0.7436  0.2096  0.3433
   86MOL0     C11516   4.779   3.826   8.435  0.0103  0.1729  0.7530
   86MOL0     C11517   4.828   3.947   8.489  0.6630 -0.0676  0.4054
   86MOL0     C11518   4.767   3.967   8.628  0.5168 -0.6251 -0.1043
   86MOL0    Cl11519   4.847   3.880   8.764 -0.1518  0.2929  0.5652
   86MOL0     C11520   4.246   3.455   7.748 -0.6531  0.6104 -0.5062
   86MOL0     C11521   4.111   3.435   7.702 -0.2805 -0.2507  0.8053
   86MOL0     O11522   3.905   3.494   7.491  0.2790  0.7220  0.0257
   86MOL0     C11523   3.645   3.461   7.419  0.0201 -0.2644  0.0517
   86MOL0     C11524   3.512   3.437   7.388  0.0261 -0.1917  0.0075
   86MOL0     N11525   2.976   3.080   7.656 -0.5397  0.3612 -0.7641
   86MOL0     N11526   2.957   3.121   7.776 -0.2910  0.2746  0.0840
   86MOL0     C11527   1.790   3.156   8.018  0.1404 -0.7116 -0.2190
   86MOL0     C11528   1.654   3.183   8.048  0.5363 -0.5401  0.0015
   86MOL0     C11529   1.228   3.189   8.203 -1.3605 -0.2367 -0.4714
   86MOL0     C11530   1.216   3.117   8.325 -0.5706  0.0310 -0.7254
   86MOL0     C11531   1.088   3.077   8.374  0.6601  0.1917  0.1175
   86MOL0     C11532   0.975   3.130   8.316 -0.1138 -0.4887 -0.1607
   86MOL0     O11533   0.865   3.080   8.376 -0.7193  0.0115  0.0856
   86MOL0     C11534   0.744   3.154   8.360  0.3547  0.2717 -0.0268
   86MOL0     C11535   0.642   3.125   8.463  0.3360 -0.2543 -0.2092
   86MOL0     C11536   0.673   3.153   8.608 -0.5817  0.3842  0.9295
   86MOL0     C11537   0.606   3.048   8.700  1.0176 -0.2652 -0.1686
   86MOL0     C11538   0.463   3.081   8.718 -0.0268 -0.8008 -0.0949
   86MOL0     C11539   0.355   3.133   8.733  0.2721  0.3209 -0.9652
   86MOL0     C11540   0.988   3.220   8.206  0.3315  0.4823 -0.1319
   86MOL0     C11541   1.114   3.242   8.151  0.1235 -0.0588  0.3910
   86MOL0     C11542   1.109   3.343   8.042 -0.0937 -1.5414 -0.5726
   86MOL0     H11543   1.619   2.988   8.316 -1.1192 -0.0587 -0.0565
   86MOL0     H11544   1.850   2.937   8.266  1.4597  1.9984  0.1103
   86MOL0     H11545   2.056   3.084   8.258 -0.1747 -1.4513 -0.0530
   86MOL0     H11546   2.091   2.923   8.192  0.3745 -0.5509  1.8775
   86MOL0     H11547   2.282   3.082   8.231  1.4919 -2.2376 -1.5419
   86MOL0     H11548   2.210   3.197   8.107  2.6617  1.1243  0.1020
   86MOL0     H11549   2.225   3.027   7.943 -2.8188  0.9887  2.9002
   86MOL0     H11550   2.319   2.920   8.066 -1.1402  0.2719  2.7483
   86MOL0     H11551   2.391   3.193   7.986  0.3531 -0.0380  1.1180
   86MOL0     H11552   2.478   3.088   8.101  0.2121 -1.9384 -0.0096
   86MOL0     H11553   2.529   2.915   7.946  1.2704 -0.5647  0.2393
   86MOL0     H11554   2.475   3.023   7.813  0.1685 -0.9283 -0.2587
   86MOL0     H11555   2.693   3.068   8.020 -1.9862  0.9665  1.1550
   86MOL0     H11556   2.722   3.029   7.862  0.8417  0.4220  0.0212
   86MOL0     H11557   2.578   3.290   7.931  1.1345 -0.4097  1.4829
   86MOL0     H11558   2.619   3.223   7.771  2.1352 -0.3845 -0.9168
   86MOL0     H11559   2.795   3.403   7.879  1.1955  0.1206 -0.4464
   86MOL0     H11560   2.837   3.265   7.977 -0.4420  0.3112  0.2514
   86MOL0     H11561   2.794   3.341   7.590  1.0744  0.0048 -1.3507
   86MOL0     H11562   2.869   3.031   7.412  1.1082 -1.0167  0.2101
   86MOL0     H11563   2.868   3.208   7.361 -0.7423  0.7358  1.4907
   86MOL0     H11564   3.106   3.033   7.428  0.1016  1.4441  0.4617
   86MOL0     H11565   3.046   3.057   7.271  0.6333  1.4112  0.2781
   86MOL0     H11566   3.065   3.321   7.365 -0.3476 -0.1316 -0.9940
   86MOL0     H11567   3.182   3.244   7.262 -0.4829 -0.3238 -0.2844
   86MOL0     H11568   3.312   3.185   7.453 -4.2235 -4.5733  1.6323
   86MOL0     H11569   3.196   3.232   7.573 -1.2469  0.2570  0.0004
   86MOL0     H11570   3.403   3.344   7.701  1.1904 -0.6496  0.4633
   86MOL0     H11571   3.622   3.409   7.762 -1.1954 -0.1880  0.0383
   86MOL0     H11572   3.971   3.611   7.955  0.4062 -1.5098  0.9286
   86MOL0     H11573   4.187   3.658   8.014 -2.3935  4.0364 -1.9246
   86MOL0     H11574   4.409   3.724   7.959 -2.0225 -0.8323  0.1530
   86MOL0     H11575   4.391   3.622   8.103 -1.3390  1.5018 -0.2728
   86MOL0     H11576   4.611   3.531   8.055 -1.6425 -0.4775  0.8821
   86MOL0     H11577   4.639   3.662   7.934 -0.7725 -1.9857 -1.2856
   86MOL0     H11578   4.597   3.829   8.124  0.3343  0.3282  2.0703
   86MOL0     H11579   4.550   3.711   8.239 -1.8790 -1.3291 -1.4659
   86MOL0     H11580   4.813   3.732   8.100 -2.6166 -0.2024 -1.0097
   86MOL0     H11581   4.783   3.605   8.223  0.1523 -0.5122 -1.1228
   86MOL0     H11582   4.809   3.904   8.226 -0.4078 -0.2439  0.0430
   86MOL0     H11583   4.935   3.802   8.289  0.6608 -1.3140  2.6140
   86MOL0     H11584   4.670   3.826   8.439 -0.0235  1.2939  0.1786
   86MOL0     H11585   4.820   3.737   8.485  3.5505  1.4854  0.4666
   86MOL0     H11586   4.803   4.036   8.432 -1.6659 -0.6047  0.4799
   86MOL0     H11587   4.937   3.941   8.492  0.7111  0.6757  2.7553
   86MOL0     H11588   4.773   4.072   8.659 -2.7304 -0.7700  1.5180
   86MOL0     H11589   4.658   3.951   8.628  0.7489 -2.4548 -0.7117
   86MOL0     H11590   4.329   3.397   7.707  0.3799  1.3767  0.4227
   86MOL0     H11591   4.082   3.377   7.615 -0.0273  1.1814 -0.2834
   86MOL0     H11592   3.719   3.490   7.345  0.7535 -2.2480 -0.0591
   86MOL0     H11593   3.471   3.451   7.289  0.8136  0.4877 -0.2342
   86MOL0     H11594   1.830   3.195   7.926  1.2274 -0.6032  0.2888
   86MOL0     H11595   1.596   3.250   7.985 -0.9467 -1.2406  0.5958
   86MOL0     H11596   1.309   3.092   8.376  0.4915  3.2668 -0.8075
   86MOL0     H11597   1.081   3.004   8.454  0.5763 -2.0297 -1.8066
   86MOL0     H11598   0.693   3.116   8.272 -0.6484  0.8540  0.2902
   86MOL0     H11599   0.764   3.262   8.354  0.2301  0.5842  3.3330
   86MOL0     H11600   0.629   3.016   8.455  1.7664 -0.4517 -0.0765
   86MOL0     H11601   0.550   3.177   8.434 -0.0695 -1.3797 -1.0479
   86MOL0     H11602   0.659   3.258   8.635  2.5598  1.1721 -0.0423
   86MOL0     H11603   0.782   3.145   8.613 -0.2406  3.5682  0.7255
   86MOL0     H11604   0.626   2.945   8.669  1.4786 -1.2385  3.0138
   86MOL0     H11605   0.652   3.051   8.799 -0.5903  1.1203  0.5946
   86MOL0     H11606   0.252   3.159   8.751  0.9127  1.8301  0.9634
   86MOL0     H11607   0.895   3.269   8.180 -1.1967  0.6736  4.6988
   86MOL0     H11608   1.007   3.380   8.034  0.1639 -0.5652  0.4213
   86MOL0     H11609   1.173   3.431   8.055 -0.7504 -1.1011 -0.2448
   86MOL0     H11610   1.131   3.308   7.941 -1.3323  2.1072 -2.2571
   87MOL0     O11611   7.227  10.026   9.848 -0.2528 -0.5261 -0.2243
   87MOL0     C11612   7.185   9.913   9.839  0.1216 -0.5327 -0.5428
   87MOL0     O11613   7.262   9.807   9.804  0.4274  0.1850 -0.1895
   87MOL0     C11614   7.399   9.826   9.797  0.0174 -0.1764  0.1999
   87MOL0     C11615   7.472   9.877   9.906  0.4300 -1.0657 -1.3575
   87MOL0     C11616   7.610   9.911   9.873  0.0278  1.2763  0.0573
   87MOL0     C11617   7.664   9.889   9.742  0.0682 -0.6308 -0.9750
   87MOL0     O11618   7.798   9.915   9.716  0.0811  0.3797  0.0371
   87MOL0     C11619   7.903   9.906   9.810 -0.0536  0.0171  0.5537
   87MOL0     C11620   8.017   9.969   9.728 -0.8831  0.4050  0.3644
   87MOL0     C11621   8.152   9.961   9.803  0.3788  0.0264  0.7933
   87MOL0     C11622   8.276   9.953   9.707  0.5044 -0.5798 -0.4538
   87MOL0     C11623   8.416   9.953   9.780  0.1139 -0.1428  1.2778
   87MOL0     C11624   8.500  10.060   9.711  0.7151 -0.0336  0.7583
   87MOL0     C11625   8.640  10.070   9.769 -0.5831  0.1848  0.1263
   87MOL0     C11626   8.725   9.962   9.720  0.3573 -0.2426 -0.2624
   87MOL0     N11627   8.855   9.980   9.779  0.3914  0.2750  0.2518
   87MOL0     C11628   8.943  10.082   9.748 -0.3826 -0.5049  0.0746
   87MOL0     C11629   9.042  10.073   9.838  0.1753  0.3712  0.1573
   87MOL0     C11630   9.171  10.158   9.829 -0.2393 -0.4743 -0.0446
   87MOL0     C11631   9.235  10.183   9.969  0.4245  0.2687 -0.1643
   87MOL0     C11632   9.346  10.286   9.965  0.1662  0.4641  0.3597
   87MOL0     C11633   9.439  10.268  10.084  0.2105 -0.6164  0.0255
   87MOL0     O11634   9.536  10.372  10.073 -0.3764  0.2784 -0.0809
   87MOL0     C11635   9.661  10.354  10.132 -0.5635  0.2809  0.2896
   87MOL0     C11636   9.687  10.409  10.255  0.4027  0.3063 -0.6065
   87MOL0     C11637   9.816  10.377  10.307 -0.4993 -0.2784  0.0874
   87MOL0     C11638   9.920  10.308  10.227 -0.0339  0.2840  0.0882
   87MOL0     C11639  10.062  10.275  10.268 -0.1495  0.3745  0.0818
   87MOL0     O11640  10.106  10.320  10.399  0.2804 -0.0019 -0.1537
   87MOL0     C11641  10.228  10.276  10.450 -0.3165  0.8659  0.3256
   87MOL0     C11642  10.351  10.319  10.393  0.5695  0.6817 -0.3354
   87MOL0     C11643  10.469  10.280  10.440 -0.2286  0.6106 -0.1135
   87MOL0     C11644  10.470  10.191  10.550 -0.0562 -0.6961  0.1258
   87MOL0     O11645  10.582  10.141  10.605 -0.1924  0.1674  0.4601
   87MOL0     C11646  10.698  10.119  10.521 -0.0302 -0.4315 -0.9140
   87MOL0     C11647  10.801  10.014  10.576  0.5836 -0.5647  0.2398
   87MOL0     C11648  10.870  10.044  10.715 -0.0123 -0.3043 -0.4530
   87MOL0     C11649  10.929  10.186  10.716  0.2231 -0.0197 -1.0615
   87MOL0     C11650  11.042  10.194  10.817 -0.3055  0.3999 -0.2081
   87MOL0     C11651  11.050  10.337  10.875 -0.2043 -0.2065  0.7560
   87MOL0     C11652  11.064  10.446  10.767 -0.5742 -0.0980  0.2342
   87MOL0     C11653  11.206  10.494  10.745 -0.0015 -0.0967 -0.2118
   87MOL0    Cl11654  11.300  10.384  10.645 -0.2934 -0.1966  0.3137
   87MOL0     C11655  10.346  10.149  10.609 -0.6482  0.2089 -0.2752
   87MOL0     C11656  10.226  10.190  10.557  0.1236  0.1732 -0.6751
   87MOL0     O11657  10.139  10.213  10.192  0.8606 -0.0008  0.6591
   87MOL0     C11658   9.885  10.274  10.095  0.5915  0.6603  0.6438
   87MOL0     C11659   9.762  10.301  10.058 -0.7259 -0.5215  0.8564
   87MOL0     N11660   9.002   9.973   9.936 -0.4047 -0.6136 -0.1172
   87MOL0     N11661   8.893   9.922   9.897 -0.4497  0.4136 -0.2151
   87MOL0     C11662   7.582   9.844   9.646 -0.3950  0.4068  1.1025
   87MOL0     C11663   7.451   9.818   9.668 -0.3070  0.7259 -0.2210
   87MOL0     C11664   7.036   9.889   9.859 -0.6192  0.5354 -0.5214
   87MOL0     C11665   6.983   9.766   9.818 -0.2678  0.1523  1.2841
   87MOL0     C11666   6.849   9.741   9.816  0.6813 -0.6598 -0.5544
   87MOL0     C11667   6.762   9.840   9.860  0.7414  0.3834  0.7479
   87MOL0     O11668   6.631   9.799   9.847 -0.8447 -0.2006  0.1101
   87MOL0     C11669   6.544   9.909   9.868 -0.2250 -0.1822  0.6364
   87MOL0     C11670   6.408   9.852   9.824  0.3044 -0.3871  0.6484
   87MOL0     C11671   6.349   9.744   9.907  0.5166 -0.0894 -0.5494
   87MOL0     C11672   6.199   9.701   9.890 -0.9395  0.8587 -0.2077
   87MOL0     C11673   6.174   9.577   9.976 -0.2862  0.0925  0.2692
   87MOL0     C11674   6.147   9.489  10.052  0.3771  0.1179 -0.0872
   87MOL0     C11675   6.814   9.973   9.898  0.1651  0.6782  0.8973
   87MOL0     C11676   6.951   9.988   9.913  0.3333 -0.1898  0.4061
   87MOL0     C11677   6.985  10.123   9.980 -0.2894  1.1668 -0.2788
   87MOL0     H11678   7.427   9.897  10.002  1.3370 -0.4705 -1.0385
   87MOL0     H11679   7.670   9.953   9.953  0.0990  1.5092 -0.1172
   87MOL0     H11680   7.892   9.971   9.897 -4.0561  0.1315  0.1160
   87MOL0     H11681   7.917   9.803   9.843 -0.8495 -0.1278  0.4461
   87MOL0     H11682   7.998  10.075   9.710  3.6266  1.1601 -1.2059
   87MOL0     H11683   8.017   9.932   9.625 -0.4657  0.9872  0.1502
   87MOL0     H11684   8.165   9.875   9.870  0.1053  0.3214  1.2259
   87MOL0     H11685   8.156  10.059   9.852 -0.9251  0.6171 -0.2405
   87MOL0     H11686   8.264   9.856   9.658  1.2300 -1.0379  0.2564
   87MOL0     H11687   8.265  10.032   9.631 -0.1148 -1.6098 -1.4783
   87MOL0     H11688   8.399   9.977   9.885 -1.2283  3.0252  0.4701
   87MOL0     H11689   8.454   9.853   9.757 -1.6932 -0.3453 -1.2639
   87MOL0     H11690   8.500  10.032   9.605 -1.6674 -0.2942  0.7629
   87MOL0     H11691   8.441  10.152   9.719 -1.7600 -0.7963 -4.4971
   87MOL0     H11692   8.630  10.061   9.877  1.2998 -2.7195  0.1586
   87MOL0     H11693   8.683  10.164   9.732 -0.3541 -0.1943 -0.5948
   87MOL0     H11694   8.676   9.869   9.750  1.1614 -1.3233 -2.1566
   87MOL0     H11695   8.729   9.948   9.612 -0.6899 -0.3167 -0.3027
   87MOL0     H11696   8.935  10.154   9.667  2.0589 -1.6622 -1.2833
   87MOL0     H11697   9.247  10.119   9.761  0.8799  3.0432 -1.0630
   87MOL0     H11698   9.140  10.256   9.791  0.0419  0.9428  3.0291
   87MOL0     H11699   9.152  10.223  10.028 -0.7931 -1.2254 -0.7887
   87MOL0     H11700   9.258  10.082  10.004 -0.3338 -0.3143 -1.2714
   87MOL0     H11701   9.305  10.385   9.984 -0.6745 -0.2303  2.3645
   87MOL0     H11702   9.398  10.290   9.869  1.0459  1.8384  0.8683
   87MOL0     H11703   9.485  10.169  10.080 -1.4663 -1.4038 -1.0998
   87MOL0     H11704   9.388  10.262  10.180  0.9976  0.1530  0.4980
   87MOL0     H11705   9.615  10.469  10.310  0.0932  3.7332 -4.2385
   87MOL0     H11706   9.852  10.401  10.406  1.2810 -2.6957  0.1050
   87MOL0     H11707  10.344  10.388  10.309 -1.8879  1.4523  0.4202
   87MOL0     H11708  10.560  10.315  10.393  2.5435  1.0310  4.8356
   87MOL0     H11709  10.674  10.076  10.423  1.4289 -2.5482 -0.4059
   87MOL0     H11710  10.752  10.213  10.507 -2.0063  0.4924 -3.0009
   87MOL0     H11711  10.740   9.923  10.572 -0.3094  0.0550 -0.8348
   87MOL0     H11712  10.886  10.009  10.508  0.3509 -1.7660  0.0076
   87MOL0     H11713  10.800  10.050  10.798  0.6418  2.1814 -0.0017
   87MOL0     H11714  10.951   9.973  10.735 -0.0644 -0.7053 -1.5733
   87MOL0     H11715  10.850  10.256  10.745  0.5958  0.3220 -0.8567
   87MOL0     H11716  10.977  10.216  10.623  0.7408  0.4806 -0.6402
   87MOL0     H11717  11.130  10.159  10.761 -0.9541  1.6320 -2.1233
   87MOL0     H11718  11.023  10.127  10.901  0.3942 -0.5515 -0.7808
   87MOL0     H11719  10.971  10.346  10.949  0.5091 -2.3210  1.8629
   87MOL0     H11720  11.143  10.328  10.932  0.5709 -3.8833 -0.7421
   87MOL0     H11721  11.000  10.529  10.797  0.4501  0.6038  0.5646
   87MOL0     H11722  11.024  10.413  10.671  2.6249 -2.3081 -0.5106
   87MOL0     H11723  11.211  10.597  10.710  1.0222 -0.8270 -2.4465
   87MOL0     H11724  11.255  10.511  10.841  0.3460  1.2493 -0.6050
   87MOL0     H11725  10.362  10.085  10.695  2.5436  2.2834  0.8720
   87MOL0     H11726  10.125  10.152  10.568  1.2208 -2.5647  0.7845
   87MOL0     H11727   9.938  10.216  10.020 -2.2807  0.4298 -1.3717
   87MOL0     H11728   9.736  10.273   9.957  2.4724  0.4423 -0.3540
   87MOL0     H11729   7.621   9.842   9.545  0.2133 -0.0124  1.3411
   87MOL0     H11730   7.397   9.778   9.583 -1.9175  1.6164  0.3507
   87MOL0     H11731   7.049   9.694   9.770 -0.1350  1.1196 -0.0608
   87MOL0     H11732   6.807   9.649   9.774  0.7797 -1.2590  0.6326
   87MOL0     H11733   6.573   9.990   9.801 -0.1061 -0.7951 -0.0612
   87MOL0     H11734   6.541   9.940   9.973  1.8600 -0.6347  0.8733
   87MOL0     H11735   6.416   9.814   9.722  1.0070  1.3682  0.0222
   87MOL0     H11736   6.329   9.927   9.834 -0.6338 -1.4777  1.8637
   87MOL0     H11737   6.376   9.779  10.007  0.5862  0.9545 -0.9207
   87MOL0     H11738   6.405   9.652   9.884  0.2535 -0.3655 -0.1030
   87MOL0     H11739   6.121   9.775   9.914 -1.5476  0.4867 -1.0038
   87MOL0     H11740   6.191   9.664   9.788  0.6857  1.5845 -0.6262
   87MOL0     H11741   6.128   9.408  10.118 -1.9179  0.6095 -0.0562
   87MOL0     H11742   6.748  10.049   9.936  0.5206 -0.6100  4.5544
   87MOL0     H11743   7.069  10.095  10.045 -1.6699  0.5621  1.3193
   87MOL0     H11744   7.007  10.202   9.907 -2.6555  0.1073 -2.2490
   87MOL0     H11745   6.908  10.177  10.036  1.0715  2.0119  0.8766
   88MOL0     O11746   6.484   0.489   6.612  0.3484  0.5692 -0.1300
   88MOL0     C11747   6.427   0.578   6.556  0.4169 -0.8191  0.0482
   88MOL0     O11748   6.475   0.648   6.447 -0.2543 -0.4024 -0.0676
   88MOL0     C11749   6.607   0.647   6.406 -0.3959  0.2640  0.2565
   88MOL0     C11750   6.686   0.756   6.441  0.8279  1.1425  0.1684
   88MOL0     C11751   6.815   0.759   6.402 -0.6723 -0.3420 -0.5531
   88MOL0     C11752   6.868   0.659   6.326 -0.3721  0.6615  0.8209
   88MOL0     O11753   7.001   0.663   6.282 -1.4222 -0.9717 -0.0102
   88MOL0     C11754   7.106   0.672   6.385  0.1600 -0.4049 -0.4394
   88MOL0     C11755   7.238   0.621   6.339 -0.4573 -0.5749  1.0571
   88MOL0     C11756   7.337   0.629   6.455 -0.1065 -0.1710 -0.4033
   88MOL0     C11757   7.475   0.583   6.400  2.4984 -0.2596  0.8274
   88MOL0     C11758   7.566   0.581   6.520 -0.4858 -0.5741  0.1587
   88MOL0     C11759   7.566   0.442   6.584  0.3345 -0.1919 -0.0368
   88MOL0     C11760   7.700   0.420   6.655  0.3329 -0.4176 -0.2597
   88MOL0     C11761   7.813   0.364   6.562 -1.2236 -1.0444 -0.4469
   88MOL0     N11762   7.938   0.339   6.633  0.6311  0.3566  0.4092
   88MOL0     C11763   7.977   0.222   6.699  0.0832 -0.4175 -0.8717
   88MOL0     C11764   8.103   0.250   6.744 -1.0373  0.5514  0.3191
   88MOL0     C11765   8.177   0.161   6.832 -0.4036  0.0592  0.4100
   88MOL0     C11766   8.234   0.027   6.767 -0.2089 -0.3468 -0.9749
   88MOL0     C11767   8.337   0.047   6.646 -1.0151 -0.6796  0.4996
   88MOL0     C11768   8.447   0.154   6.677  0.2416 -0.4100 -0.5146
   88MOL0     O11769   8.524   0.184   6.561  0.1100  0.2236 -0.4426
   88MOL0     C11770   8.648   0.234   6.575  0.1576  0.8898 -0.1607
   88MOL0     C11771   8.728   0.238   6.462  0.5490 -0.3945 -0.5490
   88MOL0     C11772   8.856   0.284   6.456  0.3116 -0.2687  0.2781
   88MOL0     C11773   8.913   0.325   6.575 -0.3672  0.1947  0.0590
   88MOL0     C11774   9.056   0.350   6.581  0.1659  0.5937  0.3077
   88MOL0     O11775   9.122   0.328   6.462 -0.2903 -1.2763 -0.8643
   88MOL0     C11776   9.253   0.348   6.427  0.6886 -0.0858 -0.3555
   88MOL0     C11777   9.291   0.301   6.305 -0.4709  0.3527  0.4448
   88MOL0     C11778   9.424   0.311   6.258 -0.1417 -0.0077  0.4097
   88MOL0     C11779   9.512   0.368   6.349  0.0907 -0.2310 -0.1838
   88MOL0     O11780   9.645   0.389   6.319  0.1672  0.0728  0.2141
   88MOL0     C11781   9.683   0.364   6.176  0.0005 -0.3205  0.6399
   88MOL0     C11782   9.823   0.408   6.148 -0.7541  0.3180 -0.0303
   88MOL0     C11783   9.929   0.358   6.250  0.6757 -0.7734  0.3866
   88MOL0     C11784  10.061   0.430   6.222 -0.0646 -0.1976 -0.1371
   88MOL0     C11785  10.179   0.401   6.320 -0.4435 -0.3471 -0.2588
   88MOL0     C11786  10.274   0.522   6.321 -0.1146 -0.0784 -0.2402
   88MOL0     C11787  10.368   0.513   6.435  0.0533 -0.3411  0.2436
   88MOL0     C11788  10.476   0.624   6.427 -0.0574 -0.6257  0.9329
   88MOL0    Cl11789  10.582   0.613   6.280  0.4832 -0.4146 -0.2562
   88MOL0     C11790   9.476   0.387   6.487 -0.3936 -0.1927  0.0207
   88MOL0     C11791   9.347   0.390   6.520  0.2915  0.5322 -0.2213
   88MOL0     O11792   9.100   0.404   6.680  0.1843 -0.2009 -0.0485
   88MOL0     C11793   8.832   0.340   6.690 -0.0120 -0.0848  0.7837
   88MOL0     C11794   8.702   0.283   6.688  0.0932 -0.0584  0.1584
   88MOL0     N11795   8.138   0.378   6.705  0.4331  0.1070  0.2452
   88MOL0     N11796   8.039   0.427   6.631 -0.0852  0.3125  0.5179
   88MOL0     C11797   6.789   0.556   6.286  0.1384 -0.0698 -0.4013
   88MOL0     C11798   6.655   0.543   6.325  0.3512 -0.2776  0.2042
   88MOL0     C11799   6.292   0.597   6.608 -0.3126  0.2993 -0.1594
   88MOL0     C11800   6.225   0.501   6.674  0.5044  0.3607 -0.2991
   88MOL0     C11801   6.091   0.534   6.718 -0.7486  0.3767 -0.2776
   88MOL0     C11802   6.030   0.657   6.696 -0.3394  0.4741 -0.1099
   88MOL0     O11803   5.900   0.666   6.743 -0.3108  0.2701  0.1591
   88MOL0     C11804   5.827   0.797   6.733 -0.6437  0.4962 -0.1822
   88MOL0     C11805   5.690   0.774   6.676  0.0569  0.5775 -0.4838
   88MOL0     C11806   5.573   0.712   6.761 -0.4153 -0.8137 -0.3190
   88MOL0     C11807   5.447   0.672   6.689 -0.5004 -0.2292 -0.8453
   88MOL0     C11808   5.469   0.558   6.594 -0.0709 -0.2717 -0.5247
   88MOL0     C11809   5.470   0.471   6.510 -0.6887 -0.8156 -0.0523
   88MOL0     C11810   6.105   0.759   6.636  0.5227 -0.1405  0.5238
   88MOL0     C11811   6.233   0.728   6.603  0.0939  0.2344  0.8799
   88MOL0     C11812   6.317   0.851   6.571  0.2027  0.1992 -0.2781
   88MOL0     H11813   6.651   0.840   6.500 -0.6255 -0.6530  2.0067
   88MOL0     H11814   6.878   0.844   6.429  1.2782 -2.1687  1.0557
   88MOL0     H11815   7.130   0.774   6.417 -1.3784  0.0428 -0.5974
   88MOL0     H11816   7.079   0.613   6.473  0.8063  0.8513  0.6394
   88MOL0     H11817   7.273   0.685   6.257  2.3805 -0.9593  1.8920
   88MOL0     H11818   7.234   0.517   6.305 -0.9494 -0.9730  2.2719
   88MOL0     H11819   7.308   0.573   6.544  1.5433  1.9320  1.5682
   88MOL0     H11820   7.350   0.734   6.482  0.7605 -0.1331 -0.9265
   88MOL0     H11821   7.462   0.488   6.348  1.0260 -0.1858  1.0077
   88MOL0     H11822   7.491   0.650   6.315 -1.7592 -1.0238 -0.8197
   88MOL0     H11823   7.665   0.598   6.477 -0.6335 -2.2296 -0.9264
   88MOL0     H11824   7.539   0.660   6.590 -1.1951  0.8487 -1.6228
   88MOL0     H11825   7.484   0.429   6.655 -0.0163 -1.1612 -0.6100
   88MOL0     H11826   7.564   0.356   6.517  0.9005 -2.0332  2.1722
   88MOL0     H11827   7.673   0.356   6.741 -1.7265 -0.0112 -0.5417
   88MOL0     H11828   7.735   0.518   6.689 -0.8752 -0.0721  0.0444
   88MOL0     H11829   7.778   0.279   6.503  1.8582 -1.4434 -1.9181
   88MOL0     H11830   7.838   0.446   6.493 -1.8114 -0.7295 -0.2871
   88MOL0     H11831   7.919   0.136   6.731  2.1071 -0.6181  2.9221
   88MOL0     H11832   8.253   0.218   6.887 -1.7637  0.5258  1.8794
   88MOL0     H11833   8.107   0.139   6.914 -1.4698  0.8923 -0.2543
   88MOL0     H11834   8.291  -0.028   6.843 -0.1692  0.2113 -0.5879
   88MOL0     H11835   8.150  -0.039   6.743  1.4010 -2.2072 -1.7363
   88MOL0     H11836   8.294   0.064   6.546 -0.0534  2.5135  0.5371
   88MOL0     H11837   8.388  -0.049   6.635 -1.1505 -0.6455 -0.6032
   88MOL0     H11838   8.512   0.134   6.763  0.7065  0.7071 -0.5883
   88MOL0     H11839   8.388   0.243   6.705  2.6678  0.9410  0.6617
   88MOL0     H11840   8.675   0.205   6.373 -2.7903 -1.3150  1.6030
   88MOL0     H11841   8.911   0.274   6.364  0.8334 -2.1754  0.7493
   88MOL0     H11842   9.207   0.279   6.242 -1.6270  2.1458  1.2708
   88MOL0     H11843   9.447   0.278   6.157 -1.4070  1.7130 -0.5120
   88MOL0     H11844   9.677   0.257   6.155 -0.0067 -0.1288 -0.3517
   88MOL0     H11845   9.621   0.420   6.106  3.4804  2.2033 -0.6894
   88MOL0     H11846   9.848   0.375   6.047 -1.4830  0.2492 -0.1957
   88MOL0     H11847   9.819   0.517   6.151 -2.3061  0.3454  4.3454
   88MOL0     H11848   9.891   0.388   6.348  1.8096 -0.0031  0.6034
   88MOL0     H11849   9.940   0.250   6.236  1.7227 -0.8005  1.3048
   88MOL0     H11850  10.036   0.535   6.237 -0.8842 -0.5256  0.8829
   88MOL0     H11851  10.081   0.410   6.116 -1.0225 -2.4204  0.0420
   88MOL0     H11852  10.239   0.310   6.309  1.7180  1.0672 -0.6166
   88MOL0     H11853  10.140   0.412   6.422  1.6420  2.7682  0.3309
   88MOL0     H11854  10.332   0.532   6.229 -0.3312  2.6024 -0.1459
   88MOL0     H11855  10.220   0.617   6.329 -0.7924 -0.2597 -2.1143
   88MOL0     H11856  10.416   0.415   6.435  0.4504 -0.1535 -0.8561
   88MOL0     H11857  10.323   0.532   6.533  1.5057  2.9686  0.3863
   88MOL0     H11858  10.420   0.717   6.430 -0.6103 -0.8934 -0.4042
   88MOL0     H11859  10.532   0.624   6.521 -1.1779  1.8250  1.6753
   88MOL0     H11860   9.536   0.424   6.569 -0.1299 -1.0581  0.2262
   88MOL0     H11861   9.331   0.416   6.624  0.5066  1.2590 -0.3646
   88MOL0     H11862   8.871   0.387   6.779  0.2485  0.3512  0.4438
   88MOL0     H11863   8.657   0.262   6.785  0.6395 -0.3864  0.3479
   88MOL0     H11864   6.840   0.481   6.227  3.3716  0.8046  1.0653
   88MOL0     H11865   6.590   0.462   6.295 -0.7305 -0.1224  1.9812
   88MOL0     H11866   6.268   0.403   6.685 -2.1437 -0.8759 -0.0710
   88MOL0     H11867   6.027   0.463   6.770  1.8199 -1.9742 -0.1319
   88MOL0     H11868   5.885   0.871   6.676 -2.2826 -0.7434 -3.8063
   88MOL0     H11869   5.816   0.848   6.829  0.5780  0.5356 -0.0457
   88MOL0     H11870   5.703   0.713   6.586 -1.8113 -1.6098  0.6197
   88MOL0     H11871   5.656   0.874   6.646 -1.1622  0.6928  1.1600
   88MOL0     H11872   5.544   0.778   6.843 -0.8041 -0.5893 -0.6331
   88MOL0     H11873   5.610   0.618   6.803  2.6936 -0.3205 -1.7029
   88MOL0     H11874   5.384   0.638   6.772 -0.1251 -0.9509 -0.8444
   88MOL0     H11875   5.411   0.753   6.625 -0.5794  0.2891 -0.1556
   88MOL0     H11876   5.499   0.400   6.435  1.1668 -0.6469  0.4725
   88MOL0     H11877   6.073   0.862   6.624  1.6006  0.1512  0.0356
   88MOL0     H11878   6.289   0.936   6.634  1.3657  2.8628 -3.0687
   88MOL0     H11879   6.424   0.834   6.586  0.3965  2.4312  1.2801
   88MOL0     H11880   6.295   0.892   6.472 -1.1942 -1.4579 -0.7068
   89MOL0     O11881   5.101   4.714   0.147  0.3902 -0.6366  0.0185
   89MOL0     C11882   5.200   4.772   0.096 -0.4192 -0.1031  0.1757
   89MOL0     O11883   5.194   4.893   0.030  0.0171 -0.8096  0.2029
   89MOL0     C11884   5.078   4.966   0.014 -0.5446 -0.3454 -0.3819
   89MOL0     C11885   5.055   5.029  -0.107 -0.0973 -0.0261 -0.2813
   89MOL0     C11886   4.954   5.129  -0.112  1.3223 -0.4496 -0.2310
   89MOL0     C11887   4.873   5.157  -0.012 -0.0621  0.4353  0.3165
   89MOL0     O11888   4.766   5.237  -0.033 -0.3806 -0.2608 -0.0072
   89MOL0     C11889   4.741   5.331   0.069 -0.1882 -0.2842  0.0143
   89MOL0     C11890   4.709   5.463   0.004  0.8101 -0.1830  1.5644
   89MOL0     C11891   4.818   5.511  -0.076 -0.3126 -0.3401  0.5677
   89MOL0     C11892   4.792   5.644  -0.135 -0.2702 -0.6282  0.0630
   89MOL0     C11893   4.912   5.714  -0.194 -0.3035  0.2481  0.3368
   89MOL0     C11894   4.878   5.854  -0.234  0.0506  0.5162 -0.3297
   89MOL0     C11895   4.979   5.925  -0.331  0.1101  0.2209 -0.8075
   89MOL0     C11896   5.111   5.957  -0.260 -0.7666  0.5017 -0.5193
   89MOL0     N11897   5.099   6.032  -0.143  0.3610 -0.6408 -0.7063
   89MOL0     C11898   5.041   6.156  -0.130  0.2123 -0.3740  0.2049
   89MOL0     C11899   5.048   6.184  -0.001  0.2023 -0.3082 -0.7316
   89MOL0     C11900   5.011   6.323   0.058  0.5340  1.1730  0.5723
   89MOL0     C11901   5.133   6.410   0.072  0.0831 -0.4683  0.1190
   89MOL0     C11902   5.243   6.358   0.159  0.2207  0.1183 -0.0464
   89MOL0     C11903   5.361   6.463   0.166  0.3662  0.1868 -0.6639
   89MOL0     O11904   5.310   6.582   0.230 -0.0769  0.0317  0.3638
   89MOL0     C11905   5.393   6.690   0.244 -1.2319  0.6371 -0.8019
   89MOL0     C11906   5.521   6.688   0.307 -0.1419  0.6082  0.0052
   89MOL0     C11907   5.612   6.792   0.296 -0.3060 -0.5359 -0.4604
   89MOL0     C11908   5.568   6.913   0.242  0.6001  0.6672 -0.3409
   89MOL0     C11909   5.662   7.030   0.234 -0.7325 -0.0056  0.4338
   89MOL0     O11910   5.766   7.032   0.323  0.3390  0.3100  0.1481
   89MOL0     C11911   5.852   7.133   0.306  0.4236  0.3193  0.5418
   89MOL0     C11912   5.818   7.253   0.368 -0.1451 -0.4347  0.9710
   89MOL0     C11913   5.895   7.363   0.344  0.8453 -1.3247 -0.0354
   89MOL0     C11914   6.014   7.359   0.268 -0.4094 -0.6962 -0.1491
   89MOL0     O11915   6.091   7.470   0.237 -0.4609  0.2020 -0.0175
   89MOL0     C11916   6.050   7.611   0.255 -0.3902  0.9184 -0.0409
   89MOL0     C11917   6.149   7.696   0.171  0.8709 -0.1363 -0.4134
   89MOL0     C11918   6.282   7.684   0.236 -0.3151  0.4159  0.9306
   89MOL0     C11919   6.384   7.789   0.181  0.3079 -0.2065 -0.0954
   89MOL0     C11920   6.532   7.754   0.215  0.1977  0.4041 -0.5572
   89MOL0     C11921   6.615   7.869   0.270  0.1415  0.7090 -0.7572
   89MOL0     C11922   6.734   7.816   0.361  0.9523 -0.6970  0.1875
   89MOL0     C11923   6.849   7.759   0.279  0.7820  0.2206  0.1219
   89MOL0    Cl11924   6.899   7.887   0.167  0.0437 -0.1656  0.0437
   89MOL0     C11925   6.054   7.239   0.223 -0.6022 -0.7077 -0.2267
   89MOL0     C11926   5.973   7.120   0.230 -0.2257 -0.2417  0.9084
   89MOL0     O11927   5.638   7.119   0.144  0.0208 -0.6366 -0.4346
   89MOL0     C11928   5.436   6.920   0.196  0.4887  0.7622  0.3865
   89MOL0     C11929   5.345   6.810   0.194 -0.8371 -0.6020  0.5063
   89MOL0     N11930   5.109   6.082   0.060 -0.2687 -0.0672 -0.6573
   89MOL0     N11931   5.141   5.991  -0.017 -1.1147  0.3569  0.4572
   89MOL0     C11932   4.888   5.085   0.108 -0.5543 -0.0659  0.0785
   89MOL0     C11933   4.995   4.999   0.123 -0.2596  0.3274 -0.1424
   89MOL0     C11934   5.340   4.716   0.122  0.2157 -0.1714 -0.0352
   89MOL0     C11935   5.451   4.809   0.134  0.7311  0.8612  0.5413
   89MOL0     C11936   5.579   4.769   0.165  0.2494 -0.4188  0.1831
   89MOL0     C11937   5.615   4.639   0.157  0.6297  0.2655 -0.6163
   89MOL0     O11938   5.749   4.604   0.177  0.0419  0.3364 -0.4143
   89MOL0     C11939   5.844   4.674   0.093  0.3983 -0.4798  0.1068
   89MOL0     C11940   5.968   4.591   0.082 -0.2995  0.3964  0.0934
   89MOL0     C11941   5.960   4.468  -0.010 -0.0676 -0.4433 -0.3742
   89MOL0     C11942   6.079   4.380   0.017 -0.9792  0.6700  0.5260
   89MOL0     C11943   6.118   4.300  -0.096  1.0736 -0.4043 -0.8822
   89MOL0     C11944   6.148   4.240  -0.198  0.1316  0.0243 -0.6076
   89MOL0     C11945   5.514   4.543   0.153 -0.8750  0.2214 -0.1260
   89MOL0     C11946   5.377   4.578   0.131  0.1157 -0.0039  0.7933
   89MOL0     C11947   5.281   4.461   0.112  0.7037 -0.9083  0.1072
   89MOL0     H11948   5.119   5.022  -0.195  1.0257  1.0926  0.4093
   89MOL0     H11949   4.941   5.184  -0.205  1.2964  0.8159  0.5027
   89MOL0     H11950   4.666   5.291   0.139 -0.4323  2.0919  1.2223
   89MOL0     H11951   4.824   5.351   0.138 -2.2776  2.0073  2.0795
   89MOL0     H11952   4.677   5.546   0.068 -2.5015  2.4415 -2.9182
   89MOL0     H11953   4.623   5.442  -0.060  1.5325 -2.0698  1.1555
   89MOL0     H11954   4.859   5.440  -0.149 -1.2865  1.7273 -2.1744
   89MOL0     H11955   4.899   5.542  -0.010 -1.0653  0.6093  1.0697
   89MOL0     H11956   4.705   5.638  -0.202 -3.2665 -0.7732  3.6448
   89MOL0     H11957   4.757   5.701  -0.048 -2.1878 -1.8716  0.1821
   89MOL0     H11958   4.998   5.720  -0.126  0.4773  1.4565 -0.7114
   89MOL0     H11959   4.955   5.663  -0.280 -0.6833 -0.7039  0.6973
   89MOL0     H11960   4.782   5.847  -0.287 -0.0096 -1.3224 -0.0456
   89MOL0     H11961   4.850   5.906  -0.142 -3.6185 -1.0693 -0.3695
   89MOL0     H11962   4.941   6.022  -0.365 -0.4512 -0.9144 -3.7874
   89MOL0     H11963   4.997   5.853  -0.412  0.7637 -3.2905  2.2241
   89MOL0     H11964   5.181   5.877  -0.236  3.5604  3.7887 -0.8177
   89MOL0     H11965   5.168   6.018  -0.330 -0.2697 -2.1484 -2.5822
   89MOL0     H11966   4.999   6.207  -0.217  2.0410  1.4618  0.3139
   89MOL0     H11967   4.944   6.368  -0.016  1.2073  1.1686 -0.0459
   89MOL0     H11968   4.948   6.315   0.147 -0.7047  4.6625  0.1843
   89MOL0     H11969   5.172   6.438  -0.027 -1.3312  0.9569 -0.0768
   89MOL0     H11970   5.099   6.499   0.124 -2.0699 -1.5504  0.6853
   89MOL0     H11971   5.301   6.278   0.112  2.1318  1.6032 -0.3549
   89MOL0     H11972   5.215   6.329   0.261  1.7956 -1.3880  0.0050
   89MOL0     H11973   5.405   6.489   0.069  0.4034  0.4562 -0.5747
   89MOL0     H11974   5.441   6.425   0.230 -0.2719  0.5822  0.3931
   89MOL0     H11975   5.552   6.591   0.345 -0.1209  1.4984  2.4446
   89MOL0     H11976   5.712   6.771   0.335 -0.9542 -2.1682  0.4021
   89MOL0     H11977   5.728   7.250   0.427 -1.6959  3.6868 -0.7945
   89MOL0     H11978   5.857   7.454   0.388  1.5411 -0.5404 -1.0035
   89MOL0     H11979   5.947   7.634   0.224 -0.3733  2.8129  1.1510
   89MOL0     H11980   6.056   7.643   0.360  0.5231  3.9319 -0.9286
   89MOL0     H11981   6.153   7.660   0.067  1.4205  0.0965 -0.4751
   89MOL0     H11982   6.113   7.799   0.175 -1.0744 -0.7857  3.5026
   89MOL0     H11983   6.280   7.698   0.344  1.6084 -0.1382  1.0783
   89MOL0     H11984   6.319   7.581   0.236  2.2637  1.2515  2.3832
   89MOL0     H11985   6.337   7.878   0.224 -3.3635 -0.8267 -2.3690
   89MOL0     H11986   6.370   7.802   0.073  0.3445  0.4151 -0.0322
   89MOL0     H11987   6.583   7.705   0.131  0.7447  0.8521 -0.4858
   89MOL0     H11988   6.527   7.669   0.284  2.2698 -0.3459 -1.2497
   89MOL0     H11989   6.650   7.939   0.193  1.8375 -0.3135 -0.9799
   89MOL0     H11990   6.546   7.927   0.331  0.8974  0.6296  0.1860
   89MOL0     H11991   6.692   7.755   0.441 -2.1041  1.9440  0.7850
   89MOL0     H11992   6.771   7.903   0.417 -3.7702  2.0010 -0.3134
   89MOL0     H11993   6.933   7.732   0.342  0.7431 -3.6361 -1.2192
   89MOL0     H11994   6.812   7.674   0.220 -0.2770  2.4852 -2.7548
   89MOL0     H11995   6.148   7.252   0.170  0.7203  1.8720  2.4385
   89MOL0     H11996   5.997   7.028   0.177  2.7686  1.7518 -1.5433
   89MOL0     H11997   5.400   7.011   0.149 -3.5250 -2.3800 -3.5089
   89MOL0     H11998   5.242   6.812   0.161 -0.7884 -1.7408  0.2682
   89MOL0     H11999   4.821   5.087   0.193  0.2728 -0.1555  0.7510
   89MOL0     H12000   5.002   4.947   0.218  2.9829  0.0480 -0.4165
   89MOL0     H12001   5.430   4.916   0.130 -2.5381  0.3232  0.1799
   89MOL0     H12002   5.655   4.846   0.174 -2.1564  2.7044 -3.1144
   89MOL0     H12003   5.866   4.770   0.140 -0.4289 -0.4116  0.3676
   89MOL0     H12004   5.809   4.701  -0.007  0.1213  1.9489  0.7928
   89MOL0     H12005   5.998   4.556   0.181  1.5670 -1.3117 -1.0006
   89MOL0     H12006   6.044   4.660   0.045 -0.6097 -0.2936 -1.9799
   89MOL0     H12007   5.971   4.494  -0.116  3.2543  1.3472  0.2689
   89MOL0     H12008   5.863   4.420   0.005  0.1099 -0.3926  0.9911
   89MOL0     H12009   6.166   4.444   0.035  0.3094 -0.0443 -2.4783
   89MOL0     H12010   6.061   4.314   0.102 -2.9625 -0.6998 -0.8719
   89MOL0     H12011   6.164   4.186  -0.289 -0.9989  1.4549 -1.7101
   89MOL0     H12012   5.543   4.442   0.183 -0.8681  0.6910  1.5233
   89MOL0     H12013   5.178   4.495   0.096  0.6921  0.2217  2.2371
   89MOL0     H12014   5.305   4.387   0.036 -2.3209 -0.6140 -1.3043
   89MOL0     H12015   5.286   4.405   0.206 -0.9909 -1.5129 -0.1177
   90MOL0     O12016   1.988   7.965   7.837  0.3986  0.1563 -0.4317
   90MOL0     C12017   2.022   8.030   7.740 -0.2349  0.6993  0.6581
   90MOL0     O12018   1.938   8.064   7.633 -0.2819 -0.0907 -0.5750
   90MOL0     C12019   1.811   8.027   7.619  0.6917  0.3746 -0.0847
   90MOL0     C12020   1.715   8.045   7.718  0.1871  0.0069  1.1774
   90MOL0     C12021   1.579   8.019   7.675  0.3151 -0.0980 -0.2251
   90MOL0     C12022   1.548   7.955   7.553  0.6417  0.1625  0.1146
   90MOL0     O12023   1.418   7.918   7.531  0.0377  0.3803  0.2185
   90MOL0     C12024   1.378   7.898   7.393 -0.3591  0.6050 -0.0474
   90MOL0     C12025   1.229   7.855   7.404  0.5786 -0.1822  0.2251
   90MOL0     C12026   1.127   7.972   7.411 -0.0208 -0.0170 -0.3558
   90MOL0     C12027   0.991   7.920   7.450  0.4712 -0.1420  0.2233
   90MOL0     C12028   0.881   8.032   7.425 -0.2192  0.5463  0.1581
   90MOL0     C12029   0.741   7.980   7.465  0.4828 -0.4865  0.4404
   90MOL0     C12030   0.681   7.851   7.387  0.2119 -0.5543  0.0536
   90MOL0     C12031   0.641   7.878   7.238  0.6134 -0.7727 -0.2259
   90MOL0     N12032   0.759   7.882   7.150  0.7961  0.8829 -0.0076
   90MOL0     C12033   0.867   7.797   7.148  0.8036 -0.9637 -0.8746
   90MOL0     C12034   0.947   7.855   7.050 -0.0573  0.2071 -0.5947
   90MOL0     C12035   1.075   7.778   7.020  0.1914 -0.0204  1.0735
   90MOL0     C12036   1.202   7.860   7.006 -0.6466 -0.9504 -0.0570
   90MOL0     C12037   1.267   7.870   6.873 -0.0074  0.2407  0.4350
   90MOL0     C12038   1.392   7.958   6.866  0.1217  0.0259  0.5901
   90MOL0     O12039   1.498   7.891   6.944 -0.9719  0.0790 -0.3737
   90MOL0     C12040   1.615   7.963   6.965 -0.0980 -0.0985 -0.4722
   90MOL0     C12041   1.718   7.904   7.041  1.2713 -0.2754 -0.2208
   90MOL0     C12042   1.838   7.969   7.050  0.9994 -0.7432 -0.6166
   90MOL0     C12043   1.857   8.097   7.000 -0.3818  0.4337 -0.1103
   90MOL0     C12044   1.991   8.159   7.026 -0.1547 -0.1814  0.3782
   90MOL0     O12045   2.051   8.145   7.150  0.6669  0.0063  0.1928
   90MOL0     C12046   2.174   8.208   7.169  0.2048 -0.0797 -0.3402
   90MOL0     C12047   2.286   8.129   7.200 -0.4801  0.5975 -0.3404
   90MOL0     C12048   2.409   8.193   7.222 -0.2161 -0.0707 -0.3578
   90MOL0     C12049   2.423   8.333   7.231  0.5238 -0.0563 -0.3675
   90MOL0     O12050   2.553   8.382   7.238 -0.5198  0.0001  0.0227
   90MOL0     C12051   2.586   8.447   7.107 -0.7252 -0.6687 -0.8253
   90MOL0     C12052   2.732   8.488   7.111  0.3994  0.4090 -0.2568
   90MOL0     C12053   2.754   8.605   7.008 -0.1609 -0.6142 -0.2634
   90MOL0     C12054   2.903   8.632   6.995 -0.0591 -0.0815  0.0352
   90MOL0     C12055   2.939   8.781   7.028 -0.7030 -0.2763  0.5724
   90MOL0     C12056   2.927   8.809   7.181  0.0762  0.7018 -0.2024
   90MOL0     C12057   2.978   8.947   7.205  0.0807  0.5083 -0.1973
   90MOL0     C12058   2.930   8.992   7.349  0.0227  0.2364  0.5450
   90MOL0    Cl12059   2.765   9.067   7.329  0.2574 -0.2976 -0.4900
   90MOL0     C12060   2.310   8.418   7.212 -0.6697 -0.4369  0.2386
   90MOL0     C12061   2.182   8.356   7.179 -1.2459  0.7208  0.2378
   90MOL0     O12062   2.035   8.225   6.940 -0.9193  0.0287 -0.4218
   90MOL0     C12063   1.758   8.151   6.911 -0.6283 -0.3948  0.3479
   90MOL0     C12064   1.642   8.080   6.887 -0.2315 -0.1846 -0.1688
   90MOL0     N12065   0.894   7.967   6.994  0.2452  0.4414 -0.0311
   90MOL0     N12066   0.784   7.980   7.059  0.3092  0.5335  0.5367
   90MOL0     C12067   1.654   7.934   7.461  1.1658 -0.6000  1.4874
   90MOL0     C12068   1.780   7.987   7.485 -0.4331 -0.2432  0.3740
   90MOL0     C12069   2.158   8.092   7.729 -0.0592  0.8873 -0.8996
   90MOL0     C12070   2.202   8.141   7.605  0.0242 -0.1246  0.1084
   90MOL0     C12071   2.323   8.211   7.587  1.1365  1.2951 -0.7943
   90MOL0     C12072   2.409   8.224   7.696 -0.1736 -0.5206 -0.4151
   90MOL0     O12073   2.525   8.301   7.695 -0.1790 -0.0648  0.4770
   90MOL0     C12074   2.547   8.403   7.587 -0.2456 -0.3144 -0.3284
   90MOL0     C12075   2.625   8.519   7.636 -0.5058 -0.1838  0.7976
   90MOL0     C12076   2.629   8.632   7.533  0.0926 -0.1983 -0.5082
   90MOL0     C12077   2.707   8.761   7.584  0.3746 -0.1644 -0.2551
   90MOL0     C12078   2.644   8.825   7.698 -0.0757  1.0305 -0.3825
   90MOL0     C12079   2.597   8.880   7.798 -0.4182  1.1876 -1.3992
   90MOL0     C12080   2.372   8.184   7.822 -0.0352 -0.0121  1.0506
   90MOL0     C12081   2.248   8.109   7.839  0.3959  0.3841 -0.1896
   90MOL0     C12082   2.225   8.075   7.987 -0.0123  0.3855  0.0417
   90MOL0     H12083   1.731   8.094   7.814  2.1657 -0.9034  1.3594
   90MOL0     H12084   1.493   8.053   7.732 -0.3134 -1.5206 -0.2724
   90MOL0     H12085   1.387   7.991   7.335  2.5769  0.2641 -0.2965
   90MOL0     H12086   1.430   7.810   7.354 -0.0938  0.5052  0.5167
   90MOL0     H12087   1.216   7.803   7.499  0.4945 -0.4889  0.0487
   90MOL0     H12088   1.206   7.798   7.314 -0.7372  0.7508 -0.0453
   90MOL0     H12089   1.119   8.028   7.317  2.8834  3.0260  1.0184
   90MOL0     H12090   1.162   8.047   7.482 -0.8311  0.0628 -0.0200
   90MOL0     H12091   0.966   7.829   7.396  0.8620 -0.4183  0.4963
   90MOL0     H12092   0.989   7.902   7.558  1.4705 -1.2621  0.0752
   90MOL0     H12093   0.903   8.122   7.484 -1.3441  0.4559  0.7491
   90MOL0     H12094   0.890   8.060   7.320  1.9640 -1.4943 -0.2629
   90MOL0     H12095   0.738   7.953   7.571 -3.0545  1.4866  1.0080
   90MOL0     H12096   0.670   8.059   7.437  1.1426 -0.1939 -0.4589
   90MOL0     H12097   0.596   7.819   7.446  0.3870  0.5509  0.9427
   90MOL0     H12098   0.756   7.772   7.393  0.4001 -0.3349  0.5771
   90MOL0     H12099   0.563   7.806   7.213 -0.0224  0.1061 -0.8763
   90MOL0     H12100   0.586   7.973   7.238  0.6526 -0.7494 -0.1301
   90MOL0     H12101   0.881   7.709   7.210 -1.0853  1.7206  3.8984
   90MOL0     H12102   1.086   7.697   7.092 -0.1706  0.8609  2.1411
   90MOL0     H12103   1.062   7.731   6.922  0.8111 -0.6145  1.2601
   90MOL0     H12104   1.174   7.959   7.042 -2.6501 -2.0352  1.5676
   90MOL0     H12105   1.282   7.822   7.070  1.1222 -0.2436 -1.7522
   90MOL0     H12106   1.199   7.910   6.797  1.8087 -0.3355 -1.5912
   90MOL0     H12107   1.289   7.775   6.824 -1.5918  1.0086 -1.9028
   90MOL0     H12108   1.362   8.059   6.894  0.9614  0.8764 -1.3762
   90MOL0     H12109   1.419   7.962   6.760  1.4674 -1.7096  0.8354
   90MOL0     H12110   1.689   7.815   7.097 -0.3998 -0.3708 -1.1547
   90MOL0     H12111   1.920   7.913   7.093  1.9568  1.7354  0.9963
   90MOL0     H12112   2.280   8.022   7.221  1.9175  0.6704  1.1674
   90MOL0     H12113   2.490   8.121   7.235  1.5811  1.8410 -0.4871
   90MOL0     H12114   2.565   8.382   7.022 -0.0530  1.3276 -2.6025
   90MOL0     H12115   2.534   8.543   7.097  1.8061  1.0325  1.1247
   90MOL0     H12116   2.774   8.520   7.207 -0.7191 -0.3658  0.5237
   90MOL0     H12117   2.793   8.402   7.081  1.2391  1.4762 -1.7079
   90MOL0     H12118   2.709   8.603   6.909 -2.6233  0.6303  0.7568
   90MOL0     H12119   2.713   8.688   7.066  1.1477 -0.2359  0.1776
   90MOL0     H12120   2.925   8.605   6.892 -0.8424 -1.5490  0.2264
   90MOL0     H12121   2.970   8.566   7.051 -0.1431  0.3888  0.7185
   90MOL0     H12122   2.868   8.842   6.973 -1.7976 -0.0335  2.1916
   90MOL0     H12123   3.035   8.806   6.981 -1.7015  1.4609 -0.6678
   90MOL0     H12124   2.822   8.806   7.214 -0.0538 -2.2503 -0.6408
   90MOL0     H12125   2.981   8.728   7.233 -3.1938 -0.9472  0.9290
   90MOL0     H12126   2.943   9.011   7.123 -0.1584 -1.3057 -1.5736
   90MOL0     H12127   3.087   8.948   7.195 -0.0155 -1.8738 -3.0951
   90MOL0     H12128   2.941   8.912   7.424  1.0381 -1.8007 -1.6397
   90MOL0     H12129   2.993   9.078   7.376 -1.9009  1.6500  0.7188
   90MOL0     H12130   2.327   8.525   7.212 -1.0418 -0.3317 -2.0274
   90MOL0     H12131   2.100   8.421   7.149 -1.2609  0.8258  0.5005
   90MOL0     H12132   1.772   8.242   6.855 -1.5037 -0.8891 -0.7050
   90MOL0     H12133   1.588   8.114   6.800 -1.1776  1.9429  1.1539
   90MOL0     H12134   1.631   7.872   7.375  0.3865 -1.6839  2.4468
   90MOL0     H12135   1.857   7.999   7.409 -0.1204  2.1770  0.9877
   90MOL0     H12136   2.148   8.129   7.512  2.5252  0.4908 -1.5069
   90MOL0     H12137   2.340   8.251   7.488 -0.7137  1.7155 -0.9788
   90MOL0     H12138   2.447   8.437   7.559 -0.5428 -1.1035 -0.2501
   90MOL0     H12139   2.605   8.364   7.503  1.1665  1.3485 -0.1884
   90MOL0     H12140   2.726   8.483   7.659 -0.9911 -1.1764  1.4426
   90MOL0     H12141   2.599   8.567   7.730  0.1266 -0.2740  1.0258
   90MOL0     H12142   2.526   8.663   7.511  0.2114  1.0263  0.5285
   90MOL0     H12143   2.670   8.587   7.443 -0.9954 -1.4463 -0.4145
   90MOL0     H12144   2.803   8.729   7.624  0.7840  1.4411  0.1093
   90MOL0     H12145   2.725   8.825   7.497  0.1643 -0.4007 -0.4770
   90MOL0     H12146   2.538   8.921   7.877 -0.0977  0.2422 -0.6615
   90MOL0     H12147   2.445   8.205   7.899  0.8945 -2.4251  0.9276
   90MOL0     H12148   2.180   7.976   8.001 -2.3494  1.2092 -1.0939
   90MOL0     H12149   2.314   8.080   8.051  0.8789 -0.0307 -1.1203
   90MOL0     H12150   2.147   8.139   8.029 -0.3633  0.0875 -0.1477
   91MOL0     O12151   0.227  10.621   9.435  0.0250 -0.3593  0.3540
   91MOL0     C12152   0.112  10.584   9.464 -0.5172  0.1530  0.2856
   91MOL0     O12153   0.077  10.529   9.587 -0.6891 -0.8585  0.1915
   91MOL0     C12154   0.179  10.462   9.654  0.6774 -0.1000  0.4883
   91MOL0     C12155   0.273  10.530   9.734 -0.2533 -0.0833 -0.1696
   91MOL0     C12156   0.376  10.465   9.794  0.6167 -0.4932 -0.5606
   91MOL0     C12157   0.380  10.331   9.784 -0.3484  0.0059  0.0737
   91MOL0     O12158   0.493  10.290   9.850 -0.1571 -0.2212 -0.4272
   91MOL0     C12159   0.540  10.159   9.839 -1.0782  0.4906 -0.2774
   91MOL0     C12160   0.689  10.151   9.875 -0.4782 -0.0134  0.9175
   91MOL0     C12161   0.716  10.177  10.023  0.7982  0.8113  0.0995
   91MOL0     C12162   0.863  10.139  10.067 -0.1961  0.4909  0.4546
   91MOL0     C12163   0.892  10.147  10.214 -0.4431 -0.0050  0.0562
   91MOL0     C12164   1.042  10.135  10.239  0.4253 -0.1558  1.0910
   91MOL0     C12165   1.092  10.118  10.384  0.5439  0.5430 -0.2897
   91MOL0     C12166   1.082  10.244  10.469  0.7115 -1.0730  0.5362
   91MOL0     N12167   1.118  10.199  10.600  0.5894  0.7310 -0.4460
   91MOL0     C12168   1.228  10.237  10.668 -0.3760 -0.3962 -0.5476
   91MOL0     C12169   1.208  10.193  10.800 -0.4216 -0.0308  0.2858
   91MOL0     C12170   1.307  10.219  10.913 -0.1884 -0.7916  0.1310
   91MOL0     C12171   1.312  10.373  10.936 -0.0629  0.1814 -0.7352
   91MOL0     C12172   1.379  10.389  11.075  0.1904 -0.1333  0.2564
   91MOL0     C12173   1.519  10.322  11.094 -0.1330 -0.6505 -0.8659
   91MOL0     O12174   1.606  10.424  11.149 -0.2234  0.0147  0.8251
   91MOL0     C12175   1.734  10.404  11.180 -0.3157 -0.2957 -0.5204
   91MOL0     C12176   1.818  10.297  11.138 -0.0052  0.7932  0.5014
   91MOL0     C12177   1.953  10.285  11.174  0.1589  0.3153  0.4423
   91MOL0     C12178   2.014  10.388  11.246 -0.5821 -1.0474  0.0296
   91MOL0     C12179   2.146  10.376  11.298 -0.6135 -1.3420  0.6540
   91MOL0     O12180   2.223  10.281  11.243 -0.6566  0.4567  0.1947
   91MOL0     C12181   2.358  10.279  11.251 -0.2892 -0.0824  0.8861
   91MOL0     C12182   2.448  10.388  11.273  0.0587  0.3047  0.0190
   91MOL0     C12183   2.587  10.370  11.262 -0.4474  0.0745 -0.3467
   91MOL0     C12184   2.644  10.253  11.218 -0.0856 -0.2446  1.5936
   91MOL0     O12185   2.773  10.232  11.185  0.3959 -0.3625  0.2025
   91MOL0     C12186   2.872  10.311  11.248  0.5352 -0.1143  0.4546
   91MOL0     C12187   3.003  10.250  11.225 -1.1489 -0.5214  0.3676
   91MOL0     C12188   3.120  10.327  11.292 -0.0155 -0.3689  0.0502
   91MOL0     C12189   3.260  10.281  11.239  0.0692 -0.9458 -0.5158
   91MOL0     C12190   3.361  10.359  11.317  0.2191  0.6726  0.2843
   91MOL0     C12191   3.497  10.323  11.271  0.7675  0.4139  0.2747
   91MOL0     C12192   3.603  10.427  11.296 -0.2438  0.8815 -0.2929
   91MOL0     C12193   3.637  10.461  11.448  0.0525  1.0130  0.6261
   91MOL0    Cl12194   3.756  10.580  11.483  0.4987 -0.6539 -0.2990
   91MOL0     C12195   2.550  10.147  11.192  0.0291 -0.0990 -0.1930
   91MOL0     C12196   2.413  10.158  11.207  0.1453  0.3491 -0.9594
   91MOL0     O12197   2.183  10.452  11.382 -0.3100 -0.0142 -0.2905
   91MOL0     C12198   1.928  10.490  11.284 -0.2034 -0.5527  0.1077
   91MOL0     C12199   1.794  10.495  11.261 -0.0602 -0.3371  0.2608
   91MOL0     N12200   1.084  10.127  10.795 -0.2107 -0.5420 -0.5450
   91MOL0     N12201   1.033  10.134  10.682  0.1437 -0.1495  0.1246
   91MOL0     C12202   0.295  10.258   9.703  0.5555  0.0622 -0.2033
   91MOL0     C12203   0.192  10.325   9.641 -0.6118  0.3558 -0.1147
   91MOL0     C12204   0.002  10.609   9.375  0.4504 -0.5972  0.4479
   91MOL0     C12205  -0.130  10.562   9.412 -0.8824 -0.1896 -0.5215
   91MOL0     C12206  -0.244  10.563   9.325 -0.9052 -0.7922  0.0278
   91MOL0     C12207  -0.235  10.642   9.208 -0.1060 -0.3453  0.1226
   91MOL0     O12208  -0.345  10.667   9.128  0.0683  1.3940 -0.1190
   91MOL0     C12209  -0.472  10.622   9.165 -0.4823 -0.5438  0.8560
   91MOL0     C12210  -0.563  10.686   9.066  0.0637  0.3496  1.4646
   91MOL0     C12211  -0.542  10.643   8.925 -0.0445 -0.1177 -0.0402
   91MOL0     C12212  -0.624  10.717   8.820  0.5683 -0.1283 -0.3289
   91MOL0     C12213  -0.765  10.670   8.804  0.0365  0.6364 -0.3338
   91MOL0     C12214  -0.879  10.646   8.772  0.2600 -0.3981 -0.0556
   91MOL0     C12215  -0.107  10.700   9.175  0.9475  1.1067  0.1131
   91MOL0     C12216   0.003  10.690   9.255 -0.2523  0.0791  0.0990
   91MOL0     C12217   0.129  10.761   9.210  0.7933  1.0737 -0.3539
   91MOL0     H12218   0.266  10.637   9.755  0.5887 -0.5333  2.9684
   91MOL0     H12219   0.444  10.515   9.862 -0.4502 -2.8543  2.5406
   91MOL0     H12220   0.476  10.090   9.895  2.0967 -0.3074  2.6588
   91MOL0     H12221   0.533  10.127   9.734  0.8082 -1.6700  0.1756
   91MOL0     H12222   0.740  10.233   9.822  1.2902  1.4770  4.5946
   91MOL0     H12223   0.727  10.056   9.837 -1.6010 -0.4568  0.8683
   91MOL0     H12224   0.638  10.123  10.078  2.8290 -0.0060  2.3497
   91MOL0     H12225   0.712  10.284  10.043  1.0728  0.5122  1.9362
   91MOL0     H12226   0.880  10.039  10.025 -2.1312  0.3593 -0.0940
   91MOL0     H12227   0.926  10.211  10.013 -2.5328  2.7718  0.6016
   91MOL0     H12228   0.847  10.242  10.247 -0.3383  0.3479 -0.7859
   91MOL0     H12229   0.845  10.069  10.275  1.1225 -2.3994 -1.6362
   91MOL0     H12230   1.065  10.041  10.188 -0.3269  1.3744 -2.4064
   91MOL0     H12231   1.078  10.230  10.198 -0.8546  0.1679  0.6767
   91MOL0     H12232   1.197  10.088  10.376  0.0800 -0.7732 -2.0996
   91MOL0     H12233   1.040  10.036  10.434  2.3453 -0.2587  0.3420
   91MOL0     H12234   1.152  10.322  10.438 -0.2702 -0.3379  0.1370
   91MOL0     H12235   0.982  10.286  10.456  1.1880 -0.7669 -2.8328
   91MOL0     H12236   1.316  10.285  10.628 -0.9233 -0.3322 -1.7209
   91MOL0     H12237   1.251  10.176  10.996 -1.2187 -0.0780 -0.1838
   91MOL0     H12238   1.404  10.173  10.890 -0.2504 -0.8749  0.0345
   91MOL0     H12239   1.369  10.420  10.856  1.1298  0.7182  0.3850
   91MOL0     H12240   1.211  10.415  10.945  0.3727  0.9979  0.6069
   91MOL0     H12241   1.308  10.342  11.142 -2.2025 -0.1912 -2.1563
   91MOL0     H12242   1.388  10.498  11.085 -0.3280  0.1378 -1.7797
   91MOL0     H12243   1.560  10.291  10.997 -0.2860 -1.9991 -0.5267
   91MOL0     H12244   1.498  10.235  11.157 -0.2898 -0.4232 -0.6043
   91MOL0     H12245   1.781  10.209  11.086 -0.9970  1.8789 -0.6676
   91MOL0     H12246   2.012  10.194  11.164  0.2102  0.2331  1.3896
   91MOL0     H12247   2.408  10.489  11.285  3.8197  1.5749  5.1553
   91MOL0     H12248   2.632  10.465  11.286 -3.0830  1.1092  0.8895
   91MOL0     H12249   2.869  10.408  11.198  0.2635 -0.7742 -0.8556
   91MOL0     H12250   2.866  10.326  11.356 -0.3874 -0.1504  0.4120
   91MOL0     H12251   3.003  10.142  11.238 -1.9501 -0.3217  2.3457
   91MOL0     H12252   3.020  10.260  11.117 -4.5499  0.2909 -0.2291
   91MOL0     H12253   3.116  10.436  11.286  0.6392 -0.2308  1.5592
   91MOL0     H12254   3.116  10.302  11.399  2.0130 -0.4746  0.1421
   91MOL0     H12255   3.278  10.328  11.142 -1.6533  0.3222 -0.2745
   91MOL0     H12256   3.277  10.174  11.247 -0.0614 -0.8555  1.7568
   91MOL0     H12257   3.341  10.341  11.423 -2.3354  1.2277 -0.0531
   91MOL0     H12258   3.348  10.465  11.294 -1.0017  0.1171 -1.8348
   91MOL0     H12259   3.523  10.227  11.315 -1.8012 -0.4387  0.0848
   91MOL0     H12260   3.489  10.314  11.162 -2.1879  1.7405  0.2678
   91MOL0     H12261   3.564  10.514  11.245 -3.1047 -0.8881 -1.3297
   91MOL0     H12262   3.697  10.394  11.249  0.5544  2.9835 -0.2629
   91MOL0     H12263   3.538  10.481  11.489 -0.5827 -0.3739 -0.1879
   91MOL0     H12264   3.670  10.370  11.499  0.4230 -0.4575 -2.0639
   91MOL0     H12265   2.598  10.056  11.158 -2.8003 -0.8624 -2.5140
   91MOL0     H12266   2.349  10.076  11.174  2.0656 -1.5132 -0.2736
   91MOL0     H12267   1.965  10.574  11.340  1.9838 -0.1848 -1.7226
   91MOL0     H12268   1.743  10.586  11.292 -0.4896 -0.6939  0.6301
   91MOL0     H12269   0.310  10.151   9.699  3.1615  0.3606 -0.4448
   91MOL0     H12270   0.132  10.260   9.577 -0.5762  0.2840 -0.0759
   91MOL0     H12271  -0.153  10.503   9.500 -2.1252  1.6094  0.4267
   91MOL0     H12272  -0.341  10.523   9.353 -0.4348 -1.5760  0.5859
   91MOL0     H12273  -0.495  10.654   9.267  1.2312 -0.1496  1.1348
   91MOL0     H12274  -0.479  10.513   9.154  0.3959 -0.9045  3.2720
   91MOL0     H12275  -0.554  10.795   9.080 -3.6442  1.0926 -0.5194
   91MOL0     H12276  -0.667  10.673   9.096 -0.0371  2.6801  2.3518
   91MOL0     H12277  -0.556  10.535   8.916  2.2071 -0.4212 -0.3748
   91MOL0     H12278  -0.439  10.668   8.900  0.5293 -1.0869  1.2646
   91MOL0     H12279  -0.617  10.825   8.831 -3.9013  0.2965  0.2284
   91MOL0     H12280  -0.590  10.692   8.719 -1.1055 -2.7576 -0.3301
   91MOL0     H12281  -0.980  10.612   8.769 -0.1376  0.4900  1.7287
   91MOL0     H12282  -0.110  10.751   9.079 -0.0264 -1.2962 -1.2121
   91MOL0     H12283   0.157  10.821   9.297 -1.7843 -0.5804  1.7422
   91MOL0     H12284   0.206  10.686   9.192  0.7700  0.4238  2.0449
   91MOL0     H12285   0.120  10.823   9.120 -0.1352  0.4200 -0.7297
   92MOL0     O12286   8.724   1.284   6.561 -0.3519 -0.7633 -0.3102
   92MOL0     C12287   8.658   1.185   6.548 -0.2921  0.5317 -0.4212
   92MOL0     O12288   8.699   1.081   6.462 -0.8769  0.0425  0.0588
   92MOL0     C12289   8.805   1.109   6.375  0.7706  1.1317  0.1947
   92MOL0     C12290   8.929   1.112   6.430  0.1017  0.1875 -0.6885
   92MOL0     C12291   9.041   1.152   6.353  0.7867 -0.7075 -0.2994
   92MOL0     C12292   9.017   1.185   6.211 -0.3930  0.1655 -0.1024
   92MOL0     O12293   9.120   1.232   6.133 -0.2865  0.5135  0.0600
   92MOL0     C12294   9.258   1.209   6.181  0.2605 -0.4565  0.5154
   92MOL0     C12295   9.348   1.219   6.057 -0.4788  0.1929 -0.3156
   92MOL0     C12296   9.498   1.213   6.081  0.2165 -0.4523 -0.1475
   92MOL0     C12297   9.561   1.224   5.947 -0.3750 -0.1717  0.1932
   92MOL0     C12298   9.715   1.204   5.966  0.2671  0.1680 -0.8749
   92MOL0     C12299   9.790   1.241   5.847  0.0780 -0.6062  0.2676
   92MOL0     C12300   9.942   1.209   5.873 -0.8085  0.6654  0.4406
   92MOL0     C12301  10.039   1.285   5.784  0.4294  0.2336 -0.5302
   92MOL0     N12302  10.038   1.245   5.649  0.7236  0.9333  0.6129
   92MOL0     C12303  10.085   1.117   5.606  0.0322 -0.5051 -0.1684
   92MOL0     C12304  10.071   1.114   5.472 -0.0739 -0.8541  0.9648
   92MOL0     C12305  10.099   1.003   5.372 -0.7447 -0.6205  0.2164
   92MOL0     C12306  10.043   0.869   5.415  0.1831 -0.3682 -0.0849
   92MOL0     C12307  10.075   0.754   5.313  0.3201  0.8712 -0.2648
   92MOL0     C12308  10.228   0.750   5.271 -0.0508 -0.2778  0.7942
   92MOL0     O12309  10.316   0.759   5.384 -0.5462 -0.3684  0.6531
   92MOL0     C12310  10.438   0.807   5.356  0.2609 -0.1211  0.2194
   92MOL0     C12311  10.512   0.800   5.243  1.0833  0.0132 -0.2695
   92MOL0     C12312  10.641   0.853   5.219 -0.3668 -0.3060  0.0153
   92MOL0     C12313  10.691   0.940   5.323 -0.1175  1.2692  0.6939
   92MOL0     C12314  10.816   1.011   5.311 -0.0358  0.3106  0.7877
   92MOL0     O12315  10.907   0.959   5.227  0.3225  0.1084 -0.0531
   92MOL0     C12316  11.019   1.031   5.190  0.2479 -0.3637  0.1748
   92MOL0     C12317  11.131   1.009   5.263 -0.3185  0.2497 -0.0289
   92MOL0     C12318  11.249   1.080   5.229 -0.5529  0.2030 -0.3487
   92MOL0     C12319  11.254   1.157   5.115 -0.4203  0.7242 -0.1410
   92MOL0     O12320  11.371   1.228   5.086  0.2150 -0.1237  0.0549
   92MOL0     C12321  11.429   1.302   5.191  0.4178 -0.3653 -1.3420
   92MOL0     C12322  11.466   1.444   5.137  0.0151 -0.0673  0.2220
   92MOL0     C12323  11.547   1.516   5.247  0.5567  0.0584  0.3886
   92MOL0     C12324  11.586   1.663   5.207 -0.2458  0.1084  0.1379
   92MOL0     C12325  11.464   1.753   5.190  0.4795  0.5057  0.1429
   92MOL0     C12326  11.512   1.896   5.155 -0.6220 -0.8255 -0.3014
   92MOL0     C12327  11.393   1.991   5.118 -0.4936  0.3707 -0.1674
   92MOL0     C12328  11.263   1.964   5.190 -0.5677 -0.3549  0.1130
   92MOL0    Cl12329  11.151   2.105   5.169 -0.1642 -0.1730  0.3256
   92MOL0     C12330  11.144   1.155   5.032 -0.4647  0.0251 -0.9659
   92MOL0     C12331  11.025   1.094   5.065 -0.5274 -0.2450  0.2808
   92MOL0     O12332  10.837   1.103   5.388 -0.5500  0.0654  0.0722
   92MOL0     C12333  10.616   0.951   5.450 -0.1084 -0.8754  0.0585
   92MOL0     C12334  10.488   0.887   5.459 -0.3895 -0.1076  0.0308
   92MOL0     N12335  10.027   1.246   5.433  0.2229 -0.5140 -0.6527
   92MOL0     N12336  10.006   1.315   5.539  0.2435 -0.7296 -0.2106
   92MOL0     C12337   8.889   1.167   6.147 -0.9141  0.4972 -0.5460
   92MOL0     C12338   8.783   1.135   6.236  0.2401 -0.1521 -0.6339
   92MOL0     C12339   8.536   1.169   6.637 -0.8677  0.1178 -0.4557
   92MOL0     C12340   8.531   1.251   6.750  0.3586  1.0698  0.2071
   92MOL0     C12341   8.420   1.256   6.838 -0.1429  0.2881 -1.1071
   92MOL0     C12342   8.312   1.170   6.816  0.2537 -0.4535  0.1154
   92MOL0     O12343   8.199   1.155   6.891 -0.6804 -0.4427  0.1501
   92MOL0     C12344   8.195   1.223   7.022  0.2971  0.3923  0.7096
   92MOL0     C12345   8.089   1.159   7.112 -1.0146 -1.0086 -0.1173
   92MOL0     C12346   8.080   1.008   7.115  0.0512 -0.4065  0.2924
   92MOL0     C12347   8.214   0.936   7.128 -0.1735 -0.4207 -0.5142
   92MOL0     C12348   8.266   0.943   7.265 -0.5238  0.1087 -0.5312
   92MOL0     C12349   8.315   0.965   7.371  0.4894 -0.5762 -0.5622
   92MOL0     C12350   8.317   1.097   6.699  0.3697  0.0407 -0.1342
   92MOL0     C12351   8.426   1.097   6.608  0.8101 -0.3434 -0.5751
   92MOL0     C12352   8.407   1.014   6.483 -0.4759 -0.1357 -0.3776
   92MOL0     H12353   8.943   1.080   6.533 -0.4783  0.9847 -0.3501
   92MOL0     H12354   9.139   1.167   6.397 -0.5428 -0.7643  2.9441
   92MOL0     H12355   9.286   1.287   6.252  0.2379  0.0021  0.0323
   92MOL0     H12356   9.279   1.109   6.218  3.7958  0.0871  0.3159
   92MOL0     H12357   9.317   1.317   6.019  1.1081  1.8887  2.3589
   92MOL0     H12358   9.333   1.135   5.989  0.9900 -0.7214  0.4335
   92MOL0     H12359   9.531   1.124   6.136  0.5759  0.2249  0.7728
   92MOL0     H12360   9.538   1.296   6.140 -0.3601 -1.1804  1.3201
   92MOL0     H12361   9.525   1.145   5.881  1.0131 -0.9821  0.3771
   92MOL0     H12362   9.531   1.315   5.894 -1.8172 -1.3541 -1.1197
   92MOL0     H12363   9.745   1.274   6.045 -2.5219  1.6477 -1.0152
   92MOL0     H12364   9.730   1.099   5.993  2.1430  1.1193  2.3270
   92MOL0     H12365   9.757   1.175   5.766 -0.3973 -2.4564  1.8821
   92MOL0     H12366   9.782   1.347   5.821  2.5135 -0.2609  0.6563
   92MOL0     H12367   9.956   1.100   5.870 -0.3274  0.7434 -0.4945
   92MOL0     H12368   9.970   1.247   5.971  3.8217 -0.3085 -0.2596
   92MOL0     H12369  10.012   1.388   5.812 -2.2957 -1.0147  2.0912
   92MOL0     H12370  10.137   1.265   5.827  0.4355 -2.2022 -1.5535
   92MOL0     H12371  10.117   1.039   5.673  3.5852  1.1353  0.3204
   92MOL0     H12372  10.065   1.036   5.273 -0.7732  0.2376  0.5123
   92MOL0     H12373  10.208   0.999   5.361 -0.5711  3.5114 -1.3615
   92MOL0     H12374  10.063   0.849   5.521 -0.7711  0.8346  0.3611
   92MOL0     H12375   9.937   0.894   5.401  0.8487  3.6738  0.7871
   92MOL0     H12376  10.017   0.779   5.224 -1.6099  0.7643  0.8968
   92MOL0     H12377  10.035   0.660   5.353  3.6500 -1.7257 -2.4872
   92MOL0     H12378  10.254   0.815   5.186  2.9981 -0.0000  1.8413
   92MOL0     H12379  10.247   0.645   5.249  0.5406 -0.2446  1.1301
   92MOL0     H12380  10.467   0.727   5.177 -2.4483 -1.2373  3.1327
   92MOL0     H12381  10.696   0.831   5.128  0.4418 -0.5243  0.5437
   92MOL0     H12382  11.133   0.940   5.348  0.3431 -0.6803 -0.7716
   92MOL0     H12383  11.331   1.075   5.301 -0.9847 -1.9184  0.0567
   92MOL0     H12384  11.372   1.312   5.284  2.2449  1.5731 -0.3067
   92MOL0     H12385  11.523   1.252   5.217 -0.0849 -1.1538 -1.0134
   92MOL0     H12386  11.529   1.428   5.049 -0.8151 -0.5615 -0.2976
   92MOL0     H12387  11.374   1.493   5.105  1.3056  1.5302 -1.2269
   92MOL0     H12388  11.498   1.519   5.344 -0.1729 -0.7131  0.0503
   92MOL0     H12389  11.641   1.462   5.264  0.4478 -0.5076 -0.7120
   92MOL0     H12390  11.642   1.681   5.115 -0.8272  3.2005  0.2849
   92MOL0     H12391  11.655   1.704   5.281  1.1637  0.8970 -1.5476
   92MOL0     H12392  11.410   1.760   5.286 -0.1631  3.8884 -0.3523
   92MOL0     H12393  11.402   1.715   5.109  2.0295 -0.9987 -0.3897
   92MOL0     H12394  11.563   1.946   5.238 -1.4555 -1.0834  0.3854
   92MOL0     H12395  11.583   1.891   5.072 -0.3357  4.2512 -0.6727
   92MOL0     H12396  11.365   1.982   5.013 -1.8510  1.9866 -0.0011
   92MOL0     H12397  11.420   2.093   5.148 -0.8489  0.1014  1.1004
   92MOL0     H12398  11.208   1.879   5.148 -1.1990  0.5415 -0.9270
   92MOL0     H12399  11.280   1.947   5.297 -3.4241 -0.4422  0.6413
   92MOL0     H12400  11.144   1.210   4.939 -1.0589  0.8765 -0.4731
   92MOL0     H12401  10.943   1.093   4.993  0.5335  1.4966 -1.0449
   92MOL0     H12402  10.648   1.002   5.540  0.0490 -1.6306  0.4361
   92MOL0     H12403  10.442   0.905   5.556 -1.2459 -1.6564 -0.0537
   92MOL0     H12404   8.885   1.185   6.040  0.2846 -2.0197 -1.0842
   92MOL0     H12405   8.689   1.136   6.181  0.4944  1.3399 -1.0946
   92MOL0     H12406   8.618   1.307   6.782  0.7883  1.6069 -1.7501
   92MOL0     H12407   8.404   1.339   6.907  2.2515  0.5671 -0.8223
   92MOL0     H12408   8.167   1.327   7.007  0.5882  0.7435  2.4186
   92MOL0     H12409   8.291   1.208   7.073  1.3041  3.2668 -0.1581
   92MOL0     H12410   7.989   1.200   7.095 -0.6991 -0.6036 -1.0390
   92MOL0     H12411   8.120   1.186   7.213 -0.1140 -0.8140 -0.4402
   92MOL0     H12412   8.021   0.984   7.027  0.4799  3.6294 -1.3030
   92MOL0     H12413   8.023   0.985   7.206 -2.4283  0.3369 -1.0089
   92MOL0     H12414   8.196   0.831   7.103 -0.4657 -0.3344 -0.6749
   92MOL0     H12415   8.286   0.963   7.050 -1.7559  0.2233 -1.8212
   92MOL0     H12416   8.358   0.981   7.468  0.8766  1.6285 -1.0471
   92MOL0     H12417   8.231   1.032   6.685 -0.4538  0.8462  1.0176
   92MOL0     H12418   8.492   0.947   6.469  0.3750  0.9971 -0.7452
   92MOL0     H12419   8.313   0.957   6.480  0.9446 -2.5976 -2.3628
   92MOL0     H12420   8.425   1.078   6.396  2.8206 -1.2500 -0.6680
   93MOL0     O12421   1.723   6.007   4.151  0.6481 -0.9248 -0.0982
   93MOL0     C12422   1.648   6.027   4.246 -0.4720 -0.0258  0.3618
   93MOL0     O12423   1.685   6.011   4.380  0.8713  0.2075  0.0228
   93MOL0     C12424   1.818   6.016   4.423 -0.3558 -0.7429  0.6646
   93MOL0     C12425   1.884   5.907   4.463  0.1576  0.0596  0.3411
   93MOL0     C12426   2.017   5.919   4.498 -0.1966 -0.4210  0.5067
   93MOL0     C12427   2.083   6.041   4.495  0.0685  1.0328  0.6411
   93MOL0     O12428   2.212   6.053   4.532 -0.1682  0.7175  0.9747
   93MOL0     C12429   2.309   6.013   4.433  0.7668 -0.0234  0.3680
   93MOL0     C12430   2.441   5.986   4.497 -0.2816 -0.4815 -0.0194
   93MOL0     C12431   2.508   6.118   4.518  0.4640  0.5148 -0.2750
   93MOL0     C12432   2.660   6.106   4.530  0.2687 -0.6227 -0.0729
   93MOL0     C12433   2.718   6.216   4.620  0.7209 -0.1064  0.2416
   93MOL0     C12434   2.874   6.205   4.630 -0.0013 -0.8473 -0.2455
   93MOL0     C12435   2.924   6.083   4.699  0.0906 -1.2805 -0.5248
   93MOL0     C12436   2.974   5.980   4.603 -0.7954 -0.5606  0.1926
   93MOL0     N12437   3.111   6.004   4.568  1.2299  0.1841  0.6216
   93MOL0     C12438   3.216   5.988   4.652 -1.2231 -0.7916  0.4388
   93MOL0     C12439   3.325   6.016   4.569  0.4192 -0.6219 -0.0611
   93MOL0     C12440   3.473   6.008   4.626  1.2324  0.9892 -0.4720
   93MOL0     C12441   3.520   5.862   4.649 -0.3802  0.6894  0.3622
   93MOL0     C12442   3.655   5.856   4.706  0.1506 -0.2303 -0.8185
   93MOL0     C12443   3.670   5.884   4.854  0.7269 -0.2118 -0.6775
   93MOL0     O12444   3.796   5.833   4.910 -0.1761 -0.5579  0.4309
   93MOL0     C12445   3.912   5.900   4.878  0.8894 -0.7312  0.6823
   93MOL0     C12446   3.919   6.017   4.804  0.3526 -0.6578  0.2628
   93MOL0     C12447   4.039   6.083   4.802 -0.8077  0.1390 -0.2427
   93MOL0     C12448   4.156   6.038   4.865  0.1316  0.2453 -0.0566
   93MOL0     C12449   4.289   6.093   4.827  0.4914 -0.5279  0.5714
   93MOL0     O12450   4.393   6.073   4.907  0.5931  0.4204 -0.3216
   93MOL0     C12451   4.510   6.137   4.885  0.2472 -0.0626  0.0356
   93MOL0     C12452   4.571   6.137   4.761 -0.2693  0.3434  0.7116
   93MOL0     C12453   4.698   6.181   4.747  0.0238  0.1244  0.0402
   93MOL0     C12454   4.776   6.233   4.853  0.4619  0.7801 -0.1879
   93MOL0     O12455   4.900   6.274   4.831  0.1517 -0.0220  0.0452
   93MOL0     C12456   4.983   6.183   4.754 -0.4256 -0.4749 -0.7002
   93MOL0     C12457   5.135   6.230   4.771  0.3946  0.4879 -0.2908
   93MOL0     C12458   5.164   6.381   4.768 -0.2797  0.0079  0.6010
   93MOL0     C12459   5.315   6.427   4.804 -0.2275 -0.7054 -0.7545
   93MOL0     C12460   5.344   6.410   4.952 -0.2011  0.4062 -0.2672
   93MOL0     C12461   5.483   6.469   4.986 -0.7013  0.2440  0.0506
   93MOL0     C12462   5.485   6.488   5.134  0.2992  0.3668 -0.1425
   93MOL0     C12463   5.621   6.533   5.182  0.0370 -0.0741 -0.6415
   93MOL0    Cl12464   5.761   6.405   5.155  0.2695 -0.3638 -0.6070
   93MOL0     C12465   4.708   6.237   4.973 -0.1255 -0.2455  0.1439
   93MOL0     C12466   4.580   6.183   4.995 -1.3010 -0.1907  0.3740
   93MOL0     O12467   4.286   6.164   4.724 -0.0320  0.0628 -0.7919
   93MOL0     C12468   4.144   5.932   4.957  0.6431  0.5845 -0.8841
   93MOL0     C12469   4.023   5.858   4.951  0.1632 -0.6150 -0.8892
   93MOL0     N12470   3.276   6.043   4.443 -0.0714  0.1022  0.6113
   93MOL0     N12471   3.149   6.035   4.443 -0.6754 -0.3525 -0.9608
   93MOL0     C12472   2.018   6.153   4.452 -0.5877 -0.1021  0.0119
   93MOL0     C12473   1.884   6.138   4.424  0.4852 -0.4945  0.0588
   93MOL0     C12474   1.500   6.054   4.223  0.7080 -0.0325 -0.2850
   93MOL0     C12475   1.422   6.052   4.335 -0.8483 -0.5029 -0.3655
   93MOL0     C12476   1.286   6.062   4.330 -0.0192  0.2295 -0.0887
   93MOL0     C12477   1.228   6.083   4.201 -0.4636  0.8282 -0.0581
   93MOL0     O12478   1.094   6.108   4.202  0.4364  0.5382 -1.1818
   93MOL0     C12479   1.016   6.120   4.084  0.7892  0.0733  0.5246
   93MOL0     C12480   0.981   6.271   4.057 -0.1941 -0.0718  1.1165
   93MOL0     C12481   0.875   6.288   3.941  0.3272 -0.2747 -0.4562
   93MOL0     C12482   0.883   6.196   3.814  1.0073 -0.5782 -0.0361
   93MOL0     C12483   1.003   6.211   3.733  0.0210 -0.7895  0.2811
   93MOL0     C12484   1.106   6.205   3.672  0.2571 -0.2304 -0.2074
   93MOL0     C12485   1.301   6.111   4.093 -0.1923 -0.3428 -0.7318
   93MOL0     C12486   1.442   6.085   4.096  1.0551 -0.5586 -0.3184
   93MOL0     C12487   1.518   6.113   3.967 -0.8036  0.1068 -0.1460
   93MOL0     H12488   1.819   5.821   4.475  0.0930  0.0653  0.0261
   93MOL0     H12489   2.064   5.829   4.538 -1.1071 -1.2403 -0.2025
   93MOL0     H12490   2.279   5.926   4.374  2.2267  0.2395 -0.7981
   93MOL0     H12491   2.321   6.084   4.350  1.3740  0.6055  0.9806
   93MOL0     H12492   2.500   5.932   4.422 -0.7056 -0.5632 -0.2943
   93MOL0     H12493   2.437   5.925   4.588  2.2706  0.4780  0.8480
   93MOL0     H12494   2.463   6.164   4.606 -0.1193 -1.6825  0.6149
   93MOL0     H12495   2.480   6.184   4.434 -1.1741  3.1022  2.1303
   93MOL0     H12496   2.686   6.015   4.584  0.4740 -0.7505 -0.3885
   93MOL0     H12497   2.711   6.115   4.434  4.0766 -1.2476  1.7260
   93MOL0     H12498   2.698   6.318   4.586 -0.8165 -0.3282  0.4340
   93MOL0     H12499   2.668   6.213   4.717 -1.1007 -0.4369 -0.6774
   93MOL0     H12500   2.923   6.214   4.533  0.6566 -2.1424 -0.0462
   93MOL0     H12501   2.909   6.291   4.688  2.4256 -1.4610 -0.7118
   93MOL0     H12502   2.840   6.043   4.757 -3.5589  3.6813 -1.6559
   93MOL0     H12503   3.000   6.112   4.771  0.6855 -1.0630 -1.2237
   93MOL0     H12504   2.966   5.888   4.661 -0.0399 -1.4592 -1.0696
   93MOL0     H12505   2.908   5.965   4.517 -2.6194 -0.5316  1.5319
   93MOL0     H12506   3.211   5.959   4.757 -0.8817 -3.0821 -0.1308
   93MOL0     H12507   3.542   6.064   4.561 -0.1892 -0.4265 -3.3922
   93MOL0     H12508   3.461   6.048   4.727  3.5015 -2.7468  1.4886
   93MOL0     H12509   3.452   5.809   4.716  0.2788 -1.6723 -0.7510
   93MOL0     H12510   3.513   5.807   4.555  2.5584 -0.1586  0.5722
   93MOL0     H12511   3.723   5.919   4.648  1.5848 -3.9080 -3.5213
   93MOL0     H12512   3.696   5.756   4.687 -1.0787 -0.6207 -1.5204
   93MOL0     H12513   3.585   5.834   4.903  0.3777  0.7519 -0.2889
   93MOL0     H12514   3.672   5.993   4.862 -0.8606 -0.2825  2.3560
   93MOL0     H12515   3.840   6.077   4.761  1.3760  3.4473  3.4058
   93MOL0     H12516   4.039   6.177   4.748 -0.9656  0.2657 -0.0238
   93MOL0     H12517   4.515   6.097   4.677 -1.8119 -0.0793  1.8875
   93MOL0     H12518   4.740   6.191   4.647 -1.8933  2.9021 -0.6114
   93MOL0     H12519   4.965   6.077   4.772 -2.0552 -0.5451 -2.3771
   93MOL0     H12520   4.966   6.193   4.646  1.7077 -0.9612 -1.1231
   93MOL0     H12521   5.171   6.201   4.870  1.6528  1.3580 -0.4633
   93MOL0     H12522   5.204   6.170   4.710  4.3743  1.9198  2.3827
   93MOL0     H12523   5.144   6.411   4.665  1.0764  1.5809  0.7549
   93MOL0     H12524   5.099   6.440   4.834 -0.2304  1.5541 -0.6679
   93MOL0     H12525   5.343   6.530   4.780 -1.2185 -0.5904 -1.4608
   93MOL0     H12526   5.388   6.363   4.753  1.1131 -0.1104  0.3504
   93MOL0     H12527   5.327   6.310   4.992 -0.2968 -0.2853 -1.9342
   93MOL0     H12528   5.269   6.481   4.987  0.3081  2.6399 -3.2123
   93MOL0     H12529   5.567   6.405   4.959  0.1350  1.7098 -0.9297
   93MOL0     H12530   5.495   6.567   4.940  1.9107 -0.5295 -1.0792
   93MOL0     H12531   5.450   6.398   5.184  0.2958  0.4362 -0.0189
   93MOL0     H12532   5.408   6.559   5.167  1.4269 -0.0664  3.8703
   93MOL0     H12533   5.653   6.625   5.131  3.0142 -1.3150 -1.2149
   93MOL0     H12534   5.613   6.556   5.288  1.9642 -0.0194 -0.4673
   93MOL0     H12535   4.761   6.272   5.061 -0.0198  0.9617 -0.3874
   93MOL0     H12536   4.546   6.173   5.097  0.7049 -1.3113  0.9867
   93MOL0     H12537   4.231   5.892   5.008 -2.1140 -2.1966  2.1374
   93MOL0     H12538   4.013   5.771   5.016  1.6694  1.6782  2.7006
   93MOL0     H12539   2.068   6.248   4.438 -2.8928  1.1653  0.0545
   93MOL0     H12540   1.835   6.232   4.402  0.4439 -1.1180 -2.8887
   93MOL0     H12541   1.465   6.036   4.434  0.2545  1.6789 -0.4379
   93MOL0     H12542   1.224   6.052   4.419 -0.5871 -2.2304 -0.6886
   93MOL0     H12543   0.917   6.078   4.098  0.0144  0.3260 -3.0769
   93MOL0     H12544   1.052   6.066   3.995 -1.6739 -1.3370  0.3091
   93MOL0     H12545   1.078   6.317   4.032  0.2814 -0.6545  1.8625
   93MOL0     H12546   0.932   6.303   4.149 -3.8577 -3.0928  0.4322
   93MOL0     H12547   0.865   6.396   3.925  1.4299  0.2745  1.9497
   93MOL0     H12548   0.779   6.278   3.993 -2.2156 -0.7504 -4.8075
   93MOL0     H12549   0.866   6.093   3.846  2.5393 -0.9332 -0.2845
   93MOL0     H12550   0.796   6.215   3.751  2.0191  3.6894 -0.4857
   93MOL0     H12551   1.191   6.173   3.614  2.6658  2.3501  1.6402
   93MOL0     H12552   1.257   6.156   4.005 -1.8525 -0.3696  0.0564
   93MOL0     H12553   1.582   6.198   3.992 -0.5397  0.0862 -0.7304
   93MOL0     H12554   1.583   6.030   3.936  1.5040  0.3964  3.3742
   93MOL0     H12555   1.446   6.139   3.890  2.0789  1.9220 -2.4273
   94MOL0     O12556   0.812   1.357   2.671 -0.1328  0.1475 -0.1259
   94MOL0     C12557   0.727   1.278   2.711  0.5618 -0.2714 -0.4759
   94MOL0     O12558   0.675   1.269   2.842  0.1623  0.5985 -0.6426
   94MOL0     C12559   0.726   1.340   2.944  0.4304 -0.7575 -0.2783
   94MOL0     C12560   0.634   1.381   3.036  0.9459  0.3723  0.3914
   94MOL0     C12561   0.675   1.440   3.158 -0.5655 -0.5111  0.4899
   94MOL0     C12562   0.807   1.452   3.195  0.2607 -0.5078  0.4157
   94MOL0     O12563   0.839   1.507   3.317  0.3794  0.0265 -0.3087
   94MOL0     C12564   0.966   1.463   3.363  0.4684 -0.3638  0.5708
   94MOL0     C12565   0.966   1.488   3.510  0.2099  0.6979  0.5781
   94MOL0     C12566   1.104   1.494   3.579  0.1201 -0.1467  0.5019
   94MOL0     C12567   1.159   1.351   3.597  0.2305 -0.6485 -0.8126
   94MOL0     C12568   1.301   1.347   3.670 -0.5352 -0.4896  0.3041
   94MOL0     C12569   1.410   1.423   3.577  0.9017 -0.1039  0.0492
   94MOL0     C12570   1.551   1.405   3.645  0.1677 -0.1222  0.5911
   94MOL0     C12571   1.664   1.436   3.546  0.1031  0.7666  0.1960
   94MOL0     N12572   1.798   1.406   3.606 -0.3394  0.5502  0.4583
   94MOL0     C12573   1.900   1.497   3.646 -0.0599 -0.3502  0.1596
   94MOL0     C12574   1.976   1.429   3.726 -0.5131 -0.7538  0.1666
   94MOL0     C12575   2.076   1.508   3.814  0.6032  0.6959  0.1995
   94MOL0     C12576   2.205   1.539   3.739  0.3679  0.1058  0.7785
   94MOL0     C12577   2.306   1.615   3.832  0.8552 -0.1602  0.3543
   94MOL0     C12578   2.441   1.643   3.757 -0.3499  0.2683  0.6351
   94MOL0     O12579   2.508   1.746   3.830 -0.4342 -0.2793 -0.4811
   94MOL0     C12580   2.623   1.798   3.771 -1.0051  0.3860  0.4168
   94MOL0     C12581   2.656   1.928   3.793 -0.3394 -0.2943 -0.6697
   94MOL0     C12582   2.778   1.980   3.736  0.0199  0.7234 -0.3767
   94MOL0     C12583   2.875   1.897   3.677 -0.6694  0.3236  0.3189
   94MOL0     C12584   3.015   1.948   3.636 -0.4537 -0.4821  0.2070
   94MOL0     O12585   3.076   1.878   3.539  0.0838 -0.4261  0.2209
   94MOL0     C12586   3.202   1.918   3.518  0.2634 -0.2064 -0.6388
   94MOL0     C12587   3.229   2.006   3.409 -1.1134 -0.1890 -1.1515
   94MOL0     C12588   3.367   2.026   3.374  0.2674  1.1218 -0.8084
   94MOL0     C12589   3.478   1.950   3.425 -0.4961 -0.1506 -0.2456
   94MOL0     O12590   3.603   1.971   3.367 -0.4370  0.1580  0.3040
   94MOL0     C12591   3.717   1.896   3.408 -0.5562  0.1794 -0.6013
   94MOL0     C12592   3.830   1.961   3.337 -0.4999 -0.3067 -0.6220
   94MOL0     C12593   3.956   1.876   3.353  0.3691  0.3606  0.1569
   94MOL0     C12594   4.077   1.941   3.289  0.2810  0.0115  0.0307
   94MOL0     C12595   4.196   1.847   3.294  0.0074  0.1949  0.9609
   94MOL0     C12596   4.307   1.908   3.208  0.4299 -0.6881  0.3083
   94MOL0     C12597   4.429   1.813   3.189  1.1697  0.5305  0.1169
   94MOL0     C12598   4.552   1.868   3.122 -0.4192 -0.0998 -0.2944
   94MOL0    Cl12599   4.503   1.905   2.958 -0.0455  0.1827  0.1141
   94MOL0     C12600   3.442   1.862   3.535 -0.6213  0.7154  0.4283
   94MOL0     C12601   3.307   1.857   3.584 -1.2723  0.0395  0.1157
   94MOL0     O12602   3.065   2.051   3.693  0.7862 -0.2352  0.4156
   94MOL0     C12603   2.832   1.773   3.644  0.1461 -0.8414  1.1397
   94MOL0     C12604   2.710   1.722   3.691 -0.1930 -0.3658  0.4540
   94MOL0     N12605   1.941   1.298   3.731 -0.7589 -0.2252  0.1244
   94MOL0     N12606   1.832   1.283   3.660 -0.3002 -0.0038 -0.1831
   94MOL0     C12607   0.900   1.407   3.103 -0.5616 -0.2551  0.9384
   94MOL0     C12608   0.860   1.352   2.979 -0.1848 -0.2547 -0.1932
   94MOL0     C12609   0.668   1.185   2.622  0.0138  0.2056 -0.2470
   94MOL0     C12610   0.636   1.060   2.674  0.7218 -1.1800 -0.6679
   94MOL0     C12611   0.584   0.962   2.588  0.0393 -0.3893  0.0740
   94MOL0     C12612   0.583   0.978   2.445 -0.4606 -0.5146 -0.4563
   94MOL0     O12613   0.538   0.870   2.376 -0.1804 -0.1466  0.6907
   94MOL0     C12614   0.537   0.868   2.231  0.7302 -0.6156 -0.1594
   94MOL0     C12615   0.394   0.883   2.179 -0.3649 -0.0861  0.1281
   94MOL0     C12616   0.400   0.937   2.036 -0.2883  0.7112 -1.3055
   94MOL0     C12617   0.260   0.941   1.966 -0.8751  0.0374 -1.1088
   94MOL0     C12618   0.200   0.815   1.975  0.4251  0.0201  0.5052
   94MOL0     C12619   0.132   0.710   1.986 -0.9962 -0.3531  0.1161
   94MOL0     C12620   0.606   1.105   2.399  0.3999 -0.1135  0.2250
   94MOL0     C12621   0.657   1.207   2.483  0.8392 -0.0924  0.4457
   94MOL0     C12622   0.682   1.344   2.416  0.4794 -0.2325  0.5130
   94MOL0     H12623   0.530   1.361   3.013  1.3631 -0.2376 -1.0669
   94MOL0     H12624   0.597   1.472   3.227 -0.2391 -1.1313  1.1718
   94MOL0     H12625   0.992   1.363   3.328  1.7373  0.1061  0.0897
   94MOL0     H12626   1.041   1.533   3.325  1.8009 -0.7984  2.2919
   94MOL0     H12627   0.903   1.414   3.559  0.9545  1.4314  2.7588
   94MOL0     H12628   0.915   1.582   3.532 -0.3478  0.8584 -1.2069
   94MOL0     H12629   1.102   1.534   3.681 -0.6077 -1.0724  0.8622
   94MOL0     H12630   1.169   1.560   3.521 -0.0876 -2.6538 -2.8434
   94MOL0     H12631   1.096   1.290   3.661 -0.1171  1.0970  0.5882
   94MOL0     H12632   1.168   1.303   3.499 -0.3959  2.8381 -2.7461
   94MOL0     H12633   1.291   1.402   3.764 -1.9431 -4.2792  2.5778
   94MOL0     H12634   1.335   1.247   3.695  0.8954  0.6341  3.2218
   94MOL0     H12635   1.409   1.372   3.480 -1.8571 -1.9424  0.9249
   94MOL0     H12636   1.387   1.530   3.569  0.4347 -0.3092 -1.8456
   94MOL0     H12637   1.560   1.303   3.685 -0.2033  1.0131  3.8236
   94MOL0     H12638   1.557   1.475   3.728 -1.4597  0.2944  0.3733
   94MOL0     H12639   1.642   1.370   3.462  0.5013  1.0658 -0.1482
   94MOL0     H12640   1.656   1.542   3.519  1.3241  0.6967 -0.4917
   94MOL0     H12641   1.897   1.602   3.619 -0.0477 -0.8420 -1.9368
   94MOL0     H12642   2.031   1.604   3.840 -1.4394 -0.1775  0.1110
   94MOL0     H12643   2.094   1.452   3.907 -1.5066  0.4173  0.4869
   94MOL0     H12644   2.262   1.456   3.695 -0.1964  0.6111 -1.0019
   94MOL0     H12645   2.178   1.603   3.654 -0.1392  2.1976  2.4457
   94MOL0     H12646   2.318   1.556   3.923 -0.4137  3.1841  2.8494
   94MOL0     H12647   2.257   1.711   3.852  0.2871 -0.0646 -1.3255
   94MOL0     H12648   2.405   1.674   3.659 -3.7006 -0.2763  1.5682
   94MOL0     H12649   2.501   1.552   3.753  2.2140  1.9030 -1.5702
   94MOL0     H12650   2.591   1.984   3.859 -1.2997  1.3605 -2.9132
   94MOL0     H12651   2.794   2.087   3.742 -0.9938  0.8505  0.2256
   94MOL0     H12652   3.159   2.047   3.338 -1.3686  0.0065 -0.7897
   94MOL0     H12653   3.377   2.085   3.284  0.5596 -0.5872 -1.9328
   94MOL0     H12654   3.729   1.897   3.516 -2.7612  0.5727 -0.3078
   94MOL0     H12655   3.706   1.789   3.386 -1.8702 -0.3280  2.1460
   94MOL0     H12656   3.794   1.980   3.236 -0.2036 -0.7485 -0.8157
   94MOL0     H12657   3.847   2.062   3.375 -0.4134  0.2874 -2.1740
   94MOL0     H12658   3.982   1.853   3.457  0.1295 -0.0180  0.1363
   94MOL0     H12659   3.930   1.778   3.311  1.1938 -0.6675  1.9329
   94MOL0     H12660   4.111   2.037   3.329  2.6897 -0.8245  0.1502
   94MOL0     H12661   4.057   1.946   3.182  1.4744 -1.9297 -0.3381
   94MOL0     H12662   4.170   1.746   3.259  0.5977 -0.1654  1.5365
   94MOL0     H12663   4.216   1.837   3.401  1.0919  2.7400  1.0758
   94MOL0     H12664   4.265   1.955   3.118  2.7727  2.4276  0.6745
   94MOL0     H12665   4.348   1.991   3.266 -1.0000  0.3643 -0.1125
   94MOL0     H12666   4.382   1.731   3.132 -2.9281  0.6331  2.9304
   94MOL0     H12667   4.463   1.778   3.287 -0.3135  0.6870  0.7081
   94MOL0     H12668   4.576   1.963   3.172 -1.2184 -1.0998  2.1492
   94MOL0     H12669   4.633   1.795   3.131  0.7318  1.2452  0.7737
   94MOL0     H12670   3.522   1.793   3.558 -1.0569 -1.2601 -3.2109
   94MOL0     H12671   3.295   1.786   3.665  0.4981 -2.0679 -1.3631
   94MOL0     H12672   2.895   1.699   3.595  0.4786 -1.1964  2.0687
   94MOL0     H12673   2.687   1.621   3.659  1.4619 -0.6088 -0.0894
   94MOL0     H12674   1.001   1.441   3.122 -1.0647  1.2804  0.9777
   94MOL0     H12675   0.927   1.307   2.906 -1.8641  0.5711 -2.3688
   94MOL0     H12676   0.627   1.044   2.781 -0.2036  0.7862 -0.3883
   94MOL0     H12677   0.551   0.868   2.631  3.6069 -1.5083  0.7276
   94MOL0     H12678   0.577   0.771   2.199  0.3456 -0.4781 -1.0708
   94MOL0     H12679   0.604   0.945   2.192 -1.2325  1.4081  0.2163
   94MOL0     H12680   0.359   0.966   2.241  1.1970  1.7109 -1.2919
   94MOL0     H12681   0.330   0.796   2.200 -1.6777  0.5052 -1.2680
   94MOL0     H12682   0.469   0.883   1.971  0.3567 -0.5428  0.3386
   94MOL0     H12683   0.441   1.039   2.038 -0.6222  0.8601  0.5471
   94MOL0     H12684   0.205   1.022   2.015  2.0535  0.9702  0.9048
   94MOL0     H12685   0.268   0.978   1.863  1.1111  0.5962 -0.8011
   94MOL0     H12686   0.075   0.620   2.002 -1.9387  0.7826  4.2371
   94MOL0     H12687   0.610   1.113   2.290  0.8983  2.4094  0.3707
   94MOL0     H12688   0.670   1.424   2.490 -1.3974  0.0631 -0.0615
   94MOL0     H12689   0.781   1.349   2.370  0.4184 -0.7337  0.3174
   94MOL0     H12690   0.612   1.360   2.333  1.5123  0.6907 -0.2234
   95MOL0     O12691   4.037   0.140   8.951  0.0375  0.0660  0.4802
   95MOL0     C12692   3.957   0.129   9.037  0.0735  0.8186 -0.8356
   95MOL0     O12693   3.989   0.153   9.168 -0.6387 -0.2654  0.2936
   95MOL0     C12694   4.113   0.196   9.215 -0.3782  0.6518  0.6198
   95MOL0     C12695   4.127   0.299   9.316  1.9675 -0.2386 -0.4138
   95MOL0     C12696   4.253   0.326   9.374 -0.2389 -0.4180  0.1141
   95MOL0     C12697   4.368   0.262   9.321  1.0753 -1.1455  0.5299
   95MOL0     O12698   4.495   0.300   9.342 -1.1901  0.1823  0.1539
   95MOL0     C12699   4.521   0.438   9.364 -0.3475 -0.6442  0.2997
   95MOL0     C12700   4.671   0.465   9.380  0.1362 -0.1755  0.2939
   95MOL0     C12701   4.723   0.426   9.518  0.2784 -1.3728 -0.2389
   95MOL0     C12702   4.879   0.442   9.520 -0.3208  0.3092  0.6253
   95MOL0     C12703   4.957   0.310   9.494  0.2418  0.2139 -1.4481
   95MOL0     C12704   5.106   0.341   9.471 -0.3683  0.1785 -0.2074
   95MOL0     C12705   5.175   0.384   9.608  0.4196 -0.3118 -0.4392
   95MOL0     C12706   5.320   0.344   9.608  0.1846 -0.3458  0.0784
   95MOL0     N12707   5.413   0.426   9.693 -0.1395 -0.4054  0.0050
   95MOL0     C12708   5.480   0.537   9.642 -0.4562  0.2791  0.3124
   95MOL0     C12709   5.542   0.595   9.748  0.9188  0.0636  0.0755
   95MOL0     C12710   5.626   0.721   9.737 -0.5979 -0.7915  0.8112
   95MOL0     C12711   5.779   0.681   9.751  0.3902 -0.0405  1.1940
   95MOL0     C12712   5.860   0.796   9.689  0.5658 -0.1696  0.2806
   95MOL0     C12713   6.009   0.795   9.728  0.0748 -0.4835 -0.0383
   95MOL0     O12714   6.051   0.661   9.711 -0.5360 -1.1445  0.2143
   95MOL0     C12715   6.183   0.631   9.746  0.0878  1.3718  0.3023
   95MOL0     C12716   6.210   0.496   9.780 -0.2736 -1.0582  0.5609
   95MOL0     C12717   6.340   0.461   9.818  0.1924  0.3616 -0.8981
   95MOL0     C12718   6.444   0.548   9.809 -0.0548  0.0954 -0.0340
   95MOL0     C12719   6.585   0.513   9.843 -0.4727 -0.1053 -0.4246
   95MOL0     O12720   6.621   0.389   9.804  0.0630 -0.2977  0.0199
   95MOL0     C12721   6.758   0.362   9.792  0.8598 -0.4191 -0.1772
   95MOL0     C12722   6.834   0.443   9.721 -0.2933 -0.4424 -0.9649
   95MOL0     C12723   6.959   0.412   9.691  0.5653  0.6049  0.0959
   95MOL0     C12724   7.025   0.292   9.735  0.5614  0.9789 -1.2818
   95MOL0     O12725   7.159   0.276   9.716 -0.2830 -0.0452  0.4732
   95MOL0     C12726   7.232   0.176   9.780  0.5150 -0.5262 -0.7112
   95MOL0     C12727   7.375   0.171   9.730 -0.4542  0.1471  0.1974
   95MOL0     C12728   7.470   0.063   9.789 -0.7594 -0.0523 -0.1303
   95MOL0     C12729   7.577   0.020   9.682  1.0664  0.1610 -0.0404
   95MOL0     C12730   7.660  -0.097   9.731  0.3625  0.0896 -0.8118
   95MOL0     C12731   7.756  -0.161   9.629  0.9118 -0.2566  0.0971
   95MOL0     C12732   7.878  -0.212   9.700 -0.7990 -0.0466 -0.2943
   95MOL0     C12733   7.956  -0.316   9.616  0.0978 -0.5535  0.0079
   95MOL0    Cl12734   8.034  -0.233   9.470 -0.0228  0.0678 -0.2264
   95MOL0     C12735   6.945   0.206   9.817 -0.0038  0.3627  0.8187
   95MOL0     C12736   6.805   0.239   9.825 -0.8315  0.2711 -1.5388
   95MOL0     O12737   6.655   0.593   9.899  0.3606  0.6835  0.3900
   95MOL0     C12738   6.416   0.679   9.773  0.0030  0.0821 -0.3260
   95MOL0     C12739   6.286   0.721   9.744 -0.0309 -0.1850 -0.4747
   95MOL0     N12740   5.497   0.517   9.855  0.1927 -0.1412 -0.1924
   95MOL0     N12741   5.418   0.419   9.826 -0.0986  0.1623 -0.1721
   95MOL0     C12742   4.360   0.168   9.216  0.2022 -0.1141  0.0284
   95MOL0     C12743   4.231   0.140   9.173  0.1553 -1.0073  0.4019
   95MOL0     C12744   3.818   0.074   9.006 -0.9243  0.7177 -0.5546
   95MOL0     C12745   3.742   0.023   9.115 -0.0735 -0.5102  0.0764
   95MOL0     C12746   3.611  -0.023   9.092  0.0793 -0.5980 -0.5677
   95MOL0     C12747   3.553  -0.014   8.964  1.0487 -0.0499 -1.5085
   95MOL0     O12748   3.435  -0.080   8.932  0.0639  0.3165 -0.1535
   95MOL0     C12749   3.358  -0.146   9.030 -0.6459 -0.3355 -1.2243
   95MOL0     C12750   3.245  -0.206   8.956  0.5651  0.0820  0.0667
   95MOL0     C12751   3.145  -0.100   8.897 -0.6040 -0.0676 -0.0647
   95MOL0     C12752   3.035  -0.167   8.834  0.0975 -0.6889 -0.1138
   95MOL0     C12753   2.950  -0.058   8.780 -0.5176  0.0310  0.2156
   95MOL0     C12754   2.885   0.040   8.736  0.0742  0.2224  0.0582
   95MOL0     C12755   3.619   0.045   8.860  0.1024 -0.4451  0.5023
   95MOL0     C12756   3.750   0.088   8.879 -0.3889  0.8651  0.0184
   95MOL0     C12757   3.811   0.146   8.748  0.2557 -0.2344  0.6858
   95MOL0     H12758   4.039   0.346   9.358  2.2954  0.3517 -0.3693
   95MOL0     H12759   4.264   0.406   9.446 -0.5857  1.0911 -1.4244
   95MOL0     H12760   4.481   0.502   9.284 -0.3509 -0.4481  0.4555
   95MOL0     H12761   4.475   0.472   9.458 -0.6894 -1.5372  0.4587
   95MOL0     H12762   4.691   0.572   9.369  0.0961 -0.0412  1.3864
   95MOL0     H12763   4.718   0.414   9.295 -1.6659 -1.7496  0.1644
   95MOL0     H12764   4.706   0.319   9.534  0.4939 -1.1620  1.6552
   95MOL0     H12765   4.673   0.482   9.597 -2.8747  0.4108 -3.2089
   95MOL0     H12766   4.915   0.510   9.443 -0.5523  0.8787  1.0148
   95MOL0     H12767   4.916   0.492   9.611 -1.5980  1.6384  0.4608
   95MOL0     H12768   4.934   0.249   9.582  1.7780 -1.6913 -2.2751
   95MOL0     H12769   4.906   0.259   9.411 -2.2574  2.4728 -1.4457
   95MOL0     H12770   5.153   0.248   9.437  1.2683  0.5289  0.9830
   95MOL0     H12771   5.115   0.429   9.407 -2.9900  0.7721  0.1131
   95MOL0     H12772   5.120   0.329   9.685 -0.3791  0.3035 -0.5696
   95MOL0     H12773   5.170   0.490   9.633  1.5499 -0.3492  0.0395
   95MOL0     H12774   5.322   0.243   9.651 -1.2006 -1.8613 -3.0271
   95MOL0     H12775   5.359   0.352   9.506  0.7094  4.2435  0.4286
   95MOL0     H12776   5.479   0.563   9.537 -0.0442  3.0072  0.8997
   95MOL0     H12777   5.613   0.777   9.644 -0.0168  0.1999  1.3063
   95MOL0     H12778   5.604   0.792   9.818 -1.5906 -1.9577  1.5934
   95MOL0     H12779   5.814   0.655   9.851  0.9541  2.0512  1.5995
   95MOL0     H12780   5.796   0.593   9.689  0.4654  1.2187 -0.6448
   95MOL0     H12781   5.808   0.889   9.713 -0.5553 -0.1572 -1.9198
   95MOL0     H12782   5.859   0.789   9.579  2.0835  2.1522  0.0310
   95MOL0     H12783   6.021   0.831   9.831  0.7305  0.7256 -0.5114
   95MOL0     H12784   6.061   0.868   9.665  0.4129  2.0594  2.9505
   95MOL0     H12785   6.129   0.425   9.785 -1.1323 -0.1433  0.0364
   95MOL0     H12786   6.355   0.356   9.841 -0.5088  0.1344 -1.4406
   95MOL0     H12787   6.803   0.537   9.677  1.0266  0.5889  0.1743
   95MOL0     H12788   7.024   0.472   9.628  0.4639 -0.0533 -0.6585
   95MOL0     H12789   7.223   0.200   9.887 -4.1666 -0.0668 -0.9724
   95MOL0     H12790   7.174   0.088   9.753  0.9196 -1.5140  1.4281
   95MOL0     H12791   7.374   0.148   9.623  0.7788 -1.6439  0.5282
   95MOL0     H12792   7.420   0.268   9.747 -3.0240  1.3767  0.5326
   95MOL0     H12793   7.526   0.087   9.880  0.3793 -2.3834 -0.1212
   95MOL0     H12794   7.410  -0.021   9.826  2.2343 -0.8568  3.6660
   95MOL0     H12795   7.628   0.111   9.648  2.7481 -1.0033 -0.7086
   95MOL0     H12796   7.516  -0.018   9.600  0.7607  0.7425 -0.0931
   95MOL0     H12797   7.586  -0.174   9.754 -0.9260  1.2543 -0.9068
   95MOL0     H12798   7.716  -0.068   9.820 -1.2372 -0.5995  0.4712
   95MOL0     H12799   7.705  -0.243   9.577  1.0401  1.4381 -2.9459
   95MOL0     H12800   7.776  -0.088   9.549  0.9752  1.4457  1.6153
   95MOL0     H12801   7.855  -0.261   9.795 -1.1111 -0.5433 -0.6253
   95MOL0     H12802   7.940  -0.125   9.726 -0.8829 -0.2698  0.6898
   95MOL0     H12803   8.048  -0.353   9.663  1.0535  1.0688 -0.5070
   95MOL0     H12804   7.887  -0.393   9.580  1.4124 -1.3905 -0.8592
   95MOL0     H12805   6.986   0.118   9.865  1.0771  0.5225  0.2229
   95MOL0     H12806   6.734   0.176   9.879  2.9977 -1.7299  1.7103
   95MOL0     H12807   6.491   0.758   9.776 -2.3257  2.4151  1.0376
   95MOL0     H12808   6.266   0.823   9.715 -0.5970  0.0073  0.5380
   95MOL0     H12809   4.452   0.123   9.180 -0.0583 -0.7575  0.1533
   95MOL0     H12810   4.228   0.055   9.105  0.5093 -1.1156  0.5207
   95MOL0     H12811   3.786   0.011   9.213  2.6753 -0.1232 -1.0120
   95MOL0     H12812   3.552  -0.045   9.180  0.0726  3.2250  0.5616
   95MOL0     H12813   3.332  -0.065   9.099  2.4989 -0.2648  0.0181
   95MOL0     H12814   3.420  -0.218   9.082  1.0302  0.9078 -1.4170
   95MOL0     H12815   3.200  -0.279   9.024  1.1574  0.0892  0.4753
   95MOL0     H12816   3.290  -0.256   8.870  0.5853 -1.3169  0.8587
   95MOL0     H12817   3.199  -0.036   8.827 -0.2510 -0.5966 -0.2754
   95MOL0     H12818   3.112  -0.035   8.979  1.4719 -1.1768  1.7443
   95MOL0     H12819   3.068  -0.230   8.751  0.5385 -3.9119  2.3387
   95MOL0     H12820   2.979  -0.227   8.906  1.0832  2.6699  3.8546
   95MOL0     H12821   2.827   0.114   8.684 -1.0581  0.0299  1.0090
   95MOL0     H12822   3.566   0.049   8.766 -3.3758 -0.0015  2.3151
   95MOL0     H12823   3.775   0.246   8.723 -0.4998 -0.0206  2.5431
   95MOL0     H12824   3.920   0.146   8.755  0.2019 -0.5670  1.5845
   95MOL0     H12825   3.790   0.083   8.660 -0.2467  0.2912  0.4230
   96MOL0     O12826   1.199   4.576  11.260  0.0927 -0.2530  0.6615
   96MOL0     C12827   1.138   4.669  11.307  1.1462  0.3712 -0.0915
   96MOL0     O12828   1.183   4.757  11.394 -0.8171 -0.0172 -1.1606
   96MOL0     C12829   1.314   4.748  11.451  0.1714  0.1913  0.0381
   96MOL0     C12830   1.381   4.873  11.462  0.5754 -0.0779 -0.0690
   96MOL0     C12831   1.511   4.883  11.514  0.1246  0.3066 -0.8550
   96MOL0     C12832   1.575   4.763  11.559 -1.5144 -0.2003 -0.7752
   96MOL0     O12833   1.696   4.770  11.609 -0.0573 -0.2216  0.1233
   96MOL0     C12834   1.735   4.682  11.719  0.4888 -0.1656 -0.1044
   96MOL0     C12835   1.825   4.756  11.828  0.0082 -0.2127 -0.1423
   96MOL0     C12836   1.798   4.906  11.833 -0.7059 -0.4104  0.4682
   96MOL0     C12837   1.890   4.978  11.917 -0.5739 -1.1513  0.2474
   96MOL0     C12838   1.841   5.112  11.935 -0.1381  0.0591  1.3834
   96MOL0     C12839   1.923   5.224  11.999  0.3854  0.9286  0.6317
   96MOL0     C12840   1.839   5.346  12.035  0.9484  1.2479 -0.1613
   96MOL0     C12841   1.803   5.345  12.179  0.3328 -0.0684 -0.8067
   96MOL0     N12842   1.912   5.413  12.266  0.2668 -0.1994  0.1133
   96MOL0     C12843   1.961   5.379  12.388  0.5510 -0.0433  0.0708
   96MOL0     C12844   2.051   5.470  12.431  0.1209 -0.7981  0.0619
   96MOL0     C12845   2.137   5.454  12.558 -0.6702  1.1106  0.5947
   96MOL0     C12846   2.238   5.336  12.534  0.0581  0.5714  0.1075
   96MOL0     C12847   2.347   5.341  12.640 -0.3725  0.4054  0.1141
   96MOL0     C12848   2.422   5.205  12.647  0.7845  0.2321 -0.3939
   96MOL0     O12849   2.530   5.230  12.735 -0.0125 -0.3350 -0.2242
   96MOL0     C12850   2.651   5.255  12.667 -0.5168 -0.2381  0.1882
   96MOL0     C12851   2.664   5.318  12.544  0.2124  0.6942  1.1528
   96MOL0     C12852   2.780   5.331  12.477 -0.2962 -0.1987 -0.6933
   96MOL0     C12853   2.896   5.296  12.543 -0.6262  0.0340 -0.1885
   96MOL0     C12854   3.030   5.310  12.467 -0.0387 -0.2616 -0.3289
   96MOL0     O12855   3.150   5.286  12.541  0.0796  0.6216  0.0808
   96MOL0     C12856   3.272   5.271  12.477 -0.0735 -0.5375 -0.0568
   96MOL0     C12857   3.367   5.372  12.500  0.6189 -1.0141  0.1390
   96MOL0     C12858   3.496   5.369  12.438 -0.0955 -0.4336 -0.5698
   96MOL0     C12859   3.524   5.265  12.346 -0.6101  0.0731 -0.3593
   96MOL0     O12860   3.643   5.240  12.288  0.2547 -0.3246 -0.3891
   96MOL0     C12861   3.749   5.220  12.383  0.7684 -0.3114  0.2018
   96MOL0     C12862   3.863   5.148  12.316 -0.4112 -0.0755 -1.1022
   96MOL0     C12863   3.996   5.153  12.391 -0.3236  0.1879  0.4741
   96MOL0     C12864   4.093   5.039  12.351  0.3974  0.4485 -0.4552
   96MOL0     C12865   4.209   5.090  12.257  0.4060  0.3012  0.2310
   96MOL0     C12866   4.313   4.990  12.212 -0.2795  0.4210 -0.0409
   96MOL0     C12867   4.414   4.932  12.324  0.4875 -0.0324 -0.4817
   96MOL0     C12868   4.560   4.967  12.327  0.5322  0.4003 -0.6979
   96MOL0    Cl12869   4.647   4.892  12.462  0.2858 -0.0114  0.1776
   96MOL0     C12870   3.428   5.164  12.331 -0.2960  0.9523 -0.4026
   96MOL0     C12871   3.304   5.167  12.394 -0.0074  0.6769  0.5242
   96MOL0     O12872   3.025   5.331  12.349 -0.4691 -0.2882  0.5534
   96MOL0     C12873   2.893   5.262  12.677  0.4534  0.6918  0.1812
   96MOL0     C12874   2.770   5.227  12.735  0.1299  0.1173 -0.7847
   96MOL0     N12875   2.056   5.575  12.334  0.4722  0.4768 -0.4249
   96MOL0     N12876   1.975   5.532  12.232  0.2781  1.0199 -1.2351
   96MOL0     C12877   1.515   4.644  11.537 -0.5491  0.8649 -0.0289
   96MOL0     C12878   1.390   4.634  11.486  0.5872  0.1519 -0.6852
   96MOL0     C12879   0.997   4.685  11.254 -0.5909 -0.1931  0.7792
   96MOL0     C12880   0.948   4.601  11.149 -0.2831 -0.7411  0.7052
   96MOL0     C12881   0.821   4.612  11.094 -0.1368  0.3628 -0.3872
   96MOL0     C12882   0.738   4.713  11.144  0.1236 -0.1365  0.3587
   96MOL0     O12883   0.622   4.742  11.069 -0.3696  0.0858 -0.1934
   96MOL0     C12884   0.527   4.845  11.093  0.0936 -0.4556 -0.8573
   96MOL0     C12885   0.393   4.798  11.040  0.7420  0.4608  0.1044
   96MOL0     C12886   0.282   4.907  11.065 -0.2180 -0.2549  0.2621
   96MOL0     C12887   0.146   4.893  10.990  1.0284  0.3788 -0.8943
   96MOL0     C12888   0.056   4.990  11.049 -0.0836  0.2162 -0.0031
   96MOL0     C12889  -0.003   5.070  11.115 -0.4453 -0.0967  0.1534
   96MOL0     C12890   0.784   4.810  11.239  0.6540  1.1403  0.9573
   96MOL0     C12891   0.910   4.791  11.308 -0.4256 -1.0186  0.4757
   96MOL0     C12892   0.952   4.890  11.406 -0.3695 -0.1474 -0.8545
   96MOL0     H12893   1.332   4.956  11.412 -0.7473 -1.1029 -0.5384
   96MOL0     H12894   1.551   4.981  11.538 -0.7316  0.0891  1.7933
   96MOL0     H12895   1.643   4.649  11.767  0.8565 -0.0914  0.6652
   96MOL0     H12896   1.782   4.588  11.690 -0.6334 -1.1295  1.1320
   96MOL0     H12897   1.930   4.738  11.804 -1.1291 -1.6894 -5.3481
   96MOL0     H12898   1.800   4.712  11.925 -0.5219  1.5181  0.5292
   96MOL0     H12899   1.696   4.905  11.873 -0.6056  0.2077  0.7479
   96MOL0     H12900   1.805   4.945  11.731  2.4332 -1.8959 -0.0071
   96MOL0     H12901   1.890   4.938  12.018  1.6423  0.0965  0.8011
   96MOL0     H12902   1.987   4.978  11.866 -0.3397  0.9323  0.5945
   96MOL0     H12903   1.820   5.154  11.836  3.2756  1.3394  1.0599
   96MOL0     H12904   1.753   5.114  12.000 -0.4382 -0.1604  0.9886
   96MOL0     H12905   1.991   5.196  12.079  1.0018  0.1122 -0.1574
   96MOL0     H12906   1.997   5.244  11.921  0.8231 -2.2800  0.0842
   96MOL0     H12907   1.746   5.351  11.978 -0.9825  1.2514  2.8347
   96MOL0     H12908   1.898   5.435  12.012  0.0829  1.9082  0.1473
   96MOL0     H12909   1.706   5.394  12.191 -1.1672 -2.9639  0.0424
   96MOL0     H12910   1.792   5.240  12.211 -2.5613 -0.0262 -1.3788
   96MOL0     H12911   1.931   5.286  12.433 -0.4254  0.5561  0.6815
   96MOL0     H12912   2.192   5.548  12.570  0.6656  0.5909 -1.0852
   96MOL0     H12913   2.073   5.419  12.640  1.8441 -5.1764  0.4113
   96MOL0     H12914   2.170   5.251  12.547  0.6244  0.1638  0.4396
   96MOL0     H12915   2.275   5.334  12.431 -4.7270 -1.8885 -1.8798
   96MOL0     H12916   2.309   5.365  12.739 -2.1494  3.8673 -1.2566
   96MOL0     H12917   2.415   5.420  12.607 -0.0867  0.0256 -0.2353
   96MOL0     H12918   2.447   5.174  12.545  0.2903 -0.9048 -0.1928
   96MOL0     H12919   2.351   5.126  12.675  2.8134 -1.5650 -0.0087
   96MOL0     H12920   2.575   5.353  12.492  0.4475  0.3575  0.5126
   96MOL0     H12921   2.777   5.371  12.376 -0.8964 -0.4980 -0.8012
   96MOL0     H12922   3.334   5.465  12.546 -1.2628 -2.1070  1.0994
   96MOL0     H12923   3.569   5.449  12.443  2.7975 -2.8156 -1.9201
   96MOL0     H12924   3.793   5.315  12.414 -1.7328  1.2336 -0.6286
   96MOL0     H12925   3.715   5.171  12.474 -0.7352  0.9628  0.3780
   96MOL0     H12926   3.823   5.047  12.316 -3.7443  1.1104  0.3279
   96MOL0     H12927   3.885   5.191  12.217  1.8839  1.7519  0.1158
   96MOL0     H12928   4.044   5.250  12.380 -2.1559  1.0081 -0.8462
   96MOL0     H12929   3.973   5.144  12.497 -3.2367  1.5991  0.0655
   96MOL0     H12930   4.041   4.958  12.299  1.6189  0.5374 -1.9052
   96MOL0     H12931   4.141   4.999  12.440  0.7202 -1.0613 -1.2657
   96MOL0     H12932   4.260   5.170  12.311  1.6851  0.3286 -0.9720
   96MOL0     H12933   4.162   5.142  12.173  0.5314 -2.2569 -1.5201
   96MOL0     H12934   4.261   4.908  12.161  1.4635 -1.2936  0.8000
   96MOL0     H12935   4.368   5.053  12.142  0.9373 -1.6631 -1.0677
   96MOL0     H12936   4.424   4.825  12.305  0.9569 -0.0503 -0.1543
   96MOL0     H12937   4.372   4.945  12.425  0.0284  0.6538 -0.7586
   96MOL0     H12938   4.609   4.945  12.232  2.5536  1.0804  0.1110
   96MOL0     H12939   4.567   5.076  12.338 -0.0451  0.4835 -1.1394
   96MOL0     H12940   3.451   5.089  12.256 -2.1781  1.5123 -1.6023
   96MOL0     H12941   3.238   5.082  12.382  1.0590 -0.2759  1.2151
   96MOL0     H12942   2.976   5.250  12.746  0.2178  1.5091  0.6232
   96MOL0     H12943   2.769   5.200  12.840 -1.9367  1.1914 -0.4583
   96MOL0     H12944   1.569   4.555  11.567 -1.7961  0.2812  0.5773
   96MOL0     H12945   1.337   4.540  11.476 -3.6769  2.5218 -3.3118
   96MOL0     H12946   1.012   4.524  11.107  0.3802 -0.1566  0.6237
   96MOL0     H12947   0.780   4.557  11.010 -0.8034 -1.1726  0.8806
   96MOL0     H12948   0.564   4.937  11.045 -0.1095  0.1593  0.1287
   96MOL0     H12949   0.523   4.866  11.200  3.1224  0.2810 -0.7911
   96MOL0     H12950   0.361   4.710  11.097 -0.9848  2.2507  2.0683
   96MOL0     H12951   0.396   4.771  10.934  2.9860  0.0566  0.2169
   96MOL0     H12952   0.320   5.006  11.041  0.1455 -0.1660  1.1646
   96MOL0     H12953   0.259   4.904  11.172 -0.0049  0.1553  0.3234
   96MOL0     H12954   0.151   4.900  10.881  0.2976 -1.0880 -1.0591
   96MOL0     H12955   0.112   4.792  11.015  1.6400 -0.0336 -1.6652
   96MOL0     H12956  -0.047   5.148  11.174  1.2923  0.4028  0.8452
   96MOL0     H12957   0.721   4.892  11.272 -0.3798  0.8409 -0.2099
   96MOL0     H12958   0.873   4.958  11.437 -1.4776 -1.7704  0.0100
   96MOL0     H12959   0.978   4.836  11.497 -0.0094  1.5694  0.1004
   96MOL0     H12960   1.040   4.952  11.387  1.0218 -1.4289  1.1237
   97MOL0     O12961   2.065   8.674   8.384 -0.1860  0.6332  0.3048
   97MOL0     C12962   2.112   8.780   8.405 -0.8008  0.4823  0.3784
   97MOL0     O12963   2.245   8.816   8.426  0.1708 -0.8326  0.0261
   97MOL0     C12964   2.345   8.723   8.432 -0.4503  0.0373  0.2280
   97MOL0     C12965   2.475   8.786   8.437  0.4448  0.2020  1.1058
   97MOL0     C12966   2.589   8.709   8.436  0.0337 -0.0272  0.4072
   97MOL0     C12967   2.590   8.571   8.449  0.5070 -0.1026  0.8101
   97MOL0     O12968   2.712   8.514   8.462 -0.0557  0.8023 -0.1716
   97MOL0     C12969   2.725   8.374   8.437  0.0286 -0.2908 -0.0006
   97MOL0     C12970   2.861   8.331   8.484 -0.1039  0.7640  0.1555
   97MOL0     C12971   2.856   8.180   8.519 -0.2250  1.1701 -0.1677
   97MOL0     C12972   2.975   8.117   8.585 -0.1651 -0.2654 -0.4700
   97MOL0     C12973   2.963   7.966   8.582 -0.3620  0.6988  0.2592
   97MOL0     C12974   3.084   7.892   8.646  0.2175  0.0651  0.6025
   97MOL0     C12975   3.211   7.927   8.577  0.2533 -0.0541  1.0071
   97MOL0     C12976   3.335   7.856   8.638 -0.3017 -0.1667  0.3197
   97MOL0     N12977   3.450   7.893   8.553  0.8460 -0.6270  0.4523
   97MOL0     C12978   3.473   7.841   8.428 -0.9404 -0.1245 -0.2896
   97MOL0     C12979   3.581   7.910   8.387  0.2491  0.2135  1.2002
   97MOL0     C12980   3.641   7.896   8.243  0.3628 -0.1961  0.2260
   97MOL0     C12981   3.789   7.881   8.248 -0.9878  0.0200 -0.2136
   97MOL0     C12982   3.840   7.852   8.103  0.4571 -0.2680 -0.4086
   97MOL0     C12983   3.994   7.834   8.109 -0.1108 -0.1872 -0.8043
   97MOL0     O12984   4.046   7.784   7.987  0.6117  0.5104 -0.2151
   97MOL0     C12985   4.181   7.766   7.982  0.1174  0.4091  0.2047
   97MOL0     C12986   4.250   7.769   7.853 -0.2071 -0.1972 -0.2280
   97MOL0     C12987   4.389   7.742   7.840 -0.2444  0.0742  0.1638
   97MOL0     C12988   4.461   7.707   7.952 -0.1953 -1.0502  0.4145
   97MOL0     C12989   4.607   7.686   7.955  0.0257 -0.6110 -0.4381
   97MOL0     O12990   4.671   7.720   7.847  0.3483 -0.0635 -0.8551
   97MOL0     C12991   4.808   7.714   7.859 -0.3210  0.2134  0.0292
   97MOL0     C12992   4.866   7.626   7.765 -0.6451  1.1398 -0.3496
   97MOL0     C12993   4.997   7.596   7.772 -1.1526 -0.4198 -0.1759
   97MOL0     C12994   5.085   7.677   7.855 -0.7821  0.2922  0.8749
   97MOL0     O12995   5.223   7.652   7.864 -0.0127  0.1647  0.6535
   97MOL0     C12996   5.268   7.522   7.853  0.4097 -0.6853  0.3471
   97MOL0     C12997   5.405   7.510   7.923  0.5524  0.5168 -0.2234
   97MOL0     C12998   5.517   7.596   7.867  0.3858 -0.4993 -0.2589
   97MOL0     C12999   5.647   7.625   7.950  1.0208 -0.3278  0.2172
   97MOL0     C13000   5.746   7.704   7.873  0.0530  0.3295 -0.0426
   97MOL0     C13001   5.865   7.744   7.955 -0.0476 -0.8334 -0.8433
   97MOL0     C13002   5.973   7.633   7.947  0.2273  0.5336  0.3242
   97MOL0     C13003   6.088   7.648   8.040  0.5299 -0.0128  0.0468
   97MOL0    Cl13004   6.242   7.557   8.008 -0.3351 -0.1458 -0.2438
   97MOL0     C13005   5.022   7.758   7.951  0.0733  0.7557  0.0383
   97MOL0     C13006   4.886   7.789   7.953 -0.3075  0.3815 -0.0308
   97MOL0     O13007   4.659   7.637   8.054 -0.2335  0.2594 -0.0172
   97MOL0     C13008   4.404   7.725   8.079  0.0967 -0.5637 -0.4729
   97MOL0     C13009   4.268   7.752   8.093 -0.4704 -0.1550  0.5600
   97MOL0     N13010   3.626   7.997   8.489 -0.6618 -0.2445 -0.3582
   97MOL0     N13011   3.544   7.988   8.581 -0.0121  0.6977 -0.9157
   97MOL0     C13012   2.460   8.507   8.431  0.0369  0.0786  0.5099
   97MOL0     C13013   2.342   8.578   8.438 -0.4860  0.2541  0.1826
   97MOL0     C13014   2.015   8.890   8.407  0.7680  0.3377  0.4417
   97MOL0     C13015   2.044   9.013   8.338 -0.1642  0.8148  0.5060
   97MOL0     C13016   1.948   9.115   8.333 -0.2678  0.7219  0.2921
   97MOL0     C13017   1.822   9.105   8.403 -0.4257 -0.0199 -0.1717
   97MOL0     O13018   1.736   9.208   8.371 -0.4971  0.1541 -0.1162
   97MOL0     C13019   1.618   9.172   8.297  0.2571 -0.5144 -0.6260
   97MOL0     C13020   1.664   9.159   8.156 -0.1551 -1.0306  0.3950
   97MOL0     C13021   1.560   9.158   8.046  0.5568  0.1800 -0.5322
   97MOL0     C13022   1.493   9.019   8.025 -0.2896 -0.8159  0.0854
   97MOL0     C13023   1.375   9.029   7.937  0.7017 -0.3669 -0.0676
   97MOL0     C13024   1.281   9.045   7.862  0.4468 -0.2094  0.5781
   97MOL0     C13025   1.790   8.988   8.466  0.0313  1.0213 -0.3399
   97MOL0     C13026   1.886   8.881   8.471 -1.1099 -0.6629 -0.6950
   97MOL0     C13027   1.841   8.761   8.548 -0.4041  0.0471  0.9886
   97MOL0     H13028   2.482   8.895   8.435  0.6608  0.1807  0.5869
   97MOL0     H13029   2.676   8.774   8.435 -0.3286  0.4973  1.5363
   97MOL0     H13030   2.648   8.316   8.490  1.1514 -0.9440  0.9455
   97MOL0     H13031   2.718   8.356   8.329  0.9905  1.8177 -0.4648
   97MOL0     H13032   2.896   8.389   8.569 -0.6254  0.9455  0.2470
   97MOL0     H13033   2.928   8.363   8.404  2.1662 -0.4542  1.4727
   97MOL0     H13034   2.838   8.125   8.426  2.6742 -1.8934  0.8701
   97MOL0     H13035   2.779   8.174   8.596  2.1404 -1.2848  2.2695
   97MOL0     H13036   3.063   8.138   8.523  0.3209  3.3571  1.2032
   97MOL0     H13037   2.986   8.156   8.686 -4.6570 -1.7547  0.8193
   97MOL0     H13038   2.867   7.930   8.620 -1.2635  2.3759 -0.3415
   97MOL0     H13039   2.964   7.937   8.476  0.7140 -0.2168  0.5036
   97MOL0     H13040   3.095   7.908   8.753  1.3277  3.7608  0.0809
   97MOL0     H13041   3.068   7.784   8.634 -1.3499  0.2158  1.1831
   97MOL0     H13042   3.232   8.034   8.575 -1.6767  0.3524 -0.4905
   97MOL0     H13043   3.195   7.887   8.477 -0.8546 -2.3169  1.9935
   97MOL0     H13044   3.363   7.878   8.741  3.5162  2.0884 -1.0084
   97MOL0     H13045   3.323   7.747   8.634  1.6935 -0.5351  2.2808
   97MOL0     H13046   3.411   7.785   8.358 -1.3076  1.6058 -1.3933
   97MOL0     H13047   3.603   7.814   8.183 -0.2562 -0.2537  0.6850
   97MOL0     H13048   3.629   7.995   8.198  2.5276 -0.2492 -0.6011
   97MOL0     H13049   3.833   7.971   8.291 -3.5576  0.1251  2.4268
   97MOL0     H13050   3.808   7.786   8.298  0.8968 -1.9153 -4.1059
   97MOL0     H13051   3.809   7.936   8.039 -2.5209 -0.3516  0.7689
   97MOL0     H13052   3.801   7.759   8.062 -0.3406  1.5133 -4.1296
   97MOL0     H13053   4.014   7.772   8.197 -4.6654  2.2539  2.4065
   97MOL0     H13054   4.035   7.932   8.132 -0.5300 -0.3510  0.7738
   97MOL0     H13055   4.194   7.788   7.762  0.5748  0.5259 -0.5663
   97MOL0     H13056   4.422   7.734   7.737 -0.2438  1.0558  0.0719
   97MOL0     H13057   4.802   7.568   7.700  1.2824 -2.9169  1.0211
   97MOL0     H13058   5.039   7.520   7.706 -0.8132  0.7870 -1.3784
   97MOL0     H13059   5.198   7.450   7.895  0.0609 -2.4429 -2.8961
   97MOL0     H13060   5.275   7.501   7.746 -1.1888  1.0767 -0.1777
   97MOL0     H13061   5.378   7.543   8.024 -1.0255 -0.7731 -0.1728
   97MOL0     H13062   5.434   7.404   7.925  0.7165  0.5585 -0.3422
   97MOL0     H13063   5.547   7.551   7.772 -1.7128  1.4736 -1.9877
   97MOL0     H13064   5.475   7.695   7.844 -0.1345  0.3807  3.7254
   97MOL0     H13065   5.690   7.536   7.998  0.4660  0.1373  1.6297
   97MOL0     H13066   5.610   7.698   8.023  0.4175 -0.0142 -0.3885
   97MOL0     H13067   5.688   7.794   7.849 -0.9124  0.4613  2.4812
   97MOL0     H13068   5.782   7.642   7.790 -0.9380 -2.0037  1.1917
   97MOL0     H13069   5.903   7.837   7.912 -3.8849  0.9487 -0.7969
   97MOL0     H13070   5.833   7.764   8.058  0.2717 -1.3392 -0.6388
   97MOL0     H13071   5.997   7.618   7.841 -1.3547  2.8315 -0.4160
   97MOL0     H13072   5.938   7.536   7.986  3.1312 -0.5261  0.5932
   97MOL0     H13073   6.130   7.749   8.036  1.0869 -0.2712 -3.1977
   97MOL0     H13074   6.066   7.627   8.145  0.1141 -0.4769 -0.1270
   97MOL0     H13075   5.080   7.807   8.028  0.4303  2.3874 -1.2101
   97MOL0     H13076   4.825   7.853   8.017  0.7542  0.7809  0.6085
   97MOL0     H13077   4.463   7.716   8.170 -1.5564  0.9792  0.8295
   97MOL0     H13078   4.231   7.782   8.190 -2.4680  0.3914 -0.3344
   97MOL0     H13079   2.451   8.399   8.428  0.0514  0.0725  0.6563
   97MOL0     H13080   2.248   8.524   8.440 -0.9471  1.0486  0.1516
   97MOL0     H13081   2.139   9.030   8.288 -1.4889  2.0705 -1.7360
   97MOL0     H13082   1.963   9.199   8.266 -0.5716 -0.5508 -1.4196
   97MOL0     H13083   1.560   9.265   8.297  1.2016  0.1180  1.1916
   97MOL0     H13084   1.567   9.081   8.329  0.2172 -0.1729  0.3069
   97MOL0     H13085   1.723   9.067   8.146 -2.3393 -2.5194  0.4580
   97MOL0     H13086   1.725   9.247   8.136 -2.2844  0.3405 -0.4284
   97MOL0     H13087   1.601   9.191   7.950  0.6709 -1.5303 -1.1049
   97MOL0     H13088   1.482   9.231   8.069  0.3915  0.8804 -2.9845
   97MOL0     H13089   1.559   8.945   7.979 -0.5393 -1.6068  0.9549
   97MOL0     H13090   1.468   8.983   8.125  2.2686  0.1132  1.1520
   97MOL0     H13091   1.200   9.048   7.792 -1.3708 -0.9563  2.5599
   97MOL0     H13092   1.695   8.989   8.519 -0.6894  1.4777 -1.5967
   97MOL0     H13093   1.770   8.705   8.485 -1.4690  0.2545  1.9789
   97MOL0     H13094   1.930   8.704   8.577 -1.0010 -2.5215 -1.6964
   97MOL0     H13095   1.787   8.788   8.638  0.2682  0.2607  1.3345
   98MOL0     O13096  10.819   3.309   3.924 -0.0399 -0.1788  0.0175
   98MOL0     C13097  10.772   3.245   4.013 -1.0152 -0.8232  0.4238
   98MOL0     O13098  10.841   3.166   4.099 -0.2523 -0.0332 -0.5977
   98MOL0     C13099  10.975   3.171   4.088 -0.1052  0.0082  0.0595
   98MOL0     C13100  11.038   3.271   4.166  0.3091  0.5954  0.6276
   98MOL0     C13101  11.179   3.284   4.166  0.1251 -0.4364  0.3072
   98MOL0     C13102  11.266   3.201   4.096 -0.3134 -0.4549 -0.0953
   98MOL0     O13103  11.399   3.238   4.094  0.0984 -0.1493 -0.0878
   98MOL0     C13104  11.494   3.147   4.050  0.2723  0.1567  0.0360
   98MOL0     C13105  11.627   3.195   4.109 -0.9812  0.6874  0.8690
   98MOL0     C13106  11.738   3.100   4.069  0.1658 -0.8489 -0.0852
   98MOL0     C13107  11.877   3.154   4.111 -0.5410 -0.2391 -0.3002
   98MOL0     C13108  11.986   3.055   4.074 -0.5428  0.6946 -0.2755
   98MOL0     C13109  12.117   3.132   4.081 -0.7892 -0.4354  0.6585
   98MOL0     C13110  12.238   3.049   4.044  0.3455  0.4749 -0.0141
   98MOL0     C13111  12.254   3.067   3.890 -0.7289 -0.0769  0.7350
   98MOL0     N13112  12.348   2.986   3.824 -0.8753  0.2482 -0.2209
   98MOL0     C13113  12.478   2.962   3.861  0.1724  0.5960 -0.6562
   98MOL0     C13114  12.527   2.883   3.766  0.4801  0.5545  0.9205
   98MOL0     C13115  12.667   2.834   3.778 -0.1319  0.3236  0.1783
   98MOL0     C13116  12.779   2.952   3.773  0.1430  0.7014  0.1389
   98MOL0     C13117  12.876   2.925   3.656  0.1112  0.0475  0.5033
   98MOL0     C13118  12.971   2.808   3.681 -0.3998 -0.4599  0.4467
   98MOL0     O13119  13.027   2.761   3.552  0.1574 -0.2363  0.1267
   98MOL0     C13120  13.128   2.828   3.489 -0.3014  0.7326 -0.5624
   98MOL0     C13121  13.162   2.767   3.372 -0.1326 -0.0241 -0.3076
   98MOL0     C13122  13.279   2.809   3.309 -0.0567  0.2775  0.1184
   98MOL0     C13123  13.360   2.913   3.366 -0.1842  0.6925 -0.2888
   98MOL0     C13124  13.490   2.946   3.317 -0.0384  0.3716  0.6995
   98MOL0     O13125  13.579   3.020   3.387 -0.2250 -0.0407 -0.7314
   98MOL0     C13126  13.708   3.032   3.343 -0.7551  0.1920 -0.6469
   98MOL0     C13127  13.787   2.963   3.246  0.4023  0.6145 -0.1079
   98MOL0     C13128  13.916   3.003   3.211 -0.4231 -0.0015  0.0735
   98MOL0     C13129  13.973   3.113   3.270  0.6792  0.7437 -0.5686
   98MOL0     O13130  14.094   3.171   3.244  0.4473 -0.8049  0.2703
   98MOL0     C13131  14.181   3.101   3.139  0.1453  0.0671 -0.8466
   98MOL0     C13132  14.323   3.157   3.162  0.0228  0.5436  0.2105
   98MOL0     C13133  14.348   3.302   3.113  0.4309 -0.2226 -0.5127
   98MOL0     C13134  14.481   3.313   3.042  0.0647  0.2324 -0.4140
   98MOL0     C13135  14.607   3.322   3.139  0.7250 -0.0572 -0.6102
   98MOL0     C13136  14.743   3.367   3.077 -0.2782  0.1420  0.4564
   98MOL0     C13137  14.822   3.246   3.012  0.1943  0.1793 -0.9457
   98MOL0     C13138  14.874   3.138   3.103 -0.2626  0.5830  0.3278
   98MOL0    Cl13139  14.963   3.193   3.250 -0.1825  0.3432 -0.3508
   98MOL0     C13140  13.909   3.176   3.377 -0.2672 -0.3809  0.7350
   98MOL0     C13141  13.782   3.129   3.416 -0.0434  0.9988  0.2528
   98MOL0     O13142  13.506   2.920   3.197 -0.8073 -0.6762  0.5980
   98MOL0     C13143  13.318   2.978   3.481  0.1630  0.1216 -0.9889
   98MOL0     C13144  13.199   2.932   3.548  0.0755  0.3407 -0.0175
   98MOL0     N13145  12.436   2.871   3.661 -0.0490  0.3245  0.1100
   98MOL0     N13146  12.328   2.936   3.702 -0.0203 -0.5733  0.1485
   98MOL0     C13147  11.206   3.092   4.021  0.3627 -0.1954 -0.1976
   98MOL0     C13148  11.064   3.086   4.015  0.4402 -1.2019  0.4438
   98MOL0     C13149  10.619   3.244   4.023 -0.2979 -0.1801 -0.5494
   98MOL0     C13150  10.563   3.365   3.981  0.0899  1.6038 -0.6196
   98MOL0     C13151  10.426   3.375   3.974  0.2357 -0.2375 -0.3740
   98MOL0     C13152  10.342   3.273   4.014  0.4902  0.7752 -0.0175
   98MOL0     O13153  10.210   3.300   3.997 -0.2553 -0.3317 -0.0915
   98MOL0     C13154  10.116   3.203   3.994  0.1021  0.0768 -0.4243
   98MOL0     C13155   9.982   3.253   3.969  0.2030  1.1588  0.4288
   98MOL0     C13156   9.943   3.361   4.067 -0.0816  0.4153  0.1168
   98MOL0     C13157   9.858   3.481   4.012 -0.2329 -0.1555 -0.2702
   98MOL0     C13158   9.719   3.423   3.974  0.0078 -0.5811 -0.1115
   98MOL0     C13159   9.603   3.386   3.942  0.6261  1.1616  0.7913
   98MOL0     C13160  10.401   3.155   4.071  0.0875 -0.6551 -0.0285
   98MOL0     C13161  10.541   3.135   4.058 -0.1292  0.0782 -0.5535
   98MOL0     C13162  10.584   2.995   4.096 -0.4297  0.3170 -0.2733
   98MOL0     H13163  10.974   3.338   4.221  0.6986 -0.8772  2.9929
   98MOL0     H13164  11.220   3.367   4.221 -1.6017  0.2511  0.6010
   98MOL0     H13165  11.474   3.047   4.090 -0.9188  0.9235  1.4332
   98MOL0     H13166  11.501   3.152   3.941  0.5572  0.0248  0.0477
   98MOL0     H13167  11.618   3.188   4.218  2.2894  0.6070  1.2093
   98MOL0     H13168  11.642   3.297   4.073  1.1391 -0.8156 -3.0149
   98MOL0     H13169  11.740   3.090   3.960 -0.6900 -0.0587 -0.1852
   98MOL0     H13170  11.710   3.010   4.124 -2.7013  1.9658  3.5445
   98MOL0     H13171  11.892   3.261   4.091 -1.7924 -0.6589 -4.3705
   98MOL0     H13172  11.874   3.138   4.220  1.8210 -1.6970 -0.3810
   98MOL0     H13173  11.988   2.977   4.150 -3.4475  3.0074  2.4036
   98MOL0     H13174  11.980   3.002   3.978  0.4084  0.4487 -0.2093
   98MOL0     H13175  12.098   3.209   4.006  1.2471 -1.8188 -1.4123
   98MOL0     H13176  12.123   3.186   4.176 -1.1337  3.0610 -1.1568
   98MOL0     H13177  12.232   2.944   4.073 -2.4636  1.4943  3.7761
   98MOL0     H13178  12.327   3.082   4.098  1.2792 -2.1502  0.1491
   98MOL0     H13179  12.162   3.054   3.831 -1.6774 -1.7907  2.4695
   98MOL0     H13180  12.283   3.170   3.869 -2.3604 -0.0414 -1.8462
   98MOL0     H13181  12.513   2.980   3.962 -1.3367 -1.9833  0.4390
   98MOL0     H13182  12.671   2.786   3.876  0.0002  1.1585  0.5964
   98MOL0     H13183  12.699   2.753   3.713 -1.9789 -0.7151  0.4827
   98MOL0     H13184  12.731   3.049   3.763 -3.6706 -1.0280  0.1787
   98MOL0     H13185  12.832   2.947   3.869  2.5460  4.4145 -0.7573
   98MOL0     H13186  12.944   3.011   3.651 -1.5859  1.3870 -3.1512
   98MOL0     H13187  12.816   2.925   3.565  1.1383  0.3389 -0.1881
   98MOL0     H13188  12.919   2.720   3.721 -0.6987  0.6013  2.5704
   98MOL0     H13189  13.047   2.838   3.753 -1.7419  2.6824  0.7475
   98MOL0     H13190  13.106   2.679   3.344 -0.4271 -0.7487  2.3327
   98MOL0     H13191  13.317   2.762   3.219  2.6209  0.6838  0.9483
   98MOL0     H13192  13.737   2.884   3.192 -0.5282  0.5871  0.7533
   98MOL0     H13193  13.970   2.957   3.129 -0.7096  0.5708 -0.4411
   98MOL0     H13194  14.178   2.994   3.162 -1.6354  0.1262 -0.6089
   98MOL0     H13195  14.152   3.115   3.034 -0.5274 -0.2772 -0.7149
   98MOL0     H13196  14.341   3.162   3.269  2.4308  2.4699 -0.1770
   98MOL0     H13197  14.398   3.094   3.111 -1.4705 -1.2838  0.1749
   98MOL0     H13198  14.271   3.337   3.044  1.6379  0.7981 -1.3953
   98MOL0     H13199  14.353   3.363   3.203  2.2805 -2.3052  0.8953
   98MOL0     H13200  14.480   3.400   2.976 -1.6953  1.9433  1.6975
   98MOL0     H13201  14.492   3.217   2.990  1.5346 -0.9613  1.9097
   98MOL0     H13202  14.608   3.226   3.192 -2.9951 -0.0182 -0.1748
   98MOL0     H13203  14.584   3.390   3.222 -0.1785 -0.4976 -0.4851
   98MOL0     H13204  14.729   3.442   3.000 -1.2816  0.4311  0.9118
   98MOL0     H13205  14.814   3.416   3.145  1.6495  1.1153 -2.1091
   98MOL0     H13206  14.895   3.288   2.942  0.0456 -0.6839 -1.6319
   98MOL0     H13207  14.753   3.198   2.942  1.7229 -1.3220 -1.4706
   98MOL0     H13208  14.786   3.089   3.144  0.6772 -3.9943 -2.4471
   98MOL0     H13209  14.922   3.062   3.041 -0.3315  0.8160 -0.0126
   98MOL0     H13210  13.953   3.266   3.417  1.1638  0.8132 -3.0378
   98MOL0     H13211  13.712   3.174   3.485 -1.1258 -2.7416  1.8921
   98MOL0     H13212  13.371   3.054   3.536  0.6397 -2.4787  2.5294
   98MOL0     H13213  13.175   2.964   3.648 -1.7906 -1.7739  0.2758
   98MOL0     H13214  11.266   3.024   3.961 -0.8112 -1.7110  0.2766
   98MOL0     H13215  11.021   3.005   3.956  0.3026  1.9311 -4.2751
   98MOL0     H13216  10.624   3.448   3.949 -0.1456  1.4883 -1.4118
   98MOL0     H13217  10.396   3.477   3.951  0.8429 -0.1313 -0.7343
   98MOL0     H13218  10.111   3.154   4.092 -1.0809 -0.5890 -0.7992
   98MOL0     H13219  10.148   3.133   3.915  1.8159  1.5146 -1.0688
   98MOL0     H13220   9.903   3.177   3.976  0.4385  1.0618  3.7396
   98MOL0     H13221   9.981   3.282   3.864  1.5710  0.1762  0.1186
   98MOL0     H13222  10.032   3.408   4.110 -1.6880  2.8477  0.9725
   98MOL0     H13223   9.882   3.326   4.151 -1.2133  1.0823 -0.4024
   98MOL0     H13224   9.840   3.554   4.091 -0.4265 -1.2296  0.7046
   98MOL0     H13225   9.912   3.525   3.927  1.0877 -1.0621  0.0561
   98MOL0     H13226   9.514   3.334   3.915  2.8575 -2.8080  0.3922
   98MOL0     H13227  10.334   3.083   4.118  0.0636 -0.1458  0.7454
   98MOL0     H13228  10.646   2.980   4.185  0.5249  0.5251 -0.8962
   98MOL0     H13229  10.501   2.923   4.099 -0.5584  0.4860  1.6578
   98MOL0     H13230  10.657   2.972   4.018  0.3987  0.5335  0.4192
   99MOL0     O13231   8.705   2.159  10.408 -0.0061 -0.0365 -0.4470
   99MOL0     C13232   8.621   2.236  10.372 -0.4780  0.6858 -0.6263
   99MOL0     O13233   8.641   2.352  10.295 -0.4837  0.1495 -0.1688
   99MOL0     C13234   8.772   2.376  10.256 -0.1982  0.5018 -0.2611
   99MOL0     C13235   8.788   2.403  10.118  0.3899  0.1508 -0.2484
   99MOL0     C13236   8.920   2.420  10.069  0.6128  0.1114 -0.0449
   99MOL0     C13237   9.032   2.411  10.151  0.1837 -0.0091 -0.6023
   99MOL0     O13238   9.151   2.449  10.109 -0.5835 -0.3503  0.3915
   99MOL0     C13239   9.252   2.346  10.128 -0.2068 -0.0112  0.6234
   99MOL0     C13240   9.357   2.351  10.026 -0.3211 -0.5117  0.4007
   99MOL0     C13241   9.446   2.469  10.047 -0.0038  0.2021 -0.0376
   99MOL0     C13242   9.555   2.493   9.941  0.2533  0.3880  0.6007
   99MOL0     C13243   9.696   2.528   9.993 -0.4115 -0.5985 -0.5014
   99MOL0     C13244   9.698   2.664  10.067 -0.0438  0.5752 -0.0021
   99MOL0     C13245   9.838   2.684  10.130  0.5814 -0.0075 -0.2525
   99MOL0     C13246   9.935   2.735  10.029  0.0813 -0.0347 -0.2701
   99MOL0     N13247  10.077   2.728  10.085  0.8941 -0.1176  0.4357
   99MOL0     C13248  10.149   2.617  10.117  0.1388  0.0278  0.2343
   99MOL0     C13249  10.239   2.663  10.203 -0.2264 -0.4126 -0.6785
   99MOL0     C13250  10.366   2.593  10.256  0.6392 -0.6345  0.6207
   99MOL0     C13251  10.475   2.591  10.148  0.5253  0.3292 -0.4640
   99MOL0     C13252  10.615   2.557  10.197 -0.6140  0.2072  0.5357
   99MOL0     C13253  10.716   2.571  10.080 -0.2657  0.6714 -0.3256
   99MOL0     O13254  10.838   2.533  10.130 -0.4056 -0.1263 -0.3996
   99MOL0     C13255  10.943   2.604  10.066  0.6114  0.3303 -0.5339
   99MOL0     C13256  11.052   2.627  10.142 -0.5291  0.7486  1.7833
   99MOL0     C13257  11.164   2.678  10.087 -0.4991  0.4531  0.8465
   99MOL0     C13258  11.165   2.716   9.949  0.7143 -0.6819 -0.3625
   99MOL0     C13259  11.285   2.779   9.899 -0.0358 -0.4357 -0.3985
   99MOL0     O13260  11.299   2.796   9.765 -0.7386  0.2411  0.6317
   99MOL0     C13261  11.410   2.840   9.696  0.7276  0.1367 -0.2275
   99MOL0     C13262  11.539   2.852   9.737 -0.4656  0.2415  0.3755
   99MOL0     C13263  11.637   2.907   9.653 -0.3668  0.3336  0.7915
   99MOL0     C13264  11.611   2.940   9.521  0.8105 -0.1461  0.0150
   99MOL0     O13265  11.704   2.987   9.435 -0.5137  0.3385 -1.1936
   99MOL0     C13266  11.827   3.046   9.488 -0.8157 -0.5162 -0.7465
   99MOL0     C13267  11.916   3.129   9.396 -0.2272 -0.2836 -0.6007
   99MOL0     C13268  11.899   3.081   9.250  0.1112  0.2575 -0.0323
   99MOL0     C13269  12.003   3.141   9.145  0.6226  1.1579 -0.2947
   99MOL0     C13270  12.024   3.287   9.133 -0.0457 -0.3907  0.3479
   99MOL0     C13271  11.899   3.375   9.103  0.3082 -1.1481 -0.7538
   99MOL0     C13272  11.944   3.516   9.042 -0.0152 -0.4362  1.0703
   99MOL0     C13273  11.844   3.555   8.941  1.1529 -0.4062 -0.5616
   99MOL0    Cl13274  11.868   3.453   8.790 -0.2794  0.1312 -0.0948
   99MOL0     C13275  11.474   2.938   9.486 -0.0275  0.5595  0.8898
   99MOL0     C13276  11.376   2.881   9.563  0.5881  0.0889 -0.3464
   99MOL0     O13277  11.366   2.808   9.987 -0.3013 -0.6257  0.2385
   99MOL0     C13278  11.048   2.695   9.871 -0.5742 -0.2926 -0.4866
   99MOL0     C13279  10.943   2.633   9.933  0.5081  0.0079  0.1945
   99MOL0     N13280  10.218   2.797  10.234 -0.1744  0.5226  0.5417
   99MOL0     N13281  10.137   2.834  10.146  0.6891  0.6485  0.4466
   99MOL0     C13282   9.013   2.381  10.286  0.4674 -0.5263 -0.7940
   99MOL0     C13283   8.884   2.356  10.340 -1.2019  0.6212  0.3032
   99MOL0     C13284   8.479   2.204  10.415 -0.1324 -0.4235  0.2466
   99MOL0     C13285   8.378   2.252  10.336 -0.1431 -0.6250 -0.2459
   99MOL0     C13286   8.243   2.224  10.363 -0.3726 -0.0736  0.8395
   99MOL0     C13287   8.202   2.128  10.455  0.0417 -0.5627 -0.3114
   99MOL0     O13288   8.066   2.103  10.476  0.0124 -0.1202 -0.0632
   99MOL0     C13289   8.017   2.048  10.594 -0.5454 -0.1570 -0.3256
   99MOL0     C13290   7.868   2.080  10.612 -0.1522 -0.3203 -1.0700
   99MOL0     C13291   7.786   1.966  10.540 -0.3791  0.8726  0.2608
   99MOL0     C13292   7.800   1.973  10.391 -0.5334  1.0401 -0.9401
   99MOL0     C13293   7.717   2.061  10.309 -0.0737  0.2237 -0.0119
   99MOL0     C13294   7.664   2.137  10.235 -0.2908  0.6808  0.4443
   99MOL0     C13295   8.301   2.088  10.543 -0.2220  0.1197  0.4568
   99MOL0     C13296   8.433   2.120  10.526 -0.0225  0.1851 -0.1061
   99MOL0     C13297   8.540   2.083  10.632  0.7300 -0.8874 -0.0491
   99MOL0     H13298   8.703   2.421  10.053 -0.1417 -2.7552 -0.4609
   99MOL0     H13299   8.933   2.451   9.966 -1.4610  1.8773  0.1806
   99MOL0     H13300   9.305   2.357  10.223  1.5623  0.9963 -0.4320
   99MOL0     H13301   9.201   2.249  10.130  0.3565 -0.3862 -1.4614
   99MOL0     H13302   9.313   2.352   9.926 -0.6154 -1.4468  0.5150
   99MOL0     H13303   9.416   2.259  10.028 -3.0280 -2.3315  0.6919
   99MOL0     H13304   9.487   2.471  10.149 -0.9599  1.2570  0.3373
   99MOL0     H13305   9.382   2.557  10.042 -1.2735 -0.6967 -0.0470
   99MOL0     H13306   9.550   2.401   9.882 -1.7311  1.6666 -1.3902
   99MOL0     H13307   9.529   2.579   9.879  1.6991 -0.7679 -1.7626
   99MOL0     H13308   9.730   2.446  10.057 -1.2096 -0.0625  0.6331
   99MOL0     H13309   9.759   2.524   9.903 -2.5480 -2.6830 -2.0270
   99MOL0     H13310   9.663   2.747  10.005  0.2767  1.9156  1.5493
   99MOL0     H13311   9.620   2.656  10.144 -0.8812  0.3084 -0.8507
   99MOL0     H13312   9.880   2.600  10.186  2.0938  1.6040  1.2002
   99MOL0     H13313   9.822   2.752  10.215 -1.3866 -0.3867 -0.2941
   99MOL0     H13314   9.923   2.702   9.925 -0.1216 -0.5770 -0.0764
   99MOL0     H13315   9.917   2.843  10.025  1.7949  0.7002  4.7236
   99MOL0     H13316  10.141   2.529  10.053 -0.6113  0.4914 -0.3322
   99MOL0     H13317  10.405   2.653  10.339 -4.5137  1.7490  1.7265
   99MOL0     H13318  10.340   2.494  10.295 -0.1132 -1.1666 -1.1614
   99MOL0     H13319  10.453   2.515  10.073  0.2454 -0.4512  0.3793
   99MOL0     H13320  10.482   2.691  10.105 -1.5804 -0.4603 -2.8625
   99MOL0     H13321  10.609   2.455  10.235  0.9696 -0.9309 -1.9541
   99MOL0     H13322  10.656   2.623  10.274 -0.2393 -0.7612  1.1784
   99MOL0     H13323  10.714   2.676  10.049 -0.5725  1.2346  1.5226
   99MOL0     H13324  10.695   2.500   9.999 -0.7905 -3.3331  2.9656
   99MOL0     H13325  11.054   2.594  10.245 -1.9561 -4.8559  0.3723
   99MOL0     H13326  11.256   2.684  10.144 -0.2533 -1.2449  0.6832
   99MOL0     H13327  11.561   2.815   9.836  0.7216 -1.0485 -0.3523
   99MOL0     H13328  11.738   2.912   9.692 -1.2377  2.1301  3.0143
   99MOL0     H13329  11.811   3.121   9.566  1.7920 -1.3369  0.6784
   99MOL0     H13330  11.887   2.965   9.530 -2.2321 -0.9206  0.5982
   99MOL0     H13331  11.894   3.236   9.401 -0.6856 -0.4229  0.7615
   99MOL0     H13332  12.020   3.110   9.426 -0.1544  0.2467 -0.5125
   99MOL0     H13333  11.892   2.972   9.244  0.0987  0.2590 -0.0523
   99MOL0     H13334  11.800   3.109   9.215  0.8416 -2.2750 -4.9389
   99MOL0     H13335  11.987   3.096   9.047 -0.0507  0.1126  0.2734
   99MOL0     H13336  12.101   3.112   9.184  0.2451  1.6928  1.1479
   99MOL0     H13337  12.098   3.297   9.054 -0.9722 -0.2637 -0.5206
   99MOL0     H13338  12.063   3.325   9.228 -1.1386 -2.2376  1.6376
   99MOL0     H13339  11.833   3.323   9.032  3.1254  0.2319 -4.7442
   99MOL0     H13340  11.840   3.384   9.195 -0.1173 -4.3573 -0.6211
   99MOL0     H13341  12.047   3.524   9.006 -0.1291  2.5982  1.1682
   99MOL0     H13342  11.935   3.594   9.118  1.2344  0.4973  0.2934
   99MOL0     H13343  11.739   3.544   8.972  0.6265  0.4982 -1.9692
   99MOL0     H13344  11.859   3.662   8.925  3.2409 -0.7648 -1.3839
   99MOL0     H13345  11.449   2.969   9.385 -0.9369 -1.1060  0.5802
   99MOL0     H13346  11.273   2.873   9.530  0.5820  1.1876 -0.6153
   99MOL0     H13347  11.057   2.716   9.765  0.5192 -2.9414 -0.9945
   99MOL0     H13348  10.861   2.617   9.864  0.2339  0.9525  0.2874
   99MOL0     H13349   9.098   2.360  10.351 -1.3305  0.9053  2.2438
   99MOL0     H13350   8.862   2.331  10.443  2.2630  1.5834  1.4098
   99MOL0     H13351   8.403   2.322  10.257 -1.5235  0.7034  0.4433
   99MOL0     H13352   8.174   2.277  10.298 -0.0471 -0.6273  0.0374
   99MOL0     H13353   8.069   2.084  10.684 -1.2897 -0.4574  0.2367
   99MOL0     H13354   8.036   1.941  10.585 -0.4077 -0.1480 -0.1613
   99MOL0     H13355   7.842   2.180  10.573  2.1968  0.1058 -1.6725
   99MOL0     H13356   7.839   2.086  10.717 -2.6816  3.2957 -1.7686
   99MOL0     H13357   7.679   1.981  10.555 -0.7202  0.0036 -1.1315
   99MOL0     H13358   7.813   1.865  10.574  0.6123  0.3234 -1.9802
   99MOL0     H13359   7.903   1.970  10.355 -0.0066 -2.4852  0.4640
   99MOL0     H13360   7.763   1.878  10.350 -0.4145  0.6263 -0.1213
   99MOL0     H13361   7.631   2.207  10.160  0.5144 -1.3485 -1.9511
   99MOL0     H13362   8.267   2.021  10.621 -1.8783 -1.3350 -1.4236
   99MOL0     H13363   8.604   2.171  10.643 -1.2956  0.4055  2.1180
   99MOL0     H13364   8.507   2.057  10.733 -1.5786  2.2021  0.1054
   99MOL0     H13365   8.607   2.001  10.602  0.3235 -2.2451  2.4339
  100MOL0     O13366   2.687   7.693   8.271 -0.6985  0.4024  0.2180
  100MOL0     C13367   2.721   7.808   8.296 -0.0917  0.7191  0.1956
  100MOL0     O13368   2.840   7.865   8.274  0.0008 -0.2393  0.0602
  100MOL0     C13369   2.958   7.813   8.220 -0.7344  0.2775 -1.1046
  100MOL0     C13370   3.066   7.902   8.207 -0.4183  0.0243 -1.1728
  100MOL0     C13371   3.195   7.856   8.172 -0.1515 -0.6968 -0.7750
  100MOL0     C13372   3.220   7.721   8.141  0.4516  0.7435 -0.3522
  100MOL0     O13373   3.348   7.695   8.093  0.7388 -0.0163 -0.8921
  100MOL0     C13374   3.354   7.600   7.988  0.3011 -0.2775 -0.1341
  100MOL0     C13375   3.494   7.559   7.939 -0.4015 -1.0674 -0.0051
  100MOL0     C13376   3.568   7.679   7.875 -1.0208 -0.3768  0.5280
  100MOL0     C13377   3.702   7.636   7.820  0.3592  0.1033  0.2698
  100MOL0     C13378   3.780   7.747   7.752 -0.0241  0.1290 -0.0721
  100MOL0     C13379   3.902   7.698   7.677 -0.1599 -0.3970 -0.0366
  100MOL0     C13380   3.955   7.804   7.579  0.0322 -0.4271 -0.5980
  100MOL0     C13381   4.074   7.751   7.494  0.4414  0.5423 -0.2917
  100MOL0     N13382   4.080   7.799   7.356 -1.2152 -0.9550  0.1601
  100MOL0     C13383   4.123   7.928   7.313 -0.6610 -0.6333 -0.0807
  100MOL0     C13384   4.074   7.936   7.185 -1.2686 -0.3252 -0.9895
  100MOL0     C13385   4.083   8.046   7.083  0.1738  0.5499  0.8709
  100MOL0     C13386   4.221   8.043   7.007 -0.1537  0.0074 -0.4979
  100MOL0     C13387   4.349   8.068   7.091  0.4044 -0.0121 -0.0499
  100MOL0     C13388   4.484   8.085   7.008  0.5100  0.1794  0.3076
  100MOL0     O13389   4.467   8.202   6.918  0.6505  0.2308  0.9433
  100MOL0     C13390   4.565   8.226   6.826  0.1368  0.4334  0.3510
  100MOL0     C13391   4.579   8.354   6.771  0.1640 -0.5403 -0.5255
  100MOL0     C13392   4.659   8.373   6.658  1.2422  0.3687  0.3667
  100MOL0     C13393   4.745   8.272   6.609  0.5609 -0.9897  0.2145
  100MOL0     C13394   4.841   8.294   6.508  0.0913 -1.1884  0.4261
  100MOL0     O13395   4.851   8.434   6.470 -0.2954  0.3754 -0.0431
  100MOL0     C13396   4.928   8.484   6.365 -0.5479  0.2661  0.5315
  100MOL0     C13397   5.008   8.396   6.286  0.1166  0.1296  0.8362
  100MOL0     C13398   5.088   8.449   6.179  0.6412 -1.2739  0.3414
  100MOL0     C13399   5.096   8.590   6.158  0.0562 -0.1161 -0.8184
  100MOL0     O13400   5.183   8.654   6.074 -0.0863  0.2121 -0.6948
  100MOL0     C13401   5.260   8.582   5.984  0.1016 -0.7397 -0.1484
  100MOL0     C13402   5.349   8.679   5.908 -0.7878  0.0262 -0.6681
  100MOL0     C13403   5.478   8.712   5.997 -0.2452  1.1021 -0.0251
  100MOL0     C13404   5.559   8.784   5.901 -0.1847  0.3695  0.2517
  100MOL0     C13405   5.716   8.782   5.943 -0.5229  0.6114 -0.4561
  100MOL0     C13406   5.800   8.826   5.833 -0.6153 -0.2440 -0.3007
  100MOL0     C13407   5.949   8.832   5.878 -0.3456  0.0747  0.3448
  100MOL0     C13408   6.036   8.840   5.758  0.4710 -0.2517  0.3609
  100MOL0    Cl13409   6.205   8.811   5.804 -0.3635 -0.2176 -0.0561
  100MOL0     C13410   5.019   8.674   6.247  0.5193 -0.5465  0.4634
  100MOL0     C13411   4.933   8.617   6.341  0.4204 -0.1045  0.1446
  100MOL0     O13412   4.907   8.192   6.468 -0.0378  0.2742  0.0343
  100MOL0     C13413   4.743   8.154   6.671 -0.1044 -0.5497  0.0893
  100MOL0     C13414   4.654   8.131   6.775  0.4273  0.1175 -0.6479
  100MOL0     N13415   4.012   7.819   7.155  0.8425  0.8197  0.3066
  100MOL0     N13416   4.018   7.739   7.253  0.9995 -0.3955 -0.4870
  100MOL0     C13417   3.109   7.634   8.137  0.4185  0.2934  0.3977
  100MOL0     C13418   2.980   7.680   8.182  0.0449  0.6989  0.0564
  100MOL0     C13419   2.617   7.885   8.367  0.0990  0.5647 -0.1003
  100MOL0     C13420   2.550   7.985   8.297  0.0378  0.4662 -0.2457
  100MOL0     C13421   2.452   8.063   8.356  0.0380  0.2584 -0.0637
  100MOL0     C13422   2.418   8.038   8.490  0.2064  0.0226 -0.4777
  100MOL0     O13423   2.321   8.101   8.563 -0.3663 -1.0040 -0.3053
  100MOL0     C13424   2.233   8.191   8.490 -0.3011  0.5527 -0.8099
  100MOL0     C13425   2.116   8.225   8.576  0.9413 -0.7993 -0.0368
  100MOL0     C13426   2.160   8.311   8.697  0.0955  0.2945 -0.5272
  100MOL0     C13427   2.088   8.441   8.711 -0.4440 -0.1105 -0.4075
  100MOL0     C13428   1.945   8.411   8.738  1.0146 -0.2101 -0.6693
  100MOL0     C13429   1.831   8.371   8.724  0.4205  0.1405 -0.7295
  100MOL0     C13430   2.475   7.932   8.556  0.3021  0.3275 -0.3141
  100MOL0     C13431   2.571   7.854   8.498 -1.0598  0.2710  0.6140
  100MOL0     C13432   2.625   7.729   8.568 -0.2316 -0.2311  0.3268
  100MOL0     H13433   3.053   8.004   8.242 -0.1350 -0.3103 -0.0357
  100MOL0     H13434   3.275   7.928   8.186  0.7730 -1.6341 -1.0965
  100MOL0     H13435   3.316   7.505   8.027  0.9409 -1.7205 -2.7991
  100MOL0     H13436   3.298   7.640   7.903  0.8720  1.9759  0.4618
  100MOL0     H13437   3.471   7.474   7.874 -0.4777  0.5945 -2.2574
  100MOL0     H13438   3.550   7.528   8.028  1.3875  1.6424 -0.0649
  100MOL0     H13439   3.574   7.750   7.959 -1.0188 -0.7484  0.8442
  100MOL0     H13440   3.498   7.717   7.801  0.8981  1.4776 -0.4674
  100MOL0     H13441   3.775   7.593   7.888  1.1734  0.0669 -0.6086
  100MOL0     H13442   3.684   7.558   7.745  3.2931 -2.1653  1.7301
  100MOL0     H13443   3.707   7.801   7.691  1.2145  0.1417 -1.5955
  100MOL0     H13444   3.819   7.817   7.827  0.0509 -0.6349  0.6206
  100MOL0     H13445   3.983   7.675   7.747  0.5245  1.0569 -0.3010
  100MOL0     H13446   3.892   7.603   7.624  2.1212 -0.3708 -0.6234
  100MOL0     H13447   3.977   7.895   7.635  0.6934 -0.2282 -1.1587
  100MOL0     H13448   3.873   7.826   7.509 -0.5387 -0.7835 -0.0480
  100MOL0     H13449   4.163   7.789   7.544 -1.8399  2.2932  2.7684
  100MOL0     H13450   4.067   7.642   7.483 -3.5127  0.5740  0.5121
  100MOL0     H13451   4.183   8.006   7.360  0.4328  0.3645 -2.8907
  100MOL0     H13452   3.996   8.028   7.019  1.5337 -0.7227 -0.7179
  100MOL0     H13453   4.074   8.140   7.137 -0.5579  1.1352 -0.2421
  100MOL0     H13454   4.237   7.947   6.956  2.2008  0.6988 -1.2037
  100MOL0     H13455   4.206   8.119   6.929 -1.4850 -0.0121 -0.2740
  100MOL0     H13456   4.358   7.991   7.168 -0.3826  1.3359  1.4596
  100MOL0     H13457   4.314   8.150   7.154 -1.9554 -1.1752  0.2645
  100MOL0     H13458   4.474   8.000   6.940  0.4765  0.3834  0.0559
  100MOL0     H13459   4.575   8.081   7.069  0.3866  3.1996  0.8392
  100MOL0     H13460   4.523   8.435   6.818 -0.7140 -0.3919 -1.7675
  100MOL0     H13461   4.656   8.466   6.602 -0.5852  0.1498  0.0546
  100MOL0     H13462   5.003   8.288   6.290  1.0896  0.0542  0.4412
  100MOL0     H13463   5.144   8.380   6.118  0.6982 -0.2644 -0.7943
  100MOL0     H13464   5.319   8.499   6.024 -1.3571 -1.0110  1.6122
  100MOL0     H13465   5.196   8.535   5.908 -0.1471 -0.5939 -0.0312
  100MOL0     H13466   5.383   8.627   5.818  2.3738 -1.6883  1.3133
  100MOL0     H13467   5.293   8.768   5.877  0.6553  1.0815 -0.3712
  100MOL0     H13468   5.452   8.783   6.076  1.2327 -0.2207  1.7435
  100MOL0     H13469   5.523   8.619   6.033  0.9102  1.4445 -0.5168
  100MOL0     H13470   5.527   8.888   5.898  1.1615  0.8848  1.9985
  100MOL0     H13471   5.541   8.735   5.805 -0.4336 -0.0251  0.4965
  100MOL0     H13472   5.745   8.681   5.972  2.7146  1.5292 -0.1009
  100MOL0     H13473   5.729   8.841   6.035 -1.0031  0.6342 -0.3996
  100MOL0     H13474   5.775   8.773   5.740 -0.4951 -1.9782  0.6118
  100MOL0     H13475   5.766   8.929   5.816  1.1622  0.1536 -1.7399
  100MOL0     H13476   5.988   8.754   5.944 -1.5509 -1.0583 -0.2568
  100MOL0     H13477   5.968   8.927   5.930  0.7387  0.0213  0.0671
  100MOL0     H13478   6.000   8.769   5.683 -0.8772 -0.1240  0.8530
  100MOL0     H13479   6.021   8.936   5.708  0.2029 -0.6425 -0.3274
  100MOL0     H13480   5.030   8.782   6.234 -0.3142 -0.7451 -2.4507
  100MOL0     H13481   4.872   8.682   6.403 -0.4885 -0.3457 -0.4754
  100MOL0     H13482   4.813   8.072   6.654 -1.3031 -1.8092  1.0572
  100MOL0     H13483   4.667   8.031   6.813  1.5638 -0.4205 -2.3379
  100MOL0     H13484   3.122   7.532   8.102  3.0572 -0.4712  3.1994
  100MOL0     H13485   2.904   7.603   8.177  0.0536  0.6038  1.0586
  100MOL0     H13486   2.584   8.013   8.199 -0.2121  0.2549 -0.3959
  100MOL0     H13487   2.403   8.132   8.288  2.3011  0.2788 -1.7615
  100MOL0     H13488   2.193   8.133   8.407  0.0024  1.2580 -1.4702
  100MOL0     H13489   2.278   8.279   8.442  0.1655  0.2519 -0.9203
  100MOL0     H13490   2.066   8.130   8.600  2.8365 -2.0433 -0.8133
  100MOL0     H13491   2.044   8.284   8.520  0.6129  0.2659  1.4363
  100MOL0     H13492   2.268   8.319   8.684  0.6282 -3.0491  0.7915
  100MOL0     H13493   2.143   8.260   8.793 -0.3141  2.6744  0.7252
  100MOL0     H13494   2.119   8.499   8.799 -1.5566 -1.4600  0.9329
  100MOL0     H13495   2.103   8.490   8.615  2.2855 -1.5152 -0.7860
  100MOL0     H13496   1.740   8.314   8.726 -0.9892  2.3045  0.8471
  100MOL0     H13497   2.437   7.904   8.654  1.4202 -1.8162 -0.4391
  100MOL0     H13498   2.599   7.644   8.504  0.1311 -2.2460  2.6960
  100MOL0     H13499   2.734   7.731   8.575 -0.1745  2.7740 -0.1195
  100MOL0     H13500   2.575   7.704   8.662 -0.2626 -0.1468  0.3330
  101MOL0     O13501   6.477   4.298   8.511 -0.5055  0.0080  0.1001
  101MOL0     C13502   6.463   4.178   8.542 -0.8363  0.0998  0.6083
  101MOL0     O13503   6.548   4.117   8.631  0.1817 -0.0877  0.2125
  101MOL0     C13504   6.660   4.184   8.682  0.6082  0.1983 -0.4562
  101MOL0     C13505   6.658   4.291   8.775  0.4842 -0.0880  0.3031
  101MOL0     C13506   6.787   4.344   8.823  0.4302  0.1778 -0.8439
  101MOL0     C13507   6.908   4.280   8.786  0.0734 -0.4313 -0.9483
  101MOL0     O13508   7.035   4.312   8.824 -0.1139 -0.4621 -0.0631
  101MOL0     C13509   7.046   4.361   8.960 -0.1844  0.4049  0.6071
  101MOL0     C13510   7.180   4.332   9.019 -0.3430  0.6837  0.0843
  101MOL0     C13511   7.301   4.395   8.958 -0.0468  0.3436  0.7108
  101MOL0     C13512   7.423   4.313   9.007  0.0312  0.8743  0.5119
  101MOL0     C13513   7.551   4.375   8.964 -0.9897 -0.2597 -0.0510
  101MOL0     C13514   7.673   4.324   9.030 -0.8123  0.1270  0.1175
  101MOL0     C13515   7.799   4.416   9.015 -0.3689 -0.6274  0.1123
  101MOL0     C13516   7.784   4.545   9.103  0.4918  0.2423 -0.1176
  101MOL0     N13517   7.916   4.611   9.118  0.0235  0.2946  0.3089
  101MOL0     C13518   7.939   4.705   9.214  1.0326  0.5695 -0.2155
  101MOL0     C13519   8.055   4.766   9.178 -0.0731 -0.0700  0.1307
  101MOL0     C13520   8.119   4.883   9.246  0.2529 -0.2170 -0.0114
  101MOL0     C13521   8.045   5.008   9.198  0.3174  0.1901 -0.7162
  101MOL0     C13522   8.123   5.136   9.231  0.9103  0.4672 -0.1710
  101MOL0     C13523   8.098   5.199   9.365  0.8849  0.2095  0.6418
  101MOL0     O13524   7.956   5.229   9.379 -0.1472 -0.9471  0.1007
  101MOL0     C13525   7.894   5.317   9.291 -0.6262  0.3187  0.0830
  101MOL0     C13526   7.758   5.305   9.301 -0.5536  0.3062  0.0547
  101MOL0     C13527   7.677   5.390   9.217  1.2123 -0.0832  0.2285
  101MOL0     C13528   7.730   5.480   9.116 -0.2657  0.8358  0.6766
  101MOL0     C13529   7.650   5.570   9.031 -0.3166 -0.0736 -0.9889
  101MOL0     O13530   7.516   5.554   9.065 -0.1034 -0.2670 -0.2212
  101MOL0     C13531   7.426   5.584   8.961  0.2934  0.3376  0.9273
  101MOL0     C13532   7.381   5.479   8.888 -0.1983  0.0330 -0.3615
  101MOL0     C13533   7.302   5.492   8.778  0.7356 -0.3512  0.2905
  101MOL0     C13534   7.247   5.614   8.752  0.1024  0.4092  0.5761
  101MOL0     O13535   7.158   5.613   8.646  0.5583 -0.2224 -0.0174
  101MOL0     C13536   7.060   5.713   8.634 -0.1631 -0.5705 -0.6849
  101MOL0     C13537   6.955   5.678   8.531 -0.0387 -1.1552  0.4811
  101MOL0     C13538   6.870   5.792   8.484  0.4673  0.6027 -0.3077
  101MOL0     C13539   6.800   5.757   8.344  1.0033 -0.1917  0.0061
  101MOL0     C13540   6.702   5.634   8.353  0.0874  0.4664 -0.2697
  101MOL0     C13541   6.579   5.675   8.431  0.2279  0.5307  0.1389
  101MOL0     C13542   6.457   5.591   8.403  0.5217  0.6295  0.0913
  101MOL0     C13543   6.330   5.665   8.403 -0.0515 -0.1571 -0.3604
  101MOL0    Cl13544   6.331   5.823   8.329 -0.2932 -0.0882  0.0562
  101MOL0     C13545   7.289   5.725   8.821  0.2016 -0.2759  0.1934
  101MOL0     C13546   7.381   5.713   8.926 -0.5787 -0.8095 -0.2763
  101MOL0     O13547   7.696   5.620   8.932  0.6228  0.1498  0.1750
  101MOL0     C13548   7.872   5.475   9.099  0.6691  0.5603  0.3381
  101MOL0     C13549   7.948   5.401   9.194  0.0286  0.6226 -0.1943
  101MOL0     N13550   8.090   4.716   9.050  0.7801 -0.5995  0.3963
  101MOL0     N13551   8.008   4.625   9.020 -0.1605 -0.3950 -0.2389
  101MOL0     C13552   6.894   4.172   8.696  0.3861 -0.9250 -0.0570
  101MOL0     C13553   6.777   4.131   8.645 -0.3212 -0.6299  0.0676
  101MOL0     C13554   6.355   4.102   8.478 -0.1380  0.2399  0.0771
  101MOL0     C13555   6.316   3.974   8.527 -0.1638  0.2450 -0.2021
  101MOL0     C13556   6.208   3.899   8.487 -0.4151 -0.8624  0.1768
  101MOL0     C13557   6.138   3.945   8.371  1.1281 -0.1706 -0.4205
  101MOL0     O13558   6.040   3.878   8.299  0.0192 -0.0713 -0.2395
  101MOL0     C13559   5.997   3.759   8.361  0.2112  0.3802 -1.0308
  101MOL0     C13560   5.863   3.729   8.303  0.4260  0.2507  0.4260
  101MOL0     C13561   5.880   3.710   8.152 -0.1666  0.9877  0.3490
  101MOL0     C13562   5.763   3.626   8.103  0.3965  0.1385 -0.0235
  101MOL0     C13563   5.770   3.633   7.957  0.2994  0.6214  0.6055
  101MOL0     C13564   5.784   3.644   7.836  0.7959 -0.3683  0.3083
  101MOL0     C13565   6.186   4.059   8.304 -0.5378 -0.1384  0.0270
  101MOL0     C13566   6.279   4.145   8.363  0.5506  0.2079  0.8977
  101MOL0     C13567   6.288   4.283   8.308 -0.6066 -0.0474  0.2890
  101MOL0     H13568   6.574   4.345   8.818 -1.3341 -1.3533 -1.4696
  101MOL0     H13569   6.789   4.433   8.885 -1.3285 -0.3968  0.0842
  101MOL0     H13570   7.029   4.469   8.960  1.7062  0.7526  1.9171
  101MOL0     H13571   6.974   4.309   9.024  0.4558  0.7613  1.6385
  101MOL0     H13572   7.182   4.223   9.016  1.4931  0.7143 -2.1612
  101MOL0     H13573   7.176   4.344   9.128 -1.5260 -3.3716  0.6688
  101MOL0     H13574   7.313   4.494   9.004 -3.3957  0.6346  1.2075
  101MOL0     H13575   7.280   4.396   8.851 -3.1373  0.2338  1.2373
  101MOL0     H13576   7.411   4.310   9.115  0.4402 -1.7947  0.5439
  101MOL0     H13577   7.423   4.212   8.965  0.5650 -0.0089  2.5164
  101MOL0     H13578   7.559   4.362   8.856 -2.1482 -1.3131 -0.0302
  101MOL0     H13579   7.547   4.482   8.986  2.7198 -0.1130  0.4475
  101MOL0     H13580   7.668   4.300   9.137  1.7241 -1.3493 -0.0193
  101MOL0     H13581   7.707   4.234   8.977  2.2899  0.5473  1.2178
  101MOL0     H13582   7.824   4.447   8.913  2.5352  2.5630  1.6039
  101MOL0     H13583   7.877   4.348   9.047 -2.1136 -2.1752  1.2929
  101MOL0     H13584   7.716   4.617   9.057 -0.1088  0.6563  1.3687
  101MOL0     H13585   7.743   4.524   9.202  0.1492  0.6399 -0.1747
  101MOL0     H13586   7.871   4.723   9.297 -0.6043  2.4121 -1.8424
  101MOL0     H13587   8.112   4.863   9.354 -1.0948 -0.9551 -0.2090
  101MOL0     H13588   8.221   4.899   9.211  0.0280 -0.9634 -1.0613
  101MOL0     H13589   8.032   5.007   9.090 -0.3661  2.2965 -0.6977
  101MOL0     H13590   7.946   5.019   9.244  0.5690  0.4387 -0.2244
  101MOL0     H13591   8.120   5.200   9.142  1.3015 -1.1977 -1.4185
  101MOL0     H13592   8.228   5.107   9.241  0.3620 -1.2806  0.7868
  101MOL0     H13593   8.135   5.302   9.376 -1.6094  0.9849  2.9164
  101MOL0     H13594   8.135   5.138   9.448  0.5188 -1.3697 -0.3052
  101MOL0     H13595   7.709   5.236   9.370  0.3968  0.6081  1.0553
  101MOL0     H13596   7.569   5.381   9.222  1.1895  0.2581  0.3501
  101MOL0     H13597   7.418   5.381   8.917 -2.0499 -0.1061  1.8961
  101MOL0     H13598   7.271   5.398   8.733 -4.4757  1.5649 -0.8984
  101MOL0     H13599   7.016   5.746   8.729  0.2895 -0.0992 -0.6330
  101MOL0     H13600   7.103   5.803   8.590 -1.0626 -0.2040 -0.8285
  101MOL0     H13601   7.009   5.616   8.458  0.8250  0.2566 -0.1313
  101MOL0     H13602   6.885   5.609   8.578 -0.8871 -0.9989 -0.5177
  101MOL0     H13603   6.801   5.814   8.566  2.1783  4.2337  0.3390
  101MOL0     H13604   6.912   5.892   8.468  1.9549 -0.1926 -1.6418
  101MOL0     H13605   6.884   5.742   8.276 -0.2690 -1.2425 -1.3959
  101MOL0     H13606   6.753   5.849   8.307  1.0008  0.7421  2.1373
  101MOL0     H13607   6.743   5.546   8.403 -1.8474  0.1019  0.7937
  101MOL0     H13608   6.669   5.605   8.253 -0.9624 -3.1725  0.9750
  101MOL0     H13609   6.605   5.675   8.537  0.6515  0.0450  0.0442
  101MOL0     H13610   6.559   5.780   8.409 -1.0322  0.1326 -0.7053
  101MOL0     H13611   6.454   5.517   8.483  2.0335  1.3422  0.8650
  101MOL0     H13612   6.475   5.541   8.308 -1.5918  3.5003 -2.0039
  101MOL0     H13613   6.249   5.608   8.357  0.7375 -2.5864  1.0692
  101MOL0     H13614   6.313   5.676   8.510 -1.1554  0.7825 -0.6236
  101MOL0     H13615   7.256   5.823   8.789  0.0946 -1.5048 -4.0298
  101MOL0     H13616   7.406   5.796   8.991  2.0164  0.3742 -2.5559
  101MOL0     H13617   7.919   5.538   9.025  0.7640  1.6430  1.2975
  101MOL0     H13618   8.055   5.411   9.180  0.4063 -1.1967  1.0869
  101MOL0     H13619   6.983   4.134   8.648  1.1817  1.2885 -0.4877
  101MOL0     H13620   6.776   4.045   8.578 -1.3973 -1.7955  1.5351
  101MOL0     H13621   6.374   3.918   8.600  0.9584  1.8468  0.2044
  101MOL0     H13622   6.181   3.813   8.548  0.3330 -1.0819  0.2066
  101MOL0     H13623   5.994   3.762   8.471 -0.2461 -0.8727 -0.9997
  101MOL0     H13624   6.069   3.680   8.341  1.9528  1.6054  0.0314
  101MOL0     H13625   5.793   3.811   8.321  0.0930  0.0322  0.1389
  101MOL0     H13626   5.812   3.646   8.355 -0.9668  1.9416  1.9173
  101MOL0     H13627   5.971   3.651   8.135 -1.4945 -1.1625  0.3378
  101MOL0     H13628   5.876   3.805   8.098 -2.6482 -0.7436 -2.8586
  101MOL0     H13629   5.766   3.522   8.138 -0.9786  0.2426  0.5056
  101MOL0     H13630   5.670   3.675   8.136 -0.4157 -0.3334 -1.5180
  101MOL0     H13631   5.807   3.648   7.732 -2.0044 -1.9873 -0.4970
  101MOL0     H13632   6.141   4.090   8.210  1.4034  0.9382 -0.5916
  101MOL0     H13633   6.209   4.286   8.232  0.9354  0.7671 -1.3421
  101MOL0     H13634   6.251   4.355   8.382 -0.9654  1.2667 -1.1249
  101MOL0     H13635   6.390   4.301   8.273 -0.1883 -1.0299  0.9610
  102MOL0     O13636   1.349   8.836  10.143 -0.4741  0.1137  0.1345
  102MOL0     C13637   1.296   8.801  10.039  0.1515  0.4466  0.3026
  102MOL0     O13638   1.351   8.766   9.920 -0.6444 -0.0842  0.4710
  102MOL0     C13639   1.489   8.764   9.925  0.3408 -0.4270  0.1309
  102MOL0     C13640   1.566   8.695  10.018  0.4381  0.7876 -0.2213
  102MOL0     C13641   1.702   8.671   9.997  0.4461 -0.4154 -0.4020
  102MOL0     C13642   1.774   8.739   9.897 -0.1210 -0.3721  0.2298
  102MOL0     O13643   1.915   8.730   9.883  0.3469 -0.0257 -0.1215
  102MOL0     C13644   1.990   8.794   9.775  0.2957  0.6745  0.4929
  102MOL0     C13645   2.145   8.759   9.786  1.2111 -0.4099 -0.0034
  102MOL0     C13646   2.168   8.755   9.942 -0.5879 -0.2147  0.4817
  102MOL0     C13647   2.317   8.767   9.981 -0.8007 -0.2924  0.3904
  102MOL0     C13648   2.368   8.710  10.113 -0.4611 -0.5439  0.0667
  102MOL0     C13649   2.286   8.760  10.240 -0.4331  1.2432  0.2007
  102MOL0     C13650   2.263   8.903  10.260  0.2851  0.9755  0.3784
  102MOL0     C13651   2.385   8.985  10.296  0.6649  0.2383  0.6441
  102MOL0     N13652   2.488   8.941  10.392  0.6396 -0.9325 -0.4136
  102MOL0     C13653   2.443   8.909  10.518 -0.5924  0.2171 -0.0394
  102MOL0     C13654   2.561   8.869  10.580 -0.5405 -0.3119  0.1546
  102MOL0     C13655   2.560   8.834  10.726  0.5934 -0.1724 -0.2860
  102MOL0     C13656   2.521   8.954  10.821  0.1377 -0.4113  0.1888
  102MOL0     C13657   2.602   9.084  10.784  0.0269  0.1556 -0.1044
  102MOL0     C13658   2.603   9.175  10.898 -0.1416 -0.1423 -0.2937
  102MOL0     O13659   2.614   9.305  10.846 -0.7381 -0.1978 -0.5860
  102MOL0     C13660   2.740   9.356  10.816 -0.3472 -0.0570  0.0353
  102MOL0     C13661   2.855   9.272  10.820  0.8720 -0.1048  0.2708
  102MOL0     C13662   2.983   9.314  10.788 -0.7091 -0.2165 -0.1777
  102MOL0     C13663   3.000   9.444  10.728  0.1924  0.5023 -0.5062
  102MOL0     C13664   3.142   9.482  10.683  0.2280 -0.0106 -0.9568
  102MOL0     O13665   3.249   9.409  10.711 -0.2455  0.3405  0.0051
  102MOL0     C13666   3.363   9.431  10.640 -0.3147  0.3011  0.8817
  102MOL0     C13667   3.399   9.353  10.531  0.6322 -0.3039 -0.6084
  102MOL0     C13668   3.516   9.360  10.460 -0.0042 -0.7875  0.6318
  102MOL0     C13669   3.617   9.447  10.520 -0.1800 -0.5041  0.8570
  102MOL0     O13670   3.745   9.469  10.471 -0.6108 -0.0896 -1.0707
  102MOL0     C13671   3.758   9.465  10.332  0.2160 -0.5098 -0.2751
  102MOL0     C13672   3.900   9.507  10.294 -0.6929 -0.0602 -0.6548
  102MOL0     C13673   3.911   9.656  10.348 -0.5182  0.4771  0.7664
  102MOL0     C13674   4.051   9.693  10.292 -0.3328  1.1840 -0.0772
  102MOL0     C13675   4.076   9.841  10.285 -0.4714 -0.1501  0.0801
  102MOL0     C13676   4.057   9.899  10.424 -0.3370  0.1473  0.8950
  102MOL0     C13677   4.117  10.033  10.444 -0.1327 -0.9661 -0.1360
  102MOL0     C13678   4.076  10.136  10.339 -0.2409 -0.2260 -0.4154
  102MOL0    Cl13679   3.895  10.172  10.325  0.7387 -0.4691 -0.4316
  102MOL0     C13680   3.579   9.530  10.626  0.5629  0.2127  0.0306
  102MOL0     C13681   3.455   9.519  10.682  1.1992 -0.6738  0.4461
  102MOL0     O13682   3.136   9.567  10.602 -0.0098 -0.1685 -0.9020
  102MOL0     C13683   2.884   9.525  10.714 -0.3970 -0.6997 -0.6020
  102MOL0     C13684   2.759   9.484  10.766  0.0357  0.6422 -0.0062
  102MOL0     N13685   2.670   8.890  10.497  0.1118 -0.2299  0.0487
  102MOL0     N13686   2.622   8.925  10.382 -0.3066 -0.3363 -0.5838
  102MOL0     C13687   1.701   8.826   9.814 -0.7743  0.1045  0.3891
  102MOL0     C13688   1.562   8.833   9.824 -0.4568 -0.1828 -0.0385
  102MOL0     C13689   1.146   8.795  10.038 -0.7129  0.5410  0.2166
  102MOL0     C13690   1.075   8.849   9.928  0.1998 -0.0844  0.6085
  102MOL0     C13691   0.938   8.839   9.926  0.7951  0.2241 -0.7541
  102MOL0     C13692   0.869   8.771  10.027 -0.1435 -0.5587 -0.4153
  102MOL0     O13693   0.734   8.783  10.023  0.7035  0.2452  0.2481
  102MOL0     C13694   0.655   8.659  10.037 -1.0857  0.2432 -0.6279
  102MOL0     C13695   0.583   8.618   9.902  0.9163  0.3082  0.3368
  102MOL0     C13696   0.670   8.551   9.790 -0.0972 -0.3399  0.3183
  102MOL0     C13697   0.659   8.409   9.814 -0.1729  0.3328  0.0892
  102MOL0     C13698   0.522   8.361   9.792 -0.0613 -1.1040  0.3166
  102MOL0     C13699   0.409   8.346   9.769 -0.2195 -0.2421  0.4952
  102MOL0     C13700   0.940   8.723  10.141  0.0817 -0.0828  0.6989
  102MOL0     C13701   1.077   8.733  10.145 -0.1742 -0.5824 -1.0526
  102MOL0     C13702   1.138   8.673  10.271 -0.4485  0.6996  0.7374
  102MOL0     H13703   1.513   8.637  10.092 -0.1203  1.2753 -0.2310
  102MOL0     H13704   1.767   8.612  10.061  0.6464  3.0853  2.9581
  102MOL0     H13705   1.958   8.756   9.678  1.9895 -0.9956  0.5344
  102MOL0     H13706   1.976   8.902   9.776 -1.0896  0.5449 -1.1257
  102MOL0     H13707   2.197   8.839   9.732 -1.7320  2.4769  1.1530
  102MOL0     H13708   2.178   8.665   9.741  1.5116 -1.2302  1.8280
  102MOL0     H13709   2.136   8.657   9.977  0.2842 -0.1762  1.4046
  102MOL0     H13710   2.116   8.843   9.983 -0.1657  0.3246 -0.1150
  102MOL0     H13711   2.371   8.711   9.904  0.3521  0.6459  0.4802
  102MOL0     H13712   2.351   8.871   9.974  0.3717 -0.6095  1.1193
  102MOL0     H13713   2.370   8.601  10.111  4.0535 -0.6749  0.0238
  102MOL0     H13714   2.473   8.739  10.121  0.2927 -1.8921 -3.1684
  102MOL0     H13715   2.187   8.714  10.234  0.5828 -1.1477  0.4956
  102MOL0     H13716   2.322   8.709  10.331 -0.5322 -2.5513 -1.6794
  102MOL0     H13717   2.179   8.927  10.326 -2.7294  0.8630 -3.0843
  102MOL0     H13718   2.224   8.925  10.160  0.3426 -2.7660 -0.6291
  102MOL0     H13719   2.427   8.997  10.196 -0.4495 -1.6604 -0.1079
  102MOL0     H13720   2.358   9.085  10.331 -1.0756 -0.6441  1.9630
  102MOL0     H13721   2.341   8.901  10.555 -0.7425  0.6397 -0.3528
  102MOL0     H13722   2.493   8.749  10.742 -1.5596  1.3533 -0.7231
  102MOL0     H13723   2.664   8.813  10.751  0.1636 -0.4759  1.3409
  102MOL0     H13724   2.412   8.964  10.810 -0.2762 -5.0249 -2.4186
  102MOL0     H13725   2.545   8.924  10.923  2.6114  0.8353  0.0432
  102MOL0     H13726   2.564   9.130  10.693 -0.7258 -0.2331  0.0037
  102MOL0     H13727   2.704   9.058  10.757 -0.3035 -0.9623 -0.3273
  102MOL0     H13728   2.680   9.149  10.972  0.9988  2.0355 -0.6160
  102MOL0     H13729   2.505   9.168  10.947 -0.9806  3.8079 -1.0914
  102MOL0     H13730   2.845   9.169  10.853 -3.3057 -0.1324 -0.5438
  102MOL0     H13731   3.058   9.238  10.806 -1.3424 -0.9450 -0.5308
  102MOL0     H13732   3.332   9.269  10.517  0.0956 -0.3350  1.6813
  102MOL0     H13733   3.542   9.300  10.373  1.1041 -1.7547  1.6003
  102MOL0     H13734   3.754   9.363  10.294 -1.4725 -0.3419 -0.6184
  102MOL0     H13735   3.687   9.527  10.276  0.5217  0.0321 -0.0723
  102MOL0     H13736   3.973   9.442  10.343 -0.1904  1.3686  0.5998
  102MOL0     H13737   3.913   9.486  10.188  1.3635  0.8247 -0.6295
  102MOL0     H13738   3.835   9.727  10.311  0.3845  2.0823  1.8904
  102MOL0     H13739   3.909   9.660  10.457 -2.9750 -2.4985  0.9534
  102MOL0     H13740   4.066   9.651  10.192  0.7787  0.5904  0.3229
  102MOL0     H13741   4.126   9.645  10.355 -0.3213  2.0650  0.5772
  102MOL0     H13742   4.002   9.877  10.213 -2.1824 -2.6431  0.4606
  102MOL0     H13743   4.178   9.849  10.248 -0.0377  1.8973  1.5787
  102MOL0     H13744   3.950   9.904  10.445 -0.6969  0.3009 -0.8234
  102MOL0     H13745   4.100   9.833  10.500 -2.4436 -0.9020  1.2564
  102MOL0     H13746   4.226  10.026  10.450 -0.2646 -2.0752  2.3999
  102MOL0     H13747   4.087  10.071  10.542  1.2548 -0.6878  0.2074
  102MOL0     H13748   4.125  10.233  10.354 -2.2733  0.6081  1.1691
  102MOL0     H13749   4.106  10.098  10.241  0.7153  0.8444 -0.5630
  102MOL0     H13750   3.642   9.615  10.651 -0.4176  0.8170  0.4779
  102MOL0     H13751   3.450   9.579  10.771  0.6594  1.7735 -1.1386
  102MOL0     H13752   2.886   9.623  10.667 -3.6820 -0.1797  0.0984
  102MOL0     H13753   2.678   9.553  10.744 -1.6617 -1.5156 -0.9274
  102MOL0     H13754   1.743   8.874   9.726  0.8565  0.2395  1.2125
  102MOL0     H13755   1.503   8.880   9.746 -0.1630  1.4714  0.6907
  102MOL0     H13756   1.120   8.924   9.864  2.5358  0.9899  3.3275
  102MOL0     H13757   0.882   8.895   9.853  2.6357  0.8346 -1.7668
  102MOL0     H13758   0.578   8.681  10.112  0.1701 -0.2792  0.8888
  102MOL0     H13759   0.721   8.578  10.070  0.7469  1.4509 -1.1804
  102MOL0     H13760   0.539   8.705   9.854 -0.5144 -0.5598  0.0096
  102MOL0     H13761   0.494   8.561   9.932  0.3530  1.2484  0.4707
  102MOL0     H13762   0.770   8.593   9.809 -0.5251  0.3413  1.1824
  102MOL0     H13763   0.628   8.582   9.694 -3.0896 -2.0229  0.9819
  102MOL0     H13764   0.730   8.365   9.743  0.5131  0.0857  0.9099
  102MOL0     H13765   0.700   8.377   9.910  1.4507  1.0112 -0.3360
  102MOL0     H13766   0.306   8.321   9.752 -1.0359  2.0564  1.5737
  102MOL0     H13767   0.884   8.670  10.218  1.4275 -2.8805 -0.1042
  102MOL0     H13768   1.247   8.678  10.267 -0.3287 -0.4523  1.8486
  102MOL0     H13769   1.107   8.729  10.359 -0.6934  1.9157 -0.1029
  102MOL0     H13770   1.104   8.569  10.279  1.8631 -0.0513  1.6542
  103MOL0     O13771  10.359   4.954   2.049  0.4119  0.5342  0.6655
  103MOL0     C13772  10.302   4.922   2.152 -0.1324 -0.0475  0.0501
  103MOL0     O13773  10.336   4.816   2.238  0.7417 -0.7194  0.0901
  103MOL0     C13774  10.457   4.747   2.222  0.0817 -0.5241  0.2614
  103MOL0     C13775  10.455   4.607   2.219  0.6011 -0.8060 -0.6005
  103MOL0     C13776  10.571   4.522   2.235  0.6353 -0.6487 -0.4740
  103MOL0     C13777  10.692   4.585   2.232  0.2483 -0.4706 -0.0585
  103MOL0     O13778  10.797   4.500   2.234 -0.6595  0.2131 -0.2342
  103MOL0     C13779  10.922   4.551   2.193  0.1601  0.2220 -0.4017
  103MOL0     C13780  11.030   4.463   2.255  0.6878  0.5906 -0.8047
  103MOL0     C13781  11.021   4.469   2.413  0.1702 -0.2854 -0.7334
  103MOL0     C13782  11.163   4.468   2.480  0.4975  0.2035 -0.0537
  103MOL0     C13783  11.150   4.434   2.634  0.4913  0.8314 -0.5053
  103MOL0     C13784  11.286   4.431   2.701  0.2038 -0.1175  0.2991
  103MOL0     C13785  11.333   4.581   2.718  1.1640  0.5408  0.6499
  103MOL0     C13786  11.488   4.591   2.737 -0.8321 -0.5027 -0.0931
  103MOL0     N13787  11.565   4.570   2.611 -0.2342  0.3271  0.3109
  103MOL0     C13788  11.661   4.476   2.590  0.4389  0.2287  0.6590
  103MOL0     C13789  11.729   4.522   2.481 -0.2058  0.6066 -0.8912
  103MOL0     C13790  11.843   4.454   2.413  0.9052 -0.5335 -0.1238
  103MOL0     C13791  11.975   4.499   2.476  0.6121  0.1664 -0.1509
  103MOL0     C13792  12.076   4.458   2.373  0.0585  0.5615  0.1033
  103MOL0     C13793  12.212   4.457   2.433  0.4530  0.8184  0.5823
  103MOL0     O13794  12.291   4.416   2.317  0.5509 -0.5610 -0.5774
  103MOL0     C13795  12.425   4.396   2.346 -0.3757 -0.1906  0.6649
  103MOL0     C13796  12.511   4.433   2.242  0.5859 -0.3097  0.1179
  103MOL0     C13797  12.644   4.416   2.247 -0.9387 -0.2414 -0.3461
  103MOL0     C13798  12.710   4.364   2.363 -0.2265  0.8844 -0.5526
  103MOL0     C13799  12.856   4.350   2.375  0.5314 -0.9629 -0.4426
  103MOL0     O13800  12.917   4.331   2.256 -0.4772  0.5550  0.0478
  103MOL0     C13801  13.055   4.330   2.260 -0.1793 -0.0070 -0.1322
  103MOL0     C13802  13.125   4.211   2.242  0.0948  0.4734 -0.1106
  103MOL0     C13803  13.264   4.204   2.243 -0.2529  0.1156 -0.2083
  103MOL0     C13804  13.335   4.320   2.263 -0.6760  1.1580 -0.0455
  103MOL0     O13805  13.473   4.287   2.282  0.0637  0.1680  0.3191
  103MOL0     C13806  13.561   4.395   2.261  0.4555 -0.7915 -0.2942
  103MOL0     C13807  13.703   4.351   2.237 -0.8396 -0.3716  0.1457
  103MOL0     C13808  13.813   4.451   2.287 -0.5529  0.2118  0.6433
  103MOL0     C13809  13.797   4.490   2.433  0.5527  0.1016 -0.8201
  103MOL0     C13810  13.930   4.541   2.487  0.1844 -0.0989  0.7843
  103MOL0     C13811  14.000   4.660   2.415 -0.3396  0.4873  0.3132
  103MOL0     C13812  14.115   4.725   2.488 -0.2514 -0.5253  0.3876
  103MOL0     C13813  14.151   4.868   2.435 -0.2386  0.3397 -1.4978
  103MOL0    Cl13814  14.195   4.862   2.262 -0.7654 -0.1480 -0.1341
  103MOL0     C13815  13.267   4.441   2.280  0.3981 -0.0889  0.5396
  103MOL0     C13816  13.127   4.445   2.284 -0.7556  0.2726 -0.6817
  103MOL0     O13817  12.909   4.357   2.486 -0.3933  0.0034  1.0882
  103MOL0     C13818  12.624   4.328   2.466  0.6154 -0.2284  0.8922
  103MOL0     C13819  12.487   4.345   2.456 -0.6005 -0.6976 -0.0807
  103MOL0     N13820  11.669   4.638   2.441  0.0030  0.2485 -0.5530
  103MOL0     N13821  11.572   4.666   2.513 -0.2964  0.1151 -0.3449
  103MOL0     C13822  10.691   4.724   2.225 -0.3331 -0.8263  0.1255
  103MOL0     C13823  10.578   4.809   2.224 -0.0454 -0.3454  0.2153
  103MOL0     C13824  10.176   4.985   2.189 -0.9430  0.0405 -0.7513
  103MOL0     C13825  10.072   4.990   2.091 -0.5320 -0.6023 -0.6595
  103MOL0     C13826   9.950   5.056   2.128 -0.7392 -0.3897  0.2721
  103MOL0     C13827   9.919   5.093   2.258  0.7824 -0.2993  1.4070
  103MOL0     O13828   9.806   5.167   2.274 -0.2335  0.0928  0.5395
  103MOL0     C13829   9.679   5.116   2.221 -0.0298  0.2524 -0.0002
  103MOL0     C13830   9.560   5.196   2.267  0.0410  0.2429  0.6091
  103MOL0     C13831   9.429   5.125   2.233  0.6746 -0.1402  0.1899
  103MOL0     C13832   9.314   5.227   2.249  0.4739  0.1390 -0.0111
  103MOL0     C13833   9.185   5.160   2.246  0.1826  0.0025  0.0548
  103MOL0     C13834   9.078   5.112   2.235 -0.1188  0.3661  0.5966
  103MOL0     C13835  10.023   5.096   2.346 -0.7268  1.2572 -0.1247
  103MOL0     C13836  10.149   5.032   2.321 -0.5111  0.4368 -0.0498
  103MOL0     C13837  10.259   5.050   2.429  0.2256  0.2876 -0.2154
  103MOL0     H13838  10.362   4.551   2.213 -2.0815  3.0696  0.6551
  103MOL0     H13839  10.568   4.413   2.237 -3.5524 -0.6993  2.1329
  103MOL0     H13840  10.931   4.551   2.084 -0.5364  0.9792 -0.4650
  103MOL0     H13841  10.934   4.656   2.222 -0.4967  0.3820 -0.6923
  103MOL0     H13842  11.129   4.499   2.225  0.5639  0.4608 -1.3921
  103MOL0     H13843  11.027   4.363   2.210 -2.4090  0.7419 -1.1365
  103MOL0     H13844  10.969   4.381   2.452  1.2490 -1.9501 -2.8415
  103MOL0     H13845  10.968   4.563   2.432  1.2805  0.0559  0.8486
  103MOL0     H13846  11.228   4.392   2.435 -1.2328 -1.0725 -0.4982
  103MOL0     H13847  11.224   4.559   2.472 -1.3059  1.4913  0.1880
  103MOL0     H13848  11.087   4.514   2.673 -0.6821 -1.0737  1.8711
  103MOL0     H13849  11.087   4.345   2.646  1.1418 -0.2852 -4.2728
  103MOL0     H13850  11.268   4.388   2.801 -3.3603 -2.7847 -1.2517
  103MOL0     H13851  11.349   4.363   2.642 -1.2299  0.0295 -1.4830
  103MOL0     H13852  11.285   4.625   2.806  0.8263  1.1814  0.1581
  103MOL0     H13853  11.305   4.648   2.636 -2.0473  2.3609  2.9963
  103MOL0     H13854  11.509   4.690   2.779 -1.2618 -0.8596  1.0122
  103MOL0     H13855  11.521   4.517   2.810  0.1759 -0.0021 -0.0193
  103MOL0     H13856  11.679   4.375   2.625  1.7777  0.7908  1.7051
  103MOL0     H13857  11.835   4.345   2.417 -0.2081 -0.4541  0.1516
  103MOL0     H13858  11.855   4.484   2.308  1.3576 -1.6024 -0.3870
  103MOL0     H13859  11.978   4.607   2.492 -2.8439  0.2465  0.9437
  103MOL0     H13860  11.990   4.441   2.567  0.4328 -0.9168 -0.7993
  103MOL0     H13861  12.071   4.519   2.283  1.5748 -1.1651 -1.2343
  103MOL0     H13862  12.045   4.361   2.333 -1.3385  1.0249  0.0179
  103MOL0     H13863  12.206   4.374   2.504 -0.2729  0.8657  0.5824
  103MOL0     H13864  12.240   4.548   2.488 -1.9871  0.3609  2.7892
  103MOL0     H13865  12.474   4.473   2.148 -0.9856  1.6573  1.4678
  103MOL0     H13866  12.698   4.443   2.157 -1.1487 -2.1852 -1.1085
  103MOL0     H13867  13.074   4.115   2.245  0.2841  0.3857  1.5852
  103MOL0     H13868  13.298   4.107   2.206 -0.5770  0.9818 -2.9911
  103MOL0     H13869  13.520   4.454   2.179  0.7182  3.3466  2.2573
  103MOL0     H13870  13.558   4.457   2.352 -3.7140 -1.1841  0.0447
  103MOL0     H13871  13.724   4.257   2.290 -0.5106 -0.6555 -0.4850
  103MOL0     H13872  13.709   4.332   2.130 -0.0102 -0.2983  0.1741
  103MOL0     H13873  13.900   4.389   2.265 -0.8633 -0.9668  2.5573
  103MOL0     H13874  13.831   4.539   2.224  1.8784 -0.0630  0.8771
  103MOL0     H13875  13.772   4.395   2.481  1.6877  0.3890  0.3978
  103MOL0     H13876  13.715   4.562   2.445  1.8492  1.6293 -0.8448
  103MOL0     H13877  13.990   4.450   2.494  1.5198  0.8681  2.8306
  103MOL0     H13878  13.916   4.563   2.593  0.7076 -3.1415  1.6001
  103MOL0     H13879  14.034   4.609   2.324  1.6592 -0.8031  1.7333
  103MOL0     H13880  13.931   4.742   2.390 -1.3253 -1.0921 -2.6541
  103MOL0     H13881  14.205   4.672   2.455 -0.9696 -1.4942 -0.0544
  103MOL0     H13882  14.100   4.721   2.597 -1.7616  0.5059  0.2480
  103MOL0     H13883  14.062   4.932   2.439 -0.0903  0.5122 -0.7323
  103MOL0     H13884  14.223   4.930   2.490 -0.6674  2.4873 -3.1917
  103MOL0     H13885  13.322   4.532   2.304  1.6932 -0.3815 -1.1057
  103MOL0     H13886  13.073   4.530   2.324  1.1361  0.7403  1.0260
  103MOL0     H13887  12.667   4.285   2.556  2.5636  1.0165  0.6354
  103MOL0     H13888  12.433   4.306   2.542  1.2559 -0.5857  1.2015
  103MOL0     H13889  10.789   4.769   2.236 -0.2219 -0.3693 -2.1509
  103MOL0     H13890  10.596   4.915   2.213  2.3139 -0.9320 -2.9564
  103MOL0     H13891  10.097   4.952   1.992 -0.7186 -2.5968  0.0109
  103MOL0     H13892   9.883   5.083   2.047 -0.9570 -0.7357  0.3343
  103MOL0     H13893   9.665   5.016   2.264 -3.1670  0.6159  0.0859
  103MOL0     H13894   9.686   5.110   2.112 -0.2904  0.0253 -0.0049
  103MOL0     H13895   9.580   5.297   2.227  0.8791 -0.7682 -1.7180
  103MOL0     H13896   9.566   5.201   2.376 -1.3547 -1.9891  0.8518
  103MOL0     H13897   9.419   5.041   2.302  1.1352 -0.3956 -0.0449
  103MOL0     H13898   9.439   5.089   2.130  0.2504  2.8115 -0.9642
  103MOL0     H13899   9.335   5.262   2.351  0.6153 -0.9129  0.3320
  103MOL0     H13900   9.314   5.306   2.174  6.5807  0.0499 -0.5725
  103MOL0     H13901   8.981   5.068   2.229  0.2870 -0.3588 -2.2725
  103MOL0     H13902   9.994   5.115   2.448  2.1338  0.7312  0.8840
  103MOL0     H13903  10.215   5.113   2.506 -1.1715  0.6649 -1.2795
  103MOL0     H13904  10.293   4.953   2.466  0.0088 -1.2632 -3.7044
  103MOL0     H13905  10.342   5.115   2.399  0.8120 -0.3268  0.0653
  104MOL0     O13906   7.234   6.055   6.840  0.2802  0.0650 -0.7679
  104MOL0     C13907   7.349   6.078   6.788 -0.1490  0.4645  0.0587
  104MOL0     O13908   7.444   5.984   6.752  0.0129  0.2777 -0.0747
  104MOL0     C13909   7.416   5.857   6.775 -0.1012  0.2254  1.0470
  104MOL0     C13910   7.401   5.776   6.657  0.0366  0.3989  0.4575
  104MOL0     C13911   7.428   5.639   6.668 -0.0546 -0.2678 -0.3333
  104MOL0     C13912   7.450   5.581   6.786 -0.2176  0.3798 -0.2414
  104MOL0     O13913   7.461   5.443   6.781  0.5577 -1.1499 -0.9162
  104MOL0     C13914   7.514   5.367   6.900  0.6896 -0.4576 -0.1915
  104MOL0     C13915   7.545   5.214   6.864  0.7566  0.1501 -0.0428
  104MOL0     C13916   7.677   5.170   6.940  0.1153 -0.3821  0.2017
  104MOL0     C13917   7.644   5.110   7.087  0.2447 -0.2514  0.2934
  104MOL0     C13918   7.765   5.015   7.142 -0.0723  0.2902  0.1432
  104MOL0     C13919   7.793   4.885   7.066 -0.6154 -0.0794  1.0244
  104MOL0     C13920   7.921   4.821   7.125  0.6765  0.4696  0.0123
  104MOL0     C13921   7.964   4.702   7.039 -0.2251  0.0379 -0.9717
  104MOL0     N13922   8.091   4.652   7.093  0.3130 -0.2203  0.0144
  104MOL0     C13923   8.101   4.559   7.193 -0.1201  0.2581  0.1646
  104MOL0     C13924   8.226   4.510   7.164 -0.0513 -0.1905 -0.2791
  104MOL0     C13925   8.290   4.380   7.217 -0.0631  0.1629  0.5917
  104MOL0     C13926   8.438   4.375   7.223 -0.4227  0.1028  0.1902
  104MOL0     C13927   8.487   4.474   7.337 -0.6647 -0.5295  0.5812
  104MOL0     C13928   8.634   4.459   7.369 -0.2020 -0.1416  0.0379
  104MOL0     O13929   8.706   4.490   7.255 -0.7925  0.1064 -0.1374
  104MOL0     C13930   8.839   4.458   7.271  0.4981  0.1783 -0.5266
  104MOL0     C13931   8.886   4.330   7.305 -0.4409 -0.4791  0.0242
  104MOL0     C13932   9.017   4.307   7.325  0.2816  0.3285  0.1323
  104MOL0     C13933   9.114   4.407   7.308 -0.0184  0.0138 -0.0990
  104MOL0     C13934   9.264   4.373   7.317  0.7563  0.1705  0.2050
  104MOL0     O13935   9.352   4.468   7.359  0.1223 -0.2598  0.8605
  104MOL0     C13936   9.488   4.467   7.327 -0.0755 -1.0247 -0.5144
  104MOL0     C13937   9.568   4.577   7.355 -0.6927 -0.2937 -0.5850
  104MOL0     C13938   9.701   4.591   7.324 -0.4982  0.5613  0.3750
  104MOL0     C13939   9.765   4.487   7.252 -0.5634  0.6400 -0.8824
  104MOL0     O13940   9.890   4.508   7.207  0.2451 -0.4621 -0.0987
  104MOL0     C13941   9.985   4.403   7.198 -0.7100 -0.6873 -0.1158
  104MOL0     C13942  10.103   4.446   7.104  0.2427 -0.0497 -0.4631
  104MOL0     C13943  10.193   4.547   7.177  0.8798 -0.7371  0.9084
  104MOL0     C13944  10.290   4.485   7.288 -0.6045  0.3767  0.4898
  104MOL0     C13945  10.379   4.591   7.355  0.3888  1.1380 -0.0182
  104MOL0     C13946  10.482   4.527   7.443  0.4857  0.1790 -0.4394
  104MOL0     C13947  10.601   4.473   7.365  1.2516  0.3202 -0.0133
  104MOL0     C13948  10.711   4.562   7.323  0.2254 -0.0164  0.0310
  104MOL0    Cl13949  10.846   4.454   7.277 -0.3021 -0.2391 -0.1754
  104MOL0     C13950   9.695   4.361   7.227  0.2403 -0.0715 -0.3234
  104MOL0     C13951   9.559   4.357   7.267  0.8196  0.3099  0.0330
  104MOL0     O13952   9.289   4.256   7.297  0.2908  1.0288  0.4427
  104MOL0     C13953   9.071   4.540   7.287 -0.2988 -0.6353 -0.0272
  104MOL0     C13954   8.931   4.562   7.261  0.4167 -0.0727 -0.0448
  104MOL0     N13955   8.289   4.584   7.071  0.6386 -0.0128  0.3884
  104MOL0     N13956   8.200   4.659   7.011  0.6978  1.2149 -0.6100
  104MOL0     C13957   7.464   5.662   6.905 -0.2890  0.1308  0.6541
  104MOL0     C13958   7.447   5.798   6.895 -0.1187 -0.0370  0.1319
  104MOL0     C13959   7.372   6.217   6.744 -0.3919 -0.8241  0.1886
  104MOL0     C13960   7.440   6.232   6.621 -0.2503  0.1827 -1.1810
  104MOL0     C13961   7.462   6.364   6.594 -0.5901  0.0049 -0.2787
  104MOL0     C13962   7.423   6.474   6.666  0.2741  0.0618  0.0711
  104MOL0     O13963   7.460   6.598   6.616 -0.3902 -0.1188 -0.3254
  104MOL0     C13964   7.469   6.712   6.707 -1.5029  0.4998 -0.2799
  104MOL0     C13965   7.558   6.827   6.645 -0.4772  0.7929 -0.3960
  104MOL0     C13966   7.706   6.793   6.635  0.2758  0.2329  0.4573
  104MOL0     C13967   7.800   6.895   6.703 -0.2506  0.4797 -0.3026
  104MOL0     C13968   7.946   6.886   6.710  0.1780  0.4552 -0.4743
  104MOL0     C13969   8.066   6.889   6.735  0.5388  0.8610  1.1651
  104MOL0     C13970   7.365   6.457   6.796 -0.7552  0.3342  0.3866
  104MOL0     C13971   7.345   6.327   6.838  0.2973  0.0356 -0.7048
  104MOL0     C13972   7.273   6.319   6.965  0.4991  0.4426 -0.5383
  104MOL0     H13973   7.368   5.816   6.562  0.2662  2.5248  1.2074
  104MOL0     H13974   7.412   5.568   6.587 -0.8327 -1.1933  0.5930
  104MOL0     H13975   7.601   5.418   6.942 -0.9458  0.9748  1.6373
  104MOL0     H13976   7.428   5.368   6.968 -0.3365  0.3786 -1.4505
  104MOL0     H13977   7.565   5.203   6.757 -0.2106 -0.4354 -0.1777
  104MOL0     H13978   7.457   5.152   6.882  0.5047 -0.5557 -3.1360
  104MOL0     H13979   7.757   5.243   6.929 -2.7072  2.7343 -1.5603
  104MOL0     H13980   7.712   5.095   6.869 -0.6899  1.0317 -1.7682
  104MOL0     H13981   7.630   5.196   7.153  0.0206 -0.0233 -0.0541
  104MOL0     H13982   7.552   5.051   7.089  0.3858 -0.4680  1.4898
  104MOL0     H13983   7.851   5.078   7.169  0.0540 -0.2787  1.1208
  104MOL0     H13984   7.737   4.967   7.236  2.0624 -2.6930 -0.5923
  104MOL0     H13985   7.705   4.820   7.068 -0.8970  0.2400 -0.1207
  104MOL0     H13986   7.807   4.902   6.958 -3.1236 -0.4400  0.5692
  104MOL0     H13987   7.898   4.777   7.223 -5.2755  2.1126 -0.2316
  104MOL0     H13988   8.003   4.892   7.139  0.8115  0.2004  0.6574
  104MOL0     H13989   7.880   4.633   7.042 -1.4680  1.5198 -0.1159
  104MOL0     H13990   7.980   4.728   6.934 -0.3271  1.4042 -0.6612
  104MOL0     H13991   8.023   4.522   7.260  1.5487 -2.1438  0.8816
  104MOL0     H13992   8.250   4.360   7.317 -2.2659  1.8154  0.1135
  104MOL0     H13993   8.271   4.294   7.152 -3.9842  1.9935 -1.0456
  104MOL0     H13994   8.477   4.276   7.247  1.1100 -0.5444 -4.1573
  104MOL0     H13995   8.482   4.394   7.125  0.8213 -1.4947  0.3973
  104MOL0     H13996   8.429   4.469   7.430 -1.4099 -4.5617  0.0605
  104MOL0     H13997   8.473   4.576   7.299  0.1805 -0.7897 -0.4659
  104MOL0     H13998   8.665   4.366   7.418  4.0458  1.4971  0.9287
  104MOL0     H13999   8.657   4.538   7.441 -0.5464 -0.6810  0.7583
  104MOL0     H14000   8.823   4.243   7.315 -0.4994 -0.4898 -0.4073
  104MOL0     H14001   9.052   4.205   7.338 -1.3610 -0.8563 -3.3963
  104MOL0     H14002   9.522   4.651   7.420  0.3271 -0.5981  0.5384
  104MOL0     H14003   9.760   4.682   7.336 -1.0315  1.4038 -2.4426
  104MOL0     H14004  10.027   4.389   7.298 -1.6417  1.4195  0.6247
  104MOL0     H14005   9.946   4.310   7.155  1.8216 -0.7955 -2.4923
  104MOL0     H14006  10.167   4.359   7.089 -0.2457 -1.5241  4.2961
  104MOL0     H14007  10.051   4.473   7.011  0.6435  2.2822 -0.0728
  104MOL0     H14008  10.254   4.590   7.097 -0.0886 -2.4424 -0.8471
  104MOL0     H14009  10.139   4.629   7.225 -0.1034 -0.7533 -0.1261
  104MOL0     H14010  10.347   4.407   7.237  0.0881  0.2978  1.3720
  104MOL0     H14011  10.236   4.434   7.368 -0.5848 -2.7030 -1.3109
  104MOL0     H14012  10.312   4.661   7.407 -1.0844 -0.2339  0.0166
  104MOL0     H14013  10.436   4.646   7.279  0.5407 -0.4828 -1.1157
  104MOL0     H14014  10.531   4.594   7.514  0.1712  0.9462 -0.9330
  104MOL0     H14015  10.428   4.448   7.496 -0.0378  1.1166  0.4586
  104MOL0     H14016  10.568   4.420   7.275 -0.1426 -0.9600  1.2077
  104MOL0     H14017  10.635   4.397   7.436 -2.0156  1.0494  2.5796
  104MOL0     H14018  10.681   4.638   7.250  3.5358  0.7420 -0.7002
  104MOL0     H14019  10.736   4.615   7.415  1.1264 -0.8149  0.2586
  104MOL0     H14020   9.744   4.282   7.171 -0.6865 -1.8242  1.2144
  104MOL0     H14021   9.507   4.264   7.244  2.0000  0.4441 -3.8974
  104MOL0     H14022   9.145   4.617   7.267 -0.9077 -0.4758 -1.8305
  104MOL0     H14023   8.900   4.663   7.237 -1.3968 -0.3628  0.8812
  104MOL0     H14024   7.475   5.629   7.008 -0.5900  1.6850  1.2053
  104MOL0     H14025   7.449   5.860   6.984 -0.2011  0.9501 -0.5327
  104MOL0     H14026   7.478   6.152   6.558  0.7836  1.0784 -1.7281
  104MOL0     H14027   7.525   6.390   6.509  0.0571  0.5295  0.3571
  104MOL0     H14028   7.512   6.676   6.801 -0.1086  1.6267 -0.4410
  104MOL0     H14029   7.367   6.739   6.734 -0.4793  0.0659  5.0984
  104MOL0     H14030   7.551   6.915   6.710  1.4713 -0.4743  1.6853
  104MOL0     H14031   7.512   6.838   6.546 -0.1160 -2.9599 -1.1246
  104MOL0     H14032   7.726   6.776   6.529 -0.6948 -0.4954  0.3717
  104MOL0     H14033   7.721   6.695   6.682  3.0727  0.7765  0.8484
  104MOL0     H14034   7.788   6.994   6.659  0.1480 -0.3434 -2.4207
  104MOL0     H14035   7.766   6.888   6.807 -1.4210 -2.2481 -0.7785
  104MOL0     H14036   8.164   6.901   6.776  0.1928  1.5115  1.8235
  104MOL0     H14037   7.342   6.536   6.867  1.5785  0.3249  1.2670
  104MOL0     H14038   7.325   6.243   7.023 -0.8520 -1.1340 -1.2846
  104MOL0     H14039   7.253   6.409   7.025  1.8468 -1.3366  2.8012
  104MOL0     H14040   7.174   6.275   6.949  1.1723 -0.4172 -2.6528
  105MOL0     O14041   5.124   3.824   0.327 -0.1170 -0.1046 -0.1026
  105MOL0     C14042   5.131   3.948   0.331  0.0777 -0.3688 -0.1071
  105MOL0     O14043   5.213   4.019   0.404  0.1347 -0.0320  0.0443
  105MOL0     C14044   5.295   3.960   0.497  0.2555  0.2152  0.5747
  105MOL0     C14045   5.422   3.907   0.475  0.3545  0.3769  0.1474
  105MOL0     C14046   5.494   3.833   0.570  0.2263 -0.7686 -1.1948
  105MOL0     C14047   5.446   3.841   0.706 -0.1802  0.4235  0.5810
  105MOL0     O14048   5.514   3.783   0.805 -0.4565 -0.2216 -0.3008
  105MOL0     C14049   5.653   3.767   0.788 -0.6117 -0.1828 -0.0854
  105MOL0     C14050   5.731   3.771   0.925 -0.2521  0.1282 -1.1970
  105MOL0     C14051   5.874   3.725   0.914 -0.7072 -0.2629 -0.3270
  105MOL0     C14052   5.963   3.826   0.838  0.4856 -0.4991 -1.3923
  105MOL0     C14053   6.099   3.810   0.897  0.2136 -0.6653  0.3904
  105MOL0     C14054   6.178   3.691   0.849 -0.8872 -1.0824 -0.0169
  105MOL0     C14055   6.223   3.708   0.703  0.4970 -0.1380  0.0091
  105MOL0     C14056   6.354   3.647   0.669  0.1312  0.5284  0.2813
  105MOL0     N14057   6.370   3.504   0.670  0.4712 -0.4054 -0.0491
  105MOL0     C14058   6.436   3.426   0.757  0.3424  0.6954 -1.6930
  105MOL0     C14059   6.407   3.296   0.728  0.2996 -0.0685 -0.3391
  105MOL0     C14060   6.469   3.171   0.779  0.1589  0.2988  0.9173
  105MOL0     C14061   6.484   3.174   0.929 -0.0325 -0.4889 -0.3641
  105MOL0     C14062   6.525   3.045   0.997 -0.0709 -0.3743  0.3784
  105MOL0     C14063   6.527   3.065   1.146  0.7103 -0.2039 -0.3052
  105MOL0     O14064   6.528   2.944   1.220 -0.5250 -0.0499  0.1934
  105MOL0     C14065   6.616   2.948   1.321  0.2735  0.1828  0.6008
  105MOL0     C14066   6.598   3.034   1.432  0.7611  0.7914 -0.3250
  105MOL0     C14067   6.695   3.037   1.530 -0.2964 -0.1392  0.5638
  105MOL0     C14068   6.811   2.947   1.527 -0.5249  0.5930 -0.3491
  105MOL0     C14069   6.913   2.950   1.624 -0.0716 -0.4520  0.0801
  105MOL0     O14070   7.005   2.845   1.615  0.1210 -0.7678  0.3879
  105MOL0     C14071   7.101   2.827   1.701 -0.2144  0.4827  0.0936
  105MOL0     C14072   7.083   2.815   1.844  0.8860  0.2607 -0.1228
  105MOL0     C14073   7.190   2.800   1.930 -0.5613 -0.5455  0.2019
  105MOL0     C14074   7.320   2.795   1.875  0.0046  0.3131  0.5880
  105MOL0     O14075   7.427   2.778   1.959  0.0486 -0.4108  0.6627
  105MOL0     C14076   7.399   2.756   2.101 -0.4186 -0.1865  0.3184
  105MOL0     C14077   7.526   2.709   2.162 -0.1732 -0.2945 -0.1532
  105MOL0     C14078   7.635   2.816   2.152  0.9861  0.3795 -0.0930
  105MOL0     C14079   7.720   2.810   2.283  1.3391  0.4247  0.5273
  105MOL0     C14080   7.826   2.916   2.296 -0.3720  0.4873 -0.1083
  105MOL0     C14081   7.933   2.910   2.185  0.5485  0.0262 -0.8507
  105MOL0     C14082   8.054   2.987   2.217 -0.2820 -0.2087  0.4322
  105MOL0     C14083   8.142   2.903   2.300 -0.6367  0.7273  0.4380
  105MOL0    Cl14084   8.178   2.966   2.463  0.5310 -0.2832  0.3815
  105MOL0     C14085   7.344   2.804   1.742  0.7353 -0.2217 -0.0534
  105MOL0     C14086   7.231   2.820   1.653 -0.6908  0.4484  0.7071
  105MOL0     O14087   6.913   3.038   1.714  0.7366  0.1066  0.3222
  105MOL0     C14088   6.824   2.860   1.419 -0.2455 -0.3659 -0.6988
  105MOL0     C14089   6.728   2.868   1.316  1.0341  0.3274  0.2550
  105MOL0     N14090   6.329   3.303   0.621 -0.1506 -0.4738  0.2921
  105MOL0     N14091   6.297   3.426   0.586  0.4806  0.8336 -0.3634
  105MOL0     C14092   5.319   3.885   0.724  0.4466  0.8432 -0.1598
  105MOL0     C14093   5.244   3.942   0.628 -0.7742  0.3902  0.5485
  105MOL0     C14094   5.030   4.025   0.256  0.0060 -0.3897  0.0701
  105MOL0     C14095   5.083   4.129   0.187  0.4511  0.0730  1.5854
  105MOL0     C14096   5.001   4.221   0.109 -0.2769  0.2821  0.8695
  105MOL0     C14097   4.867   4.212   0.109 -0.1181 -0.4368  0.4430
  105MOL0     O14098   4.771   4.310   0.071 -1.4689 -0.2846 -0.1316
  105MOL0     C14099   4.821   4.426   0.019 -0.6741  1.0201  1.1181
  105MOL0     C14100   4.705   4.518  -0.021 -0.0052  0.0416  0.2062
  105MOL0     C14101   4.749   4.649  -0.080  0.0448 -0.7791  0.5426
  105MOL0     C14102   4.638   4.762  -0.066  0.1556 -0.2056  0.0941
  105MOL0     C14103   4.598   4.789   0.075  0.0801  0.0252 -0.0494
  105MOL0     C14104   4.563   4.838   0.179  0.2331 -0.6654  0.7428
  105MOL0     C14105   4.810   4.096   0.160  0.2568  0.7256  0.3929
  105MOL0     C14106   4.889   3.998   0.231  0.3039 -0.4438 -1.2352
  105MOL0     C14107   4.823   3.878   0.296 -1.0739  0.0912  0.2414
  105MOL0     H14108   5.454   3.911   0.371 -1.5154 -1.9731 -0.6147
  105MOL0     H14109   5.595   3.808   0.540 -0.0135  0.3227 -3.1193
  105MOL0     H14110   5.673   3.670   0.744  0.4018 -0.5176  1.0588
  105MOL0     H14111   5.703   3.835   0.718  1.1553 -1.2884  0.0500
  105MOL0     H14112   5.677   3.701   0.988  2.7830 -1.2055  0.1261
  105MOL0     H14113   5.731   3.876   0.958 -3.4683  0.5106 -2.0527
  105MOL0     H14114   5.880   3.632   0.857 -0.7986 -2.0065  2.3254
  105MOL0     H14115   5.901   3.704   1.018  1.6449 -1.0158 -1.0255
  105MOL0     H14116   5.957   3.811   0.730 -1.6489  4.3966 -2.2105
  105MOL0     H14117   5.914   3.920   0.864  0.9294 -1.2003  2.5864
  105MOL0     H14118   6.145   3.909   0.887 -0.8391 -0.0479  1.4366
  105MOL0     H14119   6.091   3.795   1.005  1.5067 -3.2710  0.2150
  105MOL0     H14120   6.262   3.687   0.919 -0.2373  0.1678 -0.6757
  105MOL0     H14121   6.116   3.602   0.862 -1.0390 -0.9158  0.4052
  105MOL0     H14122   6.225   3.816   0.687  1.7829  0.1383  1.7427
  105MOL0     H14123   6.148   3.669   0.634  1.2988 -0.9004 -0.4619
  105MOL0     H14124   6.378   3.677   0.567 -2.1394  1.4210 -0.0562
  105MOL0     H14125   6.430   3.683   0.739  1.0665 -2.9383  1.2436
  105MOL0     H14126   6.501   3.458   0.837  0.6357 -2.2033 -0.6728
  105MOL0     H14127   6.412   3.083   0.747  4.9035 -2.8218  0.1578
  105MOL0     H14128   6.565   3.145   0.734 -0.8300 -2.0082 -0.0269
  105MOL0     H14129   6.553   3.251   0.963 -1.7863  0.5864  0.9770
  105MOL0     H14130   6.384   3.201   0.966 -0.1929 -2.2321  0.6060
  105MOL0     H14131   6.627   3.014   0.970  0.0777  1.0092 -0.7718
  105MOL0     H14132   6.451   2.970   0.971 -0.5907 -0.5345  2.1826
  105MOL0     H14133   6.431   3.109   1.174  0.2813  0.0980 -2.1163
  105MOL0     H14134   6.602   3.142   1.163  0.1536  0.7945 -2.1681
  105MOL0     H14135   6.515   3.103   1.439 -3.1750 -3.2067 -2.5491
  105MOL0     H14136   6.678   3.111   1.608  2.6982  0.2933  0.9061
  105MOL0     H14137   6.985   2.835   1.885  0.0028 -1.0791 -1.4807
  105MOL0     H14138   7.171   2.808   2.036  2.2526 -0.4323  0.7810
  105MOL0     H14139   7.369   2.841   2.163  0.0014 -0.2657  0.6306
  105MOL0     H14140   7.334   2.669   2.106  2.2351 -2.3157  0.0301
  105MOL0     H14141   7.506   2.679   2.265  1.5534 -0.3909  0.1841
  105MOL0     H14142   7.554   2.619   2.105 -1.6485 -0.6147 -0.3994
  105MOL0     H14143   7.699   2.798   2.065 -0.1204 -1.2460 -0.6178
  105MOL0     H14144   7.588   2.914   2.144 -0.1028 -0.1938 -1.1598
  105MOL0     H14145   7.759   2.708   2.284  0.8967  0.2440  2.2490
  105MOL0     H14146   7.661   2.817   2.375  1.0975  0.1535  0.3955
  105MOL0     H14147   7.887   2.912   2.386  2.3126  2.0663 -1.7075
  105MOL0     H14148   7.778   3.015   2.302 -2.8903 -0.7379  3.8405
  105MOL0     H14149   7.960   2.806   2.166 -0.2771 -0.6662  1.4650
  105MOL0     H14150   7.883   2.966   2.105 -2.0611  0.9386  1.2835
  105MOL0     H14151   8.019   3.068   2.282 -2.0924  0.2130 -0.9851
  105MOL0     H14152   8.102   3.015   2.123 -0.9848 -1.4480 -0.3234
  105MOL0     H14153   8.106   2.801   2.315 -0.5312  0.3351 -1.6513
  105MOL0     H14154   8.235   2.885   2.244 -2.0538 -0.9360 -1.5257
  105MOL0     H14155   7.444   2.807   1.699  1.4964  4.2420  1.5225
  105MOL0     H14156   7.247   2.824   1.545 -2.8769 -1.9886  0.1862
  105MOL0     H14157   6.900   2.783   1.410  0.0103 -0.3261  0.8136
  105MOL0     H14158   6.746   2.805   1.230  0.9392  1.5256 -0.6733
  105MOL0     H14159   5.280   3.883   0.825 -0.9349  0.6550 -0.6794
  105MOL0     H14160   5.143   3.972   0.653 -0.4573  2.4232 -0.3794
  105MOL0     H14161   5.188   4.156   0.190  0.5967  0.0063 -0.8776
  105MOL0     H14162   5.061   4.300   0.066  2.9810 -1.6574  1.4581
  105MOL0     H14163   4.870   4.390  -0.071  1.9250 -0.3561  2.9666
  105MOL0     H14164   4.900   4.476   0.076  1.5493  1.6623 -2.2670
  105MOL0     H14165   4.643   4.537   0.067  1.8443 -0.1004  1.6046
  105MOL0     H14166   4.646   4.467  -0.098  1.1097  2.2727 -2.3225
  105MOL0     H14167   4.766   4.643  -0.188 -0.8725 -0.7744  0.3882
  105MOL0     H14168   4.839   4.688  -0.033  0.0611  1.5296 -1.2318
  105MOL0     H14169   4.688   4.853  -0.102  1.1085 -0.2665  1.2087
  105MOL0     H14170   4.555   4.725  -0.126 -0.2496  0.5372  0.1758
  105MOL0     H14171   4.519   4.872   0.271 -3.5239 -1.3694 -0.6401
  105MOL0     H14172   4.702   4.086   0.162 -0.0251  3.3213  1.7103
  105MOL0     H14173   4.877   3.785   0.279 -2.3205 -0.2506 -2.3342
  105MOL0     H14174   4.818   3.904   0.403  0.2713  0.6463  0.1928
  105MOL0     H14175   4.722   3.856   0.261 -0.6700 -0.7478 -0.4032
  106MOL0     O14176   3.701   0.336   0.838  0.5134 -0.4836 -0.7215
  106MOL0     C14177   3.612   0.401   0.901 -0.3155  0.4530  0.6187
  106MOL0     O14178   3.637   0.495   0.998  0.1520 -0.3447 -0.3903
  106MOL0     C14179   3.764   0.502   1.048 -0.3220 -0.4387 -1.0668
  106MOL0     C14180   3.822   0.398   1.123 -0.8807 -0.3092  0.3930
  106MOL0     C14181   3.939   0.419   1.204  1.2326  0.4472 -0.1825
  106MOL0     C14182   4.012   0.542   1.200  0.2141  0.6536  0.4232
  106MOL0     O14183   4.128   0.550   1.270 -0.2359 -0.5274 -0.0464
  106MOL0     C14184   4.205   0.667   1.232 -0.4228 -0.4943 -0.3145
  106MOL0     C14185   4.314   0.702   1.336 -0.2722  0.4157 -0.5271
  106MOL0     C14186   4.278   0.694   1.487  0.5198 -0.1078 -0.1911
  106MOL0     C14187   4.156   0.778   1.540  0.2925  0.4465 -0.0081
  106MOL0     C14188   4.081   0.731   1.669 -0.3480 -0.0388  0.5686
  106MOL0     C14189   3.947   0.805   1.698 -0.9751  0.5864  0.2988
  106MOL0     C14190   3.838   0.775   1.594  0.3721 -0.5465 -0.1148
  106MOL0     C14191   3.718   0.864   1.621  0.6466  0.2475 -0.1764
  106MOL0     N14192   3.649   0.821   1.743 -0.9491 -0.0941 -0.3552
  106MOL0     C14193   3.548   0.730   1.744 -0.1520 -0.4137  0.4545
  106MOL0     C14194   3.502   0.724   1.873  0.2379 -0.1264 -0.2621
  106MOL0     C14195   3.401   0.633   1.945  0.3970 -0.2579  0.4971
  106MOL0     C14196   3.259   0.682   1.964 -0.3719  1.2084  0.4558
  106MOL0     C14197   3.188   0.594   2.065  0.4848 -0.1241  0.6067
  106MOL0     C14198   3.075   0.675   2.124  0.5723  0.2099  0.1728
  106MOL0     O14199   2.978   0.670   2.020 -0.3035  0.7208  0.5294
  106MOL0     C14200   2.854   0.731   2.052 -0.3833 -1.1027  0.4550
  106MOL0     C14201   2.779   0.777   1.942 -0.6103  0.3111 -0.7260
  106MOL0     C14202   2.660   0.846   1.955  0.3199  0.8173 -0.7685
  106MOL0     C14203   2.603   0.860   2.084 -0.4027  0.2759 -0.7697
  106MOL0     C14204   2.476   0.922   2.108 -0.4556 -0.5302  0.0222
  106MOL0     O14205   2.405   0.944   1.995  0.1254 -0.3887 -0.5246
  106MOL0     C14206   2.310   1.047   1.999  0.5058 -0.0364  1.7416
  106MOL0     C14207   2.339   1.183   2.015  0.0688 -0.3758  0.0322
  106MOL0     C14208   2.228   1.270   2.014  0.2784  0.1981  0.6803
  106MOL0     C14209   2.091   1.232   1.995 -0.6253  0.1205  0.0875
  106MOL0     O14210   1.990   1.313   2.024 -0.1455 -0.0813  0.0937
  106MOL0     C14211   1.963   1.419   1.939  0.9415 -0.5465 -0.0977
  106MOL0     C14212   1.827   1.389   1.877 -0.3001  0.5888 -0.5208
  106MOL0     C14213   1.785   1.501   1.776  0.1693  0.6205  0.0705
  106MOL0     C14214   1.650   1.455   1.711 -0.1988  0.2022 -0.4696
  106MOL0     C14215   1.531   1.488   1.800  0.4865 -0.0179 -0.0940
  106MOL0     C14216   1.480   1.637   1.798  0.7712 -0.4827 -0.4933
  106MOL0     C14217   1.336   1.636   1.824  0.4582 -0.5782 -0.3635
  106MOL0     C14218   1.296   1.777   1.857  0.3873  0.4873 -0.5164
  106MOL0    Cl14219   1.120   1.788   1.837  0.2821 -0.4620  0.1739
  106MOL0     C14220   2.075   1.099   1.964  0.1709  0.0933 -0.0007
  106MOL0     C14221   2.181   1.013   1.962 -0.0855 -0.0310  0.3800
  106MOL0     O14222   2.443   0.972   2.215 -0.4003 -0.1439  0.1608
  106MOL0     C14223   2.682   0.825   2.195  0.3588  0.5275  0.1127
  106MOL0     C14224   2.802   0.758   2.185 -0.2996 -0.1906  0.0073
  106MOL0     N14225   3.577   0.813   1.948 -0.3876 -0.0099  0.0323
  106MOL0     N14226   3.663   0.873   1.868  0.1334 -0.3362  0.1598
  106MOL0     C14227   3.960   0.636   1.104  0.1648 -0.0007  0.3456
  106MOL0     C14228   3.837   0.622   1.035  0.1312  0.9219 -0.9347
  106MOL0     C14229   3.475   0.384   0.849 -0.4249  0.8723 -0.5507
  106MOL0     C14230   3.382   0.466   0.908 -0.7152 -1.0454  0.2265
  106MOL0     C14231   3.251   0.468   0.857  0.1563 -0.7390 -0.9840
  106MOL0     C14232   3.206   0.390   0.753 -0.3807 -0.2794 -0.8190
  106MOL0     O14233   3.074   0.396   0.720  0.0302  0.5053  0.2874
  106MOL0     C14234   3.025   0.520   0.683  0.9631  1.1355  0.2562
  106MOL0     C14235   2.893   0.495   0.611  0.2605 -0.4499  0.7343
  106MOL0     C14236   2.769   0.457   0.696 -0.6069  0.2670 -0.1728
  106MOL0     C14237   2.640   0.462   0.617 -0.0875  0.9741  0.8197
  106MOL0     C14238   2.525   0.425   0.701 -0.2429  0.8887 -0.1477
  106MOL0     C14239   2.413   0.405   0.749 -0.4434 -0.3992 -0.6637
  106MOL0     C14240   3.301   0.303   0.693  0.1066  0.2570 -0.0432
  106MOL0     C14241   3.436   0.298   0.735  0.8595  0.1052  0.6657
  106MOL0     C14242   3.516   0.187   0.663  0.3919 -0.6041 -0.3539
  106MOL0     H14243   3.776   0.300   1.122  1.2876 -1.4826 -3.2635
  106MOL0     H14244   3.981   0.333   1.255  2.2389  2.1241  1.9610
  106MOL0     H14245   4.247   0.654   1.132  1.7991  0.0812  0.4647
  106MOL0     H14246   4.141   0.755   1.236  2.0749  1.3913  2.6518
  106MOL0     H14247   4.349   0.804   1.316 -0.4373  0.3057 -1.4192
  106MOL0     H14248   4.405   0.643   1.318  0.9959  1.7151  1.2781
  106MOL0     H14249   4.369   0.712   1.545  1.3637  1.1823 -1.8248
  106MOL0     H14250   4.260   0.586   1.494  3.2993 -0.8612 -2.4081
  106MOL0     H14251   4.188   0.880   1.565  0.2578  0.6401 -0.7418
  106MOL0     H14252   4.080   0.800   1.465 -0.5204  1.1050  0.9708
  106MOL0     H14253   4.056   0.625   1.671  0.7867 -0.3593 -0.6194
  106MOL0     H14254   4.144   0.745   1.757 -1.1705 -4.4739  2.0927
  106MOL0     H14255   3.900   0.793   1.795 -1.2625 -0.7667  0.0081
  106MOL0     H14256   3.964   0.913   1.707 -0.0401  0.5027 -0.2263
  106MOL0     H14257   3.814   0.668   1.604 -3.2363 -0.0553 -1.6925
  106MOL0     H14258   3.882   0.786   1.494  3.7034 -0.8089  1.1996
  106MOL0     H14259   3.744   0.970   1.625 -0.7802  0.5746  1.8256
  106MOL0     H14260   3.663   0.857   1.527  3.4560  0.0984 -1.9139
  106MOL0     H14261   3.501   0.677   1.662  1.2617  0.5138 -0.9992
  106MOL0     H14262   3.383   0.547   1.879 -1.6631  1.1316 -0.8793
  106MOL0     H14263   3.448   0.596   2.036  0.2902  0.7019  0.9556
  106MOL0     H14264   3.268   0.786   1.997  1.4412  0.9421  0.8864
  106MOL0     H14265   3.203   0.672   1.871 -2.9870  1.2647  1.9319
  106MOL0     H14266   3.256   0.565   2.146  1.5932 -0.2263 -0.3329
  106MOL0     H14267   3.147   0.507   2.014 -0.5409  2.2571 -2.9912
  106MOL0     H14268   3.116   0.775   2.142 -1.7049  1.6225 -1.8347
  106MOL0     H14269   3.042   0.645   2.224  3.6411 -0.0404  1.2102
  106MOL0     H14270   2.831   0.773   1.846  1.4638  1.5891  0.2770
  106MOL0     H14271   2.605   0.888   1.872 -1.3009 -2.0557 -1.2595
  106MOL0     H14272   2.442   1.209   2.038 -0.4407 -0.9324  3.5479
  106MOL0     H14273   2.253   1.374   2.035  0.6401  1.0217 -3.0477
  106MOL0     H14274   1.948   1.515   1.989  0.0689 -0.1847 -1.0332
  106MOL0     H14275   2.040   1.435   1.862  0.8086 -2.9761 -0.8132
  106MOL0     H14276   1.833   1.303   1.809  2.3741 -0.8937  1.3838
  106MOL0     H14277   1.745   1.380   1.948 -1.1135 -2.5469 -1.6697
  106MOL0     H14278   1.775   1.597   1.828 -2.0164  0.8859 -0.7411
  106MOL0     H14279   1.858   1.524   1.698 -0.0778  2.7134  0.3979
  106MOL0     H14280   1.652   1.347   1.692 -1.3651 -0.2187  1.5310
  106MOL0     H14281   1.628   1.501   1.615 -2.3131 -0.8745 -0.5643
  106MOL0     H14282   1.539   1.466   1.907 -1.1331 -3.1241 -0.5005
  106MOL0     H14283   1.450   1.430   1.754 -0.9152  0.6417  1.4219
  106MOL0     H14284   1.525   1.689   1.883 -1.2860  0.8856 -0.1494
  106MOL0     H14285   1.516   1.695   1.713 -1.5763  0.1413 -1.1349
  106MOL0     H14286   1.312   1.575   1.911  3.8644 -1.4863  0.1018
  106MOL0     H14287   1.278   1.598   1.740  0.8356  1.7776 -1.8041
  106MOL0     H14288   1.313   1.795   1.964 -2.2628 -1.7176  0.3915
  106MOL0     H14289   1.347   1.850   1.793  6.1918 -0.1473  2.6676
  106MOL0     H14290   1.974   1.059   1.962 -0.9341  2.6974  0.1063
  106MOL0     H14291   2.164   0.910   1.934  0.2495  0.9944 -4.5435
  106MOL0     H14292   2.637   0.846   2.292 -2.3358  1.4338 -1.2064
  106MOL0     H14293   2.848   0.712   2.271 -0.1308 -1.7010 -0.8588
  106MOL0     H14294   4.025   0.718   1.073  4.5023 -3.8806 -2.0934
  106MOL0     H14295   3.805   0.705   0.972 -1.6943 -0.1817 -1.5377
  106MOL0     H14296   3.410   0.535   0.987  0.5877 -0.1877 -0.9355
  106MOL0     H14297   3.179   0.533   0.907  1.0462 -0.6306  0.2108
  106MOL0     H14298   3.090   0.574   0.613  0.1809 -0.4006 -1.7441
  106MOL0     H14299   2.999   0.573   0.775 -0.0642 -0.0372  0.6643
  106MOL0     H14300   2.894   0.421   0.531  0.2031  1.1320 -0.8098
  106MOL0     H14301   2.858   0.586   0.561 -1.6223 -1.5538 -0.0816
  106MOL0     H14302   2.764   0.515   0.789 -1.7922  1.2416 -0.8249
  106MOL0     H14303   2.786   0.359   0.743  0.6056  1.2317  1.5133
  106MOL0     H14304   2.607   0.558   0.574 -0.4552  0.7186  0.5277
  106MOL0     H14305   2.657   0.382   0.545  4.2450  2.0909  0.3136
  106MOL0     H14306   2.317   0.376   0.787  0.6573 -0.6068  2.1986
  106MOL0     H14307   3.261   0.242   0.612 -1.0007 -1.1907  1.5226
  106MOL0     H14308   3.575   0.133   0.738  0.9961  0.2824 -0.1786
  106MOL0     H14309   3.457   0.107   0.615 -1.0972  0.6609 -0.7321
  106MOL0     H14310   3.584   0.231   0.590 -0.3023  0.3469 -0.4418
  107MOL0     O14311   6.286   1.178   2.444  0.6510  0.0083  0.0603
  107MOL0     C14312   6.248   1.193   2.561  0.1399 -0.0319 -0.3665
  107MOL0     O14313   6.329   1.254   2.653  0.1168 -0.1190  0.6889
  107MOL0     C14314   6.470   1.296   2.642  0.4483 -0.5181  0.1046
  107MOL0     C14315   6.556   1.247   2.545  1.1489  0.3285 -0.5185
  107MOL0     C14316   6.690   1.292   2.523 -0.8825 -0.4381 -0.2471
  107MOL0     C14317   6.738   1.386   2.611  0.1748 -0.8661 -0.1542
  107MOL0     O14318   6.869   1.412   2.612 -0.2329 -0.3872  0.8284
  107MOL0     C14319   6.930   1.355   2.731 -0.3722 -0.8338  0.5651
  107MOL0     C14320   6.981   1.212   2.695 -0.3796  0.0198 -0.9628
  107MOL0     C14321   7.074   1.151   2.803  1.0065 -0.3196  0.4093
  107MOL0     C14322   7.215   1.207   2.813 -0.0879 -0.5691  0.5055
  107MOL0     C14323   7.288   1.204   2.675 -1.4184 -0.7604 -0.4062
  107MOL0     C14324   7.292   1.070   2.605 -0.1560  0.4165 -0.0157
  107MOL0     C14325   7.367   1.090   2.473 -0.4962 -0.4868 -0.2202
  107MOL0     C14326   7.322   0.995   2.357  0.3049 -0.2315  1.0475
  107MOL0     N14327   7.345   0.850   2.379 -0.5563 -0.4217  0.4426
  107MOL0     C14328   7.460   0.777   2.359 -0.2808 -0.0994 -0.4147
  107MOL0     C14329   7.425   0.649   2.338 -1.0144 -0.5027 -0.7307
  107MOL0     C14330   7.511   0.530   2.341 -0.7621  0.0162 -0.0214
  107MOL0     C14331   7.621   0.549   2.240 -0.2297 -0.4242  0.2657
  107MOL0     C14332   7.728   0.434   2.224 -0.3789  0.2645  0.1009
  107MOL0     C14333   7.833   0.458   2.118 -0.7809  0.2845  0.4903
  107MOL0     O14334   7.897   0.579   2.141 -0.7399 -0.7578  0.0029
  107MOL0     C14335   7.993   0.611   2.045 -0.5763  0.5098 -0.2245
  107MOL0     C14336   8.130   0.591   2.068  0.5074 -0.1496 -0.2201
  107MOL0     C14337   8.230   0.626   1.981  0.3613 -0.3258  0.3776
  107MOL0     C14338   8.195   0.642   1.843 -0.3157 -0.3211 -0.1317
  107MOL0     C14339   8.295   0.655   1.746 -0.1225  0.3484  0.9503
  107MOL0     O14340   8.252   0.647   1.619  0.4577 -0.1026  0.3303
  107MOL0     C14341   8.344   0.663   1.512 -0.7652  0.9227 -0.3793
  107MOL0     C14342   8.459   0.584   1.512 -0.1147 -0.6487  0.2421
  107MOL0     C14343   8.555   0.597   1.407 -0.3048  0.6143  0.5704
  107MOL0     C14344   8.535   0.687   1.302  0.2893 -0.7874 -0.2144
  107MOL0     O14345   8.613   0.700   1.187 -0.0273  0.0769 -0.7218
  107MOL0     C14346   8.596   0.602   1.085 -0.2467 -0.4425  0.6946
  107MOL0     C14347   8.576   0.672   0.950  0.2800  0.2521 -0.1183
  107MOL0     C14348   8.514   0.569   0.851  0.3937 -0.4196 -0.5087
  107MOL0     C14349   8.509   0.614   0.702  0.0659 -0.0656  0.5287
  107MOL0     C14350   8.634   0.579   0.620  0.4889 -0.1255 -0.2920
  107MOL0     C14351   8.767   0.618   0.671 -0.6920  0.1489  0.2167
  107MOL0     C14352   8.872   0.582   0.567  0.2248  0.2612 -0.3080
  107MOL0     C14353   9.012   0.587   0.621 -0.0674 -0.8210  0.6131
  107MOL0    Cl14354   9.113   0.490   0.526 -0.3917 -0.4423  0.4999
  107MOL0     C14355   8.413   0.758   1.304 -0.5026 -0.0967  0.0029
  107MOL0     C14356   8.324   0.750   1.408 -0.7253  0.5595  0.4287
  107MOL0     O14357   8.409   0.677   1.780  0.3787 -0.0349 -0.2926
  107MOL0     C14358   8.059   0.652   1.812  1.2228 -0.0058 -0.5254
  107MOL0     C14359   7.959   0.640   1.914  0.0813  0.3475  0.2202
  107MOL0     N14360   7.288   0.636   2.339 -0.5825  0.6569  0.2694
  107MOL0     N14361   7.245   0.756   2.367 -0.0389 -0.3785  0.1161
  107MOL0     C14362   6.655   1.433   2.714  0.1386  0.0631  0.1488
  107MOL0     C14363   6.523   1.389   2.732 -0.0179  0.2322  0.2589
  107MOL0     C14364   6.116   1.134   2.607 -0.5473 -0.5062  0.1536
  107MOL0     C14365   6.060   1.187   2.726  0.3066  0.2641 -0.8415
  107MOL0     C14366   5.927   1.150   2.763 -0.7288  0.3785  0.0010
  107MOL0     C14367   5.859   1.047   2.700  0.1527 -1.1885 -0.2193
  107MOL0     O14368   5.727   1.021   2.747 -0.0954 -0.0227 -0.3074
  107MOL0     C14369   5.656   0.924   2.668 -0.6068  0.2033 -0.1737
  107MOL0     C14370   5.525   0.899   2.731  0.8791  0.0132 -0.2194
  107MOL0     C14371   5.446   1.035   2.754 -0.5497 -0.0975 -0.5299
  107MOL0     C14372   5.376   1.102   2.636  0.2911  0.4639 -0.1689
  107MOL0     C14373   5.468   1.170   2.542 -0.2367  0.3643  0.0290
  107MOL0     C14374   5.555   1.206   2.465 -1.0313 -0.0888 -0.1540
  107MOL0     C14375   5.915   0.996   2.587 -0.3988 -0.6784 -0.4670
  107MOL0     C14376   6.044   1.036   2.540  0.4653  0.0510  0.1906
  107MOL0     C14377   6.095   0.975   2.413  0.4178  0.2226  0.0875
  107MOL0     H14378   6.526   1.176   2.469 -0.5846 -0.0149  0.4152
  107MOL0     H14379   6.757   1.262   2.443  1.4921  3.5451 -0.0400
  107MOL0     H14380   7.015   1.419   2.758 -1.5334  1.6457 -1.2723
  107MOL0     H14381   6.867   1.360   2.820 -0.4471  2.4032  0.4241
  107MOL0     H14382   7.028   1.215   2.596 -0.9589  2.0319 -1.2364
  107MOL0     H14383   6.888   1.155   2.684 -1.9467  2.1633  0.3588
  107MOL0     H14384   7.083   1.045   2.777 -1.9111 -0.1646 -1.8947
  107MOL0     H14385   7.027   1.167   2.900 -2.8504 -1.4813 -1.0476
  107MOL0     H14386   7.208   1.310   2.848  2.0642 -0.0843 -0.3099
  107MOL0     H14387   7.274   1.157   2.890 -0.8193 -0.6848  1.0036
  107MOL0     H14388   7.240   1.278   2.609 -3.1409  0.4056  2.0043
  107MOL0     H14389   7.386   1.249   2.696 -1.3331 -0.9839 -0.3229
  107MOL0     H14390   7.344   1.001   2.672 -4.1309 -3.2485 -0.2886
  107MOL0     H14391   7.198   1.020   2.578  0.7861 -0.3943 -1.9853
  107MOL0     H14392   7.476   1.086   2.481 -0.4159 -2.7274 -1.4881
  107MOL0     H14393   7.331   1.186   2.435 -0.4914 -1.5475 -3.1819
  107MOL0     H14394   7.216   1.004   2.332  0.7940 -1.8841 -2.2099
  107MOL0     H14395   7.374   1.017   2.264 -2.3513 -1.8676 -0.9917
  107MOL0     H14396   7.559   0.820   2.345  1.2051 -3.3891 -1.0638
  107MOL0     H14397   7.557   0.500   2.435  0.6536 -3.0077 -1.5155
  107MOL0     H14398   7.451   0.444   2.310 -1.4524  0.6075 -0.3805
  107MOL0     H14399   7.568   0.572   2.146 -2.9345  0.8191  1.9717
  107MOL0     H14400   7.680   0.636   2.268 -0.5800  0.3373 -1.2523
  107MOL0     H14401   7.677   0.342   2.196  1.0122  0.0456 -1.9486
  107MOL0     H14402   7.778   0.408   2.318 -1.4639 -0.6477  0.4471
  107MOL0     H14403   7.776   0.453   2.024 -0.9621  2.3774  0.4563
  107MOL0     H14404   7.895   0.367   2.124  1.6218  1.9226  2.3843
  107MOL0     H14405   8.172   0.568   2.165  0.6650 -2.5412 -0.7979
  107MOL0     H14406   8.334   0.626   2.011  1.2239  1.5410 -2.2307
  107MOL0     H14407   8.476   0.499   1.578  3.1207  0.0843  0.5381
  107MOL0     H14408   8.645   0.538   1.393 -0.0985  0.3674  2.7329
  107MOL0     H14409   8.675   0.528   1.068 -1.0623 -0.9980 -0.9006
  107MOL0     H14410   8.507   0.543   1.106 -1.6719  0.7135 -1.6374
  107MOL0     H14411   8.505   0.751   0.977 -0.1933 -0.6559  1.4276
  107MOL0     H14412   8.666   0.722   0.914 -0.3047  2.4739  1.3306
  107MOL0     H14413   8.585   0.486   0.847 -0.7410 -1.3779 -1.5973
  107MOL0     H14414   8.416   0.533   0.885  0.6818  0.7952  1.8454
  107MOL0     H14415   8.487   0.721   0.710  0.0984  0.0030 -0.2398
  107MOL0     H14416   8.428   0.559   0.655 -0.3135  1.0840 -0.2143
  107MOL0     H14417   8.612   0.629   0.525  0.5304 -2.4331 -1.6160
  107MOL0     H14418   8.635   0.469   0.614  0.4460 -0.2388  1.2681
  107MOL0     H14419   8.769   0.726   0.692 -0.5358 -0.2585  2.5323
  107MOL0     H14420   8.792   0.557   0.758 -0.9064  0.4252  0.4778
  107MOL0     H14421   8.865   0.652   0.484 -0.0973  1.9283  1.0744
  107MOL0     H14422   8.843   0.479   0.541 -2.3126  1.2365 -1.6154
  107MOL0     H14423   9.033   0.695   0.622  1.6699 -1.0922 -0.9300
  107MOL0     H14424   9.023   0.547   0.722  1.6349  2.0397  1.6607
  107MOL0     H14425   8.394   0.815   1.213  0.4096 -2.6124 -1.8740
  107MOL0     H14426   8.231   0.805   1.402 -1.6693 -0.2073  4.5162
  107MOL0     H14427   8.017   0.669   1.714 -0.3648  1.0585  0.2986
  107MOL0     H14428   7.858   0.663   1.882 -0.6618 -0.2213  2.0369
  107MOL0     H14429   6.706   1.491   2.790  2.5060 -0.9266 -0.6032
  107MOL0     H14430   6.467   1.413   2.822 -2.3148  1.1399 -1.3204
  107MOL0     H14431   6.108   1.263   2.787  0.6768 -1.1382  0.6938
  107MOL0     H14432   5.878   1.197   2.847 -1.4417 -2.6625  1.4476
  107MOL0     H14433   5.716   0.832   2.663  0.2781  0.6029  1.7830
  107MOL0     H14434   5.646   0.961   2.566  2.0313  0.3115 -0.4706
  107MOL0     H14435   5.532   0.825   2.811  0.8334 -0.2812 -0.4878
  107MOL0     H14436   5.464   0.853   2.653  0.0202  1.0370 -0.1825
  107MOL0     H14437   5.503   1.101   2.821 -2.5844 -2.0614  3.5217
  107MOL0     H14438   5.364   1.003   2.819 -0.2475  0.4214  0.1173
  107MOL0     H14439   5.314   1.031   2.580  2.0177 -0.7001 -0.6852
  107MOL0     H14440   5.315   1.184   2.676  0.3852  0.0680  0.8168
  107MOL0     H14441   5.633   1.238   2.399  1.4911 -1.3056  2.0415
  107MOL0     H14442   5.860   0.927   2.524 -0.2710 -0.0959 -1.2316
  107MOL0     H14443   6.202   0.951   2.417  0.1418 -1.5580 -1.7322
  107MOL0     H14444   6.052   0.876   2.397  2.3433 -0.5858 -0.3649
  107MOL0     H14445   6.090   1.043   2.327 -0.4530  3.5953  2.6138
  108MOL0     O14446   1.843   7.527   1.683  0.1955  0.2329 -0.0366
  108MOL0     C14447   1.738   7.463   1.676  0.7881  0.6013 -0.0673
  108MOL0     O14448   1.715   7.338   1.729  0.2384  0.8498  0.3929
  108MOL0     C14449   1.806   7.271   1.812 -0.1183  0.2528  0.8384
  108MOL0     C14450   1.751   7.188   1.912 -0.7107  0.2734 -0.0596
  108MOL0     C14451   1.841   7.113   1.996 -0.6039  0.9827 -1.0943
  108MOL0     C14452   1.988   7.125   1.976  0.7950  0.1395 -0.1622
  108MOL0     O14453   2.086   7.059   2.038  0.2108  0.1015  0.4578
  108MOL0     C14454   2.057   6.931   2.096  0.1549  0.4912 -0.0585
  108MOL0     C14455   2.138   6.818   2.025 -0.4302 -0.1961  0.5718
  108MOL0     C14456   2.295   6.846   2.033  0.2150  0.8692 -0.5664
  108MOL0     C14457   2.374   6.739   1.950  1.0065 -0.6488  0.5810
  108MOL0     C14458   2.425   6.626   2.037  0.2359 -0.6355 -0.9561
  108MOL0     C14459   2.502   6.522   1.946  0.1507 -0.4477 -0.0898
  108MOL0     C14460   2.554   6.411   2.033 -0.0101 -0.4444  0.4870
  108MOL0     C14461   2.463   6.285   2.047  0.3790 -0.7097  0.1885
  108MOL0     N14462   2.456   6.204   1.928 -0.3814  0.2190  0.8028
  108MOL0     C14463   2.481   6.067   1.927 -0.6904 -0.8601 -0.2322
  108MOL0     C14464   2.448   6.028   1.802 -0.5488 -0.9686 -0.1211
  108MOL0     C14465   2.442   5.880   1.757  0.0883 -0.0229  0.1613
  108MOL0     C14466   2.328   5.799   1.819 -0.2787 -0.0493  0.1343
  108MOL0     C14467   2.184   5.843   1.812 -0.1385 -0.1229 -0.9653
  108MOL0     C14468   2.077   5.744   1.865 -0.1174  0.0987 -0.2704
  108MOL0     O14469   2.070   5.628   1.769 -0.2589  0.2078  0.1550
  108MOL0     C14470   1.952   5.565   1.750 -0.0415  0.1615 -0.0676
  108MOL0     C14471   1.841   5.581   1.841  0.5000  0.2942  0.8101
  108MOL0     C14472   1.716   5.519   1.811  0.2268 -0.3066 -0.2536
  108MOL0     C14473   1.695   5.449   1.700 -0.7970 -0.1900  0.5389
  108MOL0     C14474   1.561   5.380   1.672  0.0910  0.1962 -0.6451
  108MOL0     O14475   1.451   5.439   1.731  0.5477 -0.2171  0.2551
  108MOL0     C14476   1.321   5.410   1.689 -0.0460 -0.1027 -0.3911
  108MOL0     C14477   1.225   5.433   1.781  0.4039  0.3723 -0.0392
  108MOL0     C14478   1.094   5.421   1.757 -0.7123  1.2782  0.3747
  108MOL0     C14479   1.055   5.364   1.634  0.1744 -0.5949  0.2764
  108MOL0     O14480   0.916   5.348   1.615 -0.4829 -0.5128  0.0214
  108MOL0     C14481   0.848   5.267   1.718  0.1815 -0.0370 -0.2710
  108MOL0     C14482   0.701   5.313   1.727 -1.2163  0.3070 -0.2596
  108MOL0     C14483   0.648   5.299   1.581  0.5383  0.6454  0.0035
  108MOL0     C14484   0.489   5.286   1.586 -0.1126 -0.1021 -0.0921
  108MOL0     C14485   0.427   5.311   1.447  1.0572  0.8274  0.6201
  108MOL0     C14486   0.298   5.217   1.431 -0.2175  0.2496  0.4985
  108MOL0     C14487   0.247   5.222   1.285 -0.5147  0.1539 -0.4677
  108MOL0     C14488   0.112   5.152   1.272 -0.1480 -0.4893 -0.0217
  108MOL0    Cl14489   0.089   5.123   1.090  0.4095  0.1459  0.0065
  108MOL0     C14490   1.146   5.345   1.532  0.7587  0.0383 -0.3908
  108MOL0     C14491   1.285   5.371   1.561 -0.8680 -0.1099  1.0954
  108MOL0     O14492   1.565   5.290   1.591  0.0765  0.2271 -0.1488
  108MOL0     C14493   1.808   5.426   1.621  0.0307  1.0982  0.3659
  108MOL0     C14494   1.930   5.482   1.642 -0.3880 -1.2910  0.5392
  108MOL0     N14495   2.405   6.141   1.727 -0.0656  0.5099  0.0876
  108MOL0     N14496   2.396   6.240   1.811 -0.9025  0.4636 -1.1900
  108MOL0     C14497   2.030   7.212   1.871 -0.2633  0.3455 -0.6391
  108MOL0     C14498   1.948   7.284   1.791  0.2194  0.9530 -0.4190
  108MOL0     C14499   1.627   7.524   1.594  0.1427 -0.3924 -0.8825
  108MOL0     C14500   1.501   7.472   1.611 -0.6181 -0.0657 -0.6917
  108MOL0     C14501   1.389   7.514   1.541  0.4341  0.1889  0.3785
  108MOL0     C14502   1.399   7.621   1.455 -0.1606  0.8494 -0.3061
  108MOL0     O14503   1.279   7.666   1.404  0.3350  0.2077  0.9024
  108MOL0     C14504   1.256   7.803   1.365  0.5887  0.2898  0.1473
  108MOL0     C14505   1.181   7.880   1.475 -0.1297  1.0797  0.7854
  108MOL0     C14506   1.139   8.018   1.419  0.0620  0.5742 -0.4316
  108MOL0     C14507   1.054   8.106   1.517 -0.4616  0.0975 -0.0854
  108MOL0     C14508   0.944   8.026   1.581  0.2418 -0.0573  0.2862
  108MOL0     C14509   0.846   7.961   1.621 -0.1886  0.1069 -0.1907
  108MOL0     C14510   1.523   7.681   1.437  0.1260  0.7580 -0.0419
  108MOL0     C14511   1.636   7.636   1.506  0.1955 -0.1734  0.4042
  108MOL0     C14512   1.765   7.716   1.470  0.3123  0.8110  0.9921
  108MOL0     H14513   1.643   7.191   1.912 -0.7853 -1.6869 -0.2084
  108MOL0     H14514   1.795   7.054   2.075 -0.2157  0.6345 -1.1273
  108MOL0     H14515   2.101   6.931   2.196 -3.1205  0.1433  1.5117
  108MOL0     H14516   1.949   6.916   2.097 -0.0813  1.9897 -0.0481
  108MOL0     H14517   2.108   6.811   1.920  2.8913  0.4045 -0.5299
  108MOL0     H14518   2.117   6.723   2.075  2.1012 -0.5536  1.0548
  108MOL0     H14519   2.320   6.832   2.138 -1.9534 -2.1688 -0.2991
  108MOL0     H14520   2.326   6.947   2.005 -0.7678  1.4858  0.5099
  108MOL0     H14521   2.309   6.701   1.871 -0.7243 -0.0258  1.6447
  108MOL0     H14522   2.458   6.801   1.917  1.5571 -0.8620  1.5338
  108MOL0     H14523   2.478   6.670   2.122 -1.1885 -0.8633  0.0749
  108MOL0     H14524   2.348   6.560   2.078  1.3395 -2.1184 -1.1825
  108MOL0     H14525   2.441   6.485   1.863  1.0893 -0.3858 -0.8215
  108MOL0     H14526   2.586   6.575   1.901  0.8704  0.3380  2.0606
  108MOL0     H14527   2.579   6.456   2.129  1.0067  2.2976 -0.9621
  108MOL0     H14528   2.649   6.380   1.988 -1.5374 -0.3892 -3.1394
  108MOL0     H14529   2.488   6.228   2.136 -2.1612 -4.8310 -1.4481
  108MOL0     H14530   2.360   6.319   2.059  0.6920  1.5941 -2.4750
  108MOL0     H14531   2.493   6.005   2.015  0.0225 -2.0523 -1.1487
  108MOL0     H14532   2.440   5.871   1.648 -0.4470 -1.9183  0.2795
  108MOL0     H14533   2.541   5.839   1.777  0.1715  0.3775  0.5627
  108MOL0     H14534   2.336   5.701   1.771 -3.1356 -0.7883  0.9669
  108MOL0     H14535   2.356   5.778   1.923 -1.3092 -1.5447  0.1523
  108MOL0     H14536   2.162   5.863   1.707 -5.0369 -0.0232 -0.1604
  108MOL0     H14537   2.169   5.934   1.871  2.0417  1.2031 -2.3311
  108MOL0     H14538   1.979   5.792   1.858 -2.3921 -4.2785 -1.7944
  108MOL0     H14539   2.112   5.702   1.959  1.8640 -0.5396 -1.2342
  108MOL0     H14540   1.842   5.634   1.935 -1.2166 -0.1043  1.0841
  108MOL0     H14541   1.633   5.539   1.879  1.0252 -1.4861  1.1427
  108MOL0     H14542   1.249   5.456   1.884  3.0567  3.0088 -1.1073
  108MOL0     H14543   1.027   5.446   1.839  0.8619 -2.2668  3.0303
  108MOL0     H14544   0.854   5.162   1.689  2.1558 -0.3559  1.0847
  108MOL0     H14545   0.901   5.281   1.813  0.1537  2.2667 -0.5313
  108MOL0     H14546   0.652   5.252   1.804  1.8684 -1.6712  0.3323
  108MOL0     H14547   0.704   5.415   1.767 -1.6204 -0.2030  1.1432
  108MOL0     H14548   0.681   5.386   1.524  3.6017  0.5931  1.4862
  108MOL0     H14549   0.687   5.210   1.531  0.4608  1.5003 -1.6117
  108MOL0     H14550   0.448   5.365   1.650 -1.1411 -2.0523  1.8229
  108MOL0     H14551   0.468   5.187   1.628  0.4279 -0.7111 -1.2355
  108MOL0     H14552   0.495   5.277   1.368 -0.8318  1.4986 -1.4267
  108MOL0     H14553   0.399   5.416   1.432 -0.1779  0.4880  0.4461
  108MOL0     H14554   0.338   5.118   1.454 -1.2795 -1.1371 -3.0270
  108MOL0     H14555   0.224   5.244   1.508  2.4121  1.2985  2.8229
  108MOL0     H14556   0.312   5.164   1.219 -0.8360 -0.1244 -0.5440
  108MOL0     H14557   0.236   5.326   1.251 -3.0500  0.1175  0.0344
  108MOL0     H14558   0.100   5.052   1.313 -0.7763 -0.6774 -0.6459
  108MOL0     H14559   0.034   5.223   1.302  1.5961  1.6181 -0.1775
  108MOL0     H14560   1.119   5.329   1.428  2.4794  0.2069 -0.8978
  108MOL0     H14561   1.354   5.378   1.477 -2.8939  2.6012 -0.5448
  108MOL0     H14562   1.804   5.364   1.532 -0.6635 -0.5589  1.4843
  108MOL0     H14563   2.005   5.463   1.566  1.7719 -0.5111  2.3690
  108MOL0     H14564   2.137   7.210   1.854  0.2941 -0.3005  2.2676
  108MOL0     H14565   1.988   7.349   1.713 -1.1353  0.5467 -1.4941
  108MOL0     H14566   1.483   7.390   1.679 -3.5496 -1.9866 -3.5284
  108MOL0     H14567   1.286   7.481   1.555 -0.6786  1.3017 -3.7613
  108MOL0     H14568   1.192   7.791   1.277 -0.1888  0.6067  0.6608
  108MOL0     H14569   1.349   7.854   1.337  2.8287 -3.3104  0.2534
  108MOL0     H14570   1.243   7.889   1.564 -1.7451 -3.1100  2.5827
  108MOL0     H14571   1.091   7.822   1.498  0.5721  0.7542  2.9571
  108MOL0     H14572   1.081   8.003   1.328 -0.1612 -0.1249 -0.1749
  108MOL0     H14573   1.225   8.082   1.395 -0.2953  0.3860 -2.3596
  108MOL0     H14574   1.116   8.151   1.594 -0.2027  1.9407 -1.2960
  108MOL0     H14575   1.021   8.188   1.453  2.5376  1.7432  0.2997
  108MOL0     H14576   0.760   7.906   1.654 -1.0781  0.1654 -2.2695
  108MOL0     H14577   1.527   7.760   1.363  2.4547  0.5039 -0.2661
  108MOL0     H14578   1.739   7.764   1.375 -0.0748  0.7771  1.0795
  108MOL0     H14579   1.800   7.788   1.544 -0.9199  0.8004  1.5999
  108MOL0     H14580   1.850   7.655   1.437  0.4135  1.4390  0.0389
  109MOL0     O14581   5.367   9.455  10.265  0.2221  0.3380  0.7543
  109MOL0     C14582   5.484   9.456  10.215 -0.4209  0.3223  0.4263
  109MOL0     O14583   5.545   9.561  10.157  0.2691  0.6884 -0.6148
  109MOL0     C14584   5.455   9.664  10.114  0.8243  1.0129 -1.0915
  109MOL0     C14585   5.372   9.651  10.003  0.5923 -0.2764  0.0438
  109MOL0     C14586   5.300   9.759   9.954 -0.1101  0.0682 -0.9524
  109MOL0     C14587   5.309   9.881  10.026  0.3134 -1.1348  0.7537
  109MOL0     O14588   5.230   9.983   9.979 -0.1262  0.3398 -0.1812
  109MOL0     C14589   5.124  10.016  10.076 -0.2608  1.0185  0.5073
  109MOL0     C14590   5.017  10.113  10.022  0.0416  0.5634 -1.1417
  109MOL0     C14591   5.089  10.238   9.974 -0.5632 -0.1379 -0.2690
  109MOL0     C14592   5.134  10.325  10.096  0.4412  0.7455  0.1092
  109MOL0     C14593   5.235  10.427  10.052  0.0008  0.4077  0.4558
  109MOL0     C14594   5.288  10.508  10.170  0.0918 -0.7432  0.2134
  109MOL0     C14595   5.415  10.589  10.121  0.3706  0.3437  0.1846
  109MOL0     C14596   5.483  10.676  10.218 -0.0778 -0.0635 -0.1303
  109MOL0     N14597   5.593  10.763  10.165  0.9838  0.5830  0.2166
  109MOL0     C14598   5.580  10.841  10.051  0.4135  0.8276 -0.5464
  109MOL0     C14599   5.708  10.881  10.032  0.4721  0.0819 -0.1314
  109MOL0     C14600   5.733  10.986   9.933  0.0797  0.0351 -0.3157
  109MOL0     C14601   5.879  10.993   9.881  0.6099 -0.1918 -0.2257
  109MOL0     C14602   5.866  11.098   9.767 -0.4464 -0.5331  0.1910
  109MOL0     C14603   5.803  11.048   9.639  0.4069  0.6704 -0.3872
  109MOL0     O14604   5.825  11.138   9.525 -0.3295  0.9088  0.0349
  109MOL0     C14605   5.947  11.129   9.464  0.8464  0.5590 -0.5158
  109MOL0     C14606   6.055  11.038   9.486  0.9964 -0.7086 -0.2381
  109MOL0     C14607   6.170  11.047   9.415 -0.3973  0.0516 -0.4850
  109MOL0     C14608   6.198  11.151   9.327  0.2917 -0.3226  1.5189
  109MOL0     C14609   6.330  11.171   9.256  0.1066  0.6549  0.4453
  109MOL0     O14610   6.434  11.099   9.309 -0.0336  0.4235 -0.2967
  109MOL0     C14611   6.564  11.144   9.300  0.2272  0.6818 -0.4458
  109MOL0     C14612   6.628  11.209   9.194  0.3536 -0.4376 -0.0682
  109MOL0     C14613   6.757  11.264   9.210  0.0924  0.2623 -0.2044
  109MOL0     C14614   6.829  11.264   9.331  0.5180 -0.0624 -0.5346
  109MOL0     O14615   6.955  11.320   9.352  0.2332 -0.1154  0.0631
  109MOL0     C14616   7.044  11.265   9.451  0.2638 -1.0584  0.0767
  109MOL0     C14617   7.195  11.300   9.430  1.0140 -0.5580  0.1488
  109MOL0     C14618   7.270  11.211   9.332  0.2536 -0.0729 -0.4088
  109MOL0     C14619   7.415  11.252   9.325 -0.8800 -0.4331 -0.4742
  109MOL0     C14620   7.486  11.211   9.195  0.6391 -0.1665 -0.3564
  109MOL0     C14621   7.637  11.216   9.219  0.5908 -0.0079  0.0956
  109MOL0     C14622   7.727  11.179   9.098  0.5179  0.3811 -0.4480
  109MOL0     C14623   7.869  11.168   9.145 -0.5913  0.6188 -0.2563
  109MOL0    Cl14624   7.986  11.122   9.011  0.0441  0.2258 -0.3651
  109MOL0     C14625   6.766  11.186   9.433  0.4853 -0.8258 -0.7237
  109MOL0     C14626   6.634  11.140   9.424 -0.6683  0.1699  1.4342
  109MOL0     O14627   6.335  11.256   9.174  0.0789 -0.5229  0.6035
  109MOL0     C14628   6.093  11.238   9.302 -0.6001 -1.0515 -0.2846
  109MOL0     C14629   5.975  11.225   9.366 -0.0528 -0.4393  0.5517
  109MOL0     N14630   5.797  10.820  10.123 -0.0518  0.2009 -0.6139
  109MOL0     N14631   5.724  10.754  10.205  0.6415  0.3011 -0.6788
  109MOL0     C14632   5.392   9.895  10.139 -0.3020  0.5170  0.0335
  109MOL0     C14633   5.459   9.782  10.187  0.2147 -0.8711  0.3221
  109MOL0     C14634   5.569   9.339  10.248  0.9287  0.7512 -0.2468
  109MOL0     C14635   5.556   9.265  10.373 -0.2873  0.2543 -0.3630
  109MOL0     C14636   5.648   9.163  10.400 -0.6317 -0.6916  0.1601
  109MOL0     C14637   5.755   9.128  10.318  0.1184  0.1775  0.2268
  109MOL0     O14638   5.840   9.027  10.358 -0.1747  0.4368 -0.2733
  109MOL0     C14639   5.953   9.079  10.434 -0.5518 -0.0982 -0.3300
  109MOL0     C14640   6.017   8.971  10.526  0.1914 -0.2793 -0.0143
  109MOL0     C14641   6.010   9.002  10.669 -0.4423  0.1653  0.5718
  109MOL0     C14642   5.877   9.011  10.725 -0.1680  0.0205  0.1093
  109MOL0     C14643   5.879   8.981  10.869  0.6783  0.1948  0.2371
  109MOL0     C14644   5.879   8.971  10.992 -0.0314  0.3813  0.4982
  109MOL0     C14645   5.764   9.193  10.194  0.9220  0.5656  0.8739
  109MOL0     C14646   5.676   9.298  10.162  0.2642 -0.6227 -0.2806
  109MOL0     C14647   5.705   9.360  10.030 -0.4390 -1.4196  0.6964
  109MOL0     H14648   5.377   9.560   9.945 -0.8900 -1.1743  1.2767
  109MOL0     H14649   5.237   9.751   9.866 -2.1161  0.6537  0.3562
  109MOL0     H14650   5.070   9.926  10.107  1.6413 -0.2179  0.4064
  109MOL0     H14651   5.171  10.050  10.169  1.6804 -0.8798  0.2933
  109MOL0     H14652   4.950  10.149  10.102  1.4275 -0.5869  0.6029
  109MOL0     H14653   4.963  10.065   9.940 -1.9098 -0.7529  0.7954
  109MOL0     H14654   5.030  10.304   9.910 -3.2462 -0.3201  1.8173
  109MOL0     H14655   5.172  10.204   9.911 -1.6779 -1.1947 -1.2192
  109MOL0     H14656   5.042  10.363  10.141 -1.6792 -2.3223 -1.2658
  109MOL0     H14657   5.182  10.257  10.167  1.1317  0.5714 -0.5124
  109MOL0     H14658   5.320  10.376  10.005  2.4198  3.1855  1.4732
  109MOL0     H14659   5.192  10.495   9.978 -0.3171 -1.7333 -1.4424
  109MOL0     H14660   5.209  10.566  10.219 -1.0810 -1.6423 -0.5359
  109MOL0     H14661   5.325  10.441  10.248 -1.5989 -1.4874  0.4427
  109MOL0     H14662   5.389  10.648  10.032  2.4496 -2.9546 -2.9054
  109MOL0     H14663   5.481  10.507  10.092 -0.9828 -0.4289 -0.8358
  109MOL0     H14664   5.420  10.757  10.254  1.1395  0.4577  0.9029
  109MOL0     H14665   5.525  10.621  10.302 -2.2953  0.5580  1.4747
  109MOL0     H14666   5.490  10.850   9.992  0.5506 -1.5268 -1.2303
  109MOL0     H14667   5.663  10.970   9.851 -0.0289 -0.6517 -0.0969
  109MOL0     H14668   5.715  11.087   9.972 -0.2837  0.3313 -1.2195
  109MOL0     H14669   5.932  11.035   9.967  1.9031 -0.7233 -0.7417
  109MOL0     H14670   5.914  10.898   9.840  1.1210 -0.7308  1.3695
  109MOL0     H14671   5.963  11.142   9.743  0.3625 -2.1760  0.2907
  109MOL0     H14672   5.791  11.173   9.798 -1.4593 -1.4357 -0.0191
  109MOL0     H14673   5.694  11.045   9.652  0.4796  1.6830  0.6609
  109MOL0     H14674   5.845  10.947   9.640  2.7502  1.4052  3.9647
  109MOL0     H14675   6.046  10.956   9.557  0.9823 -1.0226 -0.6044
  109MOL0     H14676   6.249  10.973   9.424 -0.0433  0.5726  1.0311
  109MOL0     H14677   6.574  11.218   9.101 -3.0139 -0.2679  1.7627
  109MOL0     H14678   6.796  11.312   9.121  0.6426  0.9583  0.4010
  109MOL0     H14679   7.011  11.313   9.543 -1.6442  0.9570 -1.5517
  109MOL0     H14680   7.039  11.156   9.447  2.3360 -1.1670 -0.7466
  109MOL0     H14681   7.203  11.406   9.405  1.4476  0.1795  2.9691
  109MOL0     H14682   7.241  11.273   9.526 -0.2609 -0.7269  0.7417
  109MOL0     H14683   7.250  11.106   9.352  0.2170 -0.1519 -0.8398
  109MOL0     H14684   7.229  11.224   9.231  0.3540 -2.9753 -0.8948
  109MOL0     H14685   7.470  11.212   9.411  2.5426  5.7320  0.8315
  109MOL0     H14686   7.421  11.361   9.333 -0.3816 -0.5443  0.8826
  109MOL0     H14687   7.455  11.274   9.111  1.8925 -1.0046 -1.4782
  109MOL0     H14688   7.462  11.107   9.175  3.0322 -0.6071 -1.2037
  109MOL0     H14689   7.667  11.308   9.270  2.6226 -1.7833  2.3872
  109MOL0     H14690   7.654  11.145   9.301  0.1441  1.4836  1.5288
  109MOL0     H14691   7.721  11.258   9.023 -0.3614 -0.3422 -1.1507
  109MOL0     H14692   7.685  11.088   9.055 -2.9621  1.4848  0.3072
  109MOL0     H14693   7.905  11.247   9.212  0.5393 -1.4997  1.7837
  109MOL0     H14694   7.866  11.077   9.207 -0.0494 -0.8011 -2.2303
  109MOL0     H14695   6.829  11.165   9.519  1.5572  0.3841 -1.1785
  109MOL0     H14696   6.580  11.101   9.509  0.0015 -0.8060  1.4301
  109MOL0     H14697   6.094  11.325   9.238 -0.5822  0.5777  1.8201
  109MOL0     H14698   5.899  11.302   9.355  1.8022  1.2563 -1.2314
  109MOL0     H14699   5.387   9.973  10.215 -3.1168 -0.0303  0.5439
  109MOL0     H14700   5.526   9.796  10.272  3.5297  2.5500 -2.5100
  109MOL0     H14701   5.468   9.284  10.435  0.9786  1.0581  1.2665
  109MOL0     H14702   5.622   9.111  10.492 -0.9460  1.2738  1.2469
  109MOL0     H14703   5.919   9.163  10.495  2.0536  0.6719  0.1759
  109MOL0     H14704   6.023   9.127  10.365  0.5573 -0.1420  0.7404
  109MOL0     H14705   6.123   8.970  10.502  0.0917  1.8886 -0.8251
  109MOL0     H14706   5.961   8.879  10.507  0.1281  0.0668 -1.7207
  109MOL0     H14707   6.069   9.090  10.694  2.5901 -1.9346  1.4669
  109MOL0     H14708   6.065   8.923  10.723 -1.4882 -0.7291  0.3695
  109MOL0     H14709   5.827   9.105  10.703 -2.0730 -1.0132 -0.2641
  109MOL0     H14710   5.819   8.930  10.679  0.1805 -0.7673  1.0122
  109MOL0     H14711   5.894   8.963  11.097  2.4569  1.6791  0.3136
  109MOL0     H14712   5.834   9.168  10.115  0.6648  1.0138  0.4981
  109MOL0     H14713   5.734   9.284   9.956 -0.5410  0.2943 -1.1997
  109MOL0     H14714   5.615   9.389   9.974  1.0321 -1.1574 -1.7026
  109MOL0     H14715   5.786   9.434  10.032 -0.5164 -1.3436  1.1004
  110MOL0     O14716   4.488   0.960   4.219  0.0020 -0.0558 -0.1923
  110MOL0     C14717   4.588   0.912   4.277 -0.0247 -0.1434 -0.1598
  110MOL0     O14718   4.590   0.782   4.333 -0.1561 -0.4041 -0.2098
  110MOL0     C14719   4.471   0.717   4.356  0.8236  0.0480  0.1870
  110MOL0     C14720   4.476   0.582   4.388 -0.3017 -0.0834  0.2044
  110MOL0     C14721   4.365   0.507   4.444 -0.0898 -0.2880  0.0955
  110MOL0     C14722   4.244   0.575   4.463  0.2161  0.4383  0.7877
  110MOL0     O14723   4.127   0.502   4.506 -0.4615 -0.1218  1.3317
  110MOL0     C14724   4.135   0.454   4.641 -0.1939  0.6321  0.6091
  110MOL0     C14725   4.092   0.557   4.734  0.5584  0.0608 -0.3263
  110MOL0     C14726   4.097   0.502   4.876  1.1486  0.0716  0.2666
  110MOL0     C14727   4.062   0.611   4.979 -1.0999  0.4311  0.2872
  110MOL0     C14728   4.059   0.569   5.121 -0.4386 -0.1494  1.2481
  110MOL0     C14729   3.960   0.655   5.210 -1.1678 -0.5084  0.0381
  110MOL0     C14730   4.032   0.785   5.263  0.2486  0.2792  0.3451
  110MOL0     C14731   3.930   0.888   5.305  0.1186  1.1238 -0.3288
  110MOL0     N14732   3.991   1.020   5.317  0.2502 -0.3663  0.2864
  110MOL0     C14733   4.116   1.054   5.375 -0.1995  0.3124  0.0455
  110MOL0     C14734   4.130   1.183   5.360  0.5268  0.0061 -0.5544
  110MOL0     C14735   4.247   1.274   5.393  0.4511  0.7084 -0.6063
  110MOL0     C14736   4.322   1.313   5.266  0.1020 -0.2108  0.0603
  110MOL0     C14737   4.449   1.385   5.307 -0.2206 -0.5432 -0.0437
  110MOL0     C14738   4.574   1.294   5.328 -0.3779  1.3514 -0.5247
  110MOL0     O14739   4.658   1.328   5.224 -0.2234 -0.6840  0.4920
  110MOL0     C14740   4.776   1.253   5.217 -0.0565 -0.7121  0.1368
  110MOL0     C14741   4.831   1.189   5.319 -0.0015  0.2303 -0.1886
  110MOL0     C14742   4.943   1.113   5.307  0.0445  0.5181  1.2182
  110MOL0     C14743   5.018   1.106   5.187  0.8663 -0.2342 -0.3461
  110MOL0     C14744   5.140   1.030   5.172 -0.3713 -0.3314 -0.2333
  110MOL0     O14745   5.202   1.040   5.047  0.5133 -0.1491  0.0894
  110MOL0     C14746   5.310   0.960   5.018  0.4658 -0.0716  0.6653
  110MOL0     C14747   5.295   0.847   4.938 -0.0469  0.2076 -0.0352
  110MOL0     C14748   5.418   0.766   4.923  0.9186 -0.1680 -0.0578
  110MOL0     C14749   5.541   0.805   4.977 -1.4007  0.9587 -0.1653
  110MOL0     O14750   5.666   0.743   4.953  0.2002  0.4891  0.3679
  110MOL0     C14751   5.679   0.618   5.040  0.8935 -0.0030 -0.2239
  110MOL0     C14752   5.770   0.507   4.986  0.2429  0.3893  0.3119
  110MOL0     C14753   5.913   0.538   4.949  1.0205 -0.7447 -0.1359
  110MOL0     C14754   6.005   0.586   5.066  0.1641  0.0667  1.0130
  110MOL0     C14755   6.147   0.575   5.007 -0.0589  0.0899  0.1470
  110MOL0     C14756   6.248   0.626   5.110 -0.9635  0.5550 -0.0900
  110MOL0     C14757   6.373   0.665   5.036 -0.0570 -0.8563  0.0623
  110MOL0     C14758   6.437   0.564   4.953  0.5604  0.4009  0.2056
  110MOL0    Cl14759   6.596   0.610   4.901  0.1190  0.1306 -0.1385
  110MOL0     C14760   5.544   0.924   5.056 -0.3302  0.0280 -0.3567
  110MOL0     C14761   5.427   1.000   5.073  0.2809 -0.9285  0.2648
  110MOL0     O14762   5.196   0.996   5.278 -0.0592 -0.0908  0.2952
  110MOL0     C14763   4.952   1.178   5.075 -0.2206  1.0204 -0.4053
  110MOL0     C14764   4.837   1.252   5.094  0.2513 -0.2305  0.0682
  110MOL0     N14765   4.019   1.229   5.296 -0.1776  0.3261  0.0803
  110MOL0     N14766   3.938   1.137   5.276 -0.1816 -0.1882  0.0711
  110MOL0     C14767   4.231   0.712   4.431 -0.7494  0.3462 -0.0335
  110MOL0     C14768   4.347   0.780   4.377  0.5024  0.1693  0.0810
  110MOL0     C14769   4.720   0.981   4.266 -0.5342 -0.2864 -0.4796
  110MOL0     C14770   4.832   0.906   4.290 -0.0701  1.0959 -0.5199
  110MOL0     C14771   4.960   0.966   4.291 -0.9930  0.1313  0.2119
  110MOL0     C14772   4.981   1.102   4.280 -0.0961  0.0942 -0.5171
  110MOL0     O14773   5.109   1.143   4.301 -0.6287 -0.3965  0.2401
  110MOL0     C14774   5.141   1.282   4.275  0.0443  0.3252  0.1069
  110MOL0     C14775   5.290   1.304   4.246  0.6362 -0.2845  0.7352
  110MOL0     C14776   5.377   1.345   4.363 -0.2582 -0.3991  0.0966
  110MOL0     C14777   5.534   1.340   4.326 -0.1318 -0.6622  1.3507
  110MOL0     C14778   5.612   1.352   4.449 -0.0247  0.5145  0.5606
  110MOL0     C14779   5.646   1.378   4.562  0.0744 -0.4544 -0.6534
  110MOL0     C14780   4.868   1.185   4.265 -0.0172  0.6389 -0.0861
  110MOL0     C14781   4.741   1.124   4.259 -0.3389  0.6276 -0.4116
  110MOL0     C14782   4.621   1.210   4.243 -0.0693 -0.2568 -0.4544
  110MOL0     H14783   4.571   0.534   4.367 -1.6576 -1.9385 -2.1861
  110MOL0     H14784   4.379   0.403   4.469  1.6728 -0.4693 -1.4677
  110MOL0     H14785   4.053   0.382   4.650  2.0647 -1.9579  1.5958
  110MOL0     H14786   4.229   0.409   4.673 -1.7548 -0.9373  3.3135
  110MOL0     H14787   3.987   0.582   4.714  0.8936  0.9657 -1.0279
  110MOL0     H14788   4.156   0.646   4.736 -1.4464  1.5725  0.6515
  110MOL0     H14789   4.193   0.455   4.899  0.9284 -1.3355 -1.4218
  110MOL0     H14790   4.016   0.429   4.888 -0.2672  1.8942  2.4712
  110MOL0     H14791   4.138   0.690   4.977 -0.0764 -0.5144  0.9594
  110MOL0     H14792   3.962   0.649   4.952 -1.4209 -0.4447  0.2214
  110MOL0     H14793   4.029   0.464   5.117 -0.4483 -0.1241 -2.1228
  110MOL0     H14794   4.163   0.565   5.155  2.0610 -0.9043 -5.1613
  110MOL0     H14795   3.863   0.677   5.163 -1.2486  0.9062  0.8053
  110MOL0     H14796   3.952   0.593   5.299  2.3080 -1.0794  0.0651
  110MOL0     H14797   4.099   0.817   5.183  2.1978  1.3182  2.3013
  110MOL0     H14798   4.101   0.760   5.344  0.8156 -2.8678 -0.9425
  110MOL0     H14799   3.844   0.898   5.239 -0.4842 -4.0038 -0.7408
  110MOL0     H14800   3.886   0.865   5.403  1.6794 -0.3585  0.0868
  110MOL0     H14801   4.186   0.985   5.421 -0.9435 -1.4166 -1.2678
  110MOL0     H14802   4.193   1.355   5.442  1.0495  2.7002 -3.0427
  110MOL0     H14803   4.314   1.220   5.460 -1.8456 -0.8761  0.5906
  110MOL0     H14804   4.344   1.228   5.201 -1.6596  1.0654 -2.4057
  110MOL0     H14805   4.258   1.378   5.204  0.0015 -1.4370 -1.1688
  110MOL0     H14806   4.439   1.449   5.395  2.9894 -0.9644  0.7401
  110MOL0     H14807   4.476   1.466   5.238 -3.1729  0.0155 -0.6801
  110MOL0     H14808   4.539   1.190   5.327 -0.5900  1.3720 -3.2630
  110MOL0     H14809   4.618   1.314   5.426 -1.6893 -2.2738  0.9852
  110MOL0     H14810   4.779   1.181   5.414 -1.3248 -2.6639 -1.0308
  110MOL0     H14811   4.957   1.049   5.393 -0.3474  1.2607  1.8395
  110MOL0     H14812   5.206   0.827   4.879 -0.9126 -1.3455  1.6561
  110MOL0     H14813   5.412   0.671   4.872  0.0818 -0.0207 -0.2514
  110MOL0     H14814   5.720   0.658   5.133  1.2012 -0.4663 -0.1577
  110MOL0     H14815   5.577   0.580   5.051  0.4597  1.2241  0.2329
  110MOL0     H14816   5.764   0.419   5.050  2.0451 -1.5880 -2.0626
  110MOL0     H14817   5.720   0.473   4.895 -0.0262 -1.4092  1.0961
  110MOL0     H14818   5.951   0.442   4.913  1.3683 -0.9424  0.7359
  110MOL0     H14819   5.909   0.602   4.861  1.0682 -2.6979 -1.6251
  110MOL0     H14820   5.987   0.523   5.153 -0.1683 -2.3855 -0.7221
  110MOL0     H14821   5.971   0.688   5.084 -0.8979 -0.1102  0.1462
  110MOL0     H14822   6.151   0.643   4.921 -1.2513  1.8495  1.4013
  110MOL0     H14823   6.174   0.479   4.962 -0.1604  1.9791 -4.5346
  110MOL0     H14824   6.208   0.715   5.159 -1.6468 -1.3757  3.1614
  110MOL0     H14825   6.277   0.553   5.186  0.0995  0.6469 -0.3877
  110MOL0     H14826   6.446   0.688   5.114 -0.2132  1.4028 -0.3899
  110MOL0     H14827   6.347   0.751   4.974  1.9117  1.0337  1.6790
  110MOL0     H14828   6.453   0.468   5.003  2.9804  0.6195  0.0062
  110MOL0     H14829   6.383   0.544   4.860 -0.1593 -0.5354  0.8006
  110MOL0     H14830   5.641   0.944   5.100  1.1573 -1.5838 -2.6513
  110MOL0     H14831   5.436   1.083   5.142 -0.2040  0.0878 -0.8517
  110MOL0     H14832   4.987   1.176   4.972  0.5201 -0.9734 -0.1549
  110MOL0     H14833   4.793   1.297   5.006  0.4066 -1.6453 -0.7598
  110MOL0     H14834   4.136   0.763   4.445 -1.4932 -0.3416 -2.2118
  110MOL0     H14835   4.339   0.887   4.362  0.4405 -0.2869 -4.3445
  110MOL0     H14836   4.828   0.798   4.303  2.3162  1.1347  1.0699
  110MOL0     H14837   5.047   0.901   4.303  1.0733  2.7244  0.2947
  110MOL0     H14838   5.112   1.325   4.371  0.0312  2.4749 -0.8008
  110MOL0     H14839   5.080   1.331   4.198  0.9224  0.3599 -0.5843
  110MOL0     H14840   5.309   1.378   4.167 -1.1732 -1.7808 -1.2157
  110MOL0     H14841   5.337   1.210   4.216  1.8503  0.5207  0.0002
  110MOL0     H14842   5.340   1.290   4.450 -1.2583 -0.6723 -0.4891
  110MOL0     H14843   5.357   1.451   4.385  3.3281  0.5345 -0.4599
  110MOL0     H14844   5.561   1.246   4.276 -0.3792  0.5680 -1.2162
  110MOL0     H14845   5.573   1.421   4.264 -1.7387 -0.0952  1.0248
  110MOL0     H14846   5.689   1.404   4.656 -1.0187 -1.2710  0.0847
  110MOL0     H14847   4.875   1.294   4.259  0.9163  0.5940 -0.0519
  110MOL0     H14848   4.581   1.195   4.143 -0.1300 -0.0552 -0.4606
  110MOL0     H14849   4.561   1.184   4.331  3.3629 -0.5892  1.9876
  110MOL0     H14850   4.658   1.312   4.250  2.0014 -0.9950 -0.0485
  111MOL0     O14851   3.744   0.208   0.093 -0.8629 -0.2248 -0.9170
  111MOL0     C14852   3.704   0.158   0.197  0.5996  0.2060 -1.2558
  111MOL0     O14853   3.780   0.145   0.306 -0.4046  0.7705 -0.9210
  111MOL0     C14854   3.917   0.167   0.296 -0.3835  0.2650  0.1314
  111MOL0     C14855   3.983   0.271   0.371 -0.3365  0.7215  0.2324
  111MOL0     C14856   4.125   0.287   0.376  0.0073  0.5319 -0.6837
  111MOL0     C14857   4.197   0.201   0.291  0.4460 -1.3574 -0.0725
  111MOL0     O14858   4.328   0.225   0.277 -0.5708 -0.6733  0.2039
  111MOL0     C14859   4.412   0.108   0.244  0.0751  0.3109  0.1929
  111MOL0     C14860   4.560   0.139   0.280  0.2455 -0.1060 -0.3975
  111MOL0     C14861   4.659   0.024   0.252 -0.6300 -0.0133 -0.0365
  111MOL0     C14862   4.809   0.061   0.268 -0.1881 -0.8254  0.2872
  111MOL0     C14863   4.860   0.146   0.151  0.3749  0.2032 -0.2065
  111MOL0     C14864   5.011   0.154   0.159 -0.1008 -0.0935 -0.3223
  111MOL0     C14865   5.076   0.242   0.051 -0.2451  0.1106  0.5715
  111MOL0     C14866   5.219   0.277   0.092 -0.5165 -0.2238 -0.7940
  111MOL0     N14867   5.288   0.356  -0.001  0.3984 -0.0030  0.1767
  111MOL0     C14868   5.390   0.311  -0.080  0.5005 -0.4387  0.3275
  111MOL0     C14869   5.417   0.410  -0.168 -0.4461 -0.9991  0.0250
  111MOL0     C14870   5.531   0.425  -0.254 -0.4531  0.7296  1.2454
  111MOL0     C14871   5.669   0.448  -0.184 -1.1228 -0.0128 -0.1368
  111MOL0     C14872   5.786   0.464  -0.282  0.8684  0.0801  0.2131
  111MOL0     C14873   5.908   0.515  -0.220  0.2332  0.3871 -1.2291
  111MOL0     O14874   6.008   0.525  -0.324  0.3495 -0.0322 -0.3056
  111MOL0     C14875   6.138   0.561  -0.292 -0.3844 -0.5929 -0.3985
  111MOL0     C14876   6.238   0.519  -0.382 -0.0537 -1.0494 -0.1180
  111MOL0     C14877   6.374   0.529  -0.354 -0.0708  0.2296  0.4351
  111MOL0     C14878   6.415   0.590  -0.237  0.1373  0.3519  0.1854
  111MOL0     C14879   6.559   0.589  -0.202 -0.0298  0.6950 -0.5481
  111MOL0     O14880   6.584   0.605  -0.074 -0.2210 -0.3145  0.1911
  111MOL0     C14881   6.709   0.619  -0.029 -0.2934  0.2050  0.1055
  111MOL0     C14882   6.773   0.736  -0.054  0.2656 -0.2792 -0.1132
  111MOL0     C14883   6.898   0.761  -0.002 -0.0459 -0.2813 -0.5987
  111MOL0     C14884   6.962   0.663   0.079  0.4503  0.3779  0.6478
  111MOL0     O14885   7.091   0.692   0.125 -0.2573  0.5512 -0.1375
  111MOL0     C14886   7.174   0.595   0.189  0.0499 -1.1985  0.0958
  111MOL0     C14887   7.254   0.499   0.091  0.0633  0.5071  0.7813
  111MOL0     C14888   7.313   0.569  -0.028 -0.3927 -0.3842 -0.2979
  111MOL0     C14889   7.369   0.467  -0.122  0.6290 -0.2079  1.0293
  111MOL0     C14890   7.405   0.531  -0.261  0.0769 -0.7700 -0.2686
  111MOL0     C14891   7.457   0.430  -0.360  0.4621  0.2906 -0.8800
  111MOL0     C14892   7.508   0.504  -0.485 -1.1482  0.2495  0.6266
  111MOL0     C14893   7.589   0.414  -0.575 -0.4097  0.1623  0.0161
  111MOL0    Cl14894   7.496   0.268  -0.628 -0.1253  0.1446  0.4588
  111MOL0     C14895   6.904   0.538   0.094  0.1651 -0.2552  0.4750
  111MOL0     C14896   6.774   0.517   0.049  0.2738  0.0294 -0.4440
  111MOL0     O14897   6.644   0.577  -0.290 -0.1182 -0.1345 -0.1116
  111MOL0     C14898   6.319   0.647  -0.150  0.3336 -1.0924 -0.1980
  111MOL0     C14899   6.183   0.623  -0.171  0.3968 -0.1124  0.7805
  111MOL0     N14900   5.331   0.515  -0.129 -0.3303 -0.0442  0.1275
  111MOL0     N14901   5.259   0.478  -0.031  0.3298 -0.0856 -0.2352
  111MOL0     C14902   4.133   0.089   0.231  0.3975 -0.6593  0.0820
  111MOL0     C14903   3.995   0.075   0.223 -0.3158 -0.4585  0.9396
  111MOL0     C14904   3.564   0.110   0.204 -0.5698 -0.3732  0.1108
  111MOL0     C14905   3.516   0.083   0.336 -0.5807 -0.1069 -0.2988
  111MOL0     C14906   3.385   0.032   0.342 -0.5396  0.6878 -0.2213
  111MOL0     C14907   3.301   0.017   0.229 -0.9500  0.2079  0.7030
  111MOL0     O14908   3.175  -0.014   0.259 -0.1119  0.1108 -0.2658
  111MOL0     C14909   3.082  -0.003   0.146 -1.0165  0.0217  0.0020
  111MOL0     C14910   2.931  -0.014   0.183 -0.9754  0.4612  0.2067
  111MOL0     C14911   2.885   0.078   0.291 -0.0260 -0.7667 -1.2772
  111MOL0     C14912   2.731   0.111   0.302  0.5515 -0.5289  0.3618
  111MOL0     C14913   2.672   0.189   0.191  1.2044  0.3965  0.1218
  111MOL0     C14914   2.622   0.245   0.100  0.2566 -0.6332 -0.0443
  111MOL0     C14915   3.359   0.044   0.108 -0.5530  0.5183  0.7042
  111MOL0     C14916   3.487   0.082   0.093  0.5127  0.3662  0.2947
  111MOL0     C14917   3.538   0.094  -0.054 -0.3972 -0.6596  0.1807
  111MOL0     H14918   3.925   0.342   0.431  0.3790  1.5450 -0.0338
  111MOL0     H14919   4.169   0.356   0.447 -0.3948 -1.2167  1.3882
  111MOL0     H14920   4.385   0.028   0.314 -0.9269  3.2649  3.4809
  111MOL0     H14921   4.400   0.088   0.137  3.8966 -1.6253 -0.0176
  111MOL0     H14922   4.567   0.163   0.386 -0.0631 -1.3082 -0.0828
  111MOL0     H14923   4.583   0.225   0.217  3.1037 -0.8318 -0.4454
  111MOL0     H14924   4.640  -0.016   0.152  1.9665 -1.4177 -0.0655
  111MOL0     H14925   4.647  -0.056   0.325 -0.5342 -0.6796 -0.7371
  111MOL0     H14926   4.832   0.120   0.357 -1.5284 -0.5932  0.4917
  111MOL0     H14927   4.871  -0.029   0.272  1.6934  0.3312 -1.0204
  111MOL0     H14928   4.834   0.103   0.054  2.2691 -1.0633 -0.1924
  111MOL0     H14929   4.818   0.247   0.154 -1.1570 -0.4193  0.1262
  111MOL0     H14930   5.031   0.199   0.257 -0.4576  0.0724 -0.3246
  111MOL0     H14931   5.064   0.059   0.152 -1.3786 -1.0827  2.3775
  111MOL0     H14932   5.012   0.330   0.043  0.8671  0.9124  0.1762
  111MOL0     H14933   5.072   0.190  -0.045  0.5022  2.1407 -0.6479
  111MOL0     H14934   5.215   0.325   0.190  0.7942 -1.3608 -0.1481
  111MOL0     H14935   5.290   0.194   0.098 -0.1560 -0.1801 -3.3056
  111MOL0     H14936   5.439   0.215  -0.070  0.0654 -0.5821  1.2383
  111MOL0     H14937   5.520   0.329  -0.307 -0.5258  0.7034  1.3073
  111MOL0     H14938   5.518   0.509  -0.323 -1.0679 -1.4581 -1.5101
  111MOL0     H14939   5.660   0.546  -0.136 -1.1626 -0.3223  0.4999
  111MOL0     H14940   5.698   0.372  -0.110  3.2190  1.6354  0.1666
  111MOL0     H14941   5.754   0.538  -0.357  0.9141 -1.0112 -0.9273
  111MOL0     H14942   5.796   0.368  -0.334  0.5920 -2.3243  4.2518
  111MOL0     H14943   5.948   0.451  -0.140  2.2543  3.5104  0.4645
  111MOL0     H14944   5.889   0.608  -0.166  1.4138 -0.0989  0.1039
  111MOL0     H14945   6.194   0.467  -0.466 -3.7377  0.2663  0.7751
  111MOL0     H14946   6.437   0.472  -0.422 -3.2898 -1.8877 -1.0516
  111MOL0     H14947   6.719   0.816  -0.104  0.0533  1.3673  2.5359
  111MOL0     H14948   6.948   0.854  -0.028  0.2656  0.4148  2.1519
  111MOL0     H14949   7.245   0.651   0.251 -2.3315  1.7591  0.3873
  111MOL0     H14950   7.115   0.538   0.261  0.9042 -1.0574  0.9280
  111MOL0     H14951   7.328   0.440   0.146  1.3551  0.2153 -1.1696
  111MOL0     H14952   7.191   0.418   0.052  1.4760  0.5504 -1.8370
  111MOL0     H14953   7.257   0.646  -0.083 -0.7100  0.4758  1.1740
  111MOL0     H14954   7.390   0.640   0.004  0.1203 -0.8423 -0.5204
  111MOL0     H14955   7.309   0.377  -0.139  1.7483 -0.3390 -3.9724
  111MOL0     H14956   7.462   0.424  -0.083  0.4790  0.1297  1.7650
  111MOL0     H14957   7.476   0.614  -0.253  2.0610 -2.3774 -0.6601
  111MOL0     H14958   7.319   0.578  -0.310  2.1244  1.7566 -1.7367
  111MOL0     H14959   7.533   0.375  -0.304  0.1340  2.3012  1.7284
  111MOL0     H14960   7.387   0.350  -0.387 -0.4807  0.5933  0.5635
  111MOL0     H14961   7.575   0.583  -0.450 -0.3591 -0.3106  0.3799
  111MOL0     H14962   7.432   0.561  -0.541 -0.6310 -0.6793 -1.0921
  111MOL0     H14963   7.622   0.472  -0.662  1.5852 -2.6501 -1.2772
  111MOL0     H14964   7.678   0.371  -0.528 -0.7748 -0.1002  0.4742
  111MOL0     H14965   6.942   0.446   0.138  2.1454  1.7884  3.5196
  111MOL0     H14966   6.737   0.416   0.063  0.8427 -0.1137  0.0305
  111MOL0     H14967   6.352   0.697  -0.059  0.1005  0.6929 -1.0535
  111MOL0     H14968   6.109   0.662  -0.101  1.0318  1.9934  0.3418
  111MOL0     H14969   4.176   0.006   0.176 -1.4629 -0.7831 -1.2435
  111MOL0     H14970   3.949  -0.001   0.161 -0.9143 -1.2955  2.3537
  111MOL0     H14971   3.577   0.092   0.426  2.5202 -2.0939 -2.0104
  111MOL0     H14972   3.353  -0.010   0.437  3.0926 -4.9860 -1.0177
  111MOL0     H14973   3.117  -0.075   0.072  3.9274  0.2735  1.7603
  111MOL0     H14974   3.100   0.100   0.115  1.0591  0.1515  1.3907
  111MOL0     H14975   2.919  -0.118   0.216  0.5368  0.8206  1.9927
  111MOL0     H14976   2.861  -0.011   0.098 -1.4824 -0.8284  0.5508
  111MOL0     H14977   2.942   0.172   0.282  1.8410 -1.8761 -1.5039
  111MOL0     H14978   2.914   0.029   0.384 -2.3355 -0.0704 -0.1132
  111MOL0     H14979   2.681   0.017   0.327  1.6567 -1.6240 -1.3579
  111MOL0     H14980   2.703   0.174   0.387  1.3353  0.3017  0.0244
  111MOL0     H14981   2.576   0.291   0.015  1.8768 -1.5775 -1.5036
  111MOL0     H14982   3.298   0.031   0.019  1.3143  0.3899 -0.6078
  111MOL0     H14983   3.467   0.046  -0.122 -2.6834 -0.5222  2.3306
  111MOL0     H14984   3.556   0.197  -0.085  1.4347 -1.1193 -0.3979
  111MOL0     H14985   3.636   0.046  -0.060  0.3775  0.9216 -0.2749
  112MOL0     O14986   3.142   7.814   2.738 -0.2724  0.8725  1.2089
  112MOL0     C14987   3.117   7.697   2.748 -0.4103 -0.5486  0.2547
  112MOL0     O14988   3.204   7.608   2.770  0.3179 -0.2188 -0.2912
  112MOL0     C14989   3.335   7.631   2.758  0.1797 -0.1494  0.1820
  112MOL0     C14990   3.403   7.606   2.635  0.4634  0.0243 -0.4182
  112MOL0     C14991   3.542   7.624   2.633 -0.4250 -0.0879 -0.6256
  112MOL0     C14992   3.609   7.668   2.757 -0.0879 -0.5398 -0.5017
  112MOL0     O14993   3.747   7.678   2.755  0.2566 -0.3393 -0.3512
  112MOL0     C14994   3.811   7.757   2.847 -0.3164 -0.2677  0.0770
  112MOL0     C14995   3.966   7.752   2.822  0.2400  0.1335  0.1688
  112MOL0     C14996   4.004   7.611   2.821  0.3336 -0.1447 -0.6227
  112MOL0     C14997   4.154   7.579   2.800  0.0587  0.1264 -0.9978
  112MOL0     C14998   4.173   7.442   2.745  0.1900  0.3393  0.5249
  112MOL0     C14999   4.318   7.407   2.725 -1.1148 -0.1975  0.4970
  112MOL0     C15000   4.371   7.487   2.602 -0.0266 -0.6665  0.2367
  112MOL0     C15001   4.521   7.445   2.574  0.0102 -0.6907  0.8030
  112MOL0     N15002   4.622   7.505   2.663 -0.4296  0.1942  0.0238
  112MOL0     C15003   4.659   7.639   2.651  0.5625 -0.0486  0.0833
  112MOL0     C15004   4.775   7.639   2.718 -0.1868 -0.6504  0.7068
  112MOL0     C15005   4.867   7.760   2.738 -0.6815 -0.6041  0.1647
  112MOL0     C15006   4.926   7.808   2.596  0.1928 -0.2428 -1.2198
  112MOL0     C15007   5.025   7.707   2.538  0.4878  0.6112  0.1027
  112MOL0     C15008   5.082   7.749   2.408  0.0315  0.3022 -0.8113
  112MOL0     O15009   5.169   7.865   2.433 -0.4357  0.9175  0.3370
  112MOL0     C15010   5.256   7.893   2.335  0.4043 -0.2272  1.1820
  112MOL0     C15011   5.243   7.847   2.203  0.2102  0.5957 -0.0633
  112MOL0     C15012   5.355   7.869   2.114 -0.7317  0.5815 -1.1280
  112MOL0     C15013   5.469   7.946   2.147  0.0677  0.4173 -0.0840
  112MOL0     C15014   5.581   7.958   2.055  0.0831  0.2967 -1.1355
  112MOL0     O15015   5.674   8.058   2.089 -0.1636  0.1884 -0.5355
  112MOL0     C15016   5.785   8.087   2.017  0.1886 -0.0276  1.0263
  112MOL0     C15017   5.889   7.992   2.007  0.6443 -0.3135 -0.2750
  112MOL0     C15018   5.998   8.020   1.928  1.1646 -0.4384  0.4982
  112MOL0     C15019   6.013   8.143   1.853 -0.8432  0.1333 -0.1285
  112MOL0     O15020   6.130   8.151   1.780  0.0972  0.2449 -0.6498
  112MOL0     C15021   6.113   8.202   1.638 -0.2562  0.5616 -0.5425
  112MOL0     C15022   6.234   8.178   1.554 -0.1672 -2.4430  0.0288
  112MOL0     C15023   6.364   8.246   1.594  0.8570 -0.1087 -0.4610
  112MOL0     C15024   6.352   8.399   1.567 -0.3146 -0.2186 -0.9209
  112MOL0     C15025   6.491   8.474   1.564 -0.1034 -0.3357  0.2683
  112MOL0     C15026   6.469   8.628   1.593  0.7342  0.4275  0.1370
  112MOL0     C15027   6.426   8.661   1.739  0.2988 -0.5697 -0.6719
  112MOL0     C15028   6.415   8.811   1.752 -0.2298 -0.7231 -1.5154
  112MOL0    Cl15029   6.577   8.883   1.760  0.3005 -0.1431 -0.4764
  112MOL0     C15030   5.903   8.232   1.861  0.0462 -0.3964 -0.4832
  112MOL0     C15031   5.786   8.210   1.937 -0.2564  0.2692  0.4014
  112MOL0     O15032   5.592   7.880   1.958  0.5353 -1.0956 -0.2015
  112MOL0     C15033   5.468   8.009   2.272 -0.1889  0.5551  0.0252
  112MOL0     C15034   5.362   7.981   2.362 -0.6620 -0.0623  0.5610
  112MOL0     N15035   4.802   7.511   2.770  0.2213 -0.5342  1.4208
  112MOL0     N15036   4.710   7.428   2.729 -0.5503  0.4654 -0.2352
  112MOL0     C15037   3.533   7.696   2.868  0.6661 -1.5970  0.0404
  112MOL0     C15038   3.397   7.674   2.872  0.1413 -0.6417 -0.5588
  112MOL0     C15039   2.975   7.661   2.750 -0.7322  0.6134 -0.5980
  112MOL0     C15040   2.888   7.760   2.786  0.0280 -0.0454  0.5201
  112MOL0     C15041   2.752   7.729   2.817 -0.1357 -0.6687  0.8283
  112MOL0     C15042   2.710   7.596   2.813  0.5425 -0.0565  0.1137
  112MOL0     O15043   2.589   7.541   2.842 -0.1880  0.7955 -0.0700
  112MOL0     C15044   2.483   7.619   2.886  1.0091  0.2812  0.3405
  112MOL0     C15045   2.480   7.646   3.040  0.0526 -0.2294  0.5919
  112MOL0     C15046   2.442   7.517   3.120  0.2715 -0.5615  0.2093
  112MOL0     C15047   2.454   7.546   3.266 -0.4181 -0.8821 -0.5319
  112MOL0     C15048   2.601   7.550   3.300 -0.3412  0.0114 -0.4782
  112MOL0     C15049   2.716   7.536   3.333  0.0777  0.7602  0.4155
  112MOL0     C15050   2.800   7.505   2.761  0.0947 -0.5349  0.2771
  112MOL0     C15051   2.934   7.532   2.728  0.6048 -0.2115 -1.0219
  112MOL0     C15052   3.014   7.411   2.681 -0.0437 -1.0392 -0.3545
  112MOL0     H15053   3.345   7.575   2.549 -2.1396  0.0324  1.2395
  112MOL0     H15054   3.602   7.607   2.545 -0.2904 -0.7145 -0.4162
  112MOL0     H15055   3.769   7.858   2.859  1.5364  1.3542 -4.7983
  112MOL0     H15056   3.797   7.712   2.946 -1.1311  2.7570  1.4930
  112MOL0     H15057   4.024   7.827   2.878 -1.1404  3.3054 -2.3613
  112MOL0     H15058   4.000   7.786   2.724  0.9872 -1.8814 -0.3160
  112MOL0     H15059   3.960   7.568   2.730  1.9944  1.4466 -2.2633
  112MOL0     H15060   3.973   7.552   2.908  1.4495  1.3820  0.8705
  112MOL0     H15061   4.190   7.660   2.736  0.5473  1.5104  0.9424
  112MOL0     H15062   4.210   7.581   2.894 -0.6598  2.9357 -0.5489
  112MOL0     H15063   4.135   7.373   2.821  1.4020  0.4436  1.2439
  112MOL0     H15064   4.121   7.423   2.651  0.7756 -2.2912  0.6614
  112MOL0     H15065   4.370   7.442   2.814  0.4580  2.7974 -1.4050
  112MOL0     H15066   4.327   7.300   2.704  0.7316  0.0980 -0.3577
  112MOL0     H15067   4.378   7.590   2.636  0.6005 -0.1301 -1.3987
  112MOL0     H15068   4.300   7.483   2.519 -0.8120 -3.6060  0.9121
  112MOL0     H15069   4.527   7.335   2.578  0.9016 -0.6644  0.5920
  112MOL0     H15070   4.559   7.469   2.474 -0.1731 -0.5820  0.7602
  112MOL0     H15071   4.627   7.713   2.578  1.7460 -0.9512 -1.4004
  112MOL0     H15072   4.816   7.850   2.772  2.6650  1.5920 -0.1650
  112MOL0     H15073   4.947   7.744   2.812  2.2031 -3.2551 -3.1246
  112MOL0     H15074   4.848   7.807   2.519 -3.0107 -1.0039  1.7482
  112MOL0     H15075   4.960   7.910   2.613 -0.0611 -0.0156 -2.0164
  112MOL0     H15076   4.973   7.612   2.521  1.7518 -0.6449  2.5993
  112MOL0     H15077   5.104   7.677   2.607  0.1965 -1.1511 -0.2801
  112MOL0     H15078   5.005   7.783   2.339 -0.6251  0.0049 -0.2426
  112MOL0     H15079   5.138   7.660   2.377  1.8318 -0.2823  3.4029
  112MOL0     H15080   5.159   7.783   2.179  1.0885 -0.1610 -1.2353
  112MOL0     H15081   5.364   7.806   2.026  0.3960  1.7032 -1.8547
  112MOL0     H15082   5.889   7.897   2.061  3.4488 -0.3132 -0.1643
  112MOL0     H15083   6.072   7.941   1.919  0.5113 -0.9628 -0.4386
  112MOL0     H15084   6.036   8.141   1.590 -0.0449 -0.4379  0.3448
  112MOL0     H15085   6.077   8.305   1.637 -2.9547 -0.2927 -2.2062
  112MOL0     H15086   6.254   8.070   1.560  3.5536 -1.8771  0.1384
  112MOL0     H15087   6.211   8.202   1.450  0.1843 -2.2032  0.0047
  112MOL0     H15088   6.367   8.222   1.701 -0.8802  4.3922  0.8293
  112MOL0     H15089   6.447   8.204   1.535  0.4226 -0.2187 -1.0018
  112MOL0     H15090   6.293   8.436   1.652  0.5822 -0.9317  0.0333
  112MOL0     H15091   6.292   8.417   1.477 -2.2991  1.3025  0.5975
  112MOL0     H15092   6.534   8.450   1.467  0.4134 -0.2383  0.4701
  112MOL0     H15093   6.559   8.436   1.641  0.4720 -0.9148 -0.5224
  112MOL0     H15094   6.555   8.688   1.563 -0.4552  1.6574 -0.9369
  112MOL0     H15095   6.387   8.652   1.524  0.4747 -1.0155 -0.0862
  112MOL0     H15096   6.498   8.622   1.811 -0.6239 -0.8888  0.0913
  112MOL0     H15097   6.334   8.608   1.766 -1.3181  2.0465 -0.6321
  112MOL0     H15098   6.352   8.858   1.676  0.0313  1.9697 -0.2175
  112MOL0     H15099   6.370   8.840   1.848  3.5743  0.1112  0.1950
  112MOL0     H15100   5.914   8.323   1.803  2.5343 -0.8696 -0.8492
  112MOL0     H15101   5.718   8.293   1.953  0.8006  1.5192 -1.2604
  112MOL0     H15102   5.551   8.076   2.292 -1.0807  1.7339 -0.1359
  112MOL0     H15103   5.358   8.024   2.461  0.8388 -2.7132  1.8886
  112MOL0     H15104   3.576   7.739   2.958 -0.1747 -1.7242  0.5116
  112MOL0     H15105   3.342   7.696   2.963 -3.3535  1.6333 -2.9526
  112MOL0     H15106   2.913   7.866   2.794  1.3078 -0.0691 -2.1544
  112MOL0     H15107   2.673   7.802   2.835 -1.1936 -1.5582 -0.0033
  112MOL0     H15108   2.388   7.570   2.863 -0.3175  0.9519  3.7888
  112MOL0     H15109   2.482   7.720   2.843 -0.2942  1.2282  2.4093
  112MOL0     H15110   2.401   7.722   3.051  1.2908  1.0397  1.0366
  112MOL0     H15111   2.567   7.702   3.075 -0.2896 -0.0806  1.2188
  112MOL0     H15112   2.493   7.424   3.091 -3.1250 -1.7842 -2.6522
  112MOL0     H15113   2.337   7.503   3.091 -0.1355  5.0076 -2.0958
  112MOL0     H15114   2.401   7.637   3.295 -2.7374 -0.5748 -4.8867
  112MOL0     H15115   2.418   7.462   3.325  4.0747 -2.1785  0.7630
  112MOL0     H15116   2.815   7.499   3.350  0.8642  2.3525 -0.4125
  112MOL0     H15117   2.761   7.405   2.746  0.4185 -0.7895  1.0819
  112MOL0     H15118   3.067   7.455   2.597 -3.2743  2.3608 -0.8741
  112MOL0     H15119   3.077   7.385   2.766 -0.2747 -0.7166 -0.0830
  112MOL0     H15120   2.947   7.332   2.644  2.4425 -3.7843  0.6646
  113MOL0     O15121   3.907  11.234   9.523  0.1412  0.0390 -0.3182
  113MOL0     C15122   3.874  11.146   9.445 -0.2024 -0.2457 -0.5318
  113MOL0     O15123   3.958  11.063   9.375 -0.0757  0.0449  0.0576
  113MOL0     C15124   4.096  11.055   9.410  0.6729 -1.0743  0.0315
  113MOL0     C15125   4.171  11.168   9.444  0.2456 -0.0847  0.0902
  113MOL0     C15126   4.304  11.149   9.478  0.1649 -0.5302 -0.6502
  113MOL0     C15127   4.369  11.027   9.463 -0.6170 -1.5036 -0.2338
  113MOL0     O15128   4.509  11.030   9.477  0.4441  0.4799  0.2594
  113MOL0     C15129   4.572  10.903   9.484 -0.6557 -0.1659 -0.5381
  113MOL0     C15130   4.718  10.932   9.498 -0.3611 -0.8803 -0.1282
  113MOL0     C15131   4.804  10.825   9.463 -0.2930  0.2436 -0.3396
  113MOL0     C15132   4.949  10.847   9.519  0.4328  0.4475 -0.4803
  113MOL0     C15133   5.023  10.721   9.554  0.7429  0.0780  0.0627
  113MOL0     C15134   5.128  10.739   9.655  0.0788  0.3888 -0.7345
  113MOL0     C15135   5.179  10.607   9.702  0.2967 -0.9362  0.5275
  113MOL0     C15136   5.277  10.551   9.600  0.1020  0.2273 -0.0886
  113MOL0     N15137   5.417  10.592   9.644  0.3002  0.0989 -0.4362
  113MOL0     C15138   5.529  10.556   9.584 -1.4341  0.7491  0.0771
  113MOL0     C15139   5.617  10.643   9.621  0.3774 -0.9422 -0.1433
  113MOL0     C15140   5.763  10.641   9.578  0.0203 -0.0812 -0.1148
  113MOL0     C15141   5.862  10.569   9.667  0.1947 -1.0668  0.0798
  113MOL0     C15142   5.829  10.424   9.669  1.0718 -0.0947 -0.2076
  113MOL0     C15143   5.766  10.378   9.802  0.2417  0.6014  0.0778
  113MOL0     O15144   5.839  10.438   9.905 -0.0733  0.1863 -0.5102
  113MOL0     C15145   5.974  10.400   9.931 -0.1467 -0.5190 -0.1077
  113MOL0     C15146   6.054  10.487  10.001  0.5160 -0.0047  0.3320
  113MOL0     C15147   6.191  10.462  10.025  0.5296 -1.0522 -0.4549
  113MOL0     C15148   6.250  10.355   9.963  0.0505  0.8401 -0.1187
  113MOL0     C15149   6.394  10.349   9.948  0.8913  0.0300  0.9047
  113MOL0     O15150   6.463  10.457   9.981  0.6220  0.1655  0.5249
  113MOL0     C15151   6.601  10.452   9.958  1.0303  0.3207  0.0054
  113MOL0     C15152   6.688  10.444  10.067 -0.0002  0.1685  0.1559
  113MOL0     C15153   6.819  10.464  10.045 -0.4959  0.3092  0.3585
  113MOL0     C15154   6.866  10.475   9.916  0.1588  0.5604 -0.5023
  113MOL0     O15155   6.999  10.488   9.886 -0.6271 -0.1695 -0.1223
  113MOL0     C15156   7.093  10.537   9.978  1.0039  0.0190 -0.5636
  113MOL0     C15157   7.220  10.584   9.909 -1.1199  0.6748  0.0904
  113MOL0     C15158   7.282  10.463   9.839 -0.2512  0.4858  0.7638
  113MOL0     C15159   7.426  10.489   9.804  0.4160 -0.0258 -0.0230
  113MOL0     C15160   7.476  10.380   9.717 -0.1960 -0.0697  0.1536
  113MOL0     C15161   7.616  10.413   9.664  0.1849  0.5632 -0.2397
  113MOL0     C15162   7.679  10.291   9.592  0.6711  0.6430  0.8985
  113MOL0     C15163   7.835  10.310   9.570 -0.0658  0.9356 -0.1497
  113MOL0    Cl15164   7.882  10.175   9.458 -0.3335  0.2089 -0.2505
  113MOL0     C15165   6.787  10.482   9.810 -0.0632 -0.1524 -0.8854
  113MOL0     C15166   6.651  10.467   9.831 -0.0858 -0.9265 -0.7258
  113MOL0     O15167   6.438  10.245   9.897  0.1469  0.0411 -0.1063
  113MOL0     C15168   6.167  10.261   9.898  0.0563 -0.1058  0.1061
  113MOL0     C15169   6.031  10.280   9.888  0.2223 -0.4233 -0.1654
  113MOL0     N15170   5.557  10.731   9.704  0.0738  0.1804  0.0915
  113MOL0     N15171   5.437  10.698   9.717  0.0052 -0.5342  0.2509
  113MOL0     C15172   4.291  10.916   9.415  0.4271 -0.7316  0.1424
  113MOL0     C15173   4.158  10.936   9.390 -0.6829 -0.3019  0.1941
  113MOL0     C15174   3.725  11.121   9.435 -0.6141 -0.1152  0.3440
  113MOL0     C15175   3.639  11.151   9.543  0.1840 -0.1050 -0.3602
  113MOL0     C15176   3.501  11.120   9.524  0.2421  0.0620 -0.0858
  113MOL0     C15177   3.449  11.073   9.399 -0.0006 -0.1652 -0.5963
  113MOL0     O15178   3.317  11.043   9.362 -1.0801  0.1411  0.1105
  113MOL0     C15179   3.223  11.013   9.471 -0.3810 -0.9345 -0.7429
  113MOL0     C15180   3.130  10.897   9.445 -0.3680 -0.6191  0.1681
  113MOL0     C15181   3.036  10.868   9.574  0.1386  0.8064 -1.1100
  113MOL0     C15182   2.938  10.973   9.628 -0.0890 -0.0068 -0.2095
  113MOL0     C15183   2.839  10.971   9.527  0.2482 -0.9793  0.3575
  113MOL0     C15184   2.749  10.965   9.442  1.1179 -0.8999 -1.1939
  113MOL0     C15185   3.536  11.044   9.296  0.4428  0.2537 -0.2237
  113MOL0     C15186   3.671  11.066   9.313  0.7588  0.4574  0.2770
  113MOL0     C15187   3.756  11.013   9.206  0.0584  0.4276  0.5781
  113MOL0     H15188   4.141  11.272   9.440  3.4491  0.9061 -0.7476
  113MOL0     H15189   4.357  11.241   9.500 -1.1712  0.7981 -2.5784
  113MOL0     H15190   4.544  10.857   9.580  2.5835 -0.1016  0.5692
  113MOL0     H15191   4.551  10.836   9.401  0.7399 -1.3376  0.0129
  113MOL0     H15192   4.748  10.957   9.600  1.6136 -1.1070 -0.6066
  113MOL0     H15193   4.750  11.022   9.444  1.4838 -1.5854 -0.2867
  113MOL0     H15194   4.804  10.785   9.361 -1.8533  2.3092 -1.2126
  113MOL0     H15195   4.753  10.742   9.514 -5.5323  0.7887 -3.8519
  113MOL0     H15196   5.017  10.898   9.449  2.3040 -0.5270  0.5384
  113MOL0     H15197   4.949  10.911   9.608 -0.2024 -1.1284  0.7088
  113MOL0     H15198   4.952  10.639   9.570  1.0650 -0.4555 -1.1176
  113MOL0     H15199   5.073  10.691   9.461 -3.6802 -1.5940 -2.0561
  113MOL0     H15200   5.206  10.808   9.621  0.0734  1.3089  1.0046
  113MOL0     H15201   5.087  10.782   9.747 -0.0440 -0.8694 -0.1876
  113MOL0     H15202   5.093  10.539   9.709 -1.0979  0.4580 -1.9177
  113MOL0     H15203   5.211  10.613   9.807  1.9933 -1.3331  0.0741
  113MOL0     H15204   5.265  10.442   9.611 -2.4252  0.3016 -1.2740
  113MOL0     H15205   5.269  10.583   9.496  0.1927  2.7797  0.6233
  113MOL0     H15206   5.547  10.477   9.512 -0.2119 -0.2113  1.3936
  113MOL0     H15207   5.785  10.606   9.476 -1.2222  2.1205 -1.2286
  113MOL0     H15208   5.782  10.749   9.577  0.3455 -0.1069  1.5094
  113MOL0     H15209   5.961  10.581   9.623 -0.6474 -0.5420 -1.7553
  113MOL0     H15210   5.853  10.624   9.761  1.4617  1.6650 -1.2930
  113MOL0     H15211   5.919  10.361   9.665  0.4306 -1.2111  1.5197
  113MOL0     H15212   5.767  10.393   9.584 -0.9759 -0.0217  1.1721
  113MOL0     H15213   5.770  10.269   9.807 -2.1356  0.4765  0.2578
  113MOL0     H15214   5.659  10.402   9.795  0.1504  0.0647 -0.4889
  113MOL0     H15215   6.000  10.578  10.027  1.3746  0.4627  0.4913
  113MOL0     H15216   6.253  10.535  10.076  0.7900 -2.0043  0.6418
  113MOL0     H15217   6.642  10.428  10.164  1.1587 -1.1124  0.5228
  113MOL0     H15218   6.888  10.456  10.128 -0.0294 -3.1369 -0.2155
  113MOL0     H15219   7.056  10.618  10.042  0.5945 -0.3622 -0.3099
  113MOL0     H15220   7.127  10.447  10.031  0.8898 -1.1400 -2.3709
  113MOL0     H15221   7.201  10.668   9.842 -0.2494 -0.5751 -1.8100
  113MOL0     H15222   7.286  10.624   9.986  2.5272 -2.6001 -0.9742
  113MOL0     H15223   7.275  10.371   9.898 -0.7150 -1.7851 -2.6144
  113MOL0     H15224   7.225  10.444   9.748 -0.4032 -0.5576  1.0621
  113MOL0     H15225   7.483  10.499   9.896 -2.1425  0.3079  1.6230
  113MOL0     H15226   7.431  10.585   9.752 -1.0419  0.2454  0.2898
  113MOL0     H15227   7.404  10.368   9.636 -0.2199 -1.8896  0.4197
  113MOL0     H15228   7.487  10.292   9.780  2.4675 -0.8721 -1.2350
  113MOL0     H15229   7.607  10.497   9.594 -1.0508  0.2771 -0.4477
  113MOL0     H15230   7.688  10.444   9.740  4.7898 -1.6582 -3.2164
  113MOL0     H15231   7.652  10.295   9.486  2.1474 -0.3510  0.4457
  113MOL0     H15232   7.640  10.196   9.632 -0.2652  0.9661  0.7709
  113MOL0     H15233   7.856  10.409   9.529 -0.8062  1.7981  1.4790
  113MOL0     H15234   7.894  10.297   9.661  0.4695 -2.4444 -0.8124
  113MOL0     H15235   6.823  10.512   9.712 -1.6388 -1.0869 -1.7919
  113MOL0     H15236   6.584  10.486   9.748 -0.0782  3.7081  0.0425
  113MOL0     H15237   6.196  10.169   9.848 -2.8207 -1.7437  1.2180
  113MOL0     H15238   5.980  10.200   9.836  0.2334  1.5004 -3.4798
  113MOL0     H15239   4.332  10.821   9.380 -1.6325 -1.0257 -1.7058
  113MOL0     H15240   4.094  10.855   9.355  0.2346 -0.5460 -0.9951
  113MOL0     H15241   3.669  11.180   9.643 -0.2086 -1.3925  0.1527
  113MOL0     H15242   3.436  11.140   9.609 -0.6242 -2.8478  0.0415
  113MOL0     H15243   3.158  11.098   9.494  0.6285  0.4791 -2.7957
  113MOL0     H15244   3.281  10.983   9.559  0.0669  1.9607  0.0385
  113MOL0     H15245   3.188  10.810   9.413  0.9664  0.5653 -0.7312
  113MOL0     H15246   3.067  10.917   9.358  0.5984  0.6633 -0.2706
  113MOL0     H15247   3.108  10.853   9.654 -0.7660  1.6487 -0.1109
  113MOL0     H15248   2.983  10.775   9.556 -0.3062  0.5470  1.2313
  113MOL0     H15249   2.891  10.940   9.721 -5.3486 -1.3152 -2.9373
  113MOL0     H15250   2.986  11.071   9.632 -1.9741  0.9233  0.7126
  113MOL0     H15251   2.670  10.960   9.370 -2.6052 -1.4423  2.5837
  113MOL0     H15252   3.499  11.002   9.203  2.0088  0.2373 -0.8850
  113MOL0     H15253   3.699  10.998   9.113  3.2685  0.5606 -1.5884
  113MOL0     H15254   3.844  11.066   9.171  0.6339 -0.9609 -0.1710
  113MOL0     H15255   3.793  10.917   9.242 -1.2146 -0.6048 -0.7364
  114MOL0     O15256   5.059   6.662   2.617  0.5309  0.6396  0.6121
  114MOL0     C15257   5.108   6.771   2.639 -1.4153 -0.2019 -0.3842
  114MOL0     O15258   5.051   6.875   2.712 -0.3610  0.6216 -0.7043
  114MOL0     C15259   4.932   6.853   2.775 -1.2040  0.0591 -0.3300
  114MOL0     C15260   4.914   6.744   2.858  0.4498 -0.1069 -0.6919
  114MOL0     C15261   4.785   6.716   2.918 -0.7723 -1.4271  0.0648
  114MOL0     C15262   4.686   6.809   2.900 -0.0311  0.9531 -0.4274
  114MOL0     O15263   4.556   6.799   2.944  1.1104 -0.1053 -0.2594
  114MOL0     C15264   4.536   6.771   3.082  0.6363 -0.3833 -0.1053
  114MOL0     C15265   4.402   6.832   3.128 -0.7959 -0.8064 -0.4302
  114MOL0     C15266   4.400   6.983   3.104  0.0499 -0.2099 -0.4721
  114MOL0     C15267   4.287   7.052   3.180  0.7319  0.0167 -0.2099
  114MOL0     C15268   4.269   7.206   3.150  0.2412  0.7652  0.4139
  114MOL0     C15269   4.246   7.285   3.279 -0.0604 -0.6317 -0.1832
  114MOL0     C15270   4.209   7.429   3.250  1.3718 -0.2145 -0.1418
  114MOL0     C15271   4.179   7.495   3.384  0.3174 -0.1882  0.2063
  114MOL0     N15272   4.070   7.602   3.387  0.2019  0.6747  0.1117
  114MOL0     C15273   3.939   7.590   3.345 -0.0178 -0.4813 -0.2200
  114MOL0     C15274   3.882   7.716   3.363 -0.1048  0.0467 -0.3142
  114MOL0     C15275   3.744   7.748   3.314  0.1531  0.3420  0.0412
  114MOL0     C15276   3.636   7.718   3.422 -0.5576 -0.3690 -0.1197
  114MOL0     C15277   3.497   7.757   3.381 -0.7082  0.0992 -0.2598
  114MOL0     C15278   3.473   7.900   3.348 -0.0007  0.3756  0.1187
  114MOL0     O15279   3.507   7.980   3.465  0.3532 -0.0703  0.6125
  114MOL0     C15280   3.480   8.121   3.466  0.0634  0.1681  0.4407
  114MOL0     C15281   3.443   8.175   3.592 -0.3882  0.5879  1.1053
  114MOL0     C15282   3.420   8.305   3.604 -0.0146 -0.9455 -0.5066
  114MOL0     C15283   3.432   8.399   3.504 -0.4129  0.6243 -1.1044
  114MOL0     C15284   3.445   8.545   3.526  0.8068 -0.1642  0.2212
  114MOL0     O15285   3.462   8.589   3.661 -0.7066  0.4330  0.4432
  114MOL0     C15286   3.470   8.718   3.687  0.5446 -0.9276 -1.1600
  114MOL0     C15287   3.359   8.802   3.672  1.1453  0.2814 -0.1634
  114MOL0     C15288   3.365   8.940   3.712  0.5086 -0.2105 -0.6513
  114MOL0     C15289   3.483   8.990   3.759 -0.7414 -0.2120  0.2826
  114MOL0     O15290   3.512   9.121   3.803  1.2350 -0.4237 -0.1003
  114MOL0     C15291   3.411   9.218   3.788 -0.3400  0.4261  0.9165
  114MOL0     C15292   3.430   9.323   3.886  0.6407  0.2403  0.3344
  114MOL0     C15293   3.553   9.408   3.858 -0.6134  0.7064  0.5447
  114MOL0     C15294   3.541   9.547   3.926  0.0121  0.2822  0.0123
  114MOL0     C15295   3.672   9.628   3.917 -0.2077 -0.1268 -0.3184
  114MOL0     C15296   3.667   9.749   4.020  0.4695  0.1060 -0.2985
  114MOL0     C15297   3.797   9.826   4.010 -0.9506  0.1880  0.1387
  114MOL0     C15298   3.831   9.896   3.882 -0.1536 -0.1191 -0.3327
  114MOL0    Cl15299   3.716  10.023   3.868 -0.0662 -0.0225  0.2596
  114MOL0     C15300   3.595   8.904   3.778  0.2777 -0.4033 -0.5653
  114MOL0     C15301   3.586   8.772   3.734 -0.3150  0.8061 -0.8132
  114MOL0     O15302   3.442   8.618   3.425 -0.5884  0.6977  0.2015
  114MOL0     C15303   3.459   8.346   3.379  0.2047  0.3514  0.2717
  114MOL0     C15304   3.473   8.206   3.352 -1.0028 -0.3928  0.5028
  114MOL0     N15305   3.986   7.800   3.402  0.0278 -0.1651 -0.6465
  114MOL0     N15306   4.094   7.729   3.413 -0.0137  0.3429  0.0773
  114MOL0     C15307   4.708   6.917   2.808  0.0730 -0.4554 -0.4536
  114MOL0     C15308   4.833   6.943   2.760  0.5315  0.6759 -0.2948
  114MOL0     C15309   5.229   6.809   2.567  0.0545  0.8806  0.7511
  114MOL0     C15310   5.262   6.947   2.547  0.1725 -0.4742 -0.4964
  114MOL0     C15311   5.384   6.977   2.476 -0.4866  0.3509  0.0460
  114MOL0     C15312   5.459   6.889   2.412  0.7131  0.5754  0.0645
  114MOL0     O15313   5.571   6.917   2.341 -0.9102  0.0229 -0.5546
  114MOL0     C15314   5.581   7.046   2.271  0.7886  0.7232 -0.1455
  114MOL0     C15315   5.701   7.050   2.176 -0.7530 -0.3971 -0.2284
  114MOL0     C15316   5.705   6.923   2.096 -0.0086  0.9144 -0.0302
  114MOL0     C15317   5.829   6.929   1.994 -0.4397 -1.0510  0.6025
  114MOL0     C15318   5.786   6.852   1.879 -0.4094  0.3067 -0.5023
  114MOL0     C15319   5.749   6.792   1.776  0.2604 -0.0334 -1.2173
  114MOL0     C15320   5.426   6.751   2.431  0.3034  0.1090  0.1563
  114MOL0     C15321   5.319   6.710   2.509 -0.2362  1.1570  0.6277
  114MOL0     C15322   5.293   6.559   2.517 -0.0687 -0.6983  0.7086
  114MOL0     H15323   4.991   6.668   2.866  1.2314  0.6151 -1.1207
  114MOL0     H15324   4.747   6.633   2.977 -3.3092 -1.4229 -1.4408
  114MOL0     H15325   4.544   6.666   3.112  1.1584 -0.0286  1.0587
  114MOL0     H15326   4.604   6.825   3.148  0.2029 -1.8108  1.5680
  114MOL0     H15327   4.382   6.815   3.235 -2.0167  2.4567 -0.0315
  114MOL0     H15328   4.324   6.785   3.067 -0.3964  2.0257 -3.3365
  114MOL0     H15329   4.396   6.998   2.996 -0.4786  1.5608 -0.2451
  114MOL0     H15330   4.496   7.026   3.133  0.4865 -0.6082 -1.3069
  114MOL0     H15331   4.198   6.993   3.155  0.0383  0.9036  0.1255
  114MOL0     H15332   4.301   7.048   3.288  2.5064  0.1803 -0.4112
  114MOL0     H15333   4.349   7.254   3.092  0.6663  0.4625  0.7443
  114MOL0     H15334   4.182   7.207   3.084  2.0241  1.8238 -2.0903
  114MOL0     H15335   4.152   7.242   3.315 -1.3765  0.4403 -2.1284
  114MOL0     H15336   4.331   7.280   3.348  0.5586  1.8568 -0.6657
  114MOL0     H15337   4.118   7.431   3.189  1.7904 -0.6452 -0.7848
  114MOL0     H15338   4.290   7.477   3.195  1.9318 -0.8686  0.1050
  114MOL0     H15339   4.149   7.416   3.454  0.5661 -1.4178 -1.0426
  114MOL0     H15340   4.271   7.545   3.416 -0.0217  0.7085 -0.2161
  114MOL0     H15341   3.889   7.510   3.291  0.9360  0.1778 -2.1527
  114MOL0     H15342   3.735   7.853   3.285 -3.2397  0.1624  0.1401
  114MOL0     H15343   3.718   7.689   3.225  0.0972 -0.0295  0.3024
  114MOL0     H15344   3.637   7.609   3.434  1.8914 -0.3651  0.1761
  114MOL0     H15345   3.656   7.765   3.518 -1.3137  1.5418 -0.8431
  114MOL0     H15346   3.431   7.732   3.465  0.7821 -1.2222  0.5704
  114MOL0     H15347   3.478   7.688   3.299  1.4314 -3.5227  1.9845
  114MOL0     H15348   3.365   7.911   3.332 -0.9039 -0.6344  4.1469
  114MOL0     H15349   3.515   7.931   3.252 -4.4420  3.4901 -1.1515
  114MOL0     H15350   3.446   8.106   3.676  1.1601  0.0811  0.6782
  114MOL0     H15351   3.394   8.348   3.700 -1.9182  2.8988 -2.5182
  114MOL0     H15352   3.264   8.762   3.638  1.8827 -3.3136  1.5606
  114MOL0     H15353   3.284   9.012   3.703  2.0210  1.7815  0.7560
  114MOL0     H15354   3.421   9.257   3.687  0.2964 -1.5215  0.1849
  114MOL0     H15355   3.313   9.172   3.806 -0.5373  0.8678  0.9745
  114MOL0     H15356   3.338   9.383   3.884  0.9564  0.7256  0.1583
  114MOL0     H15357   3.430   9.268   3.980  1.6209 -1.6572 -0.7129
  114MOL0     H15358   3.640   9.350   3.889 -0.7692 -0.2140 -0.6332
  114MOL0     H15359   3.572   9.415   3.750 -0.9109 -1.3640  0.3220
  114MOL0     H15360   3.515   9.528   4.030  0.9778  2.6520  0.7496
  114MOL0     H15361   3.459   9.607   3.886 -2.1373 -2.1606  0.4522
  114MOL0     H15362   3.679   9.663   3.813 -2.0091  0.5992 -0.2437
  114MOL0     H15363   3.761   9.568   3.939  0.3234 -0.3157 -2.6328
  114MOL0     H15364   3.571   9.802   4.023 -0.6645 -1.6015 -2.8338
  114MOL0     H15365   3.664   9.701   4.118 -2.3379  2.7783  1.1191
  114MOL0     H15366   3.877   9.751   4.019 -1.8897 -0.8471  0.0729
  114MOL0     H15367   3.816   9.907   4.081  2.0986 -0.7028  0.5162
  114MOL0     H15368   3.931   9.939   3.883  1.0454 -2.6762 -1.2139
  114MOL0     H15369   3.825   9.819   3.804  0.3033  0.0265 -0.5114
  114MOL0     H15370   3.686   8.948   3.818 -1.6606  0.4883  3.3314
  114MOL0     H15371   3.678   8.714   3.739 -0.4756  0.6106  0.0506
  114MOL0     H15372   3.451   8.407   3.289  0.7753  1.4655  0.9563
  114MOL0     H15373   3.491   8.171   3.251  4.5514 -2.7904  1.9588
  114MOL0     H15374   4.626   6.985   2.788  0.1032 -0.1212  0.5319
  114MOL0     H15375   4.850   7.027   2.692 -0.0731  0.5385 -0.6221
  114MOL0     H15376   5.190   7.016   2.588 -0.1827 -1.4577  0.6052
  114MOL0     H15377   5.399   7.081   2.450  1.7946 -0.6756 -3.3840
  114MOL0     H15378   5.602   7.122   2.347  0.4156  1.1734 -0.4874
  114MOL0     H15379   5.489   7.069   2.216  1.8399 -0.3961 -2.5105
  114MOL0     H15380   5.790   7.045   2.238 -0.8261 -3.0069 -0.2585
  114MOL0     H15381   5.707   7.132   2.103 -2.0480  0.6776  0.8155
  114MOL0     H15382   5.616   6.911   2.033  0.8273 -2.2805 -0.7882
  114MOL0     H15383   5.717   6.831   2.153 -4.1044 -0.7603 -1.4995
  114MOL0     H15384   5.862   7.031   1.971 -0.0920 -0.7388  2.3279
  114MOL0     H15385   5.906   6.876   2.051 -0.4967 -1.8527 -0.0448
  114MOL0     H15386   5.726   6.747   1.682  2.5424  0.2042 -1.9512
  114MOL0     H15387   5.488   6.678   2.381 -2.2679 -2.2210  0.1136
  114MOL0     H15388   5.205   6.536   2.457  0.3212 -3.5846  1.0631
  114MOL0     H15389   5.372   6.495   2.476  1.1555  1.9068 -1.2672
  114MOL0     H15390   5.294   6.528   2.622  2.3853  0.2710  1.0264
  115MOL0     O15391   5.501   2.117  10.754  0.3115 -0.6467 -0.0583
  115MOL0     C15392   5.515   1.996  10.761 -0.4001 -0.7489  0.7168
  115MOL0     O15393   5.413   1.904  10.792  0.0796 -0.4311  0.5317
  115MOL0     C15394   5.275   1.944  10.765 -0.6561 -0.0135 -0.8221
  115MOL0     C15395   5.234   1.965  10.633  0.1617  0.0087  0.3263
  115MOL0     C15396   5.103   2.002  10.617  0.7791 -0.3959 -0.0944
  115MOL0     C15397   5.006   2.013  10.722  0.3672  1.0482 -0.1731
  115MOL0     O15398   4.878   2.044  10.695  0.5533 -0.3003 -0.7712
  115MOL0     C15399   4.817   2.144  10.774  0.3434 -0.4677 -0.2678
  115MOL0     C15400   4.717   2.229  10.691 -1.2855  0.7537  0.0979
  115MOL0     C15401   4.761   2.252  10.549  0.3416  1.0121  0.6890
  115MOL0     C15402   4.886   2.337  10.517  0.0617 -0.1476 -0.0567
  115MOL0     C15403   4.921   2.343  10.365  0.6366 -0.4778 -0.9583
  115MOL0     C15404   4.974   2.209  10.309 -0.9395 -0.6987  0.1512
  115MOL0     C15405   5.052   2.227  10.169  0.2017  0.6436 -0.5859
  115MOL0     C15406   5.203   2.283  10.169  0.2554 -0.1405 -0.4541
  115MOL0     N15407   5.267   2.275  10.037  0.8656  1.0899  0.3065
  115MOL0     C15408   5.381   2.329   9.991 -0.4035  0.5660  0.2718
  115MOL0     C15409   5.401   2.272   9.874 -0.8047 -0.2426  1.0981
  115MOL0     C15410   5.528   2.302   9.800 -0.5122 -0.1041  0.4702
  115MOL0     C15411   5.653   2.267   9.889  0.6553  0.3115  0.2701
  115MOL0     C15412   5.783   2.272   9.813  0.9934 -0.8880 -0.1588
  115MOL0     C15413   5.889   2.189   9.889  0.0420  0.0823  1.3548
  115MOL0     O15414   5.930   2.266  10.001 -0.4658 -0.7666  0.2073
  115MOL0     C15415   6.017   2.209  10.097  0.5490 -0.3686 -0.5938
  115MOL0     C15416   6.005   2.240  10.234  0.1831 -0.4717 -0.8359
  115MOL0     C15417   6.073   2.174  10.336  0.1993 -0.2260  0.3301
  115MOL0     C15418   6.186   2.091  10.300  0.0996 -0.3888  0.2174
  115MOL0     C15419   6.269   2.028  10.404 -0.6704  0.3277 -0.3895
  115MOL0     O15420   6.404   2.016  10.374  0.2649 -0.4696  0.3160
  115MOL0     C15421   6.495   1.935  10.443  0.3095  0.5682 -0.0999
  115MOL0     C15422   6.450   1.830  10.529 -0.0575  0.3624  0.3253
  115MOL0     C15423   6.547   1.746  10.588 -0.5552 -0.7430 -0.1477
  115MOL0     C15424   6.687   1.779  10.576 -0.9172  0.1314 -0.8381
  115MOL0     O15425   6.792   1.731  10.647 -0.3851  0.0429 -0.3605
  115MOL0     C15426   6.752   1.656  10.766 -0.3645 -0.4024  0.2564
  115MOL0     C15427   6.874   1.612  10.841  0.7119 -0.6031 -0.0676
  115MOL0     C15428   6.950   1.733  10.904  0.1672  0.3837 -0.1526
  115MOL0     C15429   6.872   1.827  11.010 -0.2193  0.1486  0.1157
  115MOL0     C15430   6.951   1.886  11.118  0.5973 -0.2293  0.0322
  115MOL0     C15431   7.057   1.792  11.185  0.3012  0.5135  0.0243
  115MOL0     C15432   7.150   1.852  11.291 -0.1557 -0.3272 -0.0476
  115MOL0     C15433   7.254   1.752  11.331 -0.1232  0.3462  0.0105
  115MOL0    Cl15434   7.190   1.583  11.383 -0.1409  0.0827  0.0053
  115MOL0     C15435   6.729   1.870  10.479 -0.4580  0.2121 -0.0317
  115MOL0     C15436   6.628   1.941  10.409 -0.3981 -0.5755  0.2664
  115MOL0     O15437   6.219   2.004  10.507  0.0602 -0.6762  0.2306
  115MOL0     C15438   6.211   2.073  10.158  0.2680  0.7921 -0.7469
  115MOL0     C15439   6.126   2.122  10.057  0.1051  0.0267 -0.8424
  115MOL0     N15440   5.298   2.186   9.837 -0.1304  0.2022 -0.4270
  115MOL0     N15441   5.223   2.186   9.939 -0.0048 -0.8095  0.1363
  115MOL0     C15442   5.048   1.973  10.854 -0.4796  0.9529  0.3513
  115MOL0     C15443   5.181   1.932  10.874 -1.0035 -0.4782  0.2958
  115MOL0     C15444   5.660   1.946  10.774  0.2294 -0.3802 -0.1376
  115MOL0     C15445   5.680   1.823  10.831  0.1388  0.5640 -0.7846
  115MOL0     C15446   5.801   1.771  10.868 -0.1353 -0.3253  0.3691
  115MOL0     C15447   5.924   1.829  10.829  0.2371 -0.1738  0.4726
  115MOL0     O15448   6.039   1.766  10.869 -0.2565 -0.3956 -0.2817
  115MOL0     C15449   6.167   1.803  10.809  0.5020  0.3325 -0.1107
  115MOL0     C15450   6.252   1.893  10.905  0.7447  0.2464  0.4801
  115MOL0     C15451   6.399   1.911  10.860 -0.3591  0.1051  0.5423
  115MOL0     C15452   6.463   2.002  10.962  0.2313 -0.8377 -0.1232
  115MOL0     C15453   6.582   2.080  10.919  0.2125  0.5313  0.6859
  115MOL0     C15454   6.683   2.140  10.899  0.8002  0.0423  0.3683
  115MOL0     C15455   5.906   1.948  10.751  0.1698 -0.0530  0.0601
  115MOL0     C15456   5.777   2.003  10.725  0.5444  0.3875  0.2139
  115MOL0     C15457   5.774   2.130  10.642  0.4517  1.2068  0.2035
  115MOL0     H15458   5.303   1.963  10.550  0.5804 -0.9662  0.6910
  115MOL0     H15459   5.048   2.021  10.525 -2.7454 -3.1948  1.1838
  115MOL0     H15460   4.766   2.093  10.856  0.7134 -1.4384 -0.6301
  115MOL0     H15461   4.884   2.220  10.817 -0.8374  1.0878 -1.0462
  115MOL0     H15462   4.708   2.329  10.734 -0.5740  1.0359 -0.3948
  115MOL0     H15463   4.624   2.172  10.682 -0.9280  0.3201 -1.0075
  115MOL0     H15464   4.682   2.311  10.500 -0.7721 -1.8810 -1.2597
  115MOL0     H15465   4.775   2.160  10.491  0.4343  1.6961 -0.4178
  115MOL0     H15466   4.854   2.437  10.549 -0.1730 -0.2896  0.1566
  115MOL0     H15467   4.969   2.311  10.584  0.7478 -0.7592 -1.1275
  115MOL0     H15468   4.829   2.360  10.309  0.5945  0.6267 -0.5660
  115MOL0     H15469   4.989   2.424  10.337  0.0131  1.0748  1.6870
  115MOL0     H15470   5.057   2.180  10.375 -0.5584  1.5331  0.7196
  115MOL0     H15471   4.888   2.141  10.308 -0.6833 -1.0923  1.5410
  115MOL0     H15472   4.988   2.297  10.115 -2.1176 -0.3932  0.6534
  115MOL0     H15473   5.063   2.129  10.122 -1.1714  1.7299 -3.3855
  115MOL0     H15474   5.208   2.386  10.206 -0.6662 -0.6815  1.3119
  115MOL0     H15475   5.252   2.216  10.240  0.6158 -0.0592 -0.6271
  115MOL0     H15476   5.448   2.390  10.050 -1.1735  1.7461 -0.0550
  115MOL0     H15477   5.515   2.252   9.703 -0.3813 -0.6083  0.7044
  115MOL0     H15478   5.538   2.407   9.774  1.6545 -0.9099 -2.5290
  115MOL0     H15479   5.652   2.334   9.976 -0.6206  0.4793  0.1479
  115MOL0     H15480   5.642   2.163   9.920  0.7126  0.1395 -0.2795
  115MOL0     H15481   5.807   2.378   9.804 -1.9360 -0.1102  0.2349
  115MOL0     H15482   5.766   2.238   9.711 -2.8033  0.9510 -0.2946
  115MOL0     H15483   5.976   2.178   9.824 -0.8814 -1.0723  0.2530
  115MOL0     H15484   5.852   2.087   9.906 -3.9140  1.1754  0.2585
  115MOL0     H15485   5.927   2.308  10.266 -0.4171 -2.1799  1.6152
  115MOL0     H15486   6.053   2.192  10.442 -0.0527  0.8112  0.1242
  115MOL0     H15487   6.345   1.811  10.551  0.2030 -0.3568  0.9602
  115MOL0     H15488   6.514   1.670  10.658  1.5510  0.2871  2.1043
  115MOL0     H15489   6.684   1.715  10.829 -1.2198  1.3010 -2.1303
  115MOL0     H15490   6.705   1.564  10.730  1.8445 -2.3380  1.9188
  115MOL0     H15491   6.840   1.549  10.924  0.3074  1.0856  1.0861
  115MOL0     H15492   6.938   1.551  10.776  1.8236 -1.3839  1.6582
  115MOL0     H15493   7.029   1.672  10.951 -0.9388 -0.8049  0.2251
  115MOL0     H15494   6.987   1.797  10.824 -1.7650 -1.3398 -2.5824
  115MOL0     H15495   6.792   1.761  11.047  1.6497 -1.3725  1.6027
  115MOL0     H15496   6.820   1.908  10.957  2.6777  2.7655  0.9823
  115MOL0     H15497   6.890   1.930  11.198  2.1443  0.3837  0.9086
  115MOL0     H15498   7.018   1.968  11.091  0.4040 -0.1580 -0.2399
  115MOL0     H15499   7.011   1.706  11.236  1.0004  0.6117  0.8447
  115MOL0     H15500   7.122   1.760  11.103 -2.2033  0.2408 -1.9749
  115MOL0     H15501   7.097   1.903  11.373  0.9264  1.7637 -0.5958
  115MOL0     H15502   7.201   1.934  11.241 -0.2069 -0.5405 -0.4501
  115MOL0     H15503   7.315   1.726  11.244  0.2281 -1.1783  0.6761
  115MOL0     H15504   7.321   1.795  11.405 -0.8185  1.9802 -0.2620
  115MOL0     H15505   6.833   1.902  10.478 -0.5427  0.4958 -1.4221
  115MOL0     H15506   6.654   2.014  10.333 -0.5326 -0.2150  0.5649
  115MOL0     H15507   6.283   1.994  10.139 -0.8678 -0.2351 -0.9109
  115MOL0     H15508   6.136   2.084   9.956  1.9503 -1.0923 -0.2977
  115MOL0     H15509   4.988   1.961  10.944  0.6788  0.5109  1.0928
  115MOL0     H15510   5.221   1.903  10.971 -1.6862  0.2013  0.7882
  115MOL0     H15511   5.594   1.763  10.860  0.1368  0.1345 -1.6584
  115MOL0     H15512   5.811   1.682  10.929  0.3050 -0.2524  0.4054
  115MOL0     H15513   6.165   1.843  10.707  0.8093 -3.3965 -1.7579
  115MOL0     H15514   6.216   1.706  10.799 -1.3987 -0.8628  1.3937
  115MOL0     H15515   6.247   1.838  11.000 -1.5187 -1.3302 -0.4642
  115MOL0     H15516   6.204   1.991  10.907  2.4287  1.1003  0.9099
  115MOL0     H15517   6.415   1.953  10.760  2.8965  0.9626  1.3211
  115MOL0     H15518   6.456   1.818  10.855  0.0848  0.4300 -2.5262
  115MOL0     H15519   6.393   2.077  10.998  1.0489 -0.5337  0.8785
  115MOL0     H15520   6.491   1.936  11.045 -1.7353 -2.3795 -0.5994
  115MOL0     H15521   6.782   2.179  10.885  0.1234  1.0237 -2.2917
  115MOL0     H15522   5.992   2.006  10.720 -0.0868 -0.8685 -2.4181
  115MOL0     H15523   5.717   2.100  10.553 -0.6243  0.6671  1.0445
  115MOL0     H15524   5.719   2.205  10.699 -0.5962 -1.0429  2.3232
  115MOL0     H15525   5.872   2.166  10.610 -0.6304  0.9538 -4.0235
  116MOL0     O15526   6.135  10.401   4.587  0.0014  0.3553 -0.0831
  116MOL0     C15527   6.091  10.292   4.549 -0.0721  0.0991  0.9849
  116MOL0     O15528   6.124  10.237   4.426 -0.3092  0.3262  0.1725
  116MOL0     C15529   6.233  10.282   4.359 -0.2998  0.9240  0.1327
  116MOL0     C15530   6.348  10.329   4.409  0.1505  0.5630  0.5224
  116MOL0     C15531   6.465  10.357   4.329  1.0012 -1.0372  0.0691
  116MOL0     C15532   6.465  10.320   4.198  0.5292  0.6764 -0.2277
  116MOL0     O15533   6.575  10.326   4.117 -0.5256  0.2028  0.3324
  116MOL0     C15534   6.697  10.387   4.157  0.5094 -0.3814  0.4773
  116MOL0     C15535   6.796  10.375   4.040 -0.0608 -0.6841 -0.7432
  116MOL0     C15536   6.923  10.457   4.064  0.4853 -0.2460 -0.2358
  116MOL0     C15537   7.016  10.388   4.147  0.1228 -0.2917  0.3665
  116MOL0     C15538   7.161  10.427   4.125  0.3047 -0.2050 -1.2751
  116MOL0     C15539   7.253  10.321   4.190  0.2378 -0.8148  0.6860
  116MOL0     C15540   7.396  10.374   4.173 -0.2720 -0.6656 -0.0711
  116MOL0     C15541   7.502  10.267   4.183  0.2008  0.2824 -0.0486
  116MOL0     N15542   7.628  10.336   4.174 -0.2792  0.5917 -0.5092
  116MOL0     C15543   7.697  10.378   4.289  0.3255  0.5963 -0.0615
  116MOL0     C15544   7.811  10.425   4.244  0.7748  0.8057  0.3473
  116MOL0     C15545   7.917  10.503   4.327 -0.0618 -0.0775  0.5610
  116MOL0     C15546   7.964  10.425   4.440  0.0007  0.6476  1.1334
  116MOL0     C15547   8.054  10.309   4.398 -0.0356 -0.7344 -0.5331
  116MOL0     C15548   8.200  10.348   4.397  0.2655  0.0675 -0.0193
  116MOL0     O15549   8.240  10.397   4.529  0.5995 -0.2776  0.0455
  116MOL0     C15550   8.374  10.402   4.564  0.5908  0.1895 -0.2842
  116MOL0     C15551   8.407  10.487   4.667 -0.7395 -0.3537  0.8621
  116MOL0     C15552   8.542  10.512   4.693 -0.4431  0.4794 -0.9359
  116MOL0     C15553   8.651  10.451   4.626 -0.3350 -0.0802 -0.0146
  116MOL0     C15554   8.791  10.494   4.668  0.0885  0.4712 -0.3296
  116MOL0     O15555   8.801  10.620   4.719 -0.7787 -0.1527 -0.3221
  116MOL0     C15556   8.930  10.665   4.733  0.2672 -0.5140 -0.6966
  116MOL0     C15557   9.005  10.620   4.839 -0.4473  0.0989 -0.4986
  116MOL0     C15558   9.135  10.666   4.872  0.5478  0.1011  0.5297
  116MOL0     C15559   9.190  10.759   4.786 -0.4384  0.1796  0.9141
  116MOL0     O15560   9.300  10.835   4.818 -0.2270 -0.2248 -0.2156
  116MOL0     C15561   9.427  10.785   4.777 -0.0177  0.8681  0.1949
  116MOL0     C15562   9.496  10.767   4.908  0.5133  0.4221 -0.1783
  116MOL0     C15563   9.646  10.732   4.902  0.3612 -0.5750 -0.2641
  116MOL0     C15564   9.698  10.713   5.042 -0.1953 -0.4183  0.0692
  116MOL0     C15565   9.701  10.839   5.136 -0.1385  0.2032 -0.5976
  116MOL0     C15566   9.792  10.958   5.081  0.1651 -0.2776 -0.3428
  116MOL0     C15567   9.798  11.068   5.188  0.8730 -0.1913 -0.3652
  116MOL0     C15568   9.931  11.098   5.249  0.3051 -0.0886  0.2498
  116MOL0    Cl15569  10.030  11.214   5.152  0.7140  0.1054  0.1329
  116MOL0     C15570   9.116  10.797   4.671 -0.8784 -0.0499  0.1621
  116MOL0     C15571   8.992  10.754   4.646  0.2539  0.0484 -0.2030
  116MOL0     O15572   8.886  10.417   4.653  0.0027 -0.2069 -0.0900
  116MOL0     C15573   8.617  10.368   4.518  0.3375 -0.2243 -0.5666
  116MOL0     C15574   8.481  10.348   4.489 -0.1710  0.2019  0.4822
  116MOL0     N15575   7.803  10.418   4.106 -0.5089 -0.4335  0.1906
  116MOL0     N15576   7.701  10.362   4.062  0.6938  0.1861 -0.7201
  116MOL0     C15577   6.346  10.264   4.148 -1.1019  0.6581 -0.1806
  116MOL0     C15578   6.238  10.239   4.225 -0.6663  0.2335 -0.1350
  116MOL0     C15579   5.988  10.234   4.631 -0.4690  0.0983  1.0352
  116MOL0     C15580   5.873  10.195   4.561 -0.2395  0.2201  0.3099
  116MOL0     C15581   5.762  10.146   4.625 -0.3704 -0.7386 -0.1044
  116MOL0     C15582   5.756  10.130   4.762 -0.4742 -0.1202  0.5541
  116MOL0     O15583   5.650  10.094   4.842 -0.6057  0.6201 -0.0183
  116MOL0     C15584   5.525  10.081   4.780 -0.4039  0.5294 -0.4872
  116MOL0     C15585   5.419  10.017   4.861  0.0308 -0.6472 -0.7964
  116MOL0     C15586   5.280  10.039   4.811 -0.5469 -0.2631  0.0740
  116MOL0     C15587   5.187   9.938   4.875  0.5977 -0.2496 -0.5361
  116MOL0     C15588   5.063   9.938   4.797  0.0160 -0.4267 -0.4195
  116MOL0     C15589   4.962   9.928   4.726  0.2413  0.7097  0.6654
  116MOL0     C15590   5.866  10.179   4.833 -1.1049 -0.4165 -0.0567
  116MOL0     C15591   5.983  10.238   4.768  0.3729 -0.3515  0.3529
  116MOL0     C15592   6.111  10.280   4.848 -1.1730  0.0029  0.5312
  116MOL0     H15593   6.347  10.377   4.507  1.0789 -0.7460  1.2152
  116MOL0     H15594   6.546  10.407   4.382 -0.9537 -0.1089  2.3367
  116MOL0     H15595   6.689  10.487   4.201 -3.5693 -0.6568  0.7349
  116MOL0     H15596   6.743  10.323   4.232  3.7196  0.8232 -0.3253
  116MOL0     H15597   6.735  10.401   3.953 -1.0419 -1.7403 -0.3913
  116MOL0     H15598   6.823  10.272   4.015 -0.5343 -0.4349 -2.3795
  116MOL0     H15599   6.903  10.555   4.107  0.5888 -0.1821 -0.3355
  116MOL0     H15600   6.968  10.478   3.967  2.6112  1.4064  1.0267
  116MOL0     H15601   6.995  10.427   4.247 -1.1319 -3.1143  1.3147
  116MOL0     H15602   6.996  10.280   4.151 -1.9325 -0.1575 -2.8853
  116MOL0     H15603   7.177  10.413   4.018 -0.2207  1.1405 -1.5493
  116MOL0     H15604   7.182  10.532   4.146  0.5832 -0.2442 -1.3589
  116MOL0     H15605   7.227  10.318   4.297 -2.5113 -0.7657  0.0946
  116MOL0     H15606   7.240  10.216   4.163  1.2197 -1.8085  3.6543
  116MOL0     H15607   7.408  10.453   4.247 -0.8650  0.3479 -1.0148
  116MOL0     H15608   7.413  10.427   4.079  0.6475  2.1903  1.5944
  116MOL0     H15609   7.502  10.208   4.276 -0.4447  1.8519  0.9913
  116MOL0     H15610   7.479  10.209   4.094 -2.8418  1.6284 -0.2351
  116MOL0     H15611   7.666  10.370   4.393  3.3543 -0.2442  0.9122
  116MOL0     H15612   8.004  10.528   4.266  0.5763  1.0243  1.8772
  116MOL0     H15613   7.882  10.600   4.365  1.2509  0.3871  0.6359
  116MOL0     H15614   8.002  10.497   4.514 -2.5133  0.5218  2.6882
  116MOL0     H15615   7.875  10.383   4.487 -1.6701  1.3115 -1.2401
  116MOL0     H15616   8.028  10.264   4.302 -0.1123  0.6938 -1.1958
  116MOL0     H15617   8.047  10.231   4.476  0.5263  1.8768  2.3315
  116MOL0     H15618   8.214  10.434   4.331  2.5355 -0.4218 -0.2886
  116MOL0     H15619   8.258  10.260   4.368 -0.1757  0.0287 -0.8034
  116MOL0     H15620   8.330  10.542   4.720  1.2656  3.6751  0.0569
  116MOL0     H15621   8.546  10.582   4.776  1.0383  0.7642 -1.2218
  116MOL0     H15622   8.965  10.539   4.899 -0.6065 -0.4865 -1.3815
  116MOL0     H15623   9.177  10.629   4.964 -0.8568 -0.2273  1.0626
  116MOL0     H15624   9.428  10.690   4.723  0.4891  0.0711  1.5544
  116MOL0     H15625   9.475  10.858   4.711  0.3102  1.0613  0.6370
  116MOL0     H15626   9.480  10.858   4.967  1.2036 -1.6418  3.4669
  116MOL0     H15627   9.457  10.677   4.955  1.6236  0.9200  1.8180
  116MOL0     H15628   9.661  10.639   4.845  0.5977 -0.9402  0.3817
  116MOL0     H15629   9.703  10.815   4.860 -1.6480  1.9720  1.7633
  116MOL0     H15630   9.803  10.682   5.034  0.6220  1.4997  2.2713
  116MOL0     H15631   9.644  10.629   5.086  0.3818 -1.1453 -0.5791
  116MOL0     H15632   9.729  10.814   5.239 -6.0501  2.3936  2.0072
  116MOL0     H15633   9.598  10.877   5.146  0.1843  0.5099  2.6837
  116MOL0     H15634   9.883  10.905   5.051  1.0748  1.5599 -0.9490
  116MOL0     H15635   9.756  10.990   4.983  0.9572  0.4281 -0.4048
  116MOL0     H15636   9.727  11.041   5.266  0.7559 -0.3366 -0.5219
  116MOL0     H15637   9.753  11.163   5.156  1.8019  0.2848 -0.2831
  116MOL0     H15638   9.914  11.132   5.351  0.5015 -2.6258  1.2152
  116MOL0     H15639   9.977  11.000   5.267 -0.3629 -1.2149 -3.3288
  116MOL0     H15640   9.155  10.874   4.605  2.3542 -2.1491 -0.6620
  116MOL0     H15641   8.943  10.781   4.553  0.6206 -1.7170 -0.9543
  116MOL0     H15642   8.700  10.316   4.470 -0.6540 -1.5156 -0.9272
  116MOL0     H15643   8.475  10.271   4.413 -1.3139 -1.5665  2.2748
  116MOL0     H15644   6.340  10.239   4.042 -2.3087 -0.3720  0.1044
  116MOL0     H15645   6.150  10.184   4.193 -1.1466  1.4286 -0.9252
  116MOL0     H15646   5.870  10.205   4.453  2.6338 -1.9175 -0.1034
  116MOL0     H15647   5.678  10.107   4.569 -1.5947  0.1347  1.0699
  116MOL0     H15648   5.534  10.023   4.687  0.9559  0.7655 -0.5274
  116MOL0     H15649   5.499  10.183   4.750  3.0152  1.2352 -1.5894
  116MOL0     H15650   5.421  10.045   4.967 -1.3900 -1.4346 -0.5336
  116MOL0     H15651   5.447   9.911   4.854  1.3376 -0.3284 -0.6332
  116MOL0     H15652   5.287  10.012   4.706 -2.6373 -1.6301  0.2271
  116MOL0     H15653   5.246  10.143   4.817 -0.2813 -0.1816  0.1833
  116MOL0     H15654   5.221   9.834   4.876 -2.0703 -1.2085  0.9120
  116MOL0     H15655   5.158   9.972   4.975  1.8098  0.4371 -0.3939
  116MOL0     H15656   4.866   9.932   4.679  0.7702 -1.0299 -0.6892
  116MOL0     H15657   5.860  10.168   4.941  0.5202 -2.1044 -0.0903
  116MOL0     H15658   6.118  10.388   4.866 -0.7373  0.1071 -0.2082
  116MOL0     H15659   6.100  10.246   4.951 -0.0321  0.5994  0.8781
  116MOL0     H15660   6.201  10.237   4.803 -0.6929  0.0855  1.3898
  117MOL0     O15661   7.443  10.840   7.141  0.0803 -0.9749 -0.1041
  117MOL0     C15662   7.473  10.924   7.064 -0.1813 -0.1522  0.2503
  117MOL0     O15663   7.598  10.950   7.018 -1.1272 -0.3680 -0.4633
  117MOL0     C15664   7.707  10.927   7.100 -0.8053  0.5281  0.5845
  117MOL0     C15665   7.715  10.995   7.225  0.0175  0.4846  0.2643
  117MOL0     C15666   7.829  10.968   7.310  0.3892  1.1186  0.1428
  117MOL0     C15667   7.925  10.876   7.270  0.0843 -0.3462  0.5645
  117MOL0     O15668   8.025  10.857   7.360 -0.3644 -0.8244  0.3384
  117MOL0     C15669   8.146  10.872   7.304  0.3572  1.2653 -0.3712
  117MOL0     C15670   8.183  11.010   7.263  0.0630 -0.5295  0.0515
  117MOL0     C15671   8.336  11.024   7.244  0.4357 -0.0859 -0.3766
  117MOL0     C15672   8.371  11.163   7.191  1.2096 -0.3567 -0.4397
  117MOL0     C15673   8.531  11.178   7.172  0.5721 -0.1277  0.3904
  117MOL0     C15674   8.566  11.315   7.121 -0.9381 -0.7473  0.1689
  117MOL0     C15675   8.712  11.331   7.080 -0.5204 -0.6028  0.6795
  117MOL0     C15676   8.806  11.328   7.198 -0.0053 -1.2298 -0.3404
  117MOL0     N15677   8.935  11.379   7.153 -0.8645 -0.3853  0.2739
  117MOL0     C15678   8.962  11.497   7.088  0.0849 -0.0132  0.1868
  117MOL0     C15679   9.085  11.476   7.033  0.3783  0.1612 -0.8985
  117MOL0     C15680   9.155  11.576   6.948  0.1532 -0.2072 -0.6301
  117MOL0     C15681   9.305  11.577   6.990  0.2986 -0.1616 -0.3426
  117MOL0     C15682   9.386  11.669   6.895 -0.6150 -0.2206  0.5206
  117MOL0     C15683   9.529  11.678   6.956  0.1029  0.2584  1.0306
  117MOL0     O15684   9.532  11.757   7.079 -0.1545 -0.4123  0.2453
  117MOL0     C15685   9.651  11.801   7.125  0.1646 -0.1523  0.1547
  117MOL0     C15686   9.770  11.739   7.091  0.2645 -0.2121  0.3050
  117MOL0     C15687   9.890  11.801   7.125 -0.3477 -0.2233  0.6799
  117MOL0     C15688   9.897  11.927   7.195  0.5394  0.1842 -0.8223
  117MOL0     C15689  10.029  11.974   7.244  0.5407 -0.4622  0.4008
  117MOL0     O15690  10.136  11.891   7.229 -0.5666 -0.4476 -1.0938
  117MOL0     C15691  10.266  11.931   7.266  0.6341  0.6933 -0.2713
  117MOL0     C15692  10.346  11.997   7.171 -0.0776 -0.2689 -1.1118
  117MOL0     C15693  10.479  12.026   7.197  0.0629  0.6187 -0.2843
  117MOL0     C15694  10.537  11.995   7.322 -0.1637 -0.1408  0.5734
  117MOL0     O15695  10.664  12.026   7.352  0.4562 -0.1967  0.6166
  117MOL0     C15696  10.763  12.062   7.246 -0.6581 -0.5074 -0.5246
  117MOL0     C15697  10.895  12.106   7.307  0.8130  0.3061 -0.1060
  117MOL0     C15698  11.005  12.123   7.193 -0.1526  0.4545 -0.2545
  117MOL0     C15699  11.124  12.170   7.259 -0.2895 -0.4606 -0.5457
  117MOL0     C15700  11.252  12.104   7.194  0.0684  0.1496  0.5115
  117MOL0     C15701  11.378  12.163   7.241  0.2589  0.2843  0.1280
  117MOL0     C15702  11.410  12.292   7.177 -0.8110 -0.0345  0.5352
  117MOL0     C15703  11.538  12.356   7.237  0.1219 -0.1184 -0.1515
  117MOL0    Cl15704  11.646  12.406   7.088 -0.0156  0.2358  0.3836
  117MOL0     C15705  10.453  11.918   7.411 -1.1287  0.3338 -0.1696
  117MOL0     C15706  10.322  11.892   7.384  0.7616  0.8630  0.2635
  117MOL0     O15707  10.031  12.087   7.290 -0.6101  0.3034  0.0265
  117MOL0     C15708   9.772  11.982   7.241 -0.6947 -0.2000 -0.0116
  117MOL0     C15709   9.655  11.916   7.213  0.2864  0.0018  0.0880
  117MOL0     N15710   9.130  11.360   7.075  0.0240 -0.1284  0.0261
  117MOL0     N15711   9.044  11.296   7.143 -1.0386  0.8418  0.1855
  117MOL0     C15712   7.924  10.821   7.136  0.0648 -0.0036  0.6675
  117MOL0     C15713   7.816  10.848   7.050 -1.0603  0.5781 -0.0030
  117MOL0     C15714   7.366  10.987   6.984  0.1787 -1.0856 -0.8185
  117MOL0     C15715   7.393  11.064   6.869 -0.5926 -0.1271  1.2782
  117MOL0     C15716   7.306  11.118   6.785  0.3575  0.0734  0.6413
  117MOL0     C15717   7.164  11.109   6.810  0.6937  0.6451  0.5130
  117MOL0     O15718   7.070  11.163   6.733 -0.5758 -0.2246  0.2105
  117MOL0     C15719   7.116  11.199   6.600  1.1916 -0.1255  0.1366
  117MOL0     C15720   6.997  11.239   6.505  0.3335 -0.0463 -0.5367
  117MOL0     C15721   6.912  11.126   6.464 -0.1873 -0.6053  0.7623
  117MOL0     C15722   6.787  11.174   6.401 -0.0264 -0.6970 -0.4862
  117MOL0     C15723   6.715  11.072   6.330 -0.0505 -0.4563  0.1447
  117MOL0     C15724   6.669  10.983   6.264  0.0497  0.4284  0.2193
  117MOL0     C15725   7.132  11.048   6.928 -1.0576  0.4612  0.0313
  117MOL0     C15726   7.222  10.993   7.021 -0.0313  0.4226 -0.2855
  117MOL0     C15727   7.164  10.932   7.146  0.2246  0.2387 -0.1784
  117MOL0     H15728   7.640  11.062   7.266 -0.6824  0.5132 -0.9966
  117MOL0     H15729   7.830  11.010   7.410  2.2256 -0.8873  1.0237
  117MOL0     H15730   8.218  10.851   7.384 -1.5354 -1.2884  0.7826
  117MOL0     H15731   8.171  10.793   7.232  0.7751  1.5120 -0.4996
  117MOL0     H15732   8.158  11.066   7.353  1.7481 -1.1953  0.9689
  117MOL0     H15733   8.126  11.050   7.179  1.0912 -0.6295 -0.7133
  117MOL0     H15734   8.363  10.952   7.166  0.8742 -0.2639 -0.0662
  117MOL0     H15735   8.386  11.008   7.341  0.1331 -0.3382 -0.2640
  117MOL0     H15736   8.322  11.185   7.095  1.5934 -0.5325 -0.6795
  117MOL0     H15737   8.334  11.227   7.271  0.3024 -2.6411  1.0465
  117MOL0     H15738   8.594  11.167   7.260  1.1298  0.2954  0.0478
  117MOL0     H15739   8.561  11.101   7.100 -0.1967 -0.6717  0.6393
  117MOL0     H15740   8.502  11.343   7.037  0.2690  0.7867 -0.2807
  117MOL0     H15741   8.542  11.391   7.196  1.2746  2.3524 -2.0579
  117MOL0     H15742   8.710  11.429   7.033  2.2344 -1.2947 -1.0900
  117MOL0     H15743   8.732  11.263   6.997 -0.3715 -0.2070  0.3895
  117MOL0     H15744   8.778  11.396   7.279 -1.2013  0.3496 -1.9840
  117MOL0     H15745   8.817  11.227   7.237  2.6977 -0.2786  1.7011
  117MOL0     H15746   8.894  11.577   7.060 -0.3963 -0.7791 -0.8832
  117MOL0     H15747   9.148  11.557   6.841  2.6598 -0.2669 -0.8320
  117MOL0     H15748   9.119  11.678   6.967  0.3152  0.4804 -3.5267
  117MOL0     H15749   9.321  11.623   7.088  0.3692 -0.6831 -0.1055
  117MOL0     H15750   9.342  11.474   6.997  0.3768 -0.0481  1.5271
  117MOL0     H15751   9.352  11.773   6.895  2.6821  0.9751 -0.5674
  117MOL0     H15752   9.395  11.630   6.793 -2.0420  0.6517  0.0246
  117MOL0     H15753   9.598  11.732   6.890  0.7672  1.4514  2.6268
  117MOL0     H15754   9.564  11.575   6.972  0.1474 -0.2461 -1.8825
  117MOL0     H15755   9.767  11.656   7.022 -0.5153  1.1393 -1.3508
  117MOL0     H15756   9.972  11.743   7.085 -0.8788 -0.6905  0.2643
  117MOL0     H15757  10.301  12.018   7.075  2.3237  0.6725 -2.1285
  117MOL0     H15758  10.544  12.064   7.119  2.6086  2.1154  2.3498
  117MOL0     H15759  10.783  11.982   7.174  2.6551 -1.3533  1.1581
  117MOL0     H15760  10.720  12.139   7.181 -2.1291 -1.7455 -1.0842
  117MOL0     H15761  10.871  12.198   7.360  0.8212 -0.3834  1.1504
  117MOL0     H15762  10.924  12.025   7.375 -0.6772  1.7155  2.3722
  117MOL0     H15763  11.022  12.022   7.155 -0.4452 -0.0803  1.0031
  117MOL0     H15764  10.982  12.187   7.107 -0.2723 -0.4351 -0.8989
  117MOL0     H15765  11.143  12.149   7.365  3.8511  1.0695 -0.8201
  117MOL0     H15766  11.114  12.278   7.244 -2.7474 -0.6536 -0.6731
  117MOL0     H15767  11.251  12.097   7.085  1.7744 -0.0046  0.4762
  117MOL0     H15768  11.255  11.999   7.224 -2.8258 -0.2998 -0.4780
  117MOL0     H15769  11.386  12.167   7.350 -1.1832  1.9612  0.2178
  117MOL0     H15770  11.456  12.089   7.219 -1.2654 -0.5220 -3.1798
  117MOL0     H15771  11.325  12.358   7.196 -0.1244  0.9384  0.2981
  117MOL0     H15772  11.418  12.280   7.069  2.0123  0.5583  0.5957
  117MOL0     H15773  11.514  12.440   7.303 -0.4521 -0.9972  0.7881
  117MOL0     H15774  11.591  12.289   7.305 -2.6552  0.3862  2.8178
  117MOL0     H15775  10.501  11.891   7.504 -0.1567  1.9823 -0.1472
  117MOL0     H15776  10.267  11.839   7.460 -0.4478 -0.0127 -1.1732
  117MOL0     H15777   9.781  12.072   7.300  3.0270 -1.0835  1.0904
  117MOL0     H15778   9.555  11.946   7.244 -0.2206 -2.1752  0.8004
  117MOL0     H15779   8.004  10.759   7.097  1.5891  2.8512 -1.1230
  117MOL0     H15780   7.810  10.807   6.950 -2.5310 -1.1623  0.7521
  117MOL0     H15781   7.499  11.074   6.848 -1.0407  0.2586 -1.1769
  117MOL0     H15782   7.335  11.159   6.689  1.3652 -4.5098 -1.2816
  117MOL0     H15783   7.153  11.106   6.556  2.1186 -1.3781  3.3102
  117MOL0     H15784   7.186  11.283   6.602 -0.4237  1.2593  0.4778
  117MOL0     H15785   7.029  11.293   6.415 -1.4298 -0.7616 -1.6327
  117MOL0     H15786   6.942  11.308   6.570  2.2249  0.1839  0.9320
  117MOL0     H15787   6.882  11.063   6.549 -3.1123 -2.1495 -1.2561
  117MOL0     H15788   6.965  11.063   6.392 -2.1917 -0.4673 -0.9094
  117MOL0     H15789   6.729  11.218   6.482  1.3516  1.0666 -0.3896
  117MOL0     H15790   6.808  11.259   6.335  0.0199 -0.1291  0.2511
  117MOL0     H15791   6.634  10.901   6.206  0.9807 -0.6045  1.0676
  117MOL0     H15792   7.030  11.025   6.957 -0.2564 -3.5837  0.2329
  117MOL0     H15793   7.194  10.827   7.153  0.7570  0.3344 -0.9195
  117MOL0     H15794   7.189  10.982   7.241 -1.1104 -1.1825  0.9703
  117MOL0     H15795   7.056  10.940   7.154  0.0612 -0.6927 -1.2672
  118MOL0     O15796   6.764   1.400   8.854 -0.2593  0.0535 -0.0216
  118MOL0     C15797   6.779   1.463   8.747 -0.6430  0.2981  0.4312
  118MOL0     O15798   6.677   1.507   8.673 -0.0826  0.2807 -0.7778
  118MOL0     C15799   6.548   1.518   8.723 -1.3049 -1.2047 -1.2640
  118MOL0     C15800   6.480   1.417   8.797 -0.2500 -0.8141  0.7675
  118MOL0     C15801   6.342   1.430   8.826  0.2718 -0.3182  0.5056
  118MOL0     C15802   6.282   1.553   8.817  0.4252 -0.9147  0.1914
  118MOL0     O15803   6.144   1.569   8.840 -0.3000 -0.1673  0.0358
  118MOL0     C15804   6.112   1.679   8.929 -0.3691 -0.0401 -0.3729
  118MOL0     C15805   6.192   1.695   9.064  0.6050 -0.6255 -0.0403
  118MOL0     C15806   6.188   1.566   9.148  0.0446  0.3899  0.3294
  118MOL0     C15807   6.251   1.605   9.285  0.2046  0.3303  0.0648
  118MOL0     C15808   6.246   1.481   9.382  0.8364  0.2754 -0.4854
  118MOL0     C15809   6.104   1.445   9.434 -0.5536 -0.2592 -0.2130
  118MOL0     C15810   6.093   1.382   9.581  0.1443  0.2497 -0.0863
  118MOL0     C15811   6.181   1.252   9.593  0.3539 -0.1758 -0.5045
  118MOL0     N15812   6.328   1.280   9.618 -0.0577 -0.9386 -0.1234
  118MOL0     C15813   6.369   1.366   9.716 -0.3287 -0.4464 -0.2505
  118MOL0     C15814   6.510   1.368   9.705  0.6662 -0.9076  0.2700
  118MOL0     C15815   6.588   1.437   9.809 -0.3806 -0.4049  0.1055
  118MOL0     C15816   6.710   1.508   9.759 -0.2727 -0.3215 -1.2269
  118MOL0     C15817   6.825   1.418   9.715  0.1234  0.0133 -0.4230
  118MOL0     C15818   6.953   1.493   9.695  0.9009 -1.0130 -0.4384
  118MOL0     O15819   6.983   1.587   9.811  0.6483 -0.4684  0.2661
  118MOL0     C15820   7.094   1.660   9.799 -0.2584 -0.1179  0.1475
  118MOL0     C15821   7.112   1.762   9.891 -0.5354 -0.7202  0.0084
  118MOL0     C15822   7.233   1.829   9.905 -0.3295 -0.4926 -0.5564
  118MOL0     C15823   7.335   1.809   9.805  0.7101 -1.1434 -0.2731
  118MOL0     C15824   7.462   1.878   9.816 -0.3911 -0.4695 -0.1051
  118MOL0     O15825   7.559   1.822   9.742  0.2968 -0.1281 -0.1841
  118MOL0     C15826   7.686   1.860   9.772 -0.5015 -0.2149 -0.3268
  118MOL0     C15827   7.745   1.829   9.893 -0.0029 -0.1341 -0.1471
  118MOL0     C15828   7.881   1.849   9.895 -0.6878 -0.4136 -1.0437
  118MOL0     C15829   7.956   1.884   9.784  0.4057 -0.6756  0.0757
  118MOL0     O15830   8.087   1.913   9.767  0.3244 -1.1435 -0.6486
  118MOL0     C15831   8.170   1.907   9.884  0.2575 -0.3301 -0.2117
  118MOL0     C15832   8.164   2.009   9.996  0.1001 -0.2833 -0.7610
  118MOL0     C15833   8.250   1.972  10.114 -0.0346  0.2115  0.2204
  118MOL0     C15834   8.398   1.986  10.098  0.6490 -0.3948 -0.1507
  118MOL0     C15835   8.484   1.916  10.200  1.4405  0.1824 -0.5863
  118MOL0     C15836   8.475   1.764  10.205 -0.0298  0.6631  0.3378
  118MOL0     C15837   8.599   1.695  10.267  0.3040 -1.1374  0.1564
  118MOL0     C15838   8.594   1.696  10.421  0.5030 -0.1315  0.6398
  118MOL0    Cl15839   8.459   1.598  10.478  0.0510 -0.1006 -0.1724
  118MOL0     C15840   7.893   1.899   9.660 -0.5289 -0.3313  0.0548
  118MOL0     C15841   7.756   1.875   9.653  0.5489  0.5192  0.1099
  118MOL0     O15842   7.481   1.970   9.896  0.3848  0.5023 -0.1294
  118MOL0     C15843   7.305   1.718   9.708 -0.2003 -0.2072 -0.0818
  118MOL0     C15844   7.190   1.644   9.692 -0.3280  0.1022  0.0684
  118MOL0     N15845   6.538   1.294   9.595  0.2176 -0.8698  0.5406
  118MOL0     N15846   6.436   1.248   9.534 -0.1383 -0.1140  0.7999
  118MOL0     C15847   6.352   1.659   8.759  0.3969  0.5323 -0.7955
  118MOL0     C15848   6.479   1.645   8.706  0.5410 -0.1698 -0.2889
  118MOL0     C15849   6.918   1.477   8.687  0.5620 -0.3522 -0.9179
  118MOL0     C15850   6.931   1.507   8.550 -0.1531  0.2526 -0.0447
  118MOL0     C15851   7.062   1.515   8.488  0.7756  0.4455  0.0936
  118MOL0     C15852   7.180   1.491   8.562  0.2218  1.0629 -1.1356
  118MOL0     O15853   7.303   1.494   8.507  0.0357  0.1947  0.0782
  118MOL0     C15854   7.335   1.371   8.438  0.5316 -0.1219  0.7011
  118MOL0     C15855   7.472   1.331   8.485 -0.3429 -0.6017  1.1105
  118MOL0     C15856   7.572   1.448   8.446  0.4412  0.3832  0.5041
  118MOL0     C15857   7.589   1.487   8.301 -0.0623 -0.1751 -0.0924
  118MOL0     C15858   7.723   1.525   8.283  0.0264 -0.3161  0.2775
  118MOL0     C15859   7.844   1.527   8.259 -0.4481 -1.3859 -0.2021
  118MOL0     C15860   7.166   1.471   8.699 -0.2183  0.2604 -0.9323
  118MOL0     C15861   7.038   1.461   8.769  0.3834  0.7358 -0.3605
  118MOL0     C15862   7.028   1.458   8.925 -0.5319 -0.4944  0.9823
  118MOL0     H15863   6.541   1.327   8.803  2.0698  0.5863 -0.3292
  118MOL0     H15864   6.285   1.341   8.852 -1.8844 -0.0772 -2.8484
  118MOL0     H15865   6.126   1.772   8.873  1.4111  0.4777  0.8684
  118MOL0     H15866   6.007   1.674   8.960 -0.5707  2.6129 -0.3763
  118MOL0     H15867   6.152   1.781   9.117  0.3142 -0.7689 -0.0236
  118MOL0     H15868   6.297   1.706   9.033  0.5630 -2.1069 -0.8183
  118MOL0     H15869   6.253   1.493   9.100  0.6703  0.9429  0.3226
  118MOL0     H15870   6.090   1.520   9.166  0.4448 -1.6077 -2.0481
  118MOL0     H15871   6.356   1.631   9.271  0.6615 -1.3876  0.0369
  118MOL0     H15872   6.193   1.692   9.317  0.1460  1.0699 -1.9090
  118MOL0     H15873   6.302   1.394   9.346  0.8285 -0.4145  1.0861
  118MOL0     H15874   6.310   1.506   9.467  0.2826  1.0006 -0.2717
  118MOL0     H15875   6.038   1.532   9.428 -1.5095 -0.6879  2.6478
  118MOL0     H15876   6.064   1.382   9.355  1.7129  0.3172 -1.9357
  118MOL0     H15877   5.990   1.346   9.596  0.5894 -0.5402  1.2014
  118MOL0     H15878   6.120   1.459   9.654  2.3227 -1.5129  1.0593
  118MOL0     H15879   6.157   1.167   9.658  3.6103 -2.7986 -2.3737
  118MOL0     H15880   6.160   1.211   9.493  1.1588 -0.9936 -0.3533
  118MOL0     H15881   6.314   1.414   9.796  1.1205 -1.1320  1.2257
  118MOL0     H15882   6.525   1.515   9.852 -1.2838 -2.0761  1.9839
  118MOL0     H15883   6.610   1.374   9.896  2.3586  3.5187  2.5732
  118MOL0     H15884   6.682   1.587   9.689 -2.3761 -0.3028 -0.4414
  118MOL0     H15885   6.761   1.555   9.844 -0.6364 -1.5424 -0.3010
  118MOL0     H15886   6.795   1.370   9.621 -1.8748 -2.1872  1.1814
  118MOL0     H15887   6.832   1.331   9.781 -1.8483 -0.2460 -0.4817
  118MOL0     H15888   6.942   1.558   9.609  1.5114 -0.0055  0.2229
  118MOL0     H15889   7.029   1.416   9.679 -0.0058 -2.1097  0.3362
  118MOL0     H15890   7.039   1.792   9.966  0.7200  0.2189  0.8995
  118MOL0     H15891   7.239   1.898   9.988 -1.1619  1.6899 -2.2042
  118MOL0     H15892   7.692   1.802   9.984  0.4330 -2.5595 -0.5398
  118MOL0     H15893   7.912   1.831   9.998  0.7686  0.0982 -1.3655
  118MOL0     H15894   8.154   1.814   9.939  2.9613 -0.4321  0.5518
  118MOL0     H15895   8.272   1.898   9.846 -0.6114 -1.1261 -2.5323
  118MOL0     H15896   8.193   2.105   9.953 -0.3885 -0.0565 -0.5980
  118MOL0     H15897   8.064   2.026  10.038  1.0669 -0.6475  1.9001
  118MOL0     H15898   8.223   2.045  10.191  4.8240 -0.0146  2.4611
  118MOL0     H15899   8.221   1.872  10.150  1.9115 -1.1776 -1.8071
  118MOL0     H15900   8.416   2.094  10.096  2.1517 -0.6236 -1.9460
  118MOL0     H15901   8.428   1.953   9.998 -0.7630 -0.3487 -0.6087
  118MOL0     H15902   8.439   1.957  10.291  2.0440  0.0687 -0.2321
  118MOL0     H15903   8.589   1.945  10.190  1.7880  0.9671  3.5379
  118MOL0     H15904   8.380   1.737  10.252 -0.5610 -2.9054 -2.3903
  118MOL0     H15905   8.480   1.723  10.104  1.4656  0.1245  0.5948
  118MOL0     H15906   8.694   1.738  10.235 -0.8622  0.6198 -1.1573
  118MOL0     H15907   8.606   1.590  10.236 -1.6678 -2.0731  2.5212
  118MOL0     H15908   8.683   1.655  10.471 -0.4967 -2.0663  0.9578
  118MOL0     H15909   8.587   1.798  10.460  0.5330 -0.4082  1.3983
  118MOL0     H15910   7.943   1.929   9.569 -1.2042 -0.9583 -0.5357
  118MOL0     H15911   7.709   1.864   9.556  0.9352  0.3857 -0.0672
  118MOL0     H15912   7.375   1.716   9.625 -1.3925 -1.2217 -1.1001
  118MOL0     H15913   7.173   1.586   9.603 -0.4115  1.2674 -0.7018
  118MOL0     H15914   6.295   1.751   8.746 -1.1873  0.0388  1.9147
  118MOL0     H15915   6.523   1.733   8.660  0.6543  0.2330  0.5750
  118MOL0     H15916   6.846   1.529   8.486  0.9837  2.6724 -0.8687
  118MOL0     H15917   7.069   1.536   8.381 -1.6461  0.1381 -0.1909
  118MOL0     H15918   7.332   1.390   8.330  0.5933  1.5189  0.9689
  118MOL0     H15919   7.263   1.291   8.454  2.1660 -1.2675  2.8598
  118MOL0     H15920   7.504   1.236   8.443  0.1264 -0.4849  1.2055
  118MOL0     H15921   7.464   1.325   8.594 -2.0779  0.6065  1.0925
  118MOL0     H15922   7.668   1.411   8.482  0.1046 -0.0730  0.9335
  118MOL0     H15923   7.547   1.543   8.495 -1.1777 -0.1790  0.8328
  118MOL0     H15924   7.567   1.401   8.237  2.7243  0.2229 -1.7906
  118MOL0     H15925   7.526   1.575   8.283  0.9127  0.7030  0.6252
  118MOL0     H15926   7.949   1.537   8.239 -0.3220 -0.4943  0.8645
  118MOL0     H15927   7.255   1.467   8.760  0.1098  0.7928 -1.3741
  118MOL0     H15928   6.947   1.521   8.965  0.4724 -0.4865  3.1215
  118MOL0     H15929   7.012   1.357   8.963 -2.1824 -2.0941 -3.3229
  118MOL0     H15930   7.119   1.502   8.967 -1.9053  0.4997  3.0675
  119MOL0     O15931   7.868   2.534   3.081 -0.4454 -0.4739 -0.2083
  119MOL0     C15932   7.803   2.636   3.110  0.8332 -0.3637  0.7105
  119MOL0     O15933   7.859   2.767   3.135 -0.3946  0.5004 -0.0499
  119MOL0     C15934   7.987   2.776   3.091  0.5910  0.1893 -0.5171
  119MOL0     C15935   8.074   2.855   3.172  0.5423  0.5308 -0.5821
  119MOL0     C15936   8.194   2.895   3.123 -0.0976 -0.7726 -0.0499
  119MOL0     C15937   8.232   2.876   2.994 -0.8878  0.6030  0.7820
  119MOL0     O15938   8.359   2.930   2.959  0.7743 -0.7598 -0.2447
  119MOL0     C15939   8.380   2.973   2.824  1.0160 -0.3864  1.0160
  119MOL0     C15940   8.462   2.868   2.739  0.2776 -0.4781 -0.2986
  119MOL0     C15941   8.606   2.842   2.784  0.4307 -0.0637 -0.0994
  119MOL0     C15942   8.617   2.772   2.915 -1.2027  0.0003 -0.3585
  119MOL0     C15943   8.765   2.741   2.944 -0.1440 -0.2733 -0.1244
  119MOL0     C15944   8.846   2.634   2.874 -0.4020  0.0623  0.2463
  119MOL0     C15945   8.996   2.629   2.908 -0.3334  0.7114 -0.4982
  119MOL0     C15946   9.084   2.718   2.832 -0.1739 -0.6285  0.5611
  119MOL0     N15947   9.206   2.730   2.912 -0.0025  0.8669 -0.0542
  119MOL0     C15948   9.305   2.640   2.928 -0.0632  0.2889 -0.7130
  119MOL0     C15949   9.397   2.687   3.016  0.0633  0.6269 -0.6978
  119MOL0     C15950   9.520   2.604   3.038 -0.4423  0.3665  0.2214
  119MOL0     C15951   9.620   2.628   2.909  0.2106 -0.2959 -0.2508
  119MOL0     C15952   9.687   2.502   2.857 -0.0767  0.5605  0.0730
  119MOL0     C15953   9.796   2.533   2.754  0.2823 -0.3005 -0.1147
  119MOL0     O15954   9.923   2.570   2.822  0.1102  0.4346 -0.4474
  119MOL0     C15955  10.006   2.467   2.867  0.4405  0.3137  0.4585
  119MOL0     C15956  10.088   2.503   2.971 -0.2816  0.4436  0.0192
  119MOL0     C15957  10.173   2.412   3.037  0.9285 -0.3620  0.6850
  119MOL0     C15958  10.179   2.278   2.984 -0.1296 -0.0314 -0.5179
  119MOL0     C15959  10.285   2.200   3.042 -0.4482 -0.3398 -0.4631
  119MOL0     O15960  10.399   2.271   3.058  0.2992  0.6197 -0.3947
  119MOL0     C15961  10.508   2.207   3.103 -0.2845  0.1104 -0.9335
  119MOL0     C15962  10.632   2.257   3.064 -0.7232 -0.0061 -0.5882
  119MOL0     C15963  10.749   2.202   3.111  0.0735 -0.8455  0.6897
  119MOL0     C15964  10.750   2.092   3.185 -0.4679  0.2279  0.4706
  119MOL0     O15965  10.868   2.040   3.221  0.0273 -0.1914  0.1738
  119MOL0     C15966  10.991   2.063   3.145 -0.8524 -0.7907 -0.3370
  119MOL0     C15967  11.094   1.969   3.204 -0.2745  0.3206  0.8796
  119MOL0     C15968  11.158   2.022   3.329  0.8091 -0.2628  0.7639
  119MOL0     C15969  11.223   1.917   3.414 -1.1132  0.0258 -0.2500
  119MOL0     C15970  11.298   1.980   3.537 -0.2777  0.4728 -0.2845
  119MOL0     C15971  11.338   1.858   3.630  0.4341 -0.3299  0.2582
  119MOL0     C15972  11.451   1.895   3.740  0.2715 -1.0228 -0.2246
  119MOL0     C15973  11.508   1.765   3.792 -0.3855  0.0870 -0.5260
  119MOL0    Cl15974  11.603   1.812   3.935  0.4956  0.0702  0.0641
  119MOL0     C15975  10.632   2.029   3.230  0.8269  0.0640 -0.6675
  119MOL0     C15976  10.515   2.095   3.196  0.2129  0.4491  0.7338
  119MOL0     O15977  10.272   2.085   3.049  0.3325  0.8574  0.6426
  119MOL0     C15978  10.090   2.239   2.884 -0.0318 -0.1733  0.6704
  119MOL0     C15979   9.996   2.332   2.838  0.2202  0.8465 -0.5394
  119MOL0     N15980   9.355   2.815   3.046 -0.1667  0.1671  0.5009
  119MOL0     N15981   9.241   2.842   2.982  0.2023  0.9884 -0.8073
  119MOL0     C15982   8.149   2.810   2.909 -0.2477 -0.3025  0.8525
  119MOL0     C15983   8.037   2.753   2.960  0.6752  0.1901  1.0745
  119MOL0     C15984   7.655   2.630   3.145  0.0946  0.1390  0.6778
  119MOL0     C15985   7.601   2.745   3.205  0.3067 -0.0743  0.3251
  119MOL0     C15986   7.464   2.758   3.232  0.6139  0.7636  0.2643
  119MOL0     C15987   7.376   2.649   3.197  0.9734 -0.2478 -0.3814
  119MOL0     O15988   7.238   2.676   3.220  0.4373  0.6387 -0.1044
  119MOL0     C15989   7.139   2.577   3.224 -0.3825 -0.3117  0.0491
  119MOL0     C15990   7.117   2.529   3.361  0.4617 -0.0812  0.0984
  119MOL0     C15991   7.086   2.376   3.361 -0.5022  0.1423  0.0205
  119MOL0     C15992   6.951   2.344   3.304  0.3261  0.0699  0.1365
  119MOL0     C15993   6.820   2.397   3.365  0.7788 -0.1648  0.4867
  119MOL0     C15994   6.707   2.432   3.403  0.8537 -0.3781 -1.0291
  119MOL0     C15995   7.434   2.535   3.139 -0.0285  0.3505  0.4414
  119MOL0     C15996   7.575   2.516   3.113  0.7464 -0.2733  0.4389
  119MOL0     C15997   7.623   2.395   3.033 -0.2226 -0.0962 -0.1267
  119MOL0     H15998   8.046   2.878   3.274  1.2695  0.5077 -0.3691
  119MOL0     H15999   8.268   2.943   3.186 -0.2682 -2.0220  1.1435
  119MOL0     H16000   8.293   3.010   2.769  1.6750  0.7727  0.7098
  119MOL0     H16001   8.451   3.056   2.821  0.3823  0.1482  0.5312
  119MOL0     H16002   8.472   2.897   2.635  0.3848 -2.9116 -1.0354
  119MOL0     H16003   8.399   2.778   2.737 -0.0892 -0.2385  0.0278
  119MOL0     H16004   8.666   2.934   2.779 -2.6541  2.1022 -0.1613
  119MOL0     H16005   8.649   2.775   2.709  1.2023 -0.0709  0.3328
  119MOL0     H16006   8.590   2.845   2.993 -0.8578  2.6669 -2.5753
  119MOL0     H16007   8.555   2.684   2.897  1.1993 -1.8417 -0.1559
  119MOL0     H16008   8.825   2.833   2.938  2.0545 -1.7147 -1.4919
  119MOL0     H16009   8.757   2.717   3.050 -2.3007  1.7712  0.2746
  119MOL0     H16010   8.802   2.539   2.903 -1.4196  0.9425  1.7081
  119MOL0     H16011   8.831   2.644   2.766 -0.7784  0.8407  0.3650
  119MOL0     H16012   9.040   2.529   2.911 -1.3574  0.2699  1.0939
  119MOL0     H16013   8.994   2.666   3.010 -4.8608  0.0380 -0.1517
  119MOL0     H16014   9.097   2.678   2.731  2.4705 -0.9121  0.9533
  119MOL0     H16015   9.031   2.814   2.825  0.4470 -0.3668 -1.1082
  119MOL0     H16016   9.316   2.541   2.883  0.4689  0.1511 -0.2949
  119MOL0     H16017   9.561   2.620   3.139 -1.0150  0.0294  0.5101
  119MOL0     H16018   9.477   2.505   3.028  0.9827 -0.0325 -3.1114
  119MOL0     H16019   9.555   2.661   2.827  0.9529  0.2656 -0.6284
  119MOL0     H16020   9.697   2.699   2.939  1.3769 -1.5449 -0.1561
  119MOL0     H16021   9.608   2.439   2.815  0.0067  0.1135  0.5669
  119MOL0     H16022   9.734   2.451   2.942  2.5019  0.0021 -1.5797
  119MOL0     H16023   9.756   2.611   2.689 -1.3803  1.5811  2.9244
  119MOL0     H16024   9.805   2.440   2.696 -0.8284  0.1829 -1.1047
  119MOL0     H16025  10.091   2.605   3.008 -1.1840 -0.7431  3.7560
  119MOL0     H16026  10.242   2.443   3.114  1.2218 -5.0143  2.6302
  119MOL0     H16027  10.641   2.337   2.990 -3.2869  0.3162 -0.6370
  119MOL0     H16028  10.842   2.252   3.086 -0.5362  0.0332  0.1160
  119MOL0     H16029  10.966   2.031   3.044  0.0342  0.9014 -1.1348
  119MOL0     H16030  11.026   2.164   3.122 -2.1722 -0.6374 -1.8545
  119MOL0     H16031  11.054   1.868   3.223 -0.3770 -0.0373 -1.0167
  119MOL0     H16032  11.169   1.952   3.127  0.6872 -0.2257  1.9075
  119MOL0     H16033  11.229   2.097   3.295 -2.8448  3.4497  0.5196
  119MOL0     H16034  11.089   2.062   3.404  1.3239 -4.3501  3.7413
  119MOL0     H16035  11.304   1.872   3.355  0.2585  0.7998  0.9885
  119MOL0     H16036  11.153   1.841   3.451  0.6040 -1.4173  0.1665
  119MOL0     H16037  11.229   2.041   3.596 -3.8188 -1.0729 -2.4497
  119MOL0     H16038  11.389   2.033   3.509  0.3687  0.6663  2.0135
  119MOL0     H16039  11.250   1.818   3.681  0.5409 -2.4362 -1.0829
  119MOL0     H16040  11.385   1.778   3.571  2.2012  0.1687  0.9113
  119MOL0     H16041  11.393   1.948   3.816 -1.6359  0.4517 -2.5679
  119MOL0     H16042  11.531   1.961   3.705  0.0909  0.3203  1.7818
  119MOL0     H16043  11.430   1.697   3.826 -0.7370  1.9763  2.9368
  119MOL0     H16044  11.571   1.719   3.714  2.5030 -2.1967  2.8264
  119MOL0     H16045  10.645   1.933   3.278  0.4898  0.3391 -0.0281
  119MOL0     H16046  10.426   2.044   3.229 -1.1766  2.2725  0.0146
  119MOL0     H16047  10.082   2.133   2.866 -1.5953  0.4874 -3.6336
  119MOL0     H16048   9.922   2.284   2.775  0.7445 -1.6787  0.6424
  119MOL0     H16049   8.172   2.777   2.808  3.2354 -0.7502  1.6699
  119MOL0     H16050   7.973   2.695   2.893  0.9656 -0.3867  1.2890
  119MOL0     H16051   7.654   2.836   3.230  1.8247  0.0729 -2.8823
  119MOL0     H16052   7.420   2.841   3.285 -1.8068  0.1410 -0.6288
  119MOL0     H16053   7.145   2.494   3.153  0.3830 -0.4134  0.2248
  119MOL0     H16054   7.043   2.624   3.199 -0.1666 -1.7179 -4.2877
  119MOL0     H16055   7.031   2.584   3.399  0.0647  0.6971 -1.8656
  119MOL0     H16056   7.205   2.552   3.422 -0.0280 -2.3977  1.8495
  119MOL0     H16057   7.083   2.342   3.465 -1.8916  1.1381  0.3378
  119MOL0     H16058   7.156   2.321   3.298 -0.1420 -1.9992  2.1790
  119MOL0     H16059   6.949   2.379   3.200  0.7017  1.7511  0.6586
  119MOL0     H16060   6.947   2.235   3.308  0.6147 -0.0744 -2.2049
  119MOL0     H16061   6.608   2.465   3.424  0.7118 -0.9245 -0.8439
  119MOL0     H16062   7.378   2.448   3.106  0.6570  0.1293 -0.1764
  119MOL0     H16063   7.694   2.343   3.097  0.4245  1.1174  0.1769
  119MOL0     H16064   7.550   2.317   3.009  2.6607 -2.0767 -3.4102
  119MOL0     H16065   7.667   2.441   2.943 -1.2040  0.0731 -0.5344
  120MOL0     O16066   3.566   4.189   7.895  0.9202  1.5479  0.3479
  120MOL0     C16067   3.521   4.288   7.949 -0.0760 -0.5921 -0.2605
  120MOL0     O16068   3.392   4.342   7.939 -0.2483 -0.3120  0.4619
  120MOL0     C16069   3.278   4.264   7.919  0.0856  0.1773 -0.0761
  120MOL0     C16070   3.160   4.333   7.889  0.7774 -0.2434  0.5895
  120MOL0     C16071   3.037   4.260   7.879 -0.5037  0.3188  0.1837
  120MOL0     C16072   3.035   4.121   7.910  0.1745  0.0257 -0.1507
  120MOL0     O16073   2.928   4.037   7.898  0.0065 -0.2043  0.1630
  120MOL0     C16074   2.821   4.087   7.824 -0.4162 -0.7889 -0.4488
  120MOL0     C16075   2.720   3.968   7.798  0.2790 -0.1814  0.2204
  120MOL0     C16076   2.684   3.906   7.932 -0.5350 -0.0261 -0.7423
  120MOL0     C16077   2.599   3.787   7.915  0.8580 -0.1570 -0.3558
  120MOL0     C16078   2.575   3.708   8.050 -0.7330  0.0048  1.2349
  120MOL0     C16079   2.505   3.791   8.152  0.7246 -0.7290  0.3077
  120MOL0     C16080   2.445   3.723   8.272 -0.5710  1.8411 -0.0817
  120MOL0     C16081   2.540   3.697   8.384  0.6168 -0.8658 -0.3038
  120MOL0     N16082   2.595   3.828   8.429  0.2457 -0.8564  0.2391
  120MOL0     C16083   2.528   3.926   8.495 -0.5580  0.2967  0.5586
  120MOL0     C16084   2.625   4.006   8.538 -0.1102  0.1670 -0.7826
  120MOL0     C16085   2.600   4.128   8.608  0.2536  0.7585  0.1415
  120MOL0     C16086   2.586   4.109   8.757  1.0218 -0.2208 -0.0275
  120MOL0     C16087   2.709   4.048   8.825 -0.7537  0.5372 -0.2896
  120MOL0     C16088   2.712   4.044   8.980 -0.2946 -0.0129  0.3314
  120MOL0     O16089   2.832   3.990   9.033 -0.2727  0.4463  0.3003
  120MOL0     C16090   2.948   4.069   9.037  0.1235 -0.0009  0.0043
  120MOL0     C16091   3.056   4.016   9.113  0.2142  0.7400  0.9062
  120MOL0     C16092   3.168   4.083   9.113 -0.5546  0.3791  0.0628
  120MOL0     C16093   3.200   4.200   9.043 -0.2597 -0.3142 -0.4335
  120MOL0     C16094   3.330   4.260   9.040  0.8333 -0.0363  0.0297
  120MOL0     O16095   3.352   4.339   8.923  0.4543  0.6011 -0.0090
  120MOL0     C16096   3.468   4.412   8.923 -0.5506 -1.1428  0.0984
  120MOL0     C16097   3.597   4.351   8.928  0.0965 -0.6775  0.2197
  120MOL0     C16098   3.709   4.432   8.937 -0.1721  0.3143 -0.2466
  120MOL0     C16099   3.711   4.566   8.902 -0.4889 -0.6621 -0.8249
  120MOL0     O16100   3.816   4.654   8.914  0.6637  0.5684 -1.1646
  120MOL0     C16101   3.912   4.624   9.020 -0.6006  0.1122 -0.2155
  120MOL0     C16102   3.949   4.742   9.112  0.7187 -0.9051  0.6983
  120MOL0     C16103   3.829   4.782   9.195  0.2700 -0.3869  0.8912
  120MOL0     C16104   3.806   4.697   9.314 -0.4920  0.6625 -0.6710
  120MOL0     C16105   3.658   4.694   9.345  0.2129 -0.0016  0.5449
  120MOL0     C16106   3.581   4.588   9.264 -0.1942 -0.4425  0.5728
  120MOL0     C16107   3.433   4.578   9.314 -0.4914  0.3399 -0.3578
  120MOL0     C16108   3.421   4.508   9.446  0.8658 -0.6641  0.0271
  120MOL0    Cl16109   3.256   4.453   9.479  0.0497  0.2927 -0.0198
  120MOL0     C16110   3.581   4.629   8.885  0.4668  0.5378  0.0139
  120MOL0     C16111   3.463   4.550   8.891  0.5315  1.1588  0.7445
  120MOL0     O16112   3.402   4.265   9.138  0.3560  0.3741  0.4856
  120MOL0     C16113   3.089   4.266   8.981  0.4200 -0.3949 -0.1075
  120MOL0     C16114   2.962   4.200   8.983 -0.2539 -1.0112  0.0201
  120MOL0     N16115   2.749   3.973   8.486 -0.2645 -0.1494 -0.3416
  120MOL0     N16116   2.726   3.865   8.420  0.5350 -0.6118  0.4472
  120MOL0     C16117   3.155   4.054   7.941  0.2689 -0.9941 -0.0321
  120MOL0     C16118   3.276   4.122   7.953 -0.6294 -1.4169 -0.2659
  120MOL0     C16119   3.611   4.374   8.026 -0.5413  0.4541  0.0542
  120MOL0     C16120   3.601   4.510   8.008 -0.5520 -0.8078  0.7673
  120MOL0     C16121   3.687   4.598   8.076 -0.5069 -0.6836 -1.0518
  120MOL0     C16122   3.785   4.556   8.160  0.4196  0.7214 -0.1739
  120MOL0     O16123   3.880   4.625   8.219  0.6070 -0.7104  0.2149
  120MOL0     C16124   3.886   4.767   8.197 -0.4368  0.2292 -0.2509
  120MOL0     C16125   3.784   4.853   8.278  0.5972  0.4406  0.7782
  120MOL0     C16126   3.789   4.851   8.426  0.1663 -0.6329 -0.8393
  120MOL0     C16127   3.690   4.762   8.517  0.0502 -0.3434  0.3470
  120MOL0     C16128   3.703   4.613   8.504  0.0178  0.5242  0.0973
  120MOL0     C16129   3.704   4.492   8.502  1.0809 -0.1681 -0.1373
  120MOL0     C16130   3.794   4.411   8.183 -0.4090 -1.2034  0.5947
  120MOL0     C16131   3.713   4.323   8.116  0.4419  0.2683  0.5317
  120MOL0     C16132   3.728   4.173   8.144  0.0265 -0.0710  0.3656
  120MOL0     H16133   3.160   4.436   7.854  0.6825 -0.5955 -0.4794
  120MOL0     H16134   2.950   4.316   7.849  0.2233  1.4777  0.1568
  120MOL0     H16135   2.778   4.168   7.884  1.5811  0.7685 -1.0262
  120MOL0     H16136   2.842   4.136   7.729 -1.1761  0.3990 -0.0241
  120MOL0     H16137   2.747   3.894   7.722  4.3242  1.2030  0.0687
  120MOL0     H16138   2.637   4.015   7.746  0.7628  2.0682  1.3648
  120MOL0     H16139   2.634   3.980   7.996  0.8440  1.2578 -1.0822
  120MOL0     H16140   2.779   3.868   7.970 -0.5615  0.3107 -0.3302
  120MOL0     H16141   2.504   3.814   7.867  0.6329  0.7138  0.5491
  120MOL0     H16142   2.651   3.725   7.841  1.2987 -0.1122 -0.0840
  120MOL0     H16143   2.514   3.618   8.039  0.8049 -0.8570 -0.7484
  120MOL0     H16144   2.668   3.677   8.097 -0.1408 -1.4946 -0.7846
  120MOL0     H16145   2.560   3.881   8.183 -1.7276  0.7741  0.5329
  120MOL0     H16146   2.419   3.830   8.097  0.6180 -1.3619  0.0148
  120MOL0     H16147   2.401   3.627   8.242  1.4604  0.7961  0.1268
  120MOL0     H16148   2.362   3.777   8.319 -1.9743  0.7666 -1.2347
  120MOL0     H16149   2.487   3.645   8.465  0.3009 -1.6199 -0.9818
  120MOL0     H16150   2.632   3.650   8.348  1.8062 -0.0504  1.4733
  120MOL0     H16151   2.421   3.938   8.507 -0.9862  0.3757 -2.5065
  120MOL0     H16152   2.678   4.200   8.582  0.3254  0.8551  0.6209
  120MOL0     H16153   2.504   4.164   8.570 -1.7746 -3.0823  1.1366
  120MOL0     H16154   2.578   4.210   8.798  2.9598  1.0024 -2.3751
  120MOL0     H16155   2.491   4.062   8.783 -0.0814  2.3289  0.8240
  120MOL0     H16156   2.799   4.097   8.787  0.0155  0.0240  0.8193
  120MOL0     H16157   2.720   3.942   8.804 -1.3417  0.7339 -1.7080
  120MOL0     H16158   2.626   3.985   9.013  3.1921 -6.0724  0.1189
  120MOL0     H16159   2.714   4.145   9.021 -1.0508 -0.3780  1.2977
  120MOL0     H16160   3.045   3.917   9.155  1.0693  0.9974  1.7902
  120MOL0     H16161   3.248   4.028   9.163 -1.6186 -0.5488  0.8013
  120MOL0     H16162   3.590   4.247   8.957  2.4887 -0.9778 -0.0872
  120MOL0     H16163   3.799   4.382   8.974  0.4142  0.3578 -1.5628
  120MOL0     H16164   3.870   4.548   9.087  1.8384  1.3030  2.9431
  120MOL0     H16165   4.007   4.604   8.969  1.3987 -1.1458  3.6337
  120MOL0     H16166   4.032   4.716   9.178  1.9402  1.4269  0.2013
  120MOL0     H16167   3.977   4.818   9.038  0.1344 -1.5544 -0.2128
  120MOL0     H16168   3.842   4.886   9.226 -0.5426 -0.1619  0.5175
  120MOL0     H16169   3.741   4.777   9.130  0.5424 -0.4863  0.5257
  120MOL0     H16170   3.847   4.757   9.396 -1.4662  0.0887  0.2586
  120MOL0     H16171   3.856   4.600   9.307 -1.4839  0.1066 -0.2496
  120MOL0     H16172   3.610   4.790   9.322 -3.6767 -2.2637 -1.8713
  120MOL0     H16173   3.649   4.680   9.453  3.8130  0.2582  1.0085
  120MOL0     H16174   3.594   4.623   9.161  0.3959 -0.1852  0.7264
  120MOL0     H16175   3.631   4.491   9.271 -2.3595 -1.9216 -2.3707
  120MOL0     H16176   3.380   4.522   9.237  1.6917  1.7607 -3.0471
  120MOL0     H16177   3.384   4.676   9.318 -3.8538 -1.1026 -2.3351
  120MOL0     H16178   3.490   4.423   9.445  2.4299  0.5124 -2.1908
  120MOL0     H16179   3.456   4.584   9.516  2.4803  0.4927 -1.9472
  120MOL0     H16180   3.566   4.734   8.861 -1.9044  0.3972  0.5674
  120MOL0     H16181   3.365   4.594   8.871  1.0729  2.0157 -0.1239
  120MOL0     H16182   3.094   4.361   8.929  0.2751 -0.8257 -0.9197
  120MOL0     H16183   2.878   4.244   8.930  2.3337  1.6344 -2.1902
  120MOL0     H16184   3.157   3.949   7.969  0.2674 -1.0550 -0.2589
  120MOL0     H16185   3.363   4.064   7.983  1.0896  2.4441  3.1187
  120MOL0     H16186   3.510   4.541   7.956  0.3681  2.8135  1.0230
  120MOL0     H16187   3.676   4.705   8.060  1.1590  0.1982  2.5578
  120MOL0     H16188   3.882   4.798   8.092  1.6212  1.8856  0.0962
  120MOL0     H16189   3.988   4.791   8.228  1.4083 -3.5210 -2.7727
  120MOL0     H16190   3.683   4.830   8.242  0.0538  0.3460  2.3123
  120MOL0     H16191   3.806   4.950   8.233  0.4575 -0.0998 -0.5198
  120MOL0     H16192   3.770   4.955   8.454  2.4414 -0.1594 -0.7897
  120MOL0     H16193   3.891   4.828   8.460 -0.6370 -1.6480  1.0244
  120MOL0     H16194   3.705   4.790   8.622  2.7203 -3.1791  0.8567
  120MOL0     H16195   3.584   4.781   8.498  0.2148 -0.3299 -0.6384
  120MOL0     H16196   3.686   4.387   8.509 -3.6137  0.2961 -1.7854
  120MOL0     H16197   3.881   4.370   8.233  1.7301 -1.3073 -2.8515
  120MOL0     H16198   3.633   4.119   8.146 -0.0816 -0.0070 -1.1573
  120MOL0     H16199   3.787   4.126   8.065  0.2571 -0.9612  1.0495
  120MOL0     H16200   3.784   4.150   8.235  0.7833  0.5814  0.0761
  121MOL0     O16201   4.129   4.212   1.691  0.4940  0.8971 -0.1082
  121MOL0     C16202   4.040   4.124   1.667 -1.0369 -1.7177  0.0492
  121MOL0     O16203   4.074   4.021   1.581 -0.1641 -0.3389 -0.4219
  121MOL0     C16204   4.200   4.004   1.532  0.4048 -0.0639  1.1511
  121MOL0     C16205   4.198   3.990   1.387 -0.4882 -0.6250  0.2585
  121MOL0     C16206   4.313   3.957   1.314  0.1764 -0.2013  0.9136
  121MOL0     C16207   4.435   3.937   1.389  0.0199 -1.3457 -0.1998
  121MOL0     O16208   4.544   3.898   1.316 -0.0789  0.1211 -0.2824
  121MOL0     C16209   4.647   3.824   1.381 -0.6623 -1.0972 -0.7535
  121MOL0     C16210   4.781   3.890   1.347 -0.3848 -0.1627 -0.3992
  121MOL0     C16211   4.901   3.783   1.329 -0.2979  2.0675 -1.6205
  121MOL0     C16212   5.035   3.834   1.274  0.2837 -0.0423 -0.2402
  121MOL0     C16213   5.140   3.716   1.245 -0.1440 -0.0562  0.1735
  121MOL0     C16214   5.254   3.763   1.159 -0.0310 -0.6554 -0.6935
  121MOL0     C16215   5.385   3.677   1.160  0.3885 -1.9222  0.6356
  121MOL0     C16216   5.457   3.678   1.291  0.3171 -0.0755  0.2658
  121MOL0     N16217   5.591   3.620   1.292 -0.2276 -0.5092  0.0745
  121MOL0     C16218   5.716   3.689   1.273  0.0012 -0.1096 -0.6142
  121MOL0     C16219   5.805   3.603   1.326 -0.7967  0.1489  0.3096
  121MOL0     C16220   5.951   3.608   1.326  0.0130  0.2472 -0.2520
  121MOL0     C16221   6.009   3.515   1.220 -0.0978 -0.0630 -0.1191
  121MOL0     C16222   6.161   3.548   1.197 -0.0650 -0.6432 -0.4321
  121MOL0     C16223   6.246   3.447   1.122  0.7766  0.0552 -0.1533
  121MOL0     O16224   6.373   3.504   1.090  0.7321  0.6081  0.0558
  121MOL0     C16225   6.478   3.475   1.167 -0.8531  0.3038  0.6793
  121MOL0     C16226   6.470   3.421   1.297  1.0226  0.3315  0.1352
  121MOL0     C16227   6.579   3.386   1.375  0.2709 -0.2973  0.4831
  121MOL0     C16228   6.704   3.412   1.322 -0.8568  0.6670  0.4383
  121MOL0     C16229   6.821   3.373   1.396 -1.1919 -0.0616  0.7005
  121MOL0     O16230   6.936   3.377   1.321  0.5986  0.4014 -0.2198
  121MOL0     C16231   7.056   3.357   1.386  0.6059  0.5795  0.7001
  121MOL0     C16232   7.086   3.258   1.478 -0.9377  1.1677  0.7491
  121MOL0     C16233   7.207   3.252   1.540 -0.3019  0.1840 -0.7440
  121MOL0     C16234   7.304   3.354   1.519 -0.6202  0.6599 -0.3535
  121MOL0     O16235   7.427   3.339   1.574 -0.4521 -0.6063 -0.7020
  121MOL0     C16236   7.526   3.283   1.495  0.3903 -0.6426 -0.3250
  121MOL0     C16237   7.655   3.249   1.564  0.6521 -0.1884  0.5447
  121MOL0     C16238   7.621   3.153   1.678 -0.0291  0.0390 -0.1271
  121MOL0     C16239   7.743   3.143   1.770 -0.4173  0.5353 -0.6099
  121MOL0     C16240   7.848   3.032   1.737 -0.3571  0.1810 -0.3263
  121MOL0     C16241   7.984   3.041   1.817 -0.7068  0.0667 -0.1074
  121MOL0     C16242   8.055   3.171   1.789 -0.0004  0.3082 -0.1359
  121MOL0     C16243   8.185   3.179   1.867 -0.2740  0.2095  0.3218
  121MOL0    Cl16244   8.307   3.047   1.856  0.9239 -0.4616  0.0084
  121MOL0     C16245   7.269   3.454   1.433 -0.2122  0.6210 -0.5457
  121MOL0     C16246   7.141   3.467   1.368  0.7470  0.1008  0.1235
  121MOL0     O16247   6.815   3.349   1.515  0.0333  0.2469 -0.1854
  121MOL0     C16248   6.722   3.473   1.196  0.2148  0.1847  0.4881
  121MOL0     C16249   6.608   3.512   1.128  0.0225 -0.6321 -0.7520
  121MOL0     N16250   5.738   3.492   1.375 -0.3303  0.1143 -0.6326
  121MOL0     N16251   5.613   3.494   1.351  0.1843 -0.5463  0.1304
  121MOL0     C16252   4.437   3.960   1.530  0.1085  0.0112 -0.1942
  121MOL0     C16253   4.317   3.994   1.602 -0.1123 -0.0565  0.1945
  121MOL0     C16254   3.904   4.135   1.723 -0.0859  0.2003  0.5858
  121MOL0     C16255   3.870   4.258   1.773  0.1775  0.0637 -0.1406
  121MOL0     C16256   3.750   4.283   1.821  0.3346  0.2468 -0.2144
  121MOL0     C16257   3.652   4.184   1.836  0.2467  0.3981 -0.3334
  121MOL0     O16258   3.530   4.216   1.889  0.6318 -0.0056  0.0480
  121MOL0     C16259   3.431   4.237   1.775  0.3524  0.0747 -0.0169
  121MOL0     C16260   3.294   4.179   1.822  0.1735  0.3362 -0.5864
  121MOL0     C16261   3.177   4.215   1.715  0.1368  0.8947 -0.3822
  121MOL0     C16262   3.037   4.169   1.769 -0.0197 -0.1671  0.5760
  121MOL0     C16263   2.941   4.236   1.680  0.3150 -0.6949  0.1919
  121MOL0     C16264   2.846   4.276   1.615  0.7985  0.5312 -0.9248
  121MOL0     C16265   3.669   4.059   1.780 -0.5009  0.2308  0.4874
  121MOL0     C16266   3.798   4.030   1.725 -0.5619 -1.0451 -0.1478
  121MOL0     C16267   3.833   3.901   1.662 -0.6224 -1.0201  0.2388
  121MOL0     H16268   4.101   3.995   1.337 -0.2999  0.8457 -0.0053
  121MOL0     H16269   4.296   3.940   1.208 -1.5643  2.2250  0.7164
  121MOL0     H16270   4.640   3.829   1.490  0.1366 -1.3270 -0.6869
  121MOL0     H16271   4.642   3.716   1.362  2.7370 -1.7333  1.0558
  121MOL0     H16272   4.799   3.970   1.419 -0.9734  0.5387 -1.0053
  121MOL0     H16273   4.776   3.941   1.250 -0.0132  1.8429  0.5982
  121MOL0     H16274   4.868   3.701   1.265  0.2324 -0.7921  1.4838
  121MOL0     H16275   4.913   3.744   1.430  0.3932 -0.2528 -2.5464
  121MOL0     H16276   5.008   3.882   1.179 -2.2751 -1.0848 -0.1264
  121MOL0     H16277   5.077   3.910   1.339 -1.4137  0.6838  0.0378
  121MOL0     H16278   5.185   3.682   1.338  1.0169 -0.4665 -0.5090
  121MOL0     H16279   5.095   3.625   1.203 -0.8780 -1.0365  2.9123
  121MOL0     H16280   5.230   3.777   1.053 -1.5204  2.7545 -0.0529
  121MOL0     H16281   5.280   3.864   1.190  0.9570 -1.3548  0.8885
  121MOL0     H16282   5.454   3.706   1.079  1.3911 -2.2327  1.3571
  121MOL0     H16283   5.352   3.574   1.144  0.7306 -2.2223  1.8126
  121MOL0     H16284   5.465   3.782   1.324  3.1006 -0.2846  0.5003
  121MOL0     H16285   5.399   3.624   1.366  0.1346  2.6644  2.2823
  121MOL0     H16286   5.730   3.791   1.236  0.5077  1.3047  3.0490
  121MOL0     H16287   5.974   3.713   1.305 -1.1179  0.5572  0.0023
  121MOL0     H16288   5.978   3.585   1.429 -3.4252 -0.9859  0.4894
  121MOL0     H16289   6.000   3.412   1.256  2.2048 -1.0081 -1.9733
  121MOL0     H16290   5.960   3.527   1.124 -0.8418  1.5412  0.4145
  121MOL0     H16291   6.206   3.577   1.293 -2.7737  2.5083  0.0926
  121MOL0     H16292   6.181   3.639   1.139 -0.8088 -0.4157 -0.3334
  121MOL0     H16293   6.192   3.435   1.028 -1.7292  0.4500  1.1486
  121MOL0     H16294   6.252   3.348   1.169  0.9741  0.6307  1.0721
  121MOL0     H16295   6.373   3.396   1.340 -0.4613  3.7220 -0.9187
  121MOL0     H16296   6.559   3.349   1.476 -0.4947  2.1909  1.3136
  121MOL0     H16297   7.014   3.176   1.485  0.5132 -0.1381  0.8408
  121MOL0     H16298   7.231   3.164   1.600  1.6849 -1.1549 -3.2743
  121MOL0     H16299   7.487   3.193   1.446 -1.5005 -0.3425  0.5463
  121MOL0     H16300   7.549   3.364   1.426 -1.2923 -1.0591 -1.4609
  121MOL0     H16301   7.711   3.196   1.486 -0.6923 -0.0992 -0.5272
  121MOL0     H16302   7.696   3.344   1.599 -3.3959  2.3241 -0.7829
  121MOL0     H16303   7.551   3.211   1.738  1.1314  1.6900 -0.3034
  121MOL0     H16304   7.593   3.052   1.645  2.7430 -0.5477 -1.0219
  121MOL0     H16305   7.706   3.117   1.869  3.0811  1.1296  0.9939
  121MOL0     H16306   7.789   3.242   1.780 -1.8340  1.1111  0.6144
  121MOL0     H16307   7.874   3.056   1.634  2.5765  1.5722  0.6100
  121MOL0     H16308   7.801   2.935   1.750  1.9857 -1.4786 -3.0648
  121MOL0     H16309   7.962   3.038   1.924 -0.1481  0.3156  0.0194
  121MOL0     H16310   8.047   2.954   1.799  1.7889  1.4857  1.2013
  121MOL0     H16311   8.005   3.261   1.825  1.6239  1.4448 -0.6235
  121MOL0     H16312   8.074   3.193   1.683 -0.3944  0.6625 -0.1343
  121MOL0     H16313   8.241   3.272   1.855  1.2730 -0.2935  2.9490
  121MOL0     H16314   8.156   3.179   1.972 -2.8358  1.4052 -0.2994
  121MOL0     H16315   7.342   3.527   1.398  0.6108  0.1370  0.1208
  121MOL0     H16316   7.113   3.547   1.300  0.8652  0.4721  0.5086
  121MOL0     H16317   6.821   3.494   1.156  0.8207 -0.0799  1.7968
  121MOL0     H16318   6.617   3.571   1.037 -2.8006 -1.1772 -1.4776
  121MOL0     H16319   4.526   3.953   1.590 -1.0492 -1.5189  1.4322
  121MOL0     H16320   4.311   4.014   1.709  1.7423  2.1111 -0.0132
  121MOL0     H16321   3.930   4.348   1.768 -2.8402  2.4453  2.5701
  121MOL0     H16322   3.715   4.385   1.832 -2.9225 -0.6477 -1.0750
  121MOL0     H16323   3.459   4.190   1.680  2.9811  1.7289 -0.1518
  121MOL0     H16324   3.410   4.344   1.773  1.8585  0.5684  3.6611
  121MOL0     H16325   3.269   4.204   1.926  2.7834  0.0586  0.1700
  121MOL0     H16326   3.296   4.070   1.825 -0.2861  0.3164 -0.8111
  121MOL0     H16327   3.200   4.161   1.623 -0.6402  0.2480 -0.2119
  121MOL0     H16328   3.187   4.323   1.698 -0.1487  0.6647 -2.1938
  121MOL0     H16329   3.016   4.062   1.763 -0.2516 -0.0671 -0.8591
  121MOL0     H16330   3.031   4.213   1.869  0.4981  0.5225  0.3143
  121MOL0     H16331   2.759   4.319   1.571 -1.3976 -0.4211  2.1345
  121MOL0     H16332   3.588   3.986   1.782  0.2881 -1.1740 -4.7247
  121MOL0     H16333   3.750   3.830   1.660 -2.3566  0.8871  0.4487
  121MOL0     H16334   3.860   3.913   1.557 -0.1383  1.3332  0.5812
  121MOL0     H16335   3.910   3.848   1.718 -0.9182 -0.6471  1.0073
  122MOL0     O16336   0.121   0.483   9.928 -0.4398 -0.3784 -0.0763
  122MOL0     C16337   0.083   0.446   9.814 -0.8917  0.2268 -0.3858
  122MOL0     O16338   0.153   0.460   9.700 -0.6342 -0.1177 -0.1533
  122MOL0     C16339   0.286   0.501   9.705  0.6381  0.4290 -0.5153
  122MOL0     C16340   0.337   0.611   9.773 -0.0837 -1.1727  0.0620
  122MOL0     C16341   0.465   0.650   9.760  0.1212  0.2992 -0.4458
  122MOL0     C16342   0.554   0.583   9.683  0.0654 -0.3563  0.8135
  122MOL0     O16343   0.686   0.622   9.674 -0.3158  0.0277 -0.3851
  122MOL0     C16344   0.739   0.754   9.698 -0.0178 -0.4647 -1.6189
  122MOL0     C16345   0.758   0.769   9.853  0.6881 -0.5435 -0.7156
  122MOL0     C16346   0.733   0.909   9.908  0.0383  0.4213  0.5511
  122MOL0     C16347   0.851   0.992   9.873 -0.0072 -0.9743  0.0361
  122MOL0     C16348   0.823   1.136   9.931  0.3027 -0.3621  0.4456
  122MOL0     C16349   0.842   1.140  10.083  0.2212 -0.3051  0.2050
  122MOL0     C16350   0.846   1.284  10.145 -0.1741 -0.2033 -0.0895
  122MOL0     C16351   0.957   1.369  10.074 -0.5537  0.0766 -0.0344
  122MOL0     N16352   1.084   1.296  10.060  0.3999  0.1556  0.3733
  122MOL0     C16353   1.144   1.223  10.155 -0.3203  0.4805 -1.0115
  122MOL0     C16354   1.232   1.142  10.094  0.0332 -0.8823 -0.1061
  122MOL0     C16355   1.294   1.027  10.162 -0.5789 -0.3229 -0.1021
  122MOL0     C16356   1.426   0.989  10.103 -0.5480 -0.3043 -0.2426
  122MOL0     C16357   1.494   0.871  10.185 -0.6470 -0.1967  0.3640
  122MOL0     C16358   1.511   0.891  10.334  0.1848  0.4163 -0.1943
  122MOL0     O16359   1.588   0.997  10.370 -1.0165 -0.3866  0.0752
  122MOL0     C16360   1.721   0.977  10.401  0.5572  0.2493  0.4875
  122MOL0     C16361   1.792   0.859  10.364 -0.4993 -0.4477 -0.5117
  122MOL0     C16362   1.929   0.846  10.404  0.3811 -0.3585  0.5425
  122MOL0     C16363   1.990   0.945  10.480  0.2960 -0.3590  0.0975
  122MOL0     C16364   2.142   0.929  10.508 -0.3958  0.1519  0.0890
  122MOL0     O16365   2.201   1.036  10.554 -0.6554 -0.1638 -0.0627
  122MOL0     C16366   2.337   1.044  10.575  0.6339  1.2112 -0.2955
  122MOL0     C16367   2.436   0.993  10.492  0.2162 -0.2251 -0.3592
  122MOL0     C16368   2.569   1.005  10.512 -0.1086  0.0697 -0.1593
  122MOL0     C16369   2.613   1.090  10.620  0.5823  0.2543  0.5479
  122MOL0     O16370   2.749   1.095  10.619 -0.0347 -0.2494 -0.4271
  122MOL0     C16371   2.806   1.173  10.728 -0.6356  0.0850  0.5512
  122MOL0     C16372   2.962   1.146  10.746  0.5891 -0.1797 -0.6805
  122MOL0     C16373   3.051   1.162  10.623  0.6424  1.1737 -0.5330
  122MOL0     C16374   3.071   1.319  10.600 -0.1802  1.1304  0.5235
  122MOL0     C16375   3.124   1.327  10.460 -0.2766  0.2064  0.9012
  122MOL0     C16376   3.168   1.472  10.445  0.1917  0.0772  0.1487
  122MOL0     C16377   3.193   1.524  10.299 -0.2467 -0.6070 -0.5556
  122MOL0     C16378   3.266   1.655  10.319 -0.1440 -0.4614  0.1238
  122MOL0    Cl16379   3.279   1.720  10.151 -0.2289 -0.3095  0.2985
  122MOL0     C16380   2.514   1.153  10.709 -0.0871  0.0480  0.8834
  122MOL0     C16381   2.376   1.130  10.678  0.0907  0.0430 -0.5170
  122MOL0     O16382   2.200   0.823  10.485  0.2437  0.0026 -0.2355
  122MOL0     C16383   1.913   1.059  10.522 -1.1873  0.2352  0.5830
  122MOL0     C16384   1.779   1.073  10.486 -1.1979  0.6661  0.1291
  122MOL0     N16385   1.227   1.178   9.963 -0.2708  0.2152 -0.3687
  122MOL0     N16386   1.150   1.273   9.945 -0.1438 -0.2346  0.6671
  122MOL0     C16387   0.509   0.476   9.608 -0.1686  0.0931 -0.3398
  122MOL0     C16388   0.370   0.440   9.616 -0.2628  0.1586  0.3068
  122MOL0     C16389  -0.060   0.389   9.799  0.0522  0.1352  0.7088
  122MOL0     C16390  -0.102   0.309   9.690 -0.7543 -0.0062 -0.5368
  122MOL0     C16391  -0.225   0.249   9.693 -0.2815  0.3743 -0.2540
  122MOL0     C16392  -0.329   0.292   9.779  0.4306  1.0450 -0.0114
  122MOL0     O16393  -0.452   0.243   9.771  0.1413 -0.4271  0.6705
  122MOL0     C16394  -0.577   0.283   9.834 -0.2138 -0.2950 -0.0226
  122MOL0     C16395  -0.614   0.418   9.780 -0.5555  0.3771 -0.0831
  122MOL0     C16396  -0.623   0.399   9.631 -0.6732 -0.0052  0.0269
  122MOL0     C16397  -0.719   0.504   9.576 -0.4056 -0.3391 -0.3323
  122MOL0     C16398  -0.856   0.463   9.590 -0.7049 -0.7277 -0.3168
  122MOL0     C16399  -0.965   0.422   9.622  0.1616  0.8191  0.2476
  122MOL0     C16400  -0.294   0.373   9.872  0.1818  0.4001  0.1512
  122MOL0     C16401  -0.170   0.412   9.885  0.0459  0.3258 -0.7785
  122MOL0     C16402  -0.147   0.500  10.010  0.4294 -0.7547  0.0869
  122MOL0     H16403   0.271   0.676   9.830  0.0703  1.0964 -2.1751
  122MOL0     H16404   0.492   0.732   9.827  2.1093 -1.3914  0.9803
  122MOL0     H16405   0.832   0.762   9.640 -1.1454 -2.7797 -3.9753
  122MOL0     H16406   0.671   0.832   9.661 -0.1377 -0.2471 -0.9554
  122MOL0     H16407   0.860   0.739   9.876  0.2423 -1.6471 -0.0661
  122MOL0     H16408   0.685   0.702   9.900 -0.1612 -0.7595 -2.2664
  122MOL0     H16409   0.731   0.901  10.017  2.0641  0.2321  0.6023
  122MOL0     H16410   0.643   0.957   9.868 -0.2906  0.8526  1.7570
  122MOL0     H16411   0.936   0.953   9.929 -1.1831 -0.5875  2.2008
  122MOL0     H16412   0.873   0.992   9.766  0.1695 -1.2190  0.0725
  122MOL0     H16413   0.898   1.197   9.881 -1.7713  1.1609 -1.0115
  122MOL0     H16414   0.721   1.170   9.912 -0.0279 -2.1509 -1.3297
  122MOL0     H16415   0.751   1.094  10.122 -0.7808  0.7013 -0.8680
  122MOL0     H16416   0.927   1.077  10.110  3.2562  3.0175 -0.8083
  122MOL0     H16417   0.868   1.265  10.250  0.3555  0.5144 -0.0588
  122MOL0     H16418   0.748   1.332  10.134  0.7860  1.4241 -2.4139
  122MOL0     H16419   0.913   1.393   9.977 -0.1512 -1.0690 -0.5155
  122MOL0     H16420   0.980   1.464  10.124  4.6664 -1.8666  1.9757
  122MOL0     H16421   1.119   1.212  10.260 -0.3022  1.9674 -0.8286
  122MOL0     H16422   1.301   1.049  10.269  0.3527 -2.2167  0.2809
  122MOL0     H16423   1.222   0.945  10.155 -0.8172  0.0289 -2.4721
  122MOL0     H16424   1.406   0.953  10.001 -0.2292  0.2502 -0.5047
  122MOL0     H16425   1.494   1.074  10.102 -0.9169  0.0430  1.3416
  122MOL0     H16426   1.589   0.836  10.144 -0.1658  2.9570 -1.4986
  122MOL0     H16427   1.428   0.786  10.165 -0.7963 -0.4482  1.8398
  122MOL0     H16428   1.546   0.802  10.388 -0.4739  0.9423  1.1254
  122MOL0     H16429   1.415   0.905  10.384  0.3560 -0.2882  0.3593
  122MOL0     H16430   1.752   0.786  10.294  2.9597 -1.1280 -1.9348
  122MOL0     H16431   1.985   0.761  10.364  1.0945  0.7817 -1.0027
  122MOL0     H16432   2.405   0.928  10.411 -0.4335 -0.5265  0.1242
  122MOL0     H16433   2.638   0.959  10.442  0.6232 -1.1881  1.3229
  122MOL0     H16434   2.800   1.280  10.705 -1.5201 -0.5519 -2.7093
  122MOL0     H16435   2.763   1.141  10.824 -0.4816 -0.4418  0.4463
  122MOL0     H16436   2.984   1.221  10.823 -1.5790  3.1478 -3.0309
  122MOL0     H16437   2.976   1.046  10.788 -0.9662  0.1488  0.7556
  122MOL0     H16438   3.151   1.121  10.643  1.1214  1.9504 -1.2552
  122MOL0     H16439   3.007   1.109  10.538 -1.2172  0.1177  1.0148
  122MOL0     H16440   3.138   1.364  10.673  1.8400 -1.4609  0.4287
  122MOL0     H16441   2.977   1.374  10.602 -0.2946  0.9286  0.8121
  122MOL0     H16442   3.042   1.300  10.393  0.8102 -1.5259  0.1955
  122MOL0     H16443   3.214   1.266  10.454  0.8170  1.7578  0.8317
  122MOL0     H16444   3.092   1.542  10.482 -0.4862  0.6635 -2.1689
  122MOL0     H16445   3.262   1.473  10.500  0.6338 -0.0987 -0.5955
  122MOL0     H16446   3.097   1.534  10.248  0.7575 -1.5357 -2.7642
  122MOL0     H16447   3.249   1.447  10.245 -0.4771 -1.0117 -0.2304
  122MOL0     H16448   3.196   1.718  10.374  1.0644  0.6673  0.4188
  122MOL0     H16449   3.359   1.650  10.378  0.5483  3.6518 -0.3051
  122MOL0     H16450   2.543   1.205  10.800  1.0140 -1.0061  1.1504
  122MOL0     H16451   2.292   1.167  10.737  2.0640  0.3870  2.2678
  122MOL0     H16452   1.955   1.135  10.587 -0.7213  0.0186  0.5393
  122MOL0     H16453   1.719   1.160  10.513 -0.2772  1.1459  0.7076
  122MOL0     H16454   0.574   0.431   9.534  0.3542  3.4055 -2.0915
  122MOL0     H16455   0.332   0.362   9.550 -1.3022  0.2195  0.8190
  122MOL0     H16456  -0.030   0.279   9.614 -1.1690  2.6851 -2.1006
  122MOL0     H16457  -0.241   0.175   9.615  0.5179  1.2855 -1.3097
  122MOL0     H16458  -0.565   0.292   9.942  0.4920 -0.5235 -0.0757
  122MOL0     H16459  -0.656   0.213   9.807 -0.3741 -0.0998 -0.0618
  122MOL0     H16460  -0.542   0.495   9.807 -0.4843  0.2183  0.1808
  122MOL0     H16461  -0.707   0.462   9.818  0.1039 -1.0594  3.5394
  122MOL0     H16462  -0.668   0.301   9.608 -3.4745  1.7671 -2.7965
  122MOL0     H16463  -0.522   0.405   9.589 -1.5014  0.7888 -1.9553
  122MOL0     H16464  -0.706   0.604   9.619 -0.8960 -0.4515  0.0826
  122MOL0     H16465  -0.693   0.527   9.472  2.1182  1.1022  0.5260
  122MOL0     H16466  -1.066   0.390   9.635  0.3210  0.1800 -0.0349
  122MOL0     H16467  -0.366   0.395   9.950 -0.6967 -0.3672 -0.4166
  122MOL0     H16468  -0.061   0.475  10.074  1.1561  1.0691 -0.1197
  122MOL0     H16469  -0.137   0.600   9.969  1.8672 -1.9131 -2.6560
  122MOL0     H16470  -0.240   0.505  10.068 -1.4119  3.8884 -2.6957
  123MOL0     O16471   9.579   8.527   8.313 -0.4883 -0.7604  0.3955
  123MOL0     C16472   9.496   8.607   8.277 -0.6507 -0.1876  0.2492
  123MOL0     O16473   9.520   8.738   8.271 -0.1453  0.3970 -0.0791
  123MOL0     C16474   9.656   8.776   8.249  0.1097 -0.2490  0.1775
  123MOL0     C16475   9.744   8.705   8.161  1.6453  0.0847  0.2926
  123MOL0     C16476   9.883   8.727   8.172  0.2024  0.5665 -0.0642
  123MOL0     C16477   9.926   8.830   8.264 -0.5762 -0.2907  0.3002
  123MOL0     O16478  10.057   8.868   8.282 -0.2829 -0.6680  0.2784
  123MOL0     C16479  10.145   8.819   8.176  0.4790  0.5819  0.3729
  123MOL0     C16480  10.272   8.913   8.186 -0.8871  0.2132 -0.9057
  123MOL0     C16481  10.358   8.904   8.315 -0.7916  0.3384 -0.0270
  123MOL0     C16482  10.459   9.017   8.314  0.3338  0.0082  0.2086
  123MOL0     C16483  10.573   9.007   8.218  0.4075  0.8913 -0.1440
  123MOL0     C16484  10.648   8.871   8.210 -0.2329 -0.5182  0.0947
  123MOL0     C16485  10.743   8.861   8.089 -0.0023 -0.8400  0.4781
  123MOL0     C16486  10.836   8.988   8.073  0.9802  0.7516 -0.1580
  123MOL0     N16487  10.954   8.977   8.162  0.1542  0.5402  0.0043
  123MOL0     C16488  11.071   9.046   8.156  0.1971 -1.3586  0.2782
  123MOL0     C16489  11.132   9.042   8.286  0.3575 -0.3591 -0.0255
  123MOL0     C16490  11.264   9.111   8.320  0.8708  1.1131 -0.0172
  123MOL0     C16491  11.298   9.105   8.464 -0.4414  0.1559 -0.1261
  123MOL0     C16492  11.436   9.162   8.484  0.2273 -0.1193  0.1185
  123MOL0     C16493  11.499   9.108   8.610  0.0659 -0.1051 -1.5822
  123MOL0     O16494  11.619   9.189   8.614 -0.9130  0.3098 -0.3933
  123MOL0     C16495  11.710   9.171   8.713 -0.3778  0.6718  0.0588
  123MOL0     C16496  11.688   9.102   8.827 -1.0088  0.4292 -0.9929
  123MOL0     C16497  11.785   9.118   8.934  0.4673 -0.9917 -0.9599
  123MOL0     C16498  11.901   9.203   8.923 -0.5088  0.0352 -0.9036
  123MOL0     C16499  11.995   9.224   9.029  0.0784 -0.5950  0.3583
  123MOL0     O16500  11.972   9.156   9.139 -0.3409  0.1885  0.4840
  123MOL0     C16501  12.033   9.209   9.252 -0.3214 -0.4506 -0.6658
  123MOL0     C16502  12.004   9.339   9.300  0.3331 -0.3409  0.2892
  123MOL0     C16503  12.046   9.379   9.425 -0.1829 -0.4612  0.3284
  123MOL0     C16504  12.130   9.302   9.501  0.3336 -0.2924  0.3194
  123MOL0     O16505  12.172   9.349   9.623 -0.1000  0.3807  0.4897
  123MOL0     C16506  12.221   9.259   9.725 -0.4864 -0.6560 -0.0313
  123MOL0     C16507  12.267   9.337   9.850 -0.1074 -0.4436 -0.3965
  123MOL0     C16508  12.317   9.258   9.975  0.5428  0.3689 -0.5874
  123MOL0     C16509  12.466   9.222   9.971 -0.5542 -0.1618 -0.7908
  123MOL0     C16510  12.554   9.311  10.077 -0.0067  0.0820 -0.0524
  123MOL0     C16511  12.715   9.292  10.073 -0.3529  0.1336 -0.0968
  123MOL0     C16512  12.770   9.226   9.942  0.1532  1.3320 -0.3294
  123MOL0     C16513  12.916   9.165   9.955  0.2401  0.2217 -0.0685
  123MOL0    Cl16514  13.027   9.304   9.957 -0.2804 -0.1654 -0.2625
  123MOL0     C16515  12.154   9.178   9.455  0.3387 -0.2989 -0.7462
  123MOL0     C16516  12.099   9.125   9.343  0.3912  0.5042  0.2870
  123MOL0     O16517  12.089   9.299   9.010 -0.0099 -0.7310  0.6035
  123MOL0     C16518  11.906   9.279   8.804  0.1133  0.4091 -0.0183
  123MOL0     C16519  11.807   9.262   8.705  0.1311 -1.2793 -0.6668
  123MOL0     N16520  11.043   8.959   8.361 -0.6504  0.1816 -0.2282
  123MOL0     N16521  10.945   8.922   8.290  0.6125 -0.4213 -0.0917
  123MOL0     C16522   9.839   8.898   8.346  0.1750 -0.4867  0.1126
  123MOL0     C16523   9.702   8.869   8.337  0.1727 -0.5611 -0.1641
  123MOL0     C16524   9.349   8.577   8.261  0.9111  0.2790  0.5873
  123MOL0     C16525   9.264   8.687   8.232 -0.0067  0.4461  1.0000
  123MOL0     C16526   9.121   8.671   8.214  0.3395  0.0508  0.6458
  123MOL0     C16527   9.061   8.539   8.223 -0.5666  0.4215  0.0864
  123MOL0     O16528   8.922   8.523   8.203  0.3516 -1.0208 -0.3581
  123MOL0     C16529   8.844   8.639   8.234  0.5023 -0.9212 -0.3062
  123MOL0     C16530   8.696   8.600   8.231 -0.2927 -0.2219 -0.4849
  123MOL0     C16531   8.630   8.627   8.104  0.4880  0.5309  0.3970
  123MOL0     C16532   8.481   8.590   8.102 -0.3141 -0.4551  0.2696
  123MOL0     C16533   8.447   8.580   7.956  0.2709 -0.0979  0.3567
  123MOL0     C16534   8.411   8.562   7.843 -0.2154 -0.1854  0.0970
  123MOL0     C16535   9.157   8.430   8.237  0.2500  0.7086 -0.5025
  123MOL0     C16536   9.295   8.441   8.262  0.4622 -0.0079  0.4884
  123MOL0     C16537   9.375   8.314   8.295  1.0134 -0.9419  1.6447
  123MOL0     H16538   9.703   8.635   8.089  0.5521 -0.6289  1.5506
  123MOL0     H16539   9.951   8.657   8.123 -2.6162 -0.0710 -3.4415
  123MOL0     H16540  10.176   8.716   8.194  0.3304  0.7668  1.7907
  123MOL0     H16541  10.095   8.832   8.080  0.5224  2.9455  0.6077
  123MOL0     H16542  10.239   9.015   8.161 -0.7076  0.3007 -0.7849
  123MOL0     H16543  10.334   8.890   8.099 -0.7653 -0.4008 -0.6561
  123MOL0     H16544  10.396   8.801   8.315  0.5560  0.8154 -0.1655
  123MOL0     H16545  10.291   8.916   8.400 -1.8967 -1.2271 -0.6277
  123MOL0     H16546  10.399   9.100   8.278  0.1466 -1.5880 -3.6630
  123MOL0     H16547  10.498   9.025   8.416  2.0490 -0.2350 -0.3850
  123MOL0     H16548  10.542   9.039   8.118  1.9459  2.3486 -0.2014
  123MOL0     H16549  10.639   9.084   8.259 -0.1118  0.9111  0.6676
  123MOL0     H16550  10.692   8.852   8.308 -0.6593 -1.7611  0.0616
  123MOL0     H16551  10.573   8.792   8.199 -2.2143  1.0400  1.7128
  123MOL0     H16552  10.671   8.858   8.007 -2.1676 -1.9316  2.2938
  123MOL0     H16553  10.803   8.770   8.095  0.2086 -0.9282 -2.0549
  123MOL0     H16554  10.868   8.998   7.969 -2.6132  2.4029 -1.2762
  123MOL0     H16555  10.782   9.081   8.096  1.1514  0.7398  0.3069
  123MOL0     H16556  11.103   9.095   8.064 -1.4747 -1.1270 -0.2088
  123MOL0     H16557  11.342   9.068   8.257  1.1119  0.1915  0.8808
  123MOL0     H16558  11.258   9.211   8.277 -0.8038  0.6334 -1.0293
  123MOL0     H16559  11.233   9.162   8.531  1.9463  1.2522  1.4087
  123MOL0     H16560  11.301   9.003   8.502  0.6394 -1.1742 -3.4017
  123MOL0     H16561  11.421   9.270   8.481  2.1318  0.1506 -1.8811
  123MOL0     H16562  11.492   9.126   8.397 -0.0421 -0.2128 -0.0172
  123MOL0     H16563  11.514   9.000   8.610 -1.5319 -0.3793  0.2873
  123MOL0     H16564  11.445   9.148   8.696  1.5663  1.1567 -1.1769
  123MOL0     H16565  11.616   9.021   8.833  0.1976 -0.5982  0.4422
  123MOL0     H16566  11.787   9.059   9.025 -0.7898  3.1491  2.0415
  123MOL0     H16567  11.967   9.420   9.238  0.2346 -1.6292 -1.4115
  123MOL0     H16568  12.028   9.483   9.451  0.1526 -0.6087  1.1942
  123MOL0     H16569  12.147   9.185   9.758 -0.4100 -0.5826  0.3084
  123MOL0     H16570  12.306   9.201   9.689 -1.7161 -2.2747 -0.4756
  123MOL0     H16571  12.350   9.404   9.827  0.7576 -0.8715  1.2775
  123MOL0     H16572  12.183   9.398   9.885 -0.2026 -1.6353  1.6331
  123MOL0     H16573  12.299   9.322  10.062 -2.2697 -0.3805 -0.5427
  123MOL0     H16574  12.246   9.179   9.996 -2.2469  2.7705 -0.3456
  123MOL0     H16575  12.505   9.260   9.876  1.4970  3.6025  1.2781
  123MOL0     H16576  12.485   9.116   9.987 -1.3073 -0.0610  1.0707
  123MOL0     H16577  12.516   9.310  10.179 -3.5738  2.1612 -1.1893
  123MOL0     H16578  12.552   9.414  10.039  1.5353  0.0698 -0.2578
  123MOL0     H16579  12.770   9.384  10.090 -0.9243  0.6134 -0.7494
  123MOL0     H16580  12.736   9.212  10.144  2.1407 -1.9375 -2.8739
  123MOL0     H16581  12.777   9.297   9.859  0.4611  0.0139 -1.4756
  123MOL0     H16582  12.709   9.142   9.906 -0.7701  2.3318 -1.1637
  123MOL0     H16583  12.935   9.086  10.028  2.2318 -0.4414 -1.2317
  123MOL0     H16584  12.939   9.108   9.864  1.1810  1.7465 -0.8300
  123MOL0     H16585  12.202   9.107   9.522 -0.3365  0.1373  0.2213
  123MOL0     H16586  12.115   9.021   9.316 -1.2644  0.3890 -0.3866
  123MOL0     H16587  11.988   9.348   8.787 -0.3602  1.4599  1.6772
  123MOL0     H16588  11.811   9.317   8.612 -0.6030 -2.8007 -1.6426
  123MOL0     H16589   9.880   8.983   8.400  0.9927 -0.9683  0.2692
  123MOL0     H16590   9.625   8.925   8.388  0.6965  0.3755 -0.3666
  123MOL0     H16591   9.306   8.786   8.213 -0.4675  1.0886  3.0521
  123MOL0     H16592   9.064   8.760   8.191  2.4835  2.0232  2.4194
  123MOL0     H16593   8.859   8.717   8.159  0.0679 -1.1768 -0.6605
  123MOL0     H16594   8.871   8.670   8.335  0.8404 -1.5349 -0.2004
  123MOL0     H16595   8.640   8.665   8.299  0.6212  0.1252 -0.0414
  123MOL0     H16596   8.686   8.497   8.266 -0.1587 -0.1728 -0.2968
  123MOL0     H16597   8.684   8.570   8.027 -0.6799 -0.2137  0.0909
  123MOL0     H16598   8.644   8.730   8.072 -2.6810  0.8384 -0.3224
  123MOL0     H16599   8.458   8.496   8.153  1.1894 -0.9950  0.0025
  123MOL0     H16600   8.435   8.677   8.149 -1.3039  0.9091 -2.9441
  123MOL0     H16601   8.377   8.555   7.742  4.6468 -0.2025 -1.8234
  123MOL0     H16602   9.113   8.331   8.229  2.9844 -0.7615  0.9760
  123MOL0     H16603   9.423   8.326   8.392  1.3241 -1.1018  1.5124
  123MOL0     H16604   9.309   8.226   8.294  2.5134 -2.1159 -0.3354
  123MOL0     H16605   9.448   8.282   8.220  1.7620  1.0262  1.4867
  124MOL0     O16606   5.579   9.762   5.219  0.2948  0.0281  0.0792
  124MOL0     C16607   5.552   9.724   5.106 -0.2221  0.0276  0.5329
  124MOL0     O16608   5.634   9.710   5.007 -0.3965 -0.1860 -0.2270
  124MOL0     C16609   5.769   9.735   5.026 -0.3052 -0.6979 -0.0720
  124MOL0     C16610   5.831   9.844   5.100 -0.2879  0.4411  1.2840
  124MOL0     C16611   5.968   9.867   5.074 -0.3833  0.5958  0.6935
  124MOL0     C16612   6.056   9.768   5.011  0.7409  0.6938  0.4971
  124MOL0     O16613   6.188   9.804   5.008  0.2609 -0.7477  0.1828
  124MOL0     C16614   6.269   9.734   4.911  0.4388  0.0221 -0.5533
  124MOL0     C16615   6.413   9.736   4.949  0.2164 -0.3869 -0.2109
  124MOL0     C16616   6.482   9.634   4.857 -0.5616  0.1973 -0.9102
  124MOL0     C16617   6.635   9.648   4.901  0.5237 -0.3200  0.2482
  124MOL0     C16618   6.716   9.677   4.776 -0.9027 -0.3819 -0.3579
  124MOL0     C16619   6.704   9.575   4.659 -0.8794  0.3382  0.1431
  124MOL0     C16620   6.817   9.611   4.558 -0.5705 -0.2805 -0.0920
  124MOL0     C16621   6.800   9.545   4.422 -0.1103  0.8216  0.5148
  124MOL0     N16622   6.749   9.640   4.321 -0.5786 -0.6485 -0.5070
  124MOL0     C16623   6.617   9.657   4.282  0.2782 -0.6218  0.1395
  124MOL0     C16624   6.617   9.753   4.179  0.6665  0.6765  1.1357
  124MOL0     C16625   6.504   9.802   4.090 -0.2354 -0.7856 -0.3720
  124MOL0     C16626   6.370   9.759   4.153 -0.0129 -0.2740 -0.4981
  124MOL0     C16627   6.254   9.832   4.078 -0.4897  0.2488  0.1171
  124MOL0     C16628   6.118   9.839   4.158 -0.2656  0.1270  0.3054
  124MOL0     O16629   6.025   9.924   4.081  0.6099 -0.3957 -0.2959
  124MOL0     C16630   5.897   9.931   4.138 -0.2493  1.0698 -0.0259
  124MOL0     C16631   5.810   9.993   4.059 -1.0017 -1.0693  0.0369
  124MOL0     C16632   5.674  10.025   4.107 -0.1139 -0.4057  0.2713
  124MOL0     C16633   5.632   9.982   4.236  0.7297 -0.7998 -0.2129
  124MOL0     C16634   5.500  10.042   4.284 -0.1094  0.4780  0.2576
  124MOL0     O16635   5.418  10.068   4.174  0.0242 -0.4597  0.6822
  124MOL0     C16636   5.284  10.104   4.177 -0.8409  0.0862 -0.5531
  124MOL0     C16637   5.230  10.149   4.051  0.0627  0.2604 -0.3672
  124MOL0     C16638   5.095  10.169   4.029  0.0894  0.1205 -0.1622
  124MOL0     C16639   5.012  10.176   4.146 -0.5978 -0.1836 -1.3456
  124MOL0     O16640   4.878  10.208   4.144  0.4001  0.0272 -0.4275
  124MOL0     C16641   4.820  10.257   4.021  0.3714  0.1117 -0.2710
  124MOL0     C16642   4.668  10.280   4.045 -0.8562  0.4905 -1.0592
  124MOL0     C16643   4.588  10.162   3.992  0.9880  0.3793 -0.1612
  124MOL0     C16644   4.432  10.192   4.005 -0.3626  0.0916 -0.6057
  124MOL0     C16645   4.349  10.072   3.954  0.2651  0.2676 -0.8600
  124MOL0     C16646   4.206  10.059   4.004  1.0897 -0.3038  0.6016
  124MOL0     C16647   4.175  10.137   4.133  1.0868  0.7681 -0.9208
  124MOL0     C16648   4.033  10.096   4.194 -0.5647  1.7745 -0.5249
  124MOL0    Cl16649   4.040   9.926   4.255 -0.0187 -0.2487  0.0920
  124MOL0     C16650   5.074  10.151   4.268  0.1199  0.2383 -0.1296
  124MOL0     C16651   5.207  10.117   4.289  0.1006  0.3204 -1.2501
  124MOL0     O16652   5.464  10.032   4.404  0.8991 -0.2535  0.4202
  124MOL0     C16653   5.728   9.918   4.318  0.2762 -0.6694 -0.5208
  124MOL0     C16654   5.854   9.888   4.265  0.1868  0.3201  0.3282
  124MOL0     N16655   6.749   9.782   4.153 -0.1171 -0.3729  0.8513
  124MOL0     N16656   6.825   9.721   4.238  0.0001 -0.8768 -0.1910
  124MOL0     C16657   5.996   9.655   4.947 -0.5411 -0.7211  0.4121
  124MOL0     C16658   5.853   9.644   4.949  0.8386 -0.7707  0.0421
  124MOL0     C16659   5.413   9.681   5.087  0.0434  0.1840 -0.5015
  124MOL0     C16660   5.304   9.758   5.146 -0.2468  0.7873  0.4997
  124MOL0     C16661   5.168   9.731   5.121 -0.3769 -0.0100 -0.0187
  124MOL0     C16662   5.137   9.619   5.041  0.3031 -0.0987  0.0472
  124MOL0     O16663   5.013   9.572   5.015  0.1045 -0.3484 -0.5583
  124MOL0     C16664   4.913   9.669   4.975  0.2056 -0.6697  0.0071
  124MOL0     C16665   4.780   9.587   4.961  1.0114 -0.0431  0.4879
  124MOL0     C16666   4.685   9.634   4.857 -0.0594  0.9403 -0.0651
  124MOL0     C16667   4.708   9.600   4.703 -0.2741 -0.1756  0.5472
  124MOL0     C16668   4.728   9.461   4.671 -0.3415  1.1812  0.1808
  124MOL0     C16669   4.754   9.351   4.631 -0.2763  0.2537 -0.4511
  124MOL0     C16670   5.243   9.543   4.982 -0.7290 -0.3239  0.0870
  124MOL0     C16671   5.382   9.576   5.002 -0.0569  0.0591 -0.4033
  124MOL0     C16672   5.486   9.495   4.926 -0.4861  0.1898 -0.2920
  124MOL0     H16673   5.763   9.912   5.149 -1.2818 -1.1064  2.1191
  124MOL0     H16674   6.022   9.950   5.118 -0.7609 -0.6948  3.9529
  124MOL0     H16675   6.244   9.629   4.893  0.0646  0.0170 -0.0196
  124MOL0     H16676   6.253   9.792   4.819  1.5538 -1.9391 -2.0692
  124MOL0     H16677   6.411   9.708   5.054  0.7674  2.8427  0.7801
  124MOL0     H16678   6.461   9.835   4.948  2.5219 -1.4299 -0.6070
  124MOL0     H16679   6.469   9.665   4.752 -1.3948  1.6486 -0.4052
  124MOL0     H16680   6.440   9.534   4.869  0.9538 -0.1036  3.7541
  124MOL0     H16681   6.635   9.721   4.983 -1.8350 -1.9843  1.8712
  124MOL0     H16682   6.656   9.554   4.952  1.9169 -1.1865 -1.8007
  124MOL0     H16683   6.677   9.772   4.741  0.6993  1.6972  3.0151
  124MOL0     H16684   6.821   9.674   4.808 -0.9962 -1.8126 -0.1046
  124MOL0     H16685   6.737   9.485   4.713 -1.9021  0.2836  0.6975
  124MOL0     H16686   6.607   9.563   4.611  0.7082 -1.1156 -3.0729
  124MOL0     H16687   6.912   9.575   4.599 -0.3088  0.1105 -0.3531
  124MOL0     H16688   6.831   9.719   4.551  1.5711 -0.5522 -0.6715
  124MOL0     H16689   6.890   9.499   4.380 -0.7515 -2.2759  2.2092
  124MOL0     H16690   6.725   9.466   4.415  1.0605 -0.1010 -3.7043
  124MOL0     H16691   6.527   9.611   4.322 -0.0621  1.0354  1.4067
  124MOL0     H16692   6.510   9.911   4.083 -0.0318 -0.9258 -3.0714
  124MOL0     H16693   6.512   9.766   3.988 -0.3773  1.8907 -1.4137
  124MOL0     H16694   6.345   9.652   4.159  2.1280 -0.7686  2.6655
  124MOL0     H16695   6.361   9.795   4.256 -0.0274 -1.8432  0.0837
  124MOL0     H16696   6.240   9.770   3.989  2.1426 -0.8643  0.3767
  124MOL0     H16697   6.293   9.929   4.046 -1.5000  0.0744 -1.7786
  124MOL0     H16698   6.135   9.885   4.256  1.1486  0.8062 -0.2218
  124MOL0     H16699   6.077   9.740   4.176 -0.4059  0.6103  3.0315
  124MOL0     H16700   5.843  10.021   3.959 -0.8587 -2.9750 -0.4915
  124MOL0     H16701   5.620  10.084   4.034  1.5810 -0.5034 -1.1315
  124MOL0     H16702   5.297  10.149   3.966 -1.9172  0.8965 -2.0319
  124MOL0     H16703   5.061  10.210   3.935 -3.5878  1.7434  1.6860
  124MOL0     H16704   4.865  10.353   3.993 -1.0333  0.3542 -1.8485
  124MOL0     H16705   4.833  10.179   3.945  4.5623 -0.5422  0.8552
  124MOL0     H16706   4.642  10.287   4.151  1.5262 -3.1620 -0.0548
  124MOL0     H16707   4.631  10.371   3.996  0.0000  1.2804 -0.2865
  124MOL0     H16708   4.602  10.145   3.884  1.0812 -0.6538  0.0076
  124MOL0     H16709   4.608  10.070   4.047  0.0037  0.0222 -0.3771
  124MOL0     H16710   4.408  10.280   3.945 -1.7447  1.0505  1.2233
  124MOL0     H16711   4.414  10.234   4.105  1.7532  0.6702 -0.4266
  124MOL0     H16712   4.395   9.982   3.994 -1.6085 -0.5480 -0.4434
  124MOL0     H16713   4.352  10.065   3.845  0.4975  0.4621 -0.8679
  124MOL0     H16714   4.150  10.119   3.932  4.4693  2.2953 -0.0900
  124MOL0     H16715   4.182   9.952   4.013  0.8681 -0.2273  0.9612
  124MOL0     H16716   4.168  10.245   4.123 -1.2861  0.6755 -0.8732
  124MOL0     H16717   4.246  10.110   4.212  0.9799 -2.2857 -1.7310
  124MOL0     H16718   4.008  10.165   4.275 -1.0223  0.5746  0.3788
  124MOL0     H16719   3.954  10.101   4.118 -0.3939  5.5243 -0.6857
  124MOL0     H16720   5.007  10.151   4.354 -0.8756 -3.7383 -0.6988
  124MOL0     H16721   5.244  10.092   4.388 -1.5831  5.1313  0.9027
  124MOL0     H16722   5.695   9.889   4.418 -2.2090 -1.6995 -1.5721
  124MOL0     H16723   5.907   9.820   4.331 -0.0485 -0.6908 -0.5076
  124MOL0     H16724   6.054   9.590   4.882  3.2105  1.0347  1.7123
  124MOL0     H16725   5.806   9.579   4.876 -0.9901 -0.8881  1.2548
  124MOL0     H16726   5.341   9.840   5.206  1.3754  1.3208 -1.1303
  124MOL0     H16727   5.093   9.792   5.171 -1.1957 -1.4229  0.5304
  124MOL0     H16728   4.939   9.706   4.876 -0.7739 -3.4412 -1.3862
  124MOL0     H16729   4.907   9.751   5.048  0.8290 -0.1701 -0.4910
  124MOL0     H16730   4.731   9.579   5.058 -0.3331 -0.3729 -0.1895
  124MOL0     H16731   4.805   9.485   4.931 -1.5210 -0.5394 -0.1659
  124MOL0     H16732   4.667   9.742   4.864  1.1502  1.0607  2.0922
  124MOL0     H16733   4.591   9.581   4.875  0.9795 -1.2463 -0.7123
  124MOL0     H16734   4.624   9.643   4.648  0.1864 -2.2071 -1.9180
  124MOL0     H16735   4.806   9.641   4.675 -0.0509  0.8907  2.6933
  124MOL0     H16736   4.775   9.248   4.608 -1.6776 -0.7084  2.0584
  124MOL0     H16737   5.214   9.461   4.917 -2.1433  1.1590 -1.2138
  124MOL0     H16738   5.440   9.412   4.873  0.4805  0.7031 -2.0094
  124MOL0     H16739   5.547   9.557   4.859  0.8529 -0.8083 -0.0599
  124MOL0     H16740   5.556   9.456   5.000 -2.1789 -1.3938  0.5414
  125MOL0     O16741   5.968   5.325   1.234  0.5981 -0.1060  0.1721
  125MOL0     C16742   6.003   5.417   1.161  0.6224 -0.7487  0.1408
  125MOL0     O16743   6.080   5.533   1.201  0.8566 -0.8475  0.7537
  125MOL0     C16744   6.059   5.603   1.318 -0.1539  0.8865 -0.3314
  125MOL0     C16745   5.939   5.596   1.390  0.0805 -0.2743 -0.2840
  125MOL0     C16746   5.912   5.686   1.493  0.5516  0.0509 -0.0278
  125MOL0     C16747   6.006   5.782   1.539  0.5546  0.0548  0.5369
  125MOL0     O16748   5.968   5.877   1.629 -0.2930 -0.0105  0.6938
  125MOL0     C16749   6.065   5.948   1.707  0.1374 -0.3512  0.7877
  125MOL0     C16750   5.982   6.002   1.825 -0.0282  0.0955 -0.0281
  125MOL0     C16751   6.064   6.079   1.923  0.1795 -0.2939  0.1812
  125MOL0     C16752   6.021   6.084   2.070 -0.1177 -0.3863  0.3830
  125MOL0     C16753   6.072   6.210   2.154 -0.5676  0.3198 -0.1637
  125MOL0     C16754   6.000   6.337   2.123  0.5191 -0.0162 -0.5063
  125MOL0     C16755   6.030   6.457   2.218 -0.2618  0.7443 -0.0662
  125MOL0     C16756   5.957   6.584   2.174  0.5045 -0.5139  0.9467
  125MOL0     N16757   5.992   6.694   2.259  0.5155 -0.4649  0.2113
  125MOL0     C16758   5.961   6.710   2.390  0.1153  0.7062  0.8190
  125MOL0     C16759   6.038   6.811   2.439 -0.4263 -0.0013  0.2409
  125MOL0     C16760   6.056   6.867   2.572 -0.2193 -0.2346 -0.3872
  125MOL0     C16761   5.999   7.010   2.596 -0.5149 -0.2915  0.4194
  125MOL0     C16762   5.849   7.013   2.566  0.8519 -0.0382 -0.7783
  125MOL0     C16763   5.752   6.903   2.639  0.0738 -0.4463 -0.5345
  125MOL0     O16764   5.781   6.872   2.768  0.7122  1.1769  0.0351
  125MOL0     C16765   5.678   6.894   2.864 -0.0644  0.1079 -0.1783
  125MOL0     C16766   5.548   6.866   2.837  0.5788  0.4124 -0.1715
  125MOL0     C16767   5.449   6.877   2.934 -0.3967 -0.4422 -0.3809
  125MOL0     C16768   5.477   6.921   3.063  0.3899 -0.7397  0.4196
  125MOL0     C16769   5.365   6.939   3.160 -0.4393  0.8459  0.2341
  125MOL0     O16770   5.238   6.883   3.129 -0.9322 -0.3233 -0.8471
  125MOL0     C16771   5.137   6.916   3.208 -0.2958 -0.2605 -0.8396
  125MOL0     C16772   5.133   6.890   3.352 -0.7135  0.1042  0.5912
  125MOL0     C16773   5.018   6.912   3.427  0.4202 -0.1296 -0.3168
  125MOL0     C16774   4.894   6.935   3.362  0.1679 -0.7494  0.0385
  125MOL0     O16775   4.780   6.938   3.439 -0.4010 -0.5677 -0.2082
  125MOL0     C16776   4.706   7.055   3.414 -0.0669 -0.0308 -0.0546
  125MOL0     C16777   4.630   7.077   3.542 -1.5110 -0.3469  0.6805
  125MOL0     C16778   4.540   6.949   3.578  0.5609  0.2675  0.2346
  125MOL0     C16779   4.424   6.983   3.672  0.1981  0.0900  0.1747
  125MOL0     C16780   4.296   7.033   3.602 -0.7593 -0.1305  0.2858
  125MOL0     C16781   4.189   7.070   3.705  0.7455  0.0903 -0.6565
  125MOL0     C16782   4.111   6.950   3.764 -0.2797  0.0710 -0.1531
  125MOL0     C16783   4.009   6.997   3.863 -0.5755 -0.6795  0.4852
  125MOL0    Cl16784   3.876   7.083   3.784  0.1065  0.2062 -0.0547
  125MOL0     C16785   4.900   6.969   3.226 -0.7539 -0.3326  0.6036
  125MOL0     C16786   5.022   6.964   3.151  0.6013  0.8411  0.0790
  125MOL0     O16787   5.393   7.010   3.257 -0.7265 -1.0463 -0.0681
  125MOL0     C16788   5.612   6.957   3.090  0.0937  0.2178  0.4186
  125MOL0     C16789   5.714   6.944   2.990  0.4341  0.5070 -0.1771
  125MOL0     N16790   6.124   6.838   2.336 -0.3171 -0.1051  0.1638
  125MOL0     N16791   6.092   6.778   2.227 -0.3823 -0.3675 -0.0080
  125MOL0     C16792   6.122   5.783   1.459 -0.0391  0.2889  0.1100
  125MOL0     C16793   6.155   5.691   1.361  0.3447 -0.0858  0.4010
  125MOL0     C16794   5.983   5.408   1.013  0.0976 -0.4238 -0.1147
  125MOL0     C16795   6.051   5.504   0.934  0.0296  0.6673 -0.7639
  125MOL0     C16796   6.025   5.509   0.798 -0.1486  0.1896 -0.5907
  125MOL0     C16797   5.930   5.420   0.742  0.1783 -0.1501  0.3069
  125MOL0     O16798   5.895   5.424   0.609 -0.4776  0.2962  0.1497
  125MOL0     C16799   5.930   5.534   0.523 -0.2687 -0.1266  0.2119
  125MOL0     C16800   5.852   5.663   0.559 -0.1203 -0.0135  0.9506
  125MOL0     C16801   5.703   5.639   0.550  0.4775  0.5271 -0.2642
  125MOL0     C16802   5.629   5.779   0.552  0.0049  0.1157 -0.3690
  125MOL0     C16803   5.484   5.761   0.561  0.4120 -0.2436  0.6200
  125MOL0     C16804   5.363   5.738   0.590  0.2809 -0.2752  0.8367
  125MOL0     C16805   5.876   5.316   0.815  0.9750 -0.1896  0.7045
  125MOL0     C16806   5.903   5.305   0.952  0.2662  0.5750  0.4866
  125MOL0     C16807   5.855   5.179   1.014  0.9590  1.7559 -0.5550
  125MOL0     H16808   5.868   5.519   1.362 -0.0401  0.0114 -0.7572
  125MOL0     H16809   5.814   5.671   1.538  1.0141  1.8679  1.7466
  125MOL0     H16810   6.141   5.884   1.752  3.0170  1.7201 -0.8263
  125MOL0     H16811   6.108   6.032   1.651 -0.1076  0.1643  1.3560
  125MOL0     H16812   5.932   5.917   1.872 -0.2389  1.2967  2.0338
  125MOL0     H16813   5.910   6.073   1.782  0.5377  0.4830 -0.3557
  125MOL0     H16814   6.072   6.180   1.884 -0.9891 -0.7486 -1.3175
  125MOL0     H16815   6.166   6.039   1.918 -0.6895 -2.4908 -2.4989
  125MOL0     H16816   5.913   6.082   2.085  0.0612 -0.1058  1.8270
  125MOL0     H16817   6.062   5.995   2.119 -2.0818 -2.4616 -1.4494
  125MOL0     H16818   6.053   6.183   2.258  1.1598 -0.3680  0.0041
  125MOL0     H16819   6.180   6.225   2.150 -0.0808 -1.6700  2.6204
  125MOL0     H16820   6.023   6.373   2.022  1.9669 -1.0308 -0.5558
  125MOL0     H16821   5.892   6.318   2.132  0.6390  0.3829  5.0228
  125MOL0     H16822   6.138   6.479   2.220 -0.0343  0.4867 -3.5316
  125MOL0     H16823   5.998   6.423   2.317 -0.1954  3.0982  0.8178
  125MOL0     H16824   5.988   6.610   2.072  1.3093  1.7034  1.7069
  125MOL0     H16825   5.848   6.569   2.177 -0.1297  2.7223 -0.7352
  125MOL0     H16826   5.895   6.641   2.442  1.9623 -0.1544  2.1663
  125MOL0     H16827   6.000   6.805   2.643  0.2463  1.5322  1.6219
  125MOL0     H16828   6.162   6.868   2.599 -0.2112  0.4278 -0.4330
  125MOL0     H16829   6.014   7.033   2.702  0.7014 -3.3236  1.0141
  125MOL0     H16830   6.054   7.086   2.539  1.7418 -0.6886  1.9466
  125MOL0     H16831   5.827   7.016   2.458 -1.6180 -1.3624 -0.3769
  125MOL0     H16832   5.814   7.109   2.603 -0.3408 -0.1677 -1.5154
  125MOL0     H16833   5.762   6.810   2.582 -1.9385 -0.8634 -0.2853
  125MOL0     H16834   5.650   6.939   2.628 -0.1868  1.1233  4.5407
  125MOL0     H16835   5.528   6.836   2.734  1.5030  0.4384 -0.3701
  125MOL0     H16836   5.345   6.873   2.903 -1.4862  0.8941  2.7669
  125MOL0     H16837   5.226   6.866   3.402 -0.6282 -0.9478 -0.0449
  125MOL0     H16838   5.010   6.885   3.532 -1.5267 -3.3819 -1.1456
  125MOL0     H16839   4.771   7.143   3.404 -0.5650  0.3711  0.2132
  125MOL0     H16840   4.639   7.043   3.328 -2.1150 -0.6302  1.5655
  125MOL0     H16841   4.706   7.104   3.617 -2.1783 -1.1642  1.6698
  125MOL0     H16842   4.568   7.165   3.520 -0.4576  0.1716 -0.3721
  125MOL0     H16843   4.490   6.904   3.491 -0.1983 -2.6873  2.0760
  125MOL0     H16844   4.593   6.866   3.625 -0.5570 -0.0609  0.9460
  125MOL0     H16845   4.452   7.056   3.749  0.1478  0.0899  0.1935
  125MOL0     H16846   4.395   6.895   3.729 -2.0120 -0.0409 -1.0107
  125MOL0     H16847   4.268   6.967   3.519 -3.3256 -0.9942  1.7261
  125MOL0     H16848   4.327   7.128   3.558  1.7625 -0.5301  1.0309
  125MOL0     H16849   4.227   7.134   3.785 -1.4212  0.1721  0.3794
  125MOL0     H16850   4.117   7.134   3.654 -0.3203 -0.5762 -0.0204
  125MOL0     H16851   4.178   6.878   3.812 -0.3149 -2.3207 -3.2910
  125MOL0     H16852   4.063   6.903   3.677 -1.8854  0.1116  0.6742
  125MOL0     H16853   3.961   6.914   3.915 -1.6790 -0.7998 -0.6807
  125MOL0     H16854   4.062   7.058   3.937  0.3121  1.0264 -1.4548
  125MOL0     H16855   4.803   6.975   3.177 -0.2543 -2.8025 -0.8842
  125MOL0     H16856   5.028   6.998   3.048 -0.3587  1.5400  0.2326
  125MOL0     H16857   5.639   7.007   3.182  1.9320  1.0307 -0.5048
  125MOL0     H16858   5.819   6.969   2.995  0.7000 -0.7002  1.1041
  125MOL0     H16859   6.192   5.859   1.492 -1.6429  1.9299 -0.1203
  125MOL0     H16860   6.246   5.695   1.302 -0.2645 -2.0234 -0.7455
  125MOL0     H16861   6.115   5.582   0.972 -2.6567  1.7688  1.8782
  125MOL0     H16862   6.073   5.591   0.747 -1.3332  1.8565  0.8597
  125MOL0     H16863   5.899   5.504   0.423 -2.5390 -0.6625  1.0244
  125MOL0     H16864   6.038   5.550   0.512 -0.0469 -0.1086  2.0170
  125MOL0     H16865   5.889   5.742   0.494  1.4412 -1.7075 -0.3339
  125MOL0     H16866   5.877   5.690   0.662  0.2937 -1.5426  1.2895
  125MOL0     H16867   5.665   5.582   0.635 -0.0828  1.0601 -0.1511
  125MOL0     H16868   5.680   5.596   0.452 -0.9158 -0.9215  0.6585
  125MOL0     H16869   5.658   5.848   0.633 -2.7455 -0.1438  0.9464
  125MOL0     H16870   5.667   5.833   0.465  2.2933 -1.0393 -0.1711
  125MOL0     H16871   5.260   5.715   0.612 -0.5550  2.6772  0.3789
  125MOL0     H16872   5.815   5.243   0.763  0.6894  0.6066 -0.1273
  125MOL0     H16873   5.933   5.131   1.075 -1.2612 -0.8634  0.3996
  125MOL0     H16874   5.773   5.190   1.086  0.4827  0.1128 -0.8223
  125MOL0     H16875   5.830   5.093   0.952  0.4376 -0.0602  1.9860
  126MOL0     O16876   2.660   1.669   4.297  0.0186  0.6946  0.4693
  126MOL0     C16877   2.643   1.579   4.213  0.1962  0.0332 -0.0134
  126MOL0     O16878   2.731   1.537   4.117  0.2381  0.1683  0.2557
  126MOL0     C16879   2.840   1.615   4.116  0.1437  0.2559 -0.1929
  126MOL0     C16880   2.839   1.743   4.045 -0.2940 -0.4324  0.5174
  126MOL0     C16881   2.965   1.808   4.029 -0.4817 -0.0667  0.1691
  126MOL0     C16882   3.070   1.763   4.107 -0.3756 -0.6383 -0.2649
  126MOL0     O16883   3.189   1.832   4.120 -0.7399 -0.2744 -0.7181
  126MOL0     C16884   3.257   1.872   4.008  0.2382  0.4590 -0.4958
  126MOL0     C16885   3.398   1.893   4.044 -0.4389  0.1684  0.0702
  126MOL0     C16886   3.457   1.979   3.932 -0.0773  0.2266 -0.0517
  126MOL0     C16887   3.606   1.980   3.960  0.9884  0.9282  0.3627
  126MOL0     C16888   3.683   2.065   3.864  0.0039 -0.4997  0.6921
  126MOL0     C16889   3.824   2.006   3.836  0.1455 -0.3001 -0.1966
  126MOL0     C16890   3.879   2.076   3.721  0.1814 -0.7008 -0.3227
  126MOL0     C16891   4.024   2.032   3.695  0.1308 -0.6053  0.6832
  126MOL0     N16892   4.122   2.069   3.807  0.1902  0.5533 -0.4221
  126MOL0     C16893   4.242   2.016   3.815  0.0029 -0.8102 -0.7518
  126MOL0     C16894   4.309   2.081   3.913 -0.3471  0.6086 -0.2696
  126MOL0     C16895   4.447   2.035   3.967  0.4528 -0.0122 -0.2375
  126MOL0     C16896   4.546   2.144   3.933  0.2041  0.0967  0.2352
  126MOL0     C16897   4.555   2.268   4.020 -0.6566  0.0881 -0.2604
  126MOL0     C16898   4.622   2.243   4.164  0.7733 -0.0258 -0.3769
  126MOL0     O16899   4.648   2.374   4.211 -0.3699 -0.4307 -0.2805
  126MOL0     C16900   4.769   2.433   4.183  0.6553  0.1645 -0.0892
  126MOL0     C16901   4.857   2.399   4.081  0.1560  0.3547 -0.2250
  126MOL0     C16902   4.976   2.472   4.069  0.7409 -0.4118 -0.1828
  126MOL0     C16903   4.998   2.593   4.150 -0.2896  0.0123  0.0957
  126MOL0     C16904   5.106   2.675   4.114  0.0678  0.2664  0.0425
  126MOL0     O16905   5.168   2.750   4.210 -0.2671  0.6183 -0.5760
  126MOL0     C16906   5.273   2.828   4.163 -0.0436 -0.0802 -0.2929
  126MOL0     C16907   5.408   2.797   4.184 -0.0201 -0.3423 -0.2803
  126MOL0     C16908   5.499   2.891   4.148  0.7210  0.2956  0.1122
  126MOL0     C16909   5.466   3.009   4.072  1.0233  0.9370 -0.0223
  126MOL0     O16910   5.546   3.104   4.021 -0.1675  0.1429 -0.2498
  126MOL0     C16911   5.681   3.068   4.004  0.3873 -0.3508  0.3111
  126MOL0     C16912   5.750   3.176   3.915  0.3891  0.8897  0.4414
  126MOL0     C16913   5.740   3.321   3.962 -0.0807 -0.3574 -0.4780
  126MOL0     C16914   5.873   3.379   4.027 -0.0060  0.2646 -0.5875
  126MOL0     C16915   5.848   3.518   4.079  0.3952  0.1045 -1.0578
  126MOL0     C16916   5.974   3.545   4.165  0.1190  0.3692  0.2678
  126MOL0     C16917   5.980   3.690   4.211 -0.0091  0.7429  0.0431
  126MOL0     C16918   6.101   3.702   4.306  0.2231 -0.2922  0.3199
  126MOL0    Cl16919   6.126   3.870   4.350  0.5440 -0.3989  0.1371
  126MOL0     C16920   5.337   3.029   4.028 -0.0445  1.1382  0.1140
  126MOL0     C16921   5.241   2.945   4.084  0.0829 -0.3389  0.6246
  126MOL0     O16922   5.128   2.676   3.991 -0.0374 -0.7760  0.5297
  126MOL0     C16923   4.909   2.621   4.254 -0.4944  0.1168  0.6635
  126MOL0     C16924   4.800   2.537   4.268 -0.2849  0.3831 -0.2868
  126MOL0     N16925   4.229   2.181   3.957  0.9774 -0.3355 -0.0519
  126MOL0     N16926   4.127   2.183   3.881 -0.3486  0.2185  0.5791
  126MOL0     C16927   3.065   1.636   4.168 -0.6338  0.2035 -0.0940
  126MOL0     C16928   2.955   1.563   4.171  0.2113 -0.2905  0.1558
  126MOL0     C16929   2.512   1.505   4.214  0.5599 -0.2428  0.2989
  126MOL0     C16930   2.395   1.584   4.229 -0.8908  0.0773  0.2199
  126MOL0     C16931   2.275   1.526   4.210 -0.3431 -0.4130 -0.1840
  126MOL0     C16932   2.258   1.391   4.182 -0.3460 -0.5028 -1.1915
  126MOL0     O16933   2.145   1.325   4.155  0.4116 -0.0133 -0.2974
  126MOL0     C16934   2.015   1.390   4.151 -0.6611  0.1653 -0.0737
  126MOL0     C16935   1.916   1.291   4.096  0.6063  0.1352 -0.5798
  126MOL0     C16936   1.772   1.340   4.111  0.0109 -0.3366  0.2063
  126MOL0     C16937   1.709   1.375   3.972  0.2836  0.0559 -0.9237
  126MOL0     C16938   1.573   1.426   3.997 -0.1069  0.8543 -0.3229
  126MOL0     C16939   1.457   1.455   3.999 -0.4380 -0.4915 -0.4400
  126MOL0     C16940   2.374   1.310   4.179  0.7464  0.6723  0.6270
  126MOL0     C16941   2.500   1.369   4.192 -0.1480 -0.6656  0.4150
  126MOL0     C16942   2.624   1.285   4.187 -0.1025  0.0215  0.5874
  126MOL0     H16943   2.749   1.788   4.006  1.1586  1.2876 -1.0082
  126MOL0     H16944   2.992   1.896   3.972  1.3992  1.2570  2.8814
  126MOL0     H16945   3.235   1.804   3.925 -1.6903  0.2635  0.1144
  126MOL0     H16946   3.210   1.970   3.991 -3.1609 -0.6752  1.3111
  126MOL0     H16947   3.452   1.798   4.054  1.3708  1.0862 -0.4927
  126MOL0     H16948   3.401   1.941   4.142 -0.4245 -1.9404  1.1524
  126MOL0     H16949   3.414   2.079   3.945  0.7631  0.9279 -2.2097
  126MOL0     H16950   3.445   1.944   3.829  1.7224 -1.2234  0.1774
  126MOL0     H16951   3.626   2.022   4.059 -1.3803  0.8181  0.9461
  126MOL0     H16952   3.652   1.881   3.962 -0.5552 -0.0112 -3.1505
  126MOL0     H16953   3.641   2.059   3.763  3.1939  2.3203 -0.9891
  126MOL0     H16954   3.689   2.172   3.888 -0.6609 -0.1933 -0.4527
  126MOL0     H16955   3.888   2.017   3.924 -1.8630  0.2861  1.2720
  126MOL0     H16956   3.818   1.898   3.820 -0.8434 -0.2012 -0.5604
  126MOL0     H16957   3.878   2.184   3.741  1.9047  0.0244 -3.5001
  126MOL0     H16958   3.815   2.063   3.633  2.0162  2.6582 -2.3796
  126MOL0     H16959   4.029   1.922   3.698  1.8183 -0.5472  0.9328
  126MOL0     H16960   4.054   2.078   3.601 -0.5512 -0.5665  0.4754
  126MOL0     H16961   4.285   1.936   3.754  3.2449  2.1083 -2.6823
  126MOL0     H16962   4.446   2.023   4.076  1.3749  1.1636 -0.0704
  126MOL0     H16963   4.482   1.941   3.925 -2.7324 -1.9058  1.0329
  126MOL0     H16964   4.646   2.104   3.952  0.4626 -0.2714 -1.6939
  126MOL0     H16965   4.525   2.174   3.830  0.3120  2.6336  0.8790
  126MOL0     H16966   4.455   2.306   4.045 -1.1276 -2.2653  1.8646
  126MOL0     H16967   4.609   2.349   3.971  1.0440 -0.6978  0.2584
  126MOL0     H16968   4.705   2.174   4.148  0.4735 -0.0451 -2.0311
  126MOL0     H16969   4.554   2.192   4.233 -2.3083  1.1229 -2.3643
  126MOL0     H16970   4.828   2.317   4.016 -1.7106  1.7593 -1.2855
  126MOL0     H16971   5.052   2.433   4.002 -0.0119  0.0147 -1.3020
  126MOL0     H16972   5.431   2.703   4.234 -1.1529 -0.6213 -0.2627
  126MOL0     H16973   5.603   2.869   4.169  1.4388 -2.7059 -4.8699
  126MOL0     H16974   5.738   3.054   4.097 -1.2509  0.8399  1.5439
  126MOL0     H16975   5.696   2.974   3.949  4.3693 -1.4082  2.7831
  126MOL0     H16976   5.856   3.154   3.901 -0.3676 -1.0834 -3.7417
  126MOL0     H16977   5.713   3.160   3.813  2.0918 -0.3551 -0.0150
  126MOL0     H16978   5.693   3.385   3.886 -1.5118  0.4562  1.0412
  126MOL0     H16979   5.658   3.314   4.033 -1.4849 -2.9171 -2.2256
  126MOL0     H16980   5.964   3.368   3.968  1.6134  0.8952  1.6625
  126MOL0     H16981   5.893   3.316   4.115  0.1913 -0.3563 -1.0648
  126MOL0     H16982   5.766   3.519   4.151  3.2743  2.4488  2.6201
  126MOL0     H16983   5.836   3.585   3.994  0.5398  0.5084 -0.7625
  126MOL0     H16984   5.976   3.484   4.256  0.0543  1.3045  0.9110
  126MOL0     H16985   6.066   3.519   4.112 -0.0549 -2.2228  1.1153
  126MOL0     H16986   5.888   3.713   4.266 -0.4693  1.6557 -1.0646
  126MOL0     H16987   6.002   3.761   4.131  1.6878  1.2744  0.9436
  126MOL0     H16988   6.101   3.635   4.393  1.6406 -1.1559 -0.3134
  126MOL0     H16989   6.188   3.687   4.242 -1.6725  2.3839 -3.1923
  126MOL0     H16990   5.308   3.122   3.979  1.5799  2.1986  1.0499
  126MOL0     H16991   5.142   2.971   4.047 -0.4581 -0.4924  1.9245
  126MOL0     H16992   4.919   2.691   4.336  2.1103 -3.1972  3.4277
  126MOL0     H16993   4.729   2.559   4.346  1.0557  1.3539  0.7146
  126MOL0     H16994   3.145   1.586   4.222  1.5055  1.7974 -1.5674
  126MOL0     H16995   2.961   1.476   4.236  3.5207 -0.4144 -0.1707
  126MOL0     H16996   2.411   1.688   4.257  3.1036 -0.5477  0.8529
  126MOL0     H16997   2.189   1.591   4.223  2.1269  3.2091 -0.5437
  126MOL0     H16998   2.011   1.481   4.090  0.6563 -0.5478 -1.2959
  126MOL0     H16999   1.995   1.425   4.252  0.2106  0.3479  0.0471
  126MOL0     H17000   1.933   1.208   4.166  2.3037  3.4208  3.2835
  126MOL0     H17001   1.933   1.259   3.993  0.1990 -1.3730 -0.2009
  126MOL0     H17002   1.760   1.432   4.169 -0.7100  0.0384 -0.5065
  126MOL0     H17003   1.709   1.267   4.162 -1.7664 -1.3823 -3.1422
  126MOL0     H17004   1.773   1.459   3.945  0.4033  1.6277  3.3939
  126MOL0     H17005   1.713   1.290   3.904 -1.6500 -0.3200 -0.6260
  126MOL0     H17006   1.354   1.483   4.007 -0.4565 -0.7774  0.4471
  126MOL0     H17007   2.381   1.204   4.160 -2.3811  0.6571 -1.1081
  126MOL0     H17008   2.599   1.181   4.207 -2.4256  0.2271 -0.8908
  126MOL0     H17009   2.682   1.284   4.095  1.0604 -2.3256  1.2657
  126MOL0     H17010   2.691   1.320   4.267 -1.3897 -0.8470  2.1127
  127MOL0     O17011   4.847   5.514   9.374  0.4026  0.8485 -0.4280
  127MOL0     C17012   4.885   5.580   9.277  0.1941  0.1180 -0.5582
  127MOL0     O17013   4.967   5.684   9.279 -0.2716 -0.6865 -0.6035
  127MOL0     C17014   5.038   5.705   9.399 -0.0566  0.4905 -0.6019
  127MOL0     C17015   5.179   5.671   9.410  0.0903  0.3638 -0.4295
  127MOL0     C17016   5.247   5.717   9.522  0.6988  0.5369  0.2528
  127MOL0     C17017   5.176   5.753   9.639 -0.3951 -0.7253 -0.2415
  127MOL0     O17018   5.256   5.806   9.745 -0.2456  0.2459 -0.3259
  127MOL0     C17019   5.227   5.947   9.777  0.2918 -0.2102  0.3063
  127MOL0     C17020   5.342   6.025   9.854  0.3453 -0.8201  0.5786
  127MOL0     C17021   5.372   5.938   9.981 -0.5234 -0.2893  1.1241
  127MOL0     C17022   5.435   6.029  10.100 -0.3730  0.1072 -0.1313
  127MOL0     C17023   5.477   5.947  10.221  0.5703  0.3389  0.0818
  127MOL0     C17024   5.567   5.818  10.187 -0.6751 -0.8535 -0.9669
  127MOL0     C17025   5.615   5.758  10.324 -0.0542  0.3295  1.2766
  127MOL0     C17026   5.698   5.637  10.305 -0.0017 -0.5936 -0.0092
  127MOL0     N17027   5.839   5.682  10.306 -0.2569  0.7617 -0.1316
  127MOL0     C17028   5.905   5.737  10.416 -0.1822 -0.1348 -0.5047
  127MOL0     C17029   6.039   5.735  10.374  0.7488 -0.0648  0.0048
  127MOL0     C17030   6.157   5.786  10.459  1.0493  0.0430  0.2691
  127MOL0     C17031   6.285   5.713  10.443 -0.2860 -0.5693 -0.2293
  127MOL0     C17032   6.377   5.779  10.542 -0.3809 -0.8713  0.0858
  127MOL0     C17033   6.498   5.684  10.558 -0.2243 -0.1294  0.1627
  127MOL0     O17034   6.443   5.567  10.608  0.1810  0.6875  0.4244
  127MOL0     C17035   6.521   5.468  10.665  0.0066  0.5215  0.6570
  127MOL0     C17036   6.655   5.461  10.692  0.3692 -0.6990 -0.0284
  127MOL0     C17037   6.711   5.360  10.769  0.0685 -0.9302  0.6737
  127MOL0     C17038   6.632   5.257  10.822 -0.0224  0.5443  0.9807
  127MOL0     C17039   6.692   5.140  10.893 -0.0705  1.1855 -0.9004
  127MOL0     O17040   6.620   5.024  10.909 -0.0552  0.2343  0.0241
  127MOL0     C17041   6.669   4.911  10.965 -1.0600 -1.1673  0.6729
  127MOL0     C17042   6.790   4.856  10.919 -0.8966  0.2120 -0.9987
  127MOL0     C17043   6.847   4.741  10.984 -0.4744  0.0432  0.3095
  127MOL0     C17044   6.782   4.682  11.093 -1.0457 -0.6379 -0.1441
  127MOL0     O17045   6.848   4.580  11.148 -0.1918  0.5794  0.4005
  127MOL0     C17046   6.766   4.487  11.204  0.1372  0.2691 -0.4340
  127MOL0     C17047   6.715   4.387  11.095 -1.0439  1.0105  0.8252
  127MOL0     C17048   6.680   4.247  11.150 -0.6491  0.3364  0.1946
  127MOL0     C17049   6.550   4.259  11.239 -0.2529 -0.4138  0.7356
  127MOL0     C17050   6.542   4.127  11.328 -0.7424 -0.1224 -0.4104
  127MOL0     C17051   6.515   3.998  11.248  0.3545 -0.8392  0.3512
  127MOL0     C17052   6.394   4.001  11.149  0.7141 -0.0841 -0.4401
  127MOL0     C17053   6.357   3.871  11.087 -0.0690 -0.3315 -0.2148
  127MOL0    Cl17054   6.220   3.892  10.972  0.5330 -0.3578 -0.5549
  127MOL0     C17055   6.650   4.730  11.121 -0.3702 -0.5458 -0.7263
  127MOL0     C17056   6.605   4.842  11.069 -0.3867 -0.5867  0.1629
  127MOL0     O17057   6.815   5.147  10.925 -0.1185 -0.0977  0.4056
  127MOL0     C17058   6.492   5.265  10.798  0.0712  1.2264  0.2963
  127MOL0     C17059   6.444   5.361  10.710  0.0298 -0.0504  0.7861
  127MOL0     N17060   6.048   5.680  10.247 -0.6617 -0.2538  0.2256
  127MOL0     N17061   5.932   5.659  10.204  0.4030  0.7990 -0.6726
  127MOL0     C17062   5.032   5.768   9.633 -0.3150  0.1147  0.5048
  127MOL0     C17063   4.964   5.753   9.512  0.3912 -0.5046 -0.1069
  127MOL0     C17064   4.826   5.536   9.147 -0.7460 -0.2487 -0.7525
  127MOL0     C17065   4.699   5.470   9.148 -0.2969 -0.3740 -0.0433
  127MOL0     C17066   4.647   5.421   9.033 -0.1611 -0.9282 -0.3077
  127MOL0     C17067   4.715   5.428   8.912  0.2318 -0.4119  0.1887
  127MOL0     O17068   4.652   5.394   8.796 -0.1596  0.1383  0.6717
  127MOL0     C17069   4.645   5.249   8.795 -0.0440 -0.0021  0.3935
  127MOL0     C17070   4.610   5.178   8.664  0.5826 -0.2436 -0.6387
  127MOL0     C17071   4.456   5.179   8.646 -0.0521 -0.8738 -0.0205
  127MOL0     C17072   4.397   5.320   8.669 -0.4206  0.3982  0.2297
  127MOL0     C17073   4.283   5.317   8.579 -0.9460 -0.0492 -0.3520
  127MOL0     C17074   4.184   5.308   8.513  0.5317 -1.1312  0.3517
  127MOL0     C17075   4.840   5.487   8.911 -0.1749 -0.5485 -0.1257
  127MOL0     C17076   4.894   5.554   9.028  0.2157  1.3391 -0.2200
  127MOL0     C17077   5.040   5.603   9.013  1.0979 -0.0057 -0.3112
  127MOL0     H17078   5.231   5.624   9.327  1.0986 -1.5616  1.2254
  127MOL0     H17079   5.356   5.723   9.521  0.7572 -0.4385  0.1960
  127MOL0     H17080   5.210   6.001   9.683 -0.6364 -0.9376  0.0456
  127MOL0     H17081   5.140   5.962   9.841  1.5318  3.0785  1.4387
  127MOL0     H17082   5.314   6.128   9.876 -1.7812 -0.3727 -3.3112
  127MOL0     H17083   5.434   6.032   9.795 -0.2129 -1.5205 -0.4049
  127MOL0     H17084   5.438   5.854   9.959 -2.6432 -2.6331  3.1533
  127MOL0     H17085   5.281   5.889  10.016 -1.0463 -0.1530  0.0161
  127MOL0     H17086   5.528   6.081  10.072 -0.6935  1.4411  1.1134
  127MOL0     H17087   5.367   6.106  10.137 -0.9259 -0.6997  0.5742
  127MOL0     H17088   5.536   6.003  10.294 -0.5582 -1.3930  2.4811
  127MOL0     H17089   5.385   5.912  10.270  0.1598  0.4915 -0.5746
  127MOL0     H17090   5.511   5.746  10.126  2.7851 -1.3701 -3.8401
  127MOL0     H17091   5.660   5.844  10.136  0.7603  2.3572  2.7922
  127MOL0     H17092   5.528   5.713  10.372 -0.9537 -0.8124 -1.2561
  127MOL0     H17093   5.661   5.831  10.392 -0.2630  1.9599 -0.2746
  127MOL0     H17094   5.680   5.564  10.384 -0.3344 -2.5474 -1.7889
  127MOL0     H17095   5.670   5.593  10.209  0.9483 -1.3907  0.0575
  127MOL0     H17096   5.871   5.772  10.513  1.6626  0.6553 -0.0954
  127MOL0     H17097   6.161   5.892  10.434  2.2613 -0.2893 -1.0913
  127MOL0     H17098   6.124   5.765  10.561 -1.5299  0.5041 -0.3911
  127MOL0     H17099   6.265   5.608  10.465 -1.8716  0.0037  1.3777
  127MOL0     H17100   6.331   5.726  10.345  2.5831 -1.2135  0.9206
  127MOL0     H17101   6.327   5.792  10.638 -1.1335  0.3518 -0.4429
  127MOL0     H17102   6.400   5.878  10.502  0.4298 -1.5369 -1.1664
  127MOL0     H17103   6.578   5.726  10.620  0.1527  3.0118 -2.1764
  127MOL0     H17104   6.535   5.672  10.456 -3.0412  6.5003 -2.2642
  127MOL0     H17105   6.707   5.553  10.668 -1.5361  0.2943 -0.6087
  127MOL0     H17106   6.817   5.367  10.791  0.6918  0.9438 -2.3558
  127MOL0     H17107   6.843   4.891  10.831  0.2849  0.5563 -0.1681
  127MOL0     H17108   6.936   4.691  10.946 -1.6676 -3.2805  1.4999
  127MOL0     H17109   6.829   4.419  11.261 -1.7831 -0.9081  0.4064
  127MOL0     H17110   6.689   4.527  11.271  0.8921 -1.7565  1.7541
  127MOL0     H17111   6.627   4.415  11.036 -0.9009 -1.0521 -0.4767
  127MOL0     H17112   6.801   4.368  11.031 -0.0410 -0.3743  2.4816
  127MOL0     H17113   6.663   4.176  11.068 -1.5927 -1.7173  2.0487
  127MOL0     H17114   6.761   4.215  11.217 -0.5187  0.2782  0.0093
  127MOL0     H17115   6.469   4.279  11.169  0.6320  0.9380  0.0484
  127MOL0     H17116   6.562   4.345  11.306 -1.0219  1.8353 -1.8273
  127MOL0     H17117   6.463   4.126  11.403 -0.4745 -3.6425 -0.0086
  127MOL0     H17118   6.637   4.122  11.383  0.6107 -1.4575 -2.6929
  127MOL0     H17119   6.604   3.982  11.186 -1.2070 -2.7204 -1.5761
  127MOL0     H17120   6.488   3.912  11.309 -2.2080  1.1116  2.1513
  127MOL0     H17121   6.426   4.078  11.078  0.5086  0.2856 -0.1367
  127MOL0     H17122   6.300   4.040  11.188  1.0717  1.5053 -1.0813
  127MOL0     H17123   6.439   3.834  11.025  0.2236  0.6346 -0.4221
  127MOL0     H17124   6.333   3.804  11.170 -2.4584  1.0194  0.2934
  127MOL0     H17125   6.595   4.691  11.206 -0.6883  2.1505  0.3926
  127MOL0     H17126   6.510   4.892  11.088  0.0083  0.5164 -0.6469
  127MOL0     H17127   6.427   5.184  10.828  2.1705 -1.0976 -1.0904
  127MOL0     H17128   6.337   5.376  10.699  0.3319  1.5807 -0.4067
  127MOL0     H17129   4.966   5.801   9.713 -1.9306  0.3373 -0.8681
  127MOL0     H17130   4.858   5.772   9.504  0.3359 -1.5583 -3.2098
  127MOL0     H17131   4.629   5.460   9.231 -0.5300 -0.8288 -0.2915
  127MOL0     H17132   4.541   5.395   9.037 -0.8775  1.7450  0.0495
  127MOL0     H17133   4.576   5.219   8.875 -0.8751 -3.2295 -1.3432
  127MOL0     H17134   4.740   5.211   8.832  0.5940 -0.0896 -1.2862
  127MOL0     H17135   4.662   5.082   8.668 -2.0848 -1.7937 -1.2654
  127MOL0     H17136   4.659   5.235   8.584  2.8868 -1.2575 -0.0333
  127MOL0     H17137   4.397   5.113   8.711 -0.6549  2.1607  2.8014
  127MOL0     H17138   4.446   5.139   8.545 -2.1442 -1.2261  0.2700
  127MOL0     H17139   4.367   5.332   8.774 -1.8810  0.5339 -0.1783
  127MOL0     H17140   4.460   5.400   8.631 -2.8103  2.2837 -0.0427
  127MOL0     H17141   4.095   5.284   8.458 -0.3292 -0.4162  1.3858
  127MOL0     H17142   4.908   5.489   8.827  0.1928 -0.0658  0.1752
  127MOL0     H17143   5.095   5.582   8.921  1.0777  0.3643 -0.4084
  127MOL0     H17144   5.051   5.711   9.022  2.3592  0.0805 -2.2503
  127MOL0     H17145   5.099   5.549   9.088  1.8286 -0.8209 -1.4374
  128MOL0     O17146  10.199  10.968   2.675  0.8086 -0.3224  0.5567
  128MOL0     C17147  10.095  10.960   2.731  0.1115  0.2812  0.2276
  128MOL0     O17148  10.062  11.039   2.839 -0.5475  0.0523 -0.1096
  128MOL0     C17149   9.961  11.010   2.925  0.2387  0.5905 -0.1630
  128MOL0     C17150   9.832  11.053   2.888 -0.4365 -0.2500 -0.0803
  128MOL0     C17151   9.730  11.023   2.982 -0.1305  0.3269 -0.3949
  128MOL0     C17152   9.752  10.967   3.110  0.0205 -0.3799  0.2615
  128MOL0     O17153   9.640  10.973   3.188  0.6463  0.1228  0.1832
  128MOL0     C17154   9.657  10.900   3.311 -1.0596  0.2611 -0.9404
  128MOL0     C17155   9.524  10.896   3.385  0.2010 -0.5326  0.1595
  128MOL0     C17156   9.485  11.042   3.427 -0.0739  0.0770 -0.0051
  128MOL0     C17157   9.380  11.024   3.526  0.8071 -0.8501  0.1544
  128MOL0     C17158   9.320  11.161   3.562 -0.1435 -0.1263  0.0534
  128MOL0     C17159   9.217  11.158   3.672 -0.2432  0.3657 -0.0016
  128MOL0     C17160   9.159  11.304   3.687  0.6556  0.3356 -0.2176
  128MOL0     C17161   9.017  11.301   3.752 -0.6614  0.0560 -0.2937
  128MOL0     N17162   8.903  11.254   3.672  0.1009 -0.1457  0.3497
  128MOL0     C17163   8.882  11.241   3.536 -0.9958  0.9970 -0.1087
  128MOL0     C17164   8.751  11.220   3.526  0.4629 -0.0351  0.3224
  128MOL0     C17165   8.679  11.198   3.394  0.1945  0.6201 -0.4648
  128MOL0     C17166   8.629  11.053   3.382  0.2482  1.0628 -0.4385
  128MOL0     C17167   8.745  10.962   3.347 -0.7021 -0.5409 -0.1974
  128MOL0     C17168   8.689  10.819   3.334  0.2386  0.4653  0.1258
  128MOL0     O17169   8.749  10.757   3.221 -0.0891  0.8589  0.7134
  128MOL0     C17170   8.878  10.714   3.220 -0.0868  0.3807 -0.0676
  128MOL0     C17171   8.944  10.681   3.346  0.9450  0.0351 -0.2605
  128MOL0     C17172   9.078  10.644   3.355  0.8221 -0.5393  0.8619
  128MOL0     C17173   9.154  10.648   3.230 -0.6950 -0.0242  0.2972
  128MOL0     C17174   9.301  10.614   3.220  0.1758  0.1938 -0.2209
  128MOL0     O17175   9.361  10.627   3.105  0.0563  0.1558  0.4445
  128MOL0     C17176   9.484  10.583   3.086  1.2464 -0.4486  0.6652
  128MOL0     C17177   9.521  10.449   3.109  0.4178 -1.0353  0.5847
  128MOL0     C17178   9.657  10.407   3.093  0.1484  0.3412  0.8445
  128MOL0     C17179   9.753  10.495   3.055  0.1171  0.4771  0.2923
  128MOL0     O17180   9.878  10.458   3.013  0.4324  0.0311 -0.1061
  128MOL0     C17181   9.906  10.312   3.021  0.5497 -0.1905  0.3878
  128MOL0     C17182  10.052  10.294   2.988  0.3464  0.4680 -0.0652
  128MOL0     C17183  10.134  10.353   3.108  0.7509 -0.1574  0.3364
  128MOL0     C17184  10.281  10.328   3.087  0.6989  0.1044  0.1262
  128MOL0     C17185  10.359  10.457   3.067  0.4080 -0.1152  0.3538
  128MOL0     C17186  10.510  10.422   3.083 -0.3480  0.1983  0.3681
  128MOL0     C17187  10.605  10.538   3.042 -0.1518  0.4543  0.1411
  128MOL0     C17188  10.749  10.499   3.058 -0.5601 -0.9078  0.7029
  128MOL0    Cl17189  10.846  10.641   3.035 -0.1066 -0.0490  0.1341
  128MOL0     C17190   9.726  10.626   3.056  0.3817  0.3730 -0.0259
  128MOL0     C17191   9.589  10.674   3.058 -0.1626  0.2130 -0.7187
  128MOL0     O17192   9.353  10.582   3.328 -0.0147  0.6606 -0.4248
  128MOL0     C17193   9.088  10.676   3.105 -0.3384 -0.5951  0.5078
  128MOL0     C17194   8.950  10.704   3.103  0.3422 -0.1764  0.0570
  128MOL0     N17195   8.695  11.211   3.652  0.0527 -0.1105  0.1013
  128MOL0     N17196   8.790  11.230   3.740 -0.3159  0.8583  0.0847
  128MOL0     C17197   9.889  10.929   3.150  0.7750  0.4878  0.3996
  128MOL0     C17198   9.985  10.950   3.046  0.4630 -0.6297 -0.2518
  128MOL0     C17199  10.003  10.853   2.698  0.2227 -0.2548  0.1728
  128MOL0     C17200   9.885  10.893   2.630 -0.7319  0.3082  0.6741
  128MOL0     C17201   9.783  10.797   2.600  0.0990  0.1736 -0.6307
  128MOL0     C17202   9.813  10.659   2.640  0.2317  0.1773  0.5504
  128MOL0     O17203   9.716  10.567   2.600 -0.8844 -0.0934 -0.0855
  128MOL0     C17204   9.620  10.535   2.695  0.6880 -0.3680 -0.5580
  128MOL0     C17205   9.508  10.454   2.641  0.1423 -0.5022  0.4331
  128MOL0     C17206   9.381  10.477   2.741 -0.0487  0.8070  0.4077
  128MOL0     C17207   9.259  10.404   2.696 -0.3013 -0.1275  0.3614
  128MOL0     C17208   9.135  10.487   2.717  0.1910  0.7830 -0.9889
  128MOL0     C17209   9.041  10.560   2.744 -0.1645 -1.0618  0.2564
  128MOL0     C17210   9.923  10.618   2.703  0.0604 -0.5792  0.5772
  128MOL0     C17211  10.022  10.714   2.738 -0.6255 -0.0321 -0.7990
  128MOL0     C17212  10.125  10.687   2.848 -0.0824  0.1573 -0.5391
  128MOL0     H17213   9.814  11.086   2.786 -1.7943  2.9661  1.0827
  128MOL0     H17214   9.631  11.056   2.953 -0.9885 -0.3825  1.6202
  128MOL0     H17215   9.687  10.798   3.287  3.5192  1.3940 -0.9379
  128MOL0     H17216   9.733  10.932   3.383 -0.7851 -3.5690  0.6924
  128MOL0     H17217   9.524  10.836   3.476 -0.7601 -2.1385 -0.8453
  128MOL0     H17218   9.445  10.847   3.328 -0.3875 -0.4494  0.8912
  128MOL0     H17219   9.446  11.092   3.337  2.9332  2.7112 -0.0201
  128MOL0     H17220   9.571  11.106   3.450 -0.3796  2.0808 -3.6859
  128MOL0     H17221   9.309  10.956   3.478  3.5065 -3.6028 -0.2713
  128MOL0     H17222   9.404  10.975   3.621 -3.3890 -3.9289 -0.0818
  128MOL0     H17223   9.405  11.227   3.582  0.8489 -1.1854 -0.5207
  128MOL0     H17224   9.270  11.207   3.477  0.9076  0.3879 -0.2954
  128MOL0     H17225   9.132  11.095   3.643  1.0298 -1.1779 -0.5184
  128MOL0     H17226   9.254  11.129   3.770 -2.5821 -0.9446  0.5755
  128MOL0     H17227   9.151  11.357   3.591 -0.0563 -0.2548 -0.4957
  128MOL0     H17228   9.209  11.373   3.755  3.3605  0.0834 -1.8211
  128MOL0     H17229   9.033  11.243   3.844  3.7310  1.5869  0.1363
  128MOL0     H17230   9.006  11.403   3.790  3.1412  0.7862 -0.7470
  128MOL0     H17231   8.953  11.242   3.455 -0.1865  1.4454  0.5850
  128MOL0     H17232   8.599  11.271   3.376  0.0959  0.3402 -1.2127
  128MOL0     H17233   8.746  11.219   3.310 -0.6316 -0.3989 -1.3990
  128MOL0     H17234   8.578  11.019   3.473 -1.1080 -1.5455 -2.0535
  128MOL0     H17235   8.553  11.053   3.304 -0.9510 -0.1647  0.6716
  128MOL0     H17236   8.826  10.962   3.421 -1.1476 -0.4258  0.2957
  128MOL0     H17237   8.788  10.993   3.252 -0.5135 -0.7553 -0.1832
  128MOL0     H17238   8.583  10.814   3.307  0.3331 -0.3103 -0.1144
  128MOL0     H17239   8.705  10.760   3.424 -0.1745  0.4439  0.1883
  128MOL0     H17240   8.891  10.666   3.440  0.1197 -5.8065 -1.2865
  128MOL0     H17241   9.120  10.603   3.446  0.8441 -2.8049 -0.0965
  128MOL0     H17242   9.448  10.376   3.142 -0.3622  0.2323  1.7889
  128MOL0     H17243   9.684  10.304   3.112  0.0189 -0.5847 -3.1745
  128MOL0     H17244   9.892  10.261   3.117  0.5516  3.3843  2.4426
  128MOL0     H17245   9.846  10.252   2.951  1.9640 -0.9423 -0.2232
  128MOL0     H17246  10.067  10.188   2.965 -0.8098  0.4372 -0.7781
  128MOL0     H17247  10.082  10.354   2.902 -0.8830  2.7055  0.9763
  128MOL0     H17248  10.112  10.460   3.102 -0.6662 -0.3302  1.7044
  128MOL0     H17249  10.093  10.315   3.202 -1.3026  1.6097  0.2492
  128MOL0     H17250  10.308  10.260   3.006 -0.7055  0.1760 -0.4194
  128MOL0     H17251  10.332  10.278   3.170  2.5472 -0.7834 -1.4492
  128MOL0     H17252  10.325  10.522   3.148 -0.7114  0.0816 -0.2538
  128MOL0     H17253  10.338  10.513   2.975  1.2826  0.6570  0.6069
  128MOL0     H17254  10.542  10.393   3.183 -0.5931 -1.9142 -0.1160
  128MOL0     H17255  10.533  10.344   3.009 -1.0970  2.4832 -2.4806
  128MOL0     H17256  10.592  10.618   3.116  1.7652 -0.6017  1.7295
  128MOL0     H17257  10.589  10.566   2.937 -0.3226  0.0219  0.0497
  128MOL0     H17258  10.760  10.472   3.164 -1.8439 -1.9877  0.5859
  128MOL0     H17259  10.778  10.427   2.980  0.6182 -1.9478  2.0450
  128MOL0     H17260   9.802  10.702   3.042  1.4843 -0.0623  2.8864
  128MOL0     H17261   9.566  10.780   3.057 -1.9599 -0.0702  1.5085
  128MOL0     H17262   9.152  10.680   3.017  0.4938  0.0911  1.1220
  128MOL0     H17263   8.901  10.731   3.010  0.4463  1.1391  0.3658
  128MOL0     H17264   9.920  10.893   3.247  0.1073  1.6586  1.0764
  128MOL0     H17265  10.086  10.912   3.057  0.2689 -0.9045  0.6318
  128MOL0     H17266   9.880  10.995   2.592  0.5546  0.7413  1.5691
  128MOL0     H17267   9.690  10.826   2.553 -1.6263 -1.0499  1.7721
  128MOL0     H17268   9.588  10.634   2.732  1.3563 -0.6514  0.8668
  128MOL0     H17269   9.661  10.483   2.782 -0.2512 -0.4581 -0.1591
  128MOL0     H17270   9.538  10.348   2.637 -0.6272 -0.6979 -0.7971
  128MOL0     H17271   9.488  10.490   2.539  2.7667  2.2113  0.7412
  128MOL0     H17272   9.376  10.583   2.765  3.4422  0.6519  2.6282
  128MOL0     H17273   9.413  10.439   2.838  2.3250 -2.0092 -1.2947
  128MOL0     H17274   9.268  10.386   2.588  0.1988  1.9284  0.0042
  128MOL0     H17275   9.254  10.307   2.745  0.2462 -1.0954 -1.4062
  128MOL0     H17276   8.961  10.632   2.746  1.9450  1.3959  0.9113
  128MOL0     H17277   9.943  10.514   2.724 -1.8169 -0.8398  1.2337
  128MOL0     H17278  10.127  10.578   2.854  0.8526  0.1055 -1.3775
  128MOL0     H17279  10.225  10.720   2.818 -0.4439  1.8988  0.0330
  128MOL0     H17280  10.093  10.732   2.943  1.1811 -1.6682  0.8189
  129MOL0     O17281   6.601  10.435   9.127 -0.0596  0.4484 -0.4364
  129MOL0     C17282   6.593  10.459   9.010 -0.1790  1.0292  0.2971
  129MOL0     O17283   6.699  10.505   8.931 -0.6129 -0.3334 -0.9294
  129MOL0     C17284   6.831  10.489   8.988  0.6347  0.2417  0.7078
  129MOL0     C17285   6.885  10.390   9.073 -0.7637 -0.3170 -0.2269
  129MOL0     C17286   7.015  10.396   9.131  0.1138 -0.1814 -0.1522
  129MOL0     C17287   7.103  10.487   9.073 -0.1143  0.2615 -0.2175
  129MOL0     O17288   7.234  10.480   9.111  0.1672 -0.5889  0.0527
  129MOL0     C17289   7.315  10.425   9.007 -0.5842 -0.4804 -0.5995
  129MOL0     C17290   7.452  10.407   9.058 -0.0174  0.2237  0.0572
  129MOL0     C17291   7.547  10.355   8.947 -0.4459 -0.0337  0.7572
  129MOL0     C17292   7.692  10.380   8.991 -0.1233 -0.2276 -0.7560
  129MOL0     C17293   7.803  10.340   8.889  0.5207 -0.1886  0.4126
  129MOL0     C17294   7.814  10.436   8.771 -0.6254  0.0970  0.1847
  129MOL0     C17295   7.947  10.399   8.698 -0.4511  0.5841 -0.4136
  129MOL0     C17296   7.967  10.476   8.568 -0.5065  0.5478 -1.4255
  129MOL0     N17297   8.104  10.445   8.526 -0.5091 -0.2061  0.1454
  129MOL0     C17298   8.220  10.513   8.556  0.2172 -1.3806 -1.0455
  129MOL0     C17299   8.314  10.454   8.484 -0.8299  0.6848  0.6299
  129MOL0     C17300   8.453  10.521   8.479  0.1718 -0.0592  0.3753
  129MOL0     C17301   8.526  10.530   8.349  0.8962 -0.1023 -0.0709
  129MOL0     C17302   8.666  10.586   8.358 -0.6785  0.0383 -0.2240
  129MOL0     C17303   8.745  10.553   8.235 -0.2064 -0.5237  0.5790
  129MOL0     O17304   8.882  10.525   8.260  0.0060 -0.4631 -0.0522
  129MOL0     C17305   8.979  10.622   8.284  0.3888 -0.6787  0.4758
  129MOL0     C17306   9.108  10.585   8.303  0.9586 -0.8097 -0.2986
  129MOL0     C17307   9.211  10.676   8.319 -0.1565  0.1099 -0.0666
  129MOL0     C17308   9.180  10.813   8.333 -0.2164 -1.0192 -0.3923
  129MOL0     C17309   9.292  10.913   8.358  0.0353  0.0970  0.6466
  129MOL0     O17310   9.255  11.042   8.396  0.8512 -0.4220 -0.4160
  129MOL0     C17311   9.342  11.139   8.401 -0.2162  0.2955 -0.3688
  129MOL0     C17312   9.333  11.226   8.506  0.0912 -0.9934 -0.1611
  129MOL0     C17313   9.428  11.329   8.525  0.7586 -0.2141 -0.1934
  129MOL0     C17314   9.516  11.359   8.428 -0.2323 -1.3422  0.6184
  129MOL0     O17315   9.621  11.444   8.421 -0.1270  0.4930 -0.5044
  129MOL0     C17316   9.679  11.491   8.549 -0.0224 -0.3320 -1.1428
  129MOL0     C17317   9.789  11.585   8.523 -0.4250 -0.4265 -0.6538
  129MOL0     C17318   9.902  11.509   8.454  0.3916 -0.3267 -0.3063
  129MOL0     C17319  10.038  11.588   8.428  0.6591  0.5048  0.7107
  129MOL0     C17320  10.019  11.725   8.367  0.4822 -1.2594  1.0312
  129MOL0     C17321  10.141  11.779   8.298  0.0619  0.6478  0.7255
  129MOL0     C17322  10.132  11.924   8.246 -0.7495 -0.0884 -0.0608
  129MOL0     C17323  10.252  11.958   8.163 -0.8343  0.7855  0.5806
  129MOL0    Cl17324  10.251  12.128   8.111 -0.1912 -0.4767 -0.1725
  129MOL0     C17325   9.516  11.277   8.317 -0.6231 -0.1947 -0.5309
  129MOL0     C17326   9.432  11.163   8.306  0.3256 -0.4659  0.8720
  129MOL0     O17327   9.403  10.873   8.367  0.6838  0.2130 -0.2769
  129MOL0     C17328   9.041  10.851   8.318  0.1710  0.2965 -0.2093
  129MOL0     C17329   8.941  10.756   8.284 -0.8116 -0.5292  0.1619
  129MOL0     N17330   8.263  10.351   8.406 -0.4860  0.3873  0.1711
  129MOL0     N17331   8.139  10.352   8.431  0.3411 -0.0118  0.8384
  129MOL0     C17332   7.054  10.579   8.975 -1.0325 -0.4979 -0.3383
  129MOL0     C17333   6.922  10.574   8.928  0.3973  0.2429 -0.3226
  129MOL0     C17334   6.455  10.465   8.952 -0.1197 -0.0309 -0.0500
  129MOL0     C17335   6.344  10.488   9.033  0.1272  0.2105  0.0046
  129MOL0     C17336   6.211  10.511   8.987  0.4260 -1.1412  0.3600
  129MOL0     C17337   6.188  10.505   8.853  0.5065 -0.1643 -0.5076
  129MOL0     O17338   6.061  10.520   8.792 -0.9849  0.3832 -0.8205
  129MOL0     C17339   5.951  10.531   8.881 -0.1803 -0.8844 -0.1533
  129MOL0     C17340   5.823  10.532   8.800 -0.9140 -0.4295  0.0322
  129MOL0     C17341   5.699  10.522   8.888  0.5061 -0.6565  0.5539
  129MOL0     C17342   5.706  10.623   9.013  0.4501  0.2335  0.9069
  129MOL0     C17343   5.576  10.651   9.071  0.9891  0.3002 -0.2281
  129MOL0     C17344   5.479  10.671   9.134 -0.0441  0.1146 -0.7538
  129MOL0     C17345   6.292  10.485   8.766 -1.0294 -0.2124  0.7388
  129MOL0     C17346   6.424  10.465   8.815 -0.4275  0.2269  0.2418
  129MOL0     C17347   6.533  10.443   8.716  1.0863  0.7528 -0.0610
  129MOL0     H17348   6.811  10.332   9.127 -0.2323  1.2105  2.2865
  129MOL0     H17349   7.041  10.323   9.207 -1.7858  0.0227  0.7594
  129MOL0     H17350   7.275  10.331   8.970 -2.7850  1.4187 -3.5392
  129MOL0     H17351   7.310  10.493   8.922 -0.8865 -0.1615 -0.3316
  129MOL0     H17352   7.453  10.343   9.146 -0.3034 -0.2456 -0.2763
  129MOL0     H17353   7.492  10.506   9.082  2.7959  0.1373 -3.3465
  129MOL0     H17354   7.532  10.411   8.854  0.7424 -1.1893 -0.1790
  129MOL0     H17355   7.531  10.249   8.922  1.9658 -0.2455 -0.1714
  129MOL0     H17356   7.701  10.480   9.035 -2.5081 -0.2696  0.0022
  129MOL0     H17357   7.705  10.311   9.075 -0.7120 -1.3727 -1.5745
  129MOL0     H17358   7.891  10.358   8.952  2.0976 -0.9156 -1.4931
  129MOL0     H17359   7.797  10.237   8.852  0.6870 -0.5007  1.2393
  129MOL0     H17360   7.727  10.423   8.705 -1.2476  2.0883  0.5416
  129MOL0     H17361   7.818  10.542   8.799 -0.5053  0.4546 -1.0777
  129MOL0     H17362   7.942  10.292   8.675  1.1456  0.9135 -2.5804
  129MOL0     H17363   8.015  10.430   8.778 -0.1021 -0.6114 -0.2287
  129MOL0     H17364   7.896  10.428   8.500 -0.1436  1.6575 -2.6232
  129MOL0     H17365   7.947  10.584   8.569 -2.0788  0.2979 -2.6520
  129MOL0     H17366   8.226  10.602   8.617 -1.1949 -0.1654 -2.5721
  129MOL0     H17367   8.442  10.624   8.516 -0.7707 -0.4993  1.3838
  129MOL0     H17368   8.501  10.464   8.559 -1.3539  1.5426  2.5647
  129MOL0     H17369   8.532  10.428   8.311 -1.2918 -0.1651 -0.3259
  129MOL0     H17370   8.464  10.583   8.276  0.7312  0.3434  0.3817
  129MOL0     H17371   8.713  10.546   8.448 -2.5454  0.6080  1.0693
  129MOL0     H17372   8.673  10.695   8.355  0.7723  0.0179  1.2880
  129MOL0     H17373   8.734  10.629   8.157  4.0650 -0.7590 -0.4770
  129MOL0     H17374   8.733  10.454   8.190  1.4157  0.9049 -3.3920
  129MOL0     H17375   9.125  10.478   8.294 -1.8024 -1.2085 -1.7700
  129MOL0     H17376   9.312  10.640   8.336 -0.2705 -1.4618 -2.3076
  129MOL0     H17377   9.265  11.191   8.583  0.2633 -0.3216  0.3037
  129MOL0     H17378   9.412  11.381   8.619  2.2398 -2.0294  1.1375
  129MOL0     H17379   9.596  11.532   8.607 -0.9166 -2.9056 -0.4472
  129MOL0     H17380   9.706  11.404   8.610 -4.2633  0.1360  1.8310
  129MOL0     H17381   9.761  11.679   8.476  0.7453 -0.1454 -0.8051
  129MOL0     H17382   9.819  11.627   8.620 -0.5116 -1.2687 -0.2438
  129MOL0     H17383   9.930  11.425   8.518  0.5885 -0.3960 -0.4772
  129MOL0     H17384   9.877  11.474   8.353 -0.7702 -1.0220  0.2150
  129MOL0     H17385  10.102  11.521   8.371  1.0334 -1.4322  3.2157
  129MOL0     H17386  10.094  11.589   8.522  0.3641 -2.4938  1.0174
  129MOL0     H17387  10.000  11.805   8.440  2.1328 -0.7134  0.9112
  129MOL0     H17388   9.936  11.730   8.296  2.0024  2.2252 -0.7397
  129MOL0     H17389  10.226  11.789   8.367 -0.6794  3.0095  1.3949
  129MOL0     H17390  10.173  11.717   8.214  0.3176  1.0028  0.5611
  129MOL0     H17391  10.146  11.993   8.329  0.9393 -0.9346  0.3949
  129MOL0     H17392  10.034  11.948   8.202 -0.3621  3.3509  0.6479
  129MOL0     H17393  10.348  11.930   8.208  0.2233 -0.4010 -2.1937
  129MOL0     H17394  10.235  11.890   8.079 -3.0441  0.8841  0.8849
  129MOL0     H17395   9.589  11.297   8.240 -2.8116  1.1484 -2.3636
  129MOL0     H17396   9.445  11.111   8.212  4.3351 -0.8097  1.4166
  129MOL0     H17397   9.009  10.954   8.328 -0.8432  0.4217 -3.5998
  129MOL0     H17398   8.851  10.811   8.259  0.0303  0.8101 -0.0283
  129MOL0     H17399   7.117  10.650   8.921 -0.5366  0.0538  0.9347
  129MOL0     H17400   6.889  10.656   8.866  0.7377 -0.1411 -1.0212
  129MOL0     H17401   6.360  10.477   9.140  0.5414  0.4435 -0.0293
  129MOL0     H17402   6.141  10.535   9.066  2.3267 -0.7467  2.0070
  129MOL0     H17403   5.964  10.625   8.937 -1.4829 -0.6792 -0.1544
  129MOL0     H17404   5.943  10.451   8.954 -1.0310  0.4610  1.2868
  129MOL0     H17405   5.824  10.437   8.747  0.8960 -0.6546  0.3941
  129MOL0     H17406   5.809  10.619   8.735 -1.1632  0.4142  1.1704
  129MOL0     H17407   5.680  10.418   8.917 -1.1141 -0.1490  1.4311
  129MOL0     H17408   5.624  10.563   8.820  0.8840 -0.3251  0.3303
  129MOL0     H17409   5.766  10.579   9.093  0.2552 -3.1232 -0.6223
  129MOL0     H17410   5.750  10.718   8.981  0.2361  0.3948  1.0902
  129MOL0     H17411   5.387  10.694   9.185  1.2029  2.5796  0.5596
  129MOL0     H17412   6.264  10.472   8.662 -3.5818  1.3685  1.1456
  129MOL0     H17413   6.568  10.539   8.675  1.2263  0.1226 -1.4966
  129MOL0     H17414   6.615  10.379   8.749  2.1915  1.5381 -1.1554
  129MOL0     H17415   6.494  10.386   8.632  0.8093  1.6216 -0.5389
  130MOL0     O17416   8.608   3.377  11.125 -0.4580 -0.6377  0.1444
  130MOL0     C17417   8.669   3.365  11.024 -0.3256 -0.6516  0.3705
  130MOL0     O17418   8.802   3.355  11.013 -0.5509 -0.0587 -0.3482
  130MOL0     C17419   8.881   3.370  11.126 -0.7383  0.7659  0.2003
  130MOL0     C17420   9.019   3.353  11.096  0.5279  0.1816  0.4598
  130MOL0     C17421   9.118   3.350  11.191 -0.8367 -0.7329  0.0672
  130MOL0     C17422   9.085   3.375  11.326  0.2096 -0.7628 -0.2289
  130MOL0     O17423   9.169   3.375  11.430 -0.1677 -0.5712 -0.8836
  130MOL0     C17424   9.278   3.280  11.419  0.2478  0.0326 -0.6116
  130MOL0     C17425   9.337   3.273  11.563  0.7593 -1.0876  0.8943
  130MOL0     C17426   9.421   3.146  11.596  0.6867  0.1610 -0.5337
  130MOL0     C17427   9.434   3.118  11.750 -0.0160  0.4268  0.0244
  130MOL0     C17428   9.537   3.002  11.771 -0.8743 -0.4110 -0.3058
  130MOL0     C17429   9.677   3.009  11.706  0.7154  0.5319 -0.1890
  130MOL0     C17430   9.774   3.124  11.745  0.2475  0.1975 -0.6201
  130MOL0     C17431   9.773   3.266  11.692  0.3749 -0.1721 -0.0171
  130MOL0     N17432   9.903   3.324  11.723 -0.0394  1.1296 -0.3780
  130MOL0     C17433   9.966   3.403  11.633 -0.1109 -0.0286 -0.0514
  130MOL0     C17434  10.068   3.449  11.705 -0.3811 -1.2770 -0.3743
  130MOL0     C17435  10.177   3.538  11.639  0.4420 -0.0839 -0.6400
  130MOL0     C17436  10.274   3.594  11.747 -0.1271 -0.8640 -0.0754
  130MOL0     C17437  10.345   3.720  11.692  0.2995  0.8655  0.8240
  130MOL0     C17438  10.395   3.704  11.549  0.0543 -0.0262  0.7525
  130MOL0     O17439  10.479   3.594  11.526 -0.0576 -0.2588 -0.1643
  130MOL0     C17440  10.619   3.596  11.554 -0.2225  0.1522  1.0062
  130MOL0     C17441  10.682   3.477  11.532 -0.9387 -0.2395  0.6965
  130MOL0     C17442  10.816   3.460  11.561 -0.7721 -0.1930  0.1413
  130MOL0     C17443  10.896   3.571  11.590 -0.0488  0.0396 -0.1972
  130MOL0     C17444  11.044   3.549  11.598  0.3547  0.0212 -0.6511
  130MOL0     O17445  11.091   3.428  11.566  0.0166  0.5737 -0.1516
  130MOL0     C17446  11.222   3.401  11.568  1.2794  0.1255  0.0271
  130MOL0     C17447  11.318   3.473  11.499  0.0115  0.3780  0.3582
  130MOL0     C17448  11.451   3.447  11.499 -0.2778  0.5333  0.5323
  130MOL0     C17449  11.491   3.324  11.568  0.5098  0.3229 -0.0463
  130MOL0     O17450  11.626   3.279  11.584 -0.0350 -0.8682 -0.6296
  130MOL0     C17451  11.726   3.385  11.584 -0.5520 -0.9400 -0.1715
  130MOL0     C17452  11.864   3.344  11.604  0.2462  0.8209  0.0378
  130MOL0     C17453  11.873   3.280  11.741 -0.2667 -0.2481 -0.1457
  130MOL0     C17454  11.887   3.133  11.729 -0.4760 -0.3268 -0.7557
  130MOL0     C17455  11.848   3.071  11.861  0.7486 -0.0546 -0.9568
  130MOL0     C17456  11.855   2.919  11.878  0.2458 -0.3942  0.4678
  130MOL0     C17457  11.799   2.866  12.010  0.5510  0.1249  0.1992
  130MOL0     C17458  11.663   2.925  12.065  0.7641 -0.0318  0.3121
  130MOL0    Cl17459  11.529   2.928  11.941  0.4441  0.0788  0.1906
  130MOL0     C17460  11.391   3.241  11.614 -0.2505  0.1031  0.6354
  130MOL0     C17461  11.265   3.286  11.629  0.0179 -0.5752 -0.2251
  130MOL0     O17462  11.115   3.642  11.639 -0.1513  0.9108  0.5642
  130MOL0     C17463  10.833   3.690  11.603  0.1173 -0.0583 -0.5966
  130MOL0     C17464  10.697   3.699  11.594  0.5222 -0.2856  0.5251
  130MOL0     N17465  10.066   3.402  11.835  0.6547 -0.3372  0.1975
  130MOL0     N17466   9.968   3.322  11.847  0.0219  0.5053  1.4127
  130MOL0     C17467   8.953   3.410  11.353  0.2860  0.0258 -0.5780
  130MOL0     C17468   8.852   3.400  11.256 -0.8726  1.3200 -0.3773
  130MOL0     C17469   8.588   3.340  10.900 -0.2441 -0.3566 -0.2442
  130MOL0     C17470   8.656   3.356  10.775  0.7152  0.2117 -0.1262
  130MOL0     C17471   8.592   3.352  10.656 -0.2391 -0.7331 -0.4807
  130MOL0     C17472   8.452   3.351  10.648  0.3472  1.0705  0.6439
  130MOL0     O17473   8.369   3.378  10.532 -0.3284 -0.2542 -0.8054
  130MOL0     C17474   8.429   3.377  10.400  0.0036 -0.0433 -0.0441
  130MOL0     C17475   8.497   3.511  10.363  0.6396  1.0934 -0.3364
  130MOL0     C17476   8.566   3.510  10.228  0.1158  0.6724 -1.1823
  130MOL0     C17477   8.607   3.650  10.180  0.3552  0.0011  0.5731
  130MOL0     C17478   8.711   3.693  10.262 -0.0327 -0.4901 -0.4111
  130MOL0     C17479   8.799   3.733  10.335 -0.0641  0.1407 -1.0127
  130MOL0     C17480   8.384   3.331  10.771 -0.0426 -0.4149  0.8213
  130MOL0     C17481   8.446   3.309  10.901 -0.0940 -0.2345 -0.7589
  130MOL0     C17482   8.363   3.267  11.023 -0.9061 -0.3571 -0.6612
  130MOL0     H17483   9.048   3.337  10.992 -0.7342 -0.8679  0.2362
  130MOL0     H17484   9.217   3.335  11.151 -1.4298 -0.2842 -1.6876
  130MOL0     H17485   9.230   3.187  11.386  2.4769 -1.9295  1.3153
  130MOL0     H17486   9.351   3.312  11.344 -0.7340  0.1504 -1.5474
  130MOL0     H17487   9.240   3.267  11.614 -1.5070 -0.1151 -2.9150
  130MOL0     H17488   9.393   3.362  11.593  1.9431 -1.2564 -0.6802
  130MOL0     H17489   9.527   3.163  11.572  1.6110  0.7080  3.2687
  130MOL0     H17490   9.370   3.063  11.547  0.5355  0.0610 -0.2100
  130MOL0     H17491   9.475   3.209  11.797  0.5547 -0.4355  1.2518
  130MOL0     H17492   9.340   3.096  11.800 -0.4251 -2.7334 -1.8890
  130MOL0     H17493   9.552   3.004  11.880 -0.3973  1.1602 -0.3857
  130MOL0     H17494   9.488   2.906  11.752 -1.0275 -0.8068  1.7781
  130MOL0     H17495   9.714   2.908  11.727  1.5723  0.8108 -0.3172
  130MOL0     H17496   9.680   3.003  11.597  1.4334 -0.7479 -0.1284
  130MOL0     H17497   9.873   3.083  11.723  0.7944 -0.1164  2.0950
  130MOL0     H17498   9.771   3.126  11.854 -0.6256 -0.5973 -0.6116
  130MOL0     H17499   9.761   3.278  11.584 -2.7065  1.7074  0.4126
  130MOL0     H17500   9.696   3.328  11.739  0.5364 -0.8830  1.2183
  130MOL0     H17501   9.958   3.417  11.526 -0.5558 -3.5506 -0.5862
  130MOL0     H17502  10.236   3.482  11.566 -2.5562 -3.4968 -0.7438
  130MOL0     H17503  10.120   3.617  11.590 -0.4826  0.6927  1.5508
  130MOL0     H17504  10.220   3.617  11.839 -0.8897  2.3442 -1.1797
  130MOL0     H17505  10.339   3.514  11.785 -1.1068 -1.3219  0.6617
  130MOL0     H17506  10.434   3.737  11.753  1.8269 -3.6395  0.2644
  130MOL0     H17507  10.282   3.809  11.702 -2.9483 -1.0423 -0.8394
  130MOL0     H17508  10.445   3.794  11.510  1.9559  0.1373  3.2639
  130MOL0     H17509  10.308   3.684  11.487 -1.1065 -0.9234  2.5985
  130MOL0     H17510  10.624   3.391  11.498 -3.3266  1.0269  1.3739
  130MOL0     H17511  10.857   3.361  11.548  0.7073  0.5275 -0.9838
  130MOL0     H17512  11.278   3.562  11.452 -0.9241 -0.4518 -0.4484
  130MOL0     H17513  11.533   3.507  11.460 -0.4237  0.6092  0.3385
  130MOL0     H17514  11.722   3.434  11.486 -3.8071 -0.0470  0.3066
  130MOL0     H17515  11.700   3.457  11.662  2.2684 -0.2667  0.2796
  130MOL0     H17516  11.899   3.289  11.517  1.4604 -0.0689  1.0492
  130MOL0     H17517  11.925   3.434  11.615  0.9652  0.3747 -0.2613
  130MOL0     H17518  11.960   3.328  11.786 -1.5837  0.2237  2.0724
  130MOL0     H17519  11.785   3.312  11.799 -0.0731  0.3954 -0.1995
  130MOL0     H17520  11.992   3.103  11.716  1.0425  1.7710  4.2593
  130MOL0     H17521  11.828   3.086  11.650  1.4044 -2.7332 -0.8523
  130MOL0     H17522  11.742   3.094  11.874  0.7614 -1.4984  3.2617
  130MOL0     H17523  11.909   3.119  11.937  0.1896  2.8960 -2.2493
  130MOL0     H17524  11.798   2.874  11.797  2.7467  1.1452 -2.3469
  130MOL0     H17525  11.958   2.881  11.878 -1.3858 -5.8798  3.0213
  130MOL0     H17526  11.877   2.867  12.087 -1.2703  0.3072  2.1010
  130MOL0     H17527  11.773   2.759  12.005  3.8226 -0.8110  0.6714
  130MOL0     H17528  11.634   2.873  12.156  1.3779  0.8964  1.0574
  130MOL0     H17529  11.687   3.031  12.077  2.5441 -0.3743  0.0163
  130MOL0     H17530  11.422   3.153  11.670  1.4716 -0.7207 -1.4472
  130MOL0     H17531  11.187   3.234  11.685 -3.7888  3.8251 -0.8100
  130MOL0     H17532  10.894   3.778  11.616 -0.0847 -0.0529  0.4256
  130MOL0     H17533  10.658   3.800  11.603  1.1313  0.2543 -2.0720
  130MOL0     H17534   8.925   3.441  11.453 -1.8511  0.7825 -1.3652
  130MOL0     H17535   8.752   3.408  11.298 -0.1586  1.6308  1.3558
  130MOL0     H17536   8.760   3.387  10.779  0.2373  2.0891  4.7277
  130MOL0     H17537   8.657   3.378  10.573  1.5136 -0.8078  0.8180
  130MOL0     H17538   8.359   3.346  10.321 -1.7471  2.1818  0.5291
  130MOL0     H17539   8.504   3.298  10.388  0.4986  0.6050 -1.5053
  130MOL0     H17540   8.571   3.532  10.440  1.8200  1.5022 -1.5548
  130MOL0     H17541   8.425   3.592  10.382  1.1722  1.0393  2.3351
  130MOL0     H17542   8.491   3.481  10.154 -1.7859 -1.5937  1.4054
  130MOL0     H17543   8.639   3.429  10.218  0.4121  0.1700  3.0395
  130MOL0     H17544   8.640   3.648  10.076  1.2015  1.2766  0.7961
  130MOL0     H17545   8.524   3.721  10.190  1.9799  1.7375  2.4666
  130MOL0     H17546   8.875   3.751  10.409 -0.3214 -0.8228 -0.4971
  130MOL0     H17547   8.276   3.339  10.760 -0.2779 -1.0445  2.4081
  130MOL0     H17548   8.272   3.226  10.980 -1.4128  0.5875 -0.4959
  130MOL0     H17549   8.429   3.203  11.084  1.5657  1.7789 -0.9109
  130MOL0     H17550   8.339   3.358  11.079 -5.4539 -0.8366 -1.5027
  131MOL0     O17551   2.642   5.731   9.214 -0.4488 -0.2877 -0.3202
  131MOL0     C17552   2.632   5.612   9.240 -0.3597  0.1786  0.2668
  131MOL0     O17553   2.565   5.514   9.168 -0.3008 -0.8504  0.3410
  131MOL0     C17554   2.455   5.551   9.095 -0.5376  0.1504  0.2026
  131MOL0     C17555   2.416   5.454   9.004 -0.5538  0.5525  0.6659
  131MOL0     C17556   2.307   5.473   8.919 -0.0609 -0.1892 -0.5204
  131MOL0     C17557   2.231   5.590   8.935  0.6139 -0.7679 -0.7354
  131MOL0     O17558   2.122   5.631   8.858  0.0161  0.2211  0.0099
  131MOL0     C17559   2.045   5.535   8.794  0.0828  0.8529 -0.3647
  131MOL0     C17560   1.923   5.598   8.734  0.9457  0.3976 -0.2188
  131MOL0     C17561   1.958   5.670   8.596  0.5815  0.4245  0.3163
  131MOL0     C17562   1.983   5.563   8.477 -0.1293  0.6234  0.0930
  131MOL0     C17563   1.856   5.532   8.402  0.2063  0.8905 -0.1198
  131MOL0     C17564   1.882   5.471   8.269 -0.0219 -0.2397 -0.4434
  131MOL0     C17565   1.757   5.440   8.199 -0.0503 -0.0289  0.5404
  131MOL0     C17566   1.787   5.369   8.057 -0.1652  0.4111  0.3139
  131MOL0     N17567   1.832   5.229   8.046 -0.2847  0.0367 -0.1175
  131MOL0     C17568   1.767   5.120   8.002  0.5051  0.2657 -0.0034
  131MOL0     C17569   1.867   5.038   7.956 -0.6009 -0.2549  0.3436
  131MOL0     C17570   1.844   4.916   7.873 -0.3611  0.3617  0.4362
  131MOL0     C17571   1.769   4.802   7.949 -0.5288 -0.9479 -0.3842
  131MOL0     C17572   1.852   4.761   8.073  0.3660  0.2057 -0.2036
  131MOL0     C17573   2.003   4.731   8.045  0.1506 -1.2324 -0.2599
  131MOL0     O17574   2.019   4.664   7.916  0.6498  0.1807  0.7341
  131MOL0     C17575   2.151   4.636   7.880 -0.3446 -0.0090  0.4539
  131MOL0     C17576   2.246   4.727   7.852  0.1932  0.2433 -0.2997
  131MOL0     C17577   2.374   4.695   7.824 -0.7930  0.5997  1.1003
  131MOL0     C17578   2.417   4.556   7.830 -0.5174  0.0735  0.4387
  131MOL0     C17579   2.561   4.513   7.795  0.4191  1.0107 -0.2026
  131MOL0     O17580   2.645   4.617   7.788 -0.2898  0.3740  0.6045
  131MOL0     C17581   2.766   4.609   7.719  0.0502  0.9418 -0.9341
  131MOL0     C17582   2.834   4.503   7.664 -0.0550 -0.3290  0.7069
  131MOL0     C17583   2.966   4.507   7.630 -0.3778 -0.0263  0.7614
  131MOL0     C17584   3.039   4.626   7.646  0.3167  0.9349  0.6992
  131MOL0     O17585   3.159   4.654   7.588  0.1929  0.3409 -0.6583
  131MOL0     C17586   3.241   4.555   7.542 -0.6393  0.1822 -0.2710
  131MOL0     C17587   3.352   4.631   7.468  0.3118  0.4537 -0.3537
  131MOL0     C17588   3.465   4.668   7.562 -0.6747 -0.5044  0.3922
  131MOL0     C17589   3.603   4.704   7.508  0.2527 -0.3754  0.3613
  131MOL0     C17590   3.696   4.744   7.626  0.5771 -0.0297  0.2650
  131MOL0     C17591   3.836   4.766   7.583  0.4879  0.5118 -0.2312
  131MOL0     C17592   3.897   4.854   7.693  0.9347 -0.5628 -0.1132
  131MOL0     C17593   4.052   4.884   7.681 -0.8673  0.5501  0.5414
  131MOL0    Cl17594   4.136   4.732   7.736  0.0486 -0.3312  0.0436
  131MOL0     C17595   2.968   4.743   7.693 -0.0670  0.3163 -0.6502
  131MOL0     C17596   2.838   4.731   7.738 -0.6281 -0.7208  0.5449
  131MOL0     O17597   2.585   4.394   7.790 -0.0458 -0.4408  0.2073
  131MOL0     C17598   2.324   4.457   7.872  0.8253  0.4342 -0.5492
  131MOL0     C17599   2.193   4.500   7.887  0.0644  0.1528 -0.3397
  131MOL0     N17600   1.987   5.087   7.992 -0.0761 -0.7376  0.0221
  131MOL0     N17601   1.965   5.200   8.052 -0.5490  0.1954 -0.5512
  131MOL0     C17602   2.269   5.683   9.034  0.4629  0.2278  1.1839
  131MOL0     C17603   2.369   5.662   9.117 -0.5972 -0.0837 -0.1154
  131MOL0     C17604   2.695   5.562   9.357 -0.5469 -0.6744  0.5689
  131MOL0     C17605   2.619   5.471   9.442 -0.8141 -0.3090  0.3007
  131MOL0     C17606   2.682   5.433   9.562 -0.0130  0.4374 -0.0361
  131MOL0     C17607   2.814   5.476   9.597 -0.5579  0.1893 -0.2582
  131MOL0     O17608   2.888   5.429   9.710  0.5309  0.5053  0.1837
  131MOL0     C17609   2.985   5.326   9.681 -0.1344 -0.8956 -0.0913
  131MOL0     C17610   2.937   5.178   9.684 -0.1212 -0.1342  0.2080
  131MOL0     C17611   2.899   5.152   9.826 -0.3809 -0.9349 -0.0705
  131MOL0     C17612   2.817   5.028   9.852  0.2743 -0.8967 -0.5773
  131MOL0     C17613   2.822   4.979   9.986 -0.1823 -0.3610  0.2783
  131MOL0     C17614   2.851   4.940  10.095  0.5778 -0.8812 -0.0316
  131MOL0     C17615   2.885   5.558   9.518 -0.5259  0.0851  0.4743
  131MOL0     C17616   2.833   5.598   9.395 -0.1870 -0.3979  0.4845
  131MOL0     C17617   2.926   5.685   9.307 -0.0828  0.6654 -1.0291
  131MOL0     H17618   2.478   5.365   9.010  2.0358  2.1965 -0.0411
  131MOL0     H17619   2.270   5.400   8.847 -0.3023 -0.3200 -0.2677
  131MOL0     H17620   2.102   5.483   8.716  1.6167  1.7597  0.1104
  131MOL0     H17621   2.005   5.475   8.876 -0.4287  3.1019  1.1275
  131MOL0     H17622   1.877   5.671   8.801 -1.5155 -0.5086 -0.7943
  131MOL0     H17623   1.845   5.524   8.712 -0.0496  1.5824 -0.8273
  131MOL0     H17624   2.053   5.724   8.605  1.3260 -1.1471  2.9335
  131MOL0     H17625   1.877   5.738   8.567  1.8557  0.9726 -2.1968
  131MOL0     H17626   2.059   5.608   8.411 -1.1859  0.2392 -1.4351
  131MOL0     H17627   2.025   5.467   8.508  0.8326  0.5959 -1.2181
  131MOL0     H17628   1.797   5.461   8.460  1.4034  0.5465  0.6934
  131MOL0     H17629   1.798   5.625   8.396 -3.3481 -1.1924 -0.8940
  131MOL0     H17630   1.947   5.536   8.209  0.8236  0.3802  1.0854
  131MOL0     H17631   1.941   5.380   8.276 -0.1884 -0.3275 -0.1640
  131MOL0     H17632   1.702   5.533   8.186 -0.8233 -0.5500 -0.0405
  131MOL0     H17633   1.689   5.379   8.260  0.5927 -2.2471 -0.8154
  131MOL0     H17634   1.692   5.375   8.003 -0.8468 -0.1115  1.4162
  131MOL0     H17635   1.862   5.432   8.007 -0.6760 -0.3476 -1.4927
  131MOL0     H17636   1.660   5.105   7.994  0.9812 -2.9389 -2.6238
  131MOL0     H17637   1.782   4.959   7.794  0.4081 -0.5323 -0.6832
  131MOL0     H17638   1.939   4.888   7.828  0.4311  1.7134  1.2129
  131MOL0     H17639   1.678   4.847   7.989  0.2457  0.1544  0.2088
  131MOL0     H17640   1.753   4.720   7.878  1.7607 -0.4993 -1.5389
  131MOL0     H17641   1.809   4.665   8.101  2.9092 -0.5826  1.3331
  131MOL0     H17642   1.846   4.837   8.152 -1.0315  0.8413 -0.8873
  131MOL0     H17643   2.026   4.669   8.133  0.1874 -0.7197  0.0956
  131MOL0     H17644   2.067   4.819   8.045  2.3499 -2.6118  2.9821
  131MOL0     H17645   2.215   4.831   7.855 -1.3457 -0.2101  0.8911
  131MOL0     H17646   2.449   4.766   7.791 -2.0053  1.6051  0.3818
  131MOL0     H17647   2.781   4.409   7.652 -2.0498  1.0087 -2.1142
  131MOL0     H17648   3.015   4.418   7.590 -2.4460 -1.2629  0.8214
  131MOL0     H17649   3.275   4.485   7.619 -2.5536  0.0664  0.5220
  131MOL0     H17650   3.196   4.500   7.459  0.2724  2.2016 -2.2077
  131MOL0     H17651   3.393   4.563   7.393  1.2562 -0.1070  0.6480
  131MOL0     H17652   3.305   4.713   7.412 -0.6413 -0.2498 -0.6264
  131MOL0     H17653   3.422   4.756   7.610 -2.2735 -1.9770  1.8369
  131MOL0     H17654   3.478   4.586   7.634  0.3022  0.7611  1.7072
  131MOL0     H17655   3.603   4.778   7.427 -0.6893 -0.2879  0.4339
  131MOL0     H17656   3.657   4.622   7.460  0.8437  0.1267  0.1446
  131MOL0     H17657   3.688   4.683   7.716 -1.3504  0.4658  0.4642
  131MOL0     H17658   3.649   4.838   7.656 -1.2077 -1.0084  0.6269
  131MOL0     H17659   3.888   4.670   7.574  0.1413  0.4576 -2.0325
  131MOL0     H17660   3.830   4.810   7.483 -0.9620 -1.1842 -0.9627
  131MOL0     H17661   3.879   4.800   7.786  1.4046 -0.9221 -0.2239
  131MOL0     H17662   3.841   4.947   7.705  0.1769 -1.2823  2.6203
  131MOL0     H17663   4.085   4.893   7.577 -0.9589 -1.0764  0.3441
  131MOL0     H17664   4.071   4.974   7.739  2.1590  0.7638 -0.6089
  131MOL0     H17665   3.023   4.837   7.698  1.0578 -0.3783  0.8699
  131MOL0     H17666   2.782   4.815   7.777 -1.1717  0.4683 -2.5097
  131MOL0     H17667   2.342   4.352   7.894  2.5272  1.1287  1.7210
  131MOL0     H17668   2.116   4.431   7.921  0.9785  0.4790  2.7477
  131MOL0     H17669   2.200   5.767   9.044 -0.9680 -0.4439 -1.8062
  131MOL0     H17670   2.387   5.731   9.198  1.7860 -1.8504  0.9884
  131MOL0     H17671   2.520   5.437   9.413 -0.5616 -2.3093  1.5949
  131MOL0     H17672   2.619   5.373   9.628 -3.0846  2.7824 -0.5911
  131MOL0     H17673   3.069   5.340   9.750 -0.4772 -0.7861  0.3077
  131MOL0     H17674   3.016   5.345   9.578 -0.8879  1.7190  0.1018
  131MOL0     H17675   3.019   5.109   9.662 -1.5823 -1.9473  0.1735
  131MOL0     H17676   2.858   5.161   9.611 -1.9499 -1.3380  2.3312
  131MOL0     H17677   2.846   5.232   9.879 -0.4661 -1.5081  0.7382
  131MOL0     H17678   2.993   5.144   9.882 -1.1791 -2.1379  1.1751
  131MOL0     H17679   2.714   5.056   9.827  1.7287  3.8506 -2.2128
  131MOL0     H17680   2.845   4.956   9.775 -2.3060 -2.9158  0.2231
  131MOL0     H17681   2.884   4.896  10.186 -0.9950  1.0783  1.5777
  131MOL0     H17682   2.983   5.585   9.557 -0.6160  0.0835  0.6991
  131MOL0     H17683   2.919   5.655   9.202  3.9171  0.1640 -1.2882
  131MOL0     H17684   2.898   5.791   9.312  4.4865  2.0601  0.8577
  131MOL0     H17685   3.028   5.679   9.346 -1.1892 -1.1064  1.9004
  132MOL0     O17686   7.705   1.295  10.678  0.4089  0.9859  0.1675
  132MOL0     C17687   7.668   1.229  10.581  0.0317  0.4160 -0.0492
  132MOL0     O17688   7.754   1.181  10.481  0.2429  0.4859  0.3398
  132MOL0     C17689   7.893   1.190  10.502  0.0570 -0.4806  0.3797
  132MOL0     C17690   7.969   1.244  10.403  0.4638  0.4837 -0.2281
  132MOL0     C17691   8.111   1.227  10.399 -0.1600  0.0257  0.6495
  132MOL0     C17692   8.180   1.175  10.509 -0.1091  0.0668 -0.5245
  132MOL0     O17693   8.313   1.161  10.524 -0.3159 -0.0738 -0.1864
  132MOL0     C17694   8.404   1.214  10.418  0.3404  0.4193 -0.7770
  132MOL0     C17695   8.544   1.192  10.475 -0.2216  0.3577 -0.1431
  132MOL0     C17696   8.656   1.161  10.380 -0.2178  0.2032  0.5446
  132MOL0     C17697   8.698   1.274  10.288  0.3146  0.5622  0.7278
  132MOL0     C17698   8.835   1.241  10.225  0.3313 -0.4199  1.0280
  132MOL0     C17699   8.896   1.343  10.123 -0.2394 -0.2923 -0.2109
  132MOL0     C17700   9.052   1.333  10.113  0.6187  0.0905  0.5820
  132MOL0     C17701   9.133   1.411  10.222 -0.0631  0.1267 -0.2195
  132MOL0     N17702   9.131   1.553  10.182  0.8969 -0.7771  0.5759
  132MOL0     C17703   9.058   1.661  10.240 -0.2925  0.6546  0.7451
  132MOL0     C17704   9.070   1.768  10.157 -0.0497  0.5851 -0.2555
  132MOL0     C17705   8.985   1.884  10.173 -0.3688  0.8405 -0.0012
  132MOL0     C17706   8.908   1.921  10.048 -0.1019 -0.5438 -0.0884
  132MOL0     C17707   8.820   2.048  10.077 -0.7250 -0.1552 -0.7625
  132MOL0     C17708   8.723   2.075   9.972 -0.5131 -0.0094  0.5889
  132MOL0     O17709   8.632   2.188   9.994 -0.2996 -0.3008  0.2567
  132MOL0     C17710   8.522   2.213   9.903 -0.5414 -0.2694 -0.0629
  132MOL0     C17711   8.450   2.332   9.915 -0.6871 -0.5705  0.5472
  132MOL0     C17712   8.338   2.365   9.843  0.3173 -0.5955  0.6726
  132MOL0     C17713   8.304   2.280   9.732  1.0741 -0.3124  0.7563
  132MOL0     C17714   8.169   2.295   9.668 -0.4379  0.3748  0.0046
  132MOL0     O17715   8.084   2.392   9.718 -0.7046 -0.0854 -0.3717
  132MOL0     C17716   7.955   2.371   9.713 -0.1414 -0.1958  0.4216
  132MOL0     C17717   7.889   2.255   9.734  0.7616 -0.1737 -0.1327
  132MOL0     C17718   7.749   2.254   9.713 -0.1398 -0.3825 -0.2583
  132MOL0     C17719   7.674   2.367   9.680 -0.2401 -0.3402  0.1626
  132MOL0     O17720   7.533   2.377   9.676 -0.2559  0.1388  0.4928
  132MOL0     C17721   7.457   2.260   9.648  0.0516 -0.2953 -0.9364
  132MOL0     C17722   7.307   2.299   9.669 -0.2950 -0.3721  0.1491
  132MOL0     C17723   7.281   2.297   9.826 -0.9368  0.5985  0.0551
  132MOL0     C17724   7.134   2.341   9.864  0.8371 -0.6504 -0.8169
  132MOL0     C17725   7.091   2.289  10.003  0.1954  0.4786  1.3624
  132MOL0     C17726   7.186   2.349  10.108  0.4250 -0.5289 -0.4322
  132MOL0     C17727   7.185   2.510  10.103  0.1275 -0.0925 -0.8947
  132MOL0     C17728   7.233   2.580  10.239  0.8243  0.5440  0.0669
  132MOL0    Cl17729   7.132   2.519  10.379  0.1096  0.2005  0.1396
  132MOL0     C17730   7.741   2.494   9.662  0.1546 -0.6923  0.5754
  132MOL0     C17731   7.885   2.487   9.673 -0.4937 -0.1126  0.0689
  132MOL0     O17732   8.136   2.205   9.598 -0.7298  0.1278  0.2785
  132MOL0     C17733   8.382   2.168   9.716  0.1608 -0.3630  1.3645
  132MOL0     C17734   8.490   2.134   9.795  0.0177  0.5304 -0.0584
  132MOL0     N17735   9.147   1.726  10.048  0.2015 -0.2282 -0.5010
  132MOL0     N17736   9.186   1.605  10.071  0.4105  0.1625  0.1308
  132MOL0     C17737   8.105   1.130  10.617  0.0919  1.3250  1.0743
  132MOL0     C17738   7.958   1.142  10.615 -0.8906 -0.8504 -1.0006
  132MOL0     C17739   7.520   1.232  10.566  0.4278  1.0727  0.7103
  132MOL0     C17740   7.444   1.298  10.668  1.1366 -0.5895  0.3380
  132MOL0     C17741   7.306   1.285  10.666 -1.0634 -0.6404 -1.1016
  132MOL0     C17742   7.241   1.204  10.569  0.1361 -0.5520  0.1590
  132MOL0     O17743   7.107   1.178  10.568  0.6396 -0.1862  0.5143
  132MOL0     C17744   7.029   1.232  10.674 -0.2456  0.0561  0.2074
  132MOL0     C17745   6.880   1.175  10.677  0.4679  0.8330 -0.2022
  132MOL0     C17746   6.813   1.165  10.538  0.3726 -0.2367  0.7225
  132MOL0     C17747   6.812   1.307  10.472  0.5257  0.2859  0.1207
  132MOL0     C17748   6.742   1.304  10.343  0.6704 -0.8786  0.5129
  132MOL0     C17749   6.688   1.313  10.234 -0.2043  0.1218 -0.1587
  132MOL0     C17750   7.315   1.154  10.469 -0.3261  0.3328  0.5800
  132MOL0     C17751   7.453   1.174  10.451 -0.8961 -0.0312 -0.7582
  132MOL0     C17752   7.513   1.138  10.314  0.4142 -0.9558 -0.3518
  132MOL0     H17753   7.913   1.281  10.318 -0.7183  1.3329  0.8855
  132MOL0     H17754   8.159   1.257  10.307 -1.1753 -0.6797 -0.1393
  132MOL0     H17755   8.395   1.158  10.324  0.2680 -0.0496 -0.4969
  132MOL0     H17756   8.374   1.318  10.404  0.4496  0.3120 -1.9121
  132MOL0     H17757   8.547   1.108  10.544  4.0231  0.2227 -0.2280
  132MOL0     H17758   8.572   1.280  10.533 -0.4031 -0.7890  1.7410
  132MOL0     H17759   8.613   1.075  10.327 -0.5660 -0.1283  1.3440
  132MOL0     H17760   8.738   1.112  10.434  1.1636  2.0697  0.2189
  132MOL0     H17761   8.622   1.296  10.213 -1.4784 -2.7540  1.3669
  132MOL0     H17762   8.713   1.359  10.354 -1.3806 -0.3438  2.3883
  132MOL0     H17763   8.905   1.238  10.308 -0.1381 -0.1914  1.4395
  132MOL0     H17764   8.826   1.141  10.181 -0.4074  0.7841 -1.7837
  132MOL0     H17765   8.853   1.331  10.023 -0.1962 -1.0243 -0.1508
  132MOL0     H17766   8.876   1.440  10.169 -0.3717 -0.1021 -0.6723
  132MOL0     H17767   9.077   1.379  10.017  0.6960 -0.8399  0.1460
  132MOL0     H17768   9.081   1.228  10.102  5.1722  1.2346 -0.2795
  132MOL0     H17769   9.090   1.393  10.322  2.3418  0.7704  1.0059
  132MOL0     H17770   9.235   1.373  10.220  0.1470  0.6695 -3.2987
  132MOL0     H17771   8.997   1.655  10.329 -1.7328  0.8228 -0.1847
  132MOL0     H17772   8.916   1.849  10.250  1.7564  1.4452  2.3554
  132MOL0     H17773   9.050   1.961  10.217  0.7738  0.3570 -0.7961
  132MOL0     H17774   8.977   1.956   9.971 -1.6184 -1.0061 -1.7270
  132MOL0     H17775   8.849   1.838  10.009 -0.7535  0.9110 -2.4202
  132MOL0     H17776   8.888   2.133  10.089  0.8017 -0.9722 -2.9650
  132MOL0     H17777   8.765   2.044  10.171 -2.8592 -1.3213 -2.0003
  132MOL0     H17778   8.656   1.989   9.956 -1.0665  0.2682  1.3673
  132MOL0     H17779   8.777   2.090   9.878 -1.6192  0.3323 -0.0195
  132MOL0     H17780   8.472   2.388  10.006 -3.2889  0.9400  0.3385
  132MOL0     H17781   8.271   2.444   9.875  0.4455 -0.0477 -0.3719
  132MOL0     H17782   7.948   2.171   9.770  1.6637  0.4044 -0.2116
  132MOL0     H17783   7.695   2.163   9.735  0.2732 -0.8823 -1.2826
  132MOL0     H17784   7.477   2.222   9.547 -1.1761 -0.5250 -1.1042
  132MOL0     H17785   7.481   2.180   9.718 -1.6362  0.7900  0.9830
  132MOL0     H17786   7.285   2.388   9.610 -2.6607 -0.3737  0.9184
  132MOL0     H17787   7.248   2.222   9.619 -0.4170  0.5177 -1.1084
  132MOL0     H17788   7.293   2.194   9.860 -1.6051  0.3083 -0.5602
  132MOL0     H17789   7.359   2.356   9.875 -0.6280 -1.3880  2.0798
  132MOL0     H17790   7.065   2.298   9.791 -0.9173  2.3128 -1.0865
  132MOL0     H17791   7.112   2.445   9.841  0.0329 -0.5496  0.3096
  132MOL0     H17792   7.092   2.180   9.996  0.5974  0.5485 -3.2833
  132MOL0     H17793   6.986   2.317  10.011 -1.8658 -4.7976 -2.0606
  132MOL0     H17794   7.163   2.315  10.210 -3.5676  2.0164 -0.2862
  132MOL0     H17795   7.285   2.319  10.073  0.1739  1.5045 -3.2054
  132MOL0     H17796   7.086   2.546  10.074 -0.9597 -2.0460  0.2208
  132MOL0     H17797   7.247   2.528  10.014 -1.3491 -0.7464 -2.1087
  132MOL0     H17798   7.332   2.550  10.274  0.3428  0.7009  1.6334
  132MOL0     H17799   7.230   2.688  10.225  4.4253  0.8406  0.6990
  132MOL0     H17800   7.688   2.587   9.646 -2.1844 -1.4372  3.2122
  132MOL0     H17801   7.936   2.577   9.640 -1.6493  0.5944  0.1414
  132MOL0     H17802   8.356   2.100   9.636 -0.4917 -1.4649  2.4726
  132MOL0     H17803   8.547   2.044   9.775  0.7573  0.3812  2.3956
  132MOL0     H17804   8.149   1.082  10.703 -3.8660 -2.5349  1.3002
  132MOL0     H17805   7.909   1.100  10.703 -0.8659  0.6426 -0.2453
  132MOL0     H17806   7.482   1.357  10.751  0.3218  0.6055 -0.1109
  132MOL0     H17807   7.270   1.344  10.750 -1.5480 -0.8684 -1.1476
  132MOL0     H17808   7.025   1.341  10.666 -0.5031  0.1257  1.1580
  132MOL0     H17809   7.077   1.227  10.772 -0.7589 -0.0924  0.4593
  132MOL0     H17810   6.818   1.235  10.744  0.3806 -0.3284  0.8058
  132MOL0     H17811   6.882   1.075  10.721  1.7017  0.7999 -0.2971
  132MOL0     H17812   6.710   1.131  10.546  0.3768 -0.9138 -1.5657
  132MOL0     H17813   6.868   1.093  10.476  1.2758 -0.5469  1.8394
  132MOL0     H17814   6.754   1.374  10.535  2.8148  1.7609  0.7725
  132MOL0     H17815   6.910   1.353  10.456  1.4769 -1.0270  1.7336
  132MOL0     H17816   6.638   1.308  10.139 -0.5665 -2.2239  0.0784
  132MOL0     H17817   7.253   1.102  10.397 -0.3838 -0.5328  1.2302
  132MOL0     H17818   7.582   1.217  10.282 -0.9455  1.6639  2.5909
  132MOL0     H17819   7.552   1.037  10.325  1.3256 -0.4378  1.4567
  132MOL0     H17820   7.438   1.135  10.234  1.5929 -3.8799 -1.5019
  133MOL0     O17821   5.128   3.059   7.988  0.1952 -0.8739 -0.5041
  133MOL0     C17822   5.186   2.973   7.926  0.7480  0.4471  0.3142
  133MOL0     O17823   5.127   2.880   7.832  0.4891 -0.7397  0.0909
  133MOL0     C17824   5.003   2.899   7.762 -0.9744  0.5025  0.1496
  133MOL0     C17825   4.979   2.833   7.643 -0.9316 -0.1173  1.1792
  133MOL0     C17826   4.866   2.836   7.574  0.5993  0.0387 -0.3570
  133MOL0     C17827   4.754   2.895   7.636  0.1499 -0.1643 -0.6210
  133MOL0     O17828   4.639   2.899   7.565 -0.3318 -0.1401  0.4031
  133MOL0     C17829   4.515   2.954   7.623 -0.2529  0.0414  0.1805
  133MOL0     C17830   4.421   2.947   7.506 -0.0101  0.7052  0.0212
  133MOL0     C17831   4.356   2.805   7.476  0.0182  1.0989  0.5192
  133MOL0     C17832   4.215   2.817   7.428 -0.8085  0.4057  0.7649
  133MOL0     C17833   4.145   2.685   7.424  0.1809 -0.5281 -0.1858
  133MOL0     C17834   4.115   2.635   7.566  0.1354  0.0408  0.2870
  133MOL0     C17835   4.011   2.528   7.552 -0.0592  0.5192 -0.2791
  133MOL0     C17836   4.060   2.384   7.563  0.0385  0.0081  0.0982
  133MOL0     N17837   4.164   2.349   7.466 -0.1643 -0.0737  0.2856
  133MOL0     C17838   4.144   2.319   7.332  0.3304  0.1177  0.3735
  133MOL0     C17839   4.267   2.274   7.284  0.2000  0.0729  0.0089
  133MOL0     C17840   4.294   2.227   7.141 -0.4200 -0.5147  0.5917
  133MOL0     C17841   4.214   2.100   7.110 -0.7574  0.4530  0.0615
  133MOL0     C17842   4.236   1.971   7.206  0.6326 -0.4465 -0.5018
  133MOL0     C17843   4.332   1.880   7.143  0.1159  0.0827 -0.3297
  133MOL0     O17844   4.454   1.950   7.129 -0.3492 -0.4428 -0.0238
  133MOL0     C17845   4.579   1.879   7.137  0.7654  1.5753 -0.1690
  133MOL0     C17846   4.704   1.939   7.134  0.5985 -0.3048 -0.9958
  133MOL0     C17847   4.824   1.864   7.136 -0.4791 -0.0301 -0.8851
  133MOL0     C17848   4.817   1.723   7.143 -0.0947 -0.7415  0.2850
  133MOL0     C17849   4.945   1.648   7.171  0.8497 -1.1620 -0.5320
  133MOL0     O17850   4.928   1.529   7.234  0.1443 -0.5136 -0.4065
  133MOL0     C17851   5.034   1.441   7.226 -0.7435 -0.3229 -0.5680
  133MOL0     C17852   5.135   1.421   7.322  0.2952  0.7358 -0.5185
  133MOL0     C17853   5.248   1.352   7.280 -0.2702 -0.1623  0.0293
  133MOL0     C17854   5.259   1.295   7.150  1.0264  0.4773 -0.0472
  133MOL0     O17855   5.380   1.245   7.119  0.6994  0.5630 -0.1831
  133MOL0     C17856   5.393   1.178   6.995 -0.2310 -0.7049  1.0938
  133MOL0     C17857   5.537   1.127   6.998 -0.0710 -1.0154 -0.3918
  133MOL0     C17858   5.636   1.242   7.025 -0.5598  0.3592 -0.5836
  133MOL0     C17859   5.762   1.184   7.098 -0.3157 -0.4741  0.3287
  133MOL0     C17860   5.837   1.094   7.010 -0.3740 -0.4312  0.0845
  133MOL0     C17861   5.980   1.063   7.062  0.2661 -0.0898 -0.3515
  133MOL0     C17862   6.043   0.955   6.967 -0.1482  0.1927 -0.3089
  133MOL0     C17863   6.192   0.963   6.976 -0.3446 -0.2239 -0.0874
  133MOL0    Cl17864   6.251   1.127   6.911 -0.4603  0.1871 -0.0146
  133MOL0     C17865   5.149   1.306   7.067  0.4979  0.3136  0.3701
  133MOL0     C17866   5.039   1.380   7.103  1.0484  0.5282 -0.2032
  133MOL0     O17867   5.051   1.686   7.116 -0.4350 -0.0638 -0.3671
  133MOL0     C17868   4.696   1.661   7.127  0.5748  0.3252  0.6411
  133MOL0     C17869   4.585   1.734   7.123 -0.1769 -0.5491 -1.0574
  133MOL0     N17870   4.348   2.271   7.397 -0.0754  0.6625  0.9198
  133MOL0     N17871   4.290   2.322   7.503  0.1047 -0.7447 -0.7872
  133MOL0     C17872   4.766   2.959   7.762  0.8966 -0.3161 -0.6855
  133MOL0     C17873   4.896   2.968   7.822 -0.4141 -0.0034  0.6495
  133MOL0     C17874   5.334   2.962   7.951 -0.5644  0.4328  0.0740
  133MOL0     C17875   5.383   2.976   8.078  0.4365 -0.1172 -0.1225
  133MOL0     C17876   5.514   2.945   8.116  0.3312 -0.8270 -0.0699
  133MOL0     C17877   5.602   2.912   8.021 -0.1284  0.3650 -0.2282
  133MOL0     O17878   5.727   2.865   8.047 -0.1489 -0.3064  0.0317
  133MOL0     C17879   5.775   2.869   8.180 -0.3177  0.2818  0.1161
  133MOL0     C17880   5.936   2.850   8.172  0.5982  0.3344 -0.4522
  133MOL0     C17881   5.999   2.843   8.319 -0.1487  0.2251  0.2545
  133MOL0     C17882   6.153   2.824   8.309  0.1023  0.3925 -0.3808
  133MOL0     C17883   6.224   2.942   8.260 -0.7309 -0.3881  0.0446
  133MOL0     C17884   6.287   3.034   8.202 -0.2713  0.0525  0.1158
  133MOL0     C17885   5.565   2.909   7.885 -0.0290  0.3960  0.3673
  133MOL0     C17886   5.428   2.919   7.849  0.3132 -0.1269  0.0640
  133MOL0     C17887   5.392   2.904   7.700  0.3950 -0.2453 -1.3874
  133MOL0     H17888   5.055   2.772   7.597 -2.9407 -2.6862  0.9841
  133MOL0     H17889   4.861   2.790   7.476 -0.5419  0.0632 -0.3193
  133MOL0     H17890   4.476   2.890   7.703  0.3302  0.6185  0.9459
  133MOL0     H17891   4.535   3.057   7.653 -0.3450 -0.5424  2.4489
  133MOL0     H17892   4.475   2.970   7.414  2.2909 -0.7871  0.9048
  133MOL0     H17893   4.339   3.017   7.524  1.2534  2.2706 -0.1374
  133MOL0     H17894   4.366   2.735   7.559 -1.4663 -1.7088 -1.5165
  133MOL0     H17895   4.413   2.749   7.401 -2.1248 -0.7895  0.2002
  133MOL0     H17896   4.163   2.890   7.491 -2.5543  0.5144 -0.7251
  133MOL0     H17897   4.217   2.852   7.325  2.9717 -0.8984  0.2525
  133MOL0     H17898   4.051   2.713   7.375 -0.0572 -0.7396  0.1424
  133MOL0     H17899   4.195   2.615   7.358 -0.3389  2.1073 -3.6487
  133MOL0     H17900   4.205   2.606   7.620  2.1168  0.1903 -2.6609
  133MOL0     H17901   4.067   2.719   7.617  0.0079  0.8232 -1.0733
  133MOL0     H17902   3.951   2.542   7.462 -2.9423  1.9188  1.6838
  133MOL0     H17903   3.928   2.536   7.623  0.3556 -1.6955  0.5491
  133MOL0     H17904   4.098   2.373   7.665 -0.0107 -0.8701  0.0337
  133MOL0     H17905   3.971   2.321   7.552  0.0499 -0.5829  2.7218
  133MOL0     H17906   4.054   2.339   7.274  0.3471 -0.3258  0.1912
  133MOL0     H17907   4.262   2.297   7.063  2.4149  0.7975  0.4724
  133MOL0     H17908   4.402   2.206   7.134 -0.2559  0.7503 -2.4057
  133MOL0     H17909   4.107   2.122   7.116 -0.7691 -0.0122  3.4542
  133MOL0     H17910   4.234   2.072   7.007  2.5072  0.0639  0.7103
  133MOL0     H17911   4.149   1.906   7.216  0.3482 -0.3323 -2.0091
  133MOL0     H17912   4.266   2.001   7.307 -1.3199  2.1310 -0.5743
  133MOL0     H17913   4.292   1.841   7.049  0.8167 -2.7920  0.4658
  133MOL0     H17914   4.343   1.804   7.221 -2.8708  0.2476  0.3784
  133MOL0     H17915   4.707   2.048   7.133 -1.0342 -0.1483  1.4641
  133MOL0     H17916   4.911   1.929   7.144 -2.6681  3.0252 -0.1191
  133MOL0     H17917   5.137   1.472   7.417  3.6400  1.9972 -1.1282
  133MOL0     H17918   5.327   1.349   7.355  0.2507  3.2228 -0.2120
  133MOL0     H17919   5.316   1.104   6.975 -0.9673 -0.1933  1.9368
  133MOL0     H17920   5.393   1.256   6.918 -0.7931  1.5848  3.2547
  133MOL0     H17921   5.536   1.044   7.070 -2.7937 -0.7179 -0.0099
  133MOL0     H17922   5.554   1.088   6.897 -1.1538  0.1815 -1.0552
  133MOL0     H17923   5.660   1.293   6.932 -0.7900 -1.4528 -1.6764
  133MOL0     H17924   5.590   1.316   7.092  1.5539  2.0600 -0.9266
  133MOL0     H17925   5.728   1.136   7.190  0.8160  0.1980  1.1215
  133MOL0     H17926   5.822   1.267   7.136 -1.5686  0.7230 -0.2169
  133MOL0     H17927   5.843   1.137   6.910  0.5711 -0.4594  0.1225
  133MOL0     H17928   5.788   1.000   6.984 -0.1070 -0.5884  0.1535
  133MOL0     H17929   6.035   1.158   7.052 -1.6403  1.1474  0.3430
  133MOL0     H17930   5.973   1.036   7.167  1.3483  4.1699  1.0440
  133MOL0     H17931   6.008   0.961   6.864  0.1222  0.3986 -0.3918
  133MOL0     H17932   6.029   0.855   7.009 -1.5505 -0.3075 -1.8823
  133MOL0     H17933   6.229   0.950   7.078  2.8074 -0.7420 -1.1800
  133MOL0     H17934   6.234   0.885   6.910 -2.4713 -0.5200 -1.1924
  133MOL0     H17935   5.159   1.267   6.966  2.7944 -0.1363  0.7172
  133MOL0     H17936   4.954   1.400   7.038 -0.3314  2.0420  1.9606
  133MOL0     H17937   4.687   1.553   7.128  0.6273  0.2762 -0.8732
  133MOL0     H17938   4.490   1.680   7.126  1.3400 -3.3770  0.4485
  133MOL0     H17939   4.680   3.017   7.795  2.3528  2.2173 -1.0631
  133MOL0     H17940   4.902   3.036   7.906  0.0615  2.6096 -1.3681
  133MOL0     H17941   5.321   3.018   8.157  0.7881 -0.2349  0.2216
  133MOL0     H17942   5.530   2.944   8.223 -1.9945 -0.3263  0.3466
  133MOL0     H17943   5.737   2.789   8.243 -0.0261  0.3782  0.4180
  133MOL0     H17944   5.744   2.957   8.237 -0.8315 -0.9448  1.7899
  133MOL0     H17945   5.984   2.925   8.108 -3.4510 -0.5494 -5.1268
  133MOL0     H17946   5.962   2.757   8.121 -5.0517 -0.4118 -2.6212
  133MOL0     H17947   5.960   2.761   8.380  1.3802 -0.0250  0.9344
  133MOL0     H17948   5.972   2.936   8.369 -2.4297 -0.8613  1.1917
  133MOL0     H17949   6.188   2.809   8.411  1.8016  0.8478 -0.8619
  133MOL0     H17950   6.163   2.739   8.241 -1.1848  1.2563 -1.7199
  133MOL0     H17951   6.339   3.105   8.141  3.4563 -0.4899  2.3304
  133MOL0     H17952   5.648   2.894   7.817  0.7796  0.5462  1.3143
  133MOL0     H17953   5.344   2.809   7.675 -0.6576  0.3168 -1.5221
  133MOL0     H17954   5.332   2.980   7.650  0.6940  0.6929 -0.3573
  133MOL0     H17955   5.482   2.903   7.637  0.5912 -1.6963 -1.1215
  134MOL0     O17956   3.789   0.293   9.474  1.1396  0.5081  0.0800
  134MOL0     C17957   3.705   0.380   9.461 -0.2894  0.3735 -0.4928
  134MOL0     O17958   3.736   0.511   9.474 -0.5557  0.6111 -0.3521
  134MOL0     C17959   3.860   0.551   9.524  0.4574  0.0931 -0.0026
  134MOL0     C17960   3.946   0.629   9.444  0.3722 -0.1066  1.0243
  134MOL0     C17961   4.067   0.666   9.501  0.6834  0.0713 -0.1779
  134MOL0     C17962   4.118   0.610   9.622 -0.1841 -0.3139  0.6925
  134MOL0     O17963   4.249   0.635   9.669 -0.6218 -0.2941 -0.3357
  134MOL0     C17964   4.262   0.665   9.808 -0.0259  0.3642 -0.9775
  134MOL0     C17965   4.389   0.729   9.843 -0.1258 -0.7126 -0.6916
  134MOL0     C17966   4.505   0.637   9.803  0.5131 -0.9120 -1.0253
  134MOL0     C17967   4.641   0.671   9.881  0.0411 -0.0240 -0.1576
  134MOL0     C17968   4.753   0.564   9.882 -0.0475 -0.4395 -1.3248
  134MOL0     C17969   4.862   0.613   9.986 -0.0420 -0.5953  0.7575
  134MOL0     C17970   4.982   0.519   9.978  0.2057  0.6202  0.4382
  134MOL0     C17971   5.085   0.537  10.087  0.2658  1.0219 -1.0081
  134MOL0     N17972   5.145   0.673  10.085 -0.4458 -0.7339 -0.1509
  134MOL0     C17973   5.283   0.680  10.092  0.6682  0.5917 -0.0852
  134MOL0     C17974   5.293   0.814  10.131 -0.1446  0.2142  0.2119
  134MOL0     C17975   5.419   0.863  10.207 -0.3121  0.0743  0.0127
  134MOL0     C17976   5.543   0.872  10.110 -0.5223  0.1633 -0.5436
  134MOL0     C17977   5.664   0.930  10.185  0.6665  1.9973  0.2555
  134MOL0     C17978   5.784   0.908  10.092  0.5562  0.3734 -0.2555
  134MOL0     O17979   5.908   0.914  10.165 -0.2946 -0.0402  0.5967
  134MOL0     C17980   5.999   0.812  10.176 -0.0294  0.2178 -0.2314
  134MOL0     C17981   5.988   0.690  10.103 -0.9746  0.1006 -1.0034
  134MOL0     C17982   6.097   0.600  10.121  0.2104  0.2117 -0.3380
  134MOL0     C17983   6.205   0.620  10.216  0.3833  0.5056  0.0052
  134MOL0     C17984   6.299   0.516  10.248  0.2145  0.3170 -0.6140
  134MOL0     O17985   6.287   0.400  10.176 -0.4072 -0.7709  0.4640
  134MOL0     C17986   6.394   0.325  10.150 -0.4759 -1.1394  0.2772
  134MOL0     C17987   6.519   0.367  10.113  0.8764 -0.3140  0.4642
  134MOL0     C17988   6.608   0.270  10.095  0.2740  0.4868  0.1100
  134MOL0     C17989   6.583   0.133  10.098  0.7723 -1.1847 -0.0957
  134MOL0     O17990   6.689   0.047  10.083 -0.3885 -0.4218 -0.3755
  134MOL0     C17991   6.733  -0.016  10.206  0.6942 -0.4818  0.1763
  134MOL0     C17992   6.827   0.083  10.284 -0.2792  0.2020  0.6680
  134MOL0     C17993   6.967   0.097  10.217  0.2429 -0.6171  0.6627
  134MOL0     C17994   7.076   0.151  10.314  1.2077  0.3358  0.3339
  134MOL0     C17995   7.219   0.141  10.250  0.2584 -0.4613 -0.0829
  134MOL0     C17996   7.280  -0.001  10.274  0.0892 -0.4492 -0.5989
  134MOL0     C17997   7.401  -0.026  10.193  0.1861 -0.3342 -1.1355
  134MOL0     C17998   7.430  -0.171  10.165  0.4056  0.9091  0.6475
  134MOL0    Cl17999   7.583  -0.189  10.075 -0.0743 -0.7158  0.2665
  134MOL0     C18000   6.460   0.086  10.119  0.6224  0.0356 -0.2809
  134MOL0     C18001   6.362   0.183  10.150 -0.6666 -0.1970  0.8142
  134MOL0     O18002   6.378   0.537  10.338  0.0681  0.5043 -0.3122
  134MOL0     C18003   6.211   0.745  10.279  0.2226 -0.2307 -0.3249
  134MOL0     C18004   6.106   0.837  10.253 -0.6501 -0.2627 -0.0679
  134MOL0     N18005   5.172   0.891  10.127 -1.0815  0.0706  0.4663
  134MOL0     N18006   5.087   0.794  10.101  0.5592 -1.3516 -1.0997
  134MOL0     C18007   4.029   0.532   9.696 -0.7590  0.5026  0.2019
  134MOL0     C18008   3.900   0.505   9.652 -0.3184 -0.4798  0.5848
  134MOL0     C18009   3.566   0.337   9.412 -0.3564  0.0646 -0.0626
  134MOL0     C18010   3.529   0.196   9.409 -0.4842  0.0007 -1.1442
  134MOL0     C18011   3.406   0.140   9.373 -0.7089  0.0846 -0.3773
  134MOL0     C18012   3.311   0.224   9.330 -0.5001  0.2170 -0.2156
  134MOL0     O18013   3.203   0.179   9.265  0.1807 -0.5725  0.6206
  134MOL0     C18014   3.143   0.056   9.314 -0.0543 -0.0840 -0.3775
  134MOL0     C18015   2.995   0.066   9.272  0.4981  0.0375 -0.1610
  134MOL0     C18016   2.900  -0.041   9.324  0.2364 -1.3100 -0.2502
  134MOL0     C18017   2.749   0.007   9.316 -0.1366  0.3121  0.6490
  134MOL0     C18018   2.705   0.011   9.174  0.5656  0.2018  0.0455
  134MOL0     C18019   2.652   0.030   9.067  0.0866 -0.5274  0.3152
  134MOL0     C18020   3.337   0.364   9.326 -1.0070  0.1763 -0.2015
  134MOL0     C18021   3.458   0.422   9.370 -0.7247  0.0535 -0.1891
  134MOL0     C18022   3.479   0.565   9.351  0.4549  0.0538  0.0469
  134MOL0     H18023   3.918   0.670   9.348 -1.4863 -1.6950  0.8354
  134MOL0     H18024   4.136   0.736   9.454  3.6813 -0.7824  2.5962
  134MOL0     H18025   4.180   0.725   9.848 -0.7164 -1.5236  0.6260
  134MOL0     H18026   4.257   0.570   9.862  1.0289  0.1540 -1.2303
  134MOL0     H18027   4.403   0.762   9.946  1.0179  1.2917 -1.4461
  134MOL0     H18028   4.401   0.830   9.803  0.4020  0.0202  1.2014
  134MOL0     H18029   4.518   0.639   9.694  2.1260 -2.0318 -0.8884
  134MOL0     H18030   4.481   0.535   9.834  3.8914 -1.5955 -0.3048
  134MOL0     H18031   4.672   0.770   9.849  0.4714 -0.7354 -2.0440
  134MOL0     H18032   4.608   0.683   9.985 -1.4690  2.6105 -0.8727
  134MOL0     H18033   4.721   0.462   9.903  2.8506 -1.1710  0.1371
  134MOL0     H18034   4.799   0.560   9.782  0.2448 -0.3673 -1.1962
  134MOL0     H18035   4.895   0.715   9.962  1.2734 -0.7692  1.6810
  134MOL0     H18036   4.822   0.613  10.088 -0.0554  1.3398  0.7872
  134MOL0     H18037   5.022   0.544   9.879  0.0737  0.8799  0.4503
  134MOL0     H18038   4.947   0.415   9.984  0.3230  0.6277  1.4149
  134MOL0     H18039   5.033   0.515  10.180  1.3222 -0.4838 -0.7467
  134MOL0     H18040   5.163   0.461  10.078 -1.1074 -0.7154  0.8819
  134MOL0     H18041   5.359   0.604  10.080  0.7253  0.8642 -1.6046
  134MOL0     H18042   5.395   0.964  10.241 -1.7232  1.1817 -3.8250
  134MOL0     H18043   5.443   0.797  10.291  0.8813  0.4675  0.0121
  134MOL0     H18044   5.562   0.768  10.085  0.7092  0.0838  0.5929
  134MOL0     H18045   5.515   0.930  10.021  1.3276 -1.9790 -2.6441
  134MOL0     H18046   5.680   0.868  10.274  0.3053 -1.9657 -2.2565
  134MOL0     H18047   5.655   1.039  10.197  1.6457  2.3857 -1.9975
  134MOL0     H18048   5.785   0.988  10.018 -1.3657 -0.7755 -1.6007
  134MOL0     H18049   5.784   0.818  10.031  1.7839  0.9009 -1.0774
  134MOL0     H18050   5.916   0.657  10.030 -1.7846  1.2583 -0.7465
  134MOL0     H18051   6.083   0.505  10.070 -2.5465 -0.1464  0.9297
  134MOL0     H18052   6.548   0.471  10.100  5.5605 -1.5952 -1.2826
  134MOL0     H18053   6.712   0.302  10.095 -0.0551  1.8775  2.7633
  134MOL0     H18054   6.656  -0.036  10.281  0.8968  2.5154  1.3524
  134MOL0     H18055   6.789  -0.107  10.183  1.4603 -0.3498  1.4340
  134MOL0     H18056   6.787   0.185  10.287  3.8245  2.1489 -2.1918
  134MOL0     H18057   6.845   0.052  10.388  2.7945 -1.9423 -0.3627
  134MOL0     H18058   6.994  -0.007  10.195 -1.0400 -0.6427 -0.9992
  134MOL0     H18059   6.970   0.151  10.122 -0.3579 -1.5806  0.0847
  134MOL0     H18060   7.074   0.097  10.409  1.5166  0.1440  0.2321
  134MOL0     H18061   7.044   0.253  10.335 -1.5592 -0.3109 -0.3422
  134MOL0     H18062   7.281   0.216  10.301  4.4991 -1.0623 -3.7515
  134MOL0     H18063   7.218   0.169  10.145 -3.0250  1.4178  0.3279
  134MOL0     H18064   7.298  -0.010  10.381  0.3086  0.3430 -0.5623
  134MOL0     H18065   7.206  -0.073  10.237  0.2993 -0.6019 -0.7200
  134MOL0     H18066   7.481   0.023  10.249 -0.9702 -1.4172  1.6260
  134MOL0     H18067   7.401   0.030  10.098 -0.6979 -0.4130 -1.1937
  134MOL0     H18068   7.434  -0.234  10.254  0.7268 -1.0360 -0.6747
  134MOL0     H18069   7.352  -0.206  10.097  2.6329  2.3870 -2.9709
  134MOL0     H18070   6.441  -0.020  10.135  1.6760 -0.4829 -2.0968
  134MOL0     H18071   6.262   0.154  10.180 -0.8351 -1.1873 -0.6215
  134MOL0     H18072   6.281   0.771  10.358 -2.1184 -0.4413  1.9864
  134MOL0     H18073   6.101   0.940  10.287 -2.9752  0.2314 -1.6915
  134MOL0     H18074   4.051   0.484   9.791 -1.0527  0.2326  0.1364
  134MOL0     H18075   3.825   0.456   9.713  1.0522 -2.1059  1.0412
  134MOL0     H18076   3.615   0.133   9.433  1.2761  2.5016 -0.5425
  134MOL0     H18077   3.405   0.031   9.375  0.0048  0.0580 -1.1459
  134MOL0     H18078   3.160   0.044   9.421 -0.3062 -1.7233 -0.4935
  134MOL0     H18079   3.186  -0.034   9.270 -1.4797 -0.2857 -1.4396
  134MOL0     H18080   2.989   0.056   9.163  0.7373 -2.6255 -0.0158
  134MOL0     H18081   2.960   0.166   9.296  3.7593  1.8565 -2.2263
  134MOL0     H18082   2.919  -0.061   9.430 -2.2392 -2.8318 -0.0422
  134MOL0     H18083   2.915  -0.140   9.281  1.1202 -1.3260  0.0705
  134MOL0     H18084   2.693  -0.072   9.368  0.9595  1.1252  3.2331
  134MOL0     H18085   2.739   0.101   9.371  0.9651  0.9358 -0.1607
  134MOL0     H18086   2.601   0.050   8.975  0.2462 -0.7164  0.1833
  134MOL0     H18087   3.258   0.429   9.290 -1.6216 -0.4323  0.0150
  134MOL0     H18088   3.449   0.615   9.443 -2.2645  0.7295 -1.1134
  134MOL0     H18089   3.581   0.597   9.325 -0.7944  3.1596 -1.5279
  134MOL0     H18090   3.414   0.608   9.274  0.8081  2.0444  0.8035
  135MOL0     O18091  10.348   9.434   7.305  0.3923  0.4803  0.1929
  135MOL0     C18092  10.339   9.555   7.335  0.1410  0.4283 -0.6643
  135MOL0     O18093  10.289   9.657   7.255 -0.3329 -0.6203  0.4811
  135MOL0     C18094  10.238   9.617   7.134  0.5726 -1.1810  0.4452
  135MOL0     C18095  10.296   9.657   7.016 -0.8440  0.4197 -0.6709
  135MOL0     C18096  10.251   9.615   6.889  0.3575 -0.0035 -0.4721
  135MOL0     C18097  10.137   9.523   6.883  0.0094 -0.5639  0.2893
  135MOL0     O18098  10.100   9.494   6.751  0.6284  0.1848 -0.2568
  135MOL0     C18099   9.958   9.487   6.739  0.3214 -0.3120  0.9101
  135MOL0     C18100   9.901   9.437   6.605 -1.1618  0.4622 -0.1918
  135MOL0     C18101   9.756   9.468   6.586 -0.0521  0.1698 -1.3959
  135MOL0     C18102   9.682   9.408   6.471 -0.0325  0.1297 -0.2682
  135MOL0     C18103   9.540   9.459   6.475 -0.1014  0.0288 -0.1386
  135MOL0     C18104   9.472   9.439   6.338  0.3832  0.8702 -0.2434
  135MOL0     C18105   9.330   9.491   6.317  0.1958 -0.0234  0.7476
  135MOL0     C18106   9.313   9.638   6.347 -0.4943 -0.1431 -0.1425
  135MOL0     N18107   9.173   9.671   6.345  0.7997  0.3935 -0.3804
  135MOL0     C18108   9.077   9.659   6.240 -0.3790  0.0792  0.0357
  135MOL0     C18109   8.958   9.685   6.300  0.6142  0.2894 -0.3718
  135MOL0     C18110   8.821   9.664   6.238 -0.0999 -0.1369  0.5703
  135MOL0     C18111   8.778   9.784   6.156 -0.4310 -0.7890  0.2006
  135MOL0     C18112   8.774   9.912   6.240  1.1501 -0.3646 -0.0819
  135MOL0     C18113   8.721  10.029   6.150 -0.3177 -0.2202  0.3918
  135MOL0     O18114   8.816  10.102   6.063 -0.1751  0.2519 -0.1465
  135MOL0     C18115   8.926  10.167   6.116 -0.3312 -0.4077 -0.3410
  135MOL0     C18116   9.013  10.202   6.018 -0.3883 -0.0330  1.3038
  135MOL0     C18117   9.114  10.289   6.052  0.0497  0.0675  0.0997
  135MOL0     C18118   9.142  10.334   6.189  0.5056  1.1429  0.1730
  135MOL0     C18119   9.252  10.417   6.222 -0.6036  0.1923  0.4631
  135MOL0     O18120   9.266  10.450   6.356 -0.7775 -0.0222 -0.1342
  135MOL0     C18121   9.357  10.545   6.385  0.3023  0.7782 -0.1019
  135MOL0     C18122   9.490  10.498   6.412  0.3995 -0.5300 -0.3857
  135MOL0     C18123   9.584  10.598   6.438 -0.3326  0.3172 -0.4352
  135MOL0     C18124   9.552  10.734   6.437  0.4224  0.4406  1.2406
  135MOL0     O18125   9.655  10.807   6.480 -0.2350 -0.1384 -0.5262
  135MOL0     C18126   9.649  10.949   6.464  0.1341  0.2527 -0.0505
  135MOL0     C18127   9.764  11.015   6.539 -1.2747  0.0646  0.0849
  135MOL0     C18128   9.714  11.059   6.675  0.1331 -1.1962 -0.3092
  135MOL0     C18129   9.793  11.181   6.718 -0.0182 -0.6298  0.1906
  135MOL0     C18130   9.739  11.238   6.854  0.5664  0.5582 -0.9034
  135MOL0     C18131   9.740  11.153   6.977  0.7076  0.1872 -0.6263
  135MOL0     C18132   9.716  11.229   7.105 -0.2421 -0.1359  0.9209
  135MOL0     C18133   9.840  11.281   7.172 -0.2766 -0.0062  1.3283
  135MOL0    Cl18134   9.808  11.387   7.300 -0.1061 -0.1933 -0.3068
  135MOL0     C18135   9.415  10.775   6.402 -0.8109 -0.0928 -0.2326
  135MOL0     C18136   9.320  10.683   6.374  0.3735 -0.0063  0.8476
  135MOL0     O18137   9.329  10.454   6.132 -0.1782 -0.1064 -0.9418
  135MOL0     C18138   9.044  10.290   6.286  0.1127 -0.3936 -0.3412
  135MOL0     C18139   8.944  10.194   6.254 -0.7171 -0.1825 -0.5542
  135MOL0     N18140   8.973   9.712   6.434 -0.6088  0.6994  0.7552
  135MOL0     N18141   9.100   9.704   6.457 -0.1969 -0.0437 -0.3628
  135MOL0     C18142  10.065   9.503   7.002 -0.1288 -0.1619  0.0741
  135MOL0     C18143  10.108   9.552   7.125 -0.4051 -0.1781  0.3917
  135MOL0     C18144  10.384   9.594   7.465  0.0466  0.7332  1.3106
  135MOL0     C18145  10.355   9.725   7.509  0.9291  0.2961 -0.2007
  135MOL0     C18146  10.407   9.778   7.629  0.2812 -0.1062 -0.5681
  135MOL0     C18147  10.489   9.708   7.710 -0.0453 -0.1022 -0.9202
  135MOL0     O18148  10.526   9.777   7.826 -0.1300 -0.0862 -0.2523
  135MOL0     C18149  10.590   9.704   7.927 -0.4736  0.1222 -0.3846
  135MOL0     C18150  10.590   9.804   8.050 -0.3609  0.4039  0.0030
  135MOL0     C18151  10.703   9.921   8.037  0.2094 -0.5727  0.6251
  135MOL0     C18152  10.674  10.022   8.147  0.4553 -0.6720 -0.2465
  135MOL0     C18153  10.770  10.135   8.133  0.2943 -0.3697 -0.1174
  135MOL0     C18154  10.852  10.226   8.137 -0.2994 -0.9152 -0.1386
  135MOL0     C18155  10.525   9.577   7.674  1.1016 -0.0146 -0.0699
  135MOL0     C18156  10.462   9.514   7.554  0.3313 -0.2336 -0.1623
  135MOL0     C18157  10.519   9.382   7.516 -0.1263  0.4973 -0.2037
  135MOL0     H18158  10.389   9.713   7.017 -0.4596 -0.2129 -0.8851
  135MOL0     H18159  10.304   9.644   6.799 -1.1287  0.8134 -1.1313
  135MOL0     H18160   9.917   9.422   6.817 -2.8187  1.5686  1.0053
  135MOL0     H18161   9.916   9.587   6.757  0.9205  0.0638  0.2840
  135MOL0     H18162   9.910   9.329   6.613  0.3467  0.6749  1.9596
  135MOL0     H18163   9.965   9.480   6.527 -2.2776  2.0476 -0.2941
  135MOL0     H18164   9.750   9.577   6.587 -2.0206  0.1913  2.5471
  135MOL0     H18165   9.701   9.428   6.672 -0.9811 -0.7261 -2.3732
  135MOL0     H18166   9.733   9.450   6.384  1.7833 -0.2819  0.5417
  135MOL0     H18167   9.686   9.299   6.468  1.3671  0.1664 -2.7980
  135MOL0     H18168   9.491   9.403   6.555  0.4237 -0.3067 -0.0469
  135MOL0     H18169   9.542   9.567   6.495  0.6288  0.7395 -3.4768
  135MOL0     H18170   9.533   9.491   6.264 -0.9847  0.5551 -1.6309
  135MOL0     H18171   9.456   9.335   6.311 -0.8272  1.9402 -4.2550
  135MOL0     H18172   9.256   9.436   6.376 -1.6379  0.8032 -0.6835
  135MOL0     H18173   9.307   9.473   6.211  1.4450  1.3892  0.2064
  135MOL0     H18174   9.345   9.655   6.450 -0.5746  0.2342 -0.1809
  135MOL0     H18175   9.351   9.706   6.270 -1.5899  0.2677 -0.3284
  135MOL0     H18176   9.096   9.629   6.137 -0.4180  1.7339 -0.4761
  135MOL0     H18177   8.831   9.585   6.163 -0.8572  0.3858 -0.0968
  135MOL0     H18178   8.748   9.630   6.312 -0.9977 -0.8623 -0.6098
  135MOL0     H18179   8.846   9.793   6.070  1.0063 -3.5043  0.9168
  135MOL0     H18180   8.677   9.756   6.126 -1.4941  0.8974  2.0188
  135MOL0     H18181   8.862   9.949   6.292 -0.9315 -0.2746  3.7033
  135MOL0     H18182   8.697   9.895   6.316  1.5492 -0.0838  0.3811
  135MOL0     H18183   8.669  10.104   6.211 -0.0675  0.7602 -0.5687
  135MOL0     H18184   8.657   9.988   6.071 -2.5891  0.8217  1.5833
  135MOL0     H18185   8.987  10.177   5.915  1.0349  0.0955  0.8904
  135MOL0     H18186   9.179  10.321   5.970 -0.1282 -1.2934 -0.5930
  135MOL0     H18187   9.518  10.394   6.407 -0.3812 -0.6892 -2.3938
  135MOL0     H18188   9.682  10.559   6.464 -1.0423 -0.7082  0.8000
  135MOL0     H18189   9.659  10.957   6.356 -0.6441 -1.0093 -0.2359
  135MOL0     H18190   9.553  10.986   6.500 -0.2364 -1.3602  0.7176
  135MOL0     H18191   9.846  10.944   6.547 -2.1476 -1.1132 -0.9342
  135MOL0     H18192   9.793  11.098   6.474  1.1446  0.1940  1.2323
  135MOL0     H18193   9.611  11.093   6.666  1.0245  1.0952 -3.4463
  135MOL0     H18194   9.710  10.973   6.743  0.2042 -1.3541 -0.5069
  135MOL0     H18195   9.795  11.267   6.649 -2.8129  2.9520  4.0445
  135MOL0     H18196   9.897  11.162   6.744  0.5992  0.7394 -1.0835
  135MOL0     H18197   9.635  11.271   6.847  0.7485  0.9832 -1.9030
  135MOL0     H18198   9.801  11.326   6.870  0.7744  0.2419  0.0981
  135MOL0     H18199   9.661  11.077   6.972  0.6823  0.2708 -2.3269
  135MOL0     H18200   9.839  11.106   6.980  0.0907 -1.1482 -0.4952
  135MOL0     H18201   9.656  11.167   7.172 -0.9987  2.1792  2.5383
  135MOL0     H18202   9.651  11.312   7.074  0.2426 -0.2143 -0.3605
  135MOL0     H18203   9.892  11.194   7.213 -0.1182  0.1928  1.5550
  135MOL0     H18204   9.907  11.327   7.099 -1.1727 -1.5196 -0.5343
  135MOL0     H18205   9.381  10.878   6.409  3.6711  1.6328  0.0703
  135MOL0     H18206   9.213  10.705   6.374 -0.7732 -4.5463  0.2693
  135MOL0     H18207   9.041  10.332   6.386 -2.5496  1.3959 -1.0788
  135MOL0     H18208   8.875  10.156   6.329 -0.1427  1.2811  0.7677
  135MOL0     H18209   9.971   9.449   7.004 -0.8828  1.0880  2.3706
  135MOL0     H18210  10.057   9.535   7.220  0.9510 -1.7291  0.8994
  135MOL0     H18211  10.292   9.786   7.444  0.9591 -0.7658 -1.2627
  135MOL0     H18212  10.382   9.880   7.656 -3.0922 -0.6689 -1.0675
  135MOL0     H18213  10.690   9.665   7.907  1.2021  1.6035  3.8759
  135MOL0     H18214  10.529   9.620   7.961  3.1323 -2.3225  0.6037
  135MOL0     H18215  10.607   9.743   8.139 -1.6773  0.9257  0.6282
  135MOL0     H18216  10.485   9.831   8.060 -1.2412 -3.1298  2.0085
  135MOL0     H18217  10.713   9.971   7.940  3.6496 -1.5440  0.3405
  135MOL0     H18218  10.796   9.865   8.048 -0.7027 -1.9890  1.5161
  135MOL0     H18219  10.574  10.066   8.144  1.1256  1.5328  3.4409
  135MOL0     H18220  10.697   9.974   8.243 -0.7970 -0.9755 -0.0849
  135MOL0     H18221  10.928  10.301   8.146 -2.2036  0.9717  1.1628
  135MOL0     H18222  10.586   9.515   7.739  0.2153 -1.9236 -0.9530
  135MOL0     H18223  10.603   9.386   7.446  0.0344 -1.7107 -0.2082
  135MOL0     H18224  10.549   9.327   7.606 -1.6706 -1.2181 -0.6616
  135MOL0     H18225  10.439   9.318   7.478  1.8351 -1.2521 -1.6282
  136MOL0     O18226   3.004   9.842   7.482 -0.3763  0.2759  0.3867
  136MOL0     C18227   2.949   9.948   7.451 -0.0370  0.2902 -0.0840
  136MOL0     O18228   3.019  10.058   7.403  0.5398  0.2625 -0.0209
  136MOL0     C18229   3.159  10.072   7.388 -1.0280  0.6829  0.4404
  136MOL0     C18230   3.263   9.987   7.431 -0.9701 -0.3498  0.0802
  136MOL0     C18231   3.400  10.003   7.392  0.3333 -0.0055  0.1107
  136MOL0     C18232   3.430  10.116   7.306 -0.1539 -0.5429 -0.5199
  136MOL0     O18233   3.545  10.157   7.248 -0.2845  0.1615 -0.4498
  136MOL0     C18234   3.650  10.067   7.262 -0.5030 -0.0151  0.2235
  136MOL0     C18235   3.768  10.150   7.208  0.6512  0.0397  0.1316
  136MOL0     C18236   3.909  10.087   7.228  0.7341 -0.1706 -0.1459
  136MOL0     C18237   3.919   9.936   7.189  0.7461 -0.3732  0.3544
  136MOL0     C18238   4.052   9.899   7.131  0.3259 -0.3064 -0.0573
  136MOL0     C18239   4.166   9.912   7.231 -0.0119  0.2310 -0.2836
  136MOL0     C18240   4.308   9.881   7.183  0.8828 -0.3708  0.6899
  136MOL0     C18241   4.402   9.830   7.296  0.7602 -0.0103 -0.8023
  136MOL0     N18242   4.539   9.867   7.254  0.2320 -0.6575 -0.3235
  136MOL0     C18243   4.589   9.824   7.133 -0.3698 -1.0934  0.8065
  136MOL0     C18244   4.712   9.882   7.123  0.0171 -0.5771  0.3362
  136MOL0     C18245   4.822   9.870   7.024  0.0960 -1.5711  0.0691
  136MOL0     C18246   4.955   9.813   7.080 -0.0603 -0.1700  1.5326
  136MOL0     C18247   5.044   9.778   6.959  0.4458  0.3094 -0.1853
  136MOL0     C18248   5.185   9.743   7.021  0.0015  0.0486  0.2677
  136MOL0     O18249   5.278   9.725   6.906  0.8564  0.4837  0.1908
  136MOL0     C18250   5.410   9.702   6.953  0.9852 -0.2322  0.2523
  136MOL0     C18251   5.506   9.770   6.891 -0.0542  0.6489  0.1692
  136MOL0     C18252   5.644   9.744   6.910  1.3870  0.4750 -0.0028
  136MOL0     C18253   5.685   9.671   7.030 -0.6323 -0.4858 -0.1169
  136MOL0     C18254   5.826   9.647   7.065 -0.3745  0.9062  0.1429
  136MOL0     O18255   5.919   9.701   6.984  0.1697  0.0798  0.1450
  136MOL0     C18256   6.052   9.673   6.986  0.6604 -0.0622  0.1740
  136MOL0     C18257   6.097   9.553   7.035 -0.3326  0.1157  0.3670
  136MOL0     C18258   6.238   9.524   7.037  0.2394 -0.5997 -0.2367
  136MOL0     C18259   6.336   9.614   6.985  0.4697 -0.5321  0.1568
  136MOL0     O18260   6.469   9.579   6.973 -0.5284 -0.7067 -0.5010
  136MOL0     C18261   6.519   9.438   6.980  0.1346 -0.6140  0.4391
  136MOL0     C18262   6.670   9.439   6.934 -0.8343  0.4366  0.2422
  136MOL0     C18263   6.700   9.502   6.797 -0.8617  0.6731  1.2765
  136MOL0     C18264   6.852   9.507   6.763  0.4296  0.6865 -0.2961
  136MOL0     C18265   6.934   9.622   6.813 -0.0095  0.1179  1.1398
  136MOL0     C18266   6.904   9.765   6.754 -0.0723 -0.6635  0.2514
  136MOL0     C18267   6.991   9.862   6.838 -0.1514 -0.1469  0.9389
  136MOL0     C18268   6.922   9.928   6.959 -0.4391  0.3842  1.0894
  136MOL0    Cl18269   6.943   9.825   7.100  0.3926 -0.3056 -0.4530
  136MOL0     C18270   6.288   9.741   6.940  0.6144  0.1934 -0.4430
  136MOL0     C18271   6.148   9.771   6.942 -0.7065 -0.8007 -0.2013
  136MOL0     O18272   5.848   9.591   7.170 -0.8819  0.3214  0.3492
  136MOL0     C18273   5.581   9.617   7.108  0.5481  0.0950 -0.0341
  136MOL0     C18274   5.448   9.634   7.069 -0.0418  0.3266  0.2361
  136MOL0     N18275   4.741   9.948   7.241  0.1277  0.1327  0.1872
  136MOL0     N18276   4.637   9.931   7.324  0.5903  0.0079 -0.0776
  136MOL0     C18277   3.325  10.198   7.268 -0.1499  0.5791  0.3736
  136MOL0     C18278   3.195  10.182   7.321 -0.3265  0.7397  0.4484
  136MOL0     C18279   2.801   9.955   7.466 -0.4157  0.9091  0.6758
  136MOL0     C18280   2.730   9.834   7.465  0.0486 -0.6673 -0.5663
  136MOL0     C18281   2.585   9.831   7.471 -0.1540 -0.7282  0.1093
  136MOL0     C18282   2.514   9.953   7.467 -0.1448 -0.6290 -0.8052
  136MOL0     O18283   2.376   9.962   7.473  0.2286 -0.1319 -0.3167
  136MOL0     C18284   2.280   9.847   7.490 -0.6639  0.4402 -0.0358
  136MOL0     C18285   2.262   9.771   7.361 -0.1972 -0.0622 -0.7219
  136MOL0     C18286   2.167   9.843   7.261  0.0189 -0.0903  0.5220
  136MOL0     C18287   2.023   9.867   7.311  0.6863  0.8906 -0.0327
  136MOL0     C18288   1.936   9.903   7.196 -0.6589 -0.6020  0.4581
  136MOL0     C18289   1.865   9.949   7.112 -0.6999 -0.6995  0.8413
  136MOL0     C18290   2.582  10.070   7.466 -0.0837 -0.2100  0.1759
  136MOL0     C18291   2.727  10.080   7.468  0.6724  0.1965 -0.1330
  136MOL0     C18292   2.775  10.216   7.453  0.4863 -0.0401 -0.0888
  136MOL0     H18293   3.226   9.899   7.482 -4.2100 -1.1393 -3.2137
  136MOL0     H18294   3.478   9.937   7.427 -0.4552 -0.2453  1.5098
  136MOL0     H18295   3.670  10.032   7.363 -0.3554  3.0845  1.3577
  136MOL0     H18296   3.630   9.985   7.192 -1.8628 -1.4645  2.2365
  136MOL0     H18297   3.776  10.246   7.260  0.7839  0.3650 -0.4651
  136MOL0     H18298   3.755  10.161   7.099  1.7404  1.0227  0.0829
  136MOL0     H18299   3.928  10.086   7.336 -3.0118 -2.5279  0.6921
  136MOL0     H18300   3.983  10.143   7.172 -0.8779  1.2788 -0.9156
  136MOL0     H18301   3.897   9.864   7.269 -0.1237  0.5015  0.9466
  136MOL0     H18302   3.844   9.922   7.111  2.4827  0.8070 -1.6249
  136MOL0     H18303   4.057   9.795   7.097 -1.2790  0.0929 -1.6540
  136MOL0     H18304   4.079   9.960   7.044  1.1849 -2.6242 -1.5130
  136MOL0     H18305   4.169  10.017   7.260  2.3667  1.2550 -3.6059
  136MOL0     H18306   4.145   9.848   7.317 -0.7758 -0.3339 -0.8822
  136MOL0     H18307   4.340   9.975   7.136 -2.2650  2.5702  3.8883
  136MOL0     H18308   4.310   9.805   7.105  1.8421 -0.4314  0.7648
  136MOL0     H18309   4.378   9.875   7.393  0.5592 -0.0610 -0.8295
  136MOL0     H18310   4.390   9.721   7.297 -0.5787  0.1280 -0.6473
  136MOL0     H18311   4.547   9.756   7.059  0.2600 -0.2705 -0.3538
  136MOL0     H18312   4.784   9.806   6.943 -2.9955  1.8041 -1.3897
  136MOL0     H18313   4.832   9.968   6.976 -1.4015 -0.5566  1.7326
  136MOL0     H18314   5.007   9.879   7.151  1.9023 -0.0835  0.1097
  136MOL0     H18315   4.937   9.714   7.124  0.2160 -1.1736 -0.5060
  136MOL0     H18316   5.054   9.863   6.892  1.9365  1.3811  1.3321
  136MOL0     H18317   5.012   9.698   6.891  2.6212  0.0424 -0.9627
  136MOL0     H18318   5.180   9.666   7.097 -2.5964  2.0381  2.3143
  136MOL0     H18319   5.228   9.826   7.079 -1.0407  0.0930  1.0018
  136MOL0     H18320   5.476   9.849   6.823  2.0860  1.5894  0.2375
  136MOL0     H18321   5.715   9.783   6.838  2.8264 -2.8471 -0.5507
  136MOL0     H18322   6.027   9.481   7.075 -0.3875  0.8984  1.7416
  136MOL0     H18323   6.276   9.434   7.084  2.3064  1.1875  1.7431
  136MOL0     H18324   6.504   9.403   7.082 -1.9390 -1.5392 -0.1300
  136MOL0     H18325   6.452   9.384   6.912 -0.3289  1.2896 -0.6988
  136MOL0     H18326   6.731   9.500   7.002 -1.1981 -0.7173  1.6659
  136MOL0     H18327   6.694   9.332   6.930 -0.3155  0.5748 -1.1137
  136MOL0     H18328   6.652   9.450   6.714 -1.6026 -0.0840  2.1654
  136MOL0     H18329   6.661   9.603   6.778  0.9366  0.9804 -1.2639
  136MOL0     H18330   6.856   9.498   6.654 -1.5224 -0.7565 -0.3026
  136MOL0     H18331   6.895   9.416   6.804  3.3517  1.8370 -0.5836
  136MOL0     H18332   7.040   9.599   6.799 -0.2925 -0.9453  0.6485
  136MOL0     H18333   6.907   9.622   6.919 -1.4427  1.1752  0.8119
  136MOL0     H18334   6.942   9.770   6.651 -3.0557  0.9593 -0.8901
  136MOL0     H18335   6.798   9.788   6.741 -0.0419 -0.8967 -0.4907
  136MOL0     H18336   7.041   9.935   6.774  1.9646 -0.3593  2.2562
  136MOL0     H18337   7.078   9.806   6.872  1.4280  0.8527 -1.1811
  136MOL0     H18338   6.970  10.026   6.970  3.2709 -1.0340 -0.7902
  136MOL0     H18339   6.813   9.934   6.949 -0.3202 -0.4453 -1.0753
  136MOL0     H18340   6.361   9.815   6.910  2.1791 -0.8286  0.6619
  136MOL0     H18341   6.106   9.865   6.907 -0.4720  0.8921  3.5965
  136MOL0     H18342   5.614   9.550   7.187  0.4359  2.2215  1.9055
  136MOL0     H18343   5.381   9.599   7.147  0.2597 -0.1796  0.2779
  136MOL0     H18344   3.353  10.281   7.204  0.5931 -1.2774 -1.8554
  136MOL0     H18345   3.120  10.251   7.283  2.6300  2.6574 -2.4011
  136MOL0     H18346   2.794   9.746   7.469  2.2198  0.7179 -2.3658
  136MOL0     H18347   2.541   9.733   7.485 -2.3283  0.1254 -0.3332
  136MOL0     H18348   2.183   9.887   7.522 -1.2459 -1.8236  1.2873
  136MOL0     H18349   2.316   9.787   7.574 -2.1043  1.1306  1.1116
  136MOL0     H18350   2.228   9.672   7.394 -0.3836  0.0565 -0.5546
  136MOL0     H18351   2.359   9.751   7.314 -0.3577  0.6000 -1.3480
  136MOL0     H18352   2.166   9.779   7.173 -1.5642  0.3392  0.2003
  136MOL0     H18353   2.199   9.946   7.245  1.1674 -0.4403  0.5324
  136MOL0     H18354   1.979   9.779   7.358  1.3885  1.6879  2.2569
  136MOL0     H18355   2.015   9.949   7.384 -1.3326  1.2346 -0.5639
  136MOL0     H18356   1.783   9.998   7.064  2.2332  1.9518 -2.0137
  136MOL0     H18357   2.527  10.164   7.462  0.4390  0.3383  3.2507
  136MOL0     H18358   2.699  10.286   7.489 -1.0226 -1.4094 -0.5040
  136MOL0     H18359   2.868  10.242   7.503 -0.2646  0.3029  1.1595
  136MOL0     H18360   2.784  10.246   7.348  2.7732 -0.7844 -0.1651
  137MOL0     O18361   9.692   3.205  10.811  0.6761  0.3273  0.2639
  137MOL0     C18362   9.647   3.222  10.698  0.5976 -0.1695  0.3540
  137MOL0     O18363   9.682   3.323  10.615 -0.4831  0.9515  0.5434
  137MOL0     C18364   9.762   3.422  10.669 -0.2302  0.2287  0.0052
  137MOL0     C18365   9.905   3.403  10.663  0.5682 -0.2723 -0.2149
  137MOL0     C18366   9.994   3.511  10.695  0.7382 -0.5695 -0.5819
  137MOL0     C18367   9.938   3.629  10.762 -1.1587  0.1794  0.8810
  137MOL0     O18368  10.007   3.734  10.815  0.0865  0.4457 -0.1810
  137MOL0     C18369  10.121   3.696  10.883 -0.0605  0.4344 -0.6172
  137MOL0     C18370  10.244   3.699  10.796 -0.8779  0.0774  1.6396
  137MOL0     C18371  10.357   3.620  10.872  0.4039 -0.4458 -0.4179
  137MOL0     C18372  10.437   3.530  10.775 -0.4629  0.3025 -0.3949
  137MOL0     C18373  10.584   3.535  10.813  0.0009 -1.2254 -0.1799
  137MOL0     C18374  10.644   3.681  10.784  0.1814 -0.2837 -0.4151
  137MOL0     C18375  10.787   3.667  10.740  0.1215 -0.6799  0.9579
  137MOL0     C18376  10.848   3.802  10.690 -0.0100 -0.4900 -0.2033
  137MOL0     N18377  10.995   3.796  10.668  0.0529 -0.9273  0.6896
  137MOL0     C18378  11.045   3.716  10.584  0.2143 -0.3393  0.8305
  137MOL0     C18379  11.167   3.776  10.550 -0.2924 -0.4086 -0.6710
  137MOL0     C18380  11.236   3.738  10.426 -0.6549  0.6498 -0.5802
  137MOL0     C18381  11.380   3.681  10.463  0.4056 -0.9167 -0.4053
  137MOL0     C18382  11.461   3.658  10.334  0.2862  0.2303  0.2524
  137MOL0     C18383  11.611   3.623  10.377 -0.1472 -0.0636 -0.2128
  137MOL0     O18384  11.677   3.607  10.254  0.2539  0.0179 -0.2747
  137MOL0     C18385  11.812   3.594  10.256  0.2461  0.7200 -0.3904
  137MOL0     C18386  11.895   3.611  10.369  0.1922 -0.4369  0.1761
  137MOL0     C18387  12.031   3.616  10.349 -0.0304  0.0650 -0.2391
  137MOL0     C18388  12.085   3.586  10.226  0.3959  0.1771 -1.3275
  137MOL0     C18389  12.232   3.578  10.209 -0.0666 -0.7466 -0.0294
  137MOL0     O18390  12.310   3.577  10.317 -0.3424  0.1934 -0.3435
  137MOL0     C18391  12.444   3.595  10.307  0.2982  1.1578 -1.3270
  137MOL0     C18392  12.500   3.714  10.347 -0.2809 -0.4218 -0.0462
  137MOL0     C18393  12.637   3.740  10.317  0.0652  0.0983  0.2204
  137MOL0     C18394  12.718   3.638  10.265  0.4126 -0.3786 -0.6500
  137MOL0     O18395  12.852   3.654  10.257 -0.0577  0.9050  0.0872
  137MOL0     C18396  12.906   3.716  10.137  0.2107  0.1945  0.1544
  137MOL0     C18397  12.971   3.850  10.166 -0.4610  0.9608  0.0951
  137MOL0     C18398  13.073   3.906  10.058  0.3058 -0.1726 -0.1266
  137MOL0     C18399  13.002   3.928   9.925  0.5347  0.6243  0.5042
  137MOL0     C18400  13.075   4.020   9.830 -0.3383  0.0683 -0.1637
  137MOL0     C18401  13.182   3.934   9.753  0.6307  0.2977  0.6921
  137MOL0     C18402  13.283   4.009   9.678 -0.7241 -0.4963  0.2156
  137MOL0     C18403  13.374   3.925   9.589 -0.6049 -0.0848 -0.6131
  137MOL0    Cl18404  13.487   4.034   9.495  0.1505  0.4942  0.2743
  137MOL0     C18405  12.663   3.520  10.228  0.0110 -0.0391 -0.0682
  137MOL0     C18406  12.526   3.503  10.240  0.4602  0.0966 -0.2565
  137MOL0     O18407  12.275   3.584  10.092  0.2731 -0.2254  0.0612
  137MOL0     C18408  12.000   3.558  10.116  0.1798  0.0529 -0.3971
  137MOL0     C18409  11.869   3.565  10.131  0.4170  0.3069 -0.4251
  137MOL0     N18410  11.192   3.891  10.626  0.5266 -0.5367 -0.1001
  137MOL0     N18411  11.082   3.900  10.697  0.4731 -0.6442 -0.0843
  137MOL0     C18412   9.805   3.637  10.775  0.7345  0.4407  0.2117
  137MOL0     C18413   9.715   3.536  10.737  0.3423  0.7932 -0.0493
  137MOL0     C18414   9.539   3.128  10.655 -0.9561 -0.4410 -0.0064
  137MOL0     C18415   9.537   2.996  10.707 -0.0437  0.1377 -0.2007
  137MOL0     C18416   9.438   2.898  10.679  0.9124 -0.2190  0.3569
  137MOL0     C18417   9.334   2.941  10.596 -0.8861 -0.0795  0.2546
  137MOL0     O18418   9.245   2.848  10.562  0.8626 -0.3813  0.1623
  137MOL0     C18419   9.227   2.839  10.421  0.3494  0.9778  0.3254
  137MOL0     C18420   9.122   2.732  10.401  0.4196  0.9905 -0.1602
  137MOL0     C18421   8.982   2.790  10.429 -0.2430  0.4231 -0.1397
  137MOL0     C18422   8.886   2.673  10.417 -0.3810 -0.0895  0.2422
  137MOL0     C18423   8.748   2.716  10.461 -0.6006  0.7883 -0.1693
  137MOL0     C18424   8.638   2.749  10.491 -1.0520  0.7336  0.7416
  137MOL0     C18425   9.340   3.068  10.539 -0.4701  1.0522 -0.0995
  137MOL0     C18426   9.441   3.162  10.569 -0.6040 -0.1888  0.0584
  137MOL0     C18427   9.416   3.304  10.522 -0.1784  0.0414  0.1408
  137MOL0     H18428   9.936   3.314  10.609 -0.9928 -1.3160  0.5154
  137MOL0     H18429  10.101   3.502  10.679  0.6496  0.1839 -1.6653
  137MOL0     H18430  10.140   3.756  10.972 -0.5209 -1.3163  0.7193
  137MOL0     H18431  10.108   3.595  10.924 -2.3828  1.2402  0.7736
  137MOL0     H18432  10.276   3.803  10.789 -3.1561  0.7610 -4.3032
  137MOL0     H18433  10.221   3.665  10.695 -2.2551  3.8804  0.5028
  137MOL0     H18434  10.313   3.560  10.953 -0.9871 -3.8354 -3.4409
  137MOL0     H18435  10.428   3.695  10.908 -1.4979  0.9305  0.6469
  137MOL0     H18436  10.386   3.433  10.780  1.0462 -0.4662  0.9128
  137MOL0     H18437  10.429   3.571  10.674  0.3325  0.9942 -0.1877
  137MOL0     H18438  10.591   3.508  10.919 -1.2203 -0.3300  0.1437
  137MOL0     H18439  10.644   3.476  10.743 -1.0524 -0.3434 -1.8759
  137MOL0     H18440  10.583   3.725  10.704  1.1447 -1.6889 -1.9878
  137MOL0     H18441  10.647   3.745  10.872 -1.6731 -0.7915  0.0685
  137MOL0     H18442  10.806   3.591  10.664  1.0444  0.6840 -0.2513
  137MOL0     H18443  10.857   3.631  10.816  3.0749  0.0485 -1.2153
  137MOL0     H18444  10.797   3.827  10.596  0.0925  1.7476  0.2825
  137MOL0     H18445  10.819   3.881  10.759 -3.5214 -2.0542  0.3289
  137MOL0     H18446  10.992   3.641  10.527  0.4777 -0.7101  1.0710
  137MOL0     H18447  11.188   3.656  10.372 -1.3514  1.1425 -0.7188
  137MOL0     H18448  11.234   3.817  10.351  1.6294  2.8623  1.5183
  137MOL0     H18449  11.442   3.749  10.521  3.6713 -2.7227 -1.5056
  137MOL0     H18450  11.368   3.587  10.518  2.9487 -1.6784 -1.0112
  137MOL0     H18451  11.463   3.754  10.282  0.1239 -0.1832 -0.5237
  137MOL0     H18452  11.417   3.586  10.265  0.4487  1.0238 -0.6986
  137MOL0     H18453  11.616   3.534  10.441 -3.0845 -0.8239 -0.8863
  137MOL0     H18454  11.658   3.705  10.433  1.4544  0.1588 -1.8069
  137MOL0     H18455  11.850   3.624  10.467 -0.4954  0.1288 -0.2003
  137MOL0     H18456  12.094   3.646  10.432  0.5011  0.8952 -0.9280
  137MOL0     H18457  12.440   3.795  10.387  2.5777  1.2050  1.2889
  137MOL0     H18458  12.678   3.836  10.348 -0.2703  0.4419 -0.4001
  137MOL0     H18459  12.978   3.650  10.089  0.1586  0.6399 -0.5540
  137MOL0     H18460  12.837   3.742  10.055  4.3357  0.7165 -3.5361
  137MOL0     H18461  12.895   3.925  10.190 -3.4779 -1.6048 -0.6830
  137MOL0     H18462  13.034   3.847  10.255  1.0317  2.1298 -0.8684
  137MOL0     H18463  13.114   4.000  10.096  0.6539  1.6873 -4.5553
  137MOL0     H18464  13.152   3.835  10.033 -0.2090  0.3575 -3.8915
  137MOL0     H18465  12.908   3.979   9.947 -1.6285 -1.9922 -1.9901
  137MOL0     H18466  12.978   3.833   9.877  2.1136  0.0149  0.8721
  137MOL0     H18467  13.124   4.098   9.889 -0.4046  1.1646 -1.5297
  137MOL0     H18468  13.002   4.062   9.760 -1.6720 -0.3011  0.9648
  137MOL0     H18469  13.228   3.864   9.823 -1.0433 -1.2993  0.2690
  137MOL0     H18470  13.128   3.880   9.675 -1.1118  3.6418 -0.6241
  137MOL0     H18471  13.341   4.065   9.751 -2.1619  2.0315 -0.4510
  137MOL0     H18472  13.226   4.079   9.615 -0.9010 -0.8476 -0.0160
  137MOL0     H18473  13.436   3.857   9.648  0.0175 -1.1090 -2.3380
  137MOL0     H18474  13.315   3.864   9.520  0.6807 -0.6662 -1.2320
  137MOL0     H18475  12.733   3.451  10.183 -1.4601 -0.5874 -1.6204
  137MOL0     H18476  12.490   3.413  10.191 -0.8514 -0.2740  1.3020
  137MOL0     H18477  12.030   3.541  10.013  0.4505  0.1377 -0.3358
  137MOL0     H18478  11.809   3.535  10.045  1.4816 -1.1558 -0.6879
  137MOL0     H18479   9.749   3.719  10.819 -0.3450 -0.1668  0.0077
  137MOL0     H18480   9.608   3.530  10.753  0.4821 -4.4561  0.8275
  137MOL0     H18481   9.612   2.964  10.779  2.4667  1.3474 -2.1136
  137MOL0     H18482   9.440   2.798  10.720 -2.6288 -1.5434 -2.2006
  137MOL0     H18483   9.316   2.813  10.364  2.0124 -0.8631  3.5189
  137MOL0     H18484   9.181   2.931  10.382  0.8999 -0.0485 -3.0545
  137MOL0     H18485   9.131   2.641  10.460 -0.1098  0.9748 -0.1077
  137MOL0     H18486   9.125   2.687  10.301  1.5855 -0.3149  0.4133
  137MOL0     H18487   8.952   2.863  10.354 -3.8664  0.3710  1.0747
  137MOL0     H18488   8.982   2.830  10.531 -1.1243 -0.2216  0.1237
  137MOL0     H18489   8.885   2.636  10.314  1.2530 -0.1857  0.2330
  137MOL0     H18490   8.911   2.581  10.470 -0.5049 -0.7279 -0.7744
  137MOL0     H18491   8.543   2.773  10.536 -2.3656  2.7424 -2.6698
  137MOL0     H18492   9.260   3.105  10.475 -0.2737 -0.9351 -1.6017
  137MOL0     H18493   9.373   3.360  10.605  0.2232 -3.2118  2.7753
  137MOL0     H18494   9.508   3.349  10.483  0.1354 -0.4855  0.2525
  137MOL0     H18495   9.342   3.297  10.442  0.8878 -0.0568 -0.8691
  138MOL0     O18496   6.777   1.194   6.094  0.2990 -0.7575 -0.7742
  138MOL0     C18497   6.754   1.072   6.104 -0.3862  0.0090 -0.3430
  138MOL0     O18498   6.857   0.977   6.088 -0.0514  0.7106 -0.2329
  138MOL0     C18499   6.992   0.995   6.064 -0.0614  0.1441 -0.0236
  138MOL0     C18500   7.052   1.120   6.063  0.0911 -0.0207  1.3957
  138MOL0     C18501   7.189   1.129   6.048 -0.4284  0.2801 -0.0320
  138MOL0     C18502   7.267   1.013   6.034 -0.1368  0.3682 -0.2019
  138MOL0     O18503   7.404   1.040   6.029 -0.2726 -0.3578 -0.0663
  138MOL0     C18504   7.496   0.927   6.063 -0.4023  0.2840 -0.1741
  138MOL0     C18505   7.646   0.978   6.049  0.1077  0.2621  0.0786
  138MOL0     C18506   7.751   0.871   6.082 -0.9178 -0.3865  0.3116
  138MOL0     C18507   7.766   0.866   6.239  0.5993 -0.1472  0.6661
  138MOL0     C18508   7.849   0.744   6.275 -0.0620  0.1776  0.6847
  138MOL0     C18509   8.000   0.731   6.226  0.8159 -0.6150  0.3135
  138MOL0     C18510   8.081   0.867   6.227  0.8520  0.1250 -0.5206
  138MOL0     C18511   8.221   0.841   6.158  0.1192 -0.6705 -0.0727
  138MOL0     N18512   8.292   0.719   6.206  0.4694 -0.0459  0.2947
  138MOL0     C18513   8.367   0.635   6.130  0.1316  0.1079 -0.2906
  138MOL0     C18514   8.433   0.546   6.213  0.5403 -0.5488 -0.3446
  138MOL0     C18515   8.540   0.444   6.174 -1.1909  0.4668 -0.1355
  138MOL0     C18516   8.690   0.480   6.201 -0.5073 -0.8329  0.4494
  138MOL0     C18517   8.738   0.610   6.142  0.0004  0.7961 -0.1206
  138MOL0     C18518   8.859   0.661   6.209  0.9388 -0.6281  0.2401
  138MOL0     O18519   8.913   0.771   6.138  0.0413  0.4148 -0.3731
  138MOL0     C18520   9.033   0.749   6.074 -0.7195  0.4146  0.4675
  138MOL0     C18521   9.125   0.852   6.089  0.3438 -0.4881 -1.0221
  138MOL0     C18522   9.256   0.838   6.045 -0.1135  0.1818 -0.5678
  138MOL0     C18523   9.294   0.728   5.963  0.4806 -0.1024  0.8248
  138MOL0     C18524   9.430   0.730   5.905  0.1218 -0.7497  0.6296
  138MOL0     O18525   9.509   0.829   5.942 -0.6981 -0.3072  0.0401
  138MOL0     C18526   9.644   0.823   5.898 -0.0161  0.8034 -0.0500
  138MOL0     C18527   9.682   0.886   5.779 -0.1758 -1.1709  0.0177
  138MOL0     C18528   9.818   0.881   5.744 -0.1918 -0.0454  0.1228
  138MOL0     C18529   9.915   0.803   5.815 -0.5747  0.3608 -0.0008
  138MOL0     O18530  10.046   0.810   5.772  0.0894  0.1847 -0.1589
  138MOL0     C18531  10.136   0.706   5.823 -0.5986 -0.2912  0.9402
  138MOL0     C18532  10.200   0.735   5.961 -0.2257 -0.5977 -0.1457
  138MOL0     C18533  10.316   0.849   5.943  0.9262  1.6804 -0.0138
  138MOL0     C18534  10.446   0.782   5.915  1.0612 -0.7849  0.4226
  138MOL0     C18535  10.555   0.888   5.881  0.2891 -0.1527 -0.0575
  138MOL0     C18536  10.700   0.825   5.883 -0.2823 -0.7850  0.2490
  138MOL0     C18537  10.816   0.919   5.829 -0.2135  0.2562 -0.0639
  138MOL0     C18538  10.944   0.831   5.821  0.2408  0.3352 -0.8942
  138MOL0    Cl18539  11.087   0.931   5.771  0.2325 -0.6800  0.1944
  138MOL0     C18540   9.876   0.732   5.925  0.6966 -0.0621  0.2554
  138MOL0     C18541   9.740   0.740   5.967  0.4905 -0.0754  0.1954
  138MOL0     O18542   9.460   0.640   5.827 -0.7759 -0.8510  0.3238
  138MOL0     C18543   9.204   0.627   5.943 -0.7928 -0.4096  0.6339
  138MOL0     C18544   9.073   0.637   5.997  0.2117 -0.0799 -0.0663
  138MOL0     N18545   8.399   0.589   6.340 -0.1334 -0.8507 -0.4733
  138MOL0     N18546   8.320   0.689   6.340 -0.4886 -0.6469 -0.0652
  138MOL0     C18547   7.210   0.887   6.034  0.1561  0.3526 -0.7524
  138MOL0     C18548   7.071   0.877   6.052  0.6130  0.5168 -0.3570
  138MOL0     C18549   6.611   1.020   6.120 -0.4502 -0.8347  0.4787
  138MOL0     C18550   6.597   0.887   6.133  0.2548  1.1435 -0.3372
  138MOL0     C18551   6.474   0.820   6.146 -0.0924  0.4963  0.4041
  138MOL0     C18552   6.359   0.899   6.133  1.0528 -0.7187  0.5596
  138MOL0     O18553   6.227   0.869   6.145 -0.4943  0.1369 -0.0814
  138MOL0     C18554   6.191   0.754   6.216  1.0724  0.2070  0.5203
  138MOL0     C18555   6.080   0.673   6.152 -0.1649 -0.8267  0.0056
  138MOL0     C18556   6.027   0.571   6.250  0.9257 -0.4468  0.0016
  138MOL0     C18557   5.938   0.465   6.176  0.4025  0.5833  0.5825
  138MOL0     C18558   5.874   0.384   6.278 -0.4938  0.4097 -0.7395
  138MOL0     C18559   5.826   0.312   6.359 -0.1786  1.3013 -0.5119
  138MOL0     C18560   6.374   1.037   6.129  0.3274 -0.8274  0.2829
  138MOL0     C18561   6.495   1.097   6.108 -0.1919  0.8060  0.2023
  138MOL0     C18562   6.507   1.249   6.089  0.1181  0.3485  0.3304
  138MOL0     H18563   6.999   1.211   6.091  1.8066  1.0421  1.3478
  138MOL0     H18564   7.233   1.228   6.054 -3.7042  1.7810  1.5354
  138MOL0     H18565   7.478   0.880   6.160  0.9236 -1.8670 -0.8917
  138MOL0     H18566   7.494   0.839   5.997  3.0932  0.2026 -0.3518
  138MOL0     H18567   7.658   1.057   6.123  2.2036  0.2385 -0.1649
  138MOL0     H18568   7.648   1.020   5.947  0.9578 -0.7772 -0.3584
  138MOL0     H18569   7.849   0.892   6.038 -2.1081  1.9285 -1.4995
  138MOL0     H18570   7.722   0.771   6.049 -0.6763 -1.0005  1.8614
  138MOL0     H18571   7.796   0.965   6.273 -3.1791  0.7063  2.0328
  138MOL0     H18572   7.669   0.853   6.288 -0.1079 -0.7948 -0.8386
  138MOL0     H18573   7.866   0.737   6.383  0.6937  0.4845  0.5933
  138MOL0     H18574   7.792   0.656   6.242 -0.9352  0.4902  1.3265
  138MOL0     H18575   8.053   0.658   6.287  1.0128 -0.4657  0.3227
  138MOL0     H18576   8.007   0.697   6.122  3.4806  0.4514  0.0703
  138MOL0     H18577   8.095   0.901   6.330 -0.3498 -0.7401 -0.0516
  138MOL0     H18578   8.037   0.944   6.163 -0.5986 -1.6822 -1.8121
  138MOL0     H18579   8.197   0.818   6.053  0.4371  2.1469 -0.8400
  138MOL0     H18580   8.290   0.926   6.157 -0.7224  0.0307  0.2024
  138MOL0     H18581   8.359   0.635   6.022 -3.3095 -0.8675 -0.1639
  138MOL0     H18582   8.529   0.349   6.228 -0.9884 -0.3080 -1.3912
  138MOL0     H18583   8.533   0.440   6.065  0.8537 -0.1242 -0.2747
  138MOL0     H18584   8.689   0.498   6.309 -0.4873  2.2830  0.0437
  138MOL0     H18585   8.751   0.396   6.170 -0.1900  0.0770 -1.5666
  138MOL0     H18586   8.659   0.686   6.150  0.4437  1.3839 -1.1227
  138MOL0     H18587   8.756   0.589   6.036 -1.7206 -1.9350  0.0220
  138MOL0     H18588   8.940   0.588   6.223  2.2199  0.4396 -1.2236
  138MOL0     H18589   8.839   0.700   6.310 -0.2088  2.3247 -1.0159
  138MOL0     H18590   9.105   0.938   6.153  4.5252 -0.4921  0.5810
  138MOL0     H18591   9.335   0.909   6.068  0.7023 -0.2986 -1.7780
  138MOL0     H18592   9.627   0.952   5.713  1.8791 -0.3917 -1.0381
  138MOL0     H18593   9.863   0.945   5.669  1.9307  1.3461  2.4059
  138MOL0     H18594  10.104   0.602   5.831 -3.2464  0.2322 -1.2477
  138MOL0     H18595  10.211   0.705   5.743 -2.1906  0.5464 -0.6502
  138MOL0     H18596  10.133   0.750   6.046  1.1151 -0.8212  0.9763
  138MOL0     H18597  10.255   0.644   5.987  1.3852 -0.1640 -1.8465
  138MOL0     H18598  10.293   0.922   5.865  0.2734  1.9530  0.4223
  138MOL0     H18599  10.314   0.915   6.029 -1.1244  0.1821  1.1939
  138MOL0     H18600  10.429   0.717   5.829 -0.0366 -0.1723  0.1561
  138MOL0     H18601  10.479   0.719   5.999 -1.9213 -0.7986  1.7500
  138MOL0     H18602  10.542   0.981   5.938 -2.9462 -0.1865 -0.5249
  138MOL0     H18603  10.530   0.914   5.778  1.3306  1.1080 -0.0182
  138MOL0     H18604  10.729   0.813   5.987  1.0765 -0.2965 -0.0506
  138MOL0     H18605  10.700   0.729   5.830 -2.0155 -0.8709  0.3271
  138MOL0     H18606  10.835   1.000   5.901 -0.6106  0.9973 -0.7684
  138MOL0     H18607  10.785   0.961   5.733  0.6759 -0.7375 -0.7975
  138MOL0     H18608  10.960   0.785   5.918  2.1918  0.2083 -1.2465
  138MOL0     H18609  10.935   0.749   5.749  1.1840  0.1995 -0.8729
  138MOL0     H18610   9.941   0.669   5.986 -0.4920 -0.3808  1.2224
  138MOL0     H18611   9.701   0.697   6.059 -2.7298  1.1025 -0.4752
  138MOL0     H18612   9.226   0.541   5.881  3.4869  1.3721 -0.6897
  138MOL0     H18613   9.005   0.554   5.981  0.5551 -0.6857  1.4494
  138MOL0     H18614   7.275   0.802   6.018 -0.5245 -0.5132  0.8298
  138MOL0     H18615   7.027   0.779   6.035 -2.7942  1.8175  0.0880
  138MOL0     H18616   6.685   0.826   6.149 -0.7255 -0.6044 -1.2857
  138MOL0     H18617   6.486   0.713   6.160  1.1461  0.7715  1.7186
  138MOL0     H18618   6.151   0.782   6.314 -2.5664 -1.5831 -0.2904
  138MOL0     H18619   6.272   0.682   6.231  1.1104  0.3781  1.1757
  138MOL0     H18620   6.123   0.625   6.064  2.2065 -0.6416  0.9930
  138MOL0     H18621   6.005   0.746   6.120 -3.2328 -2.7996  2.1199
  138MOL0     H18622   5.965   0.628   6.320  3.0307  0.1232  1.5070
  138MOL0     H18623   6.106   0.520   6.306  1.7459 -0.4777 -1.1590
  138MOL0     H18624   5.863   0.522   6.120  2.2358  1.0913 -1.5679
  138MOL0     H18625   5.997   0.419   6.095 -0.8080  1.0980 -0.6300
  138MOL0     H18626   5.773   0.255   6.432 -0.7710  1.9052 -0.4590
  138MOL0     H18627   6.283   1.097   6.135  1.8846  1.7773 -0.5925
  138MOL0     H18628   6.406   1.289   6.074 -1.4641 -2.8188  1.5017
  138MOL0     H18629   6.558   1.302   6.170  0.8828  1.5572 -0.9024
  138MOL0     H18630   6.558   1.276   5.997 -0.1415  0.3391  0.1814
  139MOL0     O18631   9.241   9.409   6.839 -0.1397  0.1422 -0.1516
  139MOL0     C18632   9.168   9.322   6.893  0.1829 -0.4587  1.1641
  139MOL0     O18633   9.215   9.206   6.957 -0.3886 -0.3333  0.2069
  139MOL0     C18634   9.348   9.178   6.968  0.3512  0.5670  0.6582
  139MOL0     C18635   9.465   9.260   6.940  0.1418 -0.1823  0.3019
  139MOL0     C18636   9.592   9.219   6.967  0.1527 -0.0749 -0.1189
  139MOL0     C18637   9.615   9.091   7.012 -0.2946  0.7062 -0.2694
  139MOL0     O18638   9.742   9.043   7.032  0.2468  0.1078 -0.4086
  139MOL0     C18639   9.848   9.137   7.013 -0.4506 -0.5097  0.0991
  139MOL0     C18640   9.993   9.068   7.037 -0.5540  0.0636 -0.3192
  139MOL0     C18641  10.099   9.151   6.961  0.0759 -0.3279 -0.6189
  139MOL0     C18642  10.231   9.065   6.937 -0.3446  1.1173  0.4253
  139MOL0     C18643  10.295   9.082   6.796  0.0593  0.3808  0.8833
  139MOL0     C18644  10.351   9.231   6.766 -1.3633 -0.2818 -0.6494
  139MOL0     C18645  10.477   9.266   6.845 -0.2067 -0.3792 -0.5396
  139MOL0     C18646  10.563   9.380   6.794 -0.7204  1.4174 -0.0838
  139MOL0     N18647  10.685   9.374   6.879  0.5515 -0.7278 -0.4589
  139MOL0     C18648  10.686   9.437   7.001  0.3464  0.2167  0.8356
  139MOL0     C18649  10.806   9.404   7.050  0.1486  0.1704 -0.1563
  139MOL0     C18650  10.871   9.451   7.174  0.3044  0.6664 -0.9518
  139MOL0     C18651  10.914   9.602   7.173 -0.2713  0.3557  0.0978
  139MOL0     C18652  10.981   9.623   7.304  0.0308 -0.2307 -0.4780
  139MOL0     C18653  11.075   9.747   7.302  0.3384  0.3034  0.8152
  139MOL0     O18654  11.154   9.723   7.423 -0.3944 -0.4612  0.7374
  139MOL0     C18655  11.226   9.833   7.473 -0.2732 -0.5166  0.1027
  139MOL0     C18656  11.258   9.823   7.610 -0.0044 -0.4723 -0.4896
  139MOL0     C18657  11.326   9.930   7.670 -0.8320 -0.6747  0.0408
  139MOL0     C18658  11.364  10.044   7.597 -0.8039 -0.4216  0.3300
  139MOL0     C18659  11.445  10.146   7.666 -0.3392 -0.3551  0.0064
  139MOL0     O18660  11.478  10.254   7.587  0.0226  0.2194  0.0005
  139MOL0     C18661  11.563  10.343   7.649  0.0343 -0.0833 -0.0401
  139MOL0     C18662  11.534  10.424   7.761 -0.6927 -0.2864 -0.0317
  139MOL0     C18663  11.634  10.515   7.804  0.4972  0.3618  0.2945
  139MOL0     C18664  11.761  10.520   7.742  0.1135  0.1573 -0.4031
  139MOL0     O18665  11.867  10.588   7.796  0.5427 -0.0576  0.6502
  139MOL0     C18666  11.876  10.581   7.937 -0.0207  0.2233  0.3008
  139MOL0     C18667  12.022  10.615   7.978  0.6034  0.0785  0.3305
  139MOL0     C18668  12.058  10.761   7.943  0.6374  0.4985  0.3896
  139MOL0     C18669  12.209  10.798   7.917  0.1800  0.2007 -0.0372
  139MOL0     C18670  12.300  10.747   8.027  0.3983 -0.0980 -0.1504
  139MOL0     C18671  12.441  10.774   7.986 -0.5280  0.1085 -0.4919
  139MOL0     C18672  12.544  10.719   8.094 -0.8122  0.3688 -0.0453
  139MOL0     C18673  12.690  10.766   8.077 -0.4847  0.6195 -0.0024
  139MOL0    Cl18674  12.806  10.675   8.184 -0.0204  0.0715  0.3721
  139MOL0     C18675  11.789  10.434   7.638 -0.4431 -0.3528 -0.4064
  139MOL0     C18676  11.687  10.356   7.585  0.0437 -0.4884 -0.3801
  139MOL0     O18677  11.488  10.122   7.780  0.0714 -0.2387  0.1017
  139MOL0     C18678  11.325  10.060   7.460  0.3148  0.2873  0.2636
  139MOL0     C18679  11.254   9.953   7.398  0.2546  0.2378  0.9200
  139MOL0     N18680  10.877   9.326   6.952  0.7976 -0.2585 -0.0622
  139MOL0     N18681  10.801   9.313   6.850  0.8249 -0.4926  1.2291
  139MOL0     C18682   9.509   9.001   7.027 -0.5369  0.3000  0.1239
  139MOL0     C18683   9.378   9.047   7.010 -0.4641  0.5792 -0.5367
  139MOL0     C18684   9.031   9.323   6.856 -0.3496  0.6265 -0.3719
  139MOL0     C18685   8.968   9.197   6.835  0.3461  0.2636 -0.0627
  139MOL0     C18686   8.838   9.179   6.795  0.1783 -0.5854 -0.0632
  139MOL0     C18687   8.756   9.294   6.785  0.0086 -0.6754  0.7856
  139MOL0     O18688   8.623   9.286   6.738 -0.7495  0.2983 -0.7460
  139MOL0     C18689   8.530   9.239   6.839 -0.3329  0.6100  0.7019
  139MOL0     C18690   8.428   9.161   6.765 -0.4270  0.5633 -0.1329
  139MOL0     C18691   8.465   9.015   6.748  0.0740 -0.3021  0.0298
  139MOL0     C18692   8.352   8.934   6.665  0.1204  0.3590 -0.6509
  139MOL0     C18693   8.358   8.788   6.676 -0.6090 -0.0476  0.1996
  139MOL0     C18694   8.350   8.666   6.697 -0.8465  0.0821 -0.8366
  139MOL0     C18695   8.816   9.419   6.800  0.5988  0.6503  0.0195
  139MOL0     C18696   8.946   9.436   6.835  0.1938 -0.2894 -0.0841
  139MOL0     C18697   9.002   9.574   6.859  0.3120 -0.5509  0.1498
  139MOL0     H18698   9.452   9.358   6.896  4.3084  0.4916  0.1894
  139MOL0     H18699   9.669   9.292   6.944  1.0379 -1.3425 -1.3276
  139MOL0     H18700   9.842   9.182   6.914 -0.3933 -2.7883 -1.0012
  139MOL0     H18701   9.845   9.221   7.084  1.5085 -0.2692 -0.0652
  139MOL0     H18702   9.998   8.964   7.001  2.3454  0.6272 -1.8725
  139MOL0     H18703  10.017   9.072   7.143  0.3528 -2.5830 -0.3485
  139MOL0     H18704  10.120   9.248   7.007 -1.2363 -0.8945  1.3128
  139MOL0     H18705  10.058   9.184   6.865  1.5508  4.2152  0.0691
  139MOL0     H18706  10.317   9.098   6.997 -0.1492 -0.6801  1.1853
  139MOL0     H18707  10.200   8.963   6.959  1.0961  0.5215 -0.1248
  139MOL0     H18708  10.382   9.017   6.786  1.6364  1.8750  3.8180
  139MOL0     H18709  10.225   9.060   6.714  1.9348  1.3724 -1.0757
  139MOL0     H18710  10.383   9.237   6.661 -2.2121 -0.2399 -0.9102
  139MOL0     H18711  10.277   9.310   6.784 -1.9769 -1.3601  2.0929
  139MOL0     H18712  10.545   9.180   6.842 -1.9741 -1.8263 -0.9103
  139MOL0     H18713  10.440   9.287   6.946 -1.6633 -3.1521 -0.3818
  139MOL0     H18714  10.574   9.384   6.685  0.6437  2.4205  0.0574
  139MOL0     H18715  10.508   9.474   6.804 -0.0930  1.7539  0.2340
  139MOL0     H18716  10.602   9.488   7.048  0.8413  0.7171  1.1805
  139MOL0     H18717  10.802   9.424   7.254 -2.1274 -0.5719 -3.3171
  139MOL0     H18718  10.956   9.390   7.208  1.4249  2.9361  0.6446
  139MOL0     H18719  10.988   9.617   7.094  0.6152 -1.8689  0.4183
  139MOL0     H18720  10.825   9.659   7.147  0.5439  1.2335 -0.8515
  139MOL0     H18721  11.025   9.531   7.345 -0.6110 -1.1376 -1.7532
  139MOL0     H18722  10.898   9.644   7.372 -0.9503 -1.2466 -1.3070
  139MOL0     H18723  11.017   9.840   7.312 -1.0636 -0.5326  0.6570
  139MOL0     H18724  11.140   9.755   7.214 -1.1064 -2.8683 -0.6647
  139MOL0     H18725  11.242   9.731   7.666 -0.0229  1.0174  2.0804
  139MOL0     H18726  11.349   9.928   7.776  2.8591 -5.1590 -0.4762
  139MOL0     H18727  11.440  10.420   7.816 -0.1506  3.3957  1.4720
  139MOL0     H18728  11.605  10.583   7.883 -0.3130 -1.1437  1.3513
  139MOL0     H18729  11.808  10.658   7.976  1.4148  2.2258 -0.9289
  139MOL0     H18730  11.848  10.481   7.971 -0.0766  0.1228 -0.0380
  139MOL0     H18731  12.048  10.596   8.082 -0.5197  3.1733  1.2649
  139MOL0     H18732  12.090  10.552   7.920 -0.7914 -2.0228  0.8443
  139MOL0     H18733  12.013  10.790   7.848  0.8346 -2.1386 -0.5817
  139MOL0     H18734  12.027  10.829   8.023  1.9824  2.8305 -0.9376
  139MOL0     H18735  12.216  10.905   7.896 -1.6973  0.1488 -1.0819
  139MOL0     H18736  12.244  10.750   7.826  0.1856 -0.7892  0.4732
  139MOL0     H18737  12.283  10.641   8.049  0.7886 -0.3309 -0.9468
  139MOL0     H18738  12.290  10.793   8.126 -1.3490 -0.5301 -0.1062
  139MOL0     H18739  12.465  10.724   7.892  0.1618  2.0526 -1.4110
  139MOL0     H18740  12.470  10.879   7.983  0.5145 -0.1458  0.2166
  139MOL0     H18741  12.540  10.610   8.086 -0.7266  0.4538 -1.8690
  139MOL0     H18742  12.512  10.738   8.196  0.1308 -1.9075  0.7215
  139MOL0     H18743  12.711  10.744   7.972 -1.5271 -1.3439  0.1511
  139MOL0     H18744  12.711  10.872   8.091  0.9270  0.2669  0.7288
  139MOL0     H18745  11.886  10.424   7.591 -2.0064 -2.3477 -3.5894
  139MOL0     H18746  11.710  10.293   7.500  1.1984 -1.3485  0.5283
  139MOL0     H18747  11.335  10.152   7.405 -0.9669  1.3353  1.6991
  139MOL0     H18748  11.214   9.970   7.298  5.4329 -1.9792 -1.9560
  139MOL0     H18749   9.526   8.898   7.056  2.3503  1.2845  2.4568
  139MOL0     H18750   9.290   8.986   7.030  0.1742 -0.2933 -0.3299
  139MOL0     H18751   9.023   9.103   6.842  0.9855  0.4974 -1.6379
  139MOL0     H18752   8.797   9.081   6.773  0.4222 -0.2356 -2.2648
  139MOL0     H18753   8.490   9.327   6.892 -3.4299 -1.4549  2.0413
  139MOL0     H18754   8.569   9.172   6.916 -1.1965  0.6757  1.2140
  139MOL0     H18755   8.396   9.210   6.673  0.9251 -0.2130 -1.0508
  139MOL0     H18756   8.347   9.168   6.838  0.4084  0.6097  0.8177
  139MOL0     H18757   8.495   8.968   6.843 -0.1528  1.1197  0.8296
  139MOL0     H18758   8.553   9.012   6.683 -1.2612 -4.6942 -1.9791
  139MOL0     H18759   8.257   8.959   6.715 -0.4752 -0.5028 -1.3330
  139MOL0     H18760   8.353   8.967   6.561 -2.7563 -0.2301 -0.9633
  139MOL0     H18761   8.326   8.561   6.702  3.1800 -1.1107 -2.3925
  139MOL0     H18762   8.755   9.507   6.784  0.3206  0.6169  0.8581
  139MOL0     H18763   9.096   9.595   6.806  0.7847 -0.0030  1.1797
  139MOL0     H18764   8.938   9.657   6.827  1.3005  2.0352  4.1450
  139MOL0     H18765   9.032   9.599   6.961  0.8555  1.7074 -0.4936
  140MOL0     O18766   1.903   6.660   3.644 -0.2487 -0.0519  0.1044
  140MOL0     C18767   1.895   6.779   3.671 -1.0711 -0.2332  0.8978
  140MOL0     O18768   1.999   6.858   3.681 -0.3451  0.0673 -0.5520
  140MOL0     C18769   2.118   6.789   3.655  0.5401 -0.1347  0.2424
  140MOL0     C18770   2.144   6.745   3.523  0.3320  0.4014  0.3194
  140MOL0     C18771   2.259   6.664   3.503 -0.1044 -0.3137 -0.5532
  140MOL0     C18772   2.338   6.629   3.613 -0.2274 -0.3964  0.4376
  140MOL0     O18773   2.458   6.562   3.599 -0.2664 -0.1425 -0.7940
  140MOL0     C18774   2.471   6.470   3.489 -0.6665 -0.4902  0.4080
  140MOL0     C18775   2.545   6.351   3.544  0.5134  0.0852  0.8904
  140MOL0     C18776   2.688   6.390   3.593  1.0954  0.1064  0.3758
  140MOL0     C18777   2.779   6.273   3.615 -0.8477 -0.5827  0.3876
  140MOL0     C18778   2.926   6.320   3.630 -0.1184  0.0171 -0.0395
  140MOL0     C18779   2.951   6.435   3.735 -0.8970 -0.2175 -0.3097
  140MOL0     C18780   3.091   6.489   3.711 -1.2688  0.0887  0.1423
  140MOL0     C18781   3.115   6.596   3.598 -0.2332 -0.2044 -0.0362
  140MOL0     N18782   3.044   6.719   3.614 -0.5365  0.2162  0.1678
  140MOL0     C18783   2.913   6.736   3.598  0.4376  0.3190  0.8084
  140MOL0     C18784   2.881   6.858   3.644  0.3347  0.2646  0.0078
  140MOL0     C18785   2.745   6.913   3.682  0.1676 -0.3328 -0.0681
  140MOL0     C18786   2.713   6.867   3.822  0.0818  0.2733 -0.0985
  140MOL0     C18787   2.661   6.970   3.916  0.2574 -0.5052 -0.1841
  140MOL0     C18788   2.516   7.013   3.881 -0.1746 -0.3991  0.0347
  140MOL0     O18789   2.481   7.108   3.979 -0.0064  0.0547 -0.5814
  140MOL0     C18790   2.360   7.175   3.957  0.8313  0.4548 -0.2273
  140MOL0     C18791   2.310   7.265   4.048  0.2560  0.3090  0.4712
  140MOL0     C18792   2.174   7.305   4.052  0.0078 -0.2159  0.3708
  140MOL0     C18793   2.087   7.266   3.949  0.2305  0.6443 -0.9436
  140MOL0     C18794   1.940   7.284   3.977 -0.2263 -0.3571 -0.1949
  140MOL0     O18795   1.903   7.338   4.100  0.7402 -0.7920 -0.7746
  140MOL0     C18796   1.767   7.342   4.136 -0.3770 -0.0778 -0.4977
  140MOL0     C18797   1.695   7.459   4.188 -0.1561  0.9282  0.4316
  140MOL0     C18798   1.562   7.435   4.231  0.1604  0.7185 -0.6944
  140MOL0     C18799   1.505   7.318   4.253 -0.3345 -0.5772  0.1131
  140MOL0     O18800   1.377   7.301   4.293 -0.4421  0.0314 -0.0115
  140MOL0     C18801   1.327   7.379   4.403  0.8617 -0.5654 -0.4493
  140MOL0     C18802   1.209   7.318   4.482 -0.4247 -0.6729 -0.9198
  140MOL0     C18803   1.067   7.334   4.424 -0.7294  0.5444 -0.9062
  140MOL0     C18804   0.964   7.271   4.508 -0.6570 -0.4460  0.3916
  140MOL0     C18805   0.827   7.296   4.453 -0.1572 -0.0092 -0.4341
  140MOL0     C18806   0.746   7.165   4.422 -0.6315  0.6027 -0.1761
  140MOL0     C18807   0.620   7.206   4.351 -0.0264 -0.6397 -0.4280
  140MOL0     C18808   0.542   7.082   4.305  0.3901  0.8252 -0.9283
  140MOL0    Cl18809   0.516   6.947   4.419 -0.1285 -0.1466 -0.0768
  140MOL0     C18810   1.575   7.208   4.212 -0.4847  0.2411 -0.0413
  140MOL0     C18811   1.700   7.214   4.154  0.1344 -0.1092 -0.1319
  140MOL0     O18812   1.864   7.243   3.894 -0.7444 -0.4558  0.3682
  140MOL0     C18813   2.139   7.180   3.850  0.1365 -0.3344 -0.2040
  140MOL0     C18814   2.273   7.145   3.850 -1.1057  0.8819  0.0846
  140MOL0     N18815   3.002   6.920   3.684 -0.2474 -0.3462  0.3421
  140MOL0     N18816   3.097   6.833   3.662  0.0972  0.1734  0.4372
  140MOL0     C18817   2.307   6.679   3.733  0.8216  0.7864 -0.6248
  140MOL0     C18818   2.193   6.749   3.760  0.7196  0.5977 -0.1232
  140MOL0     C18819   1.771   6.836   3.710 -0.7596  0.8155  1.1842
  140MOL0     C18820   1.770   6.934   3.809  0.0026 -0.3702 -0.2027
  140MOL0     C18821   1.648   6.984   3.860  0.2505 -0.0317  1.0003
  140MOL0     C18822   1.527   6.943   3.812 -0.2684 -1.5832  0.7771
  140MOL0     O18823   1.418   6.998   3.869  0.3697 -0.5228 -0.1960
  140MOL0     C18824   1.286   6.946   3.842 -0.0593 -0.5359  1.1607
  140MOL0     C18825   1.188   7.007   3.934  0.1496 -0.5281 -0.2433
  140MOL0     C18826   1.246   7.018   4.080  0.8768 -0.2780  0.5841
  140MOL0     C18827   1.146   7.043   4.196 -0.2461  0.1260 -0.0412
  140MOL0     C18828   1.030   6.949   4.203  0.0288  1.1055 -0.3047
  140MOL0     C18829   0.940   6.874   4.220 -0.1728  0.4347  0.7171
  140MOL0     C18830   1.528   6.857   3.701  0.0074 -0.0311 -0.7542
  140MOL0     C18831   1.643   6.800   3.654 -0.0670  0.6544  0.6282
  140MOL0     C18832   1.644   6.728   3.527  1.1765  0.4947 -0.1430
  140MOL0     H18833   2.093   6.786   3.437  0.5294  1.3273  0.6332
  140MOL0     H18834   2.284   6.622   3.406  2.5779 -0.4646  0.1406
  140MOL0     H18835   2.370   6.439   3.460 -0.1835 -0.1637 -1.7472
  140MOL0     H18836   2.528   6.517   3.409  0.4573 -1.1637  0.8007
  140MOL0     H18837   2.552   6.278   3.463 -1.6735 -1.8688  2.3410
  140MOL0     H18838   2.497   6.302   3.629  1.3863 -0.7547  0.9190
  140MOL0     H18839   2.672   6.434   3.692  0.9599  0.1261  0.3462
  140MOL0     H18840   2.733   6.452   3.515 -0.6331  1.4245  0.3526
  140MOL0     H18841   2.755   6.215   3.705 -0.0555 -2.8607 -0.7809
  140MOL0     H18842   2.773   6.203   3.531 -0.5060 -1.5690  1.1615
  140MOL0     H18843   2.990   6.236   3.659  2.9506  2.0343 -0.4632
  140MOL0     H18844   2.974   6.349   3.535  1.7163 -0.2335  0.7696
  140MOL0     H18845   2.867   6.506   3.733 -1.8608 -1.3222 -0.2967
  140MOL0     H18846   2.953   6.401   3.839  0.4826  2.7892  0.7792
  140MOL0     H18847   3.162   6.407   3.692 -1.2661  0.0191  0.4553
  140MOL0     H18848   3.129   6.526   3.807  0.7079 -1.4422  0.0177
  140MOL0     H18849   3.223   6.607   3.587 -0.0197 -2.6253 -1.0191
  140MOL0     H18850   3.074   6.553   3.506 -2.3070  0.3879  0.5440
  140MOL0     H18851   2.837   6.663   3.571  0.0503  0.8802  0.3450
  140MOL0     H18852   2.754   7.022   3.681 -1.1456 -0.1574  2.1517
  140MOL0     H18853   2.661   6.873   3.624 -1.0477  0.1907  1.2987
  140MOL0     H18854   2.636   6.791   3.806 -1.6977  2.0511 -0.3911
  140MOL0     H18855   2.796   6.818   3.873 -0.2533  0.2842  0.4666
  140MOL0     H18856   2.718   7.063   3.916 -1.1257  0.3588 -0.2694
  140MOL0     H18857   2.667   6.931   4.018 -2.6075 -2.1440 -0.5401
  140MOL0     H18858   2.440   6.934   3.876 -1.0979  0.3982  0.9214
  140MOL0     H18859   2.523   7.068   3.787  0.6504  3.0322  1.9453
  140MOL0     H18860   2.371   7.292   4.134 -1.2035  2.1318  1.0159
  140MOL0     H18861   2.131   7.350   4.140  0.1017 -1.8700  1.3112
  140MOL0     H18862   1.740   7.557   4.189 -1.6793  1.6690 -0.3084
  140MOL0     H18863   1.507   7.526   4.253  0.5315  1.7211 -3.5558
  140MOL0     H18864   1.404   7.392   4.479 -1.6707  4.6311  1.6969
  140MOL0     H18865   1.304   7.482   4.376 -1.9336 -1.1109 -0.4287
  140MOL0     H18866   1.226   7.214   4.513  0.3853  0.8738  5.0085
  140MOL0     H18867   1.197   7.372   4.576 -0.0606 -2.9755  0.5497
  140MOL0     H18868   1.050   7.442   4.418 -1.0158  0.7271  1.7458
  140MOL0     H18869   1.064   7.291   4.324  1.8618  1.0478 -1.2783
  140MOL0     H18870   0.968   7.313   4.609  1.0756 -4.0893  2.0248
  140MOL0     H18871   0.977   7.162   4.502 -0.0227 -0.4261  1.2298
  140MOL0     H18872   0.836   7.347   4.356  1.6677  1.2020  0.3148
  140MOL0     H18873   0.776   7.352   4.532  1.4323 -0.7189  1.1610
  140MOL0     H18874   0.810   7.114   4.350 -0.2211  0.2645  0.4223
  140MOL0     H18875   0.729   7.117   4.518  3.4541 -2.0827 -0.5613
  140MOL0     H18876   0.632   7.273   4.265 -0.8930 -0.9289 -0.7939
  140MOL0     H18877   0.548   7.259   4.414  2.7883  1.0919  1.5727
  140MOL0     H18878   0.447   7.097   4.253  0.0311  0.0547 -0.5110
  140MOL0     H18879   0.606   7.041   4.226  1.9332  2.0707 -0.3846
  140MOL0     H18880   1.527   7.111   4.216 -2.3610  1.1352 -0.1643
  140MOL0     H18881   1.737   7.119   4.114 -3.1600 -2.0488  1.0486
  140MOL0     H18882   2.079   7.164   3.761  0.3056  1.2477 -0.6418
  140MOL0     H18883   2.317   7.100   3.762 -1.2353 -1.5984  1.2107
  140MOL0     H18884   2.374   6.659   3.817  0.9427  0.2363 -0.8486
  140MOL0     H18885   2.173   6.793   3.857  0.8504  0.3894 -0.0034
  140MOL0     H18886   1.860   6.979   3.848  0.0886 -1.1190  0.4844
  140MOL0     H18887   1.657   7.042   3.952 -0.2176  1.4530  0.1369
  140MOL0     H18888   1.282   6.838   3.853 -2.2778 -0.4112  2.1309
  140MOL0     H18889   1.255   6.972   3.741  0.3841  0.9271  1.3775
  140MOL0     H18890   1.098   6.945   3.934 -0.0070 -0.4015  2.2569
  140MOL0     H18891   1.170   7.109   3.898  2.5121  1.0068  2.4564
  140MOL0     H18892   1.308   7.108   4.069 -2.0862  1.7834 -0.5653
  140MOL0     H18893   1.309   6.933   4.106 -0.1793 -0.4687  2.6856
  140MOL0     H18894   1.201   7.045   4.291  2.1933 -0.8146 -1.3580
  140MOL0     H18895   1.106   7.143   4.182  0.9137  0.6259  0.0857
  140MOL0     H18896   0.858   6.815   4.255 -0.0912  1.3056  2.5123
  140MOL0     H18897   1.434   6.837   3.652 -1.3926 -1.0291  2.0736
  140MOL0     H18898   1.609   6.626   3.547 -1.7483  1.5183  0.4646
  140MOL0     H18899   1.579   6.770   3.450 -3.6139 -1.6791  2.2881
  140MOL0     H18900   1.738   6.717   3.472 -1.5041  0.2595 -5.2288
  141MOL0     O18901   0.116   1.065   4.034 -0.1934  0.2628  0.2500
  141MOL0     C18902   0.107   0.954   3.989  0.2784  0.3827 -0.5075
  141MOL0     O18903   0.206   0.862   3.984  0.2307  0.0393  0.4357
  141MOL0     C18904   0.333   0.895   4.015 -0.2913  0.1808 -0.6813
  141MOL0     C18905   0.404   1.003   3.976  0.3861 -0.4322  1.2516
  141MOL0     C18906   0.535   1.028   4.021 -0.1920  0.1211 -1.1697
  141MOL0     C18907   0.596   0.945   4.118  0.4088 -0.5153  0.2104
  141MOL0     O18908   0.723   0.984   4.144 -0.2945  0.1551 -0.1730
  141MOL0     C18909   0.804   0.875   4.176  0.3301  0.7183 -0.0206
  141MOL0     C18910   0.943   0.915   4.193  0.1429  0.4931  0.5776
  141MOL0     C18911   1.022   0.808   4.264 -0.2942  0.3452  0.0974
  141MOL0     C18912   1.178   0.809   4.246 -0.2157 -0.5132 -0.4320
  141MOL0     C18913   1.233   0.698   4.330 -1.7268 -0.9828 -0.7508
  141MOL0     C18914   1.392   0.691   4.330  0.5374  0.9203  0.0938
  141MOL0     C18915   1.452   0.572   4.412 -0.4133  0.1264 -0.1753
  141MOL0     C18916   1.601   0.589   4.449  0.5912  0.4601 -0.9348
  141MOL0     N18917   1.659   0.463   4.510  0.7964 -1.1840 -0.1290
  141MOL0     C18918   1.628   0.404   4.620 -0.3196  0.5692 -0.3653
  141MOL0     C18919   1.693   0.287   4.611  0.4605 -0.6226 -0.0179
  141MOL0     C18920   1.691   0.182   4.720  0.7982  0.8430  0.9938
  141MOL0     C18921   1.829   0.149   4.785 -0.2406 -1.2805  1.3589
  141MOL0     C18922   1.821   0.022   4.873  0.1476  0.4877 -0.1162
  141MOL0     C18923   1.830  -0.107   4.788 -0.5045 -0.4009 -0.7461
  141MOL0     O18924   1.874  -0.228   4.852  0.5795 -0.5735 -0.5081
  141MOL0     C18925   1.995  -0.249   4.902  0.4877 -0.3987  0.4947
  141MOL0     C18926   2.112  -0.186   4.855  0.1987  0.3031 -0.3681
  141MOL0     C18927   2.238  -0.219   4.897 -0.3652  0.1164 -0.0303
  141MOL0     C18928   2.249  -0.315   5.000 -0.6097 -0.1973  0.2560
  141MOL0     C18929   2.386  -0.344   5.048  0.1146  0.5165  0.0755
  141MOL0     O18930   2.473  -0.238   5.047  0.2678 -0.4511  0.2050
  141MOL0     C18931   2.604  -0.244   5.089 -0.2603 -0.4734  0.1159
  141MOL0     C18932   2.708  -0.214   5.000 -0.3461  0.2526  0.1003
  141MOL0     C18933   2.835  -0.206   5.044 -0.7628 -0.4665 -0.5221
  141MOL0     C18934   2.876  -0.244   5.180 -0.0855 -0.4569 -0.2773
  141MOL0     O18935   3.008  -0.211   5.225  0.4241  0.1425  0.2986
  141MOL0     C18936   3.043  -0.220   5.364  0.1393 -1.6710  0.3304
  141MOL0     C18937   3.190  -0.184   5.364  0.4458  0.3144 -0.6270
  141MOL0     C18938   3.238  -0.159   5.505  1.3794 -0.2601 -0.0400
  141MOL0     C18939   3.386  -0.163   5.509  0.2168 -0.7820  0.6117
  141MOL0     C18940   3.440  -0.026   5.461  0.0335  0.4622  1.3371
  141MOL0     C18941   3.470   0.063   5.577  0.1563  0.3571  0.2334
  141MOL0     C18942   3.474   0.209   5.531 -0.8745 -0.2937  0.5450
  141MOL0     C18943   3.520   0.309   5.648 -0.5270  0.6982 -0.2398
  141MOL0    Cl18944   3.498   0.471   5.581 -0.1088 -0.6256 -0.3666
  141MOL0     C18945   2.776  -0.298   5.263  0.1910  0.4867  0.4956
  141MOL0     C18946   2.636  -0.295   5.217  0.0909  0.3062  0.9141
  141MOL0     O18947   2.415  -0.459   5.073  0.3360  1.0617 -0.8527
  141MOL0     C18948   2.132  -0.372   5.052  0.5387  0.3268 -0.1379
  141MOL0     C18949   2.005  -0.341   5.005  0.6774 -0.1291  0.2551
  141MOL0     N18950   1.756   0.275   4.495  0.8496  0.3649  0.0341
  141MOL0     N18951   1.742   0.386   4.431  1.2523 -0.1358  0.5002
  141MOL0     C18952   0.527   0.832   4.160 -0.2945  0.1729 -0.1059
  141MOL0     C18953   0.394   0.801   4.104 -0.4249 -1.1680 -0.3592
  141MOL0     C18954  -0.034   0.912   3.958  0.2116  0.8990  0.5572
  141MOL0     C18955  -0.050   0.777   3.923 -0.3526 -0.2335  0.9090
  141MOL0     C18956  -0.179   0.739   3.874  0.4868  0.1256 -0.4414
  141MOL0     C18957  -0.290   0.817   3.862  0.0938 -0.1021  0.2082
  141MOL0     O18958  -0.405   0.760   3.824  0.2160 -0.2046  0.7428
  141MOL0     C18959  -0.526   0.839   3.830 -0.6722 -0.8183 -0.2644
  141MOL0     C18960  -0.562   0.912   3.710 -0.1075 -0.5944 -0.9129
  141MOL0     C18961  -0.702   0.975   3.737 -0.1442 -0.0724  0.8723
  141MOL0     C18962  -0.792   0.979   3.612 -1.0044 -0.5928 -0.2218
  141MOL0     C18963  -0.925   1.021   3.664 -0.0594  1.4960  0.6708
  141MOL0     C18964  -1.037   1.044   3.700 -0.2429 -0.0809 -0.7587
  141MOL0     C18965  -0.266   0.957   3.885 -0.2121  0.3637 -0.0010
  141MOL0     C18966  -0.138   1.010   3.932  0.0156  0.8127  0.1866
  141MOL0     C18967  -0.137   1.166   3.965 -0.4389  0.6182  0.0060
  141MOL0     H18968   0.359   1.067   3.902  0.7322 -0.5370  0.9473
  141MOL0     H18969   0.590   1.119   4.002  2.4918 -0.7283  1.5551
  141MOL0     H18970   0.762   0.833   4.268 -0.7156  0.7985 -0.4364
  141MOL0     H18971   0.793   0.802   4.095 -0.4179 -0.2485  0.9117
  141MOL0     H18972   0.947   1.008   4.252  0.2886  0.1448  1.1227
  141MOL0     H18973   0.983   0.927   4.092  0.7358  0.2391  0.7785
  141MOL0     H18974   0.977   0.712   4.234 -1.4756  0.9793 -0.2299
  141MOL0     H18975   0.984   0.819   4.366 -3.9908 -3.9279 -0.4991
  141MOL0     H18976   1.219   0.803   4.145  2.5252  0.0435  0.5607
  141MOL0     H18977   1.200   0.913   4.274 -3.3759  0.4061 -0.9089
  141MOL0     H18978   1.191   0.715   4.429 -1.7869  1.8014 -1.1978
  141MOL0     H18979   1.197   0.609   4.276 -1.0752 -2.6674  1.4173
  141MOL0     H18980   1.418   0.687   4.224 -0.9547  2.4883 -0.3749
  141MOL0     H18981   1.438   0.784   4.363  3.3177  1.0518 -3.5394
  141MOL0     H18982   1.434   0.480   4.356  1.8890  0.2507 -1.2068
  141MOL0     H18983   1.404   0.566   4.511  0.6410 -2.3484  0.2641
  141MOL0     H18984   1.657   0.605   4.357  0.0921 -0.3148 -1.3832
  141MOL0     H18985   1.609   0.676   4.516  0.7608 -1.2508  1.3659
  141MOL0     H18986   1.585   0.438   4.713 -1.7875  0.0067 -0.8216
  141MOL0     H18987   1.619   0.207   4.798  0.6852  1.6652  0.6360
  141MOL0     H18988   1.659   0.085   4.683  0.0583  0.9619  1.3178
  141MOL0     H18989   1.908   0.150   4.708 -1.1665  2.0529  0.3044
  141MOL0     H18990   1.856   0.221   4.863  0.4891  0.7076 -0.6253
  141MOL0     H18991   1.726   0.014   4.926  0.4940 -1.8253  0.2540
  141MOL0     H18992   1.892   0.022   4.957 -0.9986  1.2809  0.8832
  141MOL0     H18993   1.888  -0.099   4.696 -1.4278 -3.1155 -1.6823
  141MOL0     H18994   1.729  -0.125   4.748 -0.5202 -0.4375 -0.6901
  141MOL0     H18995   2.110  -0.111   4.777 -2.2458  0.0176 -0.6350
  141MOL0     H18996   2.323  -0.168   4.854 -2.9399  1.6321 -3.8303
  141MOL0     H18997   2.685  -0.170   4.903  3.6401 -0.0783 -1.1642
  141MOL0     H18998   2.909  -0.171   4.973  1.0745  1.0642  1.9700
  141MOL0     H18999   2.980  -0.154   5.425 -0.8472 -1.0960 -1.2487
  141MOL0     H19000   3.029  -0.325   5.391 -0.8252 -1.5670  0.2866
  141MOL0     H19001   3.255  -0.261   5.321  0.0803 -1.6796  2.1028
  141MOL0     H19002   3.217  -0.094   5.307 -1.0265 -0.5719 -2.8385
  141MOL0     H19003   3.203  -0.062   5.542 -0.4558 -0.8402 -0.1905
  141MOL0     H19004   3.199  -0.231   5.578 -0.7309  0.6668 -0.1869
  141MOL0     H19005   3.429  -0.241   5.446  1.3063  0.7922 -0.6879
  141MOL0     H19006   3.411  -0.180   5.614 -3.5591 -2.5832  1.3783
  141MOL0     H19007   3.361   0.024   5.405 -0.7022  0.3635  2.2513
  141MOL0     H19008   3.532  -0.035   5.403 -1.3697 -2.7532 -0.6932
  141MOL0     H19009   3.390   0.047   5.651  0.5656  3.2924  1.4489
  141MOL0     H19010   3.555   0.036   5.640 -0.7130 -0.2540  1.1744
  141MOL0     H19011   3.370   0.226   5.500 -0.9019  1.3870  1.4130
  141MOL0     H19012   3.536   0.225   5.442  0.4347  3.1764  1.8884
  141MOL0     H19013   3.462   0.306   5.741 -1.3559 -2.3371 -0.7591
  141MOL0     H19014   3.624   0.294   5.678 -1.2414 -0.7617  1.6688
  141MOL0     H19015   2.796  -0.336   5.363  0.1466 -0.1784  0.2594
  141MOL0     H19016   2.552  -0.313   5.284 -1.5161  1.1103 -0.7853
  141MOL0     H19017   2.143  -0.433   5.141  0.3855  0.4385 -0.0421
  141MOL0     H19018   1.918  -0.390   5.048  0.7630 -0.5212 -0.0150
  141MOL0     H19019   0.559   0.756   4.231 -1.1990 -0.5019 -0.3936
  141MOL0     H19020   0.334   0.715   4.133 -2.4130  0.9683  2.4957
  141MOL0     H19021   0.023   0.697   3.921 -1.1724 -1.2524 -4.3063
  141MOL0     H19022  -0.206   0.635   3.862  0.7320 -0.4156  2.8388
  141MOL0     H19023  -0.513   0.916   3.906  2.5143 -1.1672 -0.2925
  141MOL0     H19024  -0.603   0.771   3.866  1.3385 -2.1132  1.8862
  141MOL0     H19025  -0.563   0.852   3.619 -1.5600  0.7954 -1.8815
  141MOL0     H19026  -0.478   0.982   3.712  0.3817 -1.1968  0.0740
  141MOL0     H19027  -0.692   1.075   3.781  1.1407 -0.6216  1.8854
  141MOL0     H19028  -0.764   0.920   3.808  1.0006 -0.0202  1.9464
  141MOL0     H19029  -0.760   1.063   3.549 -0.0819 -1.9834 -1.6898
  141MOL0     H19030  -0.778   0.881   3.566  0.3029 -1.7425  2.4114
  141MOL0     H19031  -1.137   1.068   3.729 -0.7313 -3.1793  0.6004
  141MOL0     H19032  -0.343   1.033   3.881  1.1778  1.8583  0.5192
  141MOL0     H19033  -0.144   1.188   4.072  1.1320 -0.9759  0.4872
  141MOL0     H19034  -0.039   1.199   3.928  0.1612 -0.8533  0.2021
  141MOL0     H19035  -0.215   1.218   3.909 -0.4556 -0.0690 -0.6209
  142MOL0     O19036   6.911   7.809   9.272 -0.0559  0.2708 -0.4328
  142MOL0     C19037   6.824   7.889   9.283  0.5155 -0.1882  0.3211
  142MOL0     O19038   6.823   8.014   9.226 -0.1355 -0.0555  0.8984
  142MOL0     C19039   6.931   8.045   9.148 -0.4067  0.0544  0.0842
  142MOL0     C19040   6.941   7.995   9.022  1.2189  0.2466  0.0928
  142MOL0     C19041   7.042   8.034   8.932  0.7623  0.3767 -0.0212
  142MOL0     C19042   7.149   8.108   8.981 -0.6915  0.8032 -0.4698
  142MOL0     O19043   7.263   8.117   8.907 -0.2999  0.4387  0.5193
  142MOL0     C19044   7.373   8.204   8.951 -0.2909 -0.4664  0.8648
  142MOL0     C19045   7.481   8.234   8.844  0.5307  0.1383  0.1618
  142MOL0     C19046   7.427   8.328   8.741 -0.1015 -0.5938  0.0471
  142MOL0     C19047   7.531   8.406   8.651 -0.0830 -0.7655 -0.5073
  142MOL0     C19048   7.586   8.321   8.542  0.1989 -0.4856 -0.1318
  142MOL0     C19049   7.720   8.247   8.567  0.2448 -0.5329 -0.4534
  142MOL0     C19050   7.838   8.348   8.594 -0.3848 -0.2454 -0.4734
  142MOL0     C19051   7.971   8.268   8.597 -0.3267  1.0844 -0.3791
  142MOL0     N19052   7.985   8.153   8.694  0.3516  0.1433 -0.4375
  142MOL0     C19053   7.951   8.021   8.672  0.0135  0.0294 -0.0986
  142MOL0     C19054   7.967   7.959   8.790  0.4911  0.0730  0.5800
  142MOL0     C19055   7.958   7.810   8.811  0.2750  0.2657 -0.5263
  142MOL0     C19056   7.871   7.775   8.932 -0.8054 -1.0182  0.5598
  142MOL0     C19057   7.836   7.624   8.954  0.7378 -0.3416  0.2728
  142MOL0     C19058   7.723   7.598   9.054 -0.0051 -0.0405  0.2051
  142MOL0     O19059   7.693   7.460   9.072  0.4522 -0.5235  0.2423
  142MOL0     C19060   7.781   7.375   9.122 -0.3660  0.0440  0.1839
  142MOL0     C19061   7.869   7.410   9.226  0.9753  0.0863 -0.1224
  142MOL0     C19062   7.953   7.320   9.287 -0.1826 -0.4144  1.0661
  142MOL0     C19063   7.952   7.190   9.247  0.4560 -0.4703  0.4488
  142MOL0     C19064   8.061   7.100   9.294 -0.2439  0.1679  0.2457
  142MOL0     O19065   8.163   7.156   9.369 -0.1183  0.2307  0.1646
  142MOL0     C19066   8.296   7.111   9.358  0.1880 -0.0379 -0.1619
  142MOL0     C19067   8.378   7.138   9.464 -0.2055 -0.2760  0.6718
  142MOL0     C19068   8.516   7.116   9.464 -0.7473  1.0261  0.5356
  142MOL0     C19069   8.577   7.049   9.359 -0.0736 -0.3303  0.8630
  142MOL0     O19070   8.707   7.013   9.353  0.0455 -0.5084 -0.6012
  142MOL0     C19071   8.801   7.118   9.373 -0.0062 -0.1953  0.2982
  142MOL0     C19072   8.915   7.056   9.451 -0.4933 -0.1069  0.2786
  142MOL0     C19073   9.005   7.173   9.497  0.7765  0.4233 -0.5269
  142MOL0     C19074   9.133   7.128   9.565 -0.4985 -0.0583  0.2416
  142MOL0     C19075   9.249   7.154   9.470 -0.4719 -0.2740 -0.0273
  142MOL0     C19076   9.269   7.040   9.370 -0.5231  0.5245 -0.3748
  142MOL0     C19077   9.411   6.996   9.350  0.2399  0.3303  0.7837
  142MOL0     C19078   9.495   7.093   9.266  0.7391  0.0931 -0.6273
  142MOL0    Cl19079   9.664   7.056   9.250 -0.2282 -0.1939 -0.0441
  142MOL0     C19080   8.493   7.030   9.245 -0.5079 -0.1403  0.9374
  142MOL0     C19081   8.356   7.054   9.244  0.0876  0.3701 -0.1641
  142MOL0     O19082   8.068   6.983   9.247 -0.8619  0.1464  0.1356
  142MOL0     C19083   7.877   7.156   9.133 -0.5370  0.3040  0.2556
  142MOL0     C19084   7.790   7.245   9.082  0.9162 -0.4258  0.0923
  142MOL0     N19085   8.010   8.048   8.878  0.2989 -0.9049 -0.3681
  142MOL0     N19086   8.000   8.165   8.831 -0.0236  0.8090  0.9584
  142MOL0     C19087   7.141   8.155   9.117  0.3334 -0.0846 -0.0349
  142MOL0     C19088   7.029   8.132   9.193  0.4656 -0.1445 -0.9280
  142MOL0     C19089   6.703   7.854   9.361  0.4838  0.1539  1.2587
  142MOL0     C19090   6.616   7.961   9.412 -0.8464  0.4256  0.8317
  142MOL0     C19091   6.497   7.942   9.462  0.5546  0.8308 -0.3205
  142MOL0     C19092   6.451   7.809   9.476 -0.2308 -1.2376 -0.1183
  142MOL0     O19093   6.326   7.767   9.527  0.1242 -0.2752  0.3267
  142MOL0     C19094   6.224   7.864   9.527 -0.7026 -0.2549 -0.5992
  142MOL0     C19095   6.162   7.893   9.388  0.7495  0.2076  0.3989
  142MOL0     C19096   6.071   7.779   9.331  0.8162 -0.1533  0.0087
  142MOL0     C19097   5.937   7.755   9.405  0.3369 -0.0546 -1.1982
  142MOL0     C19098   5.847   7.869   9.418  0.2615  0.4008  0.7917
  142MOL0     C19099   5.758   7.947   9.410 -1.0022 -0.0479 -0.9128
  142MOL0     C19100   6.540   7.708   9.440  0.1503  0.1439  0.3469
  142MOL0     C19101   6.660   7.722   9.378 -0.1825 -0.4589  0.5035
  142MOL0     C19102   6.731   7.588   9.336  0.4061 -0.7941 -0.0962
  142MOL0     H19103   6.867   7.938   8.967 -1.0305  3.7632 -0.8494
  142MOL0     H19104   7.033   8.002   8.829  0.3504 -1.9440  0.6956
  142MOL0     H19105   7.322   8.297   8.976  3.2920  1.9136  0.1777
  142MOL0     H19106   7.414   8.179   9.049 -0.6436  0.2422  1.2008
  142MOL0     H19107   7.518   8.144   8.794 -0.5561  0.2512 -0.8808
  142MOL0     H19108   7.574   8.271   8.888 -0.0385  2.2773 -0.3301
  142MOL0     H19109   7.364   8.406   8.784  2.9841  0.9957  2.0510
  142MOL0     H19110   7.357   8.265   8.685 -2.6826  1.6050  0.5713
  142MOL0     H19111   7.477   8.492   8.613 -0.4512 -0.6876  0.1724
  142MOL0     H19112   7.617   8.441   8.710 -1.2262  1.6641 -0.2020
  142MOL0     H19113   7.508   8.251   8.511  0.8191 -1.3502  0.2457
  142MOL0     H19114   7.609   8.390   8.460 -0.9534 -1.1941 -1.0754
  142MOL0     H19115   7.708   8.175   8.649 -0.9732  1.6137  1.3909
  142MOL0     H19116   7.751   8.188   8.481 -1.8927 -2.0427 -0.2698
  142MOL0     H19117   7.819   8.400   8.689 -0.7478 -1.8534  0.3571
  142MOL0     H19118   7.857   8.419   8.513 -0.1460 -1.0077 -1.0946
  142MOL0     H19119   8.007   8.244   8.497 -0.9991 -0.8440 -0.2060
  142MOL0     H19120   8.047   8.338   8.632 -0.0023  0.1119  0.9833
  142MOL0     H19121   7.916   7.973   8.581 -1.5564 -1.4552  1.2118
  142MOL0     H19122   7.920   7.753   8.726  0.8133 -1.5682  0.4088
  142MOL0     H19123   8.056   7.771   8.839  1.5011  3.4994  0.1978
  142MOL0     H19124   7.924   7.815   9.019  1.6815  1.6516 -1.9613
  142MOL0     H19125   7.775   7.827   8.940 -0.0059  0.3343  1.7301
  142MOL0     H19126   7.928   7.572   8.981  0.4237 -0.5147  1.0132
  142MOL0     H19127   7.805   7.575   8.861 -0.3410  1.3047 -0.2994
  142MOL0     H19128   7.635   7.636   9.002  0.7102  0.9701 -0.3159
  142MOL0     H19129   7.735   7.647   9.151  0.2600 -0.8611  0.5925
  142MOL0     H19130   7.873   7.512   9.260 -0.6738 -0.6098  2.4243
  142MOL0     H19131   8.022   7.349   9.365 -1.1341  0.6894  1.5224
  142MOL0     H19132   8.336   7.175   9.557 -0.7717  2.1152 -0.4539
  142MOL0     H19133   8.574   7.138   9.553 -1.3637 -2.5683  2.0195
  142MOL0     H19134   8.839   7.157   9.278 -1.0395  0.4100  0.1146
  142MOL0     H19135   8.758   7.196   9.436  1.7628  0.5735  0.5822
  142MOL0     H19136   8.881   6.989   9.530 -0.8753 -0.0944  0.1282
  142MOL0     H19137   8.967   6.990   9.381 -1.8970 -1.5241  0.5203
  142MOL0     H19138   9.013   7.253   9.422  1.9859  2.4831  1.6761
  142MOL0     H19139   8.946   7.216   9.578  0.1937  2.8523 -2.1222
  142MOL0     H19140   9.136   7.025   9.602  4.3344  0.4754  2.0041
  142MOL0     H19141   9.135   7.189   9.655 -1.1332 -1.5817  1.3207
  142MOL0     H19142   9.325   7.143   9.548  1.5175 -0.1335 -1.8552
  142MOL0     H19143   9.251   7.257   9.435  1.2799  1.4704  4.4785
  142MOL0     H19144   9.208   6.956   9.404  0.0401 -0.4436 -1.6690
  142MOL0     H19145   9.221   7.056   9.273  1.3769  1.0364 -1.2651
  142MOL0     H19146   9.416   6.894   9.310  3.3073  1.2852 -1.6974
  142MOL0     H19147   9.457   6.983   9.448  2.4483  0.5629 -0.1544
  142MOL0     H19148   9.451   7.109   9.167  2.5006  4.4705 -0.9516
  142MOL0     H19149   9.490   7.195   9.306  2.7898 -0.6467  1.7330
  142MOL0     H19150   8.554   6.993   9.163 -0.5958 -0.1328  0.8682
  142MOL0     H19151   8.286   7.040   9.163 -1.2132  4.5027  0.0331
  142MOL0     H19152   7.891   7.059   9.087 -0.6729  1.6918 -2.9461
  142MOL0     H19153   7.717   7.223   9.004 -0.3698 -0.7094  1.3407
  142MOL0     H19154   7.223   8.207   9.166  1.0562  1.0160 -2.3030
  142MOL0     H19155   7.015   8.161   9.297  1.1614 -1.2389 -0.5011
  142MOL0     H19156   6.650   8.063   9.396 -0.9232  0.2234 -0.7337
  142MOL0     H19157   6.445   8.032   9.493 -2.2086 -0.9666  0.6840
  142MOL0     H19158   6.263   7.961   9.562 -0.2540 -0.7123  0.1934
  142MOL0     H19159   6.149   7.839   9.603 -1.1870 -2.6718 -1.7847
  142MOL0     H19160   6.249   7.908   9.323 -0.8085  0.0881 -1.8264
  142MOL0     H19161   6.103   7.985   9.382  0.7116  0.1158 -1.0240
  142MOL0     H19162   6.131   7.687   9.337 -0.1527 -0.7734  0.4898
  142MOL0     H19163   6.052   7.797   9.225  0.3843  2.4342  0.4753
  142MOL0     H19164   5.889   7.673   9.351 -1.1657  1.0210 -1.5818
  142MOL0     H19165   5.954   7.730   9.511  1.8757 -4.2482 -2.2451
  142MOL0     H19166   5.682   8.022   9.399 -0.2337  0.8348 -0.2926
  142MOL0     H19167   6.501   7.607   9.448  2.5918 -1.2259 -3.0205
  142MOL0     H19168   6.675   7.499   9.367 -2.7494  0.1367 -2.4929
  142MOL0     H19169   6.738   7.579   9.227  2.3650  0.3512 -0.1167
  142MOL0     H19170   6.830   7.586   9.383 -0.3175 -2.4669  1.4929
  143MOL0     O19171   8.361   7.204   2.616 -0.6622 -0.2535 -0.3821
  143MOL0     C19172   8.360   7.144   2.725  0.3233  0.1694  0.2651
  143MOL0     O19173   8.262   7.065   2.776 -0.4806 -0.1183  0.6498
  143MOL0     C19174   8.129   7.076   2.737 -0.1847 -0.5709 -0.1283
  143MOL0     C19175   8.040   6.975   2.781 -0.5015  0.0176 -0.3201
  143MOL0     C19176   7.910   6.962   2.741  0.1858 -0.0419 -0.3507
  143MOL0     C19177   7.864   7.070   2.643  0.6954  0.1633 -0.0653
  143MOL0     O19178   7.733   7.059   2.593 -0.4336  0.0146 -0.2826
  143MOL0     C19179   7.680   7.174   2.528 -0.4744 -0.7316  0.2576
  143MOL0     C19180   7.530   7.150   2.526 -0.2234  0.3189  0.1028
  143MOL0     C19181   7.459   7.275   2.478 -0.6530  0.5828 -0.3541
  143MOL0     C19182   7.496   7.318   2.335 -1.0556  0.2420 -0.3905
  143MOL0     C19183   7.385   7.411   2.269  0.1202  1.6305 -0.5908
  143MOL0     C19184   7.396   7.426   2.122 -0.4162 -0.2334  0.2652
  143MOL0     C19185   7.393   7.301   2.034 -1.0868 -0.1024 -0.2695
  143MOL0     C19186   7.379   7.337   1.882 -0.8121 -0.0793  0.2191
  143MOL0     N19187   7.494   7.293   1.794 -0.1689 -0.1485  0.0518
  143MOL0     C19188   7.607   7.364   1.767  0.5969  0.1341  0.5678
  143MOL0     C19189   7.686   7.283   1.684  0.6201 -0.1515 -0.7455
  143MOL0     C19190   7.814   7.338   1.616  0.3124 -1.0827  0.0289
  143MOL0     C19191   7.941   7.260   1.656  0.0230  0.0258  0.1381
  143MOL0     C19192   8.067   7.314   1.609  0.0679 -0.1478 -0.2846
  143MOL0     C19193   8.182   7.233   1.671 -0.2512  0.1133 -0.0698
  143MOL0     O19194   8.302   7.305   1.649  0.9995 -0.1326  0.2319
  143MOL0     C19195   8.422   7.248   1.691 -0.0015  0.7133 -0.1018
  143MOL0     C19196   8.441   7.131   1.764 -0.1362  0.2596  0.2521
  143MOL0     C19197   8.568   7.090   1.805  0.3314 -0.7239 -0.1141
  143MOL0     C19198   8.678   7.168   1.768  0.3317  0.4071 -1.0920
  143MOL0     C19199   8.820   7.124   1.792  0.7287 -0.6872 -0.1883
  143MOL0     O19200   8.840   7.033   1.895 -0.5449 -0.1701  0.3801
  143MOL0     C19201   8.973   6.995   1.923  0.2155 -0.2753  0.5316
  143MOL0     C19202   9.006   6.864   1.919 -0.9036  0.0946 -0.5459
  143MOL0     C19203   9.134   6.821   1.965  0.7959  1.6479  0.1694
  143MOL0     C19204   9.226   6.913   2.023 -0.8872 -0.1620  0.1806
  143MOL0     O19205   9.347   6.857   2.064  0.3926  0.3847 -1.0086
  143MOL0     C19206   9.462   6.943   2.118  0.3142 -0.3484 -0.5316
  143MOL0     C19207   9.547   6.862   2.221  0.2150 -0.0433  0.1308
  143MOL0     C19208   9.665   6.946   2.282  1.2117 -0.5794 -0.3731
  143MOL0     C19209   9.630   7.045   2.389 -0.0060  0.7303 -0.5634
  143MOL0     C19210   9.763   7.112   2.432  1.0224  0.6907  0.0584
  143MOL0     C19211   9.743   7.227   2.537 -0.6524 -0.9375 -0.1131
  143MOL0     C19212   9.868   7.318   2.569  0.7269  0.4239 -0.0509
  143MOL0     C19213   9.844   7.438   2.656 -0.1014 -0.2387  0.5598
  143MOL0    Cl19214  10.002   7.491   2.715 -0.0106  0.5001 -0.2695
  143MOL0     C19215   9.193   7.048   2.026  0.3574  0.3953  0.5198
  143MOL0     C19216   9.066   7.086   1.970 -0.2153  0.2697 -1.2530
  143MOL0     O19217   8.905   7.183   1.726  0.1109  0.7994  0.2414
  143MOL0     C19218   8.657   7.297   1.714 -0.0056  0.0582 -0.3492
  143MOL0     C19219   8.528   7.331   1.667 -0.0717 -0.2020  0.6931
  143MOL0     N19220   7.619   7.163   1.671 -1.0732 -0.0237 -0.2971
  143MOL0     N19221   7.513   7.174   1.741  0.0028  0.5848 -0.3909
  143MOL0     C19222   7.949   7.179   2.607 -0.5407 -0.2818  0.9430
  143MOL0     C19223   8.078   7.180   2.654  0.3419  0.0676 -0.4870
  143MOL0     C19224   8.494   7.137   2.794  0.1452  0.0971  0.2725
  143MOL0     C19225   8.610   7.185   2.725  0.5913  0.8665 -0.4327
  143MOL0     C19226   8.733   7.198   2.786 -0.7156  0.1517  0.4244
  143MOL0     C19227   8.748   7.168   2.915  0.3623 -0.3325 -0.6224
  143MOL0     O19228   8.871   7.163   2.984 -0.1409 -0.3170  0.1474
  143MOL0     C19229   8.923   7.032   3.000 -0.4550 -0.1816 -0.6441
  143MOL0     C19230   9.031   7.001   2.901 -0.2167  0.4030  0.3978
  143MOL0     C19231   9.137   7.111   2.899 -0.6586  0.3660 -0.3782
  143MOL0     C19232   9.272   7.048   2.868 -0.1447 -0.0019  0.8155
  143MOL0     C19233   9.379   7.149   2.841 -0.0688  0.5095 -0.9532
  143MOL0     C19234   9.471   7.228   2.822 -1.2816 -0.1920  0.5216
  143MOL0     C19235   8.641   7.107   2.985 -0.0864  0.2871  0.5004
  143MOL0     C19236   8.517   7.094   2.924  0.6438 -0.4244 -0.2726
  143MOL0     C19237   8.421   7.041   3.026 -0.2246  0.0846 -1.3328
  143MOL0     H19238   8.079   6.889   2.834 -1.1589 -0.2573 -0.2725
  143MOL0     H19239   7.842   6.880   2.758 -0.6603  0.5180 -0.9411
  143MOL0     H19240   7.683   7.269   2.582  0.5901  0.5068 -1.8376
  143MOL0     H19241   7.712   7.179   2.424 -3.5553  1.5129 -0.7476
  143MOL0     H19242   7.492   7.125   2.625  1.3627  2.2411  1.2752
  143MOL0     H19243   7.513   7.066   2.458  0.1426  0.8123 -0.6150
  143MOL0     H19244   7.459   7.359   2.548  2.3914  2.2365 -2.1293
  143MOL0     H19245   7.355   7.246   2.459 -0.4967  1.3889 -2.7452
  143MOL0     H19246   7.583   7.384   2.328  0.4610 -1.5319  0.6740
  143MOL0     H19247   7.495   7.232   2.267 -0.8982 -0.0200 -0.0677
  143MOL0     H19248   7.284   7.376   2.291  0.5430  0.9661  0.3751
  143MOL0     H19249   7.388   7.506   2.323  0.5138  1.9760 -1.2055
  143MOL0     H19250   7.315   7.492   2.089  0.4335  0.6382 -0.1191
  143MOL0     H19251   7.491   7.473   2.097 -1.1553  0.0696 -2.2282
  143MOL0     H19252   7.303   7.250   2.068 -0.8249  0.7324  1.8421
  143MOL0     H19253   7.478   7.235   2.052 -0.6727 -0.5364 -3.2883
  143MOL0     H19254   7.288   7.285   1.850 -0.3932 -0.3776 -0.5192
  143MOL0     H19255   7.363   7.445   1.877 -4.7468 -0.5148  0.1119
  143MOL0     H19256   7.621   7.469   1.787 -1.3612  1.0480 -2.1946
  143MOL0     H19257   7.794   7.329   1.508 -4.1797 -0.8918  0.6462
  143MOL0     H19258   7.818   7.442   1.648  1.7380 -1.6299  1.7536
  143MOL0     H19259   7.948   7.237   1.762  3.1787  0.0846  0.0279
  143MOL0     H19260   7.935   7.164   1.605 -2.6214  1.1277 -1.9028
  143MOL0     H19261   8.068   7.415   1.653 -0.8718 -1.6379  3.5807
  143MOL0     H19262   8.071   7.331   1.501  1.6200 -0.3065 -0.2673
  143MOL0     H19263   8.181   7.131   1.631 -1.5842 -2.0153  4.5974
  143MOL0     H19264   8.172   7.225   1.780 -1.9021  2.2203 -0.0269
  143MOL0     H19265   8.345   7.085   1.788 -0.0352  0.0146  0.1833
  143MOL0     H19266   8.577   7.002   1.869 -0.7772 -0.4342  0.4740
  143MOL0     H19267   8.940   6.790   1.876 -0.0346 -0.8361 -0.2923
  143MOL0     H19268   9.159   6.716   1.954 -1.9159  0.8999  0.4279
  143MOL0     H19269   9.513   6.972   2.025 -1.2896  1.9080 -0.7960
  143MOL0     H19270   9.448   7.039   2.167  0.0970 -1.2893  1.3369
  143MOL0     H19271   9.476   6.849   2.303  0.4721 -0.1581  0.3384
  143MOL0     H19272   9.565   6.767   2.170 -1.0784 -1.1282  1.5943
  143MOL0     H19273   9.741   6.875   2.316  0.8582 -0.8439 -0.1263
  143MOL0     H19274   9.697   7.005   2.195 -0.6625  0.5831 -0.3301
  143MOL0     H19275   9.573   7.000   2.471  0.0699  1.0826 -0.3171
  143MOL0     H19276   9.563   7.116   2.340  0.5796  3.5856  2.4650
  143MOL0     H19277   9.816   7.159   2.349 -1.7570  1.4621 -1.3976
  143MOL0     H19278   9.815   7.024   2.471 -2.9134 -1.6768  0.5271
  143MOL0     H19279   9.660   7.291   2.505  0.4998  0.1255 -1.1233
  143MOL0     H19280   9.719   7.171   2.627 -1.0569 -0.5890 -0.0030
  143MOL0     H19281   9.888   7.354   2.467 -3.1681  3.2535 -0.0375
  143MOL0     H19282   9.936   7.241   2.605  0.7372 -1.6194 -3.8838
  143MOL0     H19283   9.783   7.507   2.598 -0.2394 -0.7126  0.1274
  143MOL0     H19284   9.796   7.414   2.752 -0.3019 -1.0951  0.2559
  143MOL0     H19285   9.259   7.126   2.063  0.9274 -1.1034  2.9411
  143MOL0     H19286   9.037   7.190   1.974  1.2998  0.7086 -0.9980
  143MOL0     H19287   8.741   7.364   1.697  1.5479 -1.8645 -0.7003
  143MOL0     H19288   8.504   7.433   1.641  1.1960  0.0141  0.2753
  143MOL0     H19289   7.914   7.271   2.562 -0.0125  1.8229  4.4825
  143MOL0     H19290   8.139   7.259   2.613 -0.2892 -0.3785 -2.3741
  143MOL0     H19291   8.589   7.210   2.622 -0.6840  1.4294 -0.0583
  143MOL0     H19292   8.823   7.244   2.746 -1.2082  0.1837 -0.6747
  143MOL0     H19293   8.854   6.951   2.976  1.6467 -2.6256  1.0767
  143MOL0     H19294   8.967   7.011   3.097 -1.4917 -3.3845 -0.7687
  143MOL0     H19295   8.989   6.990   2.801  2.6184 -2.9832 -0.6269
  143MOL0     H19296   9.082   6.908   2.929  0.2389  0.1593 -1.1638
  143MOL0     H19297   9.149   7.158   2.997 -1.1371 -1.6288  0.6890
  143MOL0     H19298   9.109   7.193   2.832 -1.0640  0.9582  0.4959
  143MOL0     H19299   9.314   6.996   2.954 -0.5270 -1.0111  0.4156
  143MOL0     H19300   9.272   6.984   2.778 -0.8291  2.2966 -0.9128
  143MOL0     H19301   9.553   7.295   2.807  0.0648 -1.8241  0.3455
  143MOL0     H19302   8.655   7.061   3.082 -3.5770 -1.6283  0.2365
  143MOL0     H19303   8.419   6.932   3.027  0.4402 -0.1024  3.3055
  143MOL0     H19304   8.440   7.076   3.128  0.2560 -1.3534 -0.9037
  143MOL0     H19305   8.316   7.063   3.004 -0.2396  0.1813 -1.1715
  144MOL0     O19306   4.011   2.325   5.846  0.2312  0.5583  0.8021
  144MOL0     C19307   3.899   2.314   5.794 -0.1109 -1.2177  0.0902
  144MOL0     O19308   3.870   2.293   5.662 -0.8465 -0.1268  0.7164
  144MOL0     C19309   3.987   2.282   5.583  0.4862  0.5218 -0.3167
  144MOL0     C19310   4.043   2.153   5.548  0.2966 -0.1768  0.5774
  144MOL0     C19311   4.153   2.150   5.462  0.2947  0.0062 -0.2612
  144MOL0     C19312   4.199   2.265   5.403  0.7803 -0.6686 -0.6405
  144MOL0     O19313   4.305   2.264   5.320  0.7030  0.7501  0.0074
  144MOL0     C19314   4.425   2.332   5.372  0.3149 -1.0611  0.1244
  144MOL0     C19315   4.550   2.296   5.282 -0.1309 -0.6547  1.0490
  144MOL0     C19316   4.691   2.343   5.337 -0.2833  0.0689  0.4943
  144MOL0     C19317   4.802   2.293   5.247 -1.0895 -0.2249  1.0630
  144MOL0     C19318   4.935   2.283   5.323  0.5618 -0.6381 -0.8144
  144MOL0     C19319   5.058   2.256   5.236 -0.4588 -0.0254  0.0187
  144MOL0     C19320   5.179   2.236   5.330 -0.6601  0.2549 -0.4308
  144MOL0     C19321   5.209   2.087   5.356 -0.0190  0.4390 -0.6414
  144MOL0     N19322   5.341   2.067   5.429  0.5712 -0.5746  0.3340
  144MOL0     C19323   5.365   2.074   5.562 -0.1700 -0.0031 -0.4246
  144MOL0     C19324   5.496   2.038   5.577  0.5489  0.0925  0.5756
  144MOL0     C19325   5.588   2.047   5.692 -0.8080 -0.5427  0.1431
  144MOL0     C19326   5.646   2.188   5.714 -0.3866 -0.5355  0.7781
  144MOL0     C19327   5.753   2.232   5.601 -0.0577 -0.3876  0.6090
  144MOL0     C19328   5.868   2.138   5.573  0.5362 -0.1877 -1.2360
  144MOL0     O19329   5.926   2.113   5.707 -0.5396 -0.6616 -0.0519
  144MOL0     C19330   6.021   2.021   5.704 -0.1887 -1.1000  0.7812
  144MOL0     C19331   6.054   1.985   5.838 -0.1583  1.3330  0.5133
  144MOL0     C19332   6.152   1.884   5.863 -1.5330 -0.3240  1.0904
  144MOL0     C19333   6.209   1.815   5.754 -0.3564  1.5511  0.3645
  144MOL0     C19334   6.310   1.711   5.772  0.1208  0.6324 -1.1487
  144MOL0     O19335   6.413   1.704   5.695 -0.0125  0.9140  0.4954
  144MOL0     C19336   6.504   1.602   5.699 -0.2093 -0.4331 -0.1994
  144MOL0     C19337   6.457   1.468   5.692  0.4764 -0.2876  0.3103
  144MOL0     C19338   6.552   1.365   5.699  0.3760 -0.4020  0.0037
  144MOL0     C19339   6.687   1.387   5.719 -0.5084  0.3042 -0.3369
  144MOL0     O19340   6.779   1.284   5.730  0.6228 -0.2937 -0.1350
  144MOL0     C19341   6.728   1.151   5.734  0.0066 -0.7486  0.0101
  144MOL0     C19342   6.834   1.055   5.771 -0.8490  0.6179  0.6512
  144MOL0     C19343   6.942   1.037   5.660 -0.6582 -0.0164  0.4052
  144MOL0     C19344   7.059   0.945   5.701 -0.2018 -0.1760  0.0841
  144MOL0     C19345   7.187   0.956   5.619  1.0891  0.2666  0.0073
  144MOL0     C19346   7.289   0.854   5.659 -0.4686 -0.1886 -0.3782
  144MOL0     C19347   7.419   0.861   5.576 -0.7841  0.2014 -0.6937
  144MOL0     C19348   7.495   0.729   5.575 -0.0730  0.8082 -0.5643
  144MOL0    Cl19349   7.516   0.657   5.750  0.3601 -0.0658 -0.1534
  144MOL0     C19350   6.725   1.514   5.727  0.2749 -0.1725 -0.2792
  144MOL0     C19351   6.637   1.620   5.717  0.4195  0.0544 -0.6908
  144MOL0     O19352   6.287   1.637   5.862  0.4814 -0.5917  0.0857
  144MOL0     C19353   6.175   1.852   5.626 -0.0694 -0.0561  1.1457
  144MOL0     C19354   6.091   1.961   5.598  0.2406  0.5512 -0.2870
  144MOL0     N19355   5.542   2.016   5.449 -0.6051  1.0253 -0.1916
  144MOL0     N19356   5.453   2.035   5.362  0.1435 -0.5402  0.6941
  144MOL0     C19357   4.138   2.387   5.430 -0.0102 -0.0723 -0.1590
  144MOL0     C19358   4.035   2.399   5.530  0.4789 -0.6100  0.0211
  144MOL0     C19359   3.782   2.297   5.879  0.1808  0.3801 -0.7044
  144MOL0     C19360   3.718   2.405   5.950 -0.2288  0.6212  0.4163
  144MOL0     C19361   3.620   2.378   6.038  0.2265  0.3166  0.3799
  144MOL0     C19362   3.568   2.250   6.052 -0.5895 -0.7863 -0.5868
  144MOL0     O19363   3.464   2.240   6.145 -0.1134  0.0539  0.4820
  144MOL0     C19364   3.385   2.128   6.127  0.3851 -0.5803 -0.1113
  144MOL0     C19365   3.257   2.150   6.203 -0.2382 -0.1828 -0.0240
  144MOL0     C19366   3.151   2.048   6.187  0.4374  0.2108 -0.3658
  144MOL0     C19367   3.027   2.085   6.290  0.0641  0.4997  1.0167
  144MOL0     C19368   2.966   2.221   6.293  0.0992 -0.3665 -0.4741
  144MOL0     C19369   2.907   2.328   6.290 -0.1648  0.0954 -1.0114
  144MOL0     C19370   3.614   2.146   5.972  0.3704  0.2417  0.0417
  144MOL0     C19371   3.727   2.162   5.893 -0.3935  0.5250 -0.0154
  144MOL0     C19372   3.774   2.036   5.820 -1.0411 -0.2435 -0.0140
  144MOL0     H19373   3.993   2.067   5.591 -1.1745  1.1423  1.6032
  144MOL0     H19374   4.205   2.060   5.430 -0.8181  0.1180 -2.6605
  144MOL0     H19375   4.406   2.440   5.367 -2.9117 -1.4465  1.2087
  144MOL0     H19376   4.460   2.303   5.472  0.4401  0.6975  0.6296
  144MOL0     H19377   4.549   2.332   5.179  0.4480  1.0306  1.5960
  144MOL0     H19378   4.560   2.187   5.281  1.5051 -0.5833  2.7279
  144MOL0     H19379   4.695   2.306   5.440 -2.0492  3.2437  1.8794
  144MOL0     H19380   4.694   2.453   5.336  2.5043  0.0644  0.2356
  144MOL0     H19381   4.775   2.191   5.219  1.7163 -1.1502  1.3798
  144MOL0     H19382   4.813   2.359   5.161  1.5298  1.8285  2.7917
  144MOL0     H19383   4.952   2.376   5.378  0.5519 -0.7638 -0.5972
  144MOL0     H19384   4.923   2.207   5.401  2.0379  0.6189  0.7305
  144MOL0     H19385   5.036   2.178   5.163 -2.5161  0.8496 -0.3922
  144MOL0     H19386   5.073   2.344   5.172 -1.5647 -1.0421 -1.7277
  144MOL0     H19387   5.154   2.274   5.430 -1.5600  0.0073 -0.5562
  144MOL0     H19388   5.264   2.287   5.284  0.0777 -1.3439 -0.9154
  144MOL0     H19389   5.130   2.044   5.418  0.5668 -0.1750 -0.3096
  144MOL0     H19390   5.224   2.034   5.262  2.2610  2.2893 -1.4144
  144MOL0     H19391   5.294   2.116   5.633 -0.3420  2.5699 -1.9695
  144MOL0     H19392   5.524   2.027   5.778 -1.1261 -2.0216 -0.3932
  144MOL0     H19393   5.675   1.980   5.682 -1.9196 -1.9592 -0.3359
  144MOL0     H19394   5.566   2.263   5.718  0.3066  0.1912  1.3335
  144MOL0     H19395   5.692   2.181   5.813  0.6995 -0.8333  0.2731
  144MOL0     H19396   5.793   2.329   5.634 -1.3035  0.5265 -0.4403
  144MOL0     H19397   5.702   2.265   5.510 -0.7887  2.8801  2.0620
  144MOL0     H19398   5.935   2.200   5.513 -0.3941  0.7704 -1.3207
  144MOL0     H19399   5.840   2.047   5.519 -0.6321 -0.5911 -0.0179
  144MOL0     H19400   6.001   2.033   5.920 -0.3328  2.0029  0.0190
  144MOL0     H19401   6.184   1.856   5.963  0.3281 -0.9647  0.3540
  144MOL0     H19402   6.349   1.453   5.696  0.3125  1.0498  2.4424
  144MOL0     H19403   6.509   1.265   5.704  1.1563 -0.6701  2.6076
  144MOL0     H19404   6.653   1.145   5.813  0.9911  0.3749  1.0639
  144MOL0     H19405   6.692   1.116   5.637 -0.3900 -1.8428  0.5435
  144MOL0     H19406   6.882   1.093   5.861  0.4244 -3.1615  1.7492
  144MOL0     H19407   6.793   0.958   5.798 -4.7378  2.0068  0.4017
  144MOL0     H19408   6.903   0.992   5.568 -0.0878 -2.3885  1.2406
  144MOL0     H19409   6.974   1.135   5.623 -1.6629 -0.1181 -0.8153
  144MOL0     H19410   7.022   0.842   5.708 -2.5046  0.6970  2.3382
  144MOL0     H19411   7.100   0.977   5.797 -2.6223 -0.5170  1.3142
  144MOL0     H19412   7.232   1.054   5.639  0.9480 -0.1884  3.0102
  144MOL0     H19413   7.170   0.945   5.512  1.2182  2.8998 -0.3519
  144MOL0     H19414   7.307   0.871   5.766  0.8321 -3.3165  0.0419
  144MOL0     H19415   7.251   0.751   5.653  0.9985 -0.8575  0.8594
  144MOL0     H19416   7.489   0.929   5.625  0.5710 -0.2483 -1.9344
  144MOL0     H19417   7.404   0.897   5.474 -2.7466 -0.1663 -0.5730
  144MOL0     H19418   7.442   0.663   5.506 -0.4661  0.3737  0.1373
  144MOL0     H19419   7.598   0.742   5.541  1.2555 -2.9438  1.3999
  144MOL0     H19420   6.830   1.528   5.752  1.1150 -0.6085 -3.1823
  144MOL0     H19421   6.673   1.720   5.739  0.0209  0.3143 -1.1967
  144MOL0     H19422   6.225   1.819   5.536 -1.4564 -1.4777  0.8572
  144MOL0     H19423   6.092   2.000   5.496  0.8089 -1.3006 -1.0334
  144MOL0     H19424   4.174   2.474   5.375 -0.9256  0.1457 -0.4304
  144MOL0     H19425   3.997   2.499   5.547  2.3156 -0.1790  2.2554
  144MOL0     H19426   3.741   2.510   5.937 -1.4394  0.7918 -0.4773
  144MOL0     H19427   3.567   2.465   6.075 -0.5050  0.3555 -0.6966
  144MOL0     H19428   3.426   2.031   6.155 -0.9910 -1.1719 -0.0747
  144MOL0     H19429   3.349   2.116   6.024  1.4689  2.4954 -0.9867
  144MOL0     H19430   3.219   2.248   6.172  0.0545  0.3622  1.2662
  144MOL0     H19431   3.274   2.170   6.310  1.4651  0.4900 -0.3864
  144MOL0     H19432   3.195   1.951   6.211  2.9897  1.3001 -0.3569
  144MOL0     H19433   3.109   2.047   6.086 -0.5746  1.9754 -0.0224
  144MOL0     H19434   2.948   2.012   6.271  1.7938 -1.4411  0.9061
  144MOL0     H19435   3.072   2.069   6.388 -1.6893 -1.1032  1.5998
  144MOL0     H19436   2.863   2.425   6.292 -2.2042 -0.7233  2.1111
  144MOL0     H19437   3.562   2.051   5.981 -1.2989  0.7464 -2.8608
  144MOL0     H19438   3.771   1.951   5.888  3.4209  0.8399  1.8954
  144MOL0     H19439   3.706   2.016   5.737 -0.1243  0.2332 -0.9142
  144MOL0     H19440   3.876   2.047   5.781 -1.3270 -1.5330 -1.1750
  145MOL0     O19441   6.050  10.616   8.237 -0.0924  0.4574  0.4446
  145MOL0     C19442   6.029  10.542   8.336  1.2787  0.4940  0.4188
  145MOL0     O19443   6.086  10.559   8.463  0.7218 -0.7925 -0.4885
  145MOL0     C19444   6.194  10.649   8.466  0.0575  0.4307  0.4475
  145MOL0     C19445   6.195  10.776   8.527  0.3182  0.1864 -0.1131
  145MOL0     C19446   6.310  10.854   8.524 -1.1825 -0.3370 -0.3050
  145MOL0     C19447   6.428  10.804   8.463 -0.1670  0.4752  0.1623
  145MOL0     O19448   6.542  10.885   8.468 -0.7921 -0.5996 -0.8417
  145MOL0     C19449   6.552  10.989   8.575  0.0826 -0.3183 -0.3707
  145MOL0     C19450   6.703  11.031   8.587 -0.2132 -0.2009  0.7867
  145MOL0     C19451   6.790  10.932   8.663 -0.3035  0.2825 -0.5493
  145MOL0     C19452   6.920  10.995   8.715  0.4415  0.2776  0.2178
  145MOL0     C19453   6.988  10.901   8.809 -0.2861  0.3177 -0.2563
  145MOL0     C19454   7.117  10.958   8.867  0.1521 -1.0334  1.1146
  145MOL0     C19455   7.215  11.017   8.766 -0.6241 -0.0872 -0.3661
  145MOL0     C19456   7.345  11.045   8.854  0.9478 -0.3807  0.3864
  145MOL0     N19457   7.445  11.113   8.773 -0.0006  0.3975  0.7154
  145MOL0     C19458   7.499  11.062   8.656 -0.3918  0.0662  1.0324
  145MOL0     C19459   7.560  11.167   8.605 -0.5189 -0.2419 -0.2844
  145MOL0     C19460   7.636  11.166   8.476 -0.1006 -0.0786 -0.3229
  145MOL0     C19461   7.784  11.198   8.484  0.4980 -0.3300 -0.0193
  145MOL0     C19462   7.845  11.126   8.601  0.4668 -0.1111 -0.1807
  145MOL0     C19463   7.987  11.167   8.621  0.0459 -0.4072  0.0077
  145MOL0     O19464   8.057  11.166   8.493 -0.5459  0.1962 -0.5474
  145MOL0     C19465   8.184  11.216   8.493 -0.6360 -0.1434  0.4295
  145MOL0     C19466   8.245  11.272   8.376 -0.6076 -0.2455 -0.4782
  145MOL0     C19467   8.376  11.320   8.372  0.6283  0.4960 -0.0086
  145MOL0     C19468   8.458  11.316   8.488  0.0944 -0.1726  0.2300
  145MOL0     C19469   8.600  11.372   8.484 -0.1587 -0.3708  0.6900
  145MOL0     O19470   8.679  11.351   8.599 -0.0234 -0.2967  0.6317
  145MOL0     C19471   8.800  11.417   8.613 -0.2300 -0.3587  0.7583
  145MOL0     C19472   8.814  11.545   8.666 -0.3867 -0.3417  0.8790
  145MOL0     C19473   8.946  11.610   8.661  0.5425 -0.4428  0.1743
  145MOL0     C19474   9.055  11.551   8.602  0.5075  0.4768 -0.0435
  145MOL0     O19475   9.179  11.604   8.597 -0.6495 -0.4658 -0.3393
  145MOL0     C19476   9.215  11.734   8.652 -0.2438 -0.0076  0.8795
  145MOL0     C19477   9.368  11.745   8.654 -0.2506 -0.4752  0.4553
  145MOL0     C19478   9.425  11.871   8.732  0.7639 -0.2553  0.4385
  145MOL0     C19479   9.560  11.907   8.679 -0.7774  0.7324 -0.1338
  145MOL0     C19480   9.601  12.051   8.661  0.1184  0.1624  0.0140
  145MOL0     C19481   9.732  12.062   8.585 -0.3301 -0.0556 -0.0455
  145MOL0     C19482   9.790  12.210   8.584  0.9796 -0.6285 -0.1812
  145MOL0     C19483   9.926  12.207   8.525 -0.1808 -0.2834 -0.3030
  145MOL0    Cl19484  10.049  12.123   8.621  0.2869  0.1649  0.4950
  145MOL0     C19485   9.044  11.420   8.555 -0.0978 -0.9618 -0.0741
  145MOL0     C19486   8.918  11.358   8.568  0.3676 -0.7459  0.2369
  145MOL0     O19487   8.642  11.432   8.385  0.1438  0.0544  0.2632
  145MOL0     C19488   8.407  11.241   8.598  0.1594  0.1849  0.0227
  145MOL0     C19489   8.267  11.200   8.608  0.1049 -0.5408  0.2108
  145MOL0     N19490   7.563  11.266   8.697  0.0939  0.2560  1.0755
  145MOL0     N19491   7.492  11.234   8.797  0.3311 -0.3431 -0.3821
  145MOL0     C19492   6.427  10.679   8.399  0.2510  0.9650  0.8155
  145MOL0     C19493   6.310  10.603   8.407 -0.2930  0.2619  0.0692
  145MOL0     C19494   5.920  10.435   8.335 -0.6269 -0.8954 -0.2477
  145MOL0     C19495   5.889  10.364   8.451 -0.2409 -0.5690  0.5693
  145MOL0     C19496   5.801  10.257   8.446 -0.8186  0.0740 -0.7904
  145MOL0     C19497   5.728  10.219   8.340  0.8996  0.5801 -0.1155
  145MOL0     O19498   5.633  10.113   8.334 -0.4114 -0.1341  0.2047
  145MOL0     C19499   5.587  10.039   8.449  0.7205  0.5753  0.6375
  145MOL0     C19500   5.466   9.961   8.417 -0.1351 -0.2065 -0.2656
  145MOL0     C19501   5.388   9.912   8.540  0.6360  0.2908 -0.4387
  145MOL0     C19502   5.257   9.836   8.497 -0.3220  0.0532  0.6346
  145MOL0     C19503   5.204   9.765   8.613 -0.0265 -0.0362  0.2544
  145MOL0     C19504   5.153   9.720   8.712 -0.0567  0.2018  0.4003
  145MOL0     C19505   5.761  10.282   8.224  0.2094  0.6838 -0.7249
  145MOL0     C19506   5.856  10.386   8.217  0.5039 -0.6134  0.0480
  145MOL0     C19507   5.867  10.467   8.084  0.2356  0.3919 -1.0433
  145MOL0     H19508   6.105  10.814   8.574  1.7512 -0.7402  3.6817
  145MOL0     H19509   6.307  10.952   8.572  1.0735 -1.3805  2.2535
  145MOL0     H19510   6.506  11.083   8.545 -1.7343 -1.0512 -0.0158
  145MOL0     H19511   6.507  10.958   8.670  1.9788  1.9421  1.4004
  145MOL0     H19512   6.708  11.124   8.645 -2.1632  0.8853 -0.6848
  145MOL0     H19513   6.747  11.055   8.490 -2.8995 -0.6935 -0.6414
  145MOL0     H19514   6.805  10.841   8.604 -0.1704 -1.2220  1.6718
  145MOL0     H19515   6.734  10.902   8.752  1.8076 -0.5515  0.5952
  145MOL0     H19516   6.977  11.021   8.625 -1.4709  0.0443 -1.1003
  145MOL0     H19517   6.902  11.093   8.760 -0.6183  1.0146 -1.6726
  145MOL0     H19518   6.932  10.868   8.897 -0.0561 -1.5977 -0.7821
  145MOL0     H19519   7.008  10.808   8.755  0.6308  0.1145  0.4094
  145MOL0     H19520   7.090  11.036   8.938  1.0469 -0.5839  0.9915
  145MOL0     H19521   7.174  10.879   8.916  0.4187 -1.0268  0.8245
  145MOL0     H19522   7.172  11.111   8.731 -2.6928 -1.8831 -3.0860
  145MOL0     H19523   7.228  10.943   8.686 -2.5846 -1.2620  0.3227
  145MOL0     H19524   7.340  11.107   8.943  3.8531 -2.1587  1.9171
  145MOL0     H19525   7.386  10.945   8.874  0.8839 -0.6056 -0.5465
  145MOL0     H19526   7.491  10.959   8.625  0.3559  0.6469 -1.2822
  145MOL0     H19527   7.613  11.065   8.440 -2.6350  0.6126 -0.8539
  145MOL0     H19528   7.587  11.242   8.414 -0.1024  0.5326  0.4175
  145MOL0     H19529   7.828  11.165   8.389 -0.6301 -3.0732  0.3086
  145MOL0     H19530   7.787  11.305   8.504 -2.0168 -0.7332  3.4989
  145MOL0     H19531   7.840  11.017   8.590  3.3603 -0.3191 -0.0468
  145MOL0     H19532   7.802  11.167   8.693  2.4898  0.4031  0.5911
  145MOL0     H19533   8.031  11.098   8.693  1.3729  1.9533  1.6049
  145MOL0     H19534   7.995  11.267   8.665  0.4252 -0.6202  0.4236
  145MOL0     H19535   8.198  11.280   8.278  1.5580 -1.0780 -1.6681
  145MOL0     H19536   8.417  11.357   8.279  1.4980 -1.3857 -0.4212
  145MOL0     H19537   8.725  11.596   8.702 -0.7928  0.8142 -1.5510
  145MOL0     H19538   8.953  11.711   8.699 -0.5802 -0.0606 -0.5873
  145MOL0     H19539   9.169  11.813   8.592  0.3604 -0.2601  0.0603
  145MOL0     H19540   9.175  11.742   8.753 -1.7066  1.9486  0.1999
  145MOL0     H19541   9.410  11.653   8.696  1.8880  0.7837  1.1999
  145MOL0     H19542   9.393  11.747   8.548 -2.9397  1.1880 -0.2622
  145MOL0     H19543   9.354  11.954   8.722  0.2125 -0.7722 -0.0708
  145MOL0     H19544   9.413  11.841   8.836 -4.1695 -0.4224  0.0512
  145MOL0     H19545   9.581  11.847   8.589  2.3810  0.3524  0.7407
  145MOL0     H19546   9.627  11.872   8.758 -1.9758  0.0935  0.6250
  145MOL0     H19547   9.632  12.089   8.759  4.6305 -1.4998 -0.5406
  145MOL0     H19548   9.526  12.104   8.601  0.5730 -1.8760 -2.5291
  145MOL0     H19549   9.805  12.001   8.637 -2.4009 -1.5324  1.2583
  145MOL0     H19550   9.713  12.024   8.484 -1.7802  2.0685 -0.6615
  145MOL0     H19551   9.787  12.228   8.692 -1.8378  0.8914 -0.3949
  145MOL0     H19552   9.730  12.289   8.537  0.7966 -1.9956 -2.3953
  145MOL0     H19553   9.934  12.146   8.434  0.6796  1.4483 -1.4452
  145MOL0     H19554   9.971  12.306   8.513 -1.2720  0.0761 -1.6764
  145MOL0     H19555   9.119  11.371   8.494 -1.2373  1.3349 -3.6203
  145MOL0     H19556   8.895  11.261   8.525 -1.1209  0.2133 -1.2545
  145MOL0     H19557   8.467  11.210   8.683  0.6587 -1.4378 -0.9041
  145MOL0     H19558   8.236  11.156   8.703 -0.6677 -1.7836 -0.5888
  145MOL0     H19559   6.518  10.640   8.354 -0.5661 -3.3218  2.3892
  145MOL0     H19560   6.305  10.504   8.363 -0.1181 -0.2838  1.2259
  145MOL0     H19561   5.922  10.402   8.548 -1.4506  3.9827 -0.5585
  145MOL0     H19562   5.771  10.207   8.538  0.3279  1.6695  0.5021
  145MOL0     H19563   5.570  10.116   8.525  0.7046  0.0982  1.1188
  145MOL0     H19564   5.661   9.979   8.503 -1.1892 -0.6830  2.0045
  145MOL0     H19565   5.495   9.879   8.352  1.7419  0.6488 -0.5635
  145MOL0     H19566   5.400  10.023   8.356 -0.9017  0.2337  0.9658
  145MOL0     H19567   5.360   9.993   8.608  1.4024  1.2110 -1.1929
  145MOL0     H19568   5.453   9.842   8.593 -1.3266 -0.8670  0.5764
  145MOL0     H19569   5.181   9.908   8.463  3.2150  2.2554 -3.5692
  145MOL0     H19570   5.274   9.759   8.422  0.9111 -1.4218  2.3458
  145MOL0     H19571   5.102   9.689   8.801  0.5637  0.0919  0.7203
  145MOL0     H19572   5.699  10.255   8.139 -1.0285  2.4216 -0.4247
  145MOL0     H19573   5.801  10.419   8.011 -1.0803 -0.9247  0.8814
  145MOL0     H19574   5.823  10.563   8.114 -1.7170  0.3049 -3.3090
  145MOL0     H19575   5.967  10.461   8.041  0.3052  2.8616 -1.3763
  146MOL0     O19576   4.337  10.975   2.045 -0.3085  0.1772 -0.9591
  146MOL0     C19577   4.360  10.854   2.066 -0.1248  0.1960 -0.1633
  146MOL0     O19578   4.270  10.749   2.029 -0.3172 -0.9411  0.6700
  146MOL0     C19579   4.156  10.796   1.956  0.0784 -0.1902  0.1389
  146MOL0     C19580   4.162  10.844   1.826 -0.3161  0.2944  0.2063
  146MOL0     C19581   4.055  10.909   1.766  0.3209 -0.0253 -0.0781
  146MOL0     C19582   3.929  10.916   1.830  1.0576  0.3581 -0.4422
  146MOL0     O19583   3.824  10.981   1.774  0.0913 -0.3468  0.1037
  146MOL0     C19584   3.857  11.097   1.693 -0.5465  0.3978  0.5554
  146MOL0     C19585   3.748  11.204   1.701  0.3754 -0.5866 -0.6114
  146MOL0     C19586   3.616  11.159   1.627 -0.4529 -0.3377 -0.7180
  146MOL0     C19587   3.513  11.272   1.620 -0.3144 -0.3315 -0.8096
  146MOL0     C19588   3.376  11.224   1.575  0.2611 -0.6565  0.2099
  146MOL0     C19589   3.293  11.337   1.570 -0.3968 -0.2285  0.0978
  146MOL0     C19590   3.156  11.278   1.513 -0.1479 -0.3168  0.3255
  146MOL0     C19591   3.048  11.375   1.544 -0.2279  0.2796  0.1740
  146MOL0     N19592   2.910  11.318   1.514 -0.1022  0.3254  0.3565
  146MOL0     C19593   2.787  11.364   1.558  0.0338  0.0546 -0.2322
  146MOL0     C19594   2.689  11.277   1.525 -0.9437 -0.8592 -0.3511
  146MOL0     C19595   2.546  11.268   1.572 -0.0305 -0.1839  0.5125
  146MOL0     C19596   2.535  11.210   1.716  0.9531  0.1801  0.6285
  146MOL0     C19597   2.391  11.204   1.777  0.0711 -0.3765  0.3174
  146MOL0     C19598   2.377  11.194   1.927 -0.0792  0.3004  0.7424
  146MOL0     O19599   2.481  11.111   1.971 -0.5775 -0.0636 -0.6781
  146MOL0     C19600   2.480  11.079   2.104 -0.7648  0.1192 -0.2597
  146MOL0     C19601   2.584  10.989   2.155  0.3348  0.2597  0.0377
  146MOL0     C19602   2.587  10.944   2.284 -0.1151  1.3266 -1.3146
  146MOL0     C19603   2.503  11.000   2.384 -0.5598 -0.0593  0.2283
  146MOL0     C19604   2.519  10.952   2.521  0.7935  0.8043  0.1326
  146MOL0     O19605   2.590  10.838   2.534  0.5224  0.1066  0.2652
  146MOL0     C19606   2.638  10.794   2.657  0.1014 -0.6538 -0.8105
  146MOL0     C19607   2.782  10.813   2.674 -0.0006  0.3457 -0.4960
  146MOL0     C19608   2.847  10.786   2.797  0.2305 -0.2244  0.8062
  146MOL0     C19609   2.768  10.762   2.913 -0.0354  0.3411  0.6574
  146MOL0     O19610   2.845  10.748   3.023 -0.9229  0.2746  0.4557
  146MOL0     C19611   2.776  10.718   3.142  0.6219 -0.6317  0.2531
  146MOL0     C19612   2.865  10.685   3.264 -0.6937 -0.5442 -0.0013
  146MOL0     C19613   2.937  10.549   3.246  0.3637 -0.5227 -0.4103
  146MOL0     C19614   3.050  10.552   3.151 -0.8030 -0.7295  0.3804
  146MOL0     C19615   3.125  10.413   3.137  0.6125  0.1110 -0.7182
  146MOL0     C19616   3.254  10.428   3.038  0.1662 -0.3678  0.1243
  146MOL0     C19617   3.374  10.502   3.091  0.3973 -0.0841  0.2187
  146MOL0     C19618   3.502  10.518   2.999  0.4712  0.7225 -0.2202
  146MOL0    Cl19619   3.661  10.541   3.077  0.2643  0.4143 -0.5301
  146MOL0     C19620   2.625  10.742   2.899  0.6660  0.2834  0.1420
  146MOL0     C19621   2.567  10.751   2.774 -0.8788 -0.8109  0.1525
  146MOL0     O19622   2.463  11.010   2.611 -0.1667  0.1909  0.3332
  146MOL0     C19623   2.412  11.106   2.345  0.2692  1.3780  0.0844
  146MOL0     C19624   2.403  11.139   2.207 -0.4743  1.0903  0.2540
  146MOL0     N19625   2.758  11.179   1.455  0.6303  0.5328  0.4884
  146MOL0     N19626   2.888  11.199   1.443  0.5303  0.1470 -0.2261
  146MOL0     C19627   3.911  10.858   1.954 -0.5974  0.1367 -0.6027
  146MOL0     C19628   4.026  10.797   2.020  0.4037 -0.1994 -0.1267
  146MOL0     C19629   4.482  10.805   2.140 -0.4364  0.3436 -0.1883
  146MOL0     C19630   4.513  10.670   2.134 -0.2950 -0.3412  0.4309
  146MOL0     C19631   4.634  10.620   2.187  0.6842  0.0517  0.2601
  146MOL0     C19632   4.725  10.690   2.268  0.1756 -0.9769  0.2273
  146MOL0     O19633   4.820  10.621   2.338  0.2847 -0.3291 -0.5147
  146MOL0     C19634   4.845  10.658   2.478 -0.4261  0.4648 -0.6955
  146MOL0     C19635   4.940  10.549   2.541  0.4549 -0.5863 -0.7327
  146MOL0     C19636   4.902  10.407   2.492  0.7817  0.3154  0.2736
  146MOL0     C19637   4.959  10.296   2.576  0.2455  0.3213  0.2614
  146MOL0     C19638   5.105  10.287   2.567  0.8389  0.0687  0.1513
  146MOL0     C19639   5.224  10.282   2.552  0.1321  0.3161 -0.4761
  146MOL0     C19640   4.691  10.831   2.271 -0.2871  0.2141 -0.0526
  146MOL0     C19641   4.570  10.884   2.215  0.1108 -0.0093  0.2613
  146MOL0     C19642   4.543  11.033   2.235  0.6609 -0.3278  0.2458
  146MOL0     H19643   4.259  10.839   1.778  1.0459  2.1644  2.5260
  146MOL0     H19644   4.084  10.949   1.669  3.0980 -1.3424  0.1447
  146MOL0     H19645   3.945  11.151   1.729  1.1520 -2.2404  0.6353
  146MOL0     H19646   3.877  11.070   1.589  2.6246  1.2437  0.8579
  146MOL0     H19647   3.789  11.301   1.673 -1.9788  0.4987 -0.6085
  146MOL0     H19648   3.714  11.205   1.805  0.3840  0.8385 -0.6122
  146MOL0     H19649   3.571  11.070   1.672  2.2763 -0.9822  0.9589
  146MOL0     H19650   3.650  11.125   1.529 -0.8808 -1.3240 -0.5369
  146MOL0     H19651   3.511  11.321   1.717  0.1898  2.4743 -2.1121
  146MOL0     H19652   3.551  11.356   1.560  3.5299  1.7634  3.8330
  146MOL0     H19653   3.393  11.173   1.479 -1.7038 -0.2973 -0.3621
  146MOL0     H19654   3.337  11.142   1.637  1.9509 -1.4582  0.2704
  146MOL0     H19655   3.277  11.377   1.670 -0.9780 -0.7936  0.2380
  146MOL0     H19656   3.332  11.424   1.516 -1.8924 -0.0634 -0.7544
  146MOL0     H19657   3.149  11.180   1.562  2.1039 -2.1542 -2.6795
  146MOL0     H19658   3.166  11.260   1.406  0.0816 -1.4933  0.5305
  146MOL0     H19659   3.049  11.395   1.651  0.0475  1.6762 -0.0605
  146MOL0     H19660   3.065  11.465   1.483 -0.4169 -1.4550 -2.5864
  146MOL0     H19661   2.760  11.444   1.626 -0.8767  1.4971 -2.2187
  146MOL0     H19662   2.488  11.360   1.559 -0.1434 -0.4306 -0.9612
  146MOL0     H19663   2.503  11.190   1.509 -1.0864  1.9635 -1.6181
  146MOL0     H19664   2.555  11.103   1.716  1.6047  0.2956  0.3823
  146MOL0     H19665   2.604  11.260   1.785  2.4672 -3.0746  1.6562
  146MOL0     H19666   2.345  11.118   1.729  0.0517  0.2148 -0.7509
  146MOL0     H19667   2.337  11.296   1.753  0.7816 -0.8339 -3.7835
  146MOL0     H19668   2.281  11.142   1.933 -0.2802  0.2708 -1.6555
  146MOL0     H19669   2.367  11.287   1.984 -2.0841 -0.8730  2.4688
  146MOL0     H19670   2.664  10.950   2.093 -0.0895  0.7193 -0.8092
  146MOL0     H19671   2.653  10.862   2.309 -2.6044 -0.0699  1.2997
  146MOL0     H19672   2.832  10.866   2.594  1.5595  0.3253  0.4132
  146MOL0     H19673   2.954  10.799   2.810  0.7392 -4.4765  2.5867
  146MOL0     H19674   2.721  10.805   3.178  3.0589  2.7131 -3.2587
  146MOL0     H19675   2.700  10.643   3.122 -0.1839 -0.6982  3.1408
  146MOL0     H19676   2.942  10.760   3.284 -0.2173 -0.9615 -0.2323
  146MOL0     H19677   2.796  10.686   3.349 -0.2161  2.3595  0.4474
  146MOL0     H19678   2.962  10.525   3.350 -2.0917 -1.7098 -0.0147
  146MOL0     H19679   2.857  10.484   3.210 -0.5102  0.8832 -1.0858
  146MOL0     H19680   3.127  10.619   3.192 -0.3425 -1.4342  0.6759
  146MOL0     H19681   3.025  10.576   3.047 -1.6568  0.6705  0.8743
  146MOL0     H19682   3.057  10.334   3.103 -0.8165  0.6893  0.6552
  146MOL0     H19683   3.157  10.389   3.239  1.9081 -1.6921 -1.5018
  146MOL0     H19684   3.287  10.328   3.009  2.0433 -1.0679  4.0103
  146MOL0     H19685   3.211  10.479   2.952  1.1254  1.6859  0.8019
  146MOL0     H19686   3.399  10.437   3.176  1.2753  0.5761  0.4862
  146MOL0     H19687   3.337  10.597   3.131 -0.8331 -1.2007  1.9031
  146MOL0     H19688   3.508  10.434   2.930  1.1532  1.3945 -1.0028
  146MOL0     H19689   3.481  10.604   2.935  0.5720 -1.0662 -2.8211
  146MOL0     H19690   2.560  10.715   2.982  0.6643  1.7553  0.6490
  146MOL0     H19691   2.460  10.738   2.772 -0.8447 -1.1443  0.3740
  146MOL0     H19692   2.345  11.148   2.419 -0.5366 -3.6360  2.6229
  146MOL0     H19693   2.348  11.228   2.178  0.9805  1.7636 -0.5708
  146MOL0     H19694   3.812  10.866   1.997 -1.1512  0.2649 -1.8460
  146MOL0     H19695   4.015  10.756   2.120 -0.6635  1.3461  0.4214
  146MOL0     H19696   4.459  10.587   2.090 -0.2843 -0.3157  0.3663
  146MOL0     H19697   4.662  10.516   2.177 -1.3222 -0.4571 -0.5814
  146MOL0     H19698   4.750  10.652   2.531 -0.2254  0.5909 -0.3160
  146MOL0     H19699   4.888  10.759   2.485 -1.0175  0.8467 -2.1095
  146MOL0     H19700   4.925  10.552   2.650 -0.4339  1.0049 -0.8645
  146MOL0     H19701   5.045  10.561   2.513  2.4728 -3.9126  3.8947
  146MOL0     H19702   4.926  10.392   2.386 -1.4269  0.4985 -0.3046
  146MOL0     H19703   4.793  10.412   2.490  0.7381 -0.2104 -1.8289
  146MOL0     H19704   4.931  10.312   2.681 -2.2378 -0.6636 -0.2043
  146MOL0     H19705   4.912  10.205   2.539  1.7100 -1.5067  2.6031
  146MOL0     H19706   5.330  10.288   2.540 -0.1119  1.6695 -2.5849
  146MOL0     H19707   4.756  10.904   2.319  1.4622  0.1859 -2.2365
  146MOL0     H19708   4.436  11.058   2.236  0.6948  0.9950 -4.5645
  146MOL0     H19709   4.592  11.074   2.323 -0.2170  1.8945 -0.2130
  146MOL0     H19710   4.565  11.094   2.147  0.9603  1.0767  1.2674
  147MOL0     O19711   0.758   3.584   0.423 -0.6456 -0.0684  0.2699
  147MOL0     C19712   0.847   3.549   0.498  0.4875  0.6982  0.5505
  147MOL0     O19713   0.830   3.461   0.606 -1.0656 -0.4108  0.4444
  147MOL0     C19714   0.711   3.433   0.671  0.3186 -0.2758  0.4714
  147MOL0     C19715   0.722   3.337   0.772  0.0945  0.6283  0.9766
  147MOL0     C19716   0.608   3.310   0.855 -0.3276  0.7422 -0.2949
  147MOL0     C19717   0.481   3.377   0.845 -0.5469  0.2775 -0.2982
  147MOL0     O19718   0.383   3.343   0.929  0.0148  0.3110 -0.3622
  147MOL0     C19719   0.246   3.378   0.908 -0.4517 -0.2441  0.4575
  147MOL0     C19720   0.174   3.312   0.787 -0.0039 -0.1568  0.3492
  147MOL0     C19721   0.025   3.278   0.822 -0.9278 -0.2594 -0.4048
  147MOL0     C19722  -0.051   3.246   0.693 -0.1387  0.2613  0.0294
  147MOL0     C19723  -0.202   3.239   0.723  1.1380 -0.3603  0.5165
  147MOL0     C19724  -0.276   3.235   0.587  0.3556  0.1156 -0.4021
  147MOL0     C19725  -0.426   3.222   0.628 -0.0219 -1.0565 -0.7548
  147MOL0     C19726  -0.520   3.266   0.511 -0.0344  0.4730 -0.2228
  147MOL0     N19727  -0.519   3.154   0.413 -0.1786 -0.2439 -0.5894
  147MOL0     C19728  -0.608   3.043   0.422 -0.4096 -1.3151  0.1210
  147MOL0     C19729  -0.592   2.986   0.300  0.4100  0.5600  0.4126
  147MOL0     C19730  -0.678   2.870   0.250  0.0005  0.1067 -0.8062
  147MOL0     C19731  -0.783   2.908   0.142  0.4633  0.4743  0.0276
  147MOL0     C19732  -0.832   2.783   0.060 -0.5146  0.1694 -0.3640
  147MOL0     C19733  -0.942   2.823  -0.040 -0.5884  0.9137  0.5086
  147MOL0     O19734  -1.058   2.875   0.030 -1.0979  0.4170 -0.4365
  147MOL0     C19735  -1.149   2.787   0.085  0.1204 -0.3528 -1.7465
  147MOL0     C19736  -1.252   2.849   0.150  0.0493 -0.2147  0.0317
  147MOL0     C19737  -1.361   2.776   0.211  0.3740  0.1154 -0.7883
  147MOL0     C19738  -1.366   2.636   0.194  0.1998 -0.2800  0.9431
  147MOL0     C19739  -1.484   2.552   0.244  0.0493 -0.1587 -0.9242
  147MOL0     O19740  -1.572   2.629   0.315  0.8352  0.0081 -0.3003
  147MOL0     C19741  -1.655   2.554   0.395  0.2537  0.4458  0.3023
  147MOL0     C19742  -1.790   2.577   0.405  0.1407 -0.1898  0.1209
  147MOL0     C19743  -1.869   2.515   0.508  0.4398  0.0747 -1.0370
  147MOL0     C19744  -1.815   2.417   0.592  0.4087  0.6289 -0.0876
  147MOL0     O19745  -1.907   2.362   0.680  0.4579  0.1309  0.0839
  147MOL0     C19746  -1.859   2.241   0.747  0.0310 -0.6663 -0.3766
  147MOL0     C19747  -1.972   2.165   0.829  0.3924  1.1031 -0.3265
  147MOL0     C19748  -2.062   2.245   0.914 -0.5719  0.4003 -0.0117
  147MOL0     C19749  -2.003   2.300   1.041 -0.8237  0.9892 -0.6429
  147MOL0     C19750  -2.096   2.404   1.118 -0.1850  0.0733  0.7987
  147MOL0     C19751  -2.240   2.355   1.144  0.1679 -0.2361 -0.2396
  147MOL0     C19752  -2.332   2.391   1.027  1.0915 -0.4430 -0.3741
  147MOL0     C19753  -2.450   2.467   1.085 -0.5093  0.2514  1.3083
  147MOL0    Cl19754  -2.413   2.614   1.173 -0.2130  0.1631 -0.0920
  147MOL0     C19755  -1.677   2.397   0.579 -0.4847  0.1594  0.8452
  147MOL0     C19756  -1.601   2.466   0.490 -0.7166  0.3385  0.5610
  147MOL0     O19757  -1.487   2.425   0.233 -0.2794 -0.4199  0.8645
  147MOL0     C19758  -1.255   2.574   0.129 -0.1472 -0.1169  0.0524
  147MOL0     C19759  -1.149   2.648   0.075 -0.0714  0.5838  0.3164
  147MOL0     N19760  -0.495   3.048   0.230 -0.1326  0.5995  0.1972
  147MOL0     N19761  -0.455   3.152   0.302  0.3838  0.4008  0.5978
  147MOL0     C19762   0.481   3.478   0.743 -0.2440 -0.7714 -0.5461
  147MOL0     C19763   0.590   3.501   0.657 -0.3590 -0.0250  0.2616
  147MOL0     C19764   0.986   3.593   0.462 -0.5055 -0.2767 -0.1273
  147MOL0     C19765   1.096   3.515   0.515 -0.1217  0.1006  0.4308
  147MOL0     C19766   1.228   3.544   0.483 -0.6824  0.4828  0.0103
  147MOL0     C19767   1.260   3.653   0.405  0.6811 -0.6438 -0.0650
  147MOL0     O19768   1.392   3.667   0.375 -0.2813 -0.5115  0.0075
  147MOL0     C19769   1.447   3.794   0.330 -0.3197  0.9085  0.7167
  147MOL0     C19770   1.595   3.797   0.368 -1.1077 -0.4692 -0.8149
  147MOL0     C19771   1.692   3.721   0.271 -0.3982 -0.3566  0.3743
  147MOL0     C19772   1.701   3.799   0.146 -0.1130 -0.1777  0.4720
  147MOL0     C19773   1.800   3.724   0.058  0.5357 -1.3166 -0.4469
  147MOL0     C19774   1.875   3.670  -0.023 -0.6424  0.4509  0.1625
  147MOL0     C19775   1.153   3.727   0.357 -0.0385 -0.5701  0.1157
  147MOL0     C19776   1.019   3.706   0.386  0.7754  0.3995 -0.6790
  147MOL0     C19777   0.923   3.813   0.343 -0.2766  0.1153 -0.1855
  147MOL0     H19778   0.815   3.283   0.786 -0.3397 -0.8698 -1.3266
  147MOL0     H19779   0.626   3.239   0.936 -2.2759 -0.7594 -1.0916
  147MOL0     H19780   0.193   3.341   0.996  1.6252 -1.8320  1.1365
  147MOL0     H19781   0.238   3.487   0.902  1.6770  0.0051  1.1549
  147MOL0     H19782   0.226   3.221   0.758 -0.0503 -0.4249  1.0950
  147MOL0     H19783   0.180   3.386   0.706  0.1033 -0.8668 -0.2979
  147MOL0     H19784  -0.020   3.357   0.883  0.8575 -0.8608  1.8130
  147MOL0     H19785   0.026   3.189   0.885  0.7199 -0.6213 -0.9058
  147MOL0     H19786  -0.045   3.321   0.614 -2.7624 -1.1494 -1.6780
  147MOL0     H19787  -0.018   3.151   0.649 -0.3454  0.5644 -0.8001
  147MOL0     H19788  -0.226   3.151   0.784 -2.3026  0.0620 -0.0240
  147MOL0     H19789  -0.226   3.321   0.791 -0.8194 -1.8108  1.6705
  147MOL0     H19790  -0.258   3.335   0.546 -1.2479 -0.1382 -1.8212
  147MOL0     H19791  -0.239   3.150   0.529 -0.1073 -0.0004 -0.5301
  147MOL0     H19792  -0.451   3.279   0.718 -0.0103  1.1576 -2.0732
  147MOL0     H19793  -0.443   3.119   0.659  0.2662 -1.7503 -2.7440
  147MOL0     H19794  -0.618   3.301   0.543 -0.4880 -1.9499  1.2331
  147MOL0     H19795  -0.471   3.350   0.460  1.4255  1.1437  2.1038
  147MOL0     H19796  -0.671   3.024   0.508  1.7721  0.8727  2.3583
  147MOL0     H19797  -0.611   2.791   0.215  0.0863  0.4622 -1.4592
  147MOL0     H19798  -0.716   2.824   0.342  1.2504 -0.2336 -0.4311
  147MOL0     H19799  -0.872   2.940   0.197 -0.1835 -2.2500  0.6839
  147MOL0     H19800  -0.744   2.982   0.071  0.8415  0.3297  0.0849
  147MOL0     H19801  -0.866   2.714   0.138  1.3262 -3.2403 -2.3233
  147MOL0     H19802  -0.746   2.737   0.009  1.0224  1.4586  0.9370
  147MOL0     H19803  -0.952   2.736  -0.106  2.4881  0.1580  0.8837
  147MOL0     H19804  -0.902   2.900  -0.108  2.4736 -0.4826  0.5813
  147MOL0     H19805  -1.253   2.958   0.141 -3.0812 -0.3119 -3.4284
  147MOL0     H19806  -1.429   2.829   0.277  0.8776  1.0090 -0.9668
  147MOL0     H19807  -1.831   2.658   0.346  2.5318  2.6621  2.0629
  147MOL0     H19808  -1.968   2.555   0.525  1.2050  1.0520  1.8285
  147MOL0     H19809  -1.819   2.168   0.676 -2.5264 -1.2608 -1.3279
  147MOL0     H19810  -1.776   2.276   0.809 -1.3800  4.4810 -0.9009
  147MOL0     H19811  -2.034   2.104   0.763  0.6074  2.3447 -1.7520
  147MOL0     H19812  -1.926   2.095   0.898 -2.7649  0.7017  1.5393
  147MOL0     H19813  -2.089   2.326   0.845 -1.2408  1.7582  1.7632
  147MOL0     H19814  -2.150   2.183   0.937 -0.5669  0.6906  0.8089
  147MOL0     H19815  -1.901   2.339   1.028  0.9947 -1.9411  3.0039
  147MOL0     H19816  -1.981   2.211   1.101 -0.0979  2.7878  1.9077
  147MOL0     H19817  -2.102   2.497   1.061 -4.2921 -1.4513 -1.7194
  147MOL0     H19818  -2.046   2.421   1.213 -1.3454 -0.2465  1.4857
  147MOL0     H19819  -2.242   2.247   1.159 -0.6728 -0.0202  1.4570
  147MOL0     H19820  -2.273   2.390   1.242 -2.0121 -3.4154  0.3317
  147MOL0     H19821  -2.344   2.291   0.984  3.9306 -1.6282  1.3211
  147MOL0     H19822  -2.285   2.458   0.954  0.2750  0.2227 -0.3175
  147MOL0     H19823  -2.525   2.486   1.008 -1.8774 -0.3734  2.4400
  147MOL0     H19824  -2.490   2.398   1.160 -1.3526  0.2177  0.8386
  147MOL0     H19825  -1.617   2.346   0.653  3.2166  0.9948 -1.2989
  147MOL0     H19826  -1.494   2.455   0.495 -0.7376 -0.8983 -0.8217
  147MOL0     H19827  -1.248   2.467   0.112  0.1155  0.0999 -1.3672
  147MOL0     H19828  -1.068   2.594   0.028 -0.2252 -1.2330  2.0001
  147MOL0     H19829   0.389   3.530   0.717  1.1017  0.0860 -4.2557
  147MOL0     H19830   0.569   3.580   0.586 -0.7435  2.0040  2.4843
  147MOL0     H19831   1.082   3.425   0.574 -2.5068  1.3622  1.9436
  147MOL0     H19832   1.312   3.480   0.508 -2.6393 -2.4273 -0.4374
  147MOL0     H19833   1.388   3.884   0.351  2.3780  3.9367 -3.0686
  147MOL0     H19834   1.441   3.783   0.221 -1.3687 -2.9601  1.0289
  147MOL0     H19835   1.610   3.751   0.466  0.5555  1.2345 -0.1993
  147MOL0     H19836   1.630   3.901   0.370 -0.3913 -0.7053 -0.5814
  147MOL0     H19837   1.654   3.621   0.247 -0.1157  0.1020 -2.2526
  147MOL0     H19838   1.789   3.698   0.314 -1.4394 -2.8192  1.6175
  147MOL0     H19839   1.613   3.797   0.081 -0.0424  4.0097 -0.0000
  147MOL0     H19840   1.739   3.901   0.154  1.3591 -0.7642  1.2977
  147MOL0     H19841   1.942   3.620  -0.090 -1.9538  1.1682 -1.8066
  147MOL0     H19842   1.176   3.805   0.285 -0.7059  0.7000  1.2314
  147MOL0     H19843   0.861   3.856   0.423 -0.1239 -0.2467  0.1294
  147MOL0     H19844   0.972   3.897   0.293  0.4302 -1.5551 -2.4628
  147MOL0     H19845   0.850   3.769   0.275 -1.7843  0.9713  0.8307
  148MOL0     O19846   0.544   6.994   7.067 -0.1697  0.1832 -0.3222
  148MOL0     C19847   0.448   6.934   7.013 -1.2519 -0.1010  0.1622
  148MOL0     O19848   0.457   6.885   6.882  0.2571 -0.0152  0.1147
  148MOL0     C19849   0.555   6.924   6.797  0.2200  0.2211 -0.2575
  148MOL0     C19850   0.646   6.826   6.745  0.3216 -0.3508 -0.3086
  148MOL0     C19851   0.755   6.866   6.673 -0.4840  0.6948 -0.2468
  148MOL0     C19852   0.790   7.001   6.665 -0.4423 -0.3578 -0.2900
  148MOL0     O19853   0.890   7.047   6.590 -0.0350 -0.1435 -0.2511
  148MOL0     C19854   0.999   7.095   6.671  0.1326 -0.3098  0.5576
  148MOL0     C19855   1.109   6.983   6.665  0.4628 -0.3086 -0.1991
  148MOL0     C19856   1.241   7.024   6.710 -0.1569 -0.7857  0.3662
  148MOL0     C19857   1.244   7.037   6.859 -0.0803 -0.1977  0.0151
  148MOL0     C19858   1.367   7.100   6.908 -0.5000 -0.2510  0.5048
  148MOL0     C19859   1.365   7.146   7.052  0.0301 -0.0180  0.2075
  148MOL0     C19860   1.359   7.023   7.146 -0.1927 -0.4266 -0.4566
  148MOL0     C19861   1.352   7.070   7.294 -0.8508  0.4057  0.6038
  148MOL0     N19862   1.336   6.947   7.377 -0.2107 -0.4948 -0.6285
  148MOL0     C19863   1.445   6.866   7.411  0.5618  0.0208 -0.3215
  148MOL0     C19864   1.411   6.781   7.506  1.2995 -0.1962  0.3183
  148MOL0     C19865   1.483   6.671   7.574  0.3642 -0.1605 -0.3773
  148MOL0     C19866   1.440   6.528   7.531  0.2199 -0.1109  0.8770
  148MOL0     C19867   1.490   6.420   7.621 -0.0759 -0.9593 -0.1048
  148MOL0     C19868   1.639   6.423   7.665 -0.4235 -0.2119 -0.4988
  148MOL0     O19869   1.724   6.358   7.568  0.6764  0.7621 -0.1477
  148MOL0     C19870   1.862   6.380   7.571 -0.7868 -0.0299  0.2476
  148MOL0     C19871   1.930   6.465   7.660 -0.0132 -0.2088 -0.0820
  148MOL0     C19872   2.070   6.479   7.660 -1.0245 -0.3302 -0.6018
  148MOL0     C19873   2.147   6.411   7.566 -0.6893  0.3228  0.0270
  148MOL0     C19874   2.296   6.417   7.568 -0.1746  0.0983  0.7638
  148MOL0     O19875   2.354   6.478   7.674  0.2216 -0.9243  0.0192
  148MOL0     C19876   2.490   6.489   7.692 -0.2616  0.1402  0.6625
  148MOL0     C19877   2.567   6.571   7.606 -0.3236 -0.0705 -0.3938
  148MOL0     C19878   2.701   6.583   7.632 -0.7650  0.2064  0.2173
  148MOL0     C19879   2.764   6.520   7.743 -0.5693  0.4567 -0.0472
  148MOL0     O19880   2.895   6.530   7.781  0.0114  0.5619  0.0187
  148MOL0     C19881   2.991   6.586   7.697  0.0385  0.1398  0.5783
  148MOL0     C19882   3.128   6.558   7.756 -0.1621 -0.1676 -0.6102
  148MOL0     C19883   3.146   6.601   7.904  0.1066  0.3686  0.7164
  148MOL0     C19884   3.295   6.630   7.935 -0.2944 -0.5980  0.1584
  148MOL0     C19885   3.357   6.746   7.849  0.0998 -1.6679  0.1395
  148MOL0     C19886   3.477   6.812   7.922  0.2487  0.5218 -0.0062
  148MOL0     C19887   3.591   6.718   7.952 -0.7509 -0.5672  0.9898
  148MOL0     C19888   3.642   6.645   7.825  0.1860  0.1142 -0.3150
  148MOL0    Cl19889   3.808   6.596   7.865 -0.4526 -0.6874 -0.3932
  148MOL0     C19890   2.679   6.451   7.835 -0.6514 -0.2472 -0.2827
  148MOL0     C19891   2.547   6.427   7.800  0.3022  0.6904 -0.3237
  148MOL0     O19892   2.356   6.354   7.482 -0.9580 -0.4729 -0.0458
  148MOL0     C19893   2.083   6.333   7.466  0.6111  0.5475  0.1041
  148MOL0     C19894   1.945   6.317   7.476 -0.3569 -0.2353  0.0954
  148MOL0     N19895   1.272   6.802   7.514  0.3327 -0.1250 -0.6621
  148MOL0     N19896   1.228   6.902   7.441  0.2575  0.0694 -0.0028
  148MOL0     C19897   0.695   7.088   6.711 -0.2328 -0.9824 -0.0441
  148MOL0     C19898   0.574   7.057   6.775 -0.7463 -0.5259  0.9828
  148MOL0     C19899   0.319   6.925   7.091 -0.8333  0.2389 -0.4445
  148MOL0     C19900   0.332   6.902   7.229 -0.1242  0.3744  0.5444
  148MOL0     C19901   0.213   6.884   7.303 -0.1282  0.0480  0.1447
  148MOL0     C19902   0.085   6.887   7.241 -0.0781  0.0580 -0.0379
  148MOL0     O19903  -0.019   6.851   7.324 -0.4053  0.4458  0.0855
  148MOL0     C19904  -0.149   6.840   7.263 -0.0127  0.2032  0.5310
  148MOL0     C19905  -0.234   6.961   7.233 -0.0273  0.5107  0.1545
  148MOL0     C19906  -0.266   7.047   7.359 -0.5558  0.3592 -0.2304
  148MOL0     C19907  -0.318   7.185   7.322  0.6602 -0.6978  0.1829
  148MOL0     C19908  -0.464   7.187   7.291  0.0095 -0.6196  0.2214
  148MOL0     C19909  -0.585   7.191   7.266 -0.4304 -0.4551 -0.0091
  148MOL0     C19910   0.086   6.918   7.109 -0.4731  0.9442 -0.3321
  148MOL0     C19911   0.197   6.936   7.037 -0.5103 -0.7234  0.3879
  148MOL0     C19912   0.174   6.990   6.897  0.2191 -0.4711  0.9973
  148MOL0     H19913   0.637   6.718   6.756  0.4951 -0.4007 -0.6452
  148MOL0     H19914   0.826   6.788   6.648 -0.2468 -0.5182  3.6040
  148MOL0     H19915   1.045   7.185   6.630  1.9872 -1.3428  0.2681
  148MOL0     H19916   0.960   7.122   6.770  0.4882 -0.0543  0.6285
  148MOL0     H19917   1.120   6.943   6.564  0.1843  1.4754 -0.9840
  148MOL0     H19918   1.080   6.907   6.738  0.2806  0.1838  0.2476
  148MOL0     H19919   1.260   7.124   6.670 -3.3086 -0.1249  0.2989
  148MOL0     H19920   1.312   6.948   6.675 -0.8755 -1.9183  1.3090
  148MOL0     H19921   1.156   7.093   6.893  1.3861  1.0806  1.9406
  148MOL0     H19922   1.237   6.933   6.891 -0.7459 -0.1958 -0.1159
  148MOL0     H19923   1.456   7.039   6.895 -1.1589 -0.9431 -1.0018
  148MOL0     H19924   1.396   7.190   6.853 -1.8362  0.4371  0.8794
  148MOL0     H19925   1.456   7.200   7.079  0.2126 -0.1914 -0.0487
  148MOL0     H19926   1.282   7.215   7.067 -2.3146 -2.3907 -0.9156
  148MOL0     H19927   1.439   6.952   7.125 -0.0015  0.3177 -2.5737
  148MOL0     H19928   1.265   6.973   7.122 -4.7200  4.6015  4.0273
  148MOL0     H19929   1.445   7.114   7.330  2.1371 -5.0386  0.6165
  148MOL0     H19930   1.264   7.132   7.315 -0.9183  0.1487  1.0825
  148MOL0     H19931   1.549   6.884   7.384  1.0261 -0.1538  1.2266
  148MOL0     H19932   1.591   6.687   7.563  0.4589  1.8616  2.2414
  148MOL0     H19933   1.473   6.671   7.683 -0.7955 -2.1386 -0.4403
  148MOL0     H19934   1.331   6.523   7.527  0.2034 -0.7231  1.8038
  148MOL0     H19935   1.457   6.504   7.425 -1.7417  1.2072  0.2269
  148MOL0     H19936   1.485   6.336   7.550  1.3633 -0.4909 -0.7835
  148MOL0     H19937   1.425   6.409   7.708 -1.3833  3.3686 -0.3015
  148MOL0     H19938   1.638   6.352   7.749  0.8649  0.1358 -0.1701
  148MOL0     H19939   1.676   6.518   7.705 -2.3347  0.1339  0.5755
  148MOL0     H19940   1.889   6.523   7.743  1.8826  1.2632 -0.0880
  148MOL0     H19941   2.107   6.563   7.716  1.0983 -1.0244 -0.8852
  148MOL0     H19942   2.519   6.614   7.518  0.9620 -2.5297 -2.4656
  148MOL0     H19943   2.763   6.634   7.559  0.6930 -0.9420  0.5907
  148MOL0     H19944   2.987   6.540   7.598 -3.3481 -2.8248  1.8746
  148MOL0     H19945   2.981   6.694   7.678 -0.6982  0.0583  0.4660
  148MOL0     H19946   3.148   6.451   7.745 -2.4674 -0.4671 -2.7728
  148MOL0     H19947   3.200   6.610   7.692  1.8332 -0.2149  1.4703
  148MOL0     H19948   3.080   6.688   7.913 -1.2764 -0.7949  2.1701
  148MOL0     H19949   3.108   6.521   7.967 -0.9620  1.5474  1.6045
  148MOL0     H19950   3.356   6.540   7.923 -1.0436 -0.8759 -2.1471
  148MOL0     H19951   3.290   6.661   8.039  1.2807  0.5272 -0.0534
  148MOL0     H19952   3.281   6.825   7.839  1.6086 -0.2547 -0.6683
  148MOL0     H19953   3.380   6.710   7.749  1.5943 -1.2303  0.2974
  148MOL0     H19954   3.510   6.902   7.870  0.6120  0.0721 -0.5763
  148MOL0     H19955   3.440   6.848   8.017 -1.8506  1.3845 -1.0899
  148MOL0     H19956   3.565   6.636   8.020 -0.4890 -2.0148 -0.5870
  148MOL0     H19957   3.669   6.776   8.001 -0.3632  0.8315 -1.1597
  148MOL0     H19958   3.580   6.560   7.796  1.5254 -1.0551  0.1124
  148MOL0     H19959   3.646   6.712   7.739 -3.0877 -2.9147 -3.1557
  148MOL0     H19960   2.713   6.404   7.926 -1.7089 -0.3977  0.0354
  148MOL0     H19961   2.481   6.371   7.866  1.2022  0.2771  0.2506
  148MOL0     H19962   2.144   6.276   7.396 -0.1347 -1.8839  1.3410
  148MOL0     H19963   1.887   6.255   7.408 -0.9606 -0.4692  0.8200
  148MOL0     H19964   0.703   7.193   6.687 -0.1167 -1.1472 -0.7618
  148MOL0     H19965   0.517   7.144   6.805  0.4650  1.3495 -1.6974
  148MOL0     H19966   0.425   6.886   7.283  0.7867 -1.7927 -1.5044
  148MOL0     H19967   0.219   6.863   7.410 -0.5607 -2.0972 -0.1992
  148MOL0     H19968  -0.208   6.790   7.340  0.6729  0.2470  1.0897
  148MOL0     H19969  -0.152   6.771   7.178 -6.3959 -0.5154  0.7862
  148MOL0     H19970  -0.334   6.934   7.197  0.8431 -1.5352 -0.9349
  148MOL0     H19971  -0.178   7.020   7.160 -0.6875 -1.5682 -2.1670
  148MOL0     H19972  -0.177   7.066   7.419 -1.3935 -0.1979  1.2371
  148MOL0     H19973  -0.334   6.998   7.430 -1.6204  1.9380 -0.1029
  148MOL0     H19974  -0.286   7.248   7.405 -1.4812  0.3326  0.2820
  148MOL0     H19975  -0.260   7.219   7.235  0.2452  0.0068  0.1816
  148MOL0     H19976  -0.688   7.214   7.246 -1.7497 -2.3228  3.6679
  148MOL0     H19977  -0.009   6.910   7.057  0.6551  0.7595 -2.4731
  148MOL0     H19978   0.195   6.917   6.819 -3.7941  0.1815 -0.9726
  148MOL0     H19979   0.068   7.004   6.873 -0.2213 -4.3951 -0.1006
  148MOL0     H19980   0.230   7.083   6.890 -0.5044 -0.0826  0.1887
  149MOL0     O19981   1.796   8.173  10.355  0.3447 -0.3630 -0.2496
  149MOL0     C19982   1.683   8.205  10.393  0.5629  0.1907  0.2373
  149MOL0     O19983   1.642   8.221  10.520 -0.1827 -0.4731 -0.1364
  149MOL0     C19984   1.737   8.236  10.619 -0.0535  0.9048  0.2729
  149MOL0     C19985   1.857   8.303  10.619 -0.3702 -1.0561  0.0130
  149MOL0     C19986   1.914   8.363  10.730  0.2828  0.0408  0.8802
  149MOL0     C19987   1.867   8.337  10.862  0.9387 -0.6503 -1.1036
  149MOL0     O19988   1.919   8.399  10.971  0.2317  0.5584 -0.8723
  149MOL0     C19989   2.032   8.327  11.029  0.5350  0.1985  0.4392
  149MOL0     C19990   2.099   8.421  11.130  0.1176 -0.1368  0.0061
  149MOL0     C19991   2.191   8.523  11.054  0.6383 -0.1359 -0.1391
  149MOL0     C19992   2.286   8.598  11.156  0.1007 -0.2743  0.1468
  149MOL0     C19993   2.351   8.713  11.089  0.1388 -0.2898 -0.5124
  149MOL0     C19994   2.458   8.775  11.174 -0.3986 -0.1467  0.4848
  149MOL0     C19995   2.585   8.690  11.173  0.0986  0.0309 -0.2847
  149MOL0     C19996   2.708   8.743  11.241  0.1731 -1.1635 -0.7082
  149MOL0     N19997   2.797   8.838  11.173  0.1566 -0.1882 -0.4818
  149MOL0     C19998   2.905   8.902  11.239 -0.4147 -0.1221  0.1282
  149MOL0     C19999   2.947   8.978  11.134  0.0620 -0.0604  0.3462
  149MOL0     C20000   3.049   9.088  11.143 -0.6263  0.2476 -0.1315
  149MOL0     C20001   3.166   9.079  11.053  0.5558  0.1202  0.5017
  149MOL0     C20002   3.243   9.215  11.056  0.2386  0.1370 -0.2939
  149MOL0     C20003   3.363   9.223  10.965  0.5508 -0.0887 -0.2033
  149MOL0     O20004   3.485   9.161  11.018  0.4149 -0.6778 -1.1377
  149MOL0     C20005   3.598   9.143  10.944 -0.8280  0.1262 -0.2063
  149MOL0     C20006   3.715   9.113  11.009  0.5799 -0.1842 -0.4045
  149MOL0     C20007   3.831   9.089  10.939  0.7435 -0.6946  0.3410
  149MOL0     C20008   3.828   9.089  10.797  0.2498  1.3465  0.5766
  149MOL0     C20009   3.951   9.068  10.709  0.0159  0.1965 -0.2942
  149MOL0     O20010   4.067   9.027  10.772  0.1330 -0.4421 -0.4296
  149MOL0     C20011   4.164   8.970  10.697 -0.2729  0.4042 -0.2968
  149MOL0     C20012   4.153   8.888  10.576 -0.4326 -0.1131 -0.7947
  149MOL0     C20013   4.272   8.859  10.500  0.5835  0.2904  0.5313
  149MOL0     C20014   4.402   8.896  10.539 -0.1803  0.6411  0.0130
  149MOL0     O20015   4.514   8.842  10.487 -0.6218 -0.3814  0.0299
  149MOL0     C20016   4.545   8.900  10.355 -0.7892  0.6809 -1.2358
  149MOL0     C20017   4.679   8.844  10.314  0.5758 -0.0220  0.3006
  149MOL0     C20018   4.799   8.881  10.406  0.1743  0.4243 -0.5869
  149MOL0     C20019   4.931   8.847  10.350  0.0615  0.9059 -0.1083
  149MOL0     C20020   5.026   8.785  10.465  0.3675  0.6300  0.7537
  149MOL0     C20021   5.180   8.786  10.435 -0.7901  0.7894 -0.0289
  149MOL0     C20022   5.254   8.758  10.562 -0.4728  0.2925  0.0063
  149MOL0     C20023   5.390   8.831  10.575 -0.4501  0.1390  0.1224
  149MOL0    Cl20024   5.516   8.757  10.470  0.2605  0.2270 -0.2996
  149MOL0     C20025   4.411   8.965  10.662  0.2666 -0.7253 -0.1720
  149MOL0     C20026   4.296   9.004  10.736 -0.3330 -0.3847  0.0132
  149MOL0     O20027   3.933   9.089  10.591  0.1665 -0.8981  0.0622
  149MOL0     C20028   3.711   9.123  10.733  0.3042  0.0732 -0.1603
  149MOL0     C20029   3.597   9.164  10.808 -0.8115 -0.2873  0.3248
  149MOL0     N20030   2.865   8.966  11.022 -0.3509 -0.0532  1.0224
  149MOL0     N20031   2.775   8.881  11.046  0.2300 -0.7857  0.1132
  149MOL0     C20032   1.753   8.250  10.868  0.3345 -0.2513 -0.4702
  149MOL0     C20033   1.693   8.210  10.749  1.0413 -0.3620 -0.5061
  149MOL0     C20034   1.587   8.236  10.282 -0.1015 -0.2389 -0.1118
  149MOL0     C20035   1.454   8.265  10.325 -0.0688 -0.1054  0.8076
  149MOL0     C20036   1.351   8.293  10.230  0.5486  0.1076 -0.3146
  149MOL0     C20037   1.386   8.299  10.097  0.4361  0.0964  0.3479
  149MOL0     O20038   1.299   8.337   9.995 -0.1979 -0.1039  0.0520
  149MOL0     C20039   1.195   8.428  10.027 -0.0456 -0.6765  0.0550
  149MOL0     C20040   1.124   8.446   9.897 -0.6855  0.0212  0.0381
  149MOL0     C20041   1.202   8.505   9.779 -0.4774 -0.2673 -0.3779
  149MOL0     C20042   1.149   8.443   9.649 -0.2631  0.4940  0.7077
  149MOL0     C20043   1.167   8.298   9.636 -0.2725  0.6398  0.9364
  149MOL0     C20044   1.190   8.180   9.642 -0.0335  0.1098 -0.2026
  149MOL0     C20045   1.512   8.263  10.050 -0.6522 -0.8486 -0.2167
  149MOL0     C20046   1.615   8.234  10.140  0.3444 -0.1163 -0.6688
  149MOL0     C20047   1.763   8.225  10.087  1.1176  0.4195 -0.0789
  149MOL0     H20048   1.891   8.339  10.522 -0.1619  0.4732  0.6303
  149MOL0     H20049   1.992   8.433  10.702  0.1724  0.1624  0.8800
  149MOL0     H20050   1.995   8.235  11.076  0.5098  0.4382  0.8990
  149MOL0     H20051   2.102   8.290  10.953 -0.6074  1.5006 -1.3154
  149MOL0     H20052   2.153   8.357  11.200  0.4189 -1.3827 -1.3146
  149MOL0     H20053   2.025   8.479  11.185  1.0660  0.4465  0.7030
  149MOL0     H20054   2.119   8.595  11.014 -0.9577  0.1141  2.9304
  149MOL0     H20055   2.243   8.469  10.974 -1.4801 -0.6492 -1.2362
  149MOL0     H20056   2.232   8.641  11.242  2.7778 -0.4257  2.0174
  149MOL0     H20057   2.367   8.534  11.189  1.7029  0.3345 -2.3359
  149MOL0     H20058   2.401   8.687  10.995  2.3704  2.1183 -0.0712
  149MOL0     H20059   2.281   8.794  11.070  0.9545  0.7652  0.8545
  149MOL0     H20060   2.486   8.872  11.132 -0.6035 -0.4121 -0.2703
  149MOL0     H20061   2.426   8.797  11.277 -0.0742 -0.1557  0.5894
  149MOL0     H20062   2.611   8.667  11.069  1.7339  2.5813 -0.5319
  149MOL0     H20063   2.568   8.607  11.241 -0.1203  1.5645  1.6116
  149MOL0     H20064   2.675   8.795  11.332 -2.3946 -0.2975 -2.0455
  149MOL0     H20065   2.777   8.662  11.268 -1.0787 -2.4989 -1.4239
  149MOL0     H20066   2.924   8.902  11.346 -4.4775 -0.4447  1.0044
  149MOL0     H20067   3.000   9.186  11.146 -2.7136 -0.7784  1.4796
  149MOL0     H20068   3.092   9.085  11.243 -0.8279 -0.3005 -0.0586
  149MOL0     H20069   3.240   9.002  11.075  1.6672  0.8510 -0.5376
  149MOL0     H20070   3.131   9.045  10.955 -1.2066  3.7842 -0.3541
  149MOL0     H20071   3.271   9.221  11.162 -0.6531  0.2356 -0.0520
  149MOL0     H20072   3.171   9.295  11.037 -0.7604 -0.5338  0.5160
  149MOL0     H20073   3.386   9.330  10.961  0.5101 -0.0132  1.0755
  149MOL0     H20074   3.342   9.180  10.867  1.5213  3.0931 -1.9319
  149MOL0     H20075   3.718   9.113  11.117  1.3475  2.9643 -0.3303
  149MOL0     H20076   3.923   9.073  10.994  2.2864  1.9612 -1.2054
  149MOL0     H20077   4.054   8.860  10.541 -3.1867  0.5643  5.2270
  149MOL0     H20078   4.263   8.796  10.412  2.6708  0.1117  0.3861
  149MOL0     H20079   4.466   8.887  10.280 -1.6915  0.6718 -0.3020
  149MOL0     H20080   4.559   9.008  10.365  2.8177  0.2100  0.3062
  149MOL0     H20081   4.664   8.735  10.313 -1.3128  0.2079 -0.7195
  149MOL0     H20082   4.715   8.871  10.214  1.9594 -0.8645  0.5425
  149MOL0     H20083   4.801   8.984  10.441  0.4500 -0.0026  0.7323
  149MOL0     H20084   4.790   8.821  10.498 -1.8412  1.0029 -0.3506
  149MOL0     H20085   4.982   8.937  10.317  3.1020 -0.6943 -0.1810
  149MOL0     H20086   4.934   8.788  10.258 -1.2660  0.0718  0.3590
  149MOL0     H20087   4.994   8.683  10.487  0.2263  0.0017 -1.9944
  149MOL0     H20088   5.012   8.842  10.557  1.2609  3.0000 -0.4959
  149MOL0     H20089   5.203   8.711  10.359 -0.7239 -0.3853  1.1193
  149MOL0     H20090   5.211   8.884  10.398  0.4008 -0.0056 -1.1900
  149MOL0     H20091   5.261   8.650  10.578 -1.8611 -0.1489 -1.9857
  149MOL0     H20092   5.200   8.804  10.645  0.0443  1.9540 -0.5457
  149MOL0     H20093   5.374   8.937  10.552  0.7435  0.5481  1.0757
  149MOL0     H20094   5.431   8.832  10.676  0.6614  0.6486 -0.3123
  149MOL0     H20095   4.513   8.982  10.696  0.8302  1.8152 -2.6581
  149MOL0     H20096   4.309   9.072  10.819  1.0870 -0.5874 -0.0126
  149MOL0     H20097   3.704   9.114  10.625  1.5884 -1.3662 -0.1520
  149MOL0     H20098   3.510   9.202  10.756  0.4410  1.5477 -0.5702
  149MOL0     H20099   1.719   8.232  10.969  0.1702  1.9027 -0.1117
  149MOL0     H20100   1.611   8.140  10.760  1.2048 -0.9609 -2.5898
  149MOL0     H20101   1.429   8.256  10.430  0.1227 -0.1971  0.8465
  149MOL0     H20102   1.251   8.313  10.267  0.9056 -1.5184  1.6900
  149MOL0     H20103   1.252   8.518  10.052  0.8272 -0.8339 -1.2489
  149MOL0     H20104   1.127   8.398  10.107  0.2522 -3.5488 -0.6642
  149MOL0     H20105   1.039   8.513   9.913 -2.9540 -2.5497 -0.6302
  149MOL0     H20106   1.089   8.345   9.875 -0.0281 -0.9005  2.7419
  149MOL0     H20107   1.308   8.482   9.791 -0.3069  1.5319  2.8236
  149MOL0     H20108   1.207   8.614   9.777  3.8358 -0.3029  0.1721
  149MOL0     H20109   1.048   8.474   9.619 -0.8593 -1.1576  0.9260
  149MOL0     H20110   1.209   8.483   9.567 -2.5557 -0.4475 -1.5944
  149MOL0     H20111   1.205   8.074   9.653  1.3286 -0.1992 -3.8000
  149MOL0     H20112   1.526   8.276   9.943 -4.2446  3.1274 -0.5062
  149MOL0     H20113   1.816   8.132  10.108  1.3508  0.8037  1.1156
  149MOL0     H20114   1.759   8.245   9.980  3.6661  1.1744 -0.1086
  149MOL0     H20115   1.823   8.300  10.141  0.5333 -0.6361  2.1426
  150MOL0     O20116   2.988   3.742   0.766 -0.2280 -0.1802  0.0072
  150MOL0     C20117   3.009   3.620   0.733  0.1051 -0.5559 -0.1482
  150MOL0     O20118   3.069   3.582   0.622 -0.1680 -0.1353  0.0678
  150MOL0     C20119   3.125   3.672   0.535  0.1155 -0.5870  0.6410
  150MOL0     C20120   3.032   3.727   0.445  0.2846  0.0224  0.1692
  150MOL0     C20121   3.074   3.830   0.361 -0.4002 -0.3672 -0.5843
  150MOL0     C20122   3.206   3.878   0.357 -0.0457  0.0122 -0.2235
  150MOL0     O20123   3.256   3.976   0.273 -0.0899  0.5231  0.1021
  150MOL0     C20124   3.166   4.046   0.195 -0.2194  0.7721 -0.9097
  150MOL0     C20125   3.231   4.149   0.103 -0.2673 -0.3187  0.0577
  150MOL0     C20126   3.336   4.085  -0.000  0.4614  0.1605  1.2174
  150MOL0     C20127   3.372   4.183  -0.107  0.0065 -0.1402 -0.2468
  150MOL0     C20128   3.446   4.112  -0.227 -0.0530  0.4114  0.1265
  150MOL0     C20129   3.501   4.213  -0.335  0.5457  0.2958 -0.3041
  150MOL0     C20130   3.613   4.321  -0.300  0.6119  0.1751  0.2381
  150MOL0     C20131   3.737   4.248  -0.239 -0.4347  0.0955 -1.0474
  150MOL0     N20132   3.799   4.189  -0.348  0.1341 -0.4364 -0.5247
  150MOL0     C20133   3.807   4.060  -0.382 -0.1487  0.6008  0.8593
  150MOL0     C20134   3.878   4.059  -0.496  0.8458 -0.0845  0.1795
  150MOL0     C20135   3.898   3.941  -0.591 -0.5673 -0.3516 -0.3424
  150MOL0     C20136   3.770   3.939  -0.684 -0.7411 -0.9338 -0.4418
  150MOL0     C20137   3.761   3.835  -0.798 -0.0865  0.4645 -0.4583
  150MOL0     C20138   3.892   3.770  -0.838 -0.6296 -0.9847  0.0431
  150MOL0     O20139   3.958   3.881  -0.895  1.0078  0.2862 -0.3259
  150MOL0     C20140   4.053   3.863  -0.986 -0.2553 -0.5019 -0.6954
  150MOL0     C20141   4.096   3.976  -1.059  0.6335  0.8967 -0.1636
  150MOL0     C20142   4.192   3.959  -1.155  0.3630  0.0940  0.2628
  150MOL0     C20143   4.272   3.843  -1.174  0.3043  0.6610 -0.3585
  150MOL0     C20144   4.380   3.840  -1.280 -0.0378 -0.4108  0.2714
  150MOL0     O20145   4.425   3.963  -1.343  0.7138  0.1341  0.0547
  150MOL0     C20146   4.498   3.932  -1.455 -0.3900 -0.5192  0.1478
  150MOL0     C20147   4.446   3.868  -1.572  0.6468 -0.6307 -0.0516
  150MOL0     C20148   4.523   3.851  -1.688 -0.0376 -0.0327 -0.2705
  150MOL0     C20149   4.660   3.880  -1.691 -1.2741 -0.0165  0.1461
  150MOL0     O20150   4.740   3.855  -1.802  0.0731  0.2604  0.0866
  150MOL0     C20151   4.673   3.847  -1.931  0.1328 -0.3078  0.4666
  150MOL0     C20152   4.757   3.891  -2.045 -0.1758 -0.4326 -0.7731
  150MOL0     C20153   4.889   3.800  -2.058  1.2635  0.1093 -0.2646
  150MOL0     C20154   4.947   3.839  -2.188  0.0492 -0.5528  0.4040
  150MOL0     C20155   5.062   3.743  -2.221  0.2129 -0.0947  0.1646
  150MOL0     C20156   5.061   3.740  -2.371  0.3700  0.4468 -0.5694
  150MOL0     C20157   5.182   3.665  -2.434  0.3197 -0.5083  0.4821
  150MOL0     C20158   5.175   3.655  -2.584 -0.8132 -0.5356  0.3798
  150MOL0    Cl20159   5.293   3.555  -2.673  0.0968  0.5499  0.5867
  150MOL0     C20160   4.717   3.932  -1.572  0.0783  0.2272  0.3692
  150MOL0     C20161   4.637   3.958  -1.461 -1.0501 -0.4277  0.0247
  150MOL0     O20162   4.439   3.736  -1.291  0.0092 -0.2842  0.1974
  150MOL0     C20163   4.230   3.729  -1.103  0.0330  0.3530 -0.3040
  150MOL0     C20164   4.114   3.737  -1.016  0.5483  0.4243  0.0841
  150MOL0     N20165   3.921   4.189  -0.530 -0.0033  0.5466  0.5646
  150MOL0     N20166   3.868   4.259  -0.438 -0.7135  0.7905  0.0750
  150MOL0     C20167   3.295   3.820   0.448 -0.0324 -0.2977  0.6519
  150MOL0     C20168   3.261   3.713   0.537  0.5866  0.0477  0.0586
  150MOL0     C20169   2.949   3.510   0.812  0.4392 -0.9929 -0.6537
  150MOL0     C20170   2.906   3.398   0.746 -0.0494 -0.6090  0.1266
  150MOL0     C20171   2.847   3.288   0.810 -0.0088 -0.6717 -0.2838
  150MOL0     C20172   2.825   3.295   0.941 -0.2861 -0.7725 -0.7591
  150MOL0     O20173   2.767   3.202   1.022  0.5100  0.0288 -0.3919
  150MOL0     C20174   2.675   3.105   0.969 -0.1461  1.1684  0.2012
  150MOL0     C20175   2.654   2.985   1.069  0.4616 -0.6561 -0.2789
  150MOL0     C20176   2.763   2.887   1.046 -0.1677 -0.1233  0.1447
  150MOL0     C20177   2.716   2.738   1.069 -1.0091 -0.7103 -0.1304
  150MOL0     C20178   2.821   2.665   1.148 -0.5457  0.2239  0.2296
  150MOL0     C20179   2.901   2.608   1.218 -0.0127  0.8582  1.0382
  150MOL0     C20180   2.851   3.415   1.007  0.6646 -0.2206 -0.1790
  150MOL0     C20181   2.912   3.524   0.944  0.5031 -0.1661 -0.6709
  150MOL0     C20182   2.963   3.635   1.027  0.3131 -0.7843  0.8865
  150MOL0     H20183   2.927   3.700   0.446  0.0833  0.7674  0.3542
  150MOL0     H20184   3.009   3.846   0.276 -0.9968 -1.3725 -0.3337
  150MOL0     H20185   3.130   3.963   0.133 -0.4851 -1.0548  1.5363
  150MOL0     H20186   3.085   4.092   0.252 -0.3696 -1.2933  0.6525
  150MOL0     H20187   3.277   4.230   0.160  0.3895  1.1476 -2.3928
  150MOL0     H20188   3.147   4.196   0.050  0.3405  1.5676  0.6772
  150MOL0     H20189   3.299   3.997  -0.054  1.4063  0.8811 -0.7207
  150MOL0     H20190   3.432   4.063   0.048  0.7061  1.2661  1.2501
  150MOL0     H20191   3.282   4.226  -0.151 -1.2200 -4.9568 -3.1401
  150MOL0     H20192   3.442   4.260  -0.071  0.3598 -1.2229  1.4697
  150MOL0     H20193   3.533   4.058  -0.187 -0.7948 -0.0123  1.2140
  150MOL0     H20194   3.377   4.037  -0.265  0.0817 -0.4720  1.5711
  150MOL0     H20195   3.534   4.152  -0.419 -1.3677  0.3135 -1.1220
  150MOL0     H20196   3.417   4.267  -0.379 -1.4401 -0.3570  2.3969
  150MOL0     H20197   3.571   4.388  -0.224 -0.2826 -0.4114  0.2841
  150MOL0     H20198   3.634   4.388  -0.383 -0.7339 -1.0126 -1.1270
  150MOL0     H20199   3.804   4.320  -0.192  0.3006  0.2620 -2.3066
  150MOL0     H20200   3.718   4.169  -0.165 -0.4630  2.9389  2.1952
  150MOL0     H20201   3.756   3.981  -0.327  2.2272 -2.3867 -0.8769
  150MOL0     H20202   3.993   3.952  -0.645  2.5215 -3.5111  3.7476
  150MOL0     H20203   3.913   3.846  -0.539 -1.0278 -1.2255 -1.7379
  150MOL0     H20204   3.692   3.912  -0.612  0.8332 -3.1431  0.5580
  150MOL0     H20205   3.743   4.037  -0.725 -0.0815 -1.6908 -2.8249
  150MOL0     H20206   3.716   3.894  -0.879 -2.3753 -0.7595 -0.1482
  150MOL0     H20207   3.705   3.745  -0.775  1.5504 -0.1510  1.4476
  150MOL0     H20208   3.872   3.697  -0.918  1.3654 -2.7800  1.0948
  150MOL0     H20209   3.943   3.734  -0.749 -2.0042 -3.0332  0.0572
  150MOL0     H20210   4.046   4.070  -1.038 -2.7618 -1.3083  2.8266
  150MOL0     H20211   4.215   4.048  -1.215 -0.6785 -0.2063 -0.6092
  150MOL0     H20212   4.344   3.833  -1.562  0.4733  0.0243  0.5924
  150MOL0     H20213   4.487   3.786  -1.766  4.3146 -2.6787 -0.4176
  150MOL0     H20214   4.633   3.746  -1.938 -0.0549 -0.2986  1.2521
  150MOL0     H20215   4.591   3.920  -1.935 -0.1907 -0.6752 -4.3310
  150MOL0     H20216   4.704   3.895  -2.140  0.1593  1.8170 -0.9218
  150MOL0     H20217   4.787   3.995  -2.028  3.1082 -0.9920 -2.3336
  150MOL0     H20218   4.971   3.809  -1.986  0.8710 -2.5347  0.6189
  150MOL0     H20219   4.857   3.696  -2.067  0.5580  0.2727  0.2369
  150MOL0     H20220   4.979   3.943  -2.193 -1.0176 -0.1775 -4.5924
  150MOL0     H20221   4.863   3.848  -2.258 -0.1873 -1.5501  0.5392
  150MOL0     H20222   5.046   3.643  -2.180  3.4757 -0.7393  0.1043
  150MOL0     H20223   5.158   3.774  -2.181 -0.4259  0.6091  1.1919
  150MOL0     H20224   4.969   3.693  -2.407  1.3786 -1.6675 -0.5423
  150MOL0     H20225   5.079   3.844  -2.399  2.7188  0.5958  1.2160
  150MOL0     H20226   5.185   3.560  -2.403  1.9149 -1.1670 -1.6451
  150MOL0     H20227   5.273   3.719  -2.408 -0.6059  0.3016  2.2114
  150MOL0     H20228   5.074   3.620  -2.609 -0.4879 -1.4263  0.2777
  150MOL0     H20229   5.173   3.759  -2.620  0.2830 -0.1877  1.2703
  150MOL0     H20230   4.821   3.962  -1.581 -0.2398  1.0315 -0.8178
  150MOL0     H20231   4.678   4.019  -1.381 -1.4308 -0.1330 -0.0007
  150MOL0     H20232   4.290   3.642  -1.126  0.6602  1.2060 -2.0312
  150MOL0     H20233   4.087   3.650  -0.958 -1.9757  0.8036 -0.3964
  150MOL0     H20234   3.397   3.855   0.449 -0.3105  0.5835 -0.3440
  150MOL0     H20235   3.325   3.666   0.611  0.0740  1.0369  1.1574
  150MOL0     H20236   2.919   3.380   0.639  1.7914 -1.4246  0.4558
  150MOL0     H20237   2.825   3.196   0.755  1.9100 -3.2126  2.8108
  150MOL0     H20238   2.710   3.068   0.872 -0.7162  0.4533  0.2571
  150MOL0     H20239   2.578   3.155   0.958 -0.7570 -0.2447 -1.3735
  150MOL0     H20240   2.555   2.940   1.059 -0.1622  0.6051 -0.0574
  150MOL0     H20241   2.652   3.032   1.168 -0.2280  1.0908 -1.0819
  150MOL0     H20242   2.846   2.909   1.114  1.0882  2.3026 -1.9961
  150MOL0     H20243   2.805   2.897   0.946  0.8346 -0.0787  0.5579
  150MOL0     H20244   2.621   2.735   1.124 -1.3285 -2.6781 -0.7164
  150MOL0     H20245   2.701   2.687   0.974 -1.0352 -1.0365  0.0436
  150MOL0     H20246   2.974   2.561   1.281  0.6524  0.7110  0.1760
  150MOL0     H20247   2.831   3.414   1.113  2.2681 -1.2655  0.1516
  150MOL0     H20248   2.897   3.721   1.012 -0.4769 -1.3580  1.0029
  150MOL0     H20249   2.964   3.609   1.133  1.5331  0.9642  1.3468
  150MOL0     H20250   3.067   3.655   0.998  0.4020 -2.1425  0.2232
  151MOL0     O20251   0.903  10.980   2.764  0.0577 -0.0096 -0.6100
  151MOL0     C20252   0.899  10.863   2.731 -0.1504  0.2205  0.4638
  151MOL0     O20253   1.007  10.785   2.702  0.0180  0.3441 -0.1102
  151MOL0     C20254   1.132  10.835   2.720 -1.1124 -0.1137  0.4285
  151MOL0     C20255   1.218  10.836   2.612 -0.8178 -0.3348  0.7855
  151MOL0     C20256   1.355  10.880   2.628 -0.0248 -0.1436  0.3450
  151MOL0     C20257   1.397  10.925   2.753 -1.1293 -0.2712 -0.0573
  151MOL0     O20258   1.523  10.979   2.739  0.2056 -0.3301 -0.7089
  151MOL0     C20259   1.617  10.954   2.835  0.6812 -0.7544 -0.2603
  151MOL0     C20260   1.699  10.836   2.787 -0.1079  0.0088 -0.7422
  151MOL0     C20261   1.753  10.855   2.643  0.4833  0.2842 -0.2691
  151MOL0     C20262   1.870  10.752   2.605 -0.4586 -0.4355  0.4354
  151MOL0     C20263   1.955  10.808   2.493 -0.4755 -0.3765  0.8319
  151MOL0     C20264   2.079  10.725   2.475  0.2150  0.6303  0.3382
  151MOL0     C20265   2.191  10.787   2.393  0.2137  0.5918 -0.1269
  151MOL0     C20266   2.207  10.741   2.248 -0.3779  0.5470  0.1840
  151MOL0     N20267   2.090  10.785   2.168  0.3987 -0.4311 -0.5907
  151MOL0     C20268   2.002  10.701   2.107 -0.2090  1.0991  0.7025
  151MOL0     C20269   1.907  10.781   2.045  0.0478  0.0480 -0.2680
  151MOL0     C20270   1.787  10.742   1.973  0.5925 -0.9596  0.9141
  151MOL0     C20271   1.704  10.639   2.053  0.8982  0.6411 -1.1305
  151MOL0     C20272   1.657  10.698   2.194 -0.5962  0.4208 -0.6797
  151MOL0     C20273   1.580  10.834   2.189 -0.8686 -0.8047 -0.3532
  151MOL0     O20274   1.464  10.828   2.106 -0.8928 -0.5224  0.1251
  151MOL0     C20275   1.349  10.779   2.154  0.0878 -0.3880  1.1550
  151MOL0     C20276   1.331  10.718   2.275  0.5947  0.7346 -0.0635
  151MOL0     C20277   1.213  10.650   2.309  0.3866 -0.2647 -0.1390
  151MOL0     C20278   1.105  10.656   2.224 -0.2445 -1.7104  0.8858
  151MOL0     C20279   0.973  10.607   2.252  0.0278 -0.1229  0.4293
  151MOL0     O20280   0.872  10.603   2.152 -0.0766  0.5326 -0.2148
  151MOL0     C20281   0.751  10.554   2.187  0.2966  0.2214 -0.0169
  151MOL0     C20282   0.674  10.622   2.280  0.0925 -0.2292 -1.1677
  151MOL0     C20283   0.555  10.562   2.330  0.0087 -0.2866 -0.8082
  151MOL0     C20284   0.507  10.440   2.270 -0.4600 -1.2795 -1.0294
  151MOL0     O20285   0.396  10.404   2.335  0.3930  0.2003 -0.4550
  151MOL0     C20286   0.380  10.267   2.371  0.7280 -0.0069 -0.1002
  151MOL0     C20287   0.241  10.244   2.437 -0.2137  0.0340  0.9084
  151MOL0     C20288   0.193  10.098   2.432  0.9769 -1.0399  0.3159
  151MOL0     C20289   0.282  10.001   2.517  0.8286 -1.1535  0.9542
  151MOL0     C20290   0.227   9.859   2.501  0.0314 -0.1501 -0.5274
  151MOL0     C20291   0.281   9.762   2.610  0.0542 -0.5142 -0.2106
  151MOL0     C20292   0.297   9.612   2.570 -0.2163 -0.8106  0.6873
  151MOL0     C20293   0.169   9.529   2.543 -0.3199 -0.1754 -0.7519
  151MOL0    Cl20294   0.084   9.513   2.695  0.1323  0.1330 -0.1171
  151MOL0     C20295   0.588  10.368   2.179 -0.0680 -0.4712 -1.0103
  151MOL0     C20296   0.705  10.426   2.137 -0.5517 -0.3679 -0.3070
  151MOL0     O20297   0.959  10.576   2.368  0.0378 -0.1002 -0.6242
  151MOL0     C20298   1.124  10.728   2.102  0.7547 -0.7103 -0.1787
  151MOL0     C20299   1.243  10.776   2.065  1.0553 -0.4998  0.3172
  151MOL0     N20300   1.923  10.900   2.106  0.2514 -0.2583 -0.0686
  151MOL0     N20301   2.039  10.912   2.167  0.2900 -0.8573 -0.0722
  151MOL0     C20302   1.312  10.928   2.860  0.5809 -0.0292 -1.8453
  151MOL0     C20303   1.177  10.891   2.840  0.5269  0.1074  0.9848
  151MOL0     C20304   0.773  10.790   2.734  0.4795  0.1834 -0.0253
  151MOL0     C20305   0.758  10.676   2.657 -0.8146 -0.1267  1.0480
  151MOL0     C20306   0.639  10.612   2.645  0.1628 -0.4901  0.4139
  151MOL0     C20307   0.522  10.658   2.707  0.1351 -0.3679  0.5895
  151MOL0     O20308   0.402  10.605   2.674  0.3051  0.3671 -0.0127
  151MOL0     C20309   0.285  10.693   2.649 -0.2504 -0.9044  0.1597
  151MOL0     C20310   0.159  10.620   2.614  0.3751  0.6863  0.4462
  151MOL0     C20311   0.129  10.495   2.700  0.1534  0.0995 -0.0669
  151MOL0     C20312   0.085  10.525   2.834 -0.8568 -2.0445 -0.2560
  151MOL0     C20313  -0.050  10.584   2.849 -0.4532  1.0607 -0.0971
  151MOL0     C20314  -0.161  10.624   2.861  0.4902 -0.9842  0.1427
  151MOL0     C20315   0.545  10.767   2.789  0.3342  0.5768  0.0722
  151MOL0     C20316   0.658  10.839   2.811  0.2357  0.3755 -0.1704
  151MOL0     C20317   0.659  10.958   2.901 -0.3504 -0.2835 -0.6201
  151MOL0     H20318   1.166  10.800   2.524 -0.2673  0.9217 -0.0820
  151MOL0     H20319   1.424  10.879   2.544 -2.6016 -3.9644 -2.0352
  151MOL0     H20320   1.677  11.040   2.866 -1.5736  0.7002  0.3289
  151MOL0     H20321   1.567  10.919   2.926  0.0999  0.7286  0.0213
  151MOL0     H20322   1.633  10.749   2.791  2.7999 -2.3032  0.4719
  151MOL0     H20323   1.782  10.815   2.855  1.0950  0.2440 -2.1069
  151MOL0     H20324   1.784  10.957   2.619  0.2382 -0.1442 -2.7213
  151MOL0     H20325   1.674  10.847   2.568  0.1237 -0.9388  0.2070
  151MOL0     H20326   1.925  10.735   2.699 -0.1417 -0.7741  0.1933
  151MOL0     H20327   1.830  10.657   2.569 -0.9843  0.5307 -1.6853
  151MOL0     H20328   1.896  10.810   2.400  0.2309 -2.0421  0.3180
  151MOL0     H20329   1.977  10.913   2.512 -0.6656 -0.0967 -0.3857
  151MOL0     H20330   2.108  10.702   2.578 -1.5613 -1.8711  0.3794
  151MOL0     H20331   2.055  10.628   2.430 -1.0486  0.5247  1.1971
  151MOL0     H20332   2.292  10.773   2.433 -1.0776 -1.0401  2.8797
  151MOL0     H20333   2.175  10.895   2.384 -0.3544  0.3835 -1.9501
  151MOL0     H20334   2.285  10.797   2.195 -0.5193 -0.8485 -1.6180
  151MOL0     H20335   2.228  10.634   2.241  0.3931  0.7228 -0.4317
  151MOL0     H20336   2.006  10.593   2.090  1.0074  1.3306 -0.5839
  151MOL0     H20337   1.716  10.825   1.957  1.6919 -0.1930 -0.1906
  151MOL0     H20338   1.805  10.708   1.870 -0.0240  2.9223 -0.6775
  151MOL0     H20339   1.619  10.604   1.994  2.8050 -2.5728 -2.2706
  151MOL0     H20340   1.777  10.558   2.064  2.1991  1.9638  0.5699
  151MOL0     H20341   1.736  10.703   2.268 -0.6235 -1.2963 -0.4942
  151MOL0     H20342   1.590  10.627   2.245  1.8668  0.3895  2.8680
  151MOL0     H20343   1.640  10.909   2.136  0.9147 -1.0833  1.1698
  151MOL0     H20344   1.558  10.879   2.286 -1.8777 -1.9416 -0.0295
  151MOL0     H20345   1.414  10.713   2.345 -0.3560  1.5162  1.1575
  151MOL0     H20346   1.198  10.597   2.403 -0.8865 -0.7992 -0.6261
  151MOL0     H20347   0.715  10.710   2.328  1.6130 -2.0941  1.1587
  151MOL0     H20348   0.495  10.604   2.411  1.9468  0.8091  0.1449
  151MOL0     H20349   0.392  10.205   2.282  0.0523 -0.4888  0.1368
  151MOL0     H20350   0.454  10.248   2.449 -1.5632  1.4198  2.5763
  151MOL0     H20351   0.257  10.292   2.534  1.2339  1.4254  0.0304
  151MOL0     H20352   0.168  10.306   2.385 -0.0394 -0.2032  0.3697
  151MOL0     H20353   0.087  10.100   2.459  0.6941  0.4625 -0.7531
  151MOL0     H20354   0.197  10.077   2.325 -1.5071  2.9167 -0.7596
  151MOL0     H20355   0.272  10.030   2.622  1.0947 -2.3655  1.3227
  151MOL0     H20356   0.385  10.011   2.483  0.0819 -0.7606 -1.4205
  151MOL0     H20357   0.244   9.823   2.399 -0.8305 -2.1139 -0.0194
  151MOL0     H20358   0.118   9.865   2.513  0.2577  1.1123  1.2540
  151MOL0     H20359   0.384   9.798   2.618 -0.1542  0.1151 -0.3198
  151MOL0     H20360   0.229   9.781   2.704 -1.3128 -1.9459 -0.6290
  151MOL0     H20361   0.348   9.563   2.653  0.3788  0.2974  1.0031
  151MOL0     H20362   0.365   9.610   2.484  0.9348 -0.4856  1.5612
  151MOL0     H20363   0.110   9.577   2.463 -1.1245  2.1660  1.1224
  151MOL0     H20364   0.192   9.430   2.504  1.5553  0.4405 -1.3323
  151MOL0     H20365   0.561  10.269   2.144 -1.1338 -0.8125  0.6361
  151MOL0     H20366   0.768  10.365   2.072 -2.0914 -1.3321 -0.9350
  151MOL0     H20367   1.039  10.754   2.040  0.4551  1.5650  1.1041
  151MOL0     H20368   1.251  10.797   1.958 -1.5332 -2.9714 -0.4674
  151MOL0     H20369   1.340  10.963   2.959 -0.5123 -2.8838 -0.4124
  151MOL0     H20370   1.111  10.882   2.925  0.4567 -1.7748  0.7772
  151MOL0     H20371   0.844  10.643   2.599 -2.1058 -1.1674 -0.3382
  151MOL0     H20372   0.629  10.521   2.587 -0.6638  0.1189 -0.4187
  151MOL0     H20373   0.317  10.768   2.577 -2.3759 -0.0489  0.0295
  151MOL0     H20374   0.270  10.734   2.750  3.4876  1.3578 -0.0154
  151MOL0     H20375   0.171  10.574   2.515 -0.6941 -1.4920  1.2537
  151MOL0     H20376   0.074  10.689   2.609 -0.6631 -0.5463  0.3558
  151MOL0     H20377   0.213  10.429   2.723  1.0499  1.8440  2.0241
  151MOL0     H20378   0.050  10.438   2.652  0.2956  0.4770 -0.7716
  151MOL0     H20379   0.084  10.432   2.891 -2.4263 -1.7567  0.2452
  151MOL0     H20380   0.154  10.593   2.885 -0.8876 -1.8103 -0.5227
  151MOL0     H20381  -0.260  10.665   2.863 -0.4055 -2.6630 -3.4610
  151MOL0     H20382   0.451  10.787   2.840 -0.7538 -2.4346 -0.5755
  151MOL0     H20383   0.731  10.930   2.979 -1.2518 -0.3515  0.2135
  151MOL0     H20384   0.682  11.047   2.842  2.8395 -0.4618  0.1561
  151MOL0     H20385   0.566  10.987   2.951 -1.7142 -0.6739 -2.8344
  152MOL0     O20386   0.780   0.561   7.328 -1.1637  0.8686 -0.4555
  152MOL0     C20387   0.796   0.533   7.208  0.2212 -0.4260 -0.6773
  152MOL0     O20388   0.911   0.533   7.137 -0.4588  0.0461  0.1146
  152MOL0     C20389   1.023   0.501   7.201 -1.2709  0.4772 -0.6191
  152MOL0     C20390   1.091   0.589   7.282  0.0894 -0.8780  0.1898
  152MOL0     C20391   1.213   0.568   7.348 -0.2629 -0.7496 -0.0727
  152MOL0     C20392   1.281   0.446   7.324  0.3868 -0.9860  0.4891
  152MOL0     O20393   1.406   0.421   7.373 -0.3877 -0.0194 -0.2454
  152MOL0     C20394   1.429   0.448   7.507 -0.6462 -0.8352 -0.3295
  152MOL0     C20395   1.559   0.373   7.554  0.0083  0.4275  0.2573
  152MOL0     C20396   1.539   0.219   7.575 -0.7424 -0.8267  0.5427
  152MOL0     C20397   1.671   0.149   7.558  0.1333 -0.0715  1.1711
  152MOL0     C20398   1.658   0.002   7.602  0.2354  0.7462  0.4373
  152MOL0     C20399   1.778  -0.075   7.542 -0.2696 -0.3646 -0.6698
  152MOL0     C20400   1.907  -0.048   7.634  0.2205 -0.0206 -0.1864
  152MOL0     C20401   2.005  -0.169   7.614 -0.3550  0.1882 -0.0794
  152MOL0     N20402   2.139  -0.144   7.673 -0.0001  0.6338  0.1058
  152MOL0     C20403   2.165  -0.177   7.798  0.3780 -0.7664 -0.0495
  152MOL0     C20404   2.298  -0.147   7.810  0.2994  0.2752 -0.0601
  152MOL0     C20405   2.376  -0.186   7.928 -0.5898 -1.4068  0.7098
  152MOL0     C20406   2.391  -0.339   7.937 -0.3868 -0.0339  0.0994
  152MOL0     C20407   2.468  -0.383   7.814  0.2588 -0.0522 -0.1996
  152MOL0     C20408   2.617  -0.341   7.818  0.1453  0.2742  0.2045
  152MOL0     O20409   2.687  -0.408   7.711 -0.3036 -0.3004 -0.0762
  152MOL0     C20410   2.825  -0.418   7.720  0.9644 -0.8419  0.4137
  152MOL0     C20411   2.886  -0.508   7.642 -0.2545 -0.4766  1.1666
  152MOL0     C20412   3.019  -0.535   7.640 -0.0506 -0.5293  0.4174
  152MOL0     C20413   3.095  -0.475   7.734 -0.2903  0.2982 -0.2383
  152MOL0     C20414   3.238  -0.489   7.723  0.5684  0.0780 -0.2198
  152MOL0     O20415   3.288  -0.502   7.602  0.1011 -0.5652  0.0975
  152MOL0     C20416   3.429  -0.499   7.597 -0.9259 -0.2789  0.6742
  152MOL0     C20417   3.505  -0.391   7.547 -0.7195  1.0436 -0.7339
  152MOL0     C20418   3.647  -0.394   7.537  0.1263 -0.2817 -0.4867
  152MOL0     C20419   3.723  -0.502   7.576  0.5513 -0.0947 -1.1115
  152MOL0     O20420   3.857  -0.499   7.577  0.2899  0.3352 -0.4754
  152MOL0     C20421   3.930  -0.620   7.542 -0.6393 -0.2473 -0.2689
  152MOL0     C20422   3.990  -0.675   7.673 -0.2365 -0.1036  0.6467
  152MOL0     C20423   4.082  -0.800   7.646 -0.5277 -0.2973  0.1761
  152MOL0     C20424   4.232  -0.774   7.657  0.6079 -0.1116 -0.5871
  152MOL0     C20425   4.306  -0.906   7.638  0.3494 -0.2352  0.0297
  152MOL0     C20426   4.318  -0.943   7.490 -0.5619 -0.5615 -0.1390
  152MOL0     C20427   4.404  -1.069   7.476  0.0695 -0.6332 -0.3596
  152MOL0     C20428   4.509  -1.075   7.360  0.1028  0.1223  0.1766
  152MOL0    Cl20429   4.590  -0.926   7.297  0.0814 -0.0371 -0.4505
  152MOL0     C20430   3.650  -0.599   7.640  0.2545  0.5790  0.8052
  152MOL0     C20431   3.508  -0.605   7.647  0.1404  0.2987 -0.3571
  152MOL0     O20432   3.309  -0.474   7.826  0.4685 -0.0020  0.4466
  152MOL0     C20433   3.050  -0.378   7.815 -0.2470 -0.0705 -0.6255
  152MOL0     C20434   2.909  -0.350   7.810 -0.5903  0.4354  0.2913
  152MOL0     N20435   2.344  -0.090   7.689 -0.2008 -1.0198  0.8310
  152MOL0     N20436   2.241  -0.091   7.614  0.1545  0.1318  0.3012
  152MOL0     C20437   1.215   0.351   7.250  1.2642  0.3018  1.0842
  152MOL0     C20438   1.083   0.372   7.196  0.3327 -0.5814  0.1663
  152MOL0     C20439   0.678   0.499   7.130  0.7444  0.3620 -0.1357
  152MOL0     C20440   0.579   0.590   7.100 -0.1863  0.2709 -0.4400
  152MOL0     C20441   0.463   0.557   7.033  0.9874  0.4343  0.1838
  152MOL0     C20442   0.457   0.430   6.967  0.4445 -0.1668 -0.9116
  152MOL0     O20443   0.356   0.381   6.890 -0.7341  0.5979 -0.2930
  152MOL0     C20444   0.257   0.465   6.828 -0.6250 -0.6133 -0.7005
  152MOL0     C20445   0.141   0.498   6.922 -0.4616  0.4755  0.1064
  152MOL0     C20446   0.044   0.577   6.841 -0.2433  0.2618  0.1442
  152MOL0     C20447  -0.065   0.490   6.780  0.0060  0.7233 -0.1318
  152MOL0     C20448  -0.167   0.473   6.891  0.5470  0.4717  0.1117
  152MOL0     C20449  -0.257   0.471   6.964 -0.6825  0.9057  0.6825
  152MOL0     C20450   0.555   0.343   6.994 -0.7794  0.1345  0.6903
  152MOL0     C20451   0.665   0.371   7.080  0.4082  0.2610 -0.0563
  152MOL0     C20452   0.767   0.266   7.099  0.1400 -0.7086 -0.1397
  152MOL0     H20453   1.044   0.684   7.309 -0.4197 -0.9341 -0.4641
  152MOL0     H20454   1.265   0.646   7.404  0.4697  0.6569 -2.5584
  152MOL0     H20455   1.440   0.555   7.529 -0.0340 -0.8751 -0.4324
  152MOL0     H20456   1.343   0.415   7.567  0.1654  1.4452  2.3112
  152MOL0     H20457   1.594   0.414   7.649 -1.4494  3.3782 -0.3436
  152MOL0     H20458   1.642   0.396   7.488  2.2058  3.6976  3.7139
  152MOL0     H20459   1.459   0.172   7.518  1.1887 -3.0090 -0.5186
  152MOL0     H20460   1.518   0.205   7.681  0.0553  1.6329  1.1103
  152MOL0     H20461   1.704   0.146   7.453  0.8739 -3.3097  1.3933
  152MOL0     H20462   1.744   0.198   7.622 -0.7222  1.6780  0.8460
  152MOL0     H20463   1.655  -0.006   7.711  1.7027 -1.1757  0.3908
  152MOL0     H20464   1.567  -0.039   7.557  0.2065  1.3432 -0.0635
  152MOL0     H20465   1.746  -0.180   7.546 -2.1477  0.1910 -0.2536
  152MOL0     H20466   1.795  -0.049   7.437  0.6168 -2.6370 -1.1601
  152MOL0     H20467   1.873  -0.030   7.736  1.3346 -3.0930  0.8166
  152MOL0     H20468   1.961   0.038   7.592 -0.2935  1.3387  1.8219
  152MOL0     H20469   1.955  -0.259   7.650 -1.1023  0.0054 -1.5283
  152MOL0     H20470   2.031  -0.189   7.510  5.6252 -2.9461  1.5276
  152MOL0     H20471   2.087  -0.216   7.862 -1.3210  1.0687 -0.9120
  152MOL0     H20472   2.476  -0.143   7.931 -1.2158  0.3911 -1.2563
  152MOL0     H20473   2.326  -0.149   8.017 -2.9640  0.2801 -1.1818
  152MOL0     H20474   2.452  -0.348   8.027 -1.3866 -0.5372  0.7440
  152MOL0     H20475   2.297  -0.391   7.956  1.2590 -2.9548  0.9653
  152MOL0     H20476   2.422  -0.358   7.718 -2.6408 -2.1876  0.4720
  152MOL0     H20477   2.466  -0.491   7.834  0.4191  0.1702  1.1076
  152MOL0     H20478   2.662  -0.370   7.913 -1.1693  1.2218  1.1566
  152MOL0     H20479   2.623  -0.233   7.801  2.0885  0.2217  0.3320
  152MOL0     H20480   2.824  -0.581   7.590  1.6767 -1.3504  0.0177
  152MOL0     H20481   3.048  -0.610   7.567  0.5407 -1.0813  1.2036
  152MOL0     H20482   3.452  -0.312   7.497 -0.9024  0.5824 -1.2722
  152MOL0     H20483   3.688  -0.299   7.504 -1.7336  1.5026  1.9578
  152MOL0     H20484   3.871  -0.689   7.482  1.1294 -2.0881  0.0208
  152MOL0     H20485   4.007  -0.589   7.471 -2.8460  2.0170 -1.8532
  152MOL0     H20486   4.038  -0.588   7.718  0.1870  1.1137 -1.9516
  152MOL0     H20487   3.910  -0.706   7.740 -1.1259  1.1357  0.1895
  152MOL0     H20488   4.050  -0.857   7.733 -3.5521  0.2729 -0.4714
  152MOL0     H20489   4.054  -0.864   7.563  3.4850 -0.4060 -1.3344
  152MOL0     H20490   4.250  -0.726   7.754  0.4006  1.5272 -1.3309
  152MOL0     H20491   4.241  -0.703   7.575 -0.9285  0.0535 -0.6401
  152MOL0     H20492   4.261  -0.991   7.690  0.4450 -0.7832 -0.7663
  152MOL0     H20493   4.407  -0.892   7.676  1.6832  0.1006 -3.2947
  152MOL0     H20494   4.217  -0.961   7.453 -0.4561 -1.3661 -0.0476
  152MOL0     H20495   4.364  -0.861   7.433  1.3592 -0.8017  0.9657
  152MOL0     H20496   4.337  -1.155   7.466 -3.3308  1.5362  1.6344
  152MOL0     H20497   4.446  -1.094   7.574 -1.7943  0.0798  0.6774
  152MOL0     H20498   4.588  -1.147   7.382  3.6488  3.3434 -0.8823
  152MOL0     H20499   4.453  -1.124   7.279  2.0558 -2.8678  0.4920
  152MOL0     H20500   3.709  -0.681   7.679 -1.2753 -1.5546 -1.0737
  152MOL0     H20501   3.465  -0.698   7.684  2.1889 -1.4977 -2.1484
  152MOL0     H20502   3.108  -0.315   7.882  0.5884  0.0935 -1.4834
  152MOL0     H20503   2.874  -0.295   7.897 -2.7512  1.5151 -1.1588
  152MOL0     H20504   1.265   0.256   7.231 -1.0490 -1.5936  3.7108
  152MOL0     H20505   1.029   0.300   7.135  0.4412 -1.1432  0.7314
  152MOL0     H20506   0.584   0.690   7.140 -1.0395 -0.4044  1.4829
  152MOL0     H20507   0.389   0.633   7.011  0.4679  0.1466  0.8897
  152MOL0     H20508   0.216   0.410   6.742  0.0480  0.2065 -1.5626
  152MOL0     H20509   0.300   0.558   6.789  1.2438 -0.7809  0.8384
  152MOL0     H20510   0.162   0.558   7.011 -1.0855  1.2986 -0.2910
  152MOL0     H20511   0.092   0.408   6.959 -0.4283  0.4460  0.0788
  152MOL0     H20512   0.102   0.630   6.764  0.0663  0.9203  0.8216
  152MOL0     H20513   0.013   0.658   6.908  1.3611  0.8786  0.2079
  152MOL0     H20514  -0.132   0.531   6.704 -0.5544 -0.2860 -0.2007
  152MOL0     H20515  -0.036   0.388   6.753 -0.7856 -1.2250  5.0546
  152MOL0     H20516  -0.349   0.472   7.019 -1.9952  1.0698 -1.3854
  152MOL0     H20517   0.564   0.244   6.951 -0.5953  0.8820 -1.1119
  152MOL0     H20518   0.842   0.266   7.020  1.6887  2.3130  1.1812
  152MOL0     H20519   0.810   0.277   7.199 -0.2868 -0.3093  0.0046
  152MOL0     H20520   0.722   0.167   7.088 -1.6262 -0.1036  1.2251
  153MOL0     O20521   6.699  10.762   2.080 -0.6386  0.7905 -0.2797
  153MOL0     C20522   6.626  10.671   2.113 -0.1891 -0.1764 -0.4472
  153MOL0     O20523   6.648  10.536   2.104  0.0369  0.4842 -0.2004
  153MOL0     C20524   6.750  10.503   2.028 -0.3333 -0.4715 -0.3134
  153MOL0     C20525   6.876  10.484   2.093  0.5298  0.2129  0.3440
  153MOL0     C20526   6.993  10.458   2.029 -0.1826 -0.1437  0.1427
  153MOL0     C20527   7.001  10.453   1.887  0.0422  1.1402 -0.2069
  153MOL0     O20528   7.112  10.420   1.817 -0.6694 -1.1278  0.4371
  153MOL0     C20529   7.243  10.450   1.884  0.2012 -0.7877  0.0861
  153MOL0     C20530   7.353  10.485   1.782  0.8047  0.3746 -0.1436
  153MOL0     C20531   7.325  10.621   1.731 -0.5815 -0.8271 -1.0625
  153MOL0     C20532   7.438  10.671   1.648  0.2909  0.7119 -0.6053
  153MOL0     C20533   7.398  10.808   1.579  0.5359  1.2215  0.5378
  153MOL0     C20534   7.371  10.924   1.674  0.1105  0.2493 -1.3598
  153MOL0     C20535   7.482  10.968   1.753  0.4265  0.2762 -0.7779
  153MOL0     C20536   7.462  11.118   1.791 -0.5734  0.0669 -0.4276
  153MOL0     N20537   7.581  11.168   1.844 -0.8612 -0.0568  0.6488
  153MOL0     C20538   7.698  11.184   1.780  0.7231 -0.8828 -0.3315
  153MOL0     C20539   7.774  11.244   1.869 -0.3742  1.2920  0.3064
  153MOL0     C20540   7.915  11.294   1.863 -0.6264 -0.3323  1.0134
  153MOL0     C20541   8.018  11.186   1.833  0.7315  0.2869  0.2796
  153MOL0     C20542   8.155  11.238   1.787  0.7552 -0.5189  0.6571
  153MOL0     C20543   8.169  11.273   1.631 -0.5685  0.7197  0.4159
  153MOL0     O20544   8.169  11.148   1.556  0.2215 -0.2986 -0.7385
  153MOL0     C20545   8.283  11.087   1.525  0.5187  0.0680 -0.2462
  153MOL0     C20546   8.300  10.947   1.539 -0.5909 -0.1340  0.5920
  153MOL0     C20547   8.400  10.877   1.469 -0.2183 -0.3828 -0.0223
  153MOL0     C20548   8.511  10.945   1.412 -0.5540 -0.0799  0.2131
  153MOL0     C20549   8.621  10.891   1.333 -0.4975  0.6370 -0.8866
  153MOL0     O20550   8.628  10.751   1.320 -0.2322 -0.9450 -0.7337
  153MOL0     C20551   8.742  10.688   1.269 -0.3052  0.0307 -0.0667
  153MOL0     C20552   8.879  10.737   1.258  0.8332  0.4828  0.5373
  153MOL0     C20553   8.975  10.665   1.196  0.4748  1.3983 -1.2449
  153MOL0     C20554   8.951  10.535   1.154 -0.3552 -0.0853  0.2236
  153MOL0     O20555   9.049  10.450   1.120 -1.7281  0.3520 -0.6337
  153MOL0     C20556   9.042  10.393   0.988  0.4877  0.1051 -0.3137
  153MOL0     C20557   9.145  10.276   0.979  0.2119 -0.0960 -0.5138
  153MOL0     C20558   9.152  10.215   0.844 -0.3621  0.4029  0.2897
  153MOL0     C20559   9.258  10.110   0.843 -0.0668  0.1507  0.3574
  153MOL0     C20560   9.313  10.075   0.711  0.0606 -0.2465  0.1981
  153MOL0     C20561   9.384   9.947   0.738 -0.5209  0.7287 -0.1106
  153MOL0     C20562   9.445   9.893   0.604  0.3585  0.6698  0.3099
  153MOL0     C20563   9.532   9.769   0.634  0.1084 -0.1076  0.1078
  153MOL0    Cl20564   9.681   9.818   0.726  0.0187  0.5441 -0.2683
  153MOL0     C20565   8.828  10.490   1.169 -0.6878  0.2118  0.4703
  153MOL0     C20566   8.722  10.558   1.218 -0.2753  0.0203  0.1580
  153MOL0     O20567   8.715  10.971   1.302  1.1966  0.6002 -0.3709
  153MOL0     C20568   8.504  11.085   1.424  0.0064  0.5141 -0.0946
  153MOL0     C20569   8.391  11.147   1.466  0.4097  0.0640 -1.1792
  153MOL0     N20570   7.708  11.239   1.992  0.2703  0.8308  0.4544
  153MOL0     N20571   7.590  11.206   1.975 -0.1913  0.1012  0.1252
  153MOL0     C20572   6.875  10.478   1.821 -0.3791  0.2591  0.9861
  153MOL0     C20573   6.757  10.499   1.888  0.5892 -0.1508  0.2136
  153MOL0     C20574   6.501  10.711   2.182 -0.8321  1.1950  0.7659
  153MOL0     C20575   6.384  10.632   2.166 -0.3055 -0.2167 -0.5690
  153MOL0     C20576   6.259  10.682   2.211  0.3569  0.8456  0.2408
  153MOL0     C20577   6.259  10.797   2.293  1.1105  0.5910 -0.4295
  153MOL0     O20578   6.132  10.839   2.344 -0.7076  0.9671  0.5912
  153MOL0     C20579   6.108  10.964   2.400  1.4966 -0.0111 -0.2162
  153MOL0     C20580   6.070  11.076   2.299 -0.1908 -0.3234 -0.2711
  153MOL0     C20581   6.011  11.028   2.168 -0.0904  0.5882  0.5376
  153MOL0     C20582   6.012  11.138   2.057  0.3779 -0.3278  0.2556
  153MOL0     C20583   6.136  11.178   2.006 -0.1145 -0.0103 -0.1785
  153MOL0     C20584   6.246  11.220   1.966  0.2730  0.0955  0.0832
  153MOL0     C20585   6.372  10.866   2.310  0.2316  0.6621  0.1108
  153MOL0     C20586   6.495  10.825   2.263 -0.4093  0.1639 -0.9766
  153MOL0     C20587   6.609  10.914   2.301  0.2020  0.1744  0.0345
  153MOL0     H20588   6.872  10.477   2.201 -1.1487 -1.9306  0.2178
  153MOL0     H20589   7.091  10.444   2.075  0.0450 -1.3805 -0.6840
  153MOL0     H20590   7.232  10.537   1.950  0.4705  0.5726 -1.6078
  153MOL0     H20591   7.267  10.362   1.946  1.6058 -1.3303 -1.1747
  153MOL0     H20592   7.354  10.407   1.705  0.8108 -0.1712  0.4031
  153MOL0     H20593   7.454  10.473   1.823  1.3730  0.9908 -1.3057
  153MOL0     H20594   7.306  10.693   1.812 -1.4745 -0.8580 -1.2348
  153MOL0     H20595   7.232  10.616   1.674 -0.5878 -1.6784 -0.9818
  153MOL0     H20596   7.530  10.676   1.706  3.1569  0.1847 -4.7009
  153MOL0     H20597   7.465  10.600   1.569  0.8573  0.6036 -0.3145
  153MOL0     H20598   7.488  10.830   1.520 -0.2734  0.4445 -1.0386
  153MOL0     H20599   7.306  10.786   1.524 -0.7879  1.8345  2.3985
  153MOL0     H20600   7.341  11.012   1.616  1.9983  0.2289 -2.4602
  153MOL0     H20601   7.284  10.900   1.735  0.3124  1.0229 -0.7579
  153MOL0     H20602   7.567  10.971   1.684  1.0012  1.7726 -0.0332
  153MOL0     H20603   7.505  10.913   1.844 -0.8524 -2.3403 -1.9240
  153MOL0     H20604   7.445  11.184   1.706  0.4824  3.2260  1.6384
  153MOL0     H20605   7.374  11.126   1.856 -1.1687 -3.0811 -0.6894
  153MOL0     H20606   7.711  11.156   1.676 -1.5646  0.0202 -0.9265
  153MOL0     H20607   7.937  11.373   1.790  2.2146 -2.2612 -0.4228
  153MOL0     H20608   7.934  11.349   1.955  4.8051  0.5321 -0.2705
  153MOL0     H20609   8.033  11.132   1.927 -0.1975 -1.2978 -0.4434
  153MOL0     H20610   7.985  11.112   1.759 -0.7774 -0.0072  1.2000
  153MOL0     H20611   8.239  11.184   1.832  1.4125 -0.0855 -0.0100
  153MOL0     H20612   8.165  11.337   1.833 -2.1968 -0.0104  0.3959
  153MOL0     H20613   8.266  11.322   1.617 -0.0190 -0.8839 -2.0211
  153MOL0     H20614   8.082  11.329   1.597 -1.4408 -0.9855 -0.2572
  153MOL0     H20615   8.216  10.902   1.590 -2.2280 -1.6857 -3.0882
  153MOL0     H20616   8.388  10.769   1.478 -0.2780 -0.4423 -0.8006
  153MOL0     H20617   8.913  10.837   1.283  0.6100  0.5685  0.5004
  153MOL0     H20618   9.081  10.678   1.213  0.3936  1.0229 -0.3493
  153MOL0     H20619   8.940  10.358   0.968  0.4052 -1.2690  2.1285
  153MOL0     H20620   9.071  10.467   0.912  0.9743 -0.2451 -0.4690
  153MOL0     H20621   9.241  10.325   0.998 -2.8759  5.6394  2.9462
  153MOL0     H20622   9.116  10.211   1.062 -2.7068  0.7549 -0.7701
  153MOL0     H20623   9.053  10.170   0.832  1.1409 -2.9687 -0.3615
  153MOL0     H20624   9.160  10.284   0.760 -1.4478 -1.5174 -1.4676
  153MOL0     H20625   9.214  10.025   0.896  0.9819 -0.4048  0.3510
  153MOL0     H20626   9.345  10.139   0.903  1.2587  0.0867 -1.4483
  153MOL0     H20627   9.381  10.154   0.676  0.8770 -0.7316  0.6637
  153MOL0     H20628   9.243  10.053   0.631 -0.9370  0.8554  0.7416
  153MOL0     H20629   9.465   9.955   0.812  0.2189 -3.2129 -0.2616
  153MOL0     H20630   9.317   9.871   0.779  1.3104 -0.3328  1.0886
  153MOL0     H20631   9.485   9.981   0.553 -0.4266  1.3331  0.8242
  153MOL0     H20632   9.365   9.858   0.540  0.5337 -0.3194  0.6129
  153MOL0     H20633   9.474   9.692   0.685 -0.8153 -0.1319 -0.9384
  153MOL0     H20634   9.562   9.728   0.537 -0.6346 -1.6690  0.5084
  153MOL0     H20635   8.822  10.385   1.143 -1.3417  0.1403  0.8804
  153MOL0     H20636   8.628  10.506   1.234 -0.3426 -0.6789 -2.1216
  153MOL0     H20637   8.587  11.145   1.388  1.1083 -0.0090  1.4741
  153MOL0     H20638   8.384  11.254   1.449 -0.7489  0.2142  0.0107
  153MOL0     H20639   6.897  10.490   1.715  4.4619  2.0085  1.9311
  153MOL0     H20640   6.667  10.507   1.829  1.3967  1.6953 -0.8358
  153MOL0     H20641   6.387  10.538   2.112 -2.3800 -0.5569 -0.1547
  153MOL0     H20642   6.175  10.613   2.207  0.3056  0.4110  4.3808
  153MOL0     H20643   6.191  11.000   2.460  1.3909  1.0601 -0.7021
  153MOL0     H20644   6.011  10.954   2.450  0.7390 -0.3404 -1.6736
  153MOL0     H20645   6.162  11.133   2.289 -1.5742  2.0257 -0.3042
  153MOL0     H20646   5.999  11.142   2.350  1.9117  0.7577  1.4161
  153MOL0     H20647   5.912  10.984   2.184 -0.8775  2.4124  0.9179
  153MOL0     H20648   6.058  10.944   2.116  2.0559  3.8584 -3.3940
  153MOL0     H20649   5.962  11.093   1.970  1.1524  0.1773 -0.4659
  153MOL0     H20650   5.950  11.225   2.081 -0.4646 -1.3284  1.9302
  153MOL0     H20651   6.338  11.252   1.921 -0.9132  1.4966 -1.4976
  153MOL0     H20652   6.361  10.957   2.368 -0.9046  1.1437 -0.8334
  153MOL0     H20653   6.632  10.981   2.217  0.1210 -0.8578 -0.8394
  153MOL0     H20654   6.575  10.980   2.381 -0.4353  0.7694 -0.7172
  153MOL0     H20655   6.703  10.865   2.327 -0.9842 -1.9315  0.5538
  154MOL0     O20656   6.724   2.279   5.705 -0.0045  1.1348  0.3533
  154MOL0     C20657   6.633   2.198   5.724  0.2091 -0.1355 -0.3081
  154MOL0     O20658   6.642   2.062   5.706 -0.8135 -0.8259 -1.0674
  154MOL0     C20659   6.760   2.006   5.663  0.3629 -0.3420 -0.5789
  154MOL0     C20660   6.845   1.936   5.757 -0.6129 -0.7402  0.0622
  154MOL0     C20661   6.971   1.893   5.709  0.2971  0.0137  0.2746
  154MOL0     C20662   7.016   1.913   5.578  0.5251  0.4612 -0.3299
  154MOL0     O20663   7.131   1.862   5.521 -0.0847 -1.0006 -0.0737
  154MOL0     C20664   7.246   1.826   5.599  0.0123 -0.7468 -0.9396
  154MOL0     C20665   7.381   1.883   5.545 -0.1381  0.4079  0.5159
  154MOL0     C20666   7.369   2.033   5.516 -0.5484  0.0478 -0.2177
  154MOL0     C20667   7.320   2.051   5.365 -0.3801  0.1583 -0.1872
  154MOL0     C20668   7.331   2.198   5.322  0.0481  0.5727 -0.2689
  154MOL0     C20669   7.333   2.195   5.170 -0.1250 -0.2715  0.7584
  154MOL0     C20670   7.362   2.339   5.123  0.0570  0.2044  0.3561
  154MOL0     C20671   7.359   2.334   4.970  0.0940  0.4851  0.5816
  154MOL0     N20672   7.397   2.462   4.930  0.1409  0.2949  0.0381
  154MOL0     C20673   7.515   2.492   4.863 -0.3627  0.0890 -0.2110
  154MOL0     C20674   7.489   2.616   4.806  0.2964  0.4417 -0.3842
  154MOL0     C20675   7.573   2.717   4.739  0.2339 -0.2229 -0.1167
  154MOL0     C20676   7.672   2.786   4.838 -0.1237  0.7709  0.3057
  154MOL0     C20677   7.770   2.874   4.766  0.4094 -0.2280  0.5114
  154MOL0     C20678   7.899   2.808   4.721 -0.2731 -0.7841 -0.7026
  154MOL0     O20679   7.975   2.892   4.630  0.0127 -1.0975  0.0127
  154MOL0     C20680   8.111   2.863   4.605  0.0519  0.3262 -0.1253
  154MOL0     C20681   8.187   2.976   4.554  0.4470  0.1696  0.4441
  154MOL0     C20682   8.321   2.963   4.525 -0.3945 -0.0214  0.1278
  154MOL0     C20683   8.391   2.844   4.557 -0.5549  0.1812  0.1455
  154MOL0     C20684   8.532   2.817   4.518  0.1435 -0.8776 -0.1631
  154MOL0     O20685   8.602   2.935   4.483  0.2256  0.0066  0.0513
  154MOL0     C20686   8.738   2.928   4.438  0.0791  0.1611 -0.8664
  154MOL0     C20687   8.800   3.059   4.424 -0.1735 -0.6412 -0.5650
  154MOL0     C20688   8.927   3.069   4.374 -0.4496  0.2084  0.6221
  154MOL0     C20689   9.007   2.961   4.339  0.1585 -1.2141  0.1353
  154MOL0     O20690   9.127   2.988   4.293 -0.3759 -0.1054 -0.3302
  154MOL0     C20691   9.157   2.941   4.163 -0.4133  0.5070  0.2974
  154MOL0     C20692   9.293   3.004   4.116 -0.1239  0.2606 -0.1851
  154MOL0     C20693   9.415   2.954   4.205  0.0581 -0.5077  0.5827
  154MOL0     C20694   9.549   3.021   4.169  0.0320  0.2227  0.1887
  154MOL0     C20695   9.665   2.976   4.259 -0.1943 -0.5888 -0.1092
  154MOL0     C20696   9.797   3.046   4.232  0.0433  0.0255 -0.2213
  154MOL0     C20697   9.900   3.017   4.343  0.4129  0.1485  0.2012
  154MOL0     C20698   9.977   2.890   4.321 -0.2757 -0.1812 -0.6828
  154MOL0    Cl20699  10.125   2.907   4.222 -0.6962 -0.0626 -0.3634
  154MOL0     C20700   8.948   2.833   4.340 -0.8682 -0.1401 -0.4441
  154MOL0     C20701   8.816   2.820   4.391 -0.1391  0.0555  0.4762
  154MOL0     O20702   8.577   2.710   4.534  0.3452  0.9193 -0.6107
  154MOL0     C20703   8.315   2.733   4.597  0.8383  0.4718  0.0988
  154MOL0     C20704   8.179   2.750   4.631  0.4754  1.0551  0.2619
  154MOL0     N20705   7.356   2.647   4.844  0.1554  0.0048  0.2778
  154MOL0     N20706   7.305   2.557   4.920 -0.2978  0.1902  0.0418
  154MOL0     C20707   6.936   1.989   5.494 -0.0428  1.0130  0.9193
  154MOL0     C20708   6.806   2.032   5.536  0.1118  0.6536 -0.5445
  154MOL0     C20709   6.508   2.261   5.769 -0.0035 -0.6314  1.0287
  154MOL0     C20710   6.463   2.374   5.700 -0.0789 -0.1637 -0.1550
  154MOL0     C20711   6.335   2.424   5.721 -0.0990  0.0359 -0.2649
  154MOL0     C20712   6.243   2.365   5.810 -0.0784  0.1179  0.5622
  154MOL0     O20713   6.116   2.414   5.804 -0.1850 -0.3035 -1.1831
  154MOL0     C20714   6.031   2.391   5.921  0.1996 -0.4646 -0.6819
  154MOL0     C20715   5.925   2.503   5.915 -0.1290 -0.7682  0.5784
  154MOL0     C20716   5.814   2.480   6.016 -0.3066  0.3033  0.2884
  154MOL0     C20717   5.721   2.600   6.029 -0.0573 -0.2397  0.2895
  154MOL0     C20718   5.614   2.562   6.124  0.2107  0.8783 -0.6641
  154MOL0     C20719   5.529   2.517   6.203  0.1181 -0.0520 -0.0269
  154MOL0     C20720   6.290   2.249   5.879 -0.6952 -0.2465  0.2677
  154MOL0     C20721   6.416   2.198   5.854 -0.2823  0.4340 -0.7421
  154MOL0     C20722   6.452   2.063   5.922  0.2604 -0.7680  0.1316
  154MOL0     H20723   6.814   1.913   5.858  1.2335  0.8096  1.0429
  154MOL0     H20724   7.038   1.843   5.778  0.6263 -1.0935 -0.8168
  154MOL0     H20725   7.239   1.872   5.698  2.0063  0.1879 -1.1980
  154MOL0     H20726   7.237   1.717   5.610 -1.2217 -0.7760 -1.9744
  154MOL0     H20727   7.417   1.830   5.457  0.8744  0.9636  0.5865
  154MOL0     H20728   7.462   1.865   5.616 -1.2035  1.9489  2.2339
  154MOL0     H20729   7.471   2.070   5.527  0.2658 -2.6513  2.1992
  154MOL0     H20730   7.323   2.088   5.599  1.3633 -0.3214  1.1416
  154MOL0     H20731   7.395   2.001   5.303 -0.3037 -0.5770  0.4894
  154MOL0     H20732   7.222   2.007   5.345 -0.3180 -0.3140  0.5273
  154MOL0     H20733   7.254   2.258   5.371 -0.2118 -1.4187  1.9453
  154MOL0     H20734   7.432   2.231   5.351  1.2060 -0.8202 -2.3896
  154MOL0     H20735   7.413   2.131   5.129  0.1188  1.4686 -1.7472
  154MOL0     H20736   7.237   2.148   5.145  0.2198 -0.4757 -0.2490
  154MOL0     H20737   7.455   2.375   5.168 -1.1165  1.1097  2.2136
  154MOL0     H20738   7.285   2.405   5.165 -0.0244 -0.2731  0.9742
  154MOL0     H20739   7.425   2.262   4.919 -0.5735  0.4267 -0.2212
  154MOL0     H20740   7.255   2.319   4.941 -0.1287 -0.3562  1.7594
  154MOL0     H20741   7.605   2.438   4.838  0.7846  1.2414  1.2610
  154MOL0     H20742   7.621   2.672   4.652 -1.1505  1.7982 -2.0096
  154MOL0     H20743   7.503   2.792   4.703  0.5566 -1.0928 -2.7592
  154MOL0     H20744   7.606   2.855   4.891  0.7510  0.7950  1.3964
  154MOL0     H20745   7.718   2.715   4.908 -0.2410  0.2178 -0.1646
  154MOL0     H20746   7.799   2.937   4.851  1.9943 -4.3495  3.3419
  154MOL0     H20747   7.724   2.933   4.686 -0.5486  0.5565  1.6072
  154MOL0     H20748   7.884   2.711   4.673  1.6835 -1.4811 -0.0214
  154MOL0     H20749   7.946   2.779   4.816 -1.0294  1.4305  0.4213
  154MOL0     H20750   8.136   3.069   4.530 -0.3033 -1.0650 -3.4470
  154MOL0     H20751   8.377   3.049   4.490 -0.5971 -0.1389 -0.5087
  154MOL0     H20752   8.756   3.156   4.444  1.2414 -0.4749  2.1182
  154MOL0     H20753   8.973   3.167   4.366 -0.1483 -0.0350 -1.1661
  154MOL0     H20754   9.169   2.833   4.173  1.7002  0.7935  1.3892
  154MOL0     H20755   9.079   2.950   4.086 -0.5789 -0.7261  0.3095
  154MOL0     H20756   9.328   2.971   4.017  2.8376  1.0242  0.5053
  154MOL0     H20757   9.287   3.113   4.118  1.1460  0.3681 -0.9189
  154MOL0     H20758   9.396   2.986   4.308 -0.6023 -0.6208  0.5000
  154MOL0     H20759   9.422   2.846   4.188  0.7664 -0.2315 -1.0047
  154MOL0     H20760   9.539   3.128   4.192 -1.6578 -0.5524  3.6931
  154MOL0     H20761   9.583   2.998   4.068  0.4671 -3.6712  1.0681
  154MOL0     H20762   9.684   2.868   4.257  0.1222 -0.5258 -1.0364
  154MOL0     H20763   9.626   2.992   4.359 -0.7673  0.6903 -0.5231
  154MOL0     H20764   9.833   3.024   4.132  1.2332  3.9614 -0.8328
  154MOL0     H20765   9.779   3.154   4.227 -1.0053 -0.1174  0.1854
  154MOL0     H20766   9.850   3.013   4.440  0.5899  1.1238  0.3483
  154MOL0     H20767   9.972   3.099   4.354  2.0093 -0.8975 -1.7454
  154MOL0     H20768  10.011   2.860   4.421 -0.6239 -0.8690 -0.7664
  154MOL0     H20769   9.911   2.809   4.291 -1.1278  0.5993 -0.9489
  154MOL0     H20770   9.007   2.743   4.322  0.2773  0.8415 -1.8950
  154MOL0     H20771   8.781   2.717   4.394 -0.2118  0.0896  2.3631
  154MOL0     H20772   8.369   2.641   4.615 -1.0213 -0.7167 -0.1929
  154MOL0     H20773   8.125   2.665   4.671  0.6968 -0.5702 -2.5833
  154MOL0     H20774   6.980   2.021   5.400  2.4258 -0.3766  1.5289
  154MOL0     H20775   6.740   2.094   5.476 -1.8323  0.1678  0.9658
  154MOL0     H20776   6.520   2.419   5.619 -1.0429  1.6362  0.1279
  154MOL0     H20777   6.299   2.513   5.671  1.0608  1.5290  1.4149
  154MOL0     H20778   6.084   2.380   6.016  1.2898 -1.3796 -1.3675
  154MOL0     H20779   5.983   2.294   5.907  2.3827 -1.9384  1.2146
  154MOL0     H20780   5.878   2.512   5.816  0.3378 -1.2610  0.3098
  154MOL0     H20781   5.978   2.596   5.937  0.3001 -1.0353  0.6741
  154MOL0     H20782   5.862   2.473   6.114  1.3035 -2.2177 -0.5939
  154MOL0     H20783   5.754   2.391   5.995  0.4944 -0.1375 -0.1588
  154MOL0     H20784   5.775   2.690   6.059 -2.5119  0.6729  2.3116
  154MOL0     H20785   5.685   2.616   5.927 -0.6961  0.8322  0.6724
  154MOL0     H20786   5.448   2.485   6.265  0.3689  0.2542  0.4629
  154MOL0     H20787   6.231   2.210   5.961  0.0406  2.6762  2.3493
  154MOL0     H20788   6.454   1.981   5.849 -2.9250 -0.9433  0.0971
  154MOL0     H20789   6.551   2.069   5.966 -1.1197  2.6557  3.2532
  154MOL0     H20790   6.379   2.033   5.998  0.9128 -0.9876  0.6792
  155MOL0     O20791   7.468   5.082   5.367  0.0016  0.0480 -0.8210
  155MOL0     C20792   7.429   5.195   5.389  0.4759 -1.2568  0.2901
  155MOL0     O20793   7.445   5.302   5.303  0.4960  0.4483  0.7998
  155MOL0     C20794   7.538   5.284   5.205 -0.1354 -0.3715 -0.7347
  155MOL0     C20795   7.502   5.318   5.078 -0.1624 -0.6797 -0.8599
  155MOL0     C20796   7.598   5.329   4.978 -0.1166  0.2114 -0.4811
  155MOL0     C20797   7.737   5.288   5.000  1.1213 -0.0042  0.0414
  155MOL0     O20798   7.825   5.285   4.893  0.4302 -0.1477  0.1703
  155MOL0     C20799   7.927   5.185   4.894 -0.4264 -0.9819 -0.2960
  155MOL0     C20800   7.877   5.050   4.862  0.1545  0.6072  0.2484
  155MOL0     C20801   7.993   4.948   4.843 -0.1674  0.6029 -0.3238
  155MOL0     C20802   7.959   4.830   4.749  0.4795 -0.5941 -0.0467
  155MOL0     C20803   8.083   4.751   4.706 -0.7275  0.3017 -0.8711
  155MOL0     C20804   8.125   4.663   4.814 -0.9483  0.0734 -0.5342
  155MOL0     C20805   8.251   4.595   4.774 -0.4623 -1.2023  0.1506
  155MOL0     C20806   8.314   4.503   4.876  0.3803 -0.6904  0.1051
  155MOL0     N20807   8.212   4.395   4.895 -0.2288 -0.0697  0.1644
  155MOL0     C20808   8.197   4.269   4.836  0.2988 -0.0509  0.0205
  155MOL0     C20809   8.081   4.228   4.891  0.3416  0.6216  0.4783
  155MOL0     C20810   8.034   4.086   4.857 -0.6415  0.1663  0.2662
  155MOL0     C20811   7.987   4.076   4.708 -0.5212  1.0000 -0.3977
  155MOL0     C20812   7.870   4.159   4.680  0.6187  0.3276 -0.4722
  155MOL0     C20813   7.732   4.081   4.737 -0.4430 -0.5969 -0.0730
  155MOL0     O20814   7.638   4.184   4.760  0.0190  0.2320  0.1121
  155MOL0     C20815   7.509   4.143   4.801 -0.5508  0.3297  0.6075
  155MOL0     C20816   7.431   4.047   4.736  0.3282  0.5298 -0.4955
  155MOL0     C20817   7.306   4.008   4.790  0.3149 -0.0753  0.2374
  155MOL0     C20818   7.244   4.083   4.887 -0.7306  0.0361 -0.3741
  155MOL0     C20819   7.110   4.060   4.932 -0.0253 -0.2212  0.0348
  155MOL0     O20820   7.043   3.956   4.872 -0.3925  0.0941 -0.2359
  155MOL0     C20821   6.919   3.916   4.928  0.5304  0.7547 -0.5250
  155MOL0     C20822   6.806   3.916   4.848  0.2047 -0.9055  0.5110
  155MOL0     C20823   6.676   3.865   4.883  0.2987  0.5854  0.5770
  155MOL0     C20824   6.653   3.813   5.014 -0.0450 -0.2188 -0.1075
  155MOL0     O20825   6.534   3.765   5.061  0.0528  0.5162 -0.4054
  155MOL0     C20826   6.418   3.793   4.987 -0.7306  0.2704  0.2049
  155MOL0     C20827   6.300   3.756   5.080 -0.2834  0.1619  0.3810
  155MOL0     C20828   6.160   3.789   5.027  0.7031  0.3652  0.0537
  155MOL0     C20829   6.111   3.732   4.897 -0.2907 -0.1757  1.0801
  155MOL0     C20830   5.974   3.795   4.856  0.6611  0.3193  1.4028
  155MOL0     C20831   5.945   3.743   4.711 -0.5103 -0.0758 -0.2424
  155MOL0     C20832   5.806   3.790   4.663  0.1614  0.3889 -0.9174
  155MOL0     C20833   5.786   3.795   4.516  0.1223 -0.1801  0.6155
  155MOL0    Cl20834   5.620   3.882   4.488 -0.0492 -0.4744 -0.1809
  155MOL0     C20835   6.773   3.801   5.092  0.1587 -0.1528  1.0993
  155MOL0     C20836   6.901   3.852   5.055 -0.6975 -0.3706  0.0062
  155MOL0     O20837   7.063   4.142   5.014  0.2471  1.0417  0.0897
  155MOL0     C20838   7.314   4.192   4.949  0.7486  0.6776  0.1504
  155MOL0     C20839   7.446   4.213   4.902 -0.5797 -0.5456  0.0754
  155MOL0     N20840   8.042   4.320   4.987  0.0052 -0.3832 -0.2282
  155MOL0     N20841   8.119   4.408   4.997 -0.6264 -0.5637 -0.0006
  155MOL0     C20842   7.772   5.242   5.132  0.3279  0.1873  0.3488
  155MOL0     C20843   7.669   5.248   5.234 -0.7768 -0.2003  0.5205
  155MOL0     C20844   7.355   5.219   5.514  0.1460  0.5477  0.8810
  155MOL0     C20845   7.276   5.112   5.562 -0.7027 -0.0129  0.2916
  155MOL0     C20846   7.196   5.135   5.674  0.4312  0.2460  1.1621
  155MOL0     C20847   7.197   5.264   5.738  0.4795 -0.6913  0.2371
  155MOL0     O20848   7.116   5.290   5.845  0.3821  0.5085 -0.5765
  155MOL0     C20849   7.188   5.324   5.966  0.2893 -0.0966 -0.4821
  155MOL0     C20850   7.202   5.208   6.065 -0.1875  0.1376  0.9472
  155MOL0     C20851   7.067   5.180   6.124 -1.1201  0.2177  0.2152
  155MOL0     C20852   7.035   5.033   6.145 -0.0633  0.5943 -0.0665
  155MOL0     C20853   7.120   4.971   6.244  0.8558 -0.0199 -0.1988
  155MOL0     C20854   7.170   4.907   6.332  0.3765  0.3453  1.0075
  155MOL0     C20855   7.275   5.362   5.689  0.6974 -0.3495  0.3715
  155MOL0     C20856   7.350   5.346   5.580  0.0113 -0.4889  0.6042
  155MOL0     C20857   7.470   5.447   5.553  0.4160  0.4035  0.0348
  155MOL0     H20858   7.401   5.352   5.062  0.9339  2.4366 -1.9083
  155MOL0     H20859   7.559   5.365   4.883 -2.1112  1.0641  0.6185
  155MOL0     H20860   8.001   5.231   4.828  0.9252 -1.8150  0.5916
  155MOL0     H20861   7.970   5.185   4.994  0.3430  0.4356 -0.6090
  155MOL0     H20862   7.843   5.065   4.759  3.1509  1.2716 -0.7333
  155MOL0     H20863   7.804   5.017   4.937 -1.5781  0.1884 -1.5324
  155MOL0     H20864   8.010   4.904   4.941  0.1327  1.1907 -0.1058
  155MOL0     H20865   8.079   5.002   4.799  0.5459 -1.6931 -1.9261
  155MOL0     H20866   7.875   4.775   4.790 -2.4183  2.4074 -1.4994
  155MOL0     H20867   7.916   4.871   4.657  2.7520  0.6900 -0.6273
  155MOL0     H20868   8.062   4.682   4.623 -1.8793 -0.4878  0.0547
  155MOL0     H20869   8.158   4.821   4.668 -0.3560 -0.6225 -1.9101
  155MOL0     H20870   8.159   4.724   4.898  1.7588  0.4446 -1.7897
  155MOL0     H20871   8.053   4.593   4.856 -1.3104  0.6963 -0.0919
  155MOL0     H20872   8.320   4.677   4.749 -1.1594 -0.7254 -0.2394
  155MOL0     H20873   8.247   4.546   4.677 -1.9434  0.6636 -0.7875
  155MOL0     H20874   8.412   4.467   4.843 -0.5962  1.0228 -5.7887
  155MOL0     H20875   8.329   4.562   4.967 -1.3775  0.3345 -0.2213
  155MOL0     H20876   8.259   4.223   4.760  1.4260  2.3951 -0.6259
  155MOL0     H20877   8.113   4.013   4.876 -1.3358 -0.2327  1.8207
  155MOL0     H20878   7.958   4.062   4.932  0.9950 -1.2301  1.5571
  155MOL0     H20879   8.063   4.100   4.632 -0.7808 -0.7253 -1.2414
  155MOL0     H20880   7.953   3.976   4.680  0.5986  1.3315 -3.2809
  155MOL0     H20881   7.857   4.182   4.574 -1.0060  1.0419 -0.1581
  155MOL0     H20882   7.891   4.261   4.716 -0.6271  1.2179 -2.1308
  155MOL0     H20883   7.735   4.026   4.832 -0.3066 -1.5011 -0.5897
  155MOL0     H20884   7.703   4.004   4.664 -1.9803  1.3921 -1.6667
  155MOL0     H20885   7.462   3.987   4.651 -1.4896 -2.2997  0.6910
  155MOL0     H20886   7.259   3.925   4.738  2.6683 -3.1170  2.5292
  155MOL0     H20887   6.805   3.972   4.755 -0.5928 -0.9243  0.4956
  155MOL0     H20888   6.592   3.886   4.818 -1.5859 -1.3683  2.2157
  155MOL0     H20889   6.415   3.900   4.962  1.1717  0.0063 -1.4454
  155MOL0     H20890   6.408   3.731   4.897 -2.0023  0.1387  0.4149
  155MOL0     H20891   6.293   3.647   5.092 -1.4843  0.3032  1.1653
  155MOL0     H20892   6.306   3.804   5.177 -1.6237  2.7954 -0.7423
  155MOL0     H20893   6.086   3.764   5.104 -2.7770  2.4069 -2.3367
  155MOL0     H20894   6.156   3.897   5.007  1.0902 -0.0603 -2.8005
  155MOL0     H20895   6.085   3.626   4.898 -1.2706  0.0507  2.2376
  155MOL0     H20896   6.185   3.756   4.820  2.7523 -2.2861  3.1081
  155MOL0     H20897   5.974   3.903   4.871 -1.2494  0.6964 -0.8921
  155MOL0     H20898   5.897   3.755   4.923  0.7521 -0.0604  1.2828
  155MOL0     H20899   6.020   3.776   4.638 -2.1546  1.2193 -1.4534
  155MOL0     H20900   5.945   3.634   4.707 -1.1255 -0.1375  0.9603
  155MOL0     H20901   5.789   3.890   4.703 -1.1082 -0.7049  1.5107
  155MOL0     H20902   5.731   3.724   4.708 -0.5367  0.4992 -1.8881
  155MOL0     H20903   5.855   3.865   4.468 -0.9552  0.5732  0.1334
  155MOL0     H20904   5.775   3.694   4.477 -4.6113 -0.4651  2.0842
  155MOL0     H20905   6.759   3.747   5.185 -1.8101 -1.3723  0.1523
  155MOL0     H20906   6.987   3.849   5.121  0.4281  3.5551 -1.0501
  155MOL0     H20907   7.268   4.243   5.033 -0.7731  0.8892 -0.7693
  155MOL0     H20908   7.509   4.294   4.936 -1.2608 -0.3738  0.9617
  155MOL0     H20909   7.866   5.196   5.161  0.0385 -0.9754 -0.4327
  155MOL0     H20910   7.683   5.208   5.334  2.0136 -0.5486  0.0785
  155MOL0     H20911   7.264   5.013   5.518 -2.1327 -0.9861  2.6261
  155MOL0     H20912   7.130   5.054   5.702 -1.2124  1.3993  0.7627
  155MOL0     H20913   7.148   5.416   6.010  1.1472 -0.0629  0.2490
  155MOL0     H20914   7.289   5.353   5.934 -0.1454  1.1901 -0.7508
  155MOL0     H20915   7.276   5.235   6.142  1.7111 -0.1876 -0.6873
  155MOL0     H20916   7.235   5.121   6.008  0.5624  0.9507  0.1001
  155MOL0     H20917   6.988   5.217   6.058 -0.7148 -2.6708 -2.0908
  155MOL0     H20918   7.073   5.239   6.216  3.6029  2.2347 -1.0799
  155MOL0     H20919   6.931   5.028   6.178  0.7459 -0.0796  2.6459
  155MOL0     H20920   7.040   4.974   6.053 -3.5865  0.5100 -0.3224
  155MOL0     H20921   7.215   4.850   6.411  0.7808 -0.0135  0.5255
  155MOL0     H20922   7.267   5.456   5.742 -2.6901 -0.9867  1.1909
  155MOL0     H20923   7.450   5.497   5.458 -2.8068 -2.2868 -0.8755
  155MOL0     H20924   7.494   5.519   5.632  1.5534 -1.0548  1.0779
  155MOL0     H20925   7.559   5.385   5.540  0.2539  0.6404 -2.6161
  156MOL0     O20926   5.275   4.172   1.325 -0.5582 -0.7601  0.1033
  156MOL0     C20927   5.279   4.189   1.203 -0.4775 -0.2709 -0.2524
  156MOL0     O20928   5.397   4.189   1.131  0.4191  0.2568 -0.0755
  156MOL0     C20929   5.523   4.155   1.176  0.5633  0.4307  0.1125
  156MOL0     C20930   5.560   4.114   1.308  0.1407  0.2222 -0.6079
  156MOL0     C20931   5.692   4.072   1.345 -0.3726 -0.2466 -0.0589
  156MOL0     C20932   5.797   4.086   1.257 -0.2664 -0.1885  0.7898
  156MOL0     O20933   5.917   4.033   1.299  0.6537  0.4987  0.4850
  156MOL0     C20934   6.030   4.051   1.218  0.1825 -0.2456 -0.2324
  156MOL0     C20935   6.130   3.988   1.313  0.0398  0.3367  0.2080
  156MOL0     C20936   6.274   4.038   1.278  0.0743  0.4346  0.2909
  156MOL0     C20937   6.331   3.937   1.180 -0.0614  1.6117 -0.3780
  156MOL0     C20938   6.453   3.986   1.098  0.3774 -0.2223  0.6246
  156MOL0     C20939   6.524   3.872   1.026  0.8546 -0.3392  0.5066
  156MOL0     C20940   6.661   3.900   0.979 -0.3624 -0.0956 -0.3966
  156MOL0     C20941   6.676   4.010   0.862  0.4484  0.2451 -0.9401
  156MOL0     N20942   6.616   3.980   0.731  0.4410  0.0196 -0.0245
  156MOL0     C20943   6.664   3.905   0.627  0.2961  0.4513  0.0008
  156MOL0     C20944   6.570   3.895   0.533  0.0716  0.2036 -0.6803
  156MOL0     C20945   6.549   3.814   0.409  0.3875 -0.6693 -0.7548
  156MOL0     C20946   6.610   3.879   0.290  0.2323  0.8636  0.3508
  156MOL0     C20947   6.762   3.851   0.289 -0.5674 -0.4999  0.2281
  156MOL0     C20948   6.822   3.888   0.154  0.1474 -0.8655 -0.3483
  156MOL0     O20949   6.766   3.832   0.043  0.4009  1.1311  0.0144
  156MOL0     C20950   6.826   3.845  -0.082  0.5814 -0.1110  0.4082
  156MOL0     C20951   6.770   3.772  -0.184  0.5711  0.0639 -0.4130
  156MOL0     C20952   6.812   3.780  -0.320 -1.0020  0.4221  0.1662
  156MOL0     C20953   6.910   3.871  -0.351  0.0329  0.4864  0.2308
  156MOL0     C20954   6.965   3.880  -0.491  0.4271  0.5494  0.0618
  156MOL0     O20955   7.101   3.914  -0.496  0.4679  0.1499 -0.8350
  156MOL0     C20956   7.174   3.958  -0.605  1.1698  0.0048 -0.2121
  156MOL0     C20957   7.122   4.021  -0.723 -0.5728 -0.5718  0.0027
  156MOL0     C20958   7.201   4.063  -0.822  1.0169 -0.5020  0.7193
  156MOL0     C20959   7.340   4.056  -0.810  1.4259 -0.2120  0.8329
  156MOL0     O20960   7.424   4.111  -0.907 -0.4795  0.0157  0.0482
  156MOL0     C20961   7.529   4.198  -0.870  0.4473  0.2845 -0.0070
  156MOL0     C20962   7.549   4.288  -0.993  0.5261  0.7531 -0.5439
  156MOL0     C20963   7.445   4.391  -1.012  0.4915 -0.2911  0.7545
  156MOL0     C20964   7.487   4.512  -1.090  0.2216 -0.7047  0.0000
  156MOL0     C20965   7.397   4.639  -1.072  0.2815 -0.3091  0.7715
  156MOL0     C20966   7.249   4.625  -1.112  0.4064 -0.2205 -0.1429
  156MOL0     C20967   7.218   4.578  -1.254 -0.2497 -0.4254  0.4360
  156MOL0     C20968   7.072   4.537  -1.287 -0.0586  0.1516 -0.0013
  156MOL0    Cl20969   7.017   4.415  -1.173  0.2003  0.0612  0.7266
  156MOL0     C20970   7.400   3.989  -0.703 -0.3495  0.0025 -0.0399
  156MOL0     C20971   7.312   3.938  -0.599  0.0345 -0.6290 -1.0574
  156MOL0     O20972   6.895   3.865  -0.585  0.2629 -0.5385  1.1648
  156MOL0     C20973   6.975   3.944  -0.245 -0.1169 -0.4449  0.1272
  156MOL0     C20974   6.930   3.927  -0.110 -0.9329 -1.0738  0.6969
  156MOL0     N20975   6.461   3.971   0.585 -0.3192 -0.1745  0.0063
  156MOL0     N20976   6.498   4.022   0.691 -0.2899  0.5737 -0.5127
  156MOL0     C20977   5.770   4.115   1.118 -0.3379  0.4676 -0.2428
  156MOL0     C20978   5.631   4.148   1.083 -0.7204 -0.9471  0.0490
  156MOL0     C20979   5.155   4.199   1.131  0.2191 -0.2766 -0.4212
  156MOL0     C20980   5.166   4.173   0.992 -0.3430  0.0593 -0.2375
  156MOL0     C20981   5.053   4.172   0.918  0.0772 -0.1631  0.3463
  156MOL0     C20982   4.926   4.198   0.968  0.0979 -0.4400  0.4911
  156MOL0     O20983   4.825   4.212   0.879  0.3665 -0.0515 -0.0145
  156MOL0     C20984   4.689   4.217   0.920 -0.1653  0.5447 -0.9192
  156MOL0     C20985   4.645   4.086   1.005  0.0244 -0.2825  0.0499
  156MOL0     C20986   4.629   3.962   0.922  0.2098  0.5632 -0.6195
  156MOL0     C20987   4.752   3.865   0.921  0.5567 -0.3283  0.2802
  156MOL0     C20988   4.749   3.779   0.804  0.6581 -1.1257  0.3039
  156MOL0     C20989   4.751   3.713   0.707  0.4228  0.7383 -0.0284
  156MOL0     C20990   4.917   4.243   1.097 -0.2583  0.8358 -0.4287
  156MOL0     C20991   5.029   4.229   1.183 -0.2073 -0.2081 -0.6166
  156MOL0     C20992   5.012   4.261   1.332 -0.7903  0.2337 -0.3561
  156MOL0     H20993   5.496   4.123   1.395  0.9058 -1.3503  0.1467
  156MOL0     H20994   5.717   4.054   1.450 -0.0378  1.1771  0.1259
  156MOL0     H20995   6.026   3.991   1.127  2.2278 -3.8949  1.8682
  156MOL0     H20996   6.052   4.157   1.199  1.8158 -0.6188 -0.5530
  156MOL0     H20997   6.123   3.879   1.313  2.8477 -0.0171  3.4314
  156MOL0     H20998   6.109   4.023   1.414  0.5443  0.3151  0.3258
  156MOL0     H20999   6.334   4.033   1.369 -1.6468  0.0514  1.4629
  156MOL0     H21000   6.273   4.142   1.245  1.8793  1.4357  3.0611
  156MOL0     H21001   6.352   3.848   1.240 -0.3377  1.9283  0.2081
  156MOL0     H21002   6.253   3.912   1.109 -0.9330  1.0481  0.7379
  156MOL0     H21003   6.410   4.058   1.028 -2.5142 -1.1703  1.2871
  156MOL0     H21004   6.517   4.046   1.163  0.0324 -1.0230  1.7423
  156MOL0     H21005   6.519   3.780   1.085  0.4765  0.6097  2.0216
  156MOL0     H21006   6.465   3.856   0.936  0.2261 -0.9536  1.0205
  156MOL0     H21007   6.692   3.804   0.937  0.2059 -0.2320  0.3138
  156MOL0     H21008   6.724   3.929   1.064 -0.8271 -3.9248  1.4430
  156MOL0     H21009   6.626   4.101   0.898 -0.4445 -0.9463  1.0093
  156MOL0     H21010   6.784   4.018   0.850  1.0755 -1.6158  2.3099
  156MOL0     H21011   6.765   3.866   0.619  0.7843  1.5833  0.3504
  156MOL0     H21012   6.595   3.719   0.436  1.1874  0.5332  2.5008
  156MOL0     H21013   6.441   3.806   0.393 -0.2750 -2.5603  3.3903
  156MOL0     H21014   6.565   3.830   0.203 -1.1772 -1.1452  2.1227
  156MOL0     H21015   6.584   3.986   0.290  0.6648  0.9710 -0.0233
  156MOL0     H21016   6.799   3.751   0.315 -1.2800 -0.5476  1.1140
  156MOL0     H21017   6.806   3.907   0.371  0.9545  1.5385 -1.8599
  156MOL0     H21018   6.929   3.865   0.147  0.5742  1.1154 -1.0626
  156MOL0     H21019   6.814   3.996   0.139  0.1644 -0.5578  1.5663
  156MOL0     H21020   6.674   3.725  -0.165 -0.1448  1.7614  0.4310
  156MOL0     H21021   6.760   3.732  -0.401 -1.4000  2.8773 -1.1406
  156MOL0     H21022   7.014   4.023  -0.732 -0.3943 -0.5760 -2.6413
  156MOL0     H21023   7.165   4.122  -0.905  3.7519  0.5738  0.1759
  156MOL0     H21024   7.513   4.256  -0.779  2.4153 -0.8531  1.1403
  156MOL0     H21025   7.624   4.146  -0.855 -0.3734 -1.4209 -0.4718
  156MOL0     H21026   7.634   4.356  -0.980  1.1749 -0.3505  1.3190
  156MOL0     H21027   7.574   4.225  -1.078  1.9107 -0.6915  0.8747
  156MOL0     H21028   7.360   4.345  -1.064  0.5028  0.5468 -0.0373
  156MOL0     H21029   7.395   4.426  -0.922 -4.2111  1.5355 -2.1934
  156MOL0     H21030   7.503   4.488  -1.196 -0.6771  2.8652 -1.0987
  156MOL0     H21031   7.578   4.558  -1.051 -0.6260  3.0795 -1.9472
  156MOL0     H21032   7.444   4.716  -1.135 -1.2716 -1.1325 -1.5026
  156MOL0     H21033   7.402   4.682  -0.971 -1.9221  0.5407  0.5712
  156MOL0     H21034   7.188   4.556  -1.053 -1.7801 -1.2948 -3.3801
  156MOL0     H21035   7.198   4.721  -1.100 -2.7652 -1.8684  0.6989
  156MOL0     H21036   7.285   4.494  -1.274  4.6775  2.5415  2.4219
  156MOL0     H21037   7.242   4.652  -1.331 -3.9869  0.9706  0.3908
  156MOL0     H21038   7.008   4.624  -1.272  5.2772  5.0215 -1.6474
  156MOL0     H21039   7.059   4.497  -1.388  2.7822 -2.4562  0.5224
  156MOL0     H21040   7.507   3.975  -0.692 -0.4934 -1.3779 -0.1513
  156MOL0     H21041   7.355   3.887  -0.514 -1.6231 -0.2078  0.0766
  156MOL0     H21042   7.059   4.006  -0.274 -0.3162  0.6452  1.7345
  156MOL0     H21043   6.986   3.975  -0.031 -1.5514  0.5226  0.2145
  156MOL0     H21044   5.857   4.114   1.052  1.7987  1.0926  2.3869
  156MOL0     H21045   5.591   4.177   0.986 -1.0048  0.7891  0.6692
  156MOL0     H21046   5.260   4.155   0.942 -0.7129 -0.2234 -0.8444
  156MOL0     H21047   5.060   4.136   0.816 -0.4720 -1.0419  0.6077
  156MOL0     H21048   4.623   4.209   0.832  0.1916 -1.3002 -1.0559
  156MOL0     H21049   4.659   4.308   0.972 -2.2564  0.7142 -2.2910
  156MOL0     H21050   4.544   4.113   1.038 -0.5057  0.1192 -1.7553
  156MOL0     H21051   4.708   4.075   1.094  1.9236  0.0860 -1.1972
  156MOL0     H21052   4.601   3.990   0.820  0.3907  0.7634 -0.6144
  156MOL0     H21053   4.543   3.902   0.954  0.0716 -0.5955 -2.9080
  156MOL0     H21054   4.837   3.932   0.912 -0.2421  0.7707  0.6494
  156MOL0     H21055   4.754   3.817   1.020 -0.8107  1.0613  1.0286
  156MOL0     H21056   4.761   3.671   0.609 -2.4734  1.8633 -0.8884
  156MOL0     H21057   4.829   4.286   1.142 -1.0249 -0.2495 -0.8461
  156MOL0     H21058   5.044   4.174   1.390 -1.9697 -0.2784 -0.4441
  156MOL0     H21059   5.071   4.350   1.357 -0.8122  0.7047 -1.8845
  156MOL0     H21060   4.907   4.272   1.359 -0.6815 -0.9387  0.6106
  157MOL0     O21061   6.733   6.339   9.225  0.5179  1.0265  0.1112
  157MOL0     C21062   6.702   6.337   9.109  0.3545 -0.0218  0.4194
  157MOL0     O21063   6.786   6.355   9.010 -0.4328 -0.1301  0.7291
  157MOL0     C21064   6.912   6.412   9.024  0.3804  0.0371 -1.5113
  157MOL0     C21065   7.007   6.356   9.110 -0.0438 -0.1837  0.7518
  157MOL0     C21066   7.135   6.419   9.119  0.5552  0.3273  0.3084
  157MOL0     C21067   7.161   6.536   9.042 -0.5492  0.6478  0.6127
  157MOL0     O21068   7.284   6.594   9.040  0.8855 -0.8330  0.6784
  157MOL0     C21069   7.399   6.509   9.070  0.7814 -0.4614  0.5531
  157MOL0     C21070   7.527   6.573   9.020 -0.2088  0.5430 -0.4937
  157MOL0     C21071   7.649   6.500   9.065 -0.2850 -0.2839 -0.5410
  157MOL0     C21072   7.777   6.578   9.032  0.0053 -0.7170  0.3795
  157MOL0     C21073   7.898   6.496   9.047  0.5379  1.2145 -0.9847
  157MOL0     C21074   7.921   6.380   8.953 -0.1423 -0.5879  0.4576
  157MOL0     C21075   8.047   6.301   9.009 -0.2236  0.7364  0.7521
  157MOL0     C21076   8.105   6.202   8.905  1.1701 -0.0867  0.5274
  157MOL0     N21077   8.198   6.263   8.812 -0.0869  0.3423  0.1562
  157MOL0     C21078   8.330   6.222   8.801  0.2293 -0.1487 -0.4885
  157MOL0     C21079   8.372   6.287   8.688  0.6311  0.6585  0.5944
  157MOL0     C21080   8.503   6.283   8.622 -0.3632 -0.0391 -0.0411
  157MOL0     C21081   8.621   6.282   8.722  0.4512 -0.1716 -0.0840
  157MOL0     C21082   8.657   6.150   8.778 -0.2411 -1.1382  0.6871
  157MOL0     C21083   8.772   6.156   8.876 -0.7083 -0.1917 -1.1409
  157MOL0     O21084   8.711   6.206   8.996  0.7021  0.1786  0.2068
  157MOL0     C21085   8.779   6.189   9.111  0.5416  1.5044 -0.1197
  157MOL0     C21086   8.915   6.152   9.122  0.1214  0.3657  0.3854
  157MOL0     C21087   8.982   6.195   9.242  0.2549  0.2529  0.3897
  157MOL0     C21088   8.911   6.235   9.356  0.6828 -0.9495 -0.0246
  157MOL0     C21089   8.970   6.253   9.493  0.0449  0.8691  0.1068
  157MOL0     O21090   9.097   6.208   9.507  0.4688  0.5144  0.3575
  157MOL0     C21091   9.148   6.192   9.633 -0.3018 -0.4735  0.3424
  157MOL0     C21092   9.102   6.089   9.709 -0.0691  0.9133  0.0320
  157MOL0     C21093   9.177   6.048   9.827  0.8290 -0.1659 -0.2688
  157MOL0     C21094   9.303   6.110   9.859 -0.0500  0.4127  0.2343
  157MOL0     O21095   9.381   6.070   9.968 -0.2434 -0.0765  0.1540
  157MOL0     C21096   9.361   5.960  10.046  0.8875  1.4519 -0.1358
  157MOL0     C21097   9.475   5.913  10.132 -0.2123 -0.3928 -0.5593
  157MOL0     C21098   9.579   5.852  10.049 -0.2916 -0.3582  0.6260
  157MOL0     C21099   9.717   5.822  10.116  0.6560 -0.0720 -0.0523
  157MOL0     C21100   9.812   5.752  10.024 -1.0653  0.2789 -0.4155
  157MOL0     C21101   9.950   5.718  10.080 -0.9772 -0.4177  0.4127
  157MOL0     C21102  10.047   5.643   9.980 -0.0067  0.2357 -1.2383
  157MOL0     C21103   9.988   5.507   9.940 -0.1853  0.7990  0.5011
  157MOL0    Cl21104  10.134   5.438   9.862 -0.7987  0.1807  0.0461
  157MOL0     C21105   9.337   6.222   9.787  0.4420 -0.3008 -0.7216
  157MOL0     C21106   9.259   6.266   9.676 -0.5242  0.5155  0.8467
  157MOL0     O21107   8.906   6.304   9.584 -0.1173 -0.5595 -0.2021
  157MOL0     C21108   8.777   6.265   9.337  0.8503 -0.7367 -0.1398
  157MOL0     C21109   8.709   6.245   9.214 -0.6604  0.2967 -0.0902
  157MOL0     N21110   8.266   6.351   8.633  0.3080  0.8298  0.0414
  157MOL0     N21111   8.163   6.320   8.700 -0.1612 -0.3230 -1.2003
  157MOL0     C21112   7.062   6.589   8.963  0.3217 -0.1001 -0.7037
  157MOL0     C21113   6.942   6.525   8.954 -0.5388  0.0580 -0.6907
  157MOL0     C21114   6.558   6.324   9.073  0.2004  0.8152  0.2756
  157MOL0     C21115   6.525   6.323   8.942 -0.3546  0.6138 -0.4596
  157MOL0     C21116   6.390   6.323   8.901 -0.4668 -1.0098 -0.1157
  157MOL0     C21117   6.296   6.336   8.995 -0.1098 -0.0220  0.1333
  157MOL0     O21118   6.167   6.339   8.950 -0.1679 -0.6788 -0.1229
  157MOL0     C21119   6.067   6.431   9.002  0.1651 -0.2446  0.9301
  157MOL0     C21120   5.941   6.428   8.910 -0.9427  0.0873 -0.0586
  157MOL0     C21121   5.854   6.543   8.949 -0.1542 -0.2732 -0.3343
  157MOL0     C21122   5.708   6.520   8.933  0.0857  0.5037  0.1434
  157MOL0     C21123   5.661   6.392   8.988 -0.9080 -0.0310 -0.3092
  157MOL0     C21124   5.601   6.290   9.015  0.0059 -0.3619 -0.1859
  157MOL0     C21125   6.318   6.334   9.128 -0.0724 -0.4418 -0.3497
  157MOL0     C21126   6.450   6.324   9.165  0.6664 -0.2083 -0.5314
  157MOL0     C21127   6.468   6.309   9.311 -0.1466  0.0459 -0.2991
  157MOL0     H21128   6.993   6.253   9.142 -1.1583  0.1711  1.4480
  157MOL0     H21129   7.206   6.368   9.183 -0.8052  1.1577  2.6072
  157MOL0     H21130   7.403   6.486   9.177 -0.3191 -1.2846  0.4308
  157MOL0     H21131   7.391   6.418   9.010 -0.0871 -0.8889  1.2980
  157MOL0     H21132   7.536   6.669   9.071  2.7159  0.9892 -1.6825
  157MOL0     H21133   7.508   6.593   8.915 -0.6508 -3.1666 -1.2501
  157MOL0     H21134   7.638   6.404   9.015 -2.5819 -0.2491 -0.2217
  157MOL0     H21135   7.641   6.485   9.173  2.4801 -0.7065 -0.3335
  157MOL0     H21136   7.759   6.609   8.929 -0.0001  0.7261  0.7874
  157MOL0     H21137   7.789   6.664   9.099  1.5303  0.2858 -1.1158
  157MOL0     H21138   7.984   6.563   9.055  1.2345  0.3739 -1.2528
  157MOL0     H21139   7.888   6.449   9.146 -0.3718  2.1295 -0.6223
  157MOL0     H21140   7.840   6.307   8.961 -1.1640  0.4147 -0.4298
  157MOL0     H21141   7.932   6.413   8.849  2.2566  0.5581  1.0191
  157MOL0     H21142   8.015   6.239   9.094  1.7462 -2.7485 -0.8775
  157MOL0     H21143   8.129   6.368   9.039  1.6684 -0.2816 -1.7994
  157MOL0     H21144   8.156   6.120   8.955  1.7571 -1.9376 -2.7993
  157MOL0     H21145   8.020   6.158   8.852  1.2934  1.7644 -1.3666
  157MOL0     H21146   8.383   6.164   8.876 -0.0422  0.4385  0.1691
  157MOL0     H21147   8.517   6.203   8.548  1.4974  1.4140 -1.3666
  157MOL0     H21148   8.511   6.380   8.572  4.8789 -0.6467 -0.9672
  157MOL0     H21149   8.703   6.339   8.678  0.3891  0.5520  0.7191
  157MOL0     H21150   8.582   6.344   8.803 -1.2962 -0.3245 -0.7651
  157MOL0     H21151   8.692   6.094   8.691 -1.7534 -3.1808  1.2972
  157MOL0     H21152   8.574   6.095   8.825  1.1646 -1.7266  2.6344
  157MOL0     H21153   8.854   6.222   8.845  1.9624 -3.7235 -2.3004
  157MOL0     H21154   8.810   6.057   8.900 -0.7860  0.4457  2.0688
  157MOL0     H21155   8.972   6.114   9.038  3.3548  2.4823  1.4165
  157MOL0     H21156   9.090   6.191   9.235  0.6001  5.6783 -1.9806
  157MOL0     H21157   9.016   6.029   9.681 -1.6375  3.2846 -0.4502
  157MOL0     H21158   9.144   5.956   9.873 -0.6253  0.3340 -0.2602
  157MOL0     H21159   9.273   5.969  10.110  0.5878  4.9075 -0.8390
  157MOL0     H21160   9.337   5.876   9.979  1.2522 -0.2833  1.8139
  157MOL0     H21161   9.518   6.000  10.183 -0.1210  0.2839 -1.7434
  157MOL0     H21162   9.453   5.841  10.212  4.2325 -2.5190 -0.9736
  157MOL0     H21163   9.536   5.756  10.018 -1.5696 -0.5481  2.7604
  157MOL0     H21164   9.588   5.910   9.957 -1.4511  0.0894  0.7794
  157MOL0     H21165   9.705   5.763  10.208 -0.5032  3.0033  1.9331
  157MOL0     H21166   9.753   5.921  10.145  3.9411 -1.5101  1.1844
  157MOL0     H21167   9.839   5.829   9.950  3.8132  0.4453  1.2027
  157MOL0     H21168   9.767   5.664   9.978  1.5751 -0.7171 -1.3049
  157MOL0     H21169   9.979   5.819  10.110  0.7724 -0.9056  0.4465
  157MOL0     H21170   9.955   5.668  10.177  0.7028  2.3813  1.8833
  157MOL0     H21171  10.141   5.631  10.035  0.0581  3.7421 -0.2976
  157MOL0     H21172  10.069   5.703   9.891  0.2940  0.4935 -0.9913
  157MOL0     H21173   9.950   5.443  10.020  1.6986  1.2217  1.8271
  157MOL0     H21174   9.907   5.525   9.869 -1.5620 -1.1029  1.4987
  157MOL0     H21175   9.427   6.275   9.814 -0.4384  1.6757 -1.4944
  157MOL0     H21176   9.290   6.351   9.616  0.2236 -0.3622 -0.0419
  157MOL0     H21177   8.720   6.303   9.421  2.3056  0.0071  0.5401
  157MOL0     H21178   8.602   6.256   9.198 -0.3536  1.8290 -1.3430
  157MOL0     H21179   7.078   6.681   8.907  1.7890  1.0223  1.4412
  157MOL0     H21180   6.855   6.564   8.902 -1.0226 -1.8926 -1.4106
  157MOL0     H21181   6.603   6.298   8.871  1.0840  2.8163  0.2543
  157MOL0     H21182   6.368   6.313   8.795  0.1563 -0.8641 -0.2591
  157MOL0     H21183   6.110   6.532   9.001 -0.1853 -0.0696  2.0388
  157MOL0     H21184   6.040   6.407   9.106  1.1756 -2.6064  0.7014
  157MOL0     H21185   5.901   6.327   8.923  3.5962 -1.9194 -0.0541
  157MOL0     H21186   5.967   6.441   8.804  0.6901 -0.3998  0.2602
  157MOL0     H21187   5.880   6.636   8.898 -4.4711 -0.1481 -2.8088
  157MOL0     H21188   5.870   6.555   9.057 -0.6474  1.1592 -0.3898
  157MOL0     H21189   5.652   6.584   9.002 -0.8275 -1.0548  0.8943
  157MOL0     H21190   5.672   6.526   8.830 -2.0721 -2.6363  0.5888
  157MOL0     H21191   5.559   6.197   9.047 -1.1874 -0.0460 -0.7911
  157MOL0     H21192   6.240   6.341   9.203  1.2662  0.3848  1.0532
  157MOL0     H21193   6.492   6.210   9.352  1.0454  1.9981  4.3918
  157MOL0     H21194   6.541   6.377   9.354 -1.0862 -0.8224  3.0033
  157MOL0     H21195   6.373   6.327   9.362 -0.5771 -1.6141 -0.4446
  158MOL0     O21196   0.852   8.043   5.236  0.0047 -0.0001 -0.0735
  158MOL0     C21197   0.842   8.111   5.135  0.2847  1.0500 -0.4656
  158MOL0     O21198   0.728   8.125   5.065 -0.2709  0.3327 -0.5897
  158MOL0     C21199   0.613   8.061   5.113  0.1247  0.1977 -0.3425
  158MOL0     C21200   0.534   8.129   5.211 -1.0914 -0.3258 -0.1106
  158MOL0     C21201   0.423   8.069   5.267 -0.1051 -0.1835 -0.0975
  158MOL0     C21202   0.383   7.937   5.242 -0.0598 -0.1167  0.2242
  158MOL0     O21203   0.273   7.880   5.308  0.4160 -0.4406  0.5613
  158MOL0     C21204   0.203   7.773   5.255 -0.8079  0.4410  0.7328
  158MOL0     C21205   0.071   7.789   5.327  0.3564  0.3150  0.2206
  158MOL0     C21206   0.075   7.763   5.473  0.4612 -0.6992 -0.4805
  158MOL0     C21207   0.095   7.612   5.501 -0.1324 -0.9831 -0.0524
  158MOL0     C21208   0.124   7.590   5.646 -0.6180 -0.7725 -0.3137
  158MOL0     C21209   0.080   7.449   5.699 -0.5211 -0.5534  0.1960
  158MOL0     C21210   0.082   7.432   5.854 -0.0101 -0.1951  0.7564
  158MOL0     C21211  -0.004   7.539   5.922  0.5217 -0.2726 -0.4702
  158MOL0     N21212  -0.138   7.552   5.875 -0.3645  0.3928  0.5322
  158MOL0     C21213  -0.229   7.452   5.890  0.3379  0.2073 -0.8552
  158MOL0     C21214  -0.325   7.486   5.802 -0.5565  0.0446  0.5213
  158MOL0     C21215  -0.447   7.413   5.769  0.0788  0.3111 -0.0072
  158MOL0     C21216  -0.407   7.307   5.672  0.6481 -0.1555  0.9632
  158MOL0     C21217  -0.293   7.214   5.721  0.1680  0.0583 -0.1297
  158MOL0     C21218  -0.262   7.094   5.624  0.4784 -1.1507 -0.9087
  158MOL0     O21219  -0.190   6.989   5.692  0.2722 -0.2502  0.3907
  158MOL0     C21220  -0.051   6.975   5.675  0.2887  0.3739  0.1422
  158MOL0     C21221   0.036   7.076   5.635 -0.0061  0.1744  0.7975
  158MOL0     C21222   0.171   7.043   5.623 -0.7361 -0.5606  0.0424
  158MOL0     C21223   0.220   6.908   5.645 -0.1849  0.6940 -0.2979
  158MOL0     C21224   0.372   6.868   5.624  0.7050 -0.1051  0.1410
  158MOL0     O21225   0.461   6.971   5.627  0.1388  0.0537 -0.5490
  158MOL0     C21226   0.594   6.957   5.600 -0.6162  0.4022 -0.7971
  158MOL0     C21227   0.651   7.030   5.501 -0.4883 -0.0008 -0.6868
  158MOL0     C21228   0.789   7.038   5.478  0.1251  0.1903 -0.0773
  158MOL0     C21229   0.876   6.982   5.568 -0.1823  0.3131 -0.0363
  158MOL0     O21230   1.011   6.992   5.562 -0.0694 -0.0604  0.3286
  158MOL0     C21231   1.077   7.035   5.438  0.7920  0.5638  0.0083
  158MOL0     C21232   1.223   7.032   5.469  0.9190  0.5261  0.6737
  158MOL0     C21233   1.316   7.067   5.347  0.1625  0.1069  0.0746
  158MOL0     C21234   1.450   6.999   5.370  0.0041  0.5065  0.1545
  158MOL0     C21235   1.530   6.985   5.245 -0.8655 -0.1014  0.2596
  158MOL0     C21236   1.596   7.117   5.187 -0.3126 -0.4821  0.7347
  158MOL0     C21237   1.647   7.086   5.043 -0.2541  0.0354  0.6008
  158MOL0     C21238   1.756   7.186   5.014 -0.3323 -0.5883  0.1393
  158MOL0    Cl21239   1.898   7.150   5.114 -0.3406 -0.0507  0.1127
  158MOL0     C21240   0.823   6.898   5.666 -0.2475  0.4853  0.5282
  158MOL0     C21241   0.687   6.885   5.680  0.1283 -0.0081  0.5457
  158MOL0     O21242   0.403   6.748   5.601 -0.1212  0.0304 -0.1881
  158MOL0     C21243   0.129   6.812   5.679  0.1671 -0.0952  0.3247
  158MOL0     C21244  -0.005   6.846   5.697  0.1311 -0.4664 -0.3759
  158MOL0     N21245  -0.288   7.608   5.737  0.4447  0.3807  0.2875
  158MOL0     N21246  -0.177   7.639   5.781  0.7458 -0.1004  0.1594
  158MOL0     C21247   0.469   7.866   5.158  0.2115 -0.1062  0.0749
  158MOL0     C21248   0.578   7.928   5.088  0.2332 -0.7293  0.1406
  158MOL0     C21249   0.968   8.174   5.101 -0.6214 -0.2004 -0.3319
  158MOL0     C21250   1.049   8.253   5.189  0.3935 -0.1213 -0.2331
  158MOL0     C21251   1.167   8.314   5.151  0.3548  0.2323 -0.9558
  158MOL0     C21252   1.210   8.309   5.019  0.2489  0.3120 -0.2923
  158MOL0     O21253   1.314   8.371   4.964 -0.1250  0.4880  0.6161
  158MOL0     C21254   1.406   8.451   5.040 -0.4305 -0.5788 -0.5411
  158MOL0     C21255   1.549   8.437   4.967  1.0516 -1.1844 -0.4514
  158MOL0     C21256   1.677   8.477   5.047  1.2308  0.6489 -0.3511
  158MOL0     C21257   1.676   8.634   5.059 -0.0636  0.7580 -0.4478
  158MOL0     C21258   1.802   8.684   5.124  0.4218  0.1202  0.7067
  158MOL0     C21259   1.904   8.734   5.153  0.6051 -0.0791  0.0391
  158MOL0     C21260   1.137   8.232   4.932  0.0508 -0.0152  0.4846
  158MOL0     C21261   1.021   8.159   4.972  0.4229 -0.5652 -0.9187
  158MOL0     C21262   0.958   8.077   4.853 -0.0408  0.1684  0.5606
  158MOL0     H21263   0.555   8.229   5.249  2.2351 -2.0538  3.3116
  158MOL0     H21264   0.355   8.131   5.324 -0.5952  0.7830 -1.6691
  158MOL0     H21265   0.185   7.782   5.147  2.2127  1.0427  0.2033
  158MOL0     H21266   0.253   7.678   5.276  0.4824  0.9963  0.2601
  158MOL0     H21267   0.002   7.713   5.287  1.1095 -0.3160  0.0986
  158MOL0     H21268   0.033   7.889   5.305  2.5422  1.2172  0.2809
  158MOL0     H21269  -0.021   7.790   5.520  0.7059 -0.1179 -0.3068
  158MOL0     H21270   0.145   7.830   5.524 -1.9318  0.7753  1.0979
  158MOL0     H21271   0.011   7.552   5.465  0.3599 -1.3156 -0.6810
  158MOL0     H21272   0.181   7.584   5.438  0.4756  0.5908  0.0363
  158MOL0     H21273   0.231   7.610   5.649  0.2288 -3.7290 -3.5661
  158MOL0     H21274   0.069   7.664   5.704 -0.4893 -0.2560 -0.8418
  158MOL0     H21275  -0.023   7.441   5.665 -0.7065 -1.1219  0.8567
  158MOL0     H21276   0.133   7.369   5.646  1.5009  0.9356 -0.1609
  158MOL0     H21277   0.186   7.443   5.885  0.5975 -0.5051 -1.0740
  158MOL0     H21278   0.051   7.330   5.878 -1.3055  0.4737  2.1024
  158MOL0     H21279  -0.011   7.499   6.023  2.1358 -0.4264 -0.3968
  158MOL0     H21280   0.051   7.634   5.922  2.4009 -1.2882 -1.8073
  158MOL0     H21281  -0.227   7.361   5.950  1.7607  2.6858  3.2124
  158MOL0     H21282  -0.501   7.379   5.857 -1.2449 -1.9533 -1.5951
  158MOL0     H21283  -0.501   7.492   5.716  1.4303  2.9790  2.2879
  158MOL0     H21284  -0.501   7.260   5.641  1.7116 -1.4661 -0.4848
  158MOL0     H21285  -0.368   7.363   5.587 -0.6156  0.4734  0.7829
  158MOL0     H21286  -0.323   7.168   5.815  0.9865  0.7685  0.4992
  158MOL0     H21287  -0.196   7.264   5.733 -0.2777  1.0828 -0.6637
  158MOL0     H21288  -0.215   7.131   5.532 -0.4152 -2.2406 -1.8391
  158MOL0     H21289  -0.363   7.058   5.601  0.7559 -0.9309 -2.6543
  158MOL0     H21290   0.000   7.174   5.604 -0.9503 -1.1418 -2.8792
  158MOL0     H21291   0.235   7.121   5.583 -0.0088 -0.8024  0.6956
  158MOL0     H21292   0.579   7.092   5.448 -0.7293 -0.7416 -1.2288
  158MOL0     H21293   0.828   7.108   5.405 -0.2644  0.7928  0.2840
  158MOL0     H21294   1.041   6.968   5.359 -1.3143  1.8397 -0.1761
  158MOL0     H21295   1.042   7.132   5.402 -0.0696 -0.3653 -1.7971
  158MOL0     H21296   1.248   7.106   5.546  2.9601  1.1993 -0.5795
  158MOL0     H21297   1.232   6.929   5.506 -1.0983  0.7142  1.8701
  158MOL0     H21298   1.280   7.015   5.257 -0.6334  0.2400  0.3115
  158MOL0     H21299   1.334   7.172   5.322 -1.5380  0.2014 -0.8618
  158MOL0     H21300   1.440   6.901   5.419 -2.5004  0.5492 -0.1402
  158MOL0     H21301   1.503   7.069   5.435  0.5745 -2.4742  3.2241
  158MOL0     H21302   1.463   6.937   5.173 -1.4536 -1.6755  1.7899
  158MOL0     H21303   1.614   6.919   5.267 -0.2373  0.7955  0.6352
  158MOL0     H21304   1.522   7.197   5.195  0.3705  0.4114 -1.3080
  158MOL0     H21305   1.679   7.153   5.249  0.3033  3.4855 -2.0304
  158MOL0     H21306   1.563   7.084   4.973 -2.7942 -0.6170  3.4476
  158MOL0     H21307   1.685   6.984   5.042 -2.2092 -0.7291  0.5172
  158MOL0     H21308   1.791   7.181   4.910 -1.1466 -1.0644 -0.1163
  158MOL0     H21309   1.720   7.286   5.038  0.5013 -0.3803  0.5838
  158MOL0     H21310   0.897   6.850   5.729  0.8653  2.4995  0.8372
  158MOL0     H21311   0.642   6.818   5.753 -1.4080 -0.0626 -0.3913
  158MOL0     H21312   0.156   6.709   5.700  0.2171 -0.3199 -0.7436
  158MOL0     H21313  -0.074   6.766   5.722 -0.3190  0.3728  1.2085
  158MOL0     H21314   0.459   7.762   5.129  2.7919 -0.2605 -0.5480
  158MOL0     H21315   0.638   7.874   5.015  3.8494  2.7818  0.1900
  158MOL0     H21316   1.022   8.237   5.293 -2.4945 -0.1874 -0.9180
  158MOL0     H21317   1.219   8.373   5.226  0.9683  0.0758 -1.2505
  158MOL0     H21318   1.416   8.409   5.140 -0.1634 -0.1393 -0.3830
  158MOL0     H21319   1.377   8.556   5.049  0.7153 -0.1884 -1.1504
  158MOL0     H21320   1.553   8.508   4.883  0.6040  1.6829  1.8076
  158MOL0     H21321   1.549   8.332   4.937 -1.1346 -2.3321  2.9981
  158MOL0     H21322   1.763   8.441   4.992 -1.5226 -3.9337 -2.2027
  158MOL0     H21323   1.675   8.435   5.148 -0.1068  0.9221 -0.2413
  158MOL0     H21324   1.669   8.671   4.957 -1.2488 -0.3433 -0.7921
  158MOL0     H21325   1.582   8.675   5.099 -1.6703 -0.4642 -2.7347
  158MOL0     H21326   1.998   8.777   5.184  0.2740  0.5344  0.2035
  158MOL0     H21327   1.174   8.229   4.830 -2.7141  1.3992 -0.6955
  158MOL0     H21328   0.986   8.121   4.757  1.1186 -1.2341  0.2249
  158MOL0     H21329   0.994   7.974   4.854  1.2421  0.6015  0.1015
  158MOL0     H21330   0.850   8.059   4.855  0.0419 -0.5108 -0.3302
  159MOL0     O21331   4.503   0.130   3.375  0.2298  0.6391  0.8820
  159MOL0     C21332   4.483   0.186   3.483 -0.3668  0.5221  0.8598
  159MOL0     O21333   4.580   0.222   3.573  0.3699 -0.2031 -0.7883
  159MOL0     C21334   4.705   0.176   3.543  0.5804  0.0463  0.2316
  159MOL0     C21335   4.799   0.268   3.521 -0.2595  0.0783  0.0224
  159MOL0     C21336   4.934   0.230   3.515 -0.3205  0.9395  0.1106
  159MOL0     C21337   4.972   0.101   3.518  0.4047 -0.4319 -0.2349
  159MOL0     O21338   5.101   0.049   3.512 -0.3640  0.0883 -0.1078
  159MOL0     C21339   5.216   0.132   3.481  0.6347 -0.4432  0.4288
  159MOL0     C21340   5.350   0.049   3.468  0.6451  0.3691  0.3320
  159MOL0     C21341   5.382  -0.013   3.333 -0.8345 -0.6206 -0.0757
  159MOL0     C21342   5.513  -0.092   3.347 -0.1038  0.3176  0.4557
  159MOL0     C21343   5.537  -0.184   3.216 -0.4502 -0.7352  0.1240
  159MOL0     C21344   5.635  -0.299   3.252 -0.2639  0.4858 -1.2719
  159MOL0     C21345   5.781  -0.266   3.219 -0.3414  0.2702  0.2083
  159MOL0     C21346   5.823  -0.226   3.077 -0.1397  0.3679 -0.8142
  159MOL0     N21347   5.962  -0.165   3.074  0.6514 -0.4587 -0.5997
  159MOL0     C21348   6.082  -0.234   3.083 -0.1121  0.0760 -0.6266
  159MOL0     C21349   6.185  -0.140   3.073  0.2844  0.6796  1.5572
  159MOL0     C21350   6.333  -0.168   3.053 -0.0174  0.7069  0.8263
  159MOL0     C21351   6.387  -0.279   3.137  0.7076  0.4411  1.1174
  159MOL0     C21352   6.481  -0.372   3.069 -0.3476  0.0356 -0.7736
  159MOL0     C21353   6.524  -0.484   3.166  0.3009 -0.0708  0.5456
  159MOL0     O21354   6.635  -0.565   3.113 -0.0731 -0.2353 -0.2632
  159MOL0     C21355   6.766  -0.512   3.103  0.4896  0.1107  0.6862
  159MOL0     C21356   6.862  -0.592   3.046 -0.1871  0.0965 -0.1342
  159MOL0     C21357   6.994  -0.560   3.022 -0.1691  0.0045 -0.3398
  159MOL0     C21358   7.034  -0.433   3.067  0.3819  0.8105  0.5138
  159MOL0     C21359   7.183  -0.389   3.055 -0.0586 -0.6016 -0.1796
  159MOL0     O21360   7.251  -0.464   2.960 -0.3441 -0.2339  0.5067
  159MOL0     C21361   7.375  -0.419   2.923 -0.3143 -0.0566 -0.0425
  159MOL0     C21362   7.385  -0.320   2.824  0.4827  0.1941  0.5561
  159MOL0     C21363   7.511  -0.268   2.790  0.1217  0.0276  0.7455
  159MOL0     C21364   7.627  -0.318   2.853  0.4165  0.0293  0.0208
  159MOL0     O21365   7.757  -0.273   2.824  0.2342 -0.5990 -0.3677
  159MOL0     C21366   7.767  -0.206   2.696 -0.0087  0.5422 -0.2604
  159MOL0     C21367   7.913  -0.203   2.632  1.0384 -0.9614 -0.7027
  159MOL0     C21368   7.964  -0.334   2.577 -0.2223  0.0667 -0.1742
  159MOL0     C21369   8.116  -0.315   2.535  0.9609  0.4162 -0.5644
  159MOL0     C21370   8.183  -0.442   2.507  0.0269 -0.2101  0.2196
  159MOL0     C21371   8.131  -0.513   2.384  0.3348 -0.0767  0.0676
  159MOL0     C21372   8.238  -0.603   2.327  0.2733  0.0265  0.3434
  159MOL0     C21373   8.201  -0.630   2.181 -0.2926  0.4881 -0.5268
  159MOL0    Cl21374   8.225  -0.490   2.064 -0.0142  0.0406 -0.0307
  159MOL0     C21375   7.609  -0.428   2.945  1.0167 -0.3678  0.3594
  159MOL0     C21376   7.485  -0.474   2.983  1.1565  0.0682 -0.1682
  159MOL0     O21377   7.235  -0.304   3.125 -0.2828  0.2043  0.7700
  159MOL0     C21378   6.939  -0.339   3.112  0.0245  0.0440 -0.0634
  159MOL0     C21379   6.806  -0.379   3.134 -0.4022 -0.1483  0.2156
  159MOL0     N21380   6.113  -0.019   3.049 -0.5622 -0.0931 -0.3582
  159MOL0     N21381   5.988  -0.036   3.069  0.0487 -0.4825 -0.0133
  159MOL0     C21382   4.870  -0.001   3.536 -0.1561  0.0906 -0.2999
  159MOL0     C21383   4.738   0.032   3.539  0.3817 -0.4394 -0.1613
  159MOL0     C21384   4.340   0.186   3.511  0.5238 -0.2876 -0.0004
  159MOL0     C21385   4.248   0.262   3.439 -0.5845  0.5705 -0.3911
  159MOL0     C21386   4.117   0.272   3.482  0.2348 -0.4744  0.1206
  159MOL0     C21387   4.067   0.203   3.595  0.1442  0.6273  0.4103
  159MOL0     O21388   3.942   0.207   3.659  0.1919 -0.4171  0.4892
  159MOL0     C21389   3.832   0.279   3.602  1.2232 -0.5571 -0.4592
  159MOL0     C21390   3.728   0.290   3.713  0.0872  0.3322  0.0552
  159MOL0     C21391   3.646   0.167   3.737  0.3460  0.4051  0.0289
  159MOL0     C21392   3.729   0.054   3.802  0.5658 -0.6999  0.4053
  159MOL0     C21393   3.633  -0.041   3.853 -0.9542 -0.9758 -0.2222
  159MOL0     C21394   3.547  -0.107   3.904 -0.2590  0.3282  0.2451
  159MOL0     C21395   4.156   0.103   3.643  1.1963  0.5468  0.3174
  159MOL0     C21396   4.291   0.097   3.613  0.2574 -0.1916  0.2134
  159MOL0     C21397   4.384   0.012   3.692  0.2735  0.5217  0.0826
  159MOL0     H21398   4.783   0.375   3.527 -2.2528  0.0960 -3.0544
  159MOL0     H21399   5.008   0.303   3.484 -1.0860  2.9562  2.6740
  159MOL0     H21400   5.205   0.198   3.394  0.5243  2.1267  2.2952
  159MOL0     H21401   5.231   0.199   3.566 -0.9810  1.6378 -0.8116
  159MOL0     H21402   5.358  -0.023   3.550 -0.7533 -0.3011 -0.0955
  159MOL0     H21403   5.427   0.121   3.496 -1.3387  3.2821 -1.1325
  159MOL0     H21404   5.390   0.065   3.256  0.0791  0.4327  1.0545
  159MOL0     H21405   5.301  -0.080   3.303 -1.1136 -0.9673  1.3703
  159MOL0     H21406   5.597  -0.027   3.375  2.2424 -2.6048  0.7183
  159MOL0     H21407   5.495  -0.166   3.426  0.0959 -2.0035 -1.5779
  159MOL0     H21408   5.435  -0.212   3.188 -0.9889  2.1831 -1.1838
  159MOL0     H21409   5.577  -0.127   3.131  2.1201 -0.3558  1.4973
  159MOL0     H21410   5.636  -0.324   3.359 -2.3948  0.0870 -1.3151
  159MOL0     H21411   5.612  -0.396   3.206  1.5902 -0.1938 -0.8944
  159MOL0     H21412   5.841  -0.352   3.251  0.9806  0.7091 -0.9764
  159MOL0     H21413   5.793  -0.173   3.275 -2.4803  1.0309 -0.4640
  159MOL0     H21414   5.827  -0.315   3.015 -1.9777 -0.1128 -0.3101
  159MOL0     H21415   5.749  -0.160   3.030 -3.6592 -1.6598  1.4046
  159MOL0     H21416   6.091  -0.342   3.084 -0.3798  0.0500  0.4796
  159MOL0     H21417   6.343  -0.195   2.947  0.4485 -0.0718  1.0653
  159MOL0     H21418   6.389  -0.076   3.073  2.5480 -0.5319 -0.2034
  159MOL0     H21419   6.434  -0.229   3.222 -0.8280  1.8447  1.1959
  159MOL0     H21420   6.308  -0.350   3.164  2.4857 -2.1725 -0.1457
  159MOL0     H21421   6.565  -0.315   3.027 -0.4761  1.4884  0.7852
  159MOL0     H21422   6.425  -0.413   2.985 -0.0653  1.4812 -1.7186
  159MOL0     H21423   6.439  -0.551   3.185  0.5100 -0.4622  0.1315
  159MOL0     H21424   6.563  -0.442   3.259  0.8141 -0.5471  0.5508
  159MOL0     H21425   6.840  -0.696   3.021  0.8791 -0.6929  1.9017
  159MOL0     H21426   7.060  -0.631   2.972  0.3456  1.2456 -1.4805
  159MOL0     H21427   7.295  -0.289   2.771  0.1161 -1.0908  0.4012
  159MOL0     H21428   7.507  -0.199   2.706 -1.9709 -1.2040 -0.2258
  159MOL0     H21429   7.712  -0.268   2.624 -0.1490 -1.0112  1.1270
  159MOL0     H21430   7.723  -0.106   2.693  3.9744  2.5000 -2.6968
  159MOL0     H21431   7.916  -0.133   2.549  0.7212  1.2410  1.0539
  159MOL0     H21432   7.983  -0.158   2.703 -0.5820 -1.8631  1.6090
  159MOL0     H21433   7.950  -0.418   2.646  2.6713 -0.4828 -0.1393
  159MOL0     H21434   7.905  -0.357   2.487  1.0200 -1.4929 -0.6337
  159MOL0     H21435   8.180  -0.262   2.606  1.7339  0.1607 -1.0676
  159MOL0     H21436   8.122  -0.262   2.440 -0.0846  0.9238 -0.3696
  159MOL0     H21437   8.180  -0.497   2.602 -3.4545  1.8588  1.5110
  159MOL0     H21438   8.283  -0.410   2.478 -0.9199  1.0518 -1.9316
  159MOL0     H21439   8.037  -0.566   2.401 -0.9735  1.3164 -2.2840
  159MOL0     H21440   8.124  -0.433   2.309 -0.2508  1.2371  1.4696
  159MOL0     H21441   8.231  -0.702   2.373 -1.0759 -0.4125 -0.7431
  159MOL0     H21442   8.341  -0.566   2.332 -0.5160  2.3700  0.6455
  159MOL0     H21443   8.244  -0.727   2.154  0.5296  0.9235 -0.7905
  159MOL0     H21444   8.096  -0.661   2.178 -1.3707  3.7517 -0.3830
  159MOL0     H21445   7.701  -0.477   2.977 -0.3173 -1.4868  2.6852
  159MOL0     H21446   7.476  -0.552   3.058 -1.1359 -0.8830 -1.3579
  159MOL0     H21447   6.970  -0.239   3.141 -0.8513  0.4680 -0.5613
  159MOL0     H21448   6.741  -0.304   3.177  0.1510 -1.5846  3.9400
  159MOL0     H21449   4.906  -0.104   3.540 -2.1542 -0.6545 -0.3333
  159MOL0     H21450   4.661  -0.043   3.546  0.0432 -0.1992 -1.0586
  159MOL0     H21451   4.280   0.339   3.371 -1.9974  1.5955  0.0430
  159MOL0     H21452   4.072   0.358   3.432  2.1667  1.8363  2.0850
  159MOL0     H21453   3.782   0.253   3.508 -1.7280  1.5056  0.3814
  159MOL0     H21454   3.865   0.381   3.581 -1.1840  0.0634 -1.5327
  159MOL0     H21455   3.667   0.371   3.672 -1.3825 -1.0799 -0.6352
  159MOL0     H21456   3.770   0.309   3.812 -2.5601 -1.6547  1.6742
  159MOL0     H21457   3.595   0.139   3.644 -2.5326  4.1949  0.2055
  159MOL0     H21458   3.561   0.201   3.797  0.8364  2.2881 -0.2723
  159MOL0     H21459   3.779   0.014   3.714  1.2952  3.8153 -1.5466
  159MOL0     H21460   3.803   0.088   3.875 -0.1677  1.1681  0.3510
  159MOL0     H21461   3.473  -0.149   3.969  0.6957  0.7430  1.6484
  159MOL0     H21462   4.122   0.037   3.722 -0.6154 -0.9227 -1.5574
  159MOL0     H21463   4.463   0.066   3.746 -0.3186  2.4753 -0.8902
  159MOL0     H21464   4.321  -0.043   3.762  0.3652  0.5868  0.2176
  159MOL0     H21465   4.430  -0.067   3.632  2.4238  2.2998 -0.7479
  160MOL0     O21466   5.099   4.079   2.333 -0.5848 -0.9049 -0.6771
  160MOL0     C21467   5.032   4.078   2.437 -0.0471  0.5739 -0.0482
  160MOL0     O21468   5.085   4.076   2.566 -0.2410 -0.0390  0.2654
  160MOL0     C21469   5.214   4.044   2.581 -1.0825  1.1727  0.5316
  160MOL0     C21470   5.277   3.916   2.562 -0.3900  0.9600  0.5103
  160MOL0     C21471   5.416   3.895   2.552 -0.2850 -0.3201 -0.1875
  160MOL0     C21472   5.499   4.002   2.560  0.2437 -0.0603 -0.6992
  160MOL0     O21473   5.635   3.973   2.544 -0.1961  0.2107  0.1147
  160MOL0     C21474   5.725   4.074   2.601  0.0865  0.5027 -0.5752
  160MOL0     C21475   5.855   3.993   2.641 -0.1145  0.1128 -0.0203
  160MOL0     C21476   5.973   4.087   2.640  0.1329 -0.6718 -0.5675
  160MOL0     C21477   6.108   4.016   2.663  0.4218 -0.0542 -0.3069
  160MOL0     C21478   6.224   4.105   2.625  0.9011  0.4942  0.1312
  160MOL0     C21479   6.357   4.051   2.653  0.2806 -0.1531 -0.0992
  160MOL0     C21480   6.472   4.112   2.567  0.0913  0.6701  0.8665
  160MOL0     C21481   6.497   4.254   2.602  0.1536 -0.8085 -0.4167
  160MOL0     N21482   6.608   4.299   2.521 -0.3215 -0.1175  0.0001
  160MOL0     C21483   6.742   4.278   2.555  0.7420 -0.3468  0.6375
  160MOL0     C21484   6.803   4.346   2.451 -0.2879  0.7959 -0.1795
  160MOL0     C21485   6.945   4.353   2.443 -0.8007  0.0995 -0.0238
  160MOL0     C21486   6.984   4.451   2.334  0.1851 -0.0243  0.5039
  160MOL0     C21487   7.136   4.478   2.345  0.1687  1.1377 -0.0771
  160MOL0     C21488   7.199   4.557   2.233  0.7129 -0.0190 -0.4350
  160MOL0     O21489   7.338   4.527   2.252 -0.0067  0.7157 -0.4248
  160MOL0     C21490   7.433   4.613   2.205  0.0807 -0.1596  0.4649
  160MOL0     C21491   7.567   4.573   2.205 -0.2259 -0.0328  0.2308
  160MOL0     C21492   7.675   4.653   2.168 -0.8639 -0.8400 -1.3157
  160MOL0     C21493   7.655   4.769   2.099  0.1459  0.3691 -0.1830
  160MOL0     C21494   7.759   4.854   2.046 -0.3128  0.5706 -1.1076
  160MOL0     O21495   7.876   4.792   2.047 -0.2866  0.2644 -0.3008
  160MOL0     C21496   7.998   4.858   2.040  0.7493  0.0528  0.2711
  160MOL0     C21497   8.110   4.790   1.999  0.5811 -0.3870  1.1712
  160MOL0     C21498   8.240   4.843   2.013 -0.7906  0.4001  0.6386
  160MOL0     C21499   8.266   4.970   2.070 -1.0829 -0.3219 -0.2622
  160MOL0     O21500   8.395   5.026   2.087  0.0166  0.4325 -0.3145
  160MOL0     C21501   8.515   4.949   2.057 -0.4601 -0.3679 -0.0058
  160MOL0     C21502   8.634   5.010   2.127  0.5821 -0.0329  0.4045
  160MOL0     C21503   8.648   4.960   2.270 -0.0215  0.1534 -0.4758
  160MOL0     C21504   8.750   4.849   2.285 -1.3251  0.0490  0.6160
  160MOL0     C21505   8.766   4.771   2.409 -0.2481 -0.6802 -0.0595
  160MOL0     C21506   8.890   4.671   2.409  0.6460  0.8180 -0.5742
  160MOL0     C21507   8.908   4.618   2.556 -1.2070  0.0233 -0.1021
  160MOL0     C21508   8.811   4.513   2.610 -0.7079  0.1549 -0.8892
  160MOL0    Cl21509   8.862   4.469   2.766 -0.1922 -0.1192 -0.1412
  160MOL0     C21510   8.152   5.038   2.111 -0.8599 -1.1428  0.5564
  160MOL0     C21511   8.023   4.980   2.101 -0.5411 -0.9394 -0.0497
  160MOL0     O21512   7.741   4.973   2.029 -0.4680 -0.5433  0.1137
  160MOL0     C21513   7.517   4.806   2.081  0.5460  0.3725  0.4625
  160MOL0     C21514   7.411   4.741   2.148 -0.3898 -0.2620  0.2934
  160MOL0     N21515   6.705   4.400   2.363 -0.6744  0.2835 -0.5616
  160MOL0     N21516   6.593   4.386   2.418 -0.4523  0.5216  0.5776
  160MOL0     C21517   5.443   4.130   2.578 -0.3052  0.4292 -0.0742
  160MOL0     C21518   5.304   4.148   2.591 -1.4988 -1.0575 -0.2098
  160MOL0     C21519   4.883   4.084   2.438  0.9695  0.4722  0.2361
  160MOL0     C21520   4.820   4.136   2.556 -0.2191  0.4999 -0.9925
  160MOL0     C21521   4.682   4.141   2.562  0.1923 -0.2493 -0.0258
  160MOL0     C21522   4.599   4.090   2.458  1.0589  0.0001 -0.1539
  160MOL0     O21523   4.464   4.106   2.450 -0.3126  0.4976  0.4504
  160MOL0     C21524   4.398   4.155   2.569 -0.4727 -0.2125  0.2289
  160MOL0     C21525   4.254   4.174   2.528 -0.4382  0.2244 -0.0252
  160MOL0     C21526   4.229   4.291   2.433 -0.2337 -0.5973 -0.2168
  160MOL0     C21527   4.232   4.431   2.496 -0.2078 -0.0672  0.1182
  160MOL0     C21528   4.198   4.546   2.411  0.2998  1.7942  0.8482
  160MOL0     C21529   4.168   4.629   2.331  0.0537 -0.2520 -0.0297
  160MOL0     C21530   4.660   4.048   2.345  0.1402 -0.4538  1.3474
  160MOL0     C21531   4.800   4.051   2.329  0.6730  0.0362  0.6328
  160MOL0     C21532   4.844   4.021   2.186 -0.5970 -0.4929  0.3978
  160MOL0     H21533   5.217   3.827   2.547  0.5812  0.5219 -0.9743
  160MOL0     H21534   5.455   3.796   2.532 -5.1939 -2.4105 -0.8201
  160MOL0     H21535   5.743   4.149   2.523  0.1208 -0.8517 -1.9045
  160MOL0     H21536   5.678   4.113   2.692 -1.2445 -0.7497 -0.7025
  160MOL0     H21537   5.879   3.908   2.577 -2.5404 -1.4820  1.0376
  160MOL0     H21538   5.849   3.954   2.743 -0.0313 -0.9557 -0.4107
  160MOL0     H21539   5.963   4.163   2.718  2.2931  0.0807 -0.9405
  160MOL0     H21540   5.975   4.140   2.545 -0.5666  0.8033  0.2104
  160MOL0     H21541   6.124   3.999   2.770  0.3459  0.8360 -0.1430
  160MOL0     H21542   6.111   3.925   2.602 -0.6873  0.0264 -0.5088
  160MOL0     H21543   6.231   4.128   2.518  1.2414  2.5020  0.5383
  160MOL0     H21544   6.211   4.198   2.682  0.4912  0.7112 -0.3070
  160MOL0     H21545   6.372   4.064   2.761  0.4082 -2.1126  0.1582
  160MOL0     H21546   6.342   3.945   2.633  2.5477 -0.0124 -3.4082
  160MOL0     H21547   6.431   4.110   2.466 -3.2944 -1.6168  2.0757
  160MOL0     H21548   6.562   4.051   2.579  0.9484  1.1206 -2.5067
  160MOL0     H21549   6.409   4.317   2.586  0.5289 -0.2562 -0.3076
  160MOL0     H21550   6.521   4.261   2.708 -0.8152  1.3857 -0.3055
  160MOL0     H21551   6.799   4.246   2.642  0.5887  0.1534  0.9255
  160MOL0     H21552   6.969   4.390   2.543 -2.6375  1.8138 -0.1491
  160MOL0     H21553   6.995   4.257   2.429  0.6942  0.7601  0.5687
  160MOL0     H21554   6.980   4.407   2.234 -0.1519 -0.6483  0.7880
  160MOL0     H21555   6.933   4.548   2.339  1.1765  0.5197  0.2332
  160MOL0     H21556   7.192   4.384   2.355  0.0744  1.1274  0.3831
  160MOL0     H21557   7.166   4.538   2.431  5.3895  1.1265 -1.5828
  160MOL0     H21558   7.178   4.662   2.256 -0.5008 -0.6259  1.4622
  160MOL0     H21559   7.167   4.527   2.133 -1.9453  1.5418 -0.1341
  160MOL0     H21560   7.586   4.471   2.237 -0.2427  0.5672  2.2829
  160MOL0     H21561   7.769   4.599   2.173 -0.9851 -0.9533  0.6299
  160MOL0     H21562   8.103   4.695   1.946 -0.0652  1.1007 -1.6163
  160MOL0     H21563   8.325   4.791   1.970 -0.2897  2.2059 -0.6520
  160MOL0     H21564   8.511   4.843   2.083 -0.5057  0.1552  2.3305
  160MOL0     H21565   8.545   4.957   1.952  4.5916 -3.8892  0.7802
  160MOL0     H21566   8.724   4.994   2.067  0.5105 -0.2131  0.3407
  160MOL0     H21567   8.614   5.117   2.114 -2.2067 -0.3426  1.3494
  160MOL0     H21568   8.680   5.041   2.336 -0.3981  1.6738 -2.0894
  160MOL0     H21569   8.557   4.913   2.306 -2.0243  3.8933 -0.1447
  160MOL0     H21570   8.850   4.885   2.262 -0.0907 -2.1039  2.2924
  160MOL0     H21571   8.730   4.775   2.206  2.2439  0.0306 -0.4098
  160MOL0     H21572   8.678   4.732   2.461 -1.0972  0.5201 -0.5438
  160MOL0     H21573   8.803   4.847   2.479 -0.2971 -1.6797  1.0725
  160MOL0     H21574   8.873   4.586   2.343  0.0424 -2.1840  3.1230
  160MOL0     H21575   8.978   4.730   2.378  2.5348 -0.1503  2.4563
  160MOL0     H21576   8.892   4.703   2.624  0.0863  0.1041  0.1261
  160MOL0     H21577   9.007   4.577   2.577 -0.6773  1.8423  1.1873
  160MOL0     H21578   8.706   4.539   2.602 -1.1060 -1.5831 -1.6264
  160MOL0     H21579   8.831   4.422   2.553 -1.6536 -0.2116 -0.6532
  160MOL0     H21580   8.164   5.133   2.163  0.9950 -0.6371 -0.7004
  160MOL0     H21581   7.937   5.042   2.122  0.3172  0.0345  0.6836
  160MOL0     H21582   7.481   4.896   2.032  2.0938  1.9383  2.0357
  160MOL0     H21583   7.311   4.780   2.130 -0.9474 -1.6743  0.2698
  160MOL0     H21584   5.500   4.223   2.577 -0.8819  0.8137  1.2127
  160MOL0     H21585   5.256   4.245   2.599  0.9058  0.2702 -0.8771
  160MOL0     H21586   4.875   4.182   2.637 -1.3113  1.5727 -0.8254
  160MOL0     H21587   4.644   4.194   2.649 -0.2612  0.7919 -0.8384
  160MOL0     H21588   4.453   4.243   2.604  1.2934 -0.0595 -2.6535
  160MOL0     H21589   4.390   4.088   2.655  0.9595 -1.3034 -0.4652
  160MOL0     H21590   4.188   4.181   2.615  0.3077  0.8468  0.5016
  160MOL0     H21591   4.218   4.087   2.472 -0.3980 -0.6470  1.2413
  160MOL0     H21592   4.131   4.271   2.389 -0.4540  2.0157 -1.1064
  160MOL0     H21593   4.301   4.275   2.352 -0.6201 -0.4324 -0.5976
  160MOL0     H21594   4.167   4.436   2.584  0.6607  0.2848  0.7575
  160MOL0     H21595   4.330   4.449   2.541 -0.6515  1.0161  0.7050
  160MOL0     H21596   4.146   4.699   2.254  0.0500  2.0743  1.9826
  160MOL0     H21597   4.603   4.015   2.259  1.0586 -2.2404  1.3916
  160MOL0     H21598   4.939   4.065   2.153 -1.3321  0.5962 -0.3123
  160MOL0     H21599   4.851   3.912   2.195  0.4992 -0.5022 -0.3587
  160MOL0     H21600   4.774   4.043   2.105  2.1837  1.5363 -1.6771
  161MOL0     O21601  10.698   1.379   3.715  0.4673 -0.0095 -0.2000
  161MOL0     C21602  10.638   1.468   3.769  0.4251 -0.1268  0.0252
  161MOL0     O21603  10.674   1.531   3.884  0.2724  0.2661 -0.6172
  161MOL0     C21604  10.804   1.510   3.934  0.0699 -0.4153  0.1595
  161MOL0     C21605  10.803   1.452   4.060  0.5081  0.8638  0.1219
  161MOL0     C21606  10.918   1.454   4.133  0.4857  0.8360  0.2828
  161MOL0     C21607  11.042   1.496   4.084  1.3542  0.4328 -0.1209
  161MOL0     O21608  11.152   1.477   4.160 -0.0734 -0.3933 -0.2684
  161MOL0     C21609  11.276   1.509   4.103 -0.6071  0.5780 -0.3761
  161MOL0     C21610  11.392   1.444   4.189 -0.1859  0.4397  0.4362
  161MOL0     C21611  11.517   1.482   4.118  0.2129 -0.5829 -0.9277
  161MOL0     C21612  11.635   1.451   4.198 -0.1195  0.3729 -0.3920
  161MOL0     C21613  11.762   1.534   4.158  0.6350 -0.4526  0.1342
  161MOL0     C21614  11.889   1.496   4.236  0.2089 -0.5678  0.6824
  161MOL0     C21615  11.946   1.362   4.174  0.5949  0.4457  0.0535
  161MOL0     C21616  12.090   1.346   4.205  0.7724 -0.0435 -0.5573
  161MOL0     N21617  12.115   1.339   4.345  0.1797 -0.6476 -0.3487
  161MOL0     C21618  12.140   1.222   4.416  0.4811 -0.9233 -0.7813
  161MOL0     C21619  12.162   1.267   4.546 -0.7738 -0.4519 -0.1910
  161MOL0     C21620  12.193   1.193   4.669  0.0342  0.5983 -0.1397
  161MOL0     C21621  12.347   1.167   4.696 -1.3162 -0.5469 -0.8367
  161MOL0     C21622  12.418   1.114   4.575  0.3176  0.1509 -0.5196
  161MOL0     C21623  12.563   1.072   4.593  0.6857 -0.0151  0.0543
  161MOL0     O21624  12.583   0.959   4.671 -0.2476 -0.3139 -0.3485
  161MOL0     C21625  12.714   0.917   4.702 -0.3471 -0.3993  0.5204
  161MOL0     C21626  12.712   0.805   4.787 -0.2820 -0.5496  0.4372
  161MOL0     C21627  12.841   0.748   4.816  0.0687 -0.0125 -1.0616
  161MOL0     C21628  12.962   0.815   4.780  0.1946  0.1021  0.7493
  161MOL0     C21629  13.090   0.766   4.814 -0.2761  0.6592 -1.0191
  161MOL0     O21630  13.189   0.854   4.853  0.7707 -0.5747  0.0657
  161MOL0     C21631  13.311   0.812   4.911 -0.1751 -0.6619  0.1961
  161MOL0     C21632  13.350   0.683   4.959  0.4199 -0.4378 -0.9125
  161MOL0     C21633  13.472   0.669   5.026 -0.7084  0.7069 -0.5531
  161MOL0     C21634  13.558   0.777   5.048  0.2989 -0.3096 -0.0118
  161MOL0     O21635  13.667   0.769   5.135  0.9679 -0.0980 -0.0602
  161MOL0     C21636  13.737   0.641   5.132 -0.9601  0.1863 -0.7214
  161MOL0     C21637  13.885   0.655   5.140  0.7940 -0.3576  0.6000
  161MOL0     C21638  13.948   0.537   5.209  0.0254 -0.2446  0.1443
  161MOL0     C21639  14.106   0.552   5.191  0.6327  0.3549  0.4744
  161MOL0     C21640  14.165   0.623   5.310 -0.6160  0.5186 -0.5974
  161MOL0     C21641  14.308   0.643   5.292  0.2169  0.5679  0.6484
  161MOL0     C21642  14.335   0.772   5.212  0.0961  0.1724  0.2133
  161MOL0     C21643  14.485   0.802   5.217 -0.6861  1.0201  0.4471
  161MOL0    Cl21644  14.509   0.876   5.383 -0.3379 -0.1406  0.0842
  161MOL0     C21645  13.534   0.903   4.994  0.9716  0.0083  0.4495
  161MOL0     C21646  13.408   0.920   4.923 -0.6128 -0.7541 -0.2709
  161MOL0     O21647  13.104   0.649   4.795 -0.5328 -0.0768  0.0447
  161MOL0     C21648  12.956   0.931   4.705 -0.2156 -1.1876 -0.1194
  161MOL0     C21649  12.837   0.982   4.661  0.2426  0.7418 -0.6761
  161MOL0     N21650  12.159   1.402   4.541 -0.0756 -0.0036  0.4128
  161MOL0     N21651  12.137   1.442   4.424 -0.7600 -0.0868  0.2551
  161MOL0     C21652  11.032   1.559   3.958 -0.3279 -0.0234  0.4301
  161MOL0     C21653  10.915   1.568   3.880 -0.3213  0.4373 -0.1196
  161MOL0     C21654  10.511   1.499   3.705  0.2290  0.2243 -0.2176
  161MOL0     C21655  10.392   1.464   3.772  0.1429  0.4479  0.7235
  161MOL0     C21656  10.266   1.477   3.710 -0.2076 -0.8552  0.3984
  161MOL0     C21657  10.253   1.536   3.588  0.1396  0.3477 -0.0412
  161MOL0     O21658  10.124   1.550   3.542 -0.2251 -0.3680 -0.7547
  161MOL0     C21659  10.097   1.563   3.406  0.7575  0.1494  0.4237
  161MOL0     C21660   9.946   1.554   3.373  0.1926  1.2649 -0.8086
  161MOL0     C21661   9.876   1.434   3.438  0.6435  0.5516  0.1431
  161MOL0     C21662   9.888   1.292   3.363 -0.2833 -0.4350  0.0378
  161MOL0     C21663   9.888   1.305   3.222 -0.0544 -0.0634  0.0672
  161MOL0     C21664   9.896   1.325   3.098 -0.2097  0.1555 -0.4837
  161MOL0     C21665  10.366   1.574   3.519 -0.1588  1.0525 -0.1287
  161MOL0     C21666  10.499   1.545   3.570  0.0571  0.3080  0.2953
  161MOL0     C21667  10.613   1.582   3.482 -0.4239  0.1037  0.1821
  161MOL0     H21668  10.709   1.425   4.107  0.9328 -0.4740  0.2411
  161MOL0     H21669  10.915   1.398   4.226 -1.8104 -1.5549 -1.1179
  161MOL0     H21670  11.283   1.453   4.010  3.0473 -0.1785  0.1918
  161MOL0     H21671  11.281   1.614   4.074 -0.4872  0.8720  0.6547
  161MOL0     H21672  11.374   1.337   4.205 -2.8495  1.0007  1.6470
  161MOL0     H21673  11.393   1.492   4.287 -0.4866  2.5095 -0.5275
  161MOL0     H21674  11.504   1.590   4.108 -0.9576 -0.8131 -2.4729
  161MOL0     H21675  11.529   1.434   4.020 -0.1056 -1.2022 -0.6663
  161MOL0     H21676  11.619   1.481   4.302  0.9679  2.0658 -0.6820
  161MOL0     H21677  11.663   1.346   4.188 -0.5384  0.2328 -0.1375
  161MOL0     H21678  11.769   1.527   4.049  0.0980  1.3400 -0.0468
  161MOL0     H21679  11.726   1.637   4.163 -2.0260 -1.2684 -0.8451
  161MOL0     H21680  11.965   1.574   4.222 -0.0167 -0.4020  0.3793
  161MOL0     H21681  11.866   1.487   4.342  2.4514  1.3539  1.4293
  161MOL0     H21682  11.939   1.371   4.065 -0.3089 -1.1071 -0.0527
  161MOL0     H21683  11.893   1.278   4.218  2.8983 -0.9476  0.3243
  161MOL0     H21684  12.116   1.254   4.151  0.9304 -1.7262  2.2035
  161MOL0     H21685  12.150   1.428   4.163  0.1405  1.0999  0.7165
  161MOL0     H21686  12.143   1.131   4.357 -1.3494 -0.5922 -1.4457
  161MOL0     H21687  12.158   1.249   4.756  2.3733  0.6044  0.8761
  161MOL0     H21688  12.152   1.091   4.667 -1.3293  1.0594  1.8370
  161MOL0     H21689  12.399   1.256   4.734 -1.4881 -0.3912 -0.9593
  161MOL0     H21690  12.360   1.095   4.777  3.5195 -1.8641 -2.5099
  161MOL0     H21691  12.425   1.191   4.497  1.9952 -0.5150 -1.0677
  161MOL0     H21692  12.367   1.025   4.538  2.3466 -3.3353  4.0977
  161MOL0     H21693  12.622   1.152   4.639  0.0952  0.2661  0.3303
  161MOL0     H21694  12.602   1.055   4.492 -1.2806 -1.3910 -0.5246
  161MOL0     H21695  12.621   0.757   4.820 -1.0765 -0.8343 -1.9231
  161MOL0     H21696  12.845   0.653   4.870 -0.4813  1.5743  1.9784
  161MOL0     H21697  13.277   0.602   4.952 -0.5413  0.5310 -2.9222
  161MOL0     H21698  13.493   0.573   5.072  0.0327  1.1471  0.0549
  161MOL0     H21699  13.706   0.567   5.206  0.9915  0.3502  0.3436
  161MOL0     H21700  13.720   0.597   5.034  1.3513 -1.3069 -0.5429
  161MOL0     H21701  13.923   0.660   5.038 -0.9228 -2.1313 -0.1975
  161MOL0     H21702  13.900   0.756   5.180  2.4145  0.0601 -0.9170
  161MOL0     H21703  13.924   0.531   5.316  4.4038 -0.0511  1.3000
  161MOL0     H21704  13.914   0.447   5.156 -0.8194  2.4232 -4.2953
  161MOL0     H21705  14.125   0.591   5.090  3.4351  0.3478  0.9048
  161MOL0     H21706  14.150   0.452   5.195  1.2420  0.6517  1.7053
  161MOL0     H21707  14.141   0.580   5.408 -0.8903  1.6977 -0.1263
  161MOL0     H21708  14.136   0.728   5.320  0.2294  0.6801  0.3426
  161MOL0     H21709  14.369   0.648   5.383  3.5419  1.4321 -1.4261
  161MOL0     H21710  14.348   0.563   5.229  0.1026  0.2391  0.9856
  161MOL0     H21711  14.281   0.853   5.262  1.1087 -0.8205  3.1616
  161MOL0     H21712  14.303   0.767   5.108 -2.4714  2.3999  0.7662
  161MOL0     H21713  14.545   0.712   5.203  0.4855  1.2370  3.4381
  161MOL0     H21714  14.511   0.864   5.131  0.7355 -1.1219 -0.7481
  161MOL0     H21715  13.604   0.983   5.009 -1.7884  3.2486 -2.2000
  161MOL0     H21716  13.394   1.022   4.890 -1.2587 -0.6411  0.3155
  161MOL0     H21717  13.041   0.998   4.696 -1.0764 -0.0259  0.1976
  161MOL0     H21718  12.852   1.072   4.602 -1.9633  1.0590 -0.8526
  161MOL0     H21719  11.125   1.596   3.917 -0.1197 -0.9475  0.0201
  161MOL0     H21720  10.900   1.637   3.798 -2.0384  1.2068  0.7675
  161MOL0     H21721  10.394   1.405   3.864 -1.6680 -1.4542 -0.3795
  161MOL0     H21722  10.178   1.437   3.761 -0.0898 -0.9856  0.5010
  161MOL0     H21723  10.141   1.479   3.350 -0.7581  0.4613 -1.3217
  161MOL0     H21724  10.133   1.658   3.367  2.6348 -1.2649 -1.5739
  161MOL0     H21725   9.921   1.576   3.269 -0.9555  0.0604 -0.8190
  161MOL0     H21726   9.904   1.647   3.411  0.0228  1.7511 -2.1393
  161MOL0     H21727   9.773   1.470   3.447  1.1439  2.4863 -1.2417
  161MOL0     H21728   9.911   1.420   3.540  2.9476  1.4197 -0.4701
  161MOL0     H21729   9.989   1.262   3.395 -0.1417 -0.6512 -0.5935
  161MOL0     H21730   9.807   1.230   3.403  0.7252 -1.1538  1.0378
  161MOL0     H21731   9.894   1.351   2.994  1.8218 -0.1792 -0.6542
  161MOL0     H21732  10.352   1.612   3.419 -2.9341 -2.4545 -1.2745
  161MOL0     H21733  10.584   1.633   3.389 -1.2175 -1.8702 -0.7214
  161MOL0     H21734  10.679   1.643   3.544  1.3391 -1.6017  0.0855
  161MOL0     H21735  10.662   1.490   3.451  0.1651  0.4381  0.1189
  162MOL0     O21736   7.246   8.212   7.149 -0.2554  0.1370 -0.3745
  162MOL0     C21737   7.178   8.114   7.188 -0.0499  0.5205  0.4655
  162MOL0     O21738   7.221   7.996   7.238  0.0949  0.7430  0.4602
  162MOL0     C21739   7.346   7.970   7.289  0.4426 -0.7563 -0.4838
  162MOL0     C21740   7.444   8.071   7.317  1.1296  0.5315 -0.2015
  162MOL0     C21741   7.564   8.045   7.379  1.0233 -0.6341  0.7344
  162MOL0     C21742   7.595   7.912   7.416  0.4522  1.3308 -0.4613
  162MOL0     O21743   7.707   7.885   7.481 -0.4723 -0.0266  0.6770
  162MOL0     C21744   7.797   7.985   7.528 -0.4902  0.4056  0.7335
  162MOL0     C21745   7.931   7.913   7.564 -0.8685  0.4616 -0.8506
  162MOL0     C21746   7.999   7.979   7.686 -0.3448 -0.5492 -0.4380
  162MOL0     C21747   8.141   7.933   7.724 -0.2615 -0.2668 -0.1883
  162MOL0     C21748   8.177   7.941   7.871 -0.0683  0.7606 -1.0488
  162MOL0     C21749   8.195   8.077   7.919  0.0200 -0.3067 -0.0967
  162MOL0     C21750   8.253   8.067   8.062 -0.1067  0.1206  0.1515
  162MOL0     C21751   8.300   8.217   8.099  0.0555 -0.8500  0.4095
  162MOL0     N21752   8.372   8.220   8.227 -0.0692  0.3338 -0.3345
  162MOL0     C21753   8.312   8.250   8.343 -0.2960 -0.0015 -0.4696
  162MOL0     C21754   8.413   8.257   8.437  0.6627  0.3307  0.0240
  162MOL0     C21755   8.410   8.310   8.576 -0.2103 -0.6038  0.5868
  162MOL0     C21756   8.395   8.462   8.586  0.4512 -0.1493 -0.9881
  162MOL0     C21757   8.511   8.543   8.532 -0.6823 -0.6403  0.0010
  162MOL0     C21758   8.601   8.594   8.640  0.2834  0.0525 -0.0478
  162MOL0     O21759   8.705   8.672   8.581 -0.6773  0.2848  0.3182
  162MOL0     C21760   8.817   8.694   8.662 -0.3340 -0.9257 -0.3015
  162MOL0     C21761   8.814   8.709   8.804  0.4458  1.2701 -0.6908
  162MOL0     C21762   8.919   8.757   8.875  0.7730 -0.0574 -0.7440
  162MOL0     C21763   9.040   8.797   8.816  0.1062 -0.3722 -0.0443
  162MOL0     C21764   9.140   8.874   8.899 -0.3603 -0.7399  0.8559
  162MOL0     O21765   9.098   8.915   9.015 -1.0404 -0.1072 -0.3593
  162MOL0     C21766   9.180   8.997   9.100 -0.4248  0.4495  0.0478
  162MOL0     C21767   9.315   9.023   9.087 -0.3766 -0.2903  0.1566
  162MOL0     C21768   9.378   9.107   9.178 -0.1766 -0.2811  1.0144
  162MOL0     C21769   9.313   9.153   9.293 -0.2314  0.5633 -0.3437
  162MOL0     O21770   9.389   9.216   9.392  0.5795 -0.3829 -0.6219
  162MOL0     C21771   9.386   9.157   9.521  0.9313  0.7758 -0.3827
  162MOL0     C21772   9.512   9.192   9.601 -0.3556  0.2092 -0.3941
  162MOL0     C21773   9.539   9.100   9.725 -0.0036 -0.3938  0.0689
  162MOL0     C21774   9.683   9.124   9.769 -0.6959 -0.1554  0.4302
  162MOL0     C21775   9.723   9.051   9.890 -0.1369  0.2948  0.3505
  162MOL0     C21776   9.862   9.082   9.929  0.7245  0.1661 -0.1756
  162MOL0     C21777   9.965   9.016   9.843 -0.3934  0.3652  0.7516
  162MOL0     C21778  10.112   9.054   9.880 -0.3648  0.3696 -0.4229
  162MOL0    Cl21779  10.143   8.992  10.040  0.0144 -0.1863 -0.3454
  162MOL0     C21780   9.179   9.118   9.319 -0.5614 -0.1327  0.6447
  162MOL0     C21781   9.110   9.045   9.209  0.4296 -0.2226 -0.3662
  162MOL0     O21782   9.248   8.906   8.841 -0.3507 -0.5331  0.1650
  162MOL0     C21783   9.048   8.790   8.676 -1.0496  0.1021 -0.1858
  162MOL0     C21784   8.941   8.736   8.609 -1.0087 -0.5098 -0.0435
  162MOL0     N21785   8.523   8.215   8.372  0.0445 -0.9741 -0.4015
  162MOL0     N21786   8.498   8.189   8.254  0.5640 -0.7900 -0.2588
  162MOL0     C21787   7.497   7.805   7.397 -0.1429 -0.7616 -0.5304
  162MOL0     C21788   7.374   7.843   7.334 -0.5797  0.7583 -0.3825
  162MOL0     C21789   7.031   8.125   7.176  1.4973 -0.7395  0.4049
  162MOL0     C21790   6.958   8.230   7.240 -0.0955 -0.1635 -0.4767
  162MOL0     C21791   6.815   8.237   7.240 -0.0847  0.5854 -0.0308
  162MOL0     C21792   6.741   8.136   7.172  0.0122  0.4844  0.1819
  162MOL0     O21793   6.604   8.138   7.165 -0.0977  0.3469  0.1908
  162MOL0     C21794   6.514   8.230   7.220  0.2058 -0.0727  0.5210
  162MOL0     C21795   6.375   8.179   7.218 -0.3235  0.2500 -0.7873
  162MOL0     C21796   6.357   8.059   7.315  0.0623 -0.1032 -0.2392
  162MOL0     C21797   6.322   8.102   7.455  0.5953  0.0374 -0.2842
  162MOL0     C21798   6.186   8.152   7.480  0.2603 -0.2995  1.3451
  162MOL0     C21799   6.077   8.187   7.504 -0.0547  0.4884  0.3613
  162MOL0     C21800   6.815   8.036   7.103 -0.3541 -0.3510 -0.6651
  162MOL0     C21801   6.956   8.029   7.098  0.4462  0.3101  0.2453
  162MOL0     C21802   7.022   7.908   7.032 -0.7890  0.2364  0.3534
  162MOL0     H21803   7.419   8.171   7.282 -1.4600 -0.9309 -3.0530
  162MOL0     H21804   7.642   8.120   7.383  0.9659 -0.5403  0.1254
  162MOL0     H21805   7.815   8.056   7.447  0.6945  0.8502  1.3490
  162MOL0     H21806   7.749   8.038   7.611  0.0230 -0.1301  1.3764
  162MOL0     H21807   8.000   7.920   7.479 -2.6214 -1.0466 -2.4961
  162MOL0     H21808   7.911   7.812   7.599  0.6311  0.5182  0.2819
  162MOL0     H21809   7.947   7.972   7.782  1.4758  2.5595  0.9312
  162MOL0     H21810   7.996   8.086   7.661  2.3503 -0.4967 -0.7936
  162MOL0     H21811   8.147   7.825   7.706  1.9596 -0.5586  1.6870
  162MOL0     H21812   8.216   7.986   7.665 -0.6435 -1.2389 -1.5998
  162MOL0     H21813   8.103   7.880   7.923  0.9977 -1.2285 -1.7785
  162MOL0     H21814   8.273   7.889   7.882 -0.7288 -0.1839  0.5244
  162MOL0     H21815   8.261   8.130   7.849  0.0275 -0.1455  0.0328
  162MOL0     H21816   8.104   8.132   7.944  0.4622  2.3973 -3.5783
  162MOL0     H21817   8.340   8.001   8.061  1.0709  1.4211  3.0875
  162MOL0     H21818   8.173   8.032   8.128  0.0284  1.1660  0.9100
  162MOL0     H21819   8.371   8.243   8.020 -0.7677 -0.1560 -0.1332
  162MOL0     H21820   8.223   8.295   8.088  1.8537  1.6379  3.6773
  162MOL0     H21821   8.210   8.281   8.365  0.2882  0.9647  1.0951
  162MOL0     H21822   8.327   8.269   8.634 -0.8632  1.5374  1.2334
  162MOL0     H21823   8.505   8.285   8.625 -0.7375  1.2467  2.7194
  162MOL0     H21824   8.305   8.490   8.531  1.0134  1.2785 -1.2160
  162MOL0     H21825   8.373   8.488   8.690  1.1351 -1.0981 -0.5867
  162MOL0     H21826   8.473   8.636   8.488  1.5428  0.0445 -0.6287
  162MOL0     H21827   8.570   8.489   8.457 -0.9539 -1.7242  0.5631
  162MOL0     H21828   8.645   8.507   8.689  0.6691  1.4825  2.2964
  162MOL0     H21829   8.542   8.655   8.709 -1.1209  3.3464 -3.7689
  162MOL0     H21830   8.720   8.701   8.858  0.7551  1.6813 -0.0849
  162MOL0     H21831   8.901   8.769   8.982  1.3661  0.5295 -0.7067
  162MOL0     H21832   9.378   8.979   9.010  1.9666  0.4756  1.5436
  162MOL0     H21833   9.477   9.140   9.151  0.5093 -2.8776  0.0801
  162MOL0     H21834   9.300   9.199   9.573  0.7407 -0.0611 -0.0104
  162MOL0     H21835   9.378   9.048   9.520  0.1061  0.7812  1.5533
  162MOL0     H21836   9.603   9.181   9.541 -0.7131  1.4171 -1.1792
  162MOL0     H21837   9.507   9.299   9.621  2.6203 -0.1165  3.3695
  162MOL0     H21838   9.471   9.109   9.811 -0.7489  2.0432 -0.6892
  162MOL0     H21839   9.521   9.000   9.685  0.5746  0.3016 -2.0553
  162MOL0     H21840   9.702   9.231   9.786 -1.3411 -0.3486  2.7049
  162MOL0     H21841   9.742   9.098   9.680 -3.7335 -1.1492 -1.4494
  162MOL0     H21842   9.702   8.946   9.867  3.0680 -0.2728 -0.5370
  162MOL0     H21843   9.656   9.084   9.969 -0.5789  0.6697 -0.1789
  162MOL0     H21844   9.873   9.189   9.948  3.2284 -0.3252  1.6115
  162MOL0     H21845   9.875   9.053  10.034 -2.5762 -0.3132  0.2104
  162MOL0     H21846   9.949   9.024   9.735  0.1211 -0.2258  0.6218
  162MOL0     H21847   9.953   8.907   9.849 -2.3388  0.0030 -4.3725
  162MOL0     H21848  10.178   9.009   9.807 -1.9263 -3.7876  0.4497
  162MOL0     H21849  10.117   9.163   9.890 -4.7363  0.5707  4.8726
  162MOL0     H21850   9.130   9.165   9.404  2.0295 -0.1906  2.2774
  162MOL0     H21851   9.009   9.006   9.209 -0.1965  0.6248  4.7981
  162MOL0     H21852   9.137   8.829   8.627 -1.7310  3.1036  0.7606
  162MOL0     H21853   8.953   8.742   8.501 -0.6390  1.4201  0.0700
  162MOL0     H21854   7.520   7.707   7.437 -3.3511 -2.0851 -1.5813
  162MOL0     H21855   7.284   7.782   7.336 -1.8400  2.5234 -0.8667
  162MOL0     H21856   7.010   8.316   7.281  0.2245  1.5292 -4.0381
  162MOL0     H21857   6.764   8.321   7.286 -1.7291 -0.0898 -0.5194
  162MOL0     H21858   6.512   8.327   7.169 -0.0825 -0.3936 -0.0900
  162MOL0     H21859   6.540   8.244   7.325 -3.0904  1.4444  1.2484
  162MOL0     H21860   6.344   8.138   7.122  1.0099 -1.0877 -0.6870
  162MOL0     H21861   6.303   8.256   7.247  0.2855  0.4462  0.2654
  162MOL0     H21862   6.456   8.011   7.321  0.1491 -0.0249 -0.9615
  162MOL0     H21863   6.291   7.984   7.271  1.4734 -1.9176  0.5911
  162MOL0     H21864   6.338   8.011   7.513 -0.1935  0.1272  0.0892
  162MOL0     H21865   6.389   8.178   7.495  0.7854  0.0732 -0.6646
  162MOL0     H21866   5.980   8.220   7.537 -0.6446 -2.1084  1.4336
  162MOL0     H21867   6.762   7.960   7.046 -0.8551  0.0346 -0.7152
  162MOL0     H21868   6.952   7.840   6.982  2.3582 -0.8395 -3.0178
  162MOL0     H21869   7.101   7.934   6.960  0.2151 -1.5154  0.7832
  162MOL0     H21870   7.071   7.851   7.111 -1.5143  0.7203  1.1788
  163MOL0     O21871   3.006  10.527   1.424  0.0740  0.0991 -0.3944
  163MOL0     C21872   2.964  10.642   1.443  0.4741  1.0434  1.1399
  163MOL0     O21873   3.040  10.752   1.469  0.4285 -0.1242  0.0503
  163MOL0     C21874   3.174  10.740   1.486 -0.8177  0.7110 -0.1846
  163MOL0     C21875   3.254  10.633   1.527 -0.3765  0.1326 -0.0367
  163MOL0     C21876   3.394  10.638   1.520 -0.5064 -0.0631  0.6873
  163MOL0     C21877   3.462  10.759   1.492  0.0242 -0.2879 -0.2270
  163MOL0     O21878   3.595  10.778   1.495 -0.4367 -0.2985  0.3442
  163MOL0     C21879   3.676  10.668   1.548 -0.1983  0.6666 -1.0369
  163MOL0     C21880   3.812  10.713   1.512 -0.5205 -0.7464 -0.2724
  163MOL0     C21881   3.933  10.621   1.547  0.1776  0.1001  1.0706
  163MOL0     C21882   3.927  10.561   1.688 -0.7852  0.2159 -0.3972
  163MOL0     C21883   4.068  10.509   1.729  0.7724  0.5289  0.5300
  163MOL0     C21884   4.054  10.441   1.869 -0.0313 -0.6992  0.1168
  163MOL0     C21885   4.177  10.362   1.904 -1.1048 -0.3734 -0.4683
  163MOL0     C21886   4.319  10.422   1.875  0.2149 -0.6698 -0.2574
  163MOL0     N21887   4.419  10.335   1.920 -0.4402 -0.0344 -0.3822
  163MOL0     C21888   4.427  10.280   2.044 -0.3293  0.4440 -0.2659
  163MOL0     C21889   4.528  10.190   2.047  0.8001  0.5377 -0.6734
  163MOL0     C21890   4.557  10.106   2.173 -0.3521 -0.4695  0.0000
  163MOL0     C21891   4.689  10.136   2.246 -0.7197 -0.4400 -0.4837
  163MOL0     C21892   4.819  10.119   2.160  0.3854 -0.4948 -0.6226
  163MOL0     C21893   4.848   9.977   2.130 -0.0065  0.2610  0.5742
  163MOL0     O21894   4.822   9.896   2.243 -0.1478  0.4562  0.3874
  163MOL0     C21895   4.917   9.904   2.343  0.0326 -0.2593 -0.9365
  163MOL0     C21896   4.879   9.855   2.470 -0.3119  0.0433 -1.0937
  163MOL0     C21897   4.968   9.859   2.572 -0.3912  0.5792 -0.2875
  163MOL0     C21898   5.091   9.924   2.572  0.6345 -0.0219  0.8415
  163MOL0     C21899   5.185   9.924   2.691  0.7331 -0.3691  0.3458
  163MOL0     O21900   5.300   9.989   2.674 -0.1640  0.2140 -0.5664
  163MOL0     C21901   5.384  10.025   2.779  0.3654 -1.2738 -0.1497
  163MOL0     C21902   5.356  10.031   2.913 -0.3786 -0.2161  1.1433
  163MOL0     C21903   5.443  10.050   3.021 -0.0348  0.2813  1.2060
  163MOL0     C21904   5.581  10.032   2.989 -0.2842  0.4672 -0.8385
  163MOL0     O21905   5.683  10.033   3.085 -0.2201  0.9184  0.2693
  163MOL0     C21906   5.663   9.981   3.220 -0.2128 -1.1712  0.3681
  163MOL0     C21907   5.789  10.012   3.295 -0.6002 -0.3586 -0.5351
  163MOL0     C21908   5.792  10.169   3.308  0.5552  0.9691  0.3203
  163MOL0     C21909   5.926  10.227   3.362 -0.1181 -1.1851 -0.7710
  163MOL0     C21910   5.922  10.382   3.361  1.0995  0.5188 -0.2006
  163MOL0     C21911   6.029  10.443   3.440 -0.4071 -0.6679  0.4822
  163MOL0     C21912   6.173  10.396   3.413  0.0281 -0.4598 -0.0024
  163MOL0     C21913   6.202  10.417   3.264  0.1823 -0.0716 -0.4789
  163MOL0    Cl21914   6.234  10.608   3.233  0.2504  0.5083 -0.1423
  163MOL0     C21915   5.617  10.002   2.859  0.4797 -0.2320 -0.1994
  163MOL0     C21916   5.517  10.016   2.756 -0.5189 -0.1212 -0.3538
  163MOL0     O21917   5.149   9.870   2.793  0.3215 -0.3412 -0.2424
  163MOL0     C21918   5.131   9.968   2.445  0.3616 -0.2696  0.1972
  163MOL0     C21919   5.049   9.950   2.332  0.4101 -0.2313 -0.3710
  163MOL0     N21920   4.584  10.188   1.922 -0.7409 -0.0551 -0.3648
  163MOL0     N21921   4.519  10.275   1.844  0.1184 -0.0790 -1.3740
  163MOL0     C21922   3.372  10.861   1.461  0.3265 -0.5849  0.5214
  163MOL0     C21923   3.232  10.856   1.447 -0.6041 -0.5521 -0.2469
  163MOL0     C21924   2.825  10.678   1.423  0.2108  0.2670 -0.0212
  163MOL0     C21925   2.800  10.804   1.356  0.3558 -0.0399  0.4891
  163MOL0     C21926   2.672  10.850   1.352 -0.5511  0.2651  0.0874
  163MOL0     C21927   2.564  10.781   1.404 -0.3937 -0.2219  0.4223
  163MOL0     O21928   2.442  10.835   1.396 -0.2321 -0.4329  0.0559
  163MOL0     C21929   2.392  10.838   1.265 -0.0337 -0.5015  0.3266
  163MOL0     C21930   2.257  10.764   1.262  0.9013 -0.3829 -0.1885
  163MOL0     C21931   2.169  10.805   1.379  0.6049  0.3228 -0.3715
  163MOL0     C21932   2.030  10.741   1.357 -0.6262  0.1640  0.2562
  163MOL0     C21933   1.936  10.795   1.459 -0.6510 -0.1788  0.5739
  163MOL0     C21934   1.854  10.851   1.521  0.0613  0.2821  0.4646
  163MOL0     C21935   2.588  10.664   1.468  0.8053  0.0770  0.2045
  163MOL0     C21936   2.713  10.613   1.479 -1.0795 -0.0224 -0.2680
  163MOL0     C21937   2.728  10.496   1.551 -0.1136  0.6524 -0.0097
  163MOL0     H21938   3.210  10.539   1.561 -1.8856  0.5434 -0.7724
  163MOL0     H21939   3.447  10.545   1.541  0.3390 -0.8590 -3.9982
  163MOL0     H21940   3.672  10.660   1.657 -0.3940 -1.3693 -1.1541
  163MOL0     H21941   3.654  10.570   1.504 -2.3888 -0.8719  2.8977
  163MOL0     H21942   3.841  10.808   1.555  1.5633 -1.8288  0.8722
  163MOL0     H21943   3.806  10.740   1.406  2.0697 -0.4666 -0.4087
  163MOL0     H21944   4.023  10.682   1.535 -0.2607  0.7497  1.0226
  163MOL0     H21945   3.942  10.539   1.475  1.2211 -1.1925  2.5984
  163MOL0     H21946   3.880  10.641   1.747  0.3078  1.0152 -0.5677
  163MOL0     H21947   3.863  10.473   1.695  0.1107 -0.4135  0.1165
  163MOL0     H21948   4.094  10.431   1.657  0.5790  1.4599 -0.5755
  163MOL0     H21949   4.138  10.593   1.728  1.5129 -0.0481 -1.9397
  163MOL0     H21950   4.034  10.522   1.939 -2.7960 -0.8657 -0.3762
  163MOL0     H21951   3.968  10.373   1.864  0.5645 -1.3746 -1.7142
  163MOL0     H21952   4.179  10.274   1.838 -1.6608 -1.2659  0.6611
  163MOL0     H21953   4.164  10.332   2.009 -2.9670  0.4727 -0.4206
  163MOL0     H21954   4.324  10.440   1.767 -0.1684 -5.3008 -1.2382
  163MOL0     H21955   4.336  10.516   1.929  2.6395 -0.9800 -0.3709
  163MOL0     H21956   4.361  10.301   2.127  1.0476  2.1471  0.4368
  163MOL0     H21957   4.483  10.126   2.251 -0.2742  1.4664 -0.3890
  163MOL0     H21958   4.544  10.000   2.148 -2.4270 -0.1832 -0.3397
  163MOL0     H21959   4.687  10.238   2.285 -1.7550 -0.3161 -0.8114
  163MOL0     H21960   4.698  10.069   2.331  3.9448 -0.3218 -0.6722
  163MOL0     H21961   4.902  10.164   2.214 -0.2544  0.5931 -0.5326
  163MOL0     H21962   4.809  10.179   2.069  0.8928 -1.3462 -1.2557
  163MOL0     H21963   4.950   9.980   2.091  0.1831  1.3041  1.1275
  163MOL0     H21964   4.774   9.934   2.061 -2.1806 -0.7136  3.3362
  163MOL0     H21965   4.782   9.816   2.499  0.6855 -0.9992  1.0475
  163MOL0     H21966   4.934   9.807   2.661  1.1381 -1.5981 -0.8749
  163MOL0     H21967   5.251  10.034   2.940 -0.6105  0.1684  0.2441
  163MOL0     H21968   5.403  10.053   3.121 -0.0560 -0.7018  1.2428
  163MOL0     H21969   5.577  10.014   3.279  1.7706  2.1783  1.6605
  163MOL0     H21970   5.663   9.872   3.210  1.4299 -0.9756 -5.0510
  163MOL0     H21971   5.795   9.975   3.398 -0.6648 -0.3002 -0.5100
  163MOL0     H21972   5.878   9.978   3.242 -0.7843 -2.4477  0.4010
  163MOL0     H21973   5.777  10.208   3.207 -0.3579 -1.4354 -0.5431
  163MOL0     H21974   5.701  10.197   3.363  1.1835  0.9283  1.4067
  163MOL0     H21975   6.011  10.180   3.312 -1.8900 -4.6108 -0.8455
  163MOL0     H21976   5.940  10.204   3.468 -1.9840  1.0690  0.0460
  163MOL0     H21977   5.832  10.408   3.418  0.7581 -0.3290 -0.3348
  163MOL0     H21978   5.919  10.428   3.262 -1.9715 -1.0088 -0.9566
  163MOL0     H21979   6.029  10.552   3.437  0.1721 -0.6165  1.9626
  163MOL0     H21980   6.015  10.412   3.544  0.1681 -0.5448  0.5996
  163MOL0     H21981   6.184  10.289   3.434 -0.4373 -0.1959  1.7839
  163MOL0     H21982   6.239  10.447   3.485 -0.5300  2.1648 -1.2263
  163MOL0     H21983   6.289  10.358   3.235  1.3090  1.6634 -0.7584
  163MOL0     H21984   6.118  10.383   3.202 -0.2439  0.8196 -0.4016
  163MOL0     H21985   5.723  10.001   2.837  0.4616 -0.3070 -0.2832
  163MOL0     H21986   5.557   9.990   2.659  1.0924 -1.9797  0.7132
  163MOL0     H21987   5.223  10.025   2.428 -0.5056  0.8189 -1.0797
  163MOL0     H21988   5.100   9.975   2.240  1.5425 -2.0482 -0.2757
  163MOL0     H21989   3.417  10.955   1.430 -2.1076  1.0462  1.6764
  163MOL0     H21990   3.189  10.948   1.410  1.3790  0.9656  1.0169
  163MOL0     H21991   2.885  10.859   1.316  1.3189 -0.5704  1.7431
  163MOL0     H21992   2.658  10.942   1.295 -0.6878  0.2420  0.0827
  163MOL0     H21993   2.457  10.792   1.191 -0.2278 -1.5700  0.8033
  163MOL0     H21994   2.394  10.942   1.230  0.6062 -0.8081 -0.5903
  163MOL0     H21995   2.286  10.661   1.285  0.0760 -1.3600 -3.0803
  163MOL0     H21996   2.208  10.769   1.164 -1.8731 -1.3373  1.0364
  163MOL0     H21997   2.158  10.913   1.380 -3.3009  0.0802 -2.1898
  163MOL0     H21998   2.208  10.766   1.474 -0.0041  2.6083  0.8644
  163MOL0     H21999   1.986  10.753   1.258  0.9093 -2.7142 -0.8917
  163MOL0     H22000   2.038  10.632   1.363 -2.3986 -0.2027 -2.3354
  163MOL0     H22001   1.775  10.904   1.570  0.3271  0.3609  0.8105
  163MOL0     H22002   2.499  10.614   1.506  0.0882  0.7613 -0.5321
  163MOL0     H22003   2.821  10.492   1.608  0.2254  0.9368 -0.5454
  163MOL0     H22004   2.654  10.495   1.632 -1.0768 -2.6099 -0.7661
  163MOL0     H22005   2.724  10.405   1.490 -3.7679 -0.1170  1.0995
  164MOL0     O22006  10.476   6.872   3.386 -0.3047 -0.6001 -0.6088
  164MOL0     C22007  10.558   6.872   3.298  0.3853 -0.5603  0.5476
  164MOL0     O22008  10.530   6.852   3.174  0.8280  0.4529  0.3638
  164MOL0     C22009  10.414   6.798   3.125  0.8193  0.0430 -0.4520
  164MOL0     C22010  10.368   6.825   3.001 -0.2227  0.1530 -0.6500
  164MOL0     C22011  10.245   6.773   2.946  0.1588 -0.1586  0.2784
  164MOL0     C22012  10.170   6.681   3.023 -0.1627  0.9239 -0.4496
  164MOL0     O22013  10.049   6.631   2.988  0.1201 -0.2408 -0.2209
  164MOL0     C22014  10.037   6.537   2.878 -0.5973  0.1579  0.5258
  164MOL0     C22015   9.884   6.526   2.855 -0.2478 -0.0154  0.3137
  164MOL0     C22016   9.846   6.414   2.762  0.5774  0.1309  0.8638
  164MOL0     C22017   9.712   6.351   2.771  0.4380 -0.3190  0.6298
  164MOL0     C22018   9.688   6.230   2.679 -0.4197 -0.2472  0.4417
  164MOL0     C22019   9.770   6.107   2.708  0.4119  0.6213 -0.3684
  164MOL0     C22020   9.729   6.020   2.824  0.3826 -0.4852 -0.5198
  164MOL0     C22021   9.824   5.895   2.835  0.2302 -0.5109  0.4534
  164MOL0     N22022   9.798   5.806   2.949  1.1051 -0.4232 -0.8441
  164MOL0     C22023   9.683   5.740   2.966  0.7843 -0.5286 -0.2002
  164MOL0     C22024   9.681   5.703   3.099 -0.3064 -1.8589 -0.6932
  164MOL0     C22025   9.574   5.630   3.163 -0.1251 -0.8919  0.2519
  164MOL0     C22026   9.459   5.715   3.206 -0.0266 -0.1732 -0.1239
  164MOL0     C22027   9.367   5.763   3.089  0.5842 -0.4833 -0.5649
  164MOL0     C22028   9.245   5.855   3.125 -0.6487  0.5583  0.0588
  164MOL0     O22029   9.154   5.807   3.220  0.0201  0.0032 -0.0949
  164MOL0     C22030   9.042   5.757   3.158  0.7407  0.1575 -0.0252
  164MOL0     C22031   8.926   5.838   3.147 -0.1420  0.0423 -0.4854
  164MOL0     C22032   8.813   5.804   3.072  0.0859  0.0829 -0.5106
  164MOL0     C22033   8.805   5.673   3.026  0.4532  0.5917 -0.1515
  164MOL0     C22034   8.677   5.617   2.965  0.3468 -0.2710 -0.1250
  164MOL0     O22035   8.678   5.490   2.899 -0.2822 -0.4022  0.4678
  164MOL0     C22036   8.554   5.453   2.860 -0.0849  0.5554 -0.2357
  164MOL0     C22037   8.467   5.414   2.960  0.0597 -0.8186 -0.7419
  164MOL0     C22038   8.342   5.362   2.926 -0.8073  0.6683 -0.0496
  164MOL0     C22039   8.313   5.362   2.794  0.0230  0.7475  0.4291
  164MOL0     O22040   8.197   5.302   2.751  0.0794 -0.5170  0.0308
  164MOL0     C22041   8.114   5.211   2.837  0.9915 -0.1048 -0.7083
  164MOL0     C22042   7.980   5.178   2.766  0.4171  0.2859  0.1606
  164MOL0     C22043   7.996   5.113   2.633  0.1036 -0.6241  0.0096
  164MOL0     C22044   7.860   5.099   2.571  0.1314 -0.4204 -0.6970
  164MOL0     C22045   7.859   5.050   2.428 -0.6379 -0.5234 -0.1049
  164MOL0     C22046   7.719   5.004   2.389  0.2815  0.0563  0.5587
  164MOL0     C22047   7.618   5.107   2.414  0.6722  0.5877 -0.0250
  164MOL0     C22048   7.491   5.073   2.335  0.9743  0.0905  0.2138
  164MOL0    Cl22049   7.398   4.959   2.432 -0.1020  0.0839 -0.5240
  164MOL0     C22050   8.396   5.406   2.690  0.6767 -0.7841  0.4128
  164MOL0     C22051   8.517   5.447   2.727  0.1251 -0.3499  0.0360
  164MOL0     O22052   8.576   5.685   2.979  0.1192 -0.2453 -0.6354
  164MOL0     C22053   8.918   5.588   3.041  0.6357 -0.3048  0.2958
  164MOL0     C22054   9.039   5.626   3.106  0.2806  0.0435  0.4169
  164MOL0     N22055   9.799   5.752   3.160 -0.3991  0.4049  0.2407
  164MOL0     N22056   9.869   5.816   3.069 -0.2170  0.1000 -0.2589
  164MOL0     C22057  10.220   6.646   3.155  0.2945  0.0295  0.3584
  164MOL0     C22058  10.341   6.701   3.203  0.5300 -0.6067 -0.3700
  164MOL0     C22059  10.699   6.902   3.324 -0.9383 -0.9912  0.0235
  164MOL0     C22060  10.787   6.845   3.230 -0.1791 -0.5701  0.5140
  164MOL0     C22061  10.926   6.874   3.235  1.0209 -0.1920 -0.9501
  164MOL0     C22062  10.974   6.945   3.345 -0.4167 -0.1344 -0.2748
  164MOL0     O22063  11.110   6.966   3.367  0.3120  0.5643  0.7430
  164MOL0     C22064  11.205   6.959   3.261 -0.3692 -0.4306  0.6032
  164MOL0     C22065  11.315   7.053   3.301  0.0768 -0.5278 -0.0975
  164MOL0     C22066  11.417   7.077   3.200 -0.2015 -0.5664  0.8347
  164MOL0     C22067  11.544   7.140   3.246 -0.1962 -0.2660  0.1305
  164MOL0     C22068  11.658   7.119   3.146  0.4169 -0.2405 -0.5006
  164MOL0     C22069  11.751   7.118   3.067  0.3176 -0.0187 -0.0987
  164MOL0     C22070  10.894   6.990   3.441  0.5656 -0.1686  0.5333
  164MOL0     C22071  10.752   6.980   3.427 -0.1594  0.3635  0.4748
  164MOL0     C22072  10.674   7.033   3.544  0.2557  0.1211  0.2110
  164MOL0     H22073  10.433   6.885   2.937  1.3673 -0.8265 -0.0362
  164MOL0     H22074  10.214   6.802   2.846  1.0640  0.7622  0.2500
  164MOL0     H22075  10.077   6.578   2.785 -1.0283  1.7969  1.0276
  164MOL0     H22076  10.067   6.433   2.895 -2.0702 -0.4279 -0.3093
  164MOL0     H22077   9.845   6.618   2.811 -0.0225  0.0849  0.3221
  164MOL0     H22078   9.841   6.502   2.953 -0.3876 -0.2871  0.1874
  164MOL0     H22079   9.916   6.330   2.762 -0.5032 -0.8402 -0.6624
  164MOL0     H22080   9.848   6.454   2.660 -1.5737  0.9549  1.0891
  164MOL0     H22081   9.687   6.335   2.877 -1.4982  1.4491  0.5056
  164MOL0     H22082   9.629   6.416   2.741  2.1636  1.3995 -0.5943
  164MOL0     H22083   9.584   6.196   2.687  0.5249 -3.5561  0.1211
  164MOL0     H22084   9.702   6.255   2.573 -1.9025 -0.0967  0.2601
  164MOL0     H22085   9.755   6.044   2.620 -0.1011  0.5427 -0.2310
  164MOL0     H22086   9.876   6.130   2.717  0.9453 -1.7153  0.0317
  164MOL0     H22087   9.623   5.991   2.828  0.1193  0.5642  2.0409
  164MOL0     H22088   9.752   6.084   2.909  0.7780 -2.2102  0.7479
  164MOL0     H22089   9.798   5.841   2.744  2.9669 -3.7750  1.4100
  164MOL0     H22090   9.921   5.943   2.821  0.2324 -1.0688 -1.8207
  164MOL0     H22091   9.602   5.727   2.895 -1.4875 -4.2465  2.7034
  164MOL0     H22092   9.532   5.560   3.089 -0.9116  0.4208 -0.5773
  164MOL0     H22093   9.604   5.578   3.255 -2.5503 -1.2258  0.9444
  164MOL0     H22094   9.405   5.649   3.274  0.2831 -1.2831 -0.9268
  164MOL0     H22095   9.494   5.805   3.258 -2.3404  0.9698 -0.4608
  164MOL0     H22096   9.318   5.675   3.046 -0.3550 -0.5340  0.5542
  164MOL0     H22097   9.433   5.807   3.014  1.8070 -2.1949 -0.5596
  164MOL0     H22098   9.192   5.887   3.035 -1.0271 -0.8172 -0.2296
  164MOL0     H22099   9.301   5.936   3.173  3.1329 -2.1513  0.7714
  164MOL0     H22100   8.933   5.934   3.196  0.5812 -0.6539  0.8264
  164MOL0     H22101   8.736   5.879   3.057  0.0110 -0.1651 -1.4231
  164MOL0     H22102   8.490   5.426   3.065  2.3688 -0.6011 -1.2266
  164MOL0     H22103   8.272   5.340   3.006 -2.0105  1.8973 -0.7147
  164MOL0     H22104   8.166   5.116   2.847  2.6667  0.6090 -2.0043
  164MOL0     H22105   8.079   5.258   2.929 -1.4666 -2.4094 -0.3550
  164MOL0     H22106   7.921   5.115   2.833  2.4026 -1.6648  0.1760
  164MOL0     H22107   7.937   5.277   2.754  2.1174  1.0532  0.0602
  164MOL0     H22108   8.055   5.182   2.573  1.1592 -0.6183  1.0081
  164MOL0     H22109   8.058   5.023   2.641  0.9788  0.0606  1.4326
  164MOL0     H22110   7.810   5.196   2.582  2.1633  0.6305 -0.0723
  164MOL0     H22111   7.808   5.032   2.640  1.9753  1.8651  3.3222
  164MOL0     H22112   7.924   4.964   2.411  0.7478  0.2400  1.1511
  164MOL0     H22113   7.883   5.136   2.365 -1.7381 -0.7942 -0.9236
  164MOL0     H22114   7.709   4.973   2.285  0.5269  1.5035  0.0845
  164MOL0     H22115   7.689   4.921   2.454 -1.9328 -0.7620 -1.3487
  164MOL0     H22116   7.648   5.205   2.375 -1.3378  1.7448  1.1777
  164MOL0     H22117   7.595   5.126   2.519 -0.1529 -0.3837 -0.0109
  164MOL0     H22118   7.432   5.165   2.324  0.2725 -0.6250 -2.9391
  164MOL0     H22119   7.500   5.039   2.232 -0.7795  1.0169 -0.2961
  164MOL0     H22120   8.369   5.409   2.585  2.4060 -1.7171 -0.1026
  164MOL0     H22121   8.592   5.486   2.659  2.8869 -2.3065  1.7727
  164MOL0     H22122   8.900   5.488   3.003 -1.4571  0.3853 -0.6737
  164MOL0     H22123   9.120   5.555   3.118  0.7048  0.6758  1.4099
  164MOL0     H22124  10.161   6.575   3.213 -0.0383  1.1413  1.4150
  164MOL0     H22125  10.378   6.665   3.299  0.7956 -0.3174 -0.3637
  164MOL0     H22126  10.746   6.811   3.136  1.8387 -1.1135 -0.2143
  164MOL0     H22127  10.983   6.831   3.153  2.5391 -1.1687  0.5627
  164MOL0     H22128  11.152   6.998   3.174 -3.6831 -1.9588  1.7909
  164MOL0     H22129  11.240   6.856   3.250  0.6398 -0.1724  1.2487
  164MOL0     H22130  11.359   7.010   3.392  1.6785  0.0910 -0.5340
  164MOL0     H22131  11.264   7.144   3.334 -0.4914 -1.5489  1.9860
  164MOL0     H22132  11.378   7.136   3.116 -1.7458 -0.3146  1.6941
  164MOL0     H22133  11.439   6.976   3.164 -0.6163  0.1442 -1.6000
  164MOL0     H22134  11.536   7.249   3.257 -1.9689 -0.4288  0.7666
  164MOL0     H22135  11.580   7.087   3.334  1.4558  2.8528  1.5221
  164MOL0     H22136  11.826   7.117   2.990 -0.6552  2.0997 -1.1542
  164MOL0     H22137  10.945   7.014   3.533  0.1831 -1.9563  1.2571
  164MOL0     H22138  10.748   7.059   3.621 -0.1467 -2.4344  1.5770
  164MOL0     H22139  10.605   7.115   3.519 -0.8674 -0.9323 -0.2438
  164MOL0     H22140  10.616   6.953   3.590 -0.4923  1.5673  1.9379
  165MOL0     O22141   2.464   1.708   2.878 -0.4755 -0.2508  0.4628
  165MOL0     C22142   2.532   1.710   2.775 -0.6346 -0.0322 -0.4630
  165MOL0     O22143   2.665   1.687   2.768  0.2366  0.0631  0.2933
  165MOL0     C22144   2.722   1.601   2.851 -0.3422 -0.5028 -0.5018
  165MOL0     C22145   2.667   1.480   2.895 -0.0412  0.6738 -0.1596
  165MOL0     C22146   2.747   1.383   2.959  0.3119  0.4044  0.0846
  165MOL0     C22147   2.878   1.405   2.997  1.0093 -0.7427  0.3429
  165MOL0     O22148   2.968   1.330   3.070 -1.0459  0.2212 -0.2547
  165MOL0     C22149   2.922   1.190   3.093  0.3999 -0.4144  1.1485
  165MOL0     C22150   3.015   1.104   3.174 -0.5847  0.6902  0.1338
  165MOL0     C22151   3.157   1.084   3.115  0.1625  0.1422 -0.7112
  165MOL0     C22152   3.221   0.979   3.201 -0.0508  0.5410 -0.3911
  165MOL0     C22153   3.366   0.929   3.172 -0.0774  0.9125  0.4865
  165MOL0     C22154   3.383   0.840   3.047 -0.0518  0.0273  0.3847
  165MOL0     C22155   3.341   0.697   3.059  0.4940  0.0088 -0.1206
  165MOL0     C22156   3.429   0.598   3.141  0.3257 -0.0603 -0.8499
  165MOL0     N22157   3.568   0.611   3.105  0.1561 -0.8344 -0.9049
  165MOL0     C22158   3.641   0.537   3.012  0.4102  0.0494  0.0761
  165MOL0     C22159   3.765   0.547   3.050 -0.3975 -0.1020  0.1656
  165MOL0     C22160   3.874   0.459   2.992 -0.5379  0.6433 -0.1863
  165MOL0     C22161   3.959   0.378   3.087  0.6594  0.5838  0.0976
  165MOL0     C22162   4.055   0.289   3.009 -0.3220  0.5443 -0.5587
  165MOL0     C22163   4.197   0.295   3.071 -0.2158 -0.2267 -0.1625
  165MOL0     O22164   4.239   0.439   3.076 -0.0825 -0.1260 -0.8655
  165MOL0     C22165   4.378   0.461   3.057  0.1234  0.9546 -0.7526
  165MOL0     C22166   4.423   0.560   2.974  0.4675  0.8971  0.6757
  165MOL0     C22167   4.559   0.581   2.950  0.1622  0.7152 -0.7135
  165MOL0     C22168   4.661   0.495   3.011  0.4563  0.2848 -0.7804
  165MOL0     C22169   4.803   0.525   3.009  0.1878  0.5187 -0.1603
  165MOL0     O22170   4.880   0.422   3.054 -0.4003 -0.0373 -0.4374
  165MOL0     C22171   5.015   0.423   3.035 -0.4065  0.0012 -0.2370
  165MOL0     C22172   5.069   0.435   2.905 -0.3259 -0.3353  0.1900
  165MOL0     C22173   5.210   0.416   2.884 -0.4328 -0.2338 -0.2475
  165MOL0     C22174   5.298   0.407   2.994  0.0889 -0.1732  0.2518
  165MOL0     O22175   5.437   0.405   2.965 -0.0853 -0.4006  0.3396
  165MOL0     C22176   5.516   0.360   3.074 -0.3046  0.3335 -0.8990
  165MOL0     C22177   5.665   0.356   3.029  0.3952  0.7369  0.2076
  165MOL0     C22178   5.746   0.264   3.111 -0.4037 -0.1452 -0.6158
  165MOL0     C22179   5.794   0.331   3.242  0.3742 -0.3125 -0.1431
  165MOL0     C22180   5.937   0.278   3.275 -0.0903  0.1292 -0.7328
  165MOL0     C22181   6.054   0.353   3.205 -0.0101 -0.2579 -0.2411
  165MOL0     C22182   6.187   0.342   3.272 -0.2411 -0.0203 -0.5693
  165MOL0     C22183   6.244   0.199   3.277 -0.1978  1.5397 -0.4907
  165MOL0    Cl22184   6.389   0.169   3.375  0.1325  0.2734 -0.3580
  165MOL0     C22185   5.244   0.402   3.126 -0.1697 -0.8795 -0.3013
  165MOL0     C22186   5.103   0.402   3.139 -0.2003 -0.5059  0.1927
  165MOL0     O22187   4.843   0.636   2.976  0.4765 -0.5229  0.0363
  165MOL0     C22188   4.605   0.390   3.087  0.1192  0.5272 -0.2683
  165MOL0     C22189   4.473   0.375   3.116  0.8170 -0.3004 -0.5442
  165MOL0     N22190   3.768   0.618   3.178 -0.6653 -0.4647 -0.6502
  165MOL0     N22191   3.648   0.656   3.205  0.6473  0.0754 -0.3480
  165MOL0     C22192   2.935   1.533   2.958 -1.2236  0.7784  0.4260
  165MOL0     C22193   2.863   1.623   2.875  0.2640 -0.5438 -0.6154
  165MOL0     C22194   2.450   1.751   2.653 -0.6429  0.0382 -0.2039
  165MOL0     C22195   2.521   1.799   2.537  0.3528  1.1541 -0.3501
  165MOL0     C22196   2.454   1.839   2.425  0.9387  0.5003  0.3808
  165MOL0     C22197   2.312   1.843   2.424  0.2495 -0.4023  0.4558
  165MOL0     O22198   2.228   1.904   2.327  0.1125 -0.1487  0.0641
  165MOL0     C22199   2.291   1.991   2.224 -0.2539  0.6168 -0.1060
  165MOL0     C22200   2.190   2.090   2.175  0.7105  0.0464  0.8300
  165MOL0     C22201   2.050   2.034   2.162 -0.4934  0.3158 -0.0915
  165MOL0     C22202   1.950   2.074   2.271  0.0032  0.0844  0.9922
  165MOL0     C22203   1.922   2.220   2.272  0.0893  0.2767  0.0595
  165MOL0     C22204   1.901   2.335   2.297  0.5706  0.4754  0.4022
  165MOL0     C22205   2.238   1.805   2.535 -0.2371  0.5361 -1.0916
  165MOL0     C22206   2.308   1.752   2.651  0.1919 -0.9651 -0.8563
  165MOL0     C22207   2.210   1.676   2.750  0.1730 -0.3098 -0.6545
  165MOL0     H22208   2.568   1.449   2.863 -1.3066  4.0778  0.0493
  165MOL0     H22209   2.681   1.298   2.975  0.2793 -0.4871 -3.6987
  165MOL0     H22210   2.829   1.187   3.150  0.2467 -0.3507  0.8984
  165MOL0     H22211   2.895   1.138   3.001  0.9141 -0.2100  0.8742
  165MOL0     H22212   2.965   1.008   3.190  0.2898  0.1820 -0.1055
  165MOL0     H22213   3.026   1.161   3.267 -0.5930  0.0590  0.5267
  165MOL0     H22214   3.202   1.183   3.129  1.0325 -0.5446  2.0577
  165MOL0     H22215   3.160   1.054   3.010  0.9668  2.0658 -1.2837
  165MOL0     H22216   3.241   1.015   3.302  1.0863 -0.4191 -0.2478
  165MOL0     H22217   3.157   0.891   3.202 -2.2347  2.0456  0.9499
  165MOL0     H22218   3.432   1.016   3.165  1.6190 -0.3077  0.8554
  165MOL0     H22219   3.405   0.871   3.255  1.1988  1.7743  0.5138
  165MOL0     H22220   3.318   0.884   2.971 -1.2955 -1.6471  0.4199
  165MOL0     H22221   3.488   0.851   3.018 -0.3759  0.3201 -0.7320
  165MOL0     H22222   3.336   0.655   2.958 -0.8857 -0.4025  0.1002
  165MOL0     H22223   3.238   0.687   3.095  0.1881  2.5936 -0.1304
  165MOL0     H22224   3.419   0.621   3.247 -1.2431  1.0976 -1.2123
  165MOL0     H22225   3.394   0.494   3.140 -1.0863  0.3434  1.3909
  165MOL0     H22226   3.590   0.479   2.936 -1.0622  0.1071  0.9827
  165MOL0     H22227   3.817   0.391   2.929 -1.4242  2.6776 -1.6996
  165MOL0     H22228   3.936   0.529   2.935  0.5984  0.0634  0.2908
  165MOL0     H22229   4.017   0.434   3.160  1.8630  0.8663 -1.0412
  165MOL0     H22230   3.895   0.311   3.145  0.1241  1.6173  0.7226
  165MOL0     H22231   4.048   0.328   2.907 -1.5580 -0.8604 -1.0371
  165MOL0     H22232   4.024   0.184   3.012  0.9931  0.0993  2.9166
  165MOL0     H22233   4.252   0.222   3.011  0.4623 -0.9043  1.2356
  165MOL0     H22234   4.194   0.249   3.170 -0.8042 -1.0605 -0.5573
  165MOL0     H22235   4.358   0.629   2.920  3.2998  4.3782  1.3232
  165MOL0     H22236   4.606   0.659   2.891  1.2152  1.9837  1.6792
  165MOL0     H22237   5.016   0.457   2.813  3.3104 -1.1564 -2.3057
  165MOL0     H22238   5.247   0.453   2.790  0.0605  2.6909  0.9774
  165MOL0     H22239   5.508   0.428   3.160 -2.0947  0.6212 -1.2571
  165MOL0     H22240   5.488   0.266   3.121  1.2741  1.2615  2.1630
  165MOL0     H22241   5.670   0.309   2.930  0.9215  0.3088  0.4349
  165MOL0     H22242   5.721   0.450   3.026  1.8215 -0.0432  1.1983
  165MOL0     H22243   5.691   0.170   3.126  2.4670 -1.7240  0.8770
  165MOL0     H22244   5.839   0.239   3.059 -0.1470  0.7628 -0.6056
  165MOL0     H22245   5.721   0.304   3.319 -0.9354 -0.4588 -1.3871
  165MOL0     H22246   5.813   0.438   3.228 -0.1102 -0.4786 -2.3979
  165MOL0     H22247   5.937   0.173   3.245 -4.5288 -0.5003  0.7166
  165MOL0     H22248   5.952   0.281   3.384 -2.2376 -2.9945 -0.2318
  165MOL0     H22249   6.066   0.325   3.101 -0.5959 -1.8773  0.1038
  165MOL0     H22250   6.032   0.460   3.214 -0.1846 -0.4720  3.5411
  165MOL0     H22251   6.168   0.370   3.376  2.8084 -0.5338  0.2296
  165MOL0     H22252   6.256   0.416   3.229  3.0119 -1.8181  1.1053
  165MOL0     H22253   6.160   0.132   3.299  1.1079 -1.6190 -4.0279
  165MOL0     H22254   6.278   0.171   3.177 -0.8259  0.9840 -0.5553
  165MOL0     H22255   5.300   0.376   3.215  0.0305 -2.5495 -0.8856
  165MOL0     H22256   5.062   0.385   3.238 -1.8978  1.0377 -0.2025
  165MOL0     H22257   4.670   0.321   3.139  0.2052  1.7297  1.3266
  165MOL0     H22258   4.452   0.289   3.179  1.4386  2.4259  3.7801
  165MOL0     H22259   3.038   1.538   2.994 -1.3353 -4.7018  2.3880
  165MOL0     H22260   2.911   1.718   2.856  1.1788 -1.1662 -1.4950
  165MOL0     H22261   2.626   1.826   2.540  0.4762  0.6292  0.4222
  165MOL0     H22262   2.503   1.868   2.333 -1.9443 -1.9011 -2.1191
  165MOL0     H22263   2.327   1.926   2.144  1.4449 -1.3703  2.1281
  165MOL0     H22264   2.378   2.049   2.255 -0.8994  2.2909 -1.2490
  165MOL0     H22265   2.224   2.137   2.082 -4.1463 -0.9229 -1.7730
  165MOL0     H22266   2.184   2.179   2.238 -0.0542  1.9791 -1.8149
  165MOL0     H22267   2.060   1.926   2.150 -0.4098  0.1864  1.0283
  165MOL0     H22268   2.012   2.072   2.067 -0.8817 -1.9565 -0.9034
  165MOL0     H22269   1.857   2.019   2.256  0.3742 -0.8492  2.0016
  165MOL0     H22270   1.994   2.044   2.366  0.7719 -0.1163  0.5764
  165MOL0     H22271   1.913   2.438   2.322  3.3685  0.8001 -1.7877
  165MOL0     H22272   2.130   1.816   2.529 -0.3284 -0.2656 -0.9998
  165MOL0     H22273   2.218   1.728   2.846 -0.8612 -4.9210  2.2251
  165MOL0     H22274   2.107   1.678   2.713 -0.5246 -3.5334  0.7900
  165MOL0     H22275   2.251   1.575   2.753  3.6681  0.9775  2.9877
  166MOL0     O22276   2.903   5.117   2.905  0.1856 -0.0467  1.2943
  166MOL0     C22277   2.896   5.032   2.990  0.0383 -0.1207  0.4460
  166MOL0     O22278   3.000   4.991   3.070  0.3104  0.5164 -0.7630
  166MOL0     C22279   3.125   5.035   3.017  0.6473 -0.2890 -0.7804
  166MOL0     C22280   3.178   5.161   3.054  0.0928 -0.0545  0.8670
  166MOL0     C22281   3.303   5.196   2.996 -0.4629 -0.2825 -0.1104
  166MOL0     C22282   3.380   5.116   2.916 -0.1132  0.7188 -0.1242
  166MOL0     O22283   3.507   5.148   2.873 -0.1187  0.0437  0.3908
  166MOL0     C22284   3.540   5.284   2.849  0.1771  0.3154 -0.4285
  166MOL0     C22285   3.671   5.291   2.766  0.5591  0.6719  0.5827
  166MOL0     C22286   3.798   5.229   2.834 -0.5796 -0.2309  0.7116
  166MOL0     C22287   3.845   5.289   2.969  0.2253 -0.2580  0.3973
  166MOL0     C22288   3.990   5.254   2.994  0.6114  0.2433  0.0070
  166MOL0     C22289   4.042   5.336   3.108  0.4854 -0.0817  0.3049
  166MOL0     C22290   4.175   5.286   3.158  0.2004 -0.2049 -0.6390
  166MOL0     C22291   4.293   5.286   3.059  0.4867 -0.1293  0.4527
  166MOL0     N22292   4.415   5.240   3.124 -0.2895  0.1838 -0.0572
  166MOL0     C22293   4.523   5.311   3.170 -0.2617  0.1248  0.5065
  166MOL0     C22294   4.605   5.226   3.235  0.6473 -0.7025  0.1577
  166MOL0     C22295   4.744   5.261   3.296 -0.5669  1.8753  0.2180
  166MOL0     C22296   4.791   5.146   3.391  0.1429 -0.3954 -0.3936
  166MOL0     C22297   4.851   5.022   3.316 -0.1643 -0.5417  0.3081
  166MOL0     C22298   4.977   4.959   3.385 -0.0472  0.4826  0.7321
  166MOL0     O22299   5.074   5.059   3.396 -0.1992 -0.8420  0.2572
  166MOL0     C22300   5.207   5.031   3.435  0.1080  0.2181  0.5672
  166MOL0     C22301   5.247   4.928   3.523 -0.1065  0.0810 -0.2134
  166MOL0     C22302   5.387   4.904   3.531  0.1750 -0.2250  0.3497
  166MOL0     C22303   5.486   4.985   3.458  0.6765 -0.3507 -0.1590
  166MOL0     C22304   5.628   4.967   3.486 -0.3664  0.5401 -0.1874
  166MOL0     O22305   5.702   5.083   3.484  0.4582 -0.0232 -0.0821
  166MOL0     C22306   5.842   5.081   3.484 -0.4402 -0.8460 -0.4311
  166MOL0     C22307   5.899   5.204   3.509 -0.1085  0.3852 -0.5154
  166MOL0     C22308   6.035   5.213   3.533  1.4443 -0.2090  0.1120
  166MOL0     C22309   6.117   5.103   3.516  0.5024 -0.0588  0.4724
  166MOL0     O22310   6.248   5.120   3.535 -0.1942  0.2988 -0.5704
  166MOL0     C22311   6.315   5.207   3.446  0.0414 -0.1308 -0.3251
  166MOL0     C22312   6.461   5.241   3.495 -0.1333 -0.4835  0.2683
  166MOL0     C22313   6.530   5.355   3.409 -0.3521  0.0182 -0.9270
  166MOL0     C22314   6.682   5.342   3.427 -0.3927  0.4560  0.5113
  166MOL0     C22315   6.737   5.390   3.569  0.9762  0.7535  1.3038
  166MOL0     C22316   6.889   5.354   3.581 -0.5450 -0.8017  0.0003
  166MOL0     C22317   6.939   5.361   3.731 -0.9616 -0.0864 -0.2889
  166MOL0     C22318   7.088   5.329   3.737 -0.5891 -0.4235 -0.0949
  166MOL0    Cl22319   7.124   5.328   3.913  0.0712 -0.3545 -0.0575
  166MOL0     C22320   6.065   4.981   3.492 -0.7346 -0.2595  0.6892
  166MOL0     C22321   5.928   4.969   3.470  0.1032  0.1122 -0.9677
  166MOL0     O22322   5.665   4.859   3.534 -0.2054  0.2405  0.8513
  166MOL0     C22323   5.443   5.088   3.384  0.1692  0.0561  0.0475
  166MOL0     C22324   5.308   5.101   3.363  1.2069 -0.5283 -0.2130
  166MOL0     N22325   4.546   5.100   3.223 -0.9965 -0.0374 -0.7798
  166MOL0     N22326   4.433   5.113   3.169  0.1100  0.7024 -0.2415
  166MOL0     C22327   3.327   4.988   2.896 -0.1259 -0.5404 -0.4711
  166MOL0     C22328   3.199   4.949   2.942  0.5275 -0.3496  0.3361
  166MOL0     C22329   2.759   4.986   3.023  0.6345 -1.0925  0.4178
  166MOL0     C22330   2.745   4.925   3.146 -0.0044 -0.1239  0.1561
  166MOL0     C22331   2.615   4.906   3.199 -0.4508 -0.3311  0.4051
  166MOL0     C22332   2.496   4.954   3.133 -0.1494 -0.9079 -0.9919
  166MOL0     O22333   2.377   4.958   3.199 -0.3681 -0.2032  0.3750
  166MOL0     C22334   2.376   4.967   3.341  0.3482  0.1619  0.1913
  166MOL0     C22335   2.237   5.031   3.375  0.1091  0.0106  0.6163
  166MOL0     C22336   2.119   4.937   3.353  0.3590 -0.8723  0.0125
  166MOL0     C22337   2.109   4.823   3.458 -0.1263  0.4796  0.0184
  166MOL0     C22338   2.093   4.868   3.598 -0.3385 -0.2302  1.0830
  166MOL0     C22339   2.063   4.899   3.707  0.8553  0.4657  0.1998
  166MOL0     C22340   2.507   4.997   3.006 -0.3589  0.1238 -0.0538
  166MOL0     C22341   2.638   5.006   2.951  0.2370 -0.9699  0.9374
  166MOL0     C22342   2.644   5.062   2.807 -0.6288  0.2661  0.9230
  166MOL0     H22343   3.121   5.234   3.111 -3.2930 -0.3797 -1.8319
  166MOL0     H22344   3.317   5.300   3.022  1.2325  0.8454 -4.7063
  166MOL0     H22345   3.457   5.329   2.793  0.3882  0.9547 -0.2373
  166MOL0     H22346   3.554   5.341   2.941  0.7476 -3.8126  2.3097
  166MOL0     H22347   3.691   5.397   2.745  1.9356  0.2345 -0.4807
  166MOL0     H22348   3.659   5.251   2.664  2.2249 -1.9819  1.3291
  166MOL0     H22349   3.880   5.246   2.763  0.9851 -1.2311  2.1946
  166MOL0     H22350   3.785   5.122   2.852  0.0520 -0.3343  0.5847
  166MOL0     H22351   3.837   5.396   2.950  3.0329 -0.0620 -0.1756
  166MOL0     H22352   3.775   5.257   3.047 -0.6520  0.0255 -0.2575
  166MOL0     H22353   4.013   5.149   3.012 -0.7726 -0.0191  0.3769
  166MOL0     H22354   4.052   5.279   2.908  3.1129  1.8444  2.1089
  166MOL0     H22355   4.039   5.440   3.075 -0.5709  0.1730  1.1526
  166MOL0     H22356   3.973   5.321   3.192 -0.4120 -0.8145 -0.5336
  166MOL0     H22357   4.164   5.184   3.197 -0.4724 -0.4992 -1.5845
  166MOL0     H22358   4.212   5.349   3.240  1.7531 -1.2593 -0.4674
  166MOL0     H22359   4.270   5.222   2.974 -0.6984 -0.4838  1.0189
  166MOL0     H22360   4.315   5.384   3.017  1.4371 -0.8367 -0.7419
  166MOL0     H22361   4.549   5.414   3.151  0.7839 -0.7022 -3.4658
  166MOL0     H22362   4.816   5.268   3.215 -0.2820 -1.1547  0.0805
  166MOL0     H22363   4.727   5.352   3.354  0.1126  0.5409  2.6764
  166MOL0     H22364   4.874   5.194   3.444 -0.8871  0.9823  0.0349
  166MOL0     H22365   4.709   5.115   3.456  0.2063  0.1039 -0.0732
  166MOL0     H22366   4.886   5.043   3.214  1.1486 -0.5950  0.7369
  166MOL0     H22367   4.767   4.952   3.322  0.7151 -1.6067  0.4478
  166MOL0     H22368   5.015   4.878   3.321 -1.0657  0.4776  0.0995
  166MOL0     H22369   4.944   4.920   3.481  2.5110 -0.0535  1.4647
  166MOL0     H22370   5.169   4.877   3.579 -0.1699  1.5738  1.1338
  166MOL0     H22371   5.430   4.823   3.589  3.0297 -1.4379 -3.0651
  166MOL0     H22372   5.829   5.286   3.501 -0.0750  0.3768 -0.9045
  166MOL0     H22373   6.070   5.312   3.563 -0.3434  0.9044 -1.2244
  166MOL0     H22374   6.318   5.169   3.343 -1.6294  0.8374 -0.7836
  166MOL0     H22375   6.250   5.295   3.445 -0.4852 -0.5125 -0.0336
  166MOL0     H22376   6.466   5.261   3.602  0.9382 -2.9645  0.7522
  166MOL0     H22377   6.521   5.152   3.475  0.8810  0.3068 -0.2449
  166MOL0     H22378   6.498   5.338   3.306 -0.0392 -3.1135 -0.5814
  166MOL0     H22379   6.497   5.454   3.442 -1.6253 -0.5044 -0.5412
  166MOL0     H22380   6.737   5.405   3.357  1.5325 -2.3366 -0.6647
  166MOL0     H22381   6.700   5.236   3.403  1.2617  0.6374  0.8570
  166MOL0     H22382   6.676   5.347   3.648  1.0416 -0.5214  0.6768
  166MOL0     H22383   6.717   5.498   3.574 -1.9922  0.5990 -2.4192
  166MOL0     H22384   6.914   5.255   3.542  2.6996 -0.5478  1.1259
  166MOL0     H22385   6.928   5.427   3.510 -1.9755  0.7747  0.7708
  166MOL0     H22386   6.900   5.289   3.804  0.4957  0.2581  0.8919
  166MOL0     H22387   6.945   5.461   3.774  1.5037  0.3773 -1.5123
  166MOL0     H22388   7.107   5.231   3.692  1.5849 -0.3978  0.6765
  166MOL0     H22389   7.151   5.404   3.688 -0.5942 -3.1879 -5.0694
  166MOL0     H22390   6.135   4.898   3.493 -0.7880 -0.3720 -1.5131
  166MOL0     H22391   5.893   4.870   3.441  1.6128 -0.5874 -0.4898
  166MOL0     H22392   5.504   5.168   3.342  0.7916  0.4593  1.6489
  166MOL0     H22393   5.268   5.171   3.290 -1.7022 -0.7833  1.0206
  166MOL0     H22394   3.374   4.917   2.829  0.0987 -1.6609  0.8453
  166MOL0     H22395   3.153   4.853   2.917 -0.2916  0.1692 -0.1832
  166MOL0     H22396   2.831   4.896   3.206  1.4473  0.8116 -1.3724
  166MOL0     H22397   2.607   4.866   3.299 -0.7769  1.5043  1.1669
  166MOL0     H22398   2.463   5.029   3.365  1.4900  0.6641 -4.2653
  166MOL0     H22399   2.392   4.875   3.396 -1.8557 -0.4749 -0.1104
  166MOL0     H22400   2.228   5.119   3.311  3.5536 -1.2626 -1.8928
  166MOL0     H22401   2.242   5.079   3.473  3.2053  2.1693 -0.4580
  166MOL0     H22402   2.102   4.902   3.251 -0.7818 -0.3880  0.0272
  166MOL0     H22403   2.035   5.002   3.378  1.8739  0.7906  1.0563
  166MOL0     H22404   2.019   4.768   3.429 -1.7695  2.5308  0.9621
  166MOL0     H22405   2.195   4.757   3.446 -0.6677  0.0174 -1.5113
  166MOL0     H22406   2.036   4.911   3.810 -0.2000  1.6743 -0.1745
  166MOL0     H22407   2.419   5.025   2.950 -0.0220 -0.4917 -0.9080
  166MOL0     H22408   2.568   5.015   2.743  1.4814 -0.4471 -1.1873
  166MOL0     H22409   2.641   5.171   2.803  1.3633  0.3126 -1.3108
  166MOL0     H22410   2.733   5.035   2.750 -1.4721  2.5106 -1.7282
  167MOL0     O22411   0.309   5.350  10.261 -0.0324  0.7717 -0.5950
  167MOL0     C22412   0.227   5.385  10.345 -0.1146 -0.3351  0.9518
  167MOL0     O22413   0.248   5.445  10.464 -0.2040  0.4026 -0.4272
  167MOL0     C22414   0.378   5.475  10.500 -0.2346  0.1073 -0.5046
  167MOL0     C22415   0.492   5.393  10.469 -0.4287  0.0076 -0.6030
  167MOL0     C22416   0.612   5.427  10.536  0.3161  0.6800 -0.9514
  167MOL0     C22417   0.630   5.545  10.605 -0.0565 -0.4901  0.0393
  167MOL0     O22418   0.744   5.584  10.665  0.7963  0.3339 -0.1109
  167MOL0     C22419   0.848   5.490  10.692  0.2419  0.1986  0.1632
  167MOL0     C22420   0.955   5.561  10.772 -0.3937 -0.5190 -0.0540
  167MOL0     C22421   1.092   5.510  10.741 -0.3871 -0.5535  0.8056
  167MOL0     C22422   1.208   5.570  10.825  0.8015  0.4822  0.0405
  167MOL0     C22423   1.354   5.536  10.777  0.2988  0.4556 -0.6757
  167MOL0     C22424   1.454   5.582  10.888  0.9970 -0.0460  0.5340
  167MOL0     C22425   1.589   5.578  10.822  0.4513  0.2516  0.0306
  167MOL0     C22426   1.698   5.634  10.911  0.0245  0.0684 -0.6730
  167MOL0     N22427   1.713   5.573  11.044 -0.6461 -0.9160 -0.0641
  167MOL0     C22428   1.622   5.595  11.142 -0.8761  0.7449 -0.9140
  167MOL0     C22429   1.668   5.527  11.250  0.8861  0.0615 -0.6040
  167MOL0     C22430   1.604   5.519  11.386 -0.0295  0.1145 -0.3844
  167MOL0     C22431   1.592   5.370  11.432 -0.3082  0.0595  0.2172
  167MOL0     C22432   1.487   5.270  11.367  0.6338 -0.1374  0.6336
  167MOL0     C22433   1.546   5.197  11.247  0.0178  0.0615  0.6642
  167MOL0     O22434   1.466   5.090  11.198  0.2180 -0.3865 -0.1082
  167MOL0     C22435   1.356   5.106  11.121  0.7181 -1.0516 -0.4793
  167MOL0     C22436   1.315   5.216  11.053 -0.2997  0.2707 -0.1752
  167MOL0     C22437   1.201   5.207  10.970 -0.1678 -0.5488  0.0772
  167MOL0     C22438   1.126   5.091  10.951 -0.1214 -0.2591 -0.3788
  167MOL0     C22439   0.999   5.098  10.876 -0.4369  0.1067 -0.5874
  167MOL0     O22440   0.908   5.008  10.909 -0.0454 -0.0813 -0.5286
  167MOL0     C22441   0.788   5.007  10.842 -0.1796  0.1588 -0.1227
  167MOL0     C22442   0.707   5.115  10.852 -0.0462 -0.0149  0.2465
  167MOL0     C22443   0.579   5.115  10.805 -0.0645 -0.4795 -0.3788
  167MOL0     C22444   0.531   5.001  10.749  1.2552  0.0316 -1.2328
  167MOL0     O22445   0.394   5.009  10.714  0.4380  0.3000  1.0005
  167MOL0     C22446   0.366   4.934  10.590 -0.2454 -0.4189 -0.5714
  167MOL0     C22447   0.259   5.008  10.517  0.7705 -0.7284  0.5579
  167MOL0     C22448   0.120   5.041  10.576 -0.5447  0.3983  0.5780
  167MOL0     C22449   0.008   4.931  10.573  0.8800  0.5341  0.6161
  167MOL0     C22450  -0.107   4.984  10.660  0.0378 -0.7638  0.7870
  167MOL0     C22451  -0.199   4.870  10.713 -0.2946  0.3702  0.1231
  167MOL0     C22452  -0.149   4.795  10.836 -0.1563  0.3675 -0.1560
  167MOL0     C22453  -0.237   4.676  10.879  0.2176 -0.6535  0.2436
  167MOL0    Cl22454  -0.250   4.551  10.748  0.7393  0.5725  0.0956
  167MOL0     C22455   0.603   4.884  10.750  1.4210  0.3348  0.0086
  167MOL0     C22456   0.733   4.885  10.802 -0.5996  0.8822  0.5498
  167MOL0     O22457   0.987   5.184  10.795  0.2119 -0.9583 -0.0706
  167MOL0     C22458   1.166   4.968  11.014 -0.7989  0.4125 -0.3862
  167MOL0     C22459   1.285   4.989  11.094 -0.1643 -0.2808 -0.6493
  167MOL0     N22460   1.788   5.471  11.217 -0.7091 -0.2340 -0.6726
  167MOL0     N22461   1.810   5.496  11.095 -0.4588  0.5242 -0.8032
  167MOL0     C22462   0.515   5.624  10.634 -0.0599 -0.1886  0.0218
  167MOL0     C22463   0.388   5.591  10.583  1.0885 -0.0937  0.3534
  167MOL0     C22464   0.089   5.369  10.316  0.2040 -0.3649  0.4535
  167MOL0     C22465   0.049   5.252  10.253  0.1967 -0.5416 -0.2650
  167MOL0     C22466  -0.079   5.221  10.234  0.6024  0.3368  0.5294
  167MOL0     C22467  -0.184   5.291  10.293  0.2154  0.2953 -0.3542
  167MOL0     O22468  -0.314   5.246  10.284 -0.6773  1.0763 -0.7393
  167MOL0     C22469  -0.409   5.307  10.376 -0.0892 -0.8505 -0.6418
  167MOL0     C22470  -0.526   5.211  10.388  0.6758 -0.9567 -0.4082
  167MOL0     C22471  -0.495   5.108  10.499  0.2950 -0.1576 -0.8089
  167MOL0     C22472  -0.607   4.998  10.495 -0.2930 -0.2543  0.7474
  167MOL0     C22473  -0.576   4.868  10.564  0.1241 -0.1060  0.9588
  167MOL0     C22474  -0.542   4.765  10.613 -1.6404  0.1324  0.7827
  167MOL0     C22475  -0.146   5.417  10.350  0.6399 -0.6739 -0.1659
  167MOL0     C22476  -0.013   5.458  10.359 -0.5904  0.2313 -0.1920
  167MOL0     C22477   0.025   5.602  10.393  0.4060 -0.5843 -0.4262
  167MOL0     H22478   0.484   5.301  10.412 -0.5204 -0.3756  0.0140
  167MOL0     H22479   0.697   5.360  10.526  2.3391  3.1814 -1.5289
  167MOL0     H22480   0.804   5.408  10.749  2.6739 -0.8165  0.7013
  167MOL0     H22481   0.890   5.447  10.601 -0.6441 -1.8181  0.6678
  167MOL0     H22482   0.944   5.552  10.881  3.1751  0.9101  0.5400
  167MOL0     H22483   0.945   5.667  10.749 -1.1422 -0.3099  1.1508
  167MOL0     H22484   1.107   5.539  10.636 -1.7375  1.0965  1.0235
  167MOL0     H22485   1.088   5.401  10.751  1.3447 -0.8467 -1.0399
  167MOL0     H22486   1.207   5.678  10.839 -1.8240  0.4146  0.8678
  167MOL0     H22487   1.213   5.528  10.926  2.8183 -0.3597 -0.3645
  167MOL0     H22488   1.356   5.428  10.759 -0.1095  0.5039 -1.0418
  167MOL0     H22489   1.358   5.583  10.678  1.5561 -0.6692 -1.1773
  167MOL0     H22490   1.434   5.685  10.920  0.9946 -0.6247  2.5838
  167MOL0     H22491   1.443   5.508  10.969 -2.9101  0.3114  0.5241
  167MOL0     H22492   1.584   5.635  10.729 -1.9874 -2.2689 -1.5621
  167MOL0     H22493   1.626   5.477  10.799  2.1835  1.3833 -2.5001
  167MOL0     H22494   1.793   5.609  10.863  0.3872 -3.7143  1.6470
  167MOL0     H22495   1.686   5.743  10.908  2.2567  0.3360 -1.9188
  167MOL0     H22496   1.530   5.653  11.139 -0.9876  0.5175 -3.4107
  167MOL0     H22497   1.671   5.568  11.458 -0.1415 -1.0590  0.5446
  167MOL0     H22498   1.512   5.578  11.390  0.0907  0.4221 -1.6189
  167MOL0     H22499   1.694   5.330  11.434 -0.6851 -1.2736 -2.6078
  167MOL0     H22500   1.574   5.385  11.539  1.6713  1.3857  0.4114
  167MOL0     H22501   1.393   5.321  11.343  2.7513  3.4489 -0.8667
  167MOL0     H22502   1.467   5.199  11.448  0.6774  1.6463  2.2940
  167MOL0     H22503   1.641   5.152  11.279 -0.6082 -1.2396  0.7514
  167MOL0     H22504   1.567   5.274  11.172  1.1860 -2.9002 -2.3757
  167MOL0     H22505   1.351   5.316  11.076  0.6560 -0.3270  1.0839
  167MOL0     H22506   1.173   5.302  10.926 -1.9232 -0.5865  1.0236
  167MOL0     H22507   0.732   5.201  10.913 -2.4068  2.6123 -2.1641
  167MOL0     H22508   0.509   5.195  10.828 -2.1195 -2.4998  0.7930
  167MOL0     H22509   0.452   4.916  10.526  0.9893  1.1628  0.5452
  167MOL0     H22510   0.324   4.842  10.631 -1.4794 -0.6300 -2.2197
  167MOL0     H22511   0.321   5.095  10.495  1.5509 -0.8110  2.2478
  167MOL0     H22512   0.231   4.963  10.422  1.7880 -0.2824  0.0244
  167MOL0     H22513   0.142   5.074  10.678  0.8830  1.0165  0.0870
  167MOL0     H22514   0.078   5.121  10.515 -0.9307 -1.3767 -1.6393
  167MOL0     H22515   0.046   4.844  10.627 -0.9322  1.0559  2.8712
  167MOL0     H22516  -0.025   4.899  10.473  3.0034  1.9822 -0.6284
  167MOL0     H22517  -0.178   5.047  10.606  1.7909  4.0620  3.5623
  167MOL0     H22518  -0.070   5.052  10.737  3.7875 -1.6267 -0.0558
  167MOL0     H22519  -0.292   4.922  10.740  0.7906  2.9499 -0.7167
  167MOL0     H22520  -0.201   4.804  10.627  1.6579  0.6623 -0.1926
  167MOL0     H22521  -0.144   4.861  10.923 -1.4461  1.1714 -0.6630
  167MOL0     H22522  -0.046   4.764  10.818 -0.4297 -1.1397  0.7523
  167MOL0     H22523  -0.205   4.633  10.975 -2.8055 -4.3595 -0.1499
  167MOL0     H22524  -0.339   4.714  10.889  0.6195  1.2460 -2.0052
  167MOL0     H22525   0.557   4.797  10.705  0.9447  0.8013 -0.4229
  167MOL0     H22526   0.773   4.785  10.819 -1.8177  0.3417  0.3612
  167MOL0     H22527   1.109   4.877  11.000 -4.1383  1.4280  4.3182
  167MOL0     H22528   1.321   4.896  11.138 -0.2201 -0.3832 -0.8162
  167MOL0     H22529   0.523   5.699  10.712 -0.1320  0.9248 -1.0091
  167MOL0     H22530   0.297   5.645  10.609  1.8469  1.0701  0.6391
  167MOL0     H22531   0.125   5.190  10.207  0.4540  0.0474 -0.6470
  167MOL0     H22532  -0.111   5.134  10.177 -0.0072  1.2687 -0.5956
  167MOL0     H22533  -0.438   5.409  10.351  1.4667  0.5095  2.5102
  167MOL0     H22534  -0.361   5.300  10.474 -1.3525 -1.6567 -0.0505
  167MOL0     H22535  -0.546   5.164  10.291 -2.5813 -0.0878 -0.2515
  167MOL0     H22536  -0.609   5.272  10.424 -0.1369 -1.8093 -0.7812
  167MOL0     H22537  -0.506   5.146  10.601  0.6018 -0.8209 -0.5173
  167MOL0     H22538  -0.397   5.062  10.487  0.0878 -0.9109  0.1639
  167MOL0     H22539  -0.701   5.035  10.539 -1.0105 -2.7805  1.4898
  167MOL0     H22540  -0.636   4.983  10.390  0.1192  0.1682  0.5712
  167MOL0     H22541  -0.503   4.672  10.649  1.8265  1.9392  2.2230
  167MOL0     H22542  -0.225   5.477  10.394  1.8488  0.2315  0.8622
  167MOL0     H22543  -0.067   5.662  10.383  1.9171  1.7025 -1.6564
  167MOL0     H22544   0.069   5.600  10.493 -1.9871 -1.7212  0.7023
  167MOL0     H22545   0.098   5.648  10.325  0.7614 -0.2758  0.1570
  168MOL0     O22546   1.201   5.263  10.213  0.4914  0.0013 -0.2556
  168MOL0     C22547   1.108   5.323  10.264  0.2936 -0.4918  0.3907
  168MOL0     O22548   1.110   5.365  10.399  0.0307  0.2304  0.2766
  168MOL0     C22549   1.215   5.314  10.474 -0.0241  0.1947  0.2208
  168MOL0     C22550   1.339   5.375  10.472 -0.4006  0.7974 -0.3365
  168MOL0     C22551   1.453   5.326  10.530 -0.7179  0.2499 -0.2421
  168MOL0     C22552   1.452   5.216  10.607 -0.0477  0.3691 -0.1750
  168MOL0     O22553   1.569   5.188  10.685 -0.1328  0.6430 -0.0616
  168MOL0     C22554   1.562   5.068  10.770  0.3412  0.0713 -1.3111
  168MOL0     C22555   1.703   5.038  10.820  0.6079 -0.2746  0.7068
  168MOL0     C22556   1.744   5.126  10.943 -0.4466  0.2160 -0.0884
  168MOL0     C22557   1.886   5.094  10.999 -0.4999  0.5891 -0.6879
  168MOL0     C22558   1.991   5.150  10.905  0.6761 -0.7374  0.1737
  168MOL0     C22559   2.130   5.162  10.976  0.0926  0.0315  0.0856
  168MOL0     C22560   2.231   5.238  10.891  0.5710 -0.0161 -0.4538
  168MOL0     C22561   2.194   5.377  10.840  0.1811  0.3154 -0.2886
  168MOL0     N22562   2.317   5.463  10.805 -0.3199  0.2385  0.3058
  168MOL0     C22563   2.406   5.422  10.707 -0.0624  0.2256  0.1987
  168MOL0     C22564   2.508   5.508  10.724 -0.3506  0.0858  0.2694
  168MOL0     C22565   2.636   5.523  10.638 -0.8081  0.4712  0.6754
  168MOL0     C22566   2.627   5.528  10.481 -0.1237 -0.7415 -0.6725
  168MOL0     C22567   2.570   5.665  10.426  0.0401 -0.9728 -0.3944
  168MOL0     C22568   2.419   5.675  10.441 -0.2683  0.1796 -1.0387
  168MOL0     O22569   2.348   5.575  10.358 -0.7501  0.3807  0.5728
  168MOL0     C22570   2.212   5.564  10.376 -0.2689  0.6031  0.1984
  168MOL0     C22571   2.144   5.591  10.493 -0.0366  0.2266 -1.1627
  168MOL0     C22572   2.011   5.584  10.510 -0.1023  0.3639  0.3721
  168MOL0     C22573   1.927   5.564  10.397  1.0637  0.7425  0.8814
  168MOL0     C22574   1.780   5.562  10.401 -0.4383 -0.4812 -0.1105
  168MOL0     O22575   1.711   5.548  10.290  0.0630 -0.7132 -0.2568
  168MOL0     C22576   1.577   5.605  10.287 -0.4665  0.6961 -0.8548
  168MOL0     C22577   1.538   5.721  10.364 -0.1773 -0.2921  0.8428
  168MOL0     C22578   1.407   5.764  10.340  0.0487  0.5752 -0.4787
  168MOL0     C22579   1.319   5.707  10.253  0.2498 -0.4628 -0.2367
  168MOL0     O22580   1.212   5.784  10.243  0.1213 -0.3039  0.0715
  168MOL0     C22581   1.089   5.724  10.263  0.6876 -0.0926 -0.4638
  168MOL0     C22582   0.985   5.836  10.275  0.3236  0.7168  0.0533
  168MOL0     C22583   0.842   5.772  10.256 -0.4548  0.1377  0.2412
  168MOL0     C22584   0.743   5.872  10.264  0.5034 -0.1611 -0.1701
  168MOL0     C22585   0.611   5.809  10.211 -0.1207 -0.4485  0.4890
  168MOL0     C22586   0.483   5.888  10.258 -0.0870 -0.7287 -0.2114
  168MOL0     C22587   0.369   5.873  10.155  0.8170  0.3772 -0.3428
  168MOL0     C22588   0.342   5.732  10.111 -0.6090  0.7188 -0.6626
  168MOL0    Cl22589   0.186   5.728  10.010 -0.4697 -0.1439  0.1754
  168MOL0     C22590   1.356   5.591  10.180 -0.1207  0.3999 -0.2128
  168MOL0     C22591   1.482   5.540  10.201 -0.7944  0.6916 -0.0378
  168MOL0     O22592   1.728   5.579  10.512 -0.1982  0.7092 -0.9604
  168MOL0     C22593   1.990   5.513  10.279  0.0119 -0.0258 -0.4798
  168MOL0     C22594   2.132   5.519  10.269 -0.2921  0.5449  0.0196
  168MOL0     N22595   2.490   5.588  10.841  0.0629  0.0286  0.8972
  168MOL0     N22596   2.375   5.559  10.881  0.3596 -0.5855 -0.9651
  168MOL0     C22597   1.329   5.145  10.615  0.2463 -0.1590 -0.2452
  168MOL0     C22598   1.210   5.191  10.552  0.0010 -0.0783  0.1503
  168MOL0     C22599   0.982   5.357  10.186  0.4431 -0.4669 -0.1983
  168MOL0     C22600   0.871   5.413  10.256 -0.3230 -0.6660 -0.6196
  168MOL0     C22601   0.749   5.429  10.186 -0.0885 -0.1249 -0.5023
  168MOL0     C22602   0.745   5.428  10.047  0.0257  0.0220  0.4201
  168MOL0     O22603   0.631   5.467   9.979  0.0754 -0.0874 -0.8615
  168MOL0     C22604   0.617   5.429   9.839 -0.7285 -1.4142 -0.6911
  168MOL0     C22605   0.477   5.446   9.788  0.6163  0.4887  0.9245
  168MOL0     C22606   0.375   5.395   9.883 -0.1231 -0.1169  0.0540
  168MOL0     C22607   0.244   5.396   9.805 -0.4356 -0.0625 -0.1955
  168MOL0     C22608   0.128   5.379   9.888 -0.7749  0.5975 -0.3467
  168MOL0     C22609   0.034   5.397   9.962 -0.6000 -0.5952  0.3025
  168MOL0     C22610   0.859   5.386   9.980 -0.3089  0.4131  0.3350
  168MOL0     C22611   0.983   5.359  10.048  0.6107 -0.5857  0.4410
  168MOL0     C22612   1.104   5.329   9.958  0.4325  0.4903 -0.1327
  168MOL0     H22613   1.356   5.470  10.422  1.5620  1.3028  1.1779
  168MOL0     H22614   1.544   5.381  10.512 -1.2544  1.0227 -0.6495
  168MOL0     H22615   1.496   5.081  10.856  0.1417  0.4191 -1.5156
  168MOL0     H22616   1.524   4.976  10.725  1.6032 -0.5419 -1.1757
  168MOL0     H22617   1.775   5.075  10.746  1.2167 -0.2737  1.2929
  168MOL0     H22618   1.715   4.930  10.830  0.2481 -0.6962 -2.2437
  168MOL0     H22619   1.669   5.097  11.018 -2.6083 -0.8016 -2.4923
  168MOL0     H22620   1.728   5.232  10.925 -0.0649  0.6634  1.9355
  168MOL0     H22621   1.901   5.146  11.094  2.2380  0.3604 -0.9209
  168MOL0     H22622   1.908   4.989  11.019 -0.2058  0.6393 -0.7424
  168MOL0     H22623   1.995   5.086  10.817 -0.1159 -0.4387 -0.0920
  168MOL0     H22624   1.952   5.247  10.870  1.8202 -0.1379  0.5070
  168MOL0     H22625   2.121   5.211  11.074 -0.1203 -2.3835  1.3513
  168MOL0     H22626   2.163   5.059  10.991 -3.5274 -1.6068 -1.8017
  168MOL0     H22627   2.255   5.174  10.806 -1.0615 -0.1541 -0.8477
  168MOL0     H22628   2.328   5.238  10.940  0.2976  0.9254  0.1074
  168MOL0     H22629   2.152   5.357  10.741  4.0187  0.4816 -2.1714
  168MOL0     H22630   2.122   5.432  10.901  1.2770  1.4852 -0.0049
  168MOL0     H22631   2.390   5.357  10.622  0.1760 -0.6146  0.7783
  168MOL0     H22632   2.692   5.610  10.671 -4.4380  2.5740  1.9595
  168MOL0     H22633   2.703   5.441  10.666 -0.1328 -0.7058 -3.6730
  168MOL0     H22634   2.733   5.522  10.455  0.0277 -0.3616 -0.1676
  168MOL0     H22635   2.573   5.448  10.429  0.8609 -0.8360 -1.5600
  168MOL0     H22636   2.589   5.670  10.318 -2.6351 -2.2103 -1.0256
  168MOL0     H22637   2.622   5.754  10.464 -0.5803 -0.2544 -1.1952
  168MOL0     H22638   2.375   5.775  10.429 -0.0848  0.5681  1.1907
  168MOL0     H22639   2.404   5.658  10.548  2.5706  5.0894  0.4690
  168MOL0     H22640   2.205   5.624  10.576 -0.6380  3.0001 -1.7015
  168MOL0     H22641   1.958   5.608  10.601  0.1702  0.0772  0.6058
  168MOL0     H22642   1.605   5.781  10.426  1.6314 -0.3193 -0.9759
  168MOL0     H22643   1.369   5.854  10.388  1.6110  1.9526 -1.7047
  168MOL0     H22644   1.067   5.659  10.178  0.5287 -2.2529  1.1536
  168MOL0     H22645   1.093   5.660  10.351 -3.6844  0.5200  0.3792
  168MOL0     H22646   1.002   5.875  10.376  3.8772 -0.5664  0.1122
  168MOL0     H22647   1.011   5.917  10.206 -1.7987  0.6183 -0.9140
  168MOL0     H22648   0.838   5.741  10.151 -0.3506  1.9906 -0.3419
  168MOL0     H22649   0.821   5.688  10.324  1.5787 -0.3615  0.3303
  168MOL0     H22650   0.780   5.964  10.219  1.2756  0.1793  1.1194
  168MOL0     H22651   0.735   5.895  10.371 -1.7331  0.0559 -0.3313
  168MOL0     H22652   0.596   5.704  10.237 -2.7372 -0.6483 -1.3525
  168MOL0     H22653   0.622   5.806  10.103 -1.3454 -2.4021  0.3733
  168MOL0     H22654   0.455   5.861  10.360  2.0674 -0.2052  0.5702
  168MOL0     H22655   0.514   5.992  10.244  2.4735 -1.6250 -1.9587
  168MOL0     H22656   0.396   5.934  10.068  1.3432  1.9676  0.8635
  168MOL0     H22657   0.274   5.910  10.195  0.0270 -0.0521 -1.7553
  168MOL0     H22658   0.434   5.702  10.061  0.1580  0.5666  0.7826
  168MOL0     H22659   0.327   5.660  10.193  1.4944  0.8029 -0.1622
  168MOL0     H22660   1.283   5.536  10.122 -0.5560  0.5386  0.2012
  168MOL0     H22661   1.521   5.456  10.145  1.0045  2.5639 -1.7394
  168MOL0     H22662   1.934   5.481  10.192 -0.4733 -2.9885  0.8163
  168MOL0     H22663   2.185   5.495  10.178  1.6465 -0.6517  1.3934
  168MOL0     H22664   1.308   5.065  10.685  2.0396 -1.4628 -1.1209
  168MOL0     H22665   1.120   5.146  10.592  0.8619 -0.2485  2.0005
  168MOL0     H22666   0.885   5.418  10.364 -1.8836  1.4246 -0.4558
  168MOL0     H22667   0.658   5.450  10.241  0.6441 -3.6516  2.4789
  168MOL0     H22668   0.650   5.327   9.817  0.3703 -0.7029 -2.6200
  168MOL0     H22669   0.687   5.500   9.793 -2.5510  0.2545 -1.0472
  168MOL0     H22670   0.476   5.368   9.711  1.3271  1.5015 -0.1470
  168MOL0     H22671   0.449   5.542   9.743  0.3443  0.3351  0.7661
  168MOL0     H22672   0.358   5.462   9.968  1.4996  0.2212  0.1371
  168MOL0     H22673   0.407   5.294   9.911 -0.7414 -0.2116  0.4549
  168MOL0     H22674   0.233   5.498   9.767 -1.0829  1.0507  2.6894
  168MOL0     H22675   0.256   5.328   9.720 -1.5619 -1.4943  0.7470
  168MOL0     H22676  -0.052   5.418  10.022 -0.9176  0.5445 -0.5148
  168MOL0     H22677   0.856   5.383   9.872 -1.5081  1.4283  0.3143
  168MOL0     H22678   1.080   5.376   9.862  2.4803 -0.9169 -1.3984
  168MOL0     H22679   1.191   5.388   9.988  1.4737 -1.6247  1.2337
  168MOL0     H22680   1.127   5.223   9.954 -1.3074  0.1128 -1.4931
  169MOL0     O22681   0.304   1.907   3.109  0.6434  0.0357 -1.3677
  169MOL0     C22682   0.381   1.820   3.087  0.2219  0.1997 -0.0442
  169MOL0     O22683   0.516   1.821   3.122 -0.0792 -0.1042  0.5343
  169MOL0     C22684   0.579   1.918   3.190 -0.3622 -0.0272  0.1192
  169MOL0     C22685   0.682   1.879   3.276 -0.3968 -0.1693 -0.1557
  169MOL0     C22686   0.757   1.979   3.334 -1.1475  0.0426 -0.6242
  169MOL0     C22687   0.726   2.118   3.320  0.2162  0.3809 -0.1233
  169MOL0     O22688   0.817   2.204   3.376 -0.3884  0.3463 -0.2739
  169MOL0     C22689   0.780   2.334   3.417 -0.3226 -0.7965  0.9689
  169MOL0     C22690   0.883   2.387   3.518 -0.9309  0.5721  0.2261
  169MOL0     C22691   1.024   2.409   3.464  0.3241  0.1334 -0.0620
  169MOL0     C22692   1.100   2.471   3.581  0.4519  0.8533 -0.2392
  169MOL0     C22693   1.252   2.490   3.548 -0.6357 -0.2081 -0.2584
  169MOL0     C22694   1.333   2.358   3.520 -0.1630  0.2540  0.1649
  169MOL0     C22695   1.479   2.398   3.505 -0.4089  0.1648  0.3771
  169MOL0     C22696   1.566   2.262   3.476  1.3037  0.0005  0.4851
  169MOL0     N22697   1.713   2.291   3.477  0.0441  0.8776 -0.2179
  169MOL0     C22698   1.771   2.408   3.477 -0.8133 -0.3018  0.0650
  169MOL0     C22699   1.899   2.374   3.503 -0.3843 -0.0847 -0.4182
  169MOL0     C22700   2.008   2.475   3.527  0.1560  0.9092  0.1300
  169MOL0     C22701   2.155   2.428   3.502 -0.2675  0.9787 -0.1328
  169MOL0     C22702   2.239   2.546   3.538  1.3886 -0.4885  0.6930
  169MOL0     C22703   2.396   2.520   3.540 -0.0102 -0.9453 -0.0040
  169MOL0     O22704   2.466   2.646   3.545  0.4769  0.4086 -0.2971
  169MOL0     C22705   2.587   2.651   3.491  0.8072 -0.6444 -0.2477
  169MOL0     C22706   2.672   2.542   3.462 -0.4416  0.5817 -0.9930
  169MOL0     C22707   2.799   2.560   3.410  0.3630  0.6607  0.1593
  169MOL0     C22708   2.850   2.684   3.381  0.6552  0.6161  0.0948
  169MOL0     C22709   2.975   2.697   3.308 -0.4494  0.2217 -0.0716
  169MOL0     O22710   3.008   2.819   3.263  0.1309  0.1540  0.1476
  169MOL0     C22711   3.115   2.827   3.186  0.0268 -0.1370  0.1270
  169MOL0     C22712   3.249   2.827   3.234  0.3558  0.6747  0.4332
  169MOL0     C22713   3.356   2.834   3.145 -0.3728 -0.4003  0.0199
  169MOL0     C22714   3.347   2.846   3.007  0.2523  0.2914  0.9287
  169MOL0     O22715   3.456   2.869   2.932 -0.4690 -0.6389 -0.1230
  169MOL0     C22716   3.447   2.864   2.789  0.7982  0.9263 -0.4897
  169MOL0     C22717   3.584   2.881   2.727  0.2325  0.1623  0.7661
  169MOL0     C22718   3.696   2.772   2.767 -0.0304 -0.6257  0.2274
  169MOL0     C22719   3.840   2.816   2.745 -1.0977 -0.4316 -0.1342
  169MOL0     C22720   3.874   2.865   2.607  0.2891 -0.2435  0.7523
  169MOL0     C22721   4.025   2.889   2.593 -0.1971 -0.2355 -0.7243
  169MOL0     C22722   4.071   2.934   2.454  0.1723 -0.2827 -0.3080
  169MOL0     C22723   3.989   3.066   2.416  0.4122  0.5476  0.2041
  169MOL0    Cl22724   4.013   3.114   2.239 -0.3473  0.2177 -0.5125
  169MOL0     C22725   3.212   2.851   2.961 -0.6195 -0.4820 -0.1155
  169MOL0     C22726   3.104   2.835   3.046  0.0776 -0.1036 -0.3182
  169MOL0     O22727   3.029   2.590   3.278  0.1414  0.3157 -0.4164
  169MOL0     C22728   2.771   2.792   3.412  0.7274 -0.0204 -0.7710
  169MOL0     C22729   2.637   2.778   3.465 -0.3654 -0.6845  0.6750
  169MOL0     N22730   1.917   2.232   3.497 -0.1049 -0.0834  0.2871
  169MOL0     N22731   1.792   2.188   3.482 -0.7420  0.0320 -0.8646
  169MOL0     C22732   0.619   2.152   3.238  0.1345 -1.1802 -0.0115
  169MOL0     C22733   0.547   2.054   3.173 -0.8550  0.2511  0.3277
  169MOL0     C22734   0.329   1.703   3.019 -0.1879  0.2705  0.0660
  169MOL0     C22735   0.424   1.630   2.938  1.0611  0.2218  0.4430
  169MOL0     C22736   0.394   1.515   2.869 -0.0667  0.2630 -0.1120
  169MOL0     C22737   0.260   1.473   2.872  0.5368 -0.0811 -0.0109
  169MOL0     O22738   0.203   1.368   2.793 -0.0450  0.0706  0.2829
  169MOL0     C22739   0.296   1.307   2.703 -0.8898  0.6139 -0.5076
  169MOL0     C22740   0.236   1.223   2.593  0.6227  0.7083 -0.6641
  169MOL0     C22741   0.179   1.096   2.659  0.3870  0.5051  0.7074
  169MOL0     C22742   0.214   0.980   2.574 -0.3027 -0.2245  1.1278
  169MOL0     C22743   0.145   0.988   2.442  0.5691 -0.6064  0.5892
  169MOL0     C22744   0.096   0.996   2.332  0.3375  0.2079 -0.1215
  169MOL0     C22745   0.167   1.535   2.961 -0.2374 -0.7253  0.2542
  169MOL0     C22746   0.196   1.656   3.035  0.1166 -0.5468  0.5083
  169MOL0     C22747   0.086   1.719   3.120 -0.4013  0.2230 -0.4614
  169MOL0     H22748   0.727   1.780   3.269 -1.8488 -1.0039  1.4483
  169MOL0     H22749   0.834   1.948   3.404 -1.8838 -1.6302 -0.5026
  169MOL0     H22750   0.778   2.404   3.334 -0.3244 -0.2718  1.4096
  169MOL0     H22751   0.678   2.347   3.454 -1.1220  0.9552 -1.5859
  169MOL0     H22752   0.885   2.326   3.608  1.4238  0.0567 -0.1116
  169MOL0     H22753   0.842   2.487   3.536 -0.0101  1.2497 -1.2872
  169MOL0     H22754   1.030   2.483   3.383  1.3629 -1.5588 -1.5973
  169MOL0     H22755   1.058   2.308   3.439 -1.5656 -0.3121 -1.0777
  169MOL0     H22756   1.055   2.566   3.610  0.8633  1.3632 -1.2270
  169MOL0     H22757   1.086   2.405   3.668  0.1465  0.6095 -0.4719
  169MOL0     H22758   1.253   2.564   3.468 -2.4951  0.6132  0.4224
  169MOL0     H22759   1.298   2.530   3.639 -2.5342 -1.0134  1.1086
  169MOL0     H22760   1.334   2.280   3.596 -1.6683 -0.8327 -0.8554
  169MOL0     H22761   1.305   2.301   3.431  3.8359 -3.7032  1.1057
  169MOL0     H22762   1.527   2.450   3.588  2.4268  0.4269 -1.2714
  169MOL0     H22763   1.488   2.470   3.423 -3.3126  1.5190  1.1185
  169MOL0     H22764   1.537   2.185   3.548 -0.3454 -0.6959 -0.8598
  169MOL0     H22765   1.530   2.233   3.377  2.0784  2.6099 -0.6289
  169MOL0     H22766   1.726   2.507   3.481 -0.1716 -0.0220  3.7430
  169MOL0     H22767   1.994   2.566   3.469 -0.7122  0.3310 -0.5849
  169MOL0     H22768   1.997   2.508   3.631 -0.9485  0.5876  0.1314
  169MOL0     H22769   2.184   2.345   3.568  0.1911  1.0114 -0.2888
  169MOL0     H22770   2.154   2.393   3.399  1.9129 -2.7012  0.9184
  169MOL0     H22771   2.221   2.576   3.642  2.1519  2.2310  0.1124
  169MOL0     H22772   2.217   2.628   3.470  2.2508 -1.2867 -0.5743
  169MOL0     H22773   2.420   2.484   3.439  1.9795  0.1015  0.0317
  169MOL0     H22774   2.432   2.458   3.623  1.3127 -0.8844 -0.5012
  169MOL0     H22775   2.634   2.441   3.475  1.4904 -0.2760 -1.5669
  169MOL0     H22776   2.848   2.466   3.387 -0.2687 -0.6125  3.4749
  169MOL0     H22777   3.258   2.815   3.341  0.1217  3.7323  0.8935
  169MOL0     H22778   3.456   2.836   3.187  0.4702  0.2627 -1.9143
  169MOL0     H22779   3.401   2.766   2.769 -0.4596  0.7015  2.8018
  169MOL0     H22780   3.377   2.937   2.749  0.0667  0.7092  0.3647
  169MOL0     H22781   3.575   2.887   2.618 -1.3796 -0.0150  0.8596
  169MOL0     H22782   3.634   2.973   2.756  2.3591 -0.6417 -0.1143
  169MOL0     H22783   3.684   2.735   2.869  1.0182 -0.2020  0.5268
  169MOL0     H22784   3.687   2.682   2.707  3.9599 -1.1608  0.1453
  169MOL0     H22785   3.912   2.738   2.773 -0.7761  0.0811  0.4817
  169MOL0     H22786   3.866   2.902   2.806 -1.2026  1.6115 -2.7770
  169MOL0     H22787   3.807   2.947   2.584  0.2466 -0.4187  0.2215
  169MOL0     H22788   3.856   2.789   2.530  2.5582  0.2285 -0.3377
  169MOL0     H22789   4.055   2.949   2.679  0.8893  2.3271 -2.7494
  169MOL0     H22790   4.065   2.788   2.609  0.6125 -0.2468 -2.5419
  169MOL0     H22791   4.063   2.859   2.374  0.5988 -2.6382  1.7392
  169MOL0     H22792   4.177   2.962   2.461  0.0286  0.0151  0.9018
  169MOL0     H22793   3.881   3.046   2.420  0.4741 -0.0383  4.5503
  169MOL0     H22794   4.019   3.141   2.490  0.4090 -2.1012  3.1321
  169MOL0     H22795   3.188   2.855   2.855 -0.2205 -0.9218 -0.2281
  169MOL0     H22796   3.010   2.831   2.993  0.1782  0.1987 -0.5157
  169MOL0     H22797   2.810   2.893   3.401 -0.8270  0.8818  1.3653
  169MOL0     H22798   2.568   2.860   3.480  0.2290 -0.2882  1.3205
  169MOL0     H22799   0.592   2.257   3.234  0.1962 -1.0363  2.2300
  169MOL0     H22800   0.468   2.098   3.111 -0.2845  0.5364 -0.2080
  169MOL0     H22801   0.525   1.666   2.922  1.6278 -1.8545 -0.9884
  169MOL0     H22802   0.469   1.457   2.816 -1.3282 -1.3717 -0.2117
  169MOL0     H22803   0.359   1.247   2.769 -1.1629  0.9311  0.0430
  169MOL0     H22804   0.355   1.381   2.647  1.8988 -0.8934  0.2726
  169MOL0     H22805   0.311   1.197   2.518 -0.1227  2.3745 -2.0677
  169MOL0     H22806   0.161   1.278   2.536 -1.4950 -1.8604 -0.5435
  169MOL0     H22807   0.071   1.112   2.660  0.1265 -0.5999  4.0628
  169MOL0     H22808   0.208   1.079   2.764 -0.2134  0.7467  0.9143
  169MOL0     H22809   0.322   0.973   2.558 -0.5747 -1.7823 -0.2792
  169MOL0     H22810   0.191   0.889   2.630  1.0416 -1.5332 -0.3676
  169MOL0     H22811   0.070   1.033   2.234  1.3443  0.5465 -0.2764
  169MOL0     H22812   0.074   1.480   2.978  0.1668 -0.5445  3.8664
  169MOL0     H22813   0.142   1.747   3.209 -0.6639 -0.9560  0.0888
  169MOL0     H22814   0.035   1.804   3.074 -2.4411 -0.4730  0.3886
  169MOL0     H22815   0.002   1.656   3.150  1.2571 -1.3607  1.0510
  170MOL0     O22816  10.336   5.777   6.526  0.0801  0.4215  0.2148
  170MOL0     C22817  10.344   5.746   6.407  0.5183 -0.5400  0.4838
  170MOL0     O22818  10.458   5.710   6.345  0.8910 -0.7346 -0.1016
  170MOL0     C22819  10.577   5.707   6.415  0.2687  0.1956 -0.3270
  170MOL0     C22820  10.616   5.588   6.477 -0.1077 -0.2809 -0.9415
  170MOL0     C22821  10.742   5.578   6.544 -0.0656 -0.1117  0.7356
  170MOL0     C22822  10.819   5.698   6.563 -0.2924  0.6888 -0.6848
  170MOL0     O22823  10.941   5.701   6.636 -0.2067 -0.0479  0.2013
  170MOL0     C22824  10.935   5.616   6.756 -0.2208  0.3667 -0.7314
  170MOL0     C22825  11.063   5.629   6.839  0.0074 -0.3048  0.4256
  170MOL0     C22826  11.184   5.576   6.774 -0.6415 -0.5858 -0.6596
  170MOL0     C22827  11.250   5.683   6.683 -0.2539  0.1627  0.5247
  170MOL0     C22828  11.399   5.650   6.663 -0.6320 -0.7170  0.5909
  170MOL0     C22829  11.494   5.710   6.757 -0.3505  0.4337 -0.0183
  170MOL0     C22830  11.639   5.673   6.723  0.1169 -0.2601  0.8726
  170MOL0     C22831  11.726   5.728   6.832 -1.2442 -0.2817 -0.4331
  170MOL0     N22832  11.861   5.671   6.817 -0.1032 -0.0268  0.2996
  170MOL0     C22833  11.931   5.568   6.884  0.4777  0.5234  0.1233
  170MOL0     C22834  12.028   5.523   6.806 -0.2070 -0.3774 -0.0304
  170MOL0     C22835  12.116   5.415   6.816 -0.0498 -0.0944  0.3305
  170MOL0     C22836  12.177   5.387   6.952  1.0315 -0.4710 -0.5781
  170MOL0     C22837  12.250   5.252   6.954 -0.8465 -0.6094 -0.1483
  170MOL0     C22838  12.168   5.123   6.971 -0.0058 -0.2068  0.4376
  170MOL0     O22839  12.219   5.040   7.077 -0.6360 -0.3337  0.9597
  170MOL0     C22840  12.175   4.914   7.094  0.5761 -0.0009  0.4080
  170MOL0     C22841  12.055   4.867   7.039 -0.1995  0.6197 -0.4953
  170MOL0     C22842  12.009   4.737   7.069  0.2485  0.1022  1.4307
  170MOL0     C22843  12.085   4.655   7.153 -0.1509 -0.1427  0.4537
  170MOL0     C22844  12.035   4.522   7.173 -0.3160 -0.3678  0.1960
  170MOL0     O22845  12.118   4.437   7.244 -0.1072 -0.3222  0.4112
  170MOL0     C22846  12.086   4.301   7.233  0.4323 -0.2406 -0.3748
  170MOL0     C22847  11.985   4.250   7.318  0.1903 -0.0174 -0.4033
  170MOL0     C22848  11.956   4.113   7.332  0.3999 -1.1478  0.4406
  170MOL0     C22849  12.042   4.023   7.264  0.6139  0.2720  1.3253
  170MOL0     O22850  12.025   3.890   7.273  0.2299  0.7254 -0.0335
  170MOL0     C22851  11.910   3.831   7.207 -0.9975  0.5422  0.4316
  170MOL0     C22852  11.949   3.717   7.111 -0.3098  0.9622  0.5284
  170MOL0     C22853  12.063   3.738   7.008  0.4244  0.3278  0.7541
  170MOL0     C22854  12.027   3.844   6.913 -0.0191 -0.1452 -0.5245
  170MOL0     C22855  12.156   3.885   6.831 -1.0708 -0.4191 -0.5702
  170MOL0     C22856  12.118   3.922   6.687 -0.1491 -0.7754  0.2498
  170MOL0     C22857  12.251   3.934   6.617  0.3830 -0.2834 -1.0264
  170MOL0     C22858  12.237   3.974   6.472  0.1791 -0.5130 -0.0594
  170MOL0    Cl22859  12.394   4.041   6.423 -0.0125 -0.5781 -0.2244
  170MOL0     C22860  12.145   4.078   7.182 -0.3660 -0.0322  0.3501
  170MOL0     C22861  12.165   4.214   7.165 -0.9386  0.3573  0.2861
  170MOL0     O22862  11.921   4.485   7.134 -0.3722  0.4460  0.4735
  170MOL0     C22863  12.204   4.705   7.201  0.3658  0.5757  0.0584
  170MOL0     C22864  12.247   4.837   7.176  0.2986  0.5412 -0.4315
  170MOL0     N22865  12.039   5.615   6.697 -0.8323 -0.1826  0.6675
  170MOL0     N22866  11.941   5.702   6.708 -0.4229  0.2930 -0.1247
  170MOL0     C22867  10.778   5.815   6.514 -0.0388 -0.3948 -0.1594
  170MOL0     C22868  10.659   5.820   6.440  0.1472  0.1783  0.2932
  170MOL0     C22869  10.210   5.742   6.327  0.2415 -0.1266 -0.6904
  170MOL0     C22870  10.219   5.675   6.203  0.1335 -0.3543 -0.7691
  170MOL0     C22871  10.114   5.664   6.122 -0.0178 -0.6411  0.0363
  170MOL0     C22872   9.991   5.729   6.151 -0.2163  0.2162  0.6756
  170MOL0     O22873   9.871   5.719   6.080  0.2012  0.1492  0.6738
  170MOL0     C22874   9.877   5.658   5.947  0.1277  0.6870 -0.1819
  170MOL0     C22875   9.803   5.524   5.960  0.0401 -0.9240  1.3238
  170MOL0     C22876   9.651   5.539   5.941 -0.0721 -0.0712 -0.5530
  170MOL0     C22877   9.575   5.453   5.847 -0.3506 -0.5202  1.0582
  170MOL0     C22878   9.606   5.502   5.709 -1.3399 -0.0190  0.3284
  170MOL0     C22879   9.617   5.529   5.589 -0.0762 -0.3223 -0.5204
  170MOL0     C22880   9.979   5.790   6.281 -0.2257  0.9270  0.4747
  170MOL0     C22881  10.086   5.793   6.372 -0.4825  0.3200 -0.8357
  170MOL0     C22882  10.063   5.870   6.497 -0.3795  0.0128 -0.8890
  170MOL0     H22883  10.543   5.507   6.477 -1.5540  0.8079  3.0805
  170MOL0     H22884  10.765   5.476   6.572 -3.1164 -0.7560  1.2536
  170MOL0     H22885  10.849   5.649   6.815  1.1043  4.2246 -0.6882
  170MOL0     H22886  10.931   5.514   6.716 -3.3010  1.1820 -2.8557
  170MOL0     H22887  11.045   5.561   6.922  0.7368 -0.2595  0.6355
  170MOL0     H22888  11.074   5.732   6.873  0.0527 -0.5329  1.1210
  170MOL0     H22889  11.159   5.485   6.718 -0.0663 -1.3845  0.3515
  170MOL0     H22890  11.256   5.559   6.854 -2.0602 -0.3229  0.7306
  170MOL0     H22891  11.212   5.690   6.581  2.1762 -0.7535 -0.5149
  170MOL0     H22892  11.241   5.782   6.727 -1.9700  0.4279 -0.3404
  170MOL0     H22893  11.413   5.542   6.657  1.4632 -0.4558 -0.3482
  170MOL0     H22894  11.429   5.687   6.564 -0.7961  0.4612  0.9695
  170MOL0     H22895  11.476   5.818   6.756 -2.4908  0.1404  0.8668
  170MOL0     H22896  11.477   5.659   6.852  0.4768 -0.2558 -0.2235
  170MOL0     H22897  11.679   5.696   6.623 -0.8652  0.0238  0.5322
  170MOL0     H22898  11.636   5.565   6.740 -0.0014 -0.4596 -0.2825
  170MOL0     H22899  11.729   5.837   6.832 -3.2545 -0.0894  2.6262
  170MOL0     H22900  11.687   5.702   6.931  0.7929 -0.0611  0.4827
  170MOL0     H22901  11.907   5.503   6.968 -1.0390  2.6725  1.4332
  170MOL0     H22902  12.065   5.322   6.788 -1.6328  0.4870  1.1793
  170MOL0     H22903  12.202   5.441   6.753  0.9074  0.6689  1.8885
  170MOL0     H22904  12.246   5.470   6.971  0.4508 -0.3492  1.1860
  170MOL0     H22905  12.105   5.396   7.034  0.0921  1.1804 -1.4994
  170MOL0     H22906  12.334   5.264   7.023  0.6400 -0.7844 -1.8482
  170MOL0     H22907  12.306   5.246   6.860 -0.1051 -0.5553  0.2874
  170MOL0     H22908  12.147   5.070   6.877 -1.1400  1.7175 -0.4707
  170MOL0     H22909  12.067   5.154   6.999  0.1064  1.1033 -0.4906
  170MOL0     H22910  12.004   4.927   6.964  0.0242  1.0733 -0.2837
  170MOL0     H22911  11.919   4.700   7.021 -0.2773  1.2398  1.5213
  170MOL0     H22912  11.932   4.328   7.373 -1.8325  0.1684 -2.4544
  170MOL0     H22913  11.876   4.082   7.398 -2.6673  1.8784 -1.5405
  170MOL0     H22914  11.849   3.798   7.292 -0.0694 -0.9974  0.5283
  170MOL0     H22915  11.852   3.910   7.156 -2.4952  0.2937  1.6505
  170MOL0     H22916  12.002   3.644   7.172  2.1141  2.8337  0.8077
  170MOL0     H22917  11.853   3.683   7.072 -0.0282 -1.0201  1.4761
  170MOL0     H22918  12.152   3.766   7.064  0.7317 -2.0590  1.5921
  170MOL0     H22919  12.079   3.654   6.940  0.6934  2.4352 -1.9685
  170MOL0     H22920  11.995   3.931   6.972  0.9152  0.8167 -1.3808
  170MOL0     H22921  11.949   3.813   6.844  1.2090 -2.9425 -0.7928
  170MOL0     H22922  12.212   3.791   6.829 -3.4823 -1.9789 -0.0275
  170MOL0     H22923  12.217   3.964   6.876  0.5633 -1.6117 -0.5994
  170MOL0     H22924  12.074   3.833   6.642  1.3681 -3.0623  2.9288
  170MOL0     H22925  12.043   4.001   6.685 -1.7098 -1.9544  3.7154
  170MOL0     H22926  12.306   3.841   6.633 -2.7330 -1.9513  1.3459
  170MOL0     H22927  12.314   4.006   6.670 -0.2890 -0.7460  0.4611
  170MOL0     H22928  12.210   3.886   6.412  0.8021 -0.0033 -1.1319
  170MOL0     H22929  12.165   4.053   6.450  1.4296  0.1894 -1.9220
  170MOL0     H22930  12.207   4.007   7.129 -3.0057 -3.8771  1.9969
  170MOL0     H22931  12.245   4.234   7.095 -0.8278 -0.4235  0.1752
  170MOL0     H22932  12.273   4.646   7.261 -0.6619  0.9755  1.6666
  170MOL0     H22933  12.339   4.873   7.223  1.8322 -1.0052 -2.0999
  170MOL0     H22934  10.833   5.908   6.524 -0.2328  0.0103 -2.3495
  170MOL0     H22935  10.634   5.914   6.393 -3.2089 -1.7157 -2.1818
  170MOL0     H22936  10.316   5.633   6.177  2.6503  2.1970  3.4337
  170MOL0     H22937  10.120   5.602   6.034  0.4788 -0.5100 -0.0279
  170MOL0     H22938   9.978   5.647   5.909  0.7635 -0.2796  1.6609
  170MOL0     H22939   9.818   5.726   5.885  1.8407  0.2987 -2.3210
  170MOL0     H22940   9.829   5.477   6.055  2.8801 -0.9910  0.5980
  170MOL0     H22941   9.825   5.451   5.881 -1.5539 -0.9664  0.8686
  170MOL0     H22942   9.633   5.641   5.904  1.1372 -0.0761 -1.2157
  170MOL0     H22943   9.616   5.532   6.044  1.1267 -1.2097 -0.1955
  170MOL0     H22944   9.596   5.345   5.851 -0.3076 -0.5975 -0.6012
  170MOL0     H22945   9.468   5.471   5.856 -0.2767  1.7517 -1.4362
  170MOL0     H22946   9.620   5.532   5.482 -0.5317 -1.1220 -0.5577
  170MOL0     H22947   9.882   5.831   6.304 -0.2549  0.9727  0.2730
  170MOL0     H22948  10.135   5.952   6.495 -0.4336  0.0631 -2.3864
  170MOL0     H22949   9.963   5.912   6.504 -0.5051 -0.5090  0.9013
  170MOL0     H22950  10.072   5.811   6.588 -0.8227 -0.0711 -0.9000
  171MOL0     O22951   4.193   7.282   1.113 -0.5513  0.2225 -0.4310
  171MOL0     C22952   4.221   7.356   1.020  1.2671 -0.7782 -1.0333
  171MOL0     O22953   4.331   7.438   1.011 -0.0501  0.1792 -0.8861
  171MOL0     C22954   4.412   7.434   1.127  0.0217  0.3115  0.3039
  171MOL0     C22955   4.522   7.353   1.128 -0.1557  0.8119 -0.1290
  171MOL0     C22956   4.599   7.328   1.235  0.7253 -0.1926  0.3677
  171MOL0     C22957   4.556   7.399   1.359  0.4786  0.1796 -0.0557
  171MOL0     O22958   4.632   7.394   1.475 -0.1097  0.5896 -0.9385
  171MOL0     C22959   4.731   7.293   1.488 -0.7015  0.7092  0.0858
  171MOL0     C22960   4.758   7.268   1.632  0.1469 -0.0502 -0.1938
  171MOL0     C22961   4.645   7.185   1.694  0.0786  0.1064 -0.2752
  171MOL0     C22962   4.637   7.032   1.673  0.1215  0.0994  0.7821
  171MOL0     C22963   4.703   6.936   1.775  0.2302  0.4595  0.2329
  171MOL0     C22964   4.628   6.908   1.904 -0.2499  1.3257  0.5431
  171MOL0     C22965   4.713   6.796   1.973 -0.2896 -0.2598  0.5409
  171MOL0     C22966   4.657   6.752   2.113 -0.0962 -0.3789  0.5918
  171MOL0     N22967   4.510   6.719   2.122  0.7276 -0.8930  0.2444
  171MOL0     C22968   4.445   6.621   2.051  0.4377  0.3376  1.1064
  171MOL0     C22969   4.306   6.647   2.068  0.2105  0.1919 -0.1171
  171MOL0     C22970   4.178   6.595   2.018  0.5569 -0.1775  0.2342
  171MOL0     C22971   4.134   6.668   1.898  0.2312 -0.8483 -0.0079
  171MOL0     C22972   4.242   6.698   1.792  0.6404 -1.3711 -0.6288
  171MOL0     C22973   4.278   6.580   1.707  0.5297 -0.3811  0.0245
  171MOL0     O22974   4.404   6.618   1.652  0.0374  0.2246  0.1804
  171MOL0     C22975   4.475   6.525   1.578  0.7016 -0.5793  0.1444
  171MOL0     C22976   4.438   6.392   1.556 -0.2750  0.5534 -0.0738
  171MOL0     C22977   4.521   6.303   1.487 -0.0810  0.0581 -0.1863
  171MOL0     C22978   4.655   6.336   1.456  0.4921  0.6445 -0.5840
  171MOL0     C22979   4.747   6.237   1.384 -0.0577 -0.5047 -0.0168
  171MOL0     O22980   4.886   6.260   1.369  0.0615  0.6674  0.1309
  171MOL0     C22981   4.972   6.172   1.301  0.7366  0.2624 -0.1421
  171MOL0     C22982   4.946   6.137   1.165 -0.4722 -0.8352  0.1902
  171MOL0     C22983   5.046   6.057   1.102 -0.1044 -0.0857  0.5253
  171MOL0     C22984   5.176   6.030   1.154  0.7028  0.0937 -0.2189
  171MOL0     O22985   5.275   5.966   1.085  0.4166  0.0288 -0.1458
  171MOL0     C22986   5.227   5.882   0.979 -0.9819 -0.2676  0.1273
  171MOL0     C22987   5.350   5.798   0.933  0.3325  0.3609  0.5270
  171MOL0     C22988   5.390   5.685   1.026  0.5880 -0.6787 -0.5799
  171MOL0     C22989   5.497   5.588   0.979 -0.1414  0.5391  0.6401
  171MOL0     C22990   5.513   5.462   1.054  0.9736 -0.9969 -0.2808
  171MOL0     C22991   5.588   5.466   1.187  0.0465 -0.7510 -0.1064
  171MOL0     C22992   5.553   5.341   1.268  0.1707  0.5384 -0.8575
  171MOL0     C22993   5.647   5.326   1.379  0.5079  0.4891  0.4926
  171MOL0    Cl22994   5.606   5.189   1.479  0.0144 -0.5243  0.2753
  171MOL0     C22995   5.199   6.078   1.285 -0.0002 -0.1016 -0.8484
  171MOL0     C22996   5.095   6.142   1.352  0.7192 -0.0677  0.1787
  171MOL0     O22997   4.702   6.125   1.343  0.2607  0.0610  0.1089
  171MOL0     C22998   4.698   6.461   1.488 -0.5614 -0.2383 -1.0641
  171MOL0     C22999   4.607   6.557   1.545 -0.1188  0.5254 -0.3039
  171MOL0     N23000   4.302   6.761   2.147 -0.2367 -0.6639 -0.9018
  171MOL0     N23001   4.420   6.798   2.181  1.1217  0.4798  0.4265
  171MOL0     C23002   4.438   7.476   1.364  0.3533 -0.0304 -0.0316
  171MOL0     C23003   4.371   7.492   1.248  0.4737 -0.9005 -0.5890
  171MOL0     C23004   4.128   7.365   0.903  0.6208  0.0632  0.6435
  171MOL0     C23005   4.180   7.426   0.788 -0.0882 -0.2280 -0.0967
  171MOL0     C23006   4.099   7.450   0.676  0.5445  0.4336  0.1336
  171MOL0     C23007   3.968   7.412   0.670 -0.0882  0.1557 -0.5547
  171MOL0     O23008   3.903   7.457   0.552 -0.9247  0.4052 -1.2201
  171MOL0     C23009   3.775   7.398   0.533  0.5973  0.4111  0.0583
  171MOL0     C23010   3.697   7.485   0.440 -0.6663  0.5798 -0.7336
  171MOL0     C23011   3.748   7.485   0.298 -0.3556 -0.1656 -0.7597
  171MOL0     C23012   3.699   7.611   0.204 -0.7382  0.7990 -0.8051
  171MOL0     C23013   3.702   7.568   0.067  0.5774  0.5921  0.6930
  171MOL0     C23014   3.718   7.568  -0.053  0.4039  0.1900 -0.0326
  171MOL0     C23015   3.911   7.347   0.785  0.0432 -0.1919  0.4665
  171MOL0     C23016   3.994   7.320   0.897  0.7382  0.2705 -0.9586
  171MOL0     C23017   3.922   7.251   1.012 -0.2258 -0.7102  0.6622
  171MOL0     H23018   4.552   7.298   1.040  1.4648  1.4456  0.0046
  171MOL0     H23019   4.681   7.258   1.226  0.5256 -0.2489 -1.2806
  171MOL0     H23020   4.703   7.199   1.440 -0.9167  0.5350  0.5421
  171MOL0     H23021   4.822   7.331   1.440 -2.2305  5.3377  0.3373
  171MOL0     H23022   4.765   7.372   1.666 -1.7751 -0.1917  0.7594
  171MOL0     H23023   4.856   7.219   1.636 -0.1028 -0.5431 -0.0680
  171MOL0     H23024   4.555   7.224   1.646 -0.4729 -2.3456 -1.3385
  171MOL0     H23025   4.629   7.202   1.801  0.6881  0.1018 -0.1795
  171MOL0     H23026   4.534   6.998   1.688 -0.9089  2.4046 -0.5539
  171MOL0     H23027   4.658   7.011   1.568 -2.1862 -1.6053  0.5745
  171MOL0     H23028   4.709   6.845   1.714  0.1951  1.5522 -1.4618
  171MOL0     H23029   4.803   6.978   1.790  1.3384 -1.5866 -0.9712
  171MOL0     H23030   4.623   7.002   1.958  0.1682  0.4803  2.1169
  171MOL0     H23031   4.525   6.877   1.884 -0.3466  0.7729  1.8094
  171MOL0     H23032   4.819   6.825   1.972 -0.8532  2.1950 -2.7621
  171MOL0     H23033   4.705   6.705   1.914  0.6683 -2.3139  3.3516
  171MOL0     H23034   4.716   6.663   2.133  2.4812  0.7605 -1.3559
  171MOL0     H23035   4.680   6.838   2.176 -4.2834  2.8044 -1.7160
  171MOL0     H23036   4.495   6.541   1.998  0.0669 -0.2337  1.5891
  171MOL0     H23037   4.191   6.489   1.991 -0.6809 -0.4301  0.5552
  171MOL0     H23038   4.108   6.613   2.100 -1.9966  0.8413 -2.0027
  171MOL0     H23039   4.060   6.607   1.847 -0.5396 -0.7204  0.9266
  171MOL0     H23040   4.094   6.764   1.930  0.0829 -0.4979 -1.2202
  171MOL0     H23041   4.331   6.740   1.841  0.9963  1.2186 -3.2282
  171MOL0     H23042   4.220   6.779   1.722  1.0307 -2.2338 -1.7630
  171MOL0     H23043   4.197   6.574   1.634  2.4660  0.1617 -2.3203
  171MOL0     H23044   4.277   6.498   1.780  1.6467  1.6580  2.4686
  171MOL0     H23045   4.332   6.376   1.574 -0.0382  1.1432  2.1273
  171MOL0     H23046   4.497   6.203   1.454 -1.0248  0.6271 -1.2790
  171MOL0     H23047   4.848   6.159   1.124  0.7072 -1.1624 -3.0810
  171MOL0     H23048   5.015   6.025   1.003  1.1372  0.5247 -0.0778
  171MOL0     H23049   5.159   5.819   1.036 -1.9009  2.1088  1.8134
  171MOL0     H23050   5.174   5.928   0.895  0.5978  2.3635  0.4450
  171MOL0     H23051   5.328   5.748   0.838  3.6788 -1.3127  0.4893
  171MOL0     H23052   5.426   5.870   0.901  1.4027 -1.6845 -1.9494
  171MOL0     H23053   5.431   5.728   1.118  0.6087 -1.0914 -0.3925
  171MOL0     H23054   5.300   5.629   1.055 -0.1703  0.8702  0.2037
  171MOL0     H23055   5.598   5.624   0.957  0.2980 -1.7936 -1.5409
  171MOL0     H23056   5.463   5.563   0.878  1.1905 -1.5050  0.6491
  171MOL0     H23057   5.587   5.409   0.994 -0.3965 -2.4453 -0.7741
  171MOL0     H23058   5.428   5.392   1.057 -2.6602  3.0006  2.7094
  171MOL0     H23059   5.695   5.468   1.166 -0.3530 -1.4995 -2.6726
  171MOL0     H23060   5.569   5.556   1.246 -1.2948  0.4937 -2.2583
  171MOL0     H23061   5.564   5.251   1.208 -2.7265 -0.0626 -0.6413
  171MOL0     H23062   5.453   5.343   1.311  0.4309  0.4873 -0.2302
  171MOL0     H23063   5.746   5.310   1.335  1.2037  2.7535  1.0709
  171MOL0     H23064   5.651   5.415   1.442 -1.0380  2.7776 -2.3780
  171MOL0     H23065   5.302   6.082   1.321  0.2376 -1.0731 -1.3782
  171MOL0     H23066   5.122   6.190   1.446  0.7544 -2.9236  1.7143
  171MOL0     H23067   4.803   6.486   1.477 -0.7302  0.5633 -0.8999
  171MOL0     H23068   4.629   6.661   1.566 -2.0638  1.0134 -0.4466
  171MOL0     H23069   4.398   7.497   1.463 -2.9065 -1.3342 -0.9283
  171MOL0     H23070   4.278   7.545   1.264  0.6268 -0.4843 -1.0801
  171MOL0     H23071   4.284   7.455   0.780 -1.0109  3.9071  0.8224
  171MOL0     H23072   4.144   7.492   0.587  1.6462  0.4366  0.6770
  171MOL0     H23073   3.722   7.407   0.628  0.2814  0.2777 -0.1050
  171MOL0     H23074   3.784   7.295   0.497 -3.3218 -0.0686  0.0888
  171MOL0     H23075   3.702   7.589   0.473 -1.2194  0.1413  0.7721
  171MOL0     H23076   3.598   7.440   0.437 -0.8624  0.7865  1.3492
  171MOL0     H23077   3.727   7.392   0.244 -2.1033  0.5906 -1.4253
  171MOL0     H23078   3.858   7.483   0.296 -0.3502  0.5670 -1.5123
  171MOL0     H23079   3.595   7.631   0.229 -0.3274  0.1937  1.6808
  171MOL0     H23080   3.772   7.690   0.222 -0.3509 -0.0761  2.0404
  171MOL0     H23081   3.739   7.592  -0.155 -0.4594  2.6941  0.3029
  171MOL0     H23082   3.803   7.342   0.791  0.0053  0.9138  0.9956
  171MOL0     H23083   3.972   7.155   1.025 -1.6321 -1.7950 -1.3787
  171MOL0     H23084   3.920   7.317   1.099 -1.4581 -1.4533  1.2265
  171MOL0     H23085   3.818   7.234   0.983 -0.2947  1.4389 -0.5921
  172MOL0     O23086   0.388   0.455   6.522  0.3413  0.3737  0.2016
  172MOL0     C23087   0.436   0.398   6.423 -0.1151  0.3974 -0.1766
  172MOL0     O23088   0.562   0.396   6.394 -0.0145 -0.0068  0.3419
  172MOL0     C23089   0.673   0.425   6.479  0.0364  0.5293 -0.1075
  172MOL0     C23090   0.669   0.442   6.626  0.3062  0.1328  0.1159
  172MOL0     C23091   0.780   0.487   6.694  0.3129 -0.5948 -1.3804
  172MOL0     C23092   0.900   0.512   6.628  0.5149  0.5704 -0.2180
  172MOL0     O23093   1.009   0.563   6.686  0.5412 -0.0201  0.1953
  172MOL0     C23094   1.018   0.576   6.832 -0.1681  0.2196 -0.2579
  172MOL0     C23095   1.161   0.593   6.884 -0.1344 -0.0018  0.8799
  172MOL0     C23096   1.241   0.716   6.822  0.0150  0.5186  0.2945
  172MOL0     C23097   1.265   0.816   6.932  0.8727 -0.0092 -0.6107
  172MOL0     C23098   1.394   0.772   7.007  0.2139 -0.7512 -0.5703
  172MOL0     C23099   1.514   0.841   6.947  0.0601 -1.2172 -0.6418
  172MOL0     C23100   1.632   0.812   7.049  0.0627  0.1837 -0.7877
  172MOL0     C23101   1.617   0.896   7.175  0.2522 -0.4683  0.1685
  172MOL0     N23102   1.740   0.891   7.254 -0.1499 -0.5373 -0.4194
  172MOL0     C23103   1.745   0.826   7.374  0.1194 -0.2791  0.0812
  172MOL0     C23104   1.873   0.839   7.416 -0.0664 -0.4510  0.6731
  172MOL0     C23105   1.932   0.796   7.546 -0.1768 -0.8601  0.5287
  172MOL0     C23106   1.927   0.634   7.553 -0.1940 -0.6079 -0.1791
  172MOL0     C23107   1.983   0.578   7.679 -0.2962  1.1417 -0.6586
  172MOL0     C23108   1.961   0.427   7.709 -0.0634  0.5009  0.0226
  172MOL0     O23109   2.043   0.353   7.614  0.1572 -0.7605  0.3362
  172MOL0     C23110   2.170   0.331   7.659  0.2141 -0.2595 -0.5992
  172MOL0     C23111   2.266   0.420   7.624  0.7139  0.3679 -0.2868
  172MOL0     C23112   2.396   0.406   7.669  0.5182 -1.0090  0.6049
  172MOL0     C23113   2.437   0.298   7.751  0.2778  0.3470  0.4151
  172MOL0     C23114   2.574   0.288   7.795 -0.2125  1.3377 -0.7344
  172MOL0     O23115   2.600   0.178   7.874  1.0948  0.7379 -0.2539
  172MOL0     C23116   2.734   0.161   7.893  0.0683  0.8827 -0.4357
  172MOL0     C23117   2.814   0.236   7.990  0.1465 -0.8544  0.1028
  172MOL0     C23118   2.944   0.206   8.010 -0.6238  0.7498  0.0655
  172MOL0     C23119   3.009   0.109   7.933  0.6425  0.0581  0.0019
  172MOL0     O23120   3.139   0.098   7.964 -0.1513  0.0500 -0.0853
  172MOL0     C23121   3.193  -0.034   7.937 -0.0268 -0.5598 -0.7608
  172MOL0     C23122   3.346  -0.047   7.966 -0.0218 -0.3470  0.1354
  172MOL0     C23123   3.408  -0.181   7.947 -0.3715  0.8207 -0.5655
  172MOL0     C23124   3.555  -0.160   7.974 -1.2141  0.7459  0.4778
  172MOL0     C23125   3.630  -0.298   7.950  0.0829 -0.0093 -0.5409
  172MOL0     C23126   3.781  -0.279   7.974 -0.2564 -0.0678  0.0666
  172MOL0     C23127   3.846  -0.421   7.975 -0.5087  0.0017 -0.3481
  172MOL0     C23128   3.994  -0.408   8.026  0.0020  0.2484  0.0069
  172MOL0    Cl23129   4.081  -0.558   8.024  0.0120 -0.1409 -0.3134
  172MOL0     C23130   2.928   0.027   7.844 -0.2599  0.2375  0.0434
  172MOL0     C23131   2.796   0.052   7.826  0.8531 -0.2013  0.0684
  172MOL0     O23132   2.655   0.373   7.764 -0.0028  0.1558  0.5831
  172MOL0     C23133   2.339   0.201   7.784 -1.0922 -0.1650  0.7540
  172MOL0     C23134   2.204   0.221   7.739 -0.2054 -0.2134 -1.1124
  172MOL0     N23135   1.939   0.916   7.316  0.4897  0.8434  0.0882
  172MOL0     N23136   1.855   0.947   7.221 -0.2415  0.0334  0.4444
  172MOL0     C23137   0.897   0.503   6.494  0.3336  0.5077  0.2681
  172MOL0     C23138   0.796   0.451   6.420  0.6396 -0.2963  0.5536
  172MOL0     C23139   0.341   0.378   6.313 -1.2336 -0.0014  1.0704
  172MOL0     C23140   0.383   0.398   6.180 -0.2736 -0.2089  1.0661
  172MOL0     C23141   0.289   0.370   6.082  0.5717  0.2294  0.1176
  172MOL0     C23142   0.161   0.331   6.101  0.8995 -0.6491 -0.4569
  172MOL0     O23143   0.072   0.309   6.001 -0.9646 -0.9020  0.0108
  172MOL0     C23144   0.033   0.166   5.972  0.5980 -0.6304  0.5262
  172MOL0     C23145   0.120   0.086   5.872  0.1826  0.6094  0.2389
  172MOL0     C23146   0.112   0.147   5.729 -0.1630  0.4522 -0.3258
  172MOL0     C23147   0.217   0.071   5.629 -0.7211 -0.4698 -0.5512
  172MOL0     C23148   0.357   0.096   5.666 -0.1746  0.0448  0.2912
  172MOL0     C23149   0.480   0.113   5.696 -0.5491  0.5990 -0.4449
  172MOL0     C23150   0.119   0.316   6.238 -1.1020  0.2198  0.0758
  172MOL0     C23151   0.215   0.325   6.341 -0.7495 -0.4037 -0.1828
  172MOL0     C23152   0.164   0.295   6.479 -1.1172  0.3704 -0.3460
  172MOL0     H23153   0.575   0.420   6.677  1.1349 -2.3169  0.7652
  172MOL0     H23154   0.774   0.488   6.802  0.8266 -1.7380 -1.3230
  172MOL0     H23155   0.958   0.662   6.864 -0.7453 -0.0822 -0.4948
  172MOL0     H23156   0.980   0.487   6.884  1.1971 -0.2517 -0.0246
  172MOL0     H23157   1.202   0.499   6.845 -3.8040 -0.4516 -2.4930
  172MOL0     H23158   1.160   0.581   6.993 -0.5248 -2.1529  0.6898
  172MOL0     H23159   1.180   0.761   6.743  0.2981  0.0937 -0.1706
  172MOL0     H23160   1.331   0.677   6.774 -0.9107 -0.4563 -0.7311
  172MOL0     H23161   1.282   0.919   6.901  1.5859  0.7921  2.1894
  172MOL0     H23162   1.180   0.805   6.999 -1.2812 -0.3409 -3.2145
  172MOL0     H23163   1.380   0.805   7.110 -2.2285 -2.7314 -0.1804
  172MOL0     H23164   1.408   0.664   7.019  2.9379 -0.1493  3.5312
  172MOL0     H23165   1.540   0.800   6.849  0.9897  1.9174 -1.8103
  172MOL0     H23166   1.501   0.949   6.944  3.3589 -0.7283 -3.5689
  172MOL0     H23167   1.726   0.839   7.001  0.1139  1.5870  0.0313
  172MOL0     H23168   1.628   0.708   7.083 -5.5623  0.4802  0.4907
  172MOL0     H23169   1.599   1.000   7.145  0.1351 -1.0479 -1.9063
  172MOL0     H23170   1.536   0.853   7.235 -1.0356  0.4603 -0.8403
  172MOL0     H23171   1.666   0.770   7.424  2.2052  0.3814  4.5445
  172MOL0     H23172   2.021   0.856   7.567 -1.9468  1.1978  2.6688
  172MOL0     H23173   1.858   0.824   7.621  1.0736  1.2603  1.0433
  172MOL0     H23174   1.821   0.608   7.555 -0.0700 -1.1986  2.8287
  172MOL0     H23175   1.986   0.598   7.469  0.6019 -1.9749  0.9220
  172MOL0     H23176   1.920   0.635   7.747 -3.0300 -2.4222  0.0966
  172MOL0     H23177   2.092   0.593   7.683  0.3868 -1.9527 -3.2296
  172MOL0     H23178   1.861   0.391   7.685  1.2362 -0.9252 -4.1303
  172MOL0     H23179   1.983   0.402   7.813 -3.6996  0.2287  0.8420
  172MOL0     H23180   2.251   0.498   7.550 -1.2888  1.1988  0.9092
  172MOL0     H23181   2.468   0.482   7.640  0.0820 -0.7530  0.1673
  172MOL0     H23182   2.773   0.303   8.065 -0.3206  0.3186 -1.1653
  172MOL0     H23183   3.013   0.245   8.084  0.7635 -0.9381 -0.2740
  172MOL0     H23184   3.144  -0.119   7.985  1.2472  0.0759  1.8468
  172MOL0     H23185   3.192  -0.052   7.829  3.2712  1.3107 -1.2615
  172MOL0     H23186   3.400   0.022   7.901  0.1357 -1.6257 -1.1402
  172MOL0     H23187   3.364  -0.023   8.072  1.1812  1.0603 -0.3571
  172MOL0     H23188   3.370  -0.261   8.012  1.0211  1.0963  0.6249
  172MOL0     H23189   3.395  -0.219   7.845  0.6154 -0.9317 -0.0812
  172MOL0     H23190   3.573  -0.129   8.077  0.7291 -0.7617  0.6582
  172MOL0     H23191   3.603  -0.090   7.904 -2.5071 -1.2154 -2.6179
  172MOL0     H23192   3.596  -0.334   7.852  0.4398  1.5712 -1.2857
  172MOL0     H23193   3.595  -0.368   8.026 -0.2501  0.6906 -0.0387
  172MOL0     H23194   3.825  -0.216   7.895  2.3753 -2.4723 -0.5492
  172MOL0     H23195   3.797  -0.229   8.069 -0.0108  2.2455 -1.1181
  172MOL0     H23196   3.836  -0.459   7.873 -1.6934 -1.0249  0.1177
  172MOL0     H23197   3.786  -0.487   8.040  2.3701 -1.7958  0.6656
  172MOL0     H23198   4.050  -0.331   7.972 -2.4146  1.6139 -0.7390
  172MOL0     H23199   3.989  -0.382   8.132  0.1230 -3.6558  1.1296
  172MOL0     H23200   2.978  -0.056   7.796 -1.3287 -0.3592 -0.0652
  172MOL0     H23201   2.727  -0.011   7.770 -1.0465  0.0166  2.0191
  172MOL0     H23202   2.372   0.123   7.852 -2.9003 -0.0942  1.7798
  172MOL0     H23203   2.125   0.153   7.770  1.2939 -0.2490  3.3517
  172MOL0     H23204   0.989   0.527   6.442  1.0797 -2.5317 -0.0012
  172MOL0     H23205   0.801   0.431   6.313 -0.8789 -2.2981  0.7898
  172MOL0     H23206   0.482   0.426   6.148  0.1833 -3.4355 -0.6619
  172MOL0     H23207   0.317   0.379   5.977 -3.4752 -1.5299 -1.3159
  172MOL0     H23208  -0.070   0.159   5.934  1.0978 -2.0370 -0.6551
  172MOL0     H23209   0.029   0.117   6.070  1.8883  1.3792  1.6402
  172MOL0     H23210   0.069  -0.010   5.865  1.3134 -0.0952  1.2379
  172MOL0     H23211   0.223   0.078   5.907  0.6409 -2.3666 -1.4604
  172MOL0     H23212   0.141   0.252   5.732 -0.5125  0.7321 -3.4466
  172MOL0     H23213   0.008   0.150   5.695  0.1645 -1.0883 -1.5810
  172MOL0     H23214   0.197  -0.036   5.639 -1.6521 -0.3140 -0.7100
  172MOL0     H23215   0.198   0.093   5.524  1.1955 -1.3648 -1.1395
  172MOL0     H23216   0.582   0.125   5.727 -0.9656  1.0633  0.7987
  172MOL0     H23217   0.014   0.292   6.254 -0.5833 -1.3151  1.5115
  172MOL0     H23218   0.236   0.231   6.530 -3.1725 -2.2634 -0.5390
  172MOL0     H23219   0.146   0.386   6.538  3.4693 -0.4143  2.8234
  172MOL0     H23220   0.074   0.233   6.488  0.1258 -1.7181 -1.5761
  173MOL0     O23221   0.244   7.812   8.583 -0.1021 -0.0888 -0.5200
  173MOL0     C23222   0.252   7.770   8.467 -0.6505 -0.4869 -0.4520
  173MOL0     O23223   0.376   7.744   8.409 -0.0360  0.0124  0.6997
  173MOL0     C23224   0.488   7.769   8.491  0.5047  0.0931 -0.8967
  173MOL0     C23225   0.569   7.660   8.534  0.7772 -0.6723 -0.1391
  173MOL0     C23226   0.693   7.684   8.599  0.3989 -0.5521 -0.0858
  173MOL0     C23227   0.734   7.815   8.624 -0.7614  0.4484  0.1770
  173MOL0     O23228   0.860   7.825   8.687 -1.1139  0.2811  0.7987
  173MOL0     C23229   0.872   7.924   8.787  0.6134  0.1925  0.4516
  173MOL0     C23230   1.018   7.941   8.812 -0.1459 -0.3877 -0.1902
  173MOL0     C23231   1.077   7.807   8.881 -0.2512 -0.8151  0.6487
  173MOL0     C23232   1.226   7.842   8.912  0.8186 -0.1876  0.1726
  173MOL0     C23233   1.306   7.738   8.996 -0.3288 -0.6262 -0.2374
  173MOL0     C23234   1.462   7.778   9.010  0.9541 -0.5646  0.0502
  173MOL0     C23235   1.532   7.656   9.090 -0.0875 -0.1874 -0.1281
  173MOL0     C23236   1.536   7.518   9.010 -0.0129  0.3434  1.1543
  173MOL0     N23237   1.585   7.396   9.078 -0.3790  0.0715  0.1966
  173MOL0     C23238   1.670   7.391   9.184  0.2875  0.5005 -1.4887
  173MOL0     C23239   1.690   7.253   9.216 -0.4703  0.6176  0.0485
  173MOL0     C23240   1.781   7.177   9.313  0.7024  0.5966  0.2533
  173MOL0     C23241   1.928   7.179   9.264  0.5373  0.2059 -0.4446
  173MOL0     C23242   1.952   7.125   9.116  0.2530  1.1925 -0.0464
  173MOL0     C23243   1.907   6.979   9.096  0.0307 -0.1465  0.8190
  173MOL0     O23244   1.985   6.878   9.165 -0.0574  0.1088  0.2535
  173MOL0     C23245   2.117   6.843   9.142 -0.0695  0.0961 -0.1365
  173MOL0     C23246   2.193   6.902   9.036  0.4543  0.4405 -0.6048
  173MOL0     C23247   2.321   6.860   9.021  0.1063 -0.0994  0.7320
  173MOL0     C23248   2.383   6.755   9.093  0.3189 -0.2996 -0.1504
  173MOL0     C23249   2.526   6.715   9.070  0.3319 -0.0759  0.1573
  173MOL0     O23250   2.595   6.716   8.945 -0.1538 -0.2708  0.2126
  173MOL0     C23251   2.708   6.647   8.922  0.1835 -0.2669 -0.5399
  173MOL0     C23252   2.755   6.538   9.001  0.0327  0.5965  0.1983
  173MOL0     C23253   2.863   6.461   8.956 -0.7225 -0.8452  0.1132
  173MOL0     C23254   2.936   6.507   8.841  0.7803 -0.1653 -0.9627
  173MOL0     O23255   3.036   6.436   8.783  0.5913 -0.1958 -0.1994
  173MOL0     C23256   3.070   6.309   8.838 -0.0310 -0.5702  0.2257
  173MOL0     C23257   3.173   6.312   8.953  0.4591  0.1674  0.1167
  173MOL0     C23258   3.297   6.398   8.919  0.2787 -0.4738 -0.0736
  173MOL0     C23259   3.375   6.360   8.798 -0.0833 -0.1784  0.0945
  173MOL0     C23260   3.497   6.452   8.775  0.1555  0.7390  0.0755
  173MOL0     C23261   3.564   6.405   8.646 -0.1266 -0.2212  1.2110
  173MOL0     C23262   3.691   6.487   8.620 -0.2822  0.0993 -1.1234
  173MOL0     C23263   3.673   6.625   8.557 -0.0702 -0.2275  0.3330
  173MOL0    Cl23264   3.593   6.620   8.402  0.1925  0.1400 -0.1629
  173MOL0     C23265   2.899   6.626   8.777  0.4700  0.1708  0.3473
  173MOL0     C23266   2.782   6.689   8.816 -0.4690  0.0235 -0.6329
  173MOL0     O23267   2.583   6.689   9.171 -0.0852  0.5871 -0.2451
  173MOL0     C23268   2.312   6.703   9.201 -0.1966 -0.7358 -0.0106
  173MOL0     C23269   2.182   6.748   9.228 -0.0745 -0.2213 -0.4566
  173MOL0     N23270   1.615   7.187   9.106  0.6269 -0.4260  0.0751
  173MOL0     N23271   1.573   7.277   9.025  0.0309 -0.5048 -0.0302
  173MOL0     C23272   0.653   7.922   8.581 -0.5762  0.2174  0.3337
  173MOL0     C23273   0.528   7.900   8.512  0.4699  0.5009  0.0270
  173MOL0     C23274   0.125   7.731   8.412 -0.7553 -0.4755  0.8906
  173MOL0     C23275   0.008   7.792   8.454 -0.2758 -0.6278  0.9188
  173MOL0     C23276  -0.106   7.761   8.395  0.0796  1.1283 -0.5920
  173MOL0     C23277  -0.122   7.658   8.310  0.1566 -0.8123 -0.4567
  173MOL0     O23278  -0.244   7.610   8.269 -0.2045  0.6625  0.6715
  173MOL0     C23279  -0.367   7.672   8.310  0.0680 -0.9539  0.2921
  173MOL0     C23280  -0.476   7.582   8.269 -0.1525  0.7401 -0.4094
  173MOL0     C23281  -0.442   7.435   8.316  0.9002 -0.1966 -0.6101
  173MOL0     C23282  -0.563   7.339   8.293 -0.3225  0.0007 -0.3319
  173MOL0     C23283  -0.608   7.336   8.155  1.4632  0.7397 -0.1948
  173MOL0     C23284  -0.661   7.325   8.045  0.0525 -0.0091  0.1761
  173MOL0     C23285  -0.007   7.601   8.260 -0.1468 -0.8771 -0.6776
  173MOL0     C23286   0.117   7.627   8.308  0.1820  0.3104  0.3695
  173MOL0     C23287   0.242   7.553   8.251  0.0738  0.3752  0.7551
  173MOL0     H23288   0.542   7.557   8.512 -0.1020 -0.3550 -0.6028
  173MOL0     H23289   0.761   7.604   8.626  1.1041  0.8401  2.5054
  173MOL0     H23290   0.832   8.018   8.749  2.9873  0.0070 -2.9907
  173MOL0     H23291   0.825   7.894   8.881 -0.6074  0.9706  0.1041
  173MOL0     H23292   1.039   8.032   8.869  0.3847  0.7089 -2.0397
  173MOL0     H23293   1.075   7.950   8.718  0.1159 -0.1278 -0.0068
  173MOL0     H23294   1.074   7.726   8.808  0.3735  0.2485 -0.6075
  173MOL0     H23295   1.025   7.777   8.972  2.1635  1.4407  2.9251
  173MOL0     H23296   1.275   7.852   8.814 -0.6096 -3.9407 -1.0771
  173MOL0     H23297   1.221   7.943   8.954 -1.5376 -0.6344  1.1342
  173MOL0     H23298   1.253   7.736   9.092 -0.9210  0.9801 -0.5032
  173MOL0     H23299   1.288   7.642   8.948 -1.0014  0.4855 -2.3433
  173MOL0     H23300   1.496   7.791   8.906 -5.5034  1.0812 -2.3581
  173MOL0     H23301   1.464   7.869   9.071 -0.3400 -1.5101  1.5505
  173MOL0     H23302   1.472   7.640   9.181  0.7947 -3.0693  0.0474
  173MOL0     H23303   1.635   7.687   9.113  0.0153 -0.9489  0.4980
  173MOL0     H23304   1.431   7.493   8.989  0.0699 -1.6848  2.8220
  173MOL0     H23305   1.590   7.528   8.915 -0.3838  1.0979  1.0143
  173MOL0     H23306   1.707   7.474   9.244  3.2135 -2.3088  1.0100
  173MOL0     H23307   1.787   7.215   9.416  0.3666 -3.0419  1.7772
  173MOL0     H23308   1.731   7.080   9.311 -2.7236  2.1190 -3.6155
  173MOL0     H23309   1.973   7.277   9.282  2.1933 -0.6400  0.2521
  173MOL0     H23310   1.973   7.114   9.340 -0.5240  1.8116  1.6729
  173MOL0     H23311   2.053   7.124   9.076  0.6370  3.2066  0.7428
  173MOL0     H23312   1.907   7.204   9.055 -0.1425  0.5987 -0.5266
  173MOL0     H23313   1.911   6.968   8.988  0.3128 -0.0336  0.8173
  173MOL0     H23314   1.800   6.962   9.114  0.3447 -2.0792  1.0942
  173MOL0     H23315   2.142   6.972   8.971  0.2636  2.8347  1.9632
  173MOL0     H23316   2.384   6.911   8.949 -1.6092  1.1602  0.0520
  173MOL0     H23317   2.698   6.509   9.088 -1.4473  2.0741 -0.2238
  173MOL0     H23318   2.881   6.375   9.020 -0.6714  0.1823  1.5060
  173MOL0     H23319   2.979   6.252   8.860 -3.2372  3.0862 -2.2537
  173MOL0     H23320   3.111   6.245   8.759 -0.2347 -2.3092  1.4634
  173MOL0     H23321   3.128   6.360   9.040  2.4192  0.2602  1.1207
  173MOL0     H23322   3.211   6.214   8.983  2.8119  1.1098  0.3972
  173MOL0     H23323   3.254   6.499   8.911  1.1536 -0.2082 -1.8630
  173MOL0     H23324   3.361   6.398   9.008  0.7097 -2.2196 -0.3490
  173MOL0     H23325   3.310   6.348   8.711  2.3944  0.7751 -2.0242
  173MOL0     H23326   3.421   6.265   8.828  1.3860  0.5928  0.3660
  173MOL0     H23327   3.553   6.437   8.867 -0.2591  0.1900  0.2506
  173MOL0     H23328   3.468   6.557   8.765 -0.9911  0.4344  0.0382
  173MOL0     H23329   3.589   6.301   8.666 -2.9219 -1.1922  0.0465
  173MOL0     H23330   3.497   6.401   8.560  0.3136 -3.4008  0.9142
  173MOL0     H23331   3.747   6.440   8.539 -0.7319 -1.8192 -0.3805
  173MOL0     H23332   3.756   6.492   8.708  0.9139 -0.4098 -1.9579
  173MOL0     H23333   3.626   6.697   8.624 -1.3159 -1.3321  0.6770
  173MOL0     H23334   3.775   6.662   8.541  0.1060 -0.0895  1.6526
  173MOL0     H23335   2.964   6.650   8.694 -0.0681  0.9671  0.1541
  173MOL0     H23336   2.742   6.770   8.756 -0.4560  2.2127  2.0859
  173MOL0     H23337   2.358   6.633   9.270 -0.0445  1.7642  2.6336
  173MOL0     H23338   2.118   6.716   9.310  0.3872 -3.7299 -1.3041
  173MOL0     H23339   0.687   8.024   8.596 -1.1934  0.2807  1.3740
  173MOL0     H23340   0.465   7.980   8.475  0.2329 -0.3694 -1.5474
  173MOL0     H23341   0.007   7.869   8.530  1.6911 -1.1665  1.5543
  173MOL0     H23342  -0.193   7.813   8.435  2.3698  2.3713  3.3183
  173MOL0     H23343  -0.365   7.775   8.274  1.3065 -0.0589  2.6500
  173MOL0     H23344  -0.374   7.686   8.419 -2.0244  0.9062 -0.0238
  173MOL0     H23345  -0.479   7.578   8.160  3.1568  1.3766 -0.6285
  173MOL0     H23346  -0.576   7.606   8.306  0.5333  2.3288  0.5357
  173MOL0     H23347  -0.403   7.427   8.418 -0.3810 -1.5329 -0.1981
  173MOL0     H23348  -0.369   7.395   8.244  1.2992 -1.8765  0.6574
  173MOL0     H23349  -0.514   7.243   8.314  2.0178  0.9492 -1.1111
  173MOL0     H23350  -0.646   7.362   8.360  1.0513 -1.9979  2.2693
  173MOL0     H23351  -0.717   7.311   7.955  2.0709  3.3943 -1.8330
  173MOL0     H23352  -0.012   7.537   8.172 -0.8973  2.3541 -3.1823
  173MOL0     H23353   0.195   7.467   8.202  0.7233  0.0984  0.6103
  173MOL0     H23354   0.298   7.611   8.177 -0.0144 -1.1812 -0.6008
  173MOL0     H23355   0.305   7.516   8.332  1.7685  2.9967  0.7474
  174MOL0     O23356   3.826   8.718  10.037  0.1914 -0.4113 -0.2062
  174MOL0     C23357   3.804   8.599  10.064  0.1157 -0.5839  0.6048
  174MOL0     O23358   3.893   8.502  10.089 -0.3099 -0.5291 -0.7242
  174MOL0     C23359   4.024   8.528  10.106  0.9563  0.2435  0.1831
  174MOL0     C23360   4.099   8.426  10.064 -0.2296  0.6339 -0.0624
  174MOL0     C23361   4.243   8.424  10.071 -0.5928 -0.2717  0.1513
  174MOL0     C23362   4.306   8.541  10.104 -0.4201 -0.1434 -0.3707
  174MOL0     O23363   4.439   8.531  10.102 -0.3248 -0.2522 -0.1081
  174MOL0     C23364   4.507   8.640  10.051 -0.4383  1.2979 -0.1815
  174MOL0     C23365   4.660   8.617  10.044 -0.4368  0.8073  0.0852
  174MOL0     C23366   4.713   8.519   9.937  0.6307  0.4982  0.7222
  174MOL0     C23367   4.802   8.598   9.831 -0.1025  1.3209  0.3101
  174MOL0     C23368   4.828   8.515   9.698 -0.2881 -0.1599  0.7587
  174MOL0     C23369   4.934   8.573   9.605  0.2743  0.1433  0.0750
  174MOL0     C23370   4.976   8.482   9.484 -0.8085 -0.1823  0.2618
  174MOL0     C23371   5.061   8.360   9.525  0.4411  0.3502 -0.8371
  174MOL0     N23372   5.118   8.293   9.408 -0.1555  0.6023  0.7199
  174MOL0     C23373   5.223   8.339   9.327 -0.2182 -0.3761  0.1796
  174MOL0     C23374   5.234   8.241   9.226 -0.7793 -0.3848 -0.1075
  174MOL0     C23375   5.334   8.233   9.111  0.0048  0.6491  0.2268
  174MOL0     C23376   5.423   8.108   9.112  0.4387 -0.9529  0.4902
  174MOL0     C23377   5.540   8.104   9.009  1.1941 -0.7339 -0.6280
  174MOL0     C23378   5.609   7.964   8.989 -0.0434  0.2250  0.6794
  174MOL0     O23379   5.706   7.942   9.091  0.0513  0.2323 -0.1637
  174MOL0     C23380   5.836   7.982   9.076 -0.3444 -0.4480  0.3603
  174MOL0     C23381   5.883   8.086   9.147 -0.5289 -0.1112  0.3803
  174MOL0     C23382   6.011   8.137   9.109  0.0767 -0.2973 -0.4628
  174MOL0     C23383   6.080   8.087   9.004  0.7677  0.0765  0.5000
  174MOL0     C23384   6.221   8.150   8.966 -0.2479 -0.5197 -0.4505
  174MOL0     O23385   6.290   8.088   8.862  0.2052 -0.5943  0.6908
  174MOL0     C23386   6.402   8.157   8.819 -0.5197 -0.7433 -0.0165
  174MOL0     C23387   6.527   8.114   8.857  0.1980 -0.5105 -0.0138
  174MOL0     C23388   6.648   8.170   8.818 -0.2830 -0.0955 -0.4171
  174MOL0     C23389   6.648   8.273   8.723  0.0259 -0.6987  0.1330
  174MOL0     O23390   6.774   8.334   8.696  0.7828 -0.0694  0.4350
  174MOL0     C23391   6.764   8.464   8.638 -0.0520  0.1688  0.1899
  174MOL0     C23392   6.900   8.526   8.599 -0.0655  0.2690 -0.1659
  174MOL0     C23393   6.987   8.454   8.505 -0.0458  1.3342  0.2772
  174MOL0     C23394   6.951   8.443   8.353  0.3017 -0.5297  0.4892
  174MOL0     C23395   7.081   8.409   8.275 -0.1180 -0.1157  0.2245
  174MOL0     C23396   7.119   8.254   8.270  0.1387 -0.2216 -0.8638
  174MOL0     C23397   7.263   8.232   8.206  0.4751 -0.8180  0.4029
  174MOL0     C23398   7.296   8.081   8.206 -0.2045 -0.0138 -0.6953
  174MOL0    Cl23399   7.229   8.001   8.067 -0.1261 -0.0040  0.0099
  174MOL0     C23400   6.524   8.319   8.677  0.4211  0.7564  0.1934
  174MOL0     C23401   6.403   8.269   8.731 -0.5164 -0.4112  0.7352
  174MOL0     O23402   6.260   8.254   9.021 -0.5503 -0.1320  0.3573
  174MOL0     C23403   6.039   7.971   8.929  0.0148  0.1150  0.4281
  174MOL0     C23404   5.908   7.932   8.969  0.6117  0.4142 -0.9778
  174MOL0     N23405   5.155   8.137   9.263  0.3639  0.2019  0.7544
  174MOL0     N23406   5.082   8.170   9.368  0.9049  0.3993  0.6381
  174MOL0     C23407   4.228   8.651  10.148 -0.1684 -0.6478 -0.1710
  174MOL0     C23408   4.091   8.645  10.144  0.5840  0.2375  0.9107
  174MOL0     C23409   3.663   8.544  10.037  0.4563  0.1562 -0.6156
  174MOL0     C23410   3.651   8.409  10.005 -0.5490  0.9202 -0.0500
  174MOL0     C23411   3.528   8.348   9.992  0.1114 -0.2938 -0.7283
  174MOL0     C23412   3.408   8.422   9.995  0.7234 -0.0469  0.0889
  174MOL0     O23413   3.280   8.372   9.969  0.0952  0.2187  0.0441
  174MOL0     C23414   3.274   8.253   9.885  0.2994 -0.6308 -0.1987
  174MOL0     C23415   3.122   8.218   9.847 -0.3311  0.0168 -0.1699
  174MOL0     C23416   3.025   8.245   9.966  0.6276 -0.5468 -0.0842
  174MOL0     C23417   2.901   8.152   9.983  0.3305 -0.0569 -0.0733
  174MOL0     C23418   2.945   8.015  10.024 -0.7050  0.1630  0.6580
  174MOL0     C23419   2.988   7.907  10.047  0.0900  0.3020 -0.3338
  174MOL0     C23420   3.418   8.558  10.033 -1.0979 -0.2063 -0.1331
  174MOL0     C23421   3.549   8.627  10.049  0.0670  0.0098  0.1478
  174MOL0     C23422   3.552   8.769  10.100  0.2237 -0.9979  1.0250
  174MOL0     H23423   4.051   8.333  10.035  2.6925 -1.8745  2.3696
  174MOL0     H23424   4.301   8.336  10.046 -2.1663 -0.8164 -1.8555
  174MOL0     H23425   4.466   8.665   9.952 -0.7583  2.1398  0.1521
  174MOL0     H23426   4.495   8.728  10.115  0.6162  0.4059  1.2888
  174MOL0     H23427   4.701   8.585  10.140 -1.0488  0.8163  0.3535
  174MOL0     H23428   4.700   8.716  10.023  2.6435 -0.3972 -0.2473
  174MOL0     H23429   4.620   8.472   9.903 -0.2122  0.7153  2.5940
  174MOL0     H23430   4.768   8.438   9.987 -0.7548  1.8516  4.9050
  174MOL0     H23431   4.750   8.688   9.797 -1.2122 -0.7994 -4.4600
  174MOL0     H23432   4.894   8.634   9.878 -0.1262  2.1829 -0.2873
  174MOL0     H23433   4.869   8.418   9.727  2.6799  0.5285 -0.7603
  174MOL0     H23434   4.733   8.492   9.648 -0.2157 -4.3882  2.1464
  174MOL0     H23435   4.894   8.662   9.555 -0.1820 -0.5568 -0.8448
  174MOL0     H23436   5.022   8.603   9.662  3.4888 -2.2116 -3.1626
  174MOL0     H23437   5.021   8.553   9.413 -2.9450  1.5847  0.5555
  174MOL0     H23438   4.874   8.459   9.453 -2.1930 -1.0125  4.7400
  174MOL0     H23439   5.142   8.384   9.594  1.6707 -0.6484 -1.8965
  174MOL0     H23440   4.985   8.298   9.575  2.2482 -2.1764 -1.0562
  174MOL0     H23441   5.273   8.435   9.336  1.9601 -1.5081  0.9453
  174MOL0     H23442   5.272   8.236   9.021 -1.2705 -1.1344  0.9904
  174MOL0     H23443   5.397   8.323   9.110 -0.1460  0.7618  0.6006
  174MOL0     H23444   5.459   8.086   9.213  1.9641  1.3365  0.4986
  174MOL0     H23445   5.363   8.018   9.092 -0.7405  0.1679 -1.2357
  174MOL0     H23446   5.607   8.187   9.035  0.7406 -0.8011  0.8643
  174MOL0     H23447   5.481   8.124   8.919 -1.0168 -0.0399  0.8707
  174MOL0     H23448   5.647   7.967   8.887 -2.2713  3.4239 -0.1941
  174MOL0     H23449   5.533   7.885   8.992 -0.1288  0.1533 -1.7687
  174MOL0     H23450   5.812   8.134   9.213  0.5590  0.3312  1.2490
  174MOL0     H23451   6.053   8.224   9.158 -1.5377  0.5139 -0.4887
  174MOL0     H23452   6.545   8.036   8.932  2.9232 -0.2139 -0.2535
  174MOL0     H23453   6.744   8.140   8.860 -0.3686  0.4529  0.1918
  174MOL0     H23454   6.714   8.454   8.541  0.0500 -2.0341  0.3139
  174MOL0     H23455   6.716   8.536   8.705  1.1925  0.9144  0.3107
  174MOL0     H23456   6.888   8.630   8.568  1.6990  1.4373  2.6210
  174MOL0     H23457   6.959   8.537   8.690  2.9386  2.1899 -2.1407
  174MOL0     H23458   7.080   8.511   8.519  1.2490 -1.3414  4.1212
  174MOL0     H23459   7.011   8.353   8.540 -1.6508  1.6084  2.4297
  174MOL0     H23460   6.917   8.544   8.328 -2.5658 -1.1569  1.4372
  174MOL0     H23461   6.868   8.374   8.337  0.6378 -2.2067  4.7294
  174MOL0     H23462   7.166   8.469   8.308  0.1659 -0.9198  0.9899
  174MOL0     H23463   7.066   8.441   8.171 -0.7385 -2.7390 -0.5762
  174MOL0     H23464   7.140   8.224   8.373 -0.6209 -0.0704 -0.6592
  174MOL0     H23465   7.037   8.199   8.223 -0.3004 -1.1837  0.9203
  174MOL0     H23466   7.334   8.295   8.261 -1.2426  0.4675  1.2720
  174MOL0     H23467   7.259   8.256   8.099 -1.4375  1.1215  0.8294
  174MOL0     H23468   7.406   8.085   8.211 -0.2646  2.5872  0.1580
  174MOL0     H23469   7.251   8.027   8.290  1.3850 -0.5228 -0.1254
  174MOL0     H23470   6.525   8.406   8.612  3.1593 -0.2781 -1.3427
  174MOL0     H23471   6.306   8.307   8.702  0.9312  1.8722 -1.5642
  174MOL0     H23472   6.085   7.919   8.845 -1.7223 -0.5746 -0.1483
  174MOL0     H23473   5.854   7.851   8.921 -0.0292  0.2085  0.0536
  174MOL0     H23474   4.265   8.750  10.174 -0.3157 -0.5208 -0.4443
  174MOL0     H23475   4.037   8.731  10.182 -0.5705 -0.1483  0.1996
  174MOL0     H23476   3.732   8.339   9.989 -2.6439 -1.5448 -0.5499
  174MOL0     H23477   3.521   8.245   9.960  2.3569 -0.0006 -2.4249
  174MOL0     H23478   3.319   8.170   9.941  2.3711 -0.5135 -1.5742
  174MOL0     H23479   3.327   8.259   9.789  2.0823 -0.5537  0.7460
  174MOL0     H23480   3.130   8.115   9.812  4.4855 -0.5429  1.6721
  174MOL0     H23481   3.100   8.287   9.765  1.6990  0.6053 -0.2821
  174MOL0     H23482   2.977   8.340   9.940 -1.6654 -2.2199 -2.5853
  174MOL0     H23483   3.081   8.248  10.059  0.5377 -0.9223 -0.0159
  174MOL0     H23484   2.829   8.204  10.047 -1.6434 -0.5316 -1.8205
  174MOL0     H23485   2.847   8.143   9.889 -0.6355 -0.3747  0.4958
  174MOL0     H23486   3.036   7.813  10.067  1.2086  1.0789  0.8015
  174MOL0     H23487   3.326   8.614  10.049 -1.3062 -0.9721  1.5317
  174MOL0     H23488   3.451   8.800  10.126 -0.7307 -2.1797 -1.0441
  174MOL0     H23489   3.623   8.783  10.183  3.5039  0.1528 -1.7347
  174MOL0     H23490   3.584   8.838  10.021 -1.7828 -1.0152  0.1475
  175MOL0     O23491   7.392   8.105   5.508 -0.3374  0.2182 -0.8281
  175MOL0     C23492   7.437   8.189   5.429 -0.1328  0.1814  0.0523
  175MOL0     O23493   7.569   8.219   5.410  0.4469  0.4116 -0.1907
  175MOL0     C23494   7.666   8.169   5.489  0.6523  1.3489 -0.4888
  175MOL0     C23495   7.756   8.086   5.416 -0.7637 -0.1016 -0.1906
  175MOL0     C23496   7.862   8.020   5.485 -0.1783 -0.5536 -0.0196
  175MOL0     C23497   7.878   8.053   5.616  0.0722 -0.8174  0.0136
  175MOL0     O23498   7.980   8.000   5.691 -0.2553  0.5419 -0.0137
  175MOL0     C23499   8.089   7.933   5.635 -0.5694 -0.0137 -0.0084
  175MOL0     C23500   8.184   7.892   5.749  0.1347 -0.1237 -0.1216
  175MOL0     C23501   8.297   7.818   5.693  0.8918 -0.5856  0.5382
  175MOL0     C23502   8.369   7.734   5.803  0.3696  0.3081 -0.1927
  175MOL0     C23503   8.479   7.642   5.741 -0.6669  0.3037 -0.0477
  175MOL0     C23504   8.532   7.557   5.858 -0.2300 -0.2488  0.0409
  175MOL0     C23505   8.627   7.451   5.801 -0.2929  0.9103 -0.2566
  175MOL0     C23506   8.691   7.356   5.900 -0.0376 -0.1776 -0.0644
  175MOL0     N23507   8.801   7.274   5.843 -0.4752  0.1523 -0.8563
  175MOL0     C23508   8.774   7.163   5.761  0.0487 -0.2499  0.5102
  175MOL0     C23509   8.891   7.099   5.741  0.1337  0.3895 -0.0638
  175MOL0     C23510   8.909   6.970   5.670  0.3933 -0.6758 -0.9250
  175MOL0     C23511   8.899   6.996   5.511  0.0926  0.6002 -0.4097
  175MOL0     C23512   8.916   7.141   5.458  0.2142  0.0080 -0.2050
  175MOL0     C23513   9.052   7.213   5.497 -0.4362 -0.2454  0.1374
  175MOL0     O23514   9.163   7.119   5.514 -0.4966 -0.3251 -0.3401
  175MOL0     C23515   9.281   7.175   5.545 -0.1851 -0.6020  0.7580
  175MOL0     C23516   9.363   7.212   5.444 -0.4243  0.9964  0.1760
  175MOL0     C23517   9.487   7.262   5.467  0.3763  0.6126 -0.2918
  175MOL0     C23518   9.537   7.266   5.599 -0.0706  0.0880  0.3525
  175MOL0     C23519   9.671   7.324   5.617  0.7294  0.3372  0.2838
  175MOL0     O23520   9.739   7.382   5.515  0.1569 -0.3799  0.0538
  175MOL0     C23521   9.855   7.440   5.552 -0.9894 -0.8383  0.0962
  175MOL0     C23522   9.864   7.579   5.563  0.6455  0.3308 -0.3148
  175MOL0     C23523   9.985   7.634   5.609 -1.0178  0.6708  0.5770
  175MOL0     C23524  10.097   7.550   5.658 -0.3711 -0.4840 -0.1214
  175MOL0     O23525  10.217   7.598   5.699 -0.4085  0.9084 -0.3717
  175MOL0     C23526  10.264   7.724   5.640 -0.0443 -0.2114 -0.9617
  175MOL0     C23527  10.417   7.724   5.635 -1.1675 -0.6669  0.2898
  175MOL0     C23528  10.465   7.690   5.487 -0.2839 -0.3140 -0.6071
  175MOL0     C23529  10.620   7.671   5.489  0.0821 -0.7311  0.2967
  175MOL0     C23530  10.674   7.614   5.349 -0.0858  0.2807 -0.1517
  175MOL0     C23531  10.820   7.573   5.356  1.0464 -0.8779  0.2580
  175MOL0     C23532  10.921   7.692   5.403  0.0413 -0.1083 -0.0417
  175MOL0     C23533  11.058   7.641   5.381 -0.2765 -1.2497  0.7851
  175MOL0    Cl23534  11.099   7.627   5.211 -0.3745  0.0632 -0.1780
  175MOL0     C23535  10.079   7.413   5.661  0.1818  0.0008  0.4368
  175MOL0     C23536   9.966   7.357   5.606 -0.0545 -0.3866  0.4729
  175MOL0     O23537   9.708   7.309   5.732 -0.4155 -0.0426 -0.1113
  175MOL0     C23538   9.457   7.215   5.704  0.3781  0.7652  0.4031
  175MOL0     C23539   9.324   7.177   5.674 -0.3767 -0.2391 -0.5270
  175MOL0     N23540   8.992   7.165   5.820 -0.2590  0.3092  0.3461
  175MOL0     N23541   8.936   7.273   5.874 -0.0727  0.4640 -1.2907
  175MOL0     C23542   7.793   8.136   5.687 -0.0531 -0.0819 -0.0287
  175MOL0     C23543   7.684   8.203   5.621  0.2324 -0.1111 -0.0083
  175MOL0     C23544   7.340   8.260   5.343 -0.8765 -0.0051 -0.0504
  175MOL0     C23545   7.261   8.363   5.395 -0.1043 -0.1229 -0.5598
  175MOL0     C23546   7.177   8.434   5.320 -1.1804  1.2123 -0.4969
  175MOL0     C23547   7.164   8.406   5.189 -0.3339  0.2612  0.1092
  175MOL0     O23548   7.067   8.454   5.107  0.4232  0.6811  0.0704
  175MOL0     C23549   6.966   8.542   5.162  0.9857  0.3321 -1.8040
  175MOL0     C23550   6.887   8.597   5.040  0.2158  0.7930 -0.0374
  175MOL0     C23551   6.805   8.715   5.099 -0.3210 -0.1802 -0.3027
  175MOL0     C23552   6.696   8.676   5.184 -0.1613  0.6753  0.7096
  175MOL0     C23553   6.580   8.764   5.190 -0.4854 -0.1104 -0.5404
  175MOL0     C23554   6.484   8.839   5.196  0.7118  0.1889  0.5001
  175MOL0     C23555   7.247   8.309   5.126  0.9513 -0.0655  0.2569
  175MOL0     C23556   7.336   8.232   5.205  0.2716  0.5362 -0.3045
  175MOL0     C23557   7.408   8.110   5.151 -0.0376 -0.0841  0.0890
  175MOL0     H23558   7.754   8.077   5.308  4.2691  1.6948 -0.7099
  175MOL0     H23559   7.924   7.947   5.434 -2.5865 -1.6195 -1.6414
  175MOL0     H23560   8.070   7.845   5.573  2.6229  1.2802 -3.1194
  175MOL0     H23561   8.135   8.010   5.573 -3.0817  2.1927  0.6828
  175MOL0     H23562   8.131   7.833   5.825  0.6430 -0.6647 -0.1763
  175MOL0     H23563   8.223   7.980   5.799 -1.4396  1.5313 -1.6609
  175MOL0     H23564   8.375   7.888   5.661  1.8136 -1.8207  0.0099
  175MOL0     H23565   8.258   7.753   5.615 -0.1147 -0.1448  0.6602
  175MOL0     H23566   8.413   7.789   5.887  1.9434  1.9503 -1.9868
  175MOL0     H23567   8.288   7.672   5.843  2.4719 -1.3860  1.6784
  175MOL0     H23568   8.441   7.575   5.664  1.0994 -1.9150  0.8774
  175MOL0     H23569   8.559   7.703   5.699  0.5960 -0.7809  0.6984
  175MOL0     H23570   8.577   7.623   5.933 -1.5532  1.2105 -0.4042
  175MOL0     H23571   8.455   7.489   5.896 -1.8991  0.9722 -1.0355
  175MOL0     H23572   8.715   7.495   5.753  3.3751 -4.6155  0.4375
  175MOL0     H23573   8.582   7.394   5.719 -1.0687 -2.0128  2.0147
  175MOL0     H23574   8.730   7.410   5.986  0.3946 -1.2086  0.3959
  175MOL0     H23575   8.611   7.295   5.941 -2.5483  2.4241 -0.7428
  175MOL0     H23576   8.680   7.140   5.713  0.6975  1.3499 -1.6499
  175MOL0     H23577   9.006   6.925   5.692 -0.3887 -1.6031  0.8076
  175MOL0     H23578   8.835   6.900   5.709  1.1822 -1.0564 -0.0543
  175MOL0     H23579   8.981   6.938   5.467 -0.2558 -0.6590  0.5431
  175MOL0     H23580   8.801   6.959   5.480 -0.2679 -0.0124  1.3491
  175MOL0     H23581   8.838   7.198   5.509 -1.6435  0.5105 -3.3511
  175MOL0     H23582   8.912   7.148   5.349  1.4759  1.7155 -0.1752
  175MOL0     H23583   9.032   7.262   5.593 -0.5766  0.2721 -0.1535
  175MOL0     H23584   9.079   7.292   5.427  4.0556 -1.2812  0.3886
  175MOL0     H23585   9.325   7.197   5.343  0.1195  0.5033  0.0439
  175MOL0     H23586   9.551   7.279   5.381  1.7219  1.5595  0.8481
  175MOL0     H23587   9.791   7.649   5.524 -2.6187 -2.6384 -0.1082
  175MOL0     H23588  10.008   7.739   5.593  0.0249  0.4954  0.8384
  175MOL0     H23589  10.229   7.757   5.542 -0.4958 -2.0540 -1.4576
  175MOL0     H23590  10.218   7.799   5.705 -0.2229  0.6381 -2.0468
  175MOL0     H23591  10.453   7.826   5.655 -1.6108 -1.0845  4.0073
  175MOL0     H23592  10.469   7.660   5.707  1.4515  0.5765 -0.3685
  175MOL0     H23593  10.426   7.592   5.457  1.4362 -1.3564  0.4072
  175MOL0     H23594  10.427   7.756   5.409  1.9710 -2.7195 -4.0234
  175MOL0     H23595  10.657   7.594   5.558 -0.5817 -1.2615  0.0666
  175MOL0     H23596  10.671   7.765   5.512 -0.2349 -1.0484  2.5506
  175MOL0     H23597  10.642   7.680   5.269 -1.8142 -1.1989 -0.7275
  175MOL0     H23598  10.611   7.528   5.328 -1.4511  1.2951 -0.3121
  175MOL0     H23599  10.828   7.486   5.423  0.4778 -1.8408 -0.8762
  175MOL0     H23600  10.857   7.535   5.260 -0.2445 -0.9733 -0.2260
  175MOL0     H23601  10.901   7.710   5.509  0.1444  1.7408 -0.2998
  175MOL0     H23602  10.901   7.787   5.354 -3.3138 -1.1791 -1.0368
  175MOL0     H23603  11.133   7.709   5.423 -2.3358  3.4183 -2.3601
  175MOL0     H23604  11.071   7.546   5.434  2.8038 -0.5245  1.5148
  175MOL0     H23605  10.156   7.351   5.705 -0.3697 -2.5388 -1.9031
  175MOL0     H23606   9.955   7.249   5.603 -0.9749 -0.2855 -0.5695
  175MOL0     H23607   9.497   7.216   5.805 -0.4054  4.1870  0.8370
  175MOL0     H23608   9.257   7.162   5.758  0.3859  1.0211  0.3454
  175MOL0     H23609   7.812   8.149   5.793 -2.6604  1.9098  0.2993
  175MOL0     H23610   7.616   8.272   5.670  0.4194  2.2228 -2.7460
  175MOL0     H23611   7.268   8.400   5.497 -1.3095 -1.6343  0.1206
  175MOL0     H23612   7.118   8.508   5.374  0.5765  1.9856  0.4393
  175MOL0     H23613   7.015   8.621   5.221  1.1175  0.0338 -1.5092
  175MOL0     H23614   6.906   8.483   5.231  1.0275 -0.6755 -2.6103
  175MOL0     H23615   6.808   8.529   5.006  0.1338  1.9821 -2.4004
  175MOL0     H23616   6.944   8.630   4.953 -0.9191 -3.2016 -2.5752
  175MOL0     H23617   6.757   8.772   5.019 -2.8353 -3.4700 -1.3784
  175MOL0     H23618   6.866   8.778   5.164 -1.8058  0.8198  0.1655
  175MOL0     H23619   6.660   8.585   5.134  1.2351 -0.7777  2.2182
  175MOL0     H23620   6.733   8.643   5.281 -0.7577  0.1928  0.7808
  175MOL0     H23621   6.396   8.899   5.204  1.9527  2.1605  0.0862
  175MOL0     H23622   7.242   8.280   5.021  1.7045  0.4331  0.0762
  175MOL0     H23623   7.486   8.146   5.083 -1.7985 -2.6156 -3.6210
  175MOL0     H23624   7.442   8.034   5.222 -0.2530 -2.0612 -1.8143
  175MOL0     H23625   7.340   8.045   5.094 -0.3059  1.1186 -0.9965
  176MOL0     O23626   0.174   7.870   9.274 -0.1514  0.3393  0.9142
  176MOL0     C23627   0.148   7.948   9.179  0.1446  1.1345 -1.0802
  176MOL0     O23628   0.238   7.991   9.089 -0.8375 -0.1787  1.0242
  176MOL0     C23629   0.342   7.906   9.049 -0.0873  0.1161  0.7747
  176MOL0     C23630   0.341   7.847   8.916  0.5324 -0.9876  0.0228
  176MOL0     C23631   0.450   7.770   8.880  0.6391  0.6769  0.2748
  176MOL0     C23632   0.559   7.747   8.962 -0.0800  0.7221 -0.6799
  176MOL0     O23633   0.667   7.662   8.921  0.0716  0.5292 -0.5383
  176MOL0     C23634   0.725   7.575   9.024  0.4624  0.2590  0.2452
  176MOL0     C23635   0.795   7.467   8.934 -0.1578 -0.2753 -0.7216
  176MOL0     C23636   0.851   7.357   9.028  0.2958  0.0462 -0.2763
  176MOL0     C23637   0.970   7.400   9.100 -0.6259  0.0597  0.2281
  176MOL0     C23638   1.024   7.294   9.190  0.4599 -0.6555 -0.0665
  176MOL0     C23639   1.150   7.348   9.262  0.3365 -0.0850 -0.6172
  176MOL0     C23640   1.219   7.233   9.341  1.1593 -0.4557  0.1292
  176MOL0     C23641   1.347   7.283   9.413 -0.2206  0.1826  0.2046
  176MOL0     N23642   1.411   7.183   9.494  0.2337  0.3479 -0.4557
  176MOL0     C23643   1.530   7.199   9.562 -0.2697 -0.3369 -0.2129
  176MOL0     C23644   1.547   7.082   9.624  0.0148 -0.3069 -0.3260
  176MOL0     C23645   1.643   7.029   9.732  0.3207 -0.2129  0.6543
  176MOL0     C23646   1.770   6.984   9.649  0.0327 -0.6205 -0.0499
  176MOL0     C23647   1.754   6.856   9.559  1.1842 -0.1561 -0.3399
  176MOL0     C23648   1.732   6.725   9.638 -0.5688 -0.1364  0.5038
  176MOL0     O23649   1.834   6.690   9.731 -0.6074  1.0955  0.0878
  176MOL0     C23650   1.949   6.637   9.679  0.5771 -0.1400  0.0013
  176MOL0     C23651   2.043   6.603   9.770 -0.1736 -0.3545 -0.2875
  176MOL0     C23652   2.162   6.532   9.738  0.7474 -0.4222  0.2919
  176MOL0     C23653   2.188   6.491   9.607  0.7036  0.5609  1.0781
  176MOL0     C23654   2.322   6.438   9.570 -0.1351  0.1568  0.4550
  176MOL0     O23655   2.366   6.458   9.443 -0.3095 -0.2225  0.7336
  176MOL0     C23656   2.468   6.373   9.383  0.1436  0.0821 -0.4032
  176MOL0     C23657   2.433   6.310   9.260 -0.2381 -0.5880 -0.3849
  176MOL0     C23658   2.532   6.226   9.196  0.3052  0.6235 -0.2674
  176MOL0     C23659   2.662   6.221   9.254 -0.1717  0.9117 -0.3774
  176MOL0     O23660   2.768   6.143   9.202 -0.7044  0.6091 -0.2226
  176MOL0     C23661   2.758   6.094   9.070 -0.0710  0.1916  0.7383
  176MOL0     C23662   2.903   6.058   9.052  0.0949 -0.5422 -0.4746
  176MOL0     C23663   2.931   6.004   8.911 -0.4483 -0.1688  0.1588
  176MOL0     C23664   2.912   5.857   8.921  0.8666 -0.8959 -0.7035
  176MOL0     C23665   2.932   5.778   8.785  0.9488  1.1935 -0.7224
  176MOL0     C23666   2.925   5.620   8.796  0.2042 -0.0360  0.2087
  176MOL0     C23667   2.779   5.576   8.812  0.2437 -1.1130 -0.2768
  176MOL0     C23668   2.775   5.421   8.822  0.2131 -0.6981 -0.7778
  176MOL0    Cl23669   2.811   5.345   8.654 -0.4196  0.0790 -0.1023
  176MOL0     C23670   2.695   6.279   9.382  0.6355  0.1567  0.0535
  176MOL0     C23671   2.594   6.355   9.447  0.3672  0.4416 -0.3168
  176MOL0     O23672   2.382   6.385   9.662 -0.4432  0.4895 -0.1401
  176MOL0     C23673   2.083   6.518   9.515 -0.5149 -0.8903  0.1524
  176MOL0     C23674   1.971   6.585   9.546  0.1486  0.1269 -0.2140
  176MOL0     N23675   1.452   6.993   9.575  0.3670  0.4081 -0.0207
  176MOL0     N23676   1.365   7.059   9.510  0.5858  0.5456 -0.7556
  176MOL0     C23677   0.552   7.795   9.097  0.0738 -0.0335 -0.3333
  176MOL0     C23678   0.451   7.890   9.137  0.4115  0.0769 -0.2739
  176MOL0     C23679   0.008   8.000   9.169  0.8945  0.2977  0.4017
  176MOL0     C23680  -0.036   8.045   9.032 -0.8137  0.1116 -0.9484
  176MOL0     C23681  -0.164   8.076   9.001 -0.2581 -0.4910 -0.5460
  176MOL0     C23682  -0.268   8.069   9.103  0.2651  0.0756  0.4304
  176MOL0     O23683  -0.399   8.087   9.080  0.6761 -0.0917  0.9402
  176MOL0     C23684  -0.464   8.129   8.949  0.0033 -0.7545 -0.4530
  176MOL0     C23685  -0.608   8.167   8.977 -0.4965  0.7445  1.5568
  176MOL0     C23686  -0.614   8.288   9.078 -0.4080 -1.0811 -0.0326
  176MOL0     C23687  -0.754   8.326   9.114 -0.6850  0.4342 -0.5650
  176MOL0     C23688  -0.806   8.391   8.992 -0.0557 -0.5495  0.7158
  176MOL0     C23689  -0.855   8.447   8.887 -0.0854  0.7773 -0.6519
  176MOL0     C23690  -0.229   8.034   9.232 -0.6880 -0.3004 -1.1121
  176MOL0     C23691  -0.090   8.000   9.274 -0.5442  0.0810  0.9052
  176MOL0     C23692  -0.067   7.960   9.416 -0.8276  0.6332 -0.3171
  176MOL0     H23693   0.257   7.856   8.848 -1.2897 -2.1607  1.9787
  176MOL0     H23694   0.444   7.732   8.778 -2.7519 -0.0016  0.6069
  176MOL0     H23695   0.797   7.629   9.087  1.0289  0.8311 -0.8702
  176MOL0     H23696   0.645   7.527   9.081 -0.5539 -0.9643 -2.0934
  176MOL0     H23697   0.874   7.509   8.871  3.4762 -3.7508  1.1258
  176MOL0     H23698   0.724   7.418   8.866 -0.1427 -0.8094 -0.3565
  176MOL0     H23699   0.878   7.273   8.964 -0.4243 -1.0245  0.7745
  176MOL0     H23700   0.782   7.316   9.104  0.0996 -1.0007 -0.9956
  176MOL0     H23701   1.054   7.432   9.037 -1.1175  0.3071 -0.3069
  176MOL0     H23702   0.942   7.488   9.158 -3.8390  0.1000 -1.1766
  176MOL0     H23703   0.945   7.263   9.260 -1.6948  2.9809 -0.6222
  176MOL0     H23704   1.048   7.208   9.127  0.9675  0.5399 -1.5335
  176MOL0     H23705   1.213   7.392   9.184  0.6692  0.1057 -0.2462
  176MOL0     H23706   1.127   7.425   9.336 -1.6915 -0.6564 -0.5753
  176MOL0     H23707   1.233   7.149   9.273 -0.3605 -0.2325 -0.4961
  176MOL0     H23708   1.142   7.208   9.414  1.4634  1.9366  1.3638
  176MOL0     H23709   1.420   7.324   9.342  1.3278 -0.2979  1.4525
  176MOL0     H23710   1.315   7.367   9.475 -0.6254  0.6426 -0.5998
  176MOL0     H23711   1.592   7.288   9.572 -1.8868  0.8750 -0.4442
  176MOL0     H23712   1.654   7.116   9.797  0.4611 -1.0041  1.7138
  176MOL0     H23713   1.595   6.947   9.786 -1.6850  0.8842  0.6265
  176MOL0     H23714   1.800   7.065   9.582 -0.7146  0.1846  0.5550
  176MOL0     H23715   1.851   6.958   9.719 -2.2491 -2.3047  2.1522
  176MOL0     H23716   1.845   6.855   9.499  0.8944  0.3379 -0.8023
  176MOL0     H23717   1.672   6.883   9.491 -0.1897  0.0585  1.3367
  176MOL0     H23718   1.714   6.640   9.571  1.7292 -1.1439  1.0718
  176MOL0     H23719   1.644   6.743   9.699 -0.1210 -1.0967  1.4605
  176MOL0     H23720   2.020   6.627   9.873 -1.7348 -0.8364 -0.5057
  176MOL0     H23721   2.229   6.508   9.819 -0.2231 -2.8789  0.4495
  176MOL0     H23722   2.330   6.318   9.227 -1.3554 -2.2217  2.3687
  176MOL0     H23723   2.497   6.175   9.106 -0.3740 -2.8251  1.7661
  176MOL0     H23724   2.693   6.007   9.054  2.7433 -1.9090 -0.0594
  176MOL0     H23725   2.721   6.171   9.002 -0.7314  1.1645  2.1601
  176MOL0     H23726   2.961   6.147   9.077 -0.7282 -0.2207  0.3800
  176MOL0     H23727   2.925   5.988   9.133 -1.3143  0.4740  0.8497
  176MOL0     H23728   2.863   6.045   8.835  0.8157 -3.0119 -2.7537
  176MOL0     H23729   3.031   6.038   8.882  0.0301 -0.7418  1.0973
  176MOL0     H23730   2.810   5.840   8.957  0.2691 -0.3069 -2.0421
  176MOL0     H23731   2.983   5.822   8.996 -0.5917  0.7764  1.5799
  176MOL0     H23732   3.025   5.811   8.736 -0.1188  1.0487 -2.9870
  176MOL0     H23733   2.847   5.797   8.719  1.0329  0.6157 -1.0084
  176MOL0     H23734   2.966   5.568   8.709 -0.0676 -4.5419  2.4659
  176MOL0     H23735   2.987   5.593   8.882 -0.0336  1.4141  0.8579
  176MOL0     H23736   2.719   5.611   8.727  0.2989  1.7199  0.7598
  176MOL0     H23737   2.730   5.622   8.898 -1.0964 -1.5053 -0.8031
  176MOL0     H23738   2.845   5.376   8.894  1.2965  1.4227 -0.4417
  176MOL0     H23739   2.670   5.397   8.841  0.4619 -0.5911  0.9014
  176MOL0     H23740   2.790   6.272   9.434 -0.0486  1.9985  1.7073
  176MOL0     H23741   2.614   6.408   9.539 -0.7353  1.5432 -0.6916
  176MOL0     H23742   2.103   6.477   9.416  0.7144 -2.9615  1.1698
  176MOL0     H23743   1.897   6.600   9.469  0.1759 -2.6282 -0.8771
  176MOL0     H23744   0.635   7.771   9.162  1.4014  0.8333 -1.6362
  176MOL0     H23745   0.453   7.955   9.224 -0.2590  2.2267 -1.8039
  176MOL0     H23746   0.036   8.044   8.951  1.0493 -2.0701  0.5935
  176MOL0     H23747  -0.205   8.109   8.907  2.1421 -0.3145 -1.5801
  176MOL0     H23748  -0.453   8.037   8.890  1.0456 -2.5801  2.3718
  176MOL0     H23749  -0.410   8.213   8.905  2.4794 -1.7043  0.5936
  176MOL0     H23750  -0.642   8.071   9.017  2.8427 -0.4244  1.8906
  176MOL0     H23751  -0.656   8.189   8.882  0.5661  0.1853  0.8784
  176MOL0     H23752  -0.542   8.366   9.049  2.3235 -2.5400  2.2386
  176MOL0     H23753  -0.565   8.257   9.171 -1.0406 -2.4987 -0.1586
  176MOL0     H23754  -0.814   8.238   9.138 -0.0758 -0.6754 -2.7958
  176MOL0     H23755  -0.758   8.402   9.193  1.2663  0.2872 -0.2708
  176MOL0     H23756  -0.896   8.482   8.794  1.4280  0.7486 -1.3548
  176MOL0     H23757  -0.308   8.031   9.305 -1.3883  0.2554 -1.8275
  176MOL0     H23758  -0.162   7.931   9.462 -0.0328  0.8361  1.5490
  176MOL0     H23759  -0.002   7.874   9.434 -2.4299 -0.2358  1.6656
  176MOL0     H23760  -0.020   8.044   9.468  0.5717  0.2040 -0.8346
  177MOL0     O23761   1.098   3.281   2.015 -0.8041 -0.0256 -0.6994
  177MOL0     C23762   1.072   3.398   2.055  0.2099  0.2592 -0.9249
  177MOL0     O23763   1.157   3.498   2.056 -0.3272 -0.2454  0.0475
  177MOL0     C23764   1.282   3.505   1.991  0.3595  0.5723  0.6156
  177MOL0     C23765   1.371   3.609   2.023 -0.1313  0.1600 -0.3997
  177MOL0     C23766   1.495   3.619   1.965 -0.8306  0.8714  0.0100
  177MOL0     C23767   1.541   3.534   1.861 -0.6246  0.2518 -0.1252
  177MOL0     O23768   1.674   3.554   1.816 -0.0415  0.3969  1.0364
  177MOL0     C23769   1.729   3.458   1.713  0.5229 -0.6159  0.1977
  177MOL0     C23770   1.885   3.443   1.721 -0.5470 -0.2981 -0.0976
  177MOL0     C23771   1.967   3.578   1.692 -0.9057  1.1491 -0.0716
  177MOL0     C23772   2.107   3.566   1.742  0.0153  0.1246 -0.1988
  177MOL0     C23773   2.178   3.693   1.692  0.7738 -0.4693 -0.3554
  177MOL0     C23774   2.136   3.820   1.778 -0.0237  0.1726  0.0648
  177MOL0     C23775   2.257   3.906   1.795  0.2680 -0.4170 -0.6730
  177MOL0     C23776   2.358   3.850   1.903 -0.1202  0.2299  0.2804
  177MOL0     N23777   2.477   3.934   1.902  0.2208  0.2400 -0.7360
  177MOL0     C23778   2.518   4.017   2.003 -1.0001 -0.2706 -0.3011
  177MOL0     C23779   2.644   4.038   1.959  0.1347  0.3898 -0.7399
  177MOL0     C23780   2.732   4.122   2.049  0.3113  0.0840 -0.0339
  177MOL0     C23781   2.724   4.268   2.011  0.7702  0.3837 -0.8413
  177MOL0     C23782   2.832   4.335   2.110  0.2745 -0.9085  0.0573
  177MOL0     C23783   2.856   4.484   2.064 -0.2749  0.8181  0.5482
  177MOL0     O23784   2.886   4.497   1.922 -0.1861 -0.0253 -0.1555
  177MOL0     C23785   3.005   4.533   1.876  0.0638  0.1554  0.3920
  177MOL0     C23786   3.008   4.595   1.749  0.5481 -0.4719 -0.1345
  177MOL0     C23787   3.128   4.647   1.691  0.4612  0.5327  0.2877
  177MOL0     C23788   3.250   4.615   1.758 -0.2466  0.0556 -0.5997
  177MOL0     C23789   3.378   4.656   1.701 -0.3460 -0.3184  0.5592
  177MOL0     O23790   3.484   4.656   1.785  0.0942  0.2794 -0.2778
  177MOL0     C23791   3.606   4.669   1.731 -0.1110 -0.2255  0.3237
  177MOL0     C23792   3.645   4.555   1.656  0.4272 -0.5194 -0.6830
  177MOL0     C23793   3.761   4.561   1.590 -0.0643  0.3429  0.0506
  177MOL0     C23794   3.855   4.665   1.606  0.1331 -0.3756 -0.1075
  177MOL0     O23795   3.966   4.650   1.529  0.1670  0.3667 -0.8294
  177MOL0     C23796   4.056   4.757   1.515  0.6689  0.1564 -0.1767
  177MOL0     C23797   4.131   4.727   1.388  0.6790 -0.0106  1.1186
  177MOL0     C23798   4.221   4.847   1.363 -0.0753 -0.5311  0.6290
  177MOL0     C23799   4.350   4.838   1.435  0.2117  0.2759 -0.7311
  177MOL0     C23800   4.459   4.940   1.390  0.7770  0.4955 -0.4380
  177MOL0     C23801   4.436   5.081   1.467  0.8284  0.3242 -0.0599
  177MOL0     C23802   4.473   5.076   1.619 -0.2206  0.2279  0.0745
  177MOL0     C23803   4.434   5.203   1.697 -0.8150  0.4124 -0.3103
  177MOL0    Cl23804   4.436   5.152   1.879 -0.0925 -0.0777 -0.3231
  177MOL0     C23805   3.815   4.773   1.685  0.0762  0.0089  0.6689
  177MOL0     C23806   3.688   4.776   1.744 -0.2693  0.4134 -0.3547
  177MOL0     O23807   3.381   4.686   1.580 -0.8892  0.0598  0.3314
  177MOL0     C23808   3.245   4.560   1.889  0.4521 -0.1673  0.2165
  177MOL0     C23809   3.124   4.523   1.946 -0.3518 -0.1551 -0.4917
  177MOL0     N23810   2.681   3.973   1.848 -0.2386 -0.2797  0.1669
  177MOL0     N23811   2.574   3.912   1.808 -0.0653 -0.1762 -0.1242
  177MOL0     C23812   1.452   3.439   1.813  1.0759  0.1307 -0.2729
  177MOL0     C23813   1.323   3.427   1.878 -0.5539 -0.1859 -1.3949
  177MOL0     C23814   0.934   3.427   2.096 -0.0654  0.1767 -1.3622
  177MOL0     C23815   0.914   3.550   2.162  0.0140 -0.2086  0.2530
  177MOL0     C23816   0.782   3.585   2.199  0.3057  0.0050 -0.4641
  177MOL0     C23817   0.680   3.497   2.199  0.0278  0.5791  0.2324
  177MOL0     O23818   0.554   3.515   2.240 -0.5609  0.0907  0.5953
  177MOL0     C23819   0.503   3.648   2.262  0.2530  0.0447 -0.1118
  177MOL0     C23820   0.350   3.631   2.262 -0.4068  0.2942 -0.1463
  177MOL0     C23821   0.303   3.551   2.378  0.6951 -0.6007  0.9430
  177MOL0     C23822   0.157   3.506   2.347 -0.7884  0.7309  0.1597
  177MOL0     C23823   0.063   3.619   2.355 -0.1507  0.1783  0.0280
  177MOL0     C23824   0.004   3.728   2.367  0.3457  0.9851 -0.4668
  177MOL0     C23825   0.705   3.380   2.127  0.6619 -0.8803 -0.0924
  177MOL0     C23826   0.826   3.336   2.076  0.0823  0.4519  0.1596
  177MOL0     C23827   0.827   3.199   2.006  0.0804  0.1197 -0.3873
  177MOL0     H23828   1.344   3.681   2.100  0.4277  2.3114 -2.1183
  177MOL0     H23829   1.559   3.699   2.000 -1.5092  1.6766 -0.5442
  177MOL0     H23830   1.697   3.354   1.719  1.1723 -0.9132 -1.2330
  177MOL0     H23831   1.698   3.498   1.617 -2.5287  1.1774  1.7904
  177MOL0     H23832   1.918   3.362   1.656  1.6423  0.5352 -0.0945
  177MOL0     H23833   1.902   3.410   1.823 -1.8956 -0.5935  0.0538
  177MOL0     H23834   1.919   3.655   1.754 -2.5521 -1.4027  2.0478
  177MOL0     H23835   1.959   3.602   1.586  0.2295 -0.9900 -0.6910
  177MOL0     H23836   2.104   3.568   1.851 -2.1132 -1.7788 -0.1527
  177MOL0     H23837   2.151   3.471   1.710 -2.3635 -1.4106  0.8194
  177MOL0     H23838   2.285   3.670   1.693  1.1477  1.0125 -2.1558
  177MOL0     H23839   2.149   3.708   1.588  0.9583 -1.2816 -0.5355
  177MOL0     H23840   2.050   3.871   1.734 -0.4194  1.3456  2.0394
  177MOL0     H23841   2.095   3.794   1.876  2.9067 -5.2375  0.2318
  177MOL0     H23842   2.225   3.999   1.843 -2.9874 -0.9623 -1.5620
  177MOL0     H23843   2.308   3.938   1.704  1.0244  2.2172  0.5685
  177MOL0     H23844   2.314   3.859   2.003 -0.4713  0.2136  0.1317
  177MOL0     H23845   2.388   3.747   1.887 -2.2728 -0.2735 -0.9284
  177MOL0     H23846   2.478   4.055   2.097  0.7775 -1.8546  1.1821
  177MOL0     H23847   2.695   4.118   2.152  0.8799 -0.2314  0.1648
  177MOL0     H23848   2.834   4.083   2.043 -0.0409 -0.5914 -2.8356
  177MOL0     H23849   2.755   4.282   1.907  0.0999  2.3766 -0.8175
  177MOL0     H23850   2.633   4.326   2.028  1.6912  0.9345  3.4153
  177MOL0     H23851   2.923   4.276   2.094  1.7627  1.6173 -1.5983
  177MOL0     H23852   2.790   4.332   2.211  0.0423  1.8744  0.1246
  177MOL0     H23853   2.932   4.521   2.132  1.3200 -2.7025  0.8990
  177MOL0     H23854   2.766   4.545   2.081 -0.3508  0.8507  0.0536
  177MOL0     H23855   2.917   4.614   1.693 -0.2969  2.3465  2.0132
  177MOL0     H23856   3.129   4.698   1.595  0.3145 -1.1801 -0.6543
  177MOL0     H23857   3.580   4.470   1.640  1.8026 -1.6622 -0.4323
  177MOL0     H23858   3.780   4.477   1.525  1.1897  0.1273  0.6619
  177MOL0     H23859   4.002   4.852   1.519  0.4916  0.1091 -1.1518
  177MOL0     H23860   4.130   4.761   1.595  1.0006  0.9070 -0.5054
  177MOL0     H23861   4.199   4.644   1.408  2.6696  2.1720  4.3977
  177MOL0     H23862   4.066   4.718   1.301  1.9793 -1.4414  0.2521
  177MOL0     H23863   4.239   4.837   1.256  0.2154 -0.6598  0.6900
  177MOL0     H23864   4.179   4.947   1.377  0.8446  0.1603 -1.2467
  177MOL0     H23865   4.400   4.740   1.428 -2.1039 -1.2186  1.5921
  177MOL0     H23866   4.324   4.834   1.542 -2.5522 -0.3286 -1.3489
  177MOL0     H23867   4.462   4.953   1.281  3.4440 -2.6251 -0.9021
  177MOL0     H23868   4.554   4.891   1.417  2.1832  3.0907 -0.3859
  177MOL0     H23869   4.487   5.157   1.408  0.7307  1.2544  1.0231
  177MOL0     H23870   4.331   5.110   1.459  1.7744  3.5948 -1.9955
  177MOL0     H23871   4.582   5.073   1.619 -0.0579  2.7783 -2.5339
  177MOL0     H23872   4.423   4.986   1.656 -0.3354  0.2494 -0.0291
  177MOL0     H23873   4.515   5.274   1.679  2.2729 -3.0753 -1.4533
  177MOL0     H23874   4.345   5.255   1.662 -0.9263  1.2796  1.1914
  177MOL0     H23875   3.867   4.868   1.684 -0.3848  0.2750 -0.9437
  177MOL0     H23876   3.655   4.867   1.794  4.4979  2.0433  0.3637
  177MOL0     H23877   3.337   4.550   1.946  0.2621  3.1214  1.2968
  177MOL0     H23878   3.145   4.491   2.047 -0.3318 -0.4137 -0.5762
  177MOL0     H23879   1.468   3.358   1.742  0.8810 -1.3250  1.2854
  177MOL0     H23880   1.249   3.356   1.844 -1.9551 -0.0861  1.2233
  177MOL0     H23881   0.986   3.628   2.185 -0.3599  0.2498 -0.1187
  177MOL0     H23882   0.769   3.691   2.221  2.9242  0.6486 -1.6841
  177MOL0     H23883   0.541   3.700   2.174  5.0604  2.3798  2.9091
  177MOL0     H23884   0.531   3.692   2.358 -2.9728 -0.3717  1.1470
  177MOL0     H23885   0.326   3.587   2.165  1.8684 -1.4761  0.0029
  177MOL0     H23886   0.309   3.732   2.272  1.5131  1.0803  0.2168
  177MOL0     H23887   0.302   3.616   2.466 -1.9467  1.4576 -0.4279
  177MOL0     H23888   0.364   3.462   2.391  0.3420 -1.0789 -0.4629
  177MOL0     H23889   0.146   3.446   2.256 -0.9447  0.3923  0.4005
  177MOL0     H23890   0.128   3.440   2.429 -0.6413  0.3120 -0.1194
  177MOL0     H23891  -0.036   3.825   2.386  1.3306  0.8210  3.2900
  177MOL0     H23892   0.613   3.323   2.129 -0.0817  0.2973  0.9354
  177MOL0     H23893   0.724   3.165   2.004  0.7345 -1.9700 -1.5866
  177MOL0     H23894   0.875   3.218   1.910  1.0942 -3.3104 -0.7026
  177MOL0     H23895   0.894   3.126   2.052 -0.0849 -1.4075 -2.4468
  178MOL0     O23896   1.281   0.635  10.474  0.5883 -0.2980  0.7974
  178MOL0     C23897   1.217   0.543  10.423 -0.4040 -0.6774 -0.2588
  178MOL0     O23898   1.269   0.445  10.349 -0.4147  0.4230  0.2431
  178MOL0     C23899   1.403   0.455  10.329 -0.3829 -0.4510  0.2381
  178MOL0     C23900   1.461   0.507  10.211 -0.9694  0.4262 -0.3796
  178MOL0     C23901   1.599   0.510  10.187  0.5864  0.2419  0.2052
  178MOL0     C23902   1.692   0.460  10.287 -0.1605 -1.3369 -0.1803
  178MOL0     O23903   1.825   0.465  10.286 -0.1629  0.5928 -0.1082
  178MOL0     C23904   1.894   0.504  10.169  0.0696  0.1406  0.3308
  178MOL0     C23905   2.041   0.467  10.175  0.6931 -0.4406  0.3718
  178MOL0     C23906   2.127   0.551  10.258 -0.4409 -0.6687  0.4482
  178MOL0     C23907   2.272   0.493  10.255 -0.4718  0.6727 -0.0274
  178MOL0     C23908   2.361   0.597  10.324  0.0674  0.0559 -0.3028
  178MOL0     C23909   2.505   0.545  10.331  0.3238 -0.1670 -1.2066
  178MOL0     C23910   2.596   0.617  10.430  1.0240  0.8818  0.2512
  178MOL0     C23911   2.555   0.597  10.575 -0.4611  0.7834  0.8018
  178MOL0     N23912   2.662   0.594  10.675  0.4979 -0.2128 -0.1700
  178MOL0     C23913   2.771   0.509  10.677  0.8946 -0.1108  0.0572
  178MOL0     C23914   2.841   0.546  10.791  0.3061  0.0589  0.3560
  178MOL0     C23915   2.965   0.485  10.846  0.2980 -0.5521 -0.4681
  178MOL0     C23916   3.052   0.591  10.918  0.1516  0.3126 -0.1860
  178MOL0     C23917   3.200   0.550  10.924  0.3120  0.4218 -0.0693
  178MOL0     C23918   3.273   0.638  11.022 -0.2225 -0.4017  0.1276
  178MOL0     O23919   3.412   0.642  11.000 -0.0125  0.1163  0.0785
  178MOL0     C23920   3.499   0.725  11.065 -0.7142 -0.7684 -0.8410
  178MOL0     C23921   3.476   0.811  11.179  0.4242  0.0226 -0.1447
  178MOL0     C23922   3.575   0.897  11.223 -0.4379 -0.1945 -0.4491
  178MOL0     C23923   3.709   0.896  11.160  0.6775  0.0866 -0.2394
  178MOL0     C23924   3.813   0.982  11.216  0.2975  0.2929 -0.2204
  178MOL0     O23925   3.942   0.957  11.173  0.5431 -0.1585 -0.1969
  178MOL0     C23926   4.050   1.010  11.234  0.4438  0.5312 -0.4285
  178MOL0     C23927   4.147   1.072  11.158 -0.4055  1.0166 -0.1705
  178MOL0     C23928   4.263   1.120  11.219 -0.0387  0.4222  0.0664
  178MOL0     C23929   4.280   1.130  11.364 -0.0683  0.6295  0.1098
  178MOL0     O23930   4.400   1.179  11.416  0.2695 -0.0250 -0.2680
  178MOL0     C23931   4.523   1.124  11.362  0.8929  0.3286  0.0091
  178MOL0     C23932   4.643   1.173  11.439  0.2547  0.5148 -0.0404
  178MOL0     C23933   4.681   1.315  11.393 -0.0947  0.1690  0.3966
  178MOL0     C23934   4.821   1.376  11.439  0.4025 -0.5204 -0.2029
  178MOL0     C23935   4.857   1.497  11.351  0.2878  0.6202 -0.0237
  178MOL0     C23936   4.993   1.565  11.393  1.0182  0.8575 -1.3398
  178MOL0     C23937   5.057   1.640  11.281  0.7915 -1.0207  0.2089
  178MOL0     C23938   4.994   1.775  11.234 -0.6404  0.3044 -0.7183
  178MOL0    Cl23939   5.022   1.891  11.372 -0.3616  0.3858 -0.0329
  178MOL0     C23940   4.181   1.071  11.438 -0.7846  0.5619 -0.0351
  178MOL0     C23941   4.065   1.008  11.373  0.2647  0.0424  0.4495
  178MOL0     O23942   3.786   1.069  11.292  0.3832 -0.4125  0.1865
  178MOL0     C23943   3.729   0.804  11.058  0.2499 -0.6314 -0.5918
  178MOL0     C23944   3.629   0.721  11.017  0.1246 -0.2406  0.1299
  178MOL0     N23945   2.772   0.652  10.848  0.4252  0.2613  0.3836
  178MOL0     N23946   2.663   0.680  10.780  0.0786  0.3657 -0.2313
  178MOL0     C23947   1.636   0.411  10.400  0.5647 -0.0260 -0.5984
  178MOL0     C23948   1.498   0.408  10.423  0.5353  0.3426 -0.2035
  178MOL0     C23949   1.068   0.543  10.447 -0.4757 -0.4016  0.0144
  178MOL0     C23950   1.021   0.539  10.578  0.7253 -0.4339  0.3584
  178MOL0     C23951   0.882   0.567  10.613 -0.4054  0.4654 -0.0020
  178MOL0     C23952   0.788   0.592  10.513 -0.1153  0.3778  0.2087
  178MOL0     O23953   0.654   0.614  10.538  0.4849  0.0990 -0.2659
  178MOL0     C23954   0.571   0.511  10.485  0.2657 -0.1334  0.9487
  178MOL0     C23955   0.570   0.383  10.566 -0.3547 -0.5226  0.2790
  178MOL0     C23956   0.509   0.418  10.705  0.0517  0.1387 -0.7948
  178MOL0     C23957   0.477   0.288  10.777 -0.2563 -0.2008  0.5114
  178MOL0     C23958   0.345   0.234  10.763  0.7575 -0.6377 -1.0605
  178MOL0     C23959   0.231   0.201  10.750 -0.4175 -0.2702 -0.4314
  178MOL0     C23960   0.835   0.592  10.381 -1.6718 -0.4204 -0.4696
  178MOL0     C23961   0.977   0.574  10.349 -0.0901  0.0467 -0.3282
  178MOL0     C23962   1.020   0.597  10.203  0.4968  0.0258 -0.4242
  178MOL0     H23963   1.398   0.540  10.129  2.1882  0.2925 -3.1132
  178MOL0     H23964   1.642   0.564  10.104 -0.2745  1.4140  0.4918
  178MOL0     H23965   1.850   0.454  10.083 -1.3842 -0.1427  1.2069
  178MOL0     H23966   1.875   0.611  10.152 -2.1714 -0.3845 -0.9010
  178MOL0     H23967   2.080   0.451  10.074 -0.6219 -2.4825  0.1223
  178MOL0     H23968   2.040   0.368  10.222  1.2918 -0.0677  1.1805
  178MOL0     H23969   2.093   0.560  10.362  0.2777  0.1169  0.6262
  178MOL0     H23970   2.129   0.645  10.202  2.1389 -1.5283 -1.0524
  178MOL0     H23971   2.272   0.395  10.302  1.3101  1.2784  1.3720
  178MOL0     H23972   2.303   0.473  10.152  0.6851 -2.7079  0.8358
  178MOL0     H23973   2.368   0.693  10.273  2.4113  2.3776  3.8405
  178MOL0     H23974   2.327   0.618  10.426 -1.6744  1.5814 -1.1430
  178MOL0     H23975   2.500   0.440  10.360  1.1503 -0.2022 -1.1663
  178MOL0     H23976   2.551   0.565  10.234 -1.3434  2.7030 -1.5262
  178MOL0     H23977   2.608   0.723  10.407  2.2373  0.7812  0.3522
  178MOL0     H23978   2.689   0.565  10.403 -0.1679 -0.4499 -1.5078
  178MOL0     H23979   2.490   0.682  10.598  0.0137  1.0765  1.0706
  178MOL0     H23980   2.501   0.502  10.578  0.1475  0.4150  0.2078
  178MOL0     H23981   2.801   0.435  10.604  1.3178 -1.8650  1.9334
  178MOL0     H23982   2.940   0.416  10.927 -3.0914  1.2619  0.2189
  178MOL0     H23983   3.021   0.440  10.764  1.2051 -2.1315  0.9524
  178MOL0     H23984   3.051   0.688  10.867 -0.5550  1.1907  1.4265
  178MOL0     H23985   3.009   0.608  11.017  0.0365 -2.6391  0.3616
  178MOL0     H23986   3.260   0.568  10.834  1.2445 -3.7948 -0.4804
  178MOL0     H23987   3.200   0.443  10.945 -3.9083  0.1527 -0.6596
  178MOL0     H23988   3.271   0.599  11.124  0.1145  1.4765  0.9002
  178MOL0     H23989   3.238   0.741  11.015 -0.8034 -0.5456  0.8266
  178MOL0     H23990   3.376   0.804  11.222  1.3461 -3.8573  1.8393
  178MOL0     H23991   3.560   0.964  11.306  0.7493  0.2814 -0.5908
  178MOL0     H23992   4.131   1.071  11.050  0.3156 -3.2393 -0.3928
  178MOL0     H23993   4.350   1.144  11.159 -0.0505  1.4993  0.4590
  178MOL0     H23994   4.516   1.016  11.379 -0.6110  0.4626  0.4079
  178MOL0     H23995   4.525   1.141  11.254 -0.7416 -0.1461 -0.1150
  178MOL0     H23996   4.619   1.160  11.545 -2.5871  1.5811 -0.4434
  178MOL0     H23997   4.734   1.119  11.414 -0.1388  0.3245 -1.0979
  178MOL0     H23998   4.686   1.302  11.285  2.0482  0.6572  0.3848
  178MOL0     H23999   4.603   1.383  11.428  0.1259  0.3854  0.4712
  178MOL0     H24000   4.894   1.295  11.434  0.7167 -0.2243 -0.5638
  178MOL0     H24001   4.814   1.421  11.538  0.3832 -1.1858  0.0996
  178MOL0     H24002   4.771   1.564  11.353 -1.3498 -1.3757  0.5570
  178MOL0     H24003   4.865   1.454  11.251  1.2293  2.0769 -0.5956
  178MOL0     H24004   4.967   1.633  11.475 -0.6106 -1.5627  0.2826
  178MOL0     H24005   5.067   1.495  11.434  1.7743  1.8553 -0.9686
  178MOL0     H24006   5.080   1.558  11.212  1.2955 -2.3527  1.8855
  178MOL0     H24007   5.158   1.674  11.307  0.5614  0.1674 -0.3863
  178MOL0     H24008   5.055   1.821  11.155 -2.1769  2.0093 -0.9833
  178MOL0     H24009   4.891   1.762  11.201 -0.6536  1.1983 -1.0699
  178MOL0     H24010   4.187   1.088  11.546 -2.7872 -0.1949  0.2353
  178MOL0     H24011   3.991   0.955  11.432  1.7835 -0.2773  2.1754
  178MOL0     H24012   3.827   0.805  11.011  0.1178 -1.8731 -0.9219
  178MOL0     H24013   3.644   0.666  10.924 -0.9041  2.7028 -1.9133
  178MOL0     H24014   1.707   0.374  10.474  2.2499 -1.0604 -2.6203
  178MOL0     H24015   1.471   0.375  10.523 -1.9007  4.1076  0.5512
  178MOL0     H24016   1.096   0.523  10.655  1.6515  1.1953 -0.1455
  178MOL0     H24017   0.856   0.572  10.718 -1.9188 -1.5855 -0.2138
  178MOL0     H24018   0.595   0.502  10.379  0.1317  3.3521  0.5003
  178MOL0     H24019   0.470   0.551  10.498  0.1752 -0.0969  0.1580
  178MOL0     H24020   0.670   0.341  10.584 -2.0697 -3.5361  4.2655
  178MOL0     H24021   0.514   0.305  10.514  3.0448 -2.4414 -0.8732
  178MOL0     H24022   0.413   0.470  10.695  0.0635  0.4241  0.3871
  178MOL0     H24023   0.583   0.475  10.762 -0.3770 -0.6723  0.6211
  178MOL0     H24024   0.548   0.211  10.746  2.1859  1.8796  0.5684
  178MOL0     H24025   0.503   0.307  10.882  0.0412 -1.1029  0.6104
  178MOL0     H24026   0.126   0.183  10.742 -0.7415  2.0810 -2.5088
  178MOL0     H24027   0.775   0.626  10.298 -4.1219 -0.1531  1.3213
  178MOL0     H24028   0.928   0.601  10.145 -0.4634 -0.7053  0.9816
  178MOL0     H24029   1.076   0.690  10.185  2.0611  0.2574  4.0919
  178MOL0     H24030   1.087   0.514  10.180  0.8553  0.5758 -1.4529
  179MOL0     O24031   0.907   7.639   2.867  1.1698  0.1655  0.2226
  179MOL0     C24032   0.925   7.720   2.963 -0.0922  0.4808  0.1046
  179MOL0     O24033   1.046   7.741   3.026 -0.0813  0.0372 -0.3501
  179MOL0     C24034   1.162   7.696   2.973 -0.7467 -0.5157 -1.0525
  179MOL0     C24035   1.257   7.785   2.912  0.8879  0.7140 -0.1871
  179MOL0     C24036   1.368   7.718   2.866 -0.9187  0.9807 -0.7868
  179MOL0     C24037   1.387   7.576   2.867  0.2531  0.2034 -0.2421
  179MOL0     O24038   1.489   7.506   2.813 -0.2788  0.3306 -0.1168
  179MOL0     C24039   1.593   7.579   2.743  0.3328 -0.0496 -0.0405
  179MOL0     C24040   1.682   7.471   2.681 -0.5754  0.6310  0.4784
  179MOL0     C24041   1.772   7.519   2.568  0.2403 -0.1803 -0.3801
  179MOL0     C24042   1.848   7.649   2.600 -0.5142 -0.5796 -0.1007
  179MOL0     C24043   1.973   7.648   2.502 -1.0935 -0.6366  0.8016
  179MOL0     C24044   2.030   7.789   2.481  0.0467 -0.5483 -0.1946
  179MOL0     C24045   2.046   7.856   2.619 -0.6626 -1.1089 -0.2496
  179MOL0     C24046   2.137   7.986   2.618 -0.6487  0.6203  0.5845
  179MOL0     N24047   2.273   7.944   2.583  0.3022  0.1859  0.7208
  179MOL0     C24048   2.338   7.941   2.461 -0.0664 -0.4163 -0.4622
  179MOL0     C24049   2.468   7.911   2.481 -0.3855 -0.6233  0.4029
  179MOL0     C24050   2.562   7.904   2.361 -0.5781 -0.7565  0.6040
  179MOL0     C24051   2.596   7.757   2.324 -0.2945 -0.7024  0.7044
  179MOL0     C24052   2.626   7.668   2.435 -0.1762  0.2301  0.2917
  179MOL0     C24053   2.682   7.534   2.393 -0.7663 -0.3306 -0.4877
  179MOL0     O24054   2.788   7.533   2.292 -0.2447 -0.1442  0.2326
  179MOL0     C24055   2.877   7.426   2.269 -0.9066 -0.0506  0.4169
  179MOL0     C24056   2.966   7.440   2.165 -0.2120  0.1930  1.1504
  179MOL0     C24057   3.069   7.349   2.159 -0.8943  0.1923  0.0800
  179MOL0     C24058   3.070   7.224   2.236 -0.2312 -0.5587  0.9830
  179MOL0     C24059   3.156   7.106   2.193  0.0123  0.5574 -0.4581
  179MOL0     O24060   3.206   7.028   2.293 -0.0867 -0.1681 -0.2206
  179MOL0     C24061   3.298   6.941   2.245  0.5069 -0.6199 -0.2365
  179MOL0     C24062   3.276   6.801   2.250  0.5014  0.0001 -0.1886
  179MOL0     C24063   3.366   6.711   2.198 -0.0726 -0.4908 -0.2178
  179MOL0     C24064   3.485   6.760   2.139  0.2170 -0.6324  0.2228
  179MOL0     O24065   3.576   6.665   2.100  0.0336 -0.1323  0.1460
  179MOL0     C24066   3.713   6.694   2.059  0.4222  0.5771 -0.0943
  179MOL0     C24067   3.778   6.557   2.035  0.3000 -0.7901 -0.0479
  179MOL0     C24068   3.763   6.452   2.155 -0.9909  0.0669  0.2273
  179MOL0     C24069   3.826   6.318   2.113  0.5544  0.2410  1.0063
  179MOL0     C24070   3.732   6.227   2.027 -0.2542 -0.8986  0.7678
  179MOL0     C24071   3.789   6.094   1.968 -0.3821 -0.4430 -0.6095
  179MOL0     C24072   3.679   6.031   1.879  0.0473  0.5087 -0.4750
  179MOL0     C24073   3.732   5.913   1.796 -0.5523 -0.4296  0.2788
  179MOL0    Cl24074   3.606   5.795   1.745  0.3234 -0.2472 -0.4362
  179MOL0     C24075   3.508   6.899   2.141  0.1292 -0.1905 -0.0164
  179MOL0     C24076   3.408   6.995   2.181  0.2828  0.4690  0.0153
  179MOL0     O24077   3.186   7.105   2.077 -0.0754  0.6736  0.2669
  179MOL0     C24078   2.980   7.222   2.347 -0.7612  0.7699 -0.6291
  179MOL0     C24079   2.883   7.323   2.364  0.6487 -0.1800  0.6465
  179MOL0     N24080   2.479   7.887   2.615  0.2072 -0.1093  1.1537
  179MOL0     N24081   2.364   7.910   2.671  0.0361 -0.4259 -0.9022
  179MOL0     C24082   1.290   7.500   2.928  0.5559  0.4615  0.3220
  179MOL0     C24083   1.188   7.565   2.989  0.1112  0.3953  0.3787
  179MOL0     C24084   0.806   7.787   3.028  0.0771  0.2182 -0.8453
  179MOL0     C24085   0.691   7.783   2.950  0.4985  0.8526  0.0789
  179MOL0     C24086   0.569   7.821   3.000  0.4498  0.8651 -0.6572
  179MOL0     C24087   0.557   7.889   3.124 -0.4528  0.7049  1.4968
  179MOL0     O24088   0.432   7.926   3.169  0.0743 -0.2308 -0.4515
  179MOL0     C24089   0.406   8.004   3.294 -0.4385 -0.2628  0.2958
  179MOL0     C24090   0.263   8.050   3.315 -0.7116 -0.2964  0.7654
  179MOL0     C24091   0.172   7.922   3.336 -0.0953 -0.1919  0.3064
  179MOL0     C24092   0.052   7.938   3.440 -0.6647  0.7465  1.0529
  179MOL0     C24093  -0.022   7.811   3.447  0.3933  0.7277  1.3221
  179MOL0     C24094  -0.087   7.704   3.450 -0.6241 -1.0124 -0.0470
  179MOL0     C24095   0.673   7.891   3.197 -0.3026 -0.1617  0.1433
  179MOL0     C24096   0.803   7.852   3.153  0.1955  0.3244 -0.2498
  179MOL0     C24097   0.915   7.878   3.247 -0.0236 -0.4020  0.4096
  179MOL0     H24098   1.259   7.893   2.907  1.5149  0.8540  1.9353
  179MOL0     H24099   1.445   7.768   2.807 -0.2600 -0.8348 -1.5649
  179MOL0     H24100   1.542   7.631   2.662  2.9885  0.5256 -1.4467
  179MOL0     H24101   1.635   7.648   2.818  0.0419 -0.7855  0.8247
  179MOL0     H24102   1.623   7.383   2.654  1.1694 -0.4141 -0.0819
  179MOL0     H24103   1.750   7.430   2.757  0.0000  1.3274  0.3466
  179MOL0     H24104   1.729   7.511   2.468 -0.0244 -0.8771 -0.2114
  179MOL0     H24105   1.845   7.439   2.555  1.6981  0.6041  2.1894
  179MOL0     H24106   1.792   7.739   2.573  1.7868  2.0786  3.0099
  179MOL0     H24107   1.878   7.663   2.705 -0.4584 -2.9298  0.2505
  179MOL0     H24108   2.042   7.582   2.556 -0.2695  0.2032  0.8099
  179MOL0     H24109   1.948   7.606   2.404  0.9280  0.3209 -0.1894
  179MOL0     H24110   2.124   7.774   2.427  1.1303 -1.4187  1.8256
  179MOL0     H24111   1.968   7.850   2.414 -1.8888 -0.3443  1.6527
  179MOL0     H24112   2.075   7.779   2.691  0.5466 -0.5013 -0.0712
  179MOL0     H24113   1.949   7.900   2.645 -0.9302 -1.6169 -0.3717
  179MOL0     H24114   2.077   8.045   2.548 -4.0339 -4.4350 -1.3923
  179MOL0     H24115   2.146   8.031   2.718  2.5474 -0.4891  0.9153
  179MOL0     H24116   2.296   7.959   2.363 -1.3721  1.5299  0.3884
  179MOL0     H24117   2.504   7.940   2.276  1.4546 -1.1125 -1.0192
  179MOL0     H24118   2.655   7.962   2.362 -0.1173 -1.3991 -1.1355
  179MOL0     H24119   2.520   7.711   2.261 -0.1927 -3.0167  2.1507
  179MOL0     H24120   2.685   7.767   2.261 -1.6263 -2.5339 -1.6295
  179MOL0     H24121   2.539   7.659   2.502 -2.1448  1.5698 -1.9410
  179MOL0     H24122   2.711   7.717   2.484 -1.6170  1.5501  1.5871
  179MOL0     H24123   2.598   7.472   2.359 -1.4982  1.0483 -1.2882
  179MOL0     H24124   2.704   7.499   2.494 -1.0041 -2.6269 -1.1888
  179MOL0     H24125   2.962   7.521   2.092  3.3251  0.6053  1.2144
  179MOL0     H24126   3.144   7.364   2.082 -0.8375  0.9312  0.2690
  179MOL0     H24127   3.183   6.770   2.295  0.9099 -1.6006 -0.4035
  179MOL0     H24128   3.355   6.605   2.217 -1.3890 -0.5103 -0.9950
  179MOL0     H24129   3.712   6.759   1.971 -0.8370 -0.6737 -1.0573
  179MOL0     H24130   3.764   6.740   2.144  3.7159 -1.1308 -1.0091
  179MOL0     H24131   3.744   6.519   1.938  0.4694  3.2116 -1.9274
  179MOL0     H24132   3.884   6.574   2.014  0.1294 -1.7220 -1.9034
  179MOL0     H24133   3.827   6.497   2.231 -1.0216  0.6966 -0.1210
  179MOL0     H24134   3.659   6.442   2.187 -1.1521 -1.8138 -0.7471
  179MOL0     H24135   3.863   6.269   2.203  3.9597 -0.6049 -0.6877
  179MOL0     H24136   3.907   6.344   2.045 -0.3922  0.5544 -0.0440
  179MOL0     H24137   3.689   6.284   1.944  1.0463 -0.0563  0.6441
  179MOL0     H24138   3.652   6.192   2.093 -1.6618 -1.0251 -0.9258
  179MOL0     H24139   3.876   6.120   1.908  0.5626  2.1017  1.6434
  179MOL0     H24140   3.826   6.025   2.044  1.1663 -0.1643 -1.0898
  179MOL0     H24141   3.632   6.102   1.811 -3.5458 -1.3886 -0.1839
  179MOL0     H24142   3.592   5.996   1.935 -0.2176 -1.2755 -1.9122
  179MOL0     H24143   3.784   5.954   1.709  0.9795  0.5792  1.6196
  179MOL0     H24144   3.796   5.855   1.863  1.5712  1.3181 -0.1531
  179MOL0     H24145   3.603   6.940   2.109  0.9048  0.2795  2.6252
  179MOL0     H24146   3.443   7.097   2.183 -0.0586  0.5804  0.9151
  179MOL0     H24147   2.979   7.146   2.425 -1.9887  1.4137  0.0136
  179MOL0     H24148   2.806   7.333   2.439  1.1885  4.4794  0.8866
  179MOL0     H24149   1.287   7.392   2.929 -3.2027  0.3911 -0.3907
  179MOL0     H24150   1.112   7.506   3.038 -0.5506  0.6830 -0.2852
  179MOL0     H24151   0.699   7.744   2.849  2.0903  1.3237 -0.0054
  179MOL0     H24152   0.492   7.797   2.927  1.6667  0.2158 -1.7675
  179MOL0     H24153   0.477   8.087   3.281  2.1316 -2.2795  0.7725
  179MOL0     H24154   0.439   7.954   3.385  1.6605 -0.5729 -0.5881
  179MOL0     H24155   0.219   8.111   3.236 -1.5506  2.7810  3.3799
  179MOL0     H24156   0.263   8.114   3.404  0.8705  0.0633  0.5318
  179MOL0     H24157   0.235   7.843   3.379  3.2287  1.4957 -1.0812
  179MOL0     H24158   0.133   7.894   3.237 -1.6896  2.2394  0.1858
  179MOL0     H24159   0.081   7.950   3.545 -2.1266 -0.0891  1.5728
  179MOL0     H24160  -0.016   8.015   3.402 -1.0197 -0.0502  0.0204
  179MOL0     H24161  -0.133   7.608   3.458 -1.6575 -0.4291  1.5046
  179MOL0     H24162   0.674   7.938   3.295 -2.7318  0.4789 -0.0652
  179MOL0     H24163   0.960   7.782   3.275  0.0736 -0.6795 -0.6434
  179MOL0     H24164   0.983   7.952   3.205  0.1629 -1.4363 -1.2308
  179MOL0     H24165   0.885   7.923   3.342 -1.1555 -1.2328  0.4696
  180MOL0     O24166   3.905   8.411   8.094 -0.3110 -0.1050  0.0841
  180MOL0     C24167   3.957   8.367   8.197  0.3656 -0.4077  0.0023
  180MOL0     O24168   4.058   8.265   8.203  0.1725 -0.1884  0.0149
  180MOL0     C24169   4.122   8.232   8.087 -0.1283  0.8672  0.2889
  180MOL0     C24170   4.249   8.280   8.056  0.6476 -1.1631 -0.0288
  180MOL0     C24171   4.320   8.229   7.943  0.3652  0.2100  0.2470
  180MOL0     C24172   4.269   8.132   7.854 -0.9583 -0.2703  0.5097
  180MOL0     O24173   4.338   8.067   7.749  0.4843 -0.1710 -0.2934
  180MOL0     C24174   4.418   8.153   7.671  0.3197  1.0959  0.1967
  180MOL0     C24175   4.322   8.237   7.583  0.1688  0.2214  0.0345
  180MOL0     C24176   4.404   8.303   7.474  0.6426  0.6190 -0.0526
  180MOL0     C24177   4.317   8.377   7.375  0.1837  0.1679  0.2777
  180MOL0     C24178   4.416   8.455   7.282 -0.3538  0.0762 -0.1353
  180MOL0     C24179   4.345   8.532   7.163  0.0887  0.1091 -0.8620
  180MOL0     C24180   4.456   8.598   7.078  0.3531 -0.9653  0.2832
  180MOL0     C24181   4.410   8.702   6.975 -0.1645 -0.7224 -0.4248
  180MOL0     N24182   4.520   8.778   6.921  0.0814  0.0008  0.2986
  180MOL0     C24183   4.573   8.893   6.968  0.0738  0.1682  0.8876
  180MOL0     C24184   4.669   8.920   6.876 -0.1999 -0.9331 -0.4487
  180MOL0     C24185   4.757   9.047   6.886 -0.0386  0.5393 -0.3872
  180MOL0     C24186   4.848   9.079   6.769 -0.2504 -0.7465  0.2814
  180MOL0     C24187   4.966   9.171   6.815  0.8281 -0.7525  0.7121
  180MOL0     C24188   5.030   9.230   6.690  0.4524  0.9008 -0.1832
  180MOL0     O24189   5.137   9.322   6.719  0.2467  0.0050 -0.5583
  180MOL0     C24190   5.270   9.292   6.710  0.9190  0.9508  0.6418
  180MOL0     C24191   5.363   9.394   6.749  1.0919  1.1168 -1.0047
  180MOL0     C24192   5.501   9.368   6.757 -0.4447  0.3101  0.8168
  180MOL0     C24193   5.549   9.246   6.714 -0.7788  0.6903  0.3075
  180MOL0     C24194   5.699   9.216   6.704  0.3312  0.2493  1.4153
  180MOL0     O24195   5.782   9.329   6.709  0.0810  0.7083  0.5353
  180MOL0     C24196   5.915   9.297   6.731 -0.5404  0.1671 -0.0474
  180MOL0     C24197   6.016   9.313   6.633 -0.4135  0.0105 -0.2650
  180MOL0     C24198   6.147   9.284   6.665  0.3447  0.8760 -0.1473
  180MOL0     C24199   6.178   9.248   6.798 -0.0998  0.0820 -0.3473
  180MOL0     O24200   6.305   9.199   6.834  0.1680  0.2921 -0.0940
  180MOL0     C24201   6.385   9.153   6.722  0.4343  0.3708  0.0016
  180MOL0     C24202   6.510   9.091   6.773  0.1547 -0.0054  0.5646
  180MOL0     C24203   6.605   9.022   6.666  0.0307  0.2060  0.2217
  180MOL0     C24204   6.677   9.130   6.593  0.1524 -0.5666 -0.7828
  180MOL0     C24205   6.767   9.090   6.484 -0.3107  0.2655  0.5499
  180MOL0     C24206   6.884   9.000   6.535  0.2865 -0.3892  0.8192
  180MOL0     C24207   6.849   8.853   6.513  0.1905 -0.2476 -0.4364
  180MOL0     C24208   6.922   8.771   6.615 -0.4754 -0.3937  0.5007
  180MOL0    Cl24209   7.103   8.788   6.618  0.1748  0.0417  0.1840
  180MOL0     C24210   6.079   9.233   6.897 -1.0864  0.0493 -0.2570
  180MOL0     C24211   5.947   9.252   6.858 -0.2779 -0.5111 -0.3830
  180MOL0     O24212   5.736   9.099   6.704  0.5800 -0.5916 -0.3353
  180MOL0     C24213   5.458   9.151   6.670 -0.6970  0.6724  1.1343
  180MOL0     C24214   5.321   9.176   6.652 -0.4606 -0.5123 -0.0668
  180MOL0     N24215   4.682   8.821   6.784  0.7741 -0.4537  0.1514
  180MOL0     N24216   4.572   8.760   6.802 -0.3255  0.4896 -1.1806
  180MOL0     C24217   4.137   8.091   7.883 -0.5915 -0.2708 -0.5050
  180MOL0     C24218   4.068   8.142   7.998  0.6124  0.5122 -0.2577
  180MOL0     C24219   3.904   8.405   8.326 -0.3710  0.1921  0.5727
  180MOL0     C24220   3.902   8.310   8.433 -0.2729  0.2087 -0.1861
  180MOL0     C24221   3.864   8.350   8.556 -0.2425  0.4748 -0.3755
  180MOL0     C24222   3.805   8.467   8.590 -0.2638  0.2542  0.2773
  180MOL0     O24223   3.745   8.506   8.706 -0.1082  0.5247 -0.6881
  180MOL0     C24224   3.716   8.414   8.811 -0.3966 -0.0591 -0.3843
  180MOL0     C24225   3.588   8.329   8.783 -1.4320  0.0279 -0.3629
  180MOL0     C24226   3.466   8.415   8.739  0.0953  0.0528 -0.2597
  180MOL0     C24227   3.346   8.325   8.718 -0.3536 -0.6434 -0.8025
  180MOL0     C24228   3.226   8.398   8.742  0.1990 -0.3477  0.2393
  180MOL0     C24229   3.114   8.447   8.749  0.5805 -0.3675  0.1532
  180MOL0     C24230   3.799   8.563   8.485 -0.5777  0.2041  0.0103
  180MOL0     C24231   3.848   8.531   8.356  0.1526 -1.3558  0.4385
  180MOL0     C24232   3.842   8.653   8.260 -0.5891 -0.1869  0.3209
  180MOL0     H24233   4.295   8.354   8.120  1.1659  0.1647 -1.8642
  180MOL0     H24234   4.426   8.253   7.938  0.3692  0.5462  1.6235
  180MOL0     H24235   4.489   8.208   7.733  0.9573  1.6133 -0.9875
  180MOL0     H24236   4.487   8.098   7.607  1.4728  0.5429  1.8321
  180MOL0     H24237   4.277   8.315   7.645  0.9731  0.2128  0.6553
  180MOL0     H24238   4.246   8.167   7.547 -0.7349 -0.2074  2.5614
  180MOL0     H24239   4.458   8.223   7.422  0.0566 -2.8377  4.0451
  180MOL0     H24240   4.475   8.367   7.526 -0.9295  1.2873  1.3786
  180MOL0     H24241   4.265   8.318   7.299  0.7544 -0.2771  0.2306
  180MOL0     H24242   4.246   8.442   7.427  1.4708  0.8500  1.2355
  180MOL0     H24243   4.496   8.508   7.334 -0.3091  0.4088 -0.5360
  180MOL0     H24244   4.480   8.378   7.239  0.5749  0.7256  0.0479
  180MOL0     H24245   4.287   8.456   7.108  1.4552 -1.8525  0.2876
  180MOL0     H24246   4.272   8.609   7.192 -1.3394 -0.8438 -1.7856
  180MOL0     H24247   4.522   8.523   7.033  0.9979 -0.6735  0.7296
  180MOL0     H24248   4.524   8.658   7.139  0.7811  1.5792 -2.4784
  180MOL0     H24249   4.359   8.647   6.895 -2.1846 -0.5998  0.7189
  180MOL0     H24250   4.342   8.772   7.023  0.7885 -0.5097  0.6575
  180MOL0     H24251   4.529   8.967   7.034 -2.4555  0.5579 -1.0956
  180MOL0     H24252   4.694   9.132   6.916  2.7110  1.9725  1.8441
  180MOL0     H24253   4.820   9.041   6.975 -0.2771 -1.0454 -0.3028
  180MOL0     H24254   4.901   8.993   6.729 -0.2221 -0.1635 -1.0000
  180MOL0     H24255   4.795   9.131   6.688  1.6400 -2.2335 -2.0567
  180MOL0     H24256   5.043   9.110   6.862  3.3834  1.5606 -0.2239
  180MOL0     H24257   4.927   9.241   6.889  1.6768 -0.6522  1.0658
  180MOL0     H24258   4.958   9.286   6.629 -2.3385 -1.4933  0.7359
  180MOL0     H24259   5.053   9.139   6.635 -4.0970 -1.2115  0.9472
  180MOL0     H24260   5.307   9.478   6.790  0.8337  1.1876 -1.4900
  180MOL0     H24261   5.573   9.443   6.788 -0.9064  0.7401  0.8645
  180MOL0     H24262   5.984   9.344   6.534  2.0039 -0.5150 -1.2776
  180MOL0     H24263   6.226   9.292   6.590  1.2659 -2.8694  0.1797
  180MOL0     H24264   6.340   9.074   6.661  1.9744  2.0650 -3.6826
  180MOL0     H24265   6.414   9.230   6.650  4.1479  0.5480  1.4945
  180MOL0     H24266   6.566   9.166   6.829  1.9022 -0.6130 -0.3003
  180MOL0     H24267   6.480   9.013   6.844 -0.3188  0.4040  0.8183
  180MOL0     H24268   6.679   8.961   6.721 -0.2567 -0.5107 -0.1748
  180MOL0     H24269   6.551   8.948   6.606 -0.4239  0.3078  0.5018
  180MOL0     H24270   6.736   9.186   6.666 -0.2516 -0.9120 -0.1819
  180MOL0     H24271   6.607   9.208   6.561 -0.0854 -0.9933 -1.3076
  180MOL0     H24272   6.811   9.175   6.431 -0.3210  0.0657  0.2199
  180MOL0     H24273   6.711   9.026   6.416  0.8535 -0.4977  0.2723
  180MOL0     H24274   6.979   9.018   6.484 -0.1691  0.3048  0.1984
  180MOL0     H24275   6.905   9.018   6.641  0.5370  0.7913  0.5727
  180MOL0     H24276   6.871   8.827   6.409 -0.7837  0.6857 -0.8998
  180MOL0     H24277   6.742   8.834   6.521  0.2763 -0.4045  0.3436
  180MOL0     H24278   6.907   8.791   6.722  1.1259  0.6741  0.5609
  180MOL0     H24279   6.892   8.667   6.598 -0.1242 -0.8126  2.1870
  180MOL0     H24280   6.115   9.198   6.993 -1.7074  1.5569  0.5636
  180MOL0     H24281   5.865   9.243   6.927 -0.4043  1.9199 -0.1344
  180MOL0     H24282   5.488   9.052   6.636  0.2455  0.7865  1.5993
  180MOL0     H24283   5.263   9.096   6.609  0.5840 -1.4108  0.1606
  180MOL0     H24284   4.091   8.024   7.812 -1.3320 -0.6029  0.2612
  180MOL0     H24285   3.969   8.104   8.021  1.4982 -0.9440  1.4980
  180MOL0     H24286   3.935   8.208   8.412 -1.4376 -0.1333 -0.4182
  180MOL0     H24287   3.885   8.284   8.640  2.1254  2.4306  0.6864
  180MOL0     H24288   3.699   8.476   8.899 -2.1152  1.1145 -1.4757
  180MOL0     H24289   3.809   8.360   8.830 -0.2736  0.5842  0.9192
  180MOL0     H24290   3.568   8.274   8.875  1.1439  0.0446  0.2724
  180MOL0     H24291   3.605   8.266   8.695 -4.3026 -0.6257 -0.5716
  180MOL0     H24292   3.478   8.476   8.649 -0.2449 -0.2600 -0.5189
  180MOL0     H24293   3.460   8.492   8.816  0.4022  0.4911 -0.6742
  180MOL0     H24294   3.351   8.281   8.619  1.1334  3.2472 -2.6543
  180MOL0     H24295   3.348   8.251   8.799 -2.5578 -0.5231 -0.5590
  180MOL0     H24296   3.019   8.493   8.766 -0.0091 -0.9998 -1.2423
  180MOL0     H24297   3.746   8.652   8.518  3.0063  2.9385 -0.8921
  180MOL0     H24298   3.932   8.661   8.198 -0.5117 -1.0392  0.3107
  180MOL0     H24299   3.768   8.640   8.182 -1.0851 -0.8998  0.8941
  180MOL0     H24300   3.822   8.747   8.311 -1.9188  0.9169 -2.0987
  181MOL0     O24301   1.787   1.841   5.789  0.6646  0.1022  0.1756
  181MOL0     C24302   1.816   1.740   5.726 -0.0163  0.5141 -0.5612
  181MOL0     O24303   1.735   1.624   5.736 -0.1538  0.4648 -0.4624
  181MOL0     C24304   1.614   1.631   5.793 -0.4981 -0.6501  0.7277
  181MOL0     C24305   1.490   1.603   5.725 -0.3751  0.1206  0.6528
  181MOL0     C24306   1.372   1.622   5.787  0.5570 -1.2516 -0.4896
  181MOL0     C24307   1.355   1.652   5.918 -0.7126 -0.7608 -0.1074
  181MOL0     O24308   1.236   1.673   5.977  0.3837 -0.3000 -0.4336
  181MOL0     C24309   1.105   1.616   5.934  0.4885 -0.4230 -0.0682
  181MOL0     C24310   1.033   1.561   6.057 -0.6736  0.5026  1.0866
  181MOL0     C24311   1.117   1.501   6.170  0.7226 -0.0560  0.5801
  181MOL0     C24312   1.204   1.382   6.134  0.4580 -0.3270  0.5074
  181MOL0     C24313   1.304   1.347   6.241  0.9213 -0.0491  0.6133
  181MOL0     C24314   1.354   1.208   6.199 -0.2829  0.3533 -0.1771
  181MOL0     C24315   1.429   1.138   6.321  0.8334 -0.3165 -1.1553
  181MOL0     C24316   1.540   1.213   6.381 -0.0853  0.3331 -0.5475
  181MOL0     N24317   1.650   1.219   6.279 -0.5931  0.6589  0.1374
  181MOL0     C24318   1.664   1.304   6.171 -0.4497 -0.5644 -0.2591
  181MOL0     C24319   1.759   1.254   6.091  0.7441 -0.2459  0.2772
  181MOL0     C24320   1.781   1.311   5.953 -0.4349 -0.1033 -0.6389
  181MOL0     C24321   1.918   1.376   5.964  0.2412 -0.2207 -0.6664
  181MOL0     C24322   1.921   1.514   6.016 -0.1547  0.2907 -0.1171
  181MOL0     C24323   2.062   1.558   6.058  1.2560  0.6532 -0.4142
  181MOL0     O24324   2.127   1.585   5.933 -0.1501  0.6429 -0.0919
  181MOL0     C24325   2.264   1.590   5.935  0.3025  0.0712  0.1468
  181MOL0     C24326   2.345   1.591   6.055 -0.5084 -0.1611  0.2155
  181MOL0     C24327   2.480   1.606   6.053  0.4902 -0.0139  0.2776
  181MOL0     C24328   2.547   1.638   5.933  0.1139  1.3893  1.1485
  181MOL0     C24329   2.695   1.652   5.920 -0.1611 -0.0323 -0.4866
  181MOL0     O24330   2.747   1.662   5.796  0.0090  0.0590 -0.3086
  181MOL0     C24331   2.867   1.732   5.776  0.7861  0.2188 -0.0156
  181MOL0     C24332   2.912   1.844   5.845  0.8479  0.5784  0.0539
  181MOL0     C24333   3.031   1.907   5.815  0.5300  0.3804 -0.6104
  181MOL0     C24334   3.115   1.867   5.714  0.5116  0.4947 -0.3137
  181MOL0     O24335   3.243   1.912   5.707  0.2604 -0.2355 -0.4419
  181MOL0     C24336   3.250   2.051   5.676  0.0966 -0.0476 -0.0779
  181MOL0     C24337   3.389   2.108   5.645 -0.4691  0.8903  0.2790
  181MOL0     C24338   3.382   2.248   5.589  0.6935  0.6436 -0.2196
  181MOL0     C24339   3.526   2.309   5.586  0.7785 -0.6000  0.3361
  181MOL0     C24340   3.532   2.455   5.517 -0.6029  0.0263 -0.1802
  181MOL0     C24341   3.661   2.539   5.514  0.2945  0.6732  0.3701
  181MOL0     C24342   3.675   2.625   5.377 -0.5167 -0.3190 -0.3904
  181MOL0     C24343   3.807   2.705   5.371  0.6486  0.8094 -0.6527
  181MOL0    Cl24344   3.800   2.843   5.489 -0.1664  0.2678 -0.0079
  181MOL0     C24345   3.064   1.754   5.642 -0.3705 -1.2587 -0.2294
  181MOL0     C24346   2.947   1.684   5.673  0.9926 -0.0174 -0.8324
  181MOL0     O24347   2.760   1.653   6.023 -0.2906 -0.7050  0.7538
  181MOL0     C24348   2.457   1.643   5.817  0.1189  0.0781  0.8324
  181MOL0     C24349   2.318   1.611   5.819  0.1225 -0.0623 -0.3119
  181MOL0     N24350   1.802   1.136   6.147 -0.1587  0.1133 -0.8550
  181MOL0     N24351   1.734   1.117   6.255 -0.0551 -0.7188  0.0689
  181MOL0     C24352   1.475   1.664   5.994  0.4670  0.0227 -0.1532
  181MOL0     C24353   1.599   1.657   5.932 -0.3924 -0.1940 -0.6691
  181MOL0     C24354   1.933   1.739   5.630  0.1140 -0.6214 -0.0101
  181MOL0     C24355   1.904   1.679   5.508  1.0449 -0.1029  0.2102
  181MOL0     C24356   1.999   1.673   5.407  0.4459 -0.1315  0.0571
  181MOL0     C24357   2.124   1.732   5.417 -0.3868  0.1326 -0.7203
  181MOL0     O24358   2.222   1.733   5.320 -0.5962  0.4983 -0.2029
  181MOL0     C24359   2.197   1.676   5.190 -0.1823 -0.1473  0.4345
  181MOL0     C24360   2.291   1.740   5.081  0.4246 -0.4031 -0.3649
  181MOL0     C24361   2.430   1.674   5.081 -0.4667 -0.2728 -0.4113
  181MOL0     C24362   2.547   1.784   5.050 -0.2247  0.0521 -0.1381
  181MOL0     C24363   2.519   1.848   4.921 -0.8664 -1.3363 -0.6496
  181MOL0     C24364   2.519   1.895   4.809  0.0157 -0.8506 -0.8698
  181MOL0     C24365   2.154   1.795   5.540  0.6471  0.4932  0.1706
  181MOL0     C24366   2.056   1.808   5.640 -0.7809 -0.2873 -0.5095
  181MOL0     C24367   2.094   1.893   5.758 -0.3952 -0.0241  0.2011
  181MOL0     H24368   1.500   1.570   5.623 -2.6666  0.0977  0.3716
  181MOL0     H24369   1.281   1.624   5.727 -0.3432 -2.5701  0.7672
  181MOL0     H24370   1.056   1.702   5.887  0.2777 -1.0972 -1.1154
  181MOL0     H24371   1.111   1.532   5.865  2.2454 -1.0172  0.7667
  181MOL0     H24372   0.958   1.487   6.026  2.9932 -2.0586 -2.8405
  181MOL0     H24373   0.970   1.635   6.107 -0.4194  0.3657  1.6126
  181MOL0     H24374   1.057   1.471   6.256  0.1816 -2.8233 -0.6210
  181MOL0     H24375   1.182   1.580   6.207  1.9004 -1.0266  0.6573
  181MOL0     H24376   1.137   1.299   6.107 -2.4812  1.7912  0.8099
  181MOL0     H24377   1.269   1.405   6.049 -3.2326 -0.0349 -2.4886
  181MOL0     H24378   1.380   1.425   6.254 -0.2379  0.7907  2.8252
  181MOL0     H24379   1.247   1.339   6.334  1.8895 -0.7406  1.1751
  181MOL0     H24380   1.272   1.142   6.171 -0.2253 -0.3508  1.2245
  181MOL0     H24381   1.408   1.210   6.104 -1.3815 -1.0883 -0.8723
  181MOL0     H24382   1.463   1.035   6.301  0.6163 -0.7612  0.5694
  181MOL0     H24383   1.355   1.128   6.401  1.8201  3.5261  0.4363
  181MOL0     H24384   1.507   1.313   6.414  0.8967  1.1643 -1.9806
  181MOL0     H24385   1.581   1.154   6.463  2.3985 -1.9206 -3.2215
  181MOL0     H24386   1.601   1.389   6.145  0.2210  0.9903  2.7360
  181MOL0     H24387   1.797   1.235   5.876  0.5024 -0.2532 -0.3052
  181MOL0     H24388   1.706   1.380   5.912  2.0926  1.6974 -2.5366
  181MOL0     H24389   1.984   1.320   6.030  2.5499  2.5386 -0.4252
  181MOL0     H24390   1.962   1.399   5.867  0.3022 -1.9953 -1.0783
  181MOL0     H24391   1.853   1.531   6.100  2.5289  4.3359  1.5604
  181MOL0     H24392   1.893   1.583   5.936  0.6457 -0.9990 -1.5788
  181MOL0     H24393   2.103   1.473   6.113 -1.1718 -2.0750 -2.4725
  181MOL0     H24394   2.043   1.645   6.121 -0.4030 -0.1607  0.2836
  181MOL0     H24395   2.297   1.579   6.151 -2.2472 -1.7879 -0.7836
  181MOL0     H24396   2.528   1.579   6.146 -0.5423 -0.3570  0.7191
  181MOL0     H24397   2.843   1.888   5.916  0.0662 -1.2363  0.4499
  181MOL0     H24398   3.059   1.997   5.868 -2.4431  1.9576 -1.5186
  181MOL0     H24399   3.180   2.075   5.596 -1.9813  2.6751  2.3603
  181MOL0     H24400   3.214   2.117   5.755 -2.8795 -1.9585  0.3236
  181MOL0     H24401   3.442   2.109   5.741  0.0376 -1.2957  0.0674
  181MOL0     H24402   3.444   2.050   5.571  1.1063  1.1058  1.2329
  181MOL0     H24403   3.329   2.256   5.494  0.5373 -0.8776 -0.2900
  181MOL0     H24404   3.321   2.312   5.654 -0.8978 -0.3641 -0.6593
  181MOL0     H24405   3.594   2.246   5.528  1.3151  0.5325 -0.3019
  181MOL0     H24406   3.568   2.317   5.687 -1.6001  2.2099  1.2652
  181MOL0     H24407   3.457   2.522   5.561 -1.4013 -0.2755 -1.0324
  181MOL0     H24408   3.497   2.443   5.414  0.6513 -2.7759 -0.3529
  181MOL0     H24409   3.680   2.581   5.613 -0.2728  0.1826  0.6944
  181MOL0     H24410   3.737   2.465   5.489 -2.1923 -1.7316 -0.6556
  181MOL0     H24411   3.597   2.702   5.380  2.1993  2.5655  1.0498
  181MOL0     H24412   3.655   2.561   5.290 -3.2941 -2.8050  1.8451
  181MOL0     H24413   3.891   2.639   5.392  0.0146 -0.2633 -1.3914
  181MOL0     H24414   3.822   2.744   5.270  2.3371  2.6025  0.2197
  181MOL0     H24415   3.128   1.710   5.567  2.4723  2.6525 -0.3979
  181MOL0     H24416   2.916   1.591   5.625 -0.2316  0.5587 -1.1958
  181MOL0     H24417   2.491   1.669   5.718 -0.0033  0.9335  1.0089
  181MOL0     H24418   2.255   1.612   5.731  0.4632 -1.0917 -0.5773
  181MOL0     H24419   1.469   1.683   6.101 -0.0353 -0.3025 -0.1170
  181MOL0     H24420   1.687   1.660   5.995 -0.7613 -0.8875 -0.1087
  181MOL0     H24421   1.800   1.650   5.497  0.2209  1.9027  2.0530
  181MOL0     H24422   1.957   1.630   5.316 -0.4388 -1.0166  0.8487
  181MOL0     H24423   2.097   1.708   5.162 -0.7735 -2.7259 -0.7759
  181MOL0     H24424   2.185   1.567   5.198 -1.6656 -0.1630 -1.3171
  181MOL0     H24425   2.290   1.848   5.098 -2.0061  0.0136 -2.3981
  181MOL0     H24426   2.261   1.710   4.980  1.1459 -2.1560 -0.0979
  181MOL0     H24427   2.419   1.597   5.004 -1.1956  1.0857 -1.7226
  181MOL0     H24428   2.465   1.634   5.177 -0.9525  0.8865  0.2807
  181MOL0     H24429   2.560   1.860   5.128  0.8681  0.3543 -0.5939
  181MOL0     H24430   2.645   1.736   5.049 -0.0703  0.3681 -1.2093
  181MOL0     H24431   2.512   1.936   4.710 -1.8485 -0.6696 -0.7094
  181MOL0     H24432   2.254   1.831   5.566  1.4769 -1.9595  0.5924
  181MOL0     H24433   2.071   1.999   5.762  3.0049  0.8215  2.7586
  181MOL0     H24434   2.050   1.861   5.853  1.0415  1.5429  1.4524
  181MOL0     H24435   2.203   1.901   5.761 -0.4765  0.9880  0.6039
  182MOL0     O24436   1.690  10.017   6.791 -0.0083 -0.3276 -0.3688
  182MOL0     C24437   1.698  10.007   6.672  0.1792 -0.0300  0.0066
  182MOL0     O24438   1.807  10.002   6.599  0.4944 -0.1487 -0.0130
  182MOL0     C24439   1.924  10.034   6.666 -1.2121 -0.5170  0.2490
  182MOL0     C24440   1.951  10.141   6.759 -0.1111  0.5433  0.9067
  182MOL0     C24441   2.081  10.151   6.809 -0.3363  0.0078 -0.6825
  182MOL0     C24442   2.186  10.063   6.768 -0.3551  0.1942 -0.8599
  182MOL0     O24443   2.312  10.047   6.823  0.3150 -0.8780 -0.8265
  182MOL0     C24444   2.328  10.091   6.960  0.3717  0.2885  0.1514
  182MOL0     C24445   2.443  10.012   7.020 -0.1746 -0.5077 -0.6689
  182MOL0     C24446   2.581  10.068   6.984 -0.1210  1.1152  0.1910
  182MOL0     C24447   2.682  10.025   7.086 -0.4202 -0.1351 -0.9823
  182MOL0     C24448   2.823  10.079   7.066  0.6055  0.9978 -0.2361
  182MOL0     C24449   2.894  10.014   6.949  0.0659 -0.0673 -0.5031
  182MOL0     C24450   3.028  10.087   6.937  0.4564  0.6149 -0.0243
  182MOL0     C24451   3.110  10.027   6.818  1.3639 -0.7835 -0.5470
  182MOL0     N24452   3.253  10.037   6.832 -0.2642 -0.0014  0.1285
  182MOL0     C24453   3.327  10.150   6.852 -0.4156 -0.7154  0.2805
  182MOL0     C24454   3.451  10.127   6.803 -0.1678  0.0892 -1.1750
  182MOL0     C24455   3.553  10.233   6.831  0.6108 -0.2786  0.1410
  182MOL0     C24456   3.695  10.184   6.815  0.4176  0.2228  0.0008
  182MOL0     C24457   3.794  10.292   6.845 -0.9118  0.3809 -0.5459
  182MOL0     C24458   3.940  10.232   6.865 -0.1830  0.6727 -0.8951
  182MOL0     O24459   4.023  10.346   6.887 -0.1597  0.4793  0.1453
  182MOL0     C24460   4.159  10.311   6.895  1.2684  0.8040 -0.1653
  182MOL0     C24461   4.235  10.417   6.932  0.1683 -0.2887 -0.6832
  182MOL0     C24462   4.366  10.415   6.960 -0.2757  0.1112  0.7767
  182MOL0     C24463   4.428  10.299   6.943 -0.1527 -0.8826  0.3654
  182MOL0     C24464   4.581  10.298   6.955  1.2072  0.1169 -0.1913
  182MOL0     O24465   4.643  10.417   6.984  0.2744 -0.4264  0.8571
  182MOL0     C24466   4.777  10.419   7.014 -0.8917  0.0127 -0.0653
  182MOL0     C24467   4.845  10.325   7.088 -0.4893  1.2497  0.3212
  182MOL0     C24468   4.985  10.346   7.124 -0.0714  0.5291  0.2709
  182MOL0     C24469   5.051  10.461   7.088 -0.3409 -0.0319 -0.5313
  182MOL0     O24470   5.174  10.494   7.127 -1.0089  0.0229 -0.4217
  182MOL0     C24471   5.236  10.417   7.232  0.2032  0.5179  0.7844
  182MOL0     C24472   5.343  10.491   7.310  0.1708 -0.4027 -0.4040
  182MOL0     C24473   5.466  10.549   7.230  0.9960 -0.5390  0.5094
  182MOL0     C24474   5.537  10.442   7.153 -0.3721  1.0756  0.2272
  182MOL0     C24475   5.674  10.487   7.108  0.0292 -0.7468  0.0335
  182MOL0     C24476   5.676  10.628   7.033  0.3889  0.0508  0.3357
  182MOL0     C24477   5.826  10.664   7.012  0.8476  1.0141 -0.0536
  182MOL0     C24478   5.856  10.765   6.893 -0.1677  0.5833 -0.7405
  182MOL0    Cl24479   6.029  10.749   6.855 -0.1272  0.1267  0.2025
  182MOL0     C24480   4.983  10.553   7.014 -0.1609  0.6154  0.5054
  182MOL0     C24481   4.845  10.535   6.976 -0.0233 -0.2789  0.1629
  182MOL0     O24482   4.638  10.190   6.925  0.4665  0.4238 -1.0991
  182MOL0     C24483   4.361  10.180   6.909  1.4162 -0.2383  0.1637
  182MOL0     C24484   4.223  10.181   6.884 -0.2010 -0.5011  0.7147
  182MOL0     N24485   3.452   9.993   6.754 -0.2624 -0.0096 -0.0259
  182MOL0     N24486   3.343   9.942   6.778  0.4120 -0.6658 -0.0072
  182MOL0     C24487   2.157   9.963   6.670 -0.5006 -0.1436 -0.0152
  182MOL0     C24488   2.028   9.952   6.623  0.0595  0.8106  0.5681
  182MOL0     C24489   1.576   9.995   6.591  0.0891  0.6978 -0.2567
  182MOL0     C24490   1.463  10.070   6.630  0.6470  0.2633  0.5270
  182MOL0     C24491   1.339  10.070   6.561  0.4269 -1.0395  0.3592
  182MOL0     C24492   1.336   9.991   6.449  0.1937 -0.2020 -0.2160
  182MOL0     O24493   1.217   9.998   6.394  0.1985  0.4438 -0.2492
  182MOL0     C24494   1.174   9.909   6.289 -0.4363 -1.2849  0.1689
  182MOL0     C24495   1.213   9.966   6.153 -0.6005  0.1557  0.5811
  182MOL0     C24496   1.253   9.855   6.065 -0.3346  0.4934 -0.1999
  182MOL0     C24497   1.299   9.894   5.918  0.1221  0.0307  0.1897
  182MOL0     C24498   1.429   9.970   5.914  0.8814 -0.1582  0.8456
  182MOL0     C24499   1.534  10.036   5.908  0.1994  0.1360  0.3333
  182MOL0     C24500   1.442   9.915   6.410 -0.8293  0.2302 -0.4892
  182MOL0     C24501   1.566   9.914   6.471  1.0793 -0.0578  0.2283
  182MOL0     C24502   1.666   9.813   6.433  0.6112  0.4960 -0.4893
  182MOL0     H24503   1.872  10.203   6.800  0.1316 -0.0868  2.4299
  182MOL0     H24504   2.093  10.220   6.892 -0.3867 -1.9260  1.0103
  182MOL0     H24505   2.351  10.197   6.969 -0.1639  0.3999  0.2473
  182MOL0     H24506   2.237  10.079   7.021 -1.0140  0.9933 -1.6670
  182MOL0     H24507   2.437   9.903   7.014  4.8811 -1.0789  0.0182
  182MOL0     H24508   2.442  10.023   7.129  0.4377 -2.6907 -0.3983
  182MOL0     H24509   2.568  10.177   6.978 -0.6671  1.0158 -4.7086
  182MOL0     H24510   2.608  10.024   6.888 -0.2959  1.4024  0.0093
  182MOL0     H24511   2.667  10.065   7.187  2.3358 -0.9608 -0.1731
  182MOL0     H24512   2.685   9.917   7.099 -0.1812 -0.1566 -1.2086
  182MOL0     H24513   2.824  10.187   7.053  1.6539  0.7294 -3.0271
  182MOL0     H24514   2.876  10.047   7.157  0.1881 -1.2601 -0.7165
  182MOL0     H24515   2.918   9.908   6.958 -1.8324 -0.4820  0.0366
  182MOL0     H24516   2.835  10.025   6.858  1.2222 -1.2841 -1.4509
  182MOL0     H24517   3.079  10.077   7.033 -0.3278 -0.5347  0.2952
  182MOL0     H24518   3.005  10.193   6.925 -2.7920  0.2632  2.0747
  182MOL0     H24519   3.087   9.920   6.817 -1.0403 -0.3159 -1.6731
  182MOL0     H24520   3.073  10.064   6.722 -2.6610 -0.3501  0.9631
  182MOL0     H24521   3.294  10.239   6.906 -0.2449 -0.0360 -0.7168
  182MOL0     H24522   3.526  10.313   6.762  2.7104 -1.3266 -2.0207
  182MOL0     H24523   3.554  10.285   6.928  3.2802 -0.2422  0.1542
  182MOL0     H24524   3.701  10.096   6.880  0.7146 -0.6555 -1.1764
  182MOL0     H24525   3.709  10.144   6.714  1.0653 -1.3285  0.6774
  182MOL0     H24526   3.780  10.341   6.941  3.4758  0.9249  0.0262
  182MOL0     H24527   3.799  10.368   6.766  0.1303 -0.4662 -1.3413
  182MOL0     H24528   3.976  10.174   6.780  1.6515  1.1422 -0.4877
  182MOL0     H24529   3.956  10.168   6.952  0.6917  0.5032 -1.1741
  182MOL0     H24530   4.184  10.512   6.949 -4.4341 -2.9873  3.1604
  182MOL0     H24531   4.411  10.512   6.977 -0.1038  0.0974  0.4227
  182MOL0     H24532   4.798  10.232   7.117  1.2317  0.9321  2.4118
  182MOL0     H24533   5.029  10.266   7.183  0.2421 -1.1537 -2.1240
  182MOL0     H24534   5.166  10.378   7.307 -1.0328 -1.5343 -1.3075
  182MOL0     H24535   5.272  10.322   7.191 -2.6024 -1.7764  3.1218
  182MOL0     H24536   5.291  10.570   7.365 -1.9654 -1.1995 -1.1878
  182MOL0     H24537   5.381  10.417   7.382  0.1053 -0.8379 -0.8110
  182MOL0     H24538   5.438  10.628   7.159  2.0322 -1.7232 -1.3046
  182MOL0     H24539   5.538  10.593   7.301  0.9327 -0.0303  0.2673
  182MOL0     H24540   5.494  10.401   7.061  2.0345 -1.5569  0.1582
  182MOL0     H24541   5.551  10.354   7.216  0.1263 -0.7894 -2.3396
  182MOL0     H24542   5.729  10.407   7.057  0.0878 -0.5134 -0.2735
  182MOL0     H24543   5.740  10.517   7.190 -1.0624  1.9474  0.0402
  182MOL0     H24544   5.633  10.623   6.932  2.3477  4.2562 -0.8934
  182MOL0     H24545   5.625  10.706   7.090  0.5724  0.4222 -0.0096
  182MOL0     H24546   5.881  10.573   6.985  1.9672  1.9666 -1.1123
  182MOL0     H24547   5.873  10.696   7.105  0.2914 -0.5015  0.7741
  182MOL0     H24548   5.803  10.754   6.798  0.5947 -1.3930 -0.9763
  182MOL0     H24549   5.831  10.864   6.933 -2.7275 -0.4915  0.5475
  182MOL0     H24550   5.031  10.647   6.989  1.7120 -0.1308  1.1083
  182MOL0     H24551   4.795  10.614   6.921  1.8284  0.6144 -0.3312
  182MOL0     H24552   4.410  10.084   6.896 -2.1692 -2.1323 -0.7269
  182MOL0     H24553   4.160  10.096   6.860 -3.1951  2.0011 -1.1397
  182MOL0     H24554   2.239   9.892   6.668 -2.4889 -2.7906  2.9954
  182MOL0     H24555   1.992   9.874   6.557  0.4706  1.4332 -0.4046
  182MOL0     H24556   1.467  10.144   6.710 -1.2682  0.2048  0.7098
  182MOL0     H24557   1.247  10.120   6.590  1.6663  2.9888 -1.8791
  182MOL0     H24558   1.066   9.900   6.301 -0.4946  0.3013  1.2988
  182MOL0     H24559   1.222   9.812   6.301  1.2863 -0.7868 -1.9461
  182MOL0     H24560   1.305  10.024   6.145  0.1098 -1.1762 -1.7936
  182MOL0     H24561   1.137  10.033   6.110 -1.9942 -0.9529  1.2523
  182MOL0     H24562   1.165   9.790   6.068  1.6317 -2.3647 -0.5946
  182MOL0     H24563   1.333   9.802   6.118 -1.1575  2.2525  3.1186
  182MOL0     H24564   1.310   9.797   5.868 -0.5766 -0.5477  1.1308
  182MOL0     H24565   1.223   9.952   5.865  1.0283  0.2895 -0.8655
  182MOL0     H24566   1.623  10.096   5.915 -1.5777  2.9121  0.2711
  182MOL0     H24567   1.419   9.860   6.320  1.5177  0.7649 -1.4924
  182MOL0     H24568   1.688   9.756   6.524  0.7252  0.7014 -0.3864
  182MOL0     H24569   1.627   9.748   6.354  2.5940  0.2410 -1.3074
  182MOL0     H24570   1.756   9.861   6.394  1.0664  1.1844  1.2880
  183MOL0     O24571   9.584   2.743   2.210  0.0827  0.1123  0.2568
  183MOL0     C24572   9.482   2.811   2.209  0.4129  0.0165  0.3923
  183MOL0     O24573   9.457   2.907   2.115  0.0219  0.5781 -0.4571
  183MOL0     C24574   9.555   2.949   2.021 -0.8904 -0.7310 -0.0216
  183MOL0     C24575   9.664   3.038   2.063  0.1723 -0.3154  0.0411
  183MOL0     C24576   9.735   3.098   1.962  0.0868 -0.1942  0.3613
  183MOL0     C24577   9.719   3.070   1.824  0.2757 -0.0684 -0.4447
  183MOL0     O24578   9.803   3.130   1.731  0.1067 -0.1711  0.0113
  183MOL0     C24579   9.942   3.099   1.745 -0.6856 -0.0371 -0.2618
  183MOL0     C24580  10.017   3.139   1.626  0.8550  1.0045 -0.3833
  183MOL0     C24581  10.163   3.108   1.644 -0.2428 -0.0335 -0.0257
  183MOL0     C24582  10.234   3.194   1.538  0.8128 -0.0069 -0.0974
  183MOL0     C24583  10.386   3.191   1.552 -0.5114  0.2138 -0.5795
  183MOL0     C24584  10.453   3.285   1.441 -0.7311  0.1652  0.6714
  183MOL0     C24585  10.602   3.259   1.443 -1.0601 -1.0490  0.5782
  183MOL0     C24586  10.666   3.398   1.413  0.3629  0.7397  0.4549
  183MOL0     N24587  10.808   3.387   1.408 -0.5208  0.1439  0.2387
  183MOL0     C24588  10.888   3.373   1.519  0.0959 -1.0136  0.1518
  183MOL0     C24589  11.016   3.373   1.472  0.5589 -0.0601  0.1019
  183MOL0     C24590  11.145   3.371   1.561  0.5496 -0.0230  0.5367
  183MOL0     C24591  11.258   3.278   1.496 -0.8713  0.2750  0.9992
  183MOL0     C24592  11.385   3.304   1.580 -0.0585  0.2766 -0.2702
  183MOL0     C24593  11.369   3.213   1.705  0.5163 -0.5215 -0.3387
  183MOL0     O24594  11.483   3.237   1.789  0.2776 -0.0586 -0.9849
  183MOL0     C24595  11.484   3.187   1.916 -0.7657 -0.3000 -0.2639
  183MOL0     C24596  11.574   3.261   1.998  0.3042  0.2552 -0.3004
  183MOL0     C24597  11.582   3.234   2.136 -0.3273 -0.8309  0.4736
  183MOL0     C24598  11.518   3.126   2.188 -0.1403 -0.0721  0.0804
  183MOL0     C24599  11.525   3.097   2.333 -0.0567  0.0307 -0.4326
  183MOL0     O24600  11.463   2.977   2.372 -0.3380  0.3148 -0.6779
  183MOL0     C24601  11.480   2.921   2.499  0.4378  0.3303 -0.9143
  183MOL0     C24602  11.573   2.949   2.599 -0.0080 -0.5435  0.7396
  183MOL0     C24603  11.574   2.888   2.724  0.0847  0.7105 -0.0730
  183MOL0     C24604  11.479   2.789   2.755  0.0305  0.4591 -0.3196
  183MOL0     O24605  11.467   2.709   2.867 -0.1142  0.2952  0.0558
  183MOL0     C24606  11.591   2.691   2.951 -0.1014  0.9622  0.7437
  183MOL0     C24607  11.654   2.553   2.936 -0.1243  0.6425 -0.3559
  183MOL0     C24608  11.773   2.522   3.027  0.2395  0.2064 -0.1665
  183MOL0     C24609  11.867   2.635   3.033  1.1305 -0.0332  0.9026
  183MOL0     C24610  11.985   2.601   3.125  0.0157 -0.5470  0.7288
  183MOL0     C24611  12.070   2.723   3.172  0.2506 -0.1326  0.1561
  183MOL0     C24612  12.157   2.682   3.279 -0.5043 -0.6884 -0.6745
  183MOL0     C24613  12.239   2.800   3.331 -0.1097  0.1709 -0.4184
  183MOL0    Cl24614  12.344   2.884   3.206 -0.0217  0.0368 -0.2281
  183MOL0     C24615  11.367   2.784   2.666 -0.3053 -0.7103 -0.2393
  183MOL0     C24616  11.374   2.838   2.536 -0.0737  0.3591 -0.2009
  183MOL0     O24617  11.601   3.168   2.398  0.3501  0.1572 -0.4449
  183MOL0     C24618  11.440   3.046   2.101  0.9503 -0.6870  0.3462
  183MOL0     C24619  11.424   3.074   1.966  0.3911 -1.2915  0.2801
  183MOL0     N24620  11.009   3.389   1.337  0.0463  0.1133 -0.3468
  183MOL0     N24621  10.893   3.398   1.304  0.7006 -0.1978  1.4031
  183MOL0     C24622   9.626   2.971   1.788 -0.4572 -0.9736  0.3250
  183MOL0     C24623   9.537   2.923   1.887 -0.0623  0.1912  0.2714
  183MOL0     C24624   9.367   2.766   2.284 -0.6933 -0.1258 -0.3686
  183MOL0     C24625   9.244   2.807   2.244  0.0711 -0.0500 -0.1224
  183MOL0     C24626   9.129   2.773   2.305 -0.9817 -0.4480  0.1108
  183MOL0     C24627   9.125   2.700   2.423 -0.1254  0.3851  0.0524
  183MOL0     O24628   9.011   2.665   2.488  0.4885 -1.0147  0.2661
  183MOL0     C24629   8.880   2.692   2.441 -0.1615 -0.3477  0.3403
  183MOL0     C24630   8.825   2.585   2.348 -1.4972  0.6053  0.2788
  183MOL0     C24631   8.679   2.590   2.308 -0.4021 -0.8560 -0.9413
  183MOL0     C24632   8.576   2.603   2.421 -0.4622 -0.3876  0.1061
  183MOL0     C24633   8.441   2.599   2.381  0.1674  0.3019  0.3820
  183MOL0     C24634   8.325   2.608   2.353  0.6099  0.6152  0.7892
  183MOL0     C24635   9.258   2.675   2.478 -0.0786  0.2096  0.3787
  183MOL0     C24636   9.374   2.700   2.407 -0.9900  0.1796  1.1363
  183MOL0     C24637   9.498   2.658   2.468 -0.0842 -0.2498 -0.2411
  183MOL0     H24638   9.671   3.066   2.167  0.6691  1.0389 -0.3193
  183MOL0     H24639   9.807   3.177   1.983  1.9248 -1.3517 -1.2181
  183MOL0     H24640   9.989   3.145   1.832 -1.6838  1.0371 -0.2592
  183MOL0     H24641   9.951   2.990   1.752 -0.6540 -0.1127 -1.2678
  183MOL0     H24642   9.993   3.242   1.598  0.8853  0.8327 -1.0622
  183MOL0     H24643   9.970   3.079   1.549 -0.2853  0.1155  0.9645
  183MOL0     H24644  10.183   3.001   1.638 -1.7804 -0.3813  0.7060
  183MOL0     H24645  10.192   3.145   1.743 -1.0457 -1.2864  0.7039
  183MOL0     H24646  10.208   3.155   1.439  2.2620 -0.5598 -0.2911
  183MOL0     H24647  10.198   3.297   1.550 -1.3458 -0.9476  2.2507
  183MOL0     H24648  10.431   3.230   1.644  0.4442 -1.1392 -0.4414
  183MOL0     H24649  10.422   3.088   1.547  2.2140  0.8960  1.7763
  183MOL0     H24650  10.416   3.265   1.340 -1.3153 -0.5163  1.0148
  183MOL0     H24651  10.430   3.389   1.465  0.5091  0.6938 -0.2733
  183MOL0     H24652  10.634   3.186   1.367 -0.8136 -0.1117 -0.2399
  183MOL0     H24653  10.628   3.212   1.539 -1.3781 -0.7092  0.8307
  183MOL0     H24654  10.629   3.453   1.326  0.8009  2.2552  1.2012
  183MOL0     H24655  10.635   3.454   1.501  0.6435 -0.1629  1.1468
  183MOL0     H24656  10.868   3.371   1.625  0.0009 -1.0299  0.1338
  183MOL0     H24657  11.173   3.476   1.568 -2.7504  1.1703 -1.7978
  183MOL0     H24658  11.121   3.355   1.667 -0.5715  1.6024  0.5551
  183MOL0     H24659  11.226   3.174   1.488 -0.7489  0.3768 -1.8382
  183MOL0     H24660  11.298   3.300   1.397  0.9541 -2.3024  1.0796
  183MOL0     H24661  11.382   3.410   1.607 -0.0106  0.4836 -1.0436
  183MOL0     H24662  11.480   3.284   1.530  0.0049  1.6031 -0.7249
  183MOL0     H24663  11.372   3.109   1.671 -1.7723 -0.3042 -1.3828
  183MOL0     H24664  11.273   3.231   1.754 -0.4639 -2.2016 -1.5467
  183MOL0     H24665  11.627   3.349   1.961 -1.3386  1.1236 -0.6963
  183MOL0     H24666  11.642   3.301   2.197 -1.6189 -1.6755  2.7720
  183MOL0     H24667  11.662   3.009   2.578 -1.2094  0.2310 -2.8605
  183MOL0     H24668  11.665   2.909   2.779 -0.0192  2.2860 -0.4571
  183MOL0     H24669  11.667   2.766   2.927 -0.2983  0.6288 -1.0019
  183MOL0     H24670  11.571   2.694   3.059  5.3230 -2.3816  2.2451
  183MOL0     H24671  11.573   2.484   2.960  0.8128 -0.3578 -0.0037
  183MOL0     H24672  11.670   2.535   2.829 -2.2867  0.5366 -0.7193
  183MOL0     H24673  11.737   2.500   3.128  2.7434 -3.1100  0.1848
  183MOL0     H24674  11.831   2.435   2.992  0.2114  0.3586 -0.5969
  183MOL0     H24675  11.823   2.723   3.081  0.3121 -0.1181  0.3263
  183MOL0     H24676  11.886   2.670   2.932  0.1879 -1.0694  0.3394
  183MOL0     H24677  12.045   2.520   3.083  0.9291  0.8435 -0.7520
  183MOL0     H24678  11.941   2.555   3.215 -2.7992 -0.2746 -0.4063
  183MOL0     H24679  12.130   2.769   3.092  1.7845  4.6259  3.6090
  183MOL0     H24680  11.999   2.801   3.201  0.1685 -0.7386  1.6732
  183MOL0     H24681  12.222   2.597   3.258 -2.8331 -2.7465  0.0093
  183MOL0     H24682  12.088   2.649   3.357 -2.0949 -0.9833 -2.1502
  183MOL0     H24683  12.171   2.880   3.363  0.8766  3.0029 -4.6061
  183MOL0     H24684  12.294   2.771   3.421  0.7812  0.2799 -0.9126
  183MOL0     H24685  11.284   2.725   2.704 -0.0231 -0.7890  0.2705
  183MOL0     H24686  11.290   2.817   2.470  0.2517 -1.6022 -0.0457
  183MOL0     H24687  11.379   2.965   2.140 -1.9172  1.7080  1.2562
  183MOL0     H24688  11.347   3.034   1.900  0.9721  3.1598 -3.5976
  183MOL0     H24689   9.599   2.931   1.691 -1.1840  1.7099 -0.6789
  183MOL0     H24690   9.454   2.855   1.873 -1.4379  1.6882  0.8912
  183MOL0     H24691   9.230   2.869   2.155 -0.7604  0.5000  0.3800
  183MOL0     H24692   9.044   2.824   2.261 -1.0722  1.5367  2.4124
  183MOL0     H24693   8.882   2.791   2.394  1.3296 -0.4824  0.0452
  183MOL0     H24694   8.819   2.698   2.531 -0.9431  1.1816 -0.2530
  183MOL0     H24695   8.856   2.485   2.381 -3.8067 -0.5410 -0.8335
  183MOL0     H24696   8.874   2.597   2.251 -2.2351  0.0806 -0.1739
  183MOL0     H24697   8.662   2.496   2.254 -0.5656 -0.6363 -1.2729
  183MOL0     H24698   8.665   2.674   2.239  1.0642  2.3406  2.3619
  183MOL0     H24699   8.581   2.520   2.492 -2.3705 -0.4193  0.2675
  183MOL0     H24700   8.596   2.697   2.473 -2.5584  0.3126 -0.2557
  183MOL0     H24701   8.226   2.600   2.312  1.3370  0.4879 -1.0280
  183MOL0     H24702   9.256   2.622   2.573 -0.6365 -0.8203 -0.1799
  183MOL0     H24703   9.484   2.597   2.558 -1.9301 -0.7868 -0.8489
  183MOL0     H24704   9.554   2.597   2.396 -2.4685 -4.0969  0.8471
  183MOL0     H24705   9.552   2.746   2.503 -1.8305 -1.0044  5.3085
  184MOL0     O24706   2.180   6.781   1.529 -0.1020  0.8309 -0.0708
  184MOL0     C24707   2.155   6.895   1.559  0.6321 -0.3288 -0.3541
  184MOL0     O24708   2.248   6.998   1.590  0.0828  0.2162 -0.0201
  184MOL0     C24709   2.386   6.988   1.603 -0.0335  0.0196 -0.3369
  184MOL0     C24710   2.443   6.866   1.641 -0.4151 -0.2937  0.6858
  184MOL0     C24711   2.581   6.851   1.639 -0.3285 -0.5662 -0.9410
  184MOL0     C24712   2.662   6.969   1.630  0.3018  0.1968  0.6805
  184MOL0     O24713   2.797   6.965   1.631  0.3386 -0.2055  0.1587
  184MOL0     C24714   2.839   6.903   1.513  0.4356 -0.6363  0.1738
  184MOL0     C24715   2.974   6.950   1.467  0.5998 -0.2357  0.6855
  184MOL0     C24716   3.083   6.921   1.563 -0.0971  0.7523 -0.6313
  184MOL0     C24717   3.215   6.993   1.533 -0.6385 -0.1691 -0.9756
  184MOL0     C24718   3.323   6.992   1.650  0.0700  0.5506  0.2662
  184MOL0     C24719   3.456   7.051   1.614 -0.7959  0.2927  0.0587
  184MOL0     C24720   3.569   6.944   1.581  1.0724 -0.5337 -0.2082
  184MOL0     C24721   3.702   7.005   1.561 -0.4549 -0.4214 -0.5380
  184MOL0     N24722   3.806   6.904   1.557 -0.2149  0.2385  0.3629
  184MOL0     C24723   3.901   6.879   1.460  0.2837  0.0219  0.3997
  184MOL0     C24724   3.984   6.776   1.499 -0.3656 -0.3164  0.4203
  184MOL0     C24725   4.091   6.713   1.413 -0.2314  0.1268  0.2826
  184MOL0     C24726   4.223   6.794   1.386  0.3469  0.3746 -0.6156
  184MOL0     C24727   4.204   6.934   1.335 -0.4353  0.3588 -0.6698
  184MOL0     C24728   4.139   6.946   1.195  0.2849  0.0955  0.0596
  184MOL0     O24729   4.214   6.877   1.093 -0.9805  0.3717  1.0335
  184MOL0     C24730   4.189   6.921   0.967  0.3057 -0.7266  0.2990
  184MOL0     C24731   4.072   6.876   0.909  1.3160  0.2592  0.4502
  184MOL0     C24732   4.036   6.922   0.781 -0.8980  0.4285 -0.7412
  184MOL0     C24733   4.110   7.025   0.715  0.2439  0.7035 -0.3711
  184MOL0     C24734   4.066   7.065   0.583 -0.3726  0.4095 -0.0018
  184MOL0     O24735   3.946   7.017   0.534 -0.1179  0.2551  0.1007
  184MOL0     C24736   3.920   7.043   0.400  0.6964  0.4534 -0.1063
  184MOL0     C24737   3.871   6.942   0.319  0.4091  0.1920  0.1971
  184MOL0     C24738   3.851   6.952   0.183 -0.4998 -0.0638 -0.0876
  184MOL0     C24739   3.878   7.071   0.123  0.7097 -0.3609 -0.1946
  184MOL0     O24740   3.840   7.081  -0.003  0.5683 -0.3190  0.2182
  184MOL0     C24741   3.853   7.208  -0.071 -0.0022  0.6204 -0.2752
  184MOL0     C24742   3.832   7.182  -0.216  0.0041  0.2961  0.2734
  184MOL0     C24743   3.857   7.304  -0.304  0.3786  0.2069  0.3392
  184MOL0     C24744   3.810   7.269  -0.450 -0.3017 -0.1290 -0.3669
  184MOL0     C24745   3.835   7.380  -0.542  0.0453 -0.5032 -0.4495
  184MOL0     C24746   3.756   7.516  -0.523  0.2537  0.5039 -0.3009
  184MOL0     C24747   3.828   7.639  -0.585 -0.1581  0.7248 -0.8442
  184MOL0     C24748   3.968   7.671  -0.530  0.2431 -0.6898  0.2143
  184MOL0    Cl24749   3.944   7.716  -0.356 -0.3561 -0.5893  0.6355
  184MOL0     C24750   3.936   7.174   0.195  0.4514 -0.0764 -0.1018
  184MOL0     C24751   3.947   7.164   0.337 -0.6291 -0.0150  0.2459
  184MOL0     O24752   4.155   7.117   0.520 -0.4790 -0.1586  0.0556
  184MOL0     C24753   4.217   7.076   0.785 -0.8438 -0.1339 -0.2691
  184MOL0     C24754   4.264   7.026   0.903  0.6623  0.0566 -0.0233
  184MOL0     N24755   3.940   6.743   1.627  0.2578 -0.2822  0.1968
  184MOL0     N24756   3.830   6.818   1.661 -0.8323  0.8649 -0.2691
  184MOL0     C24757   2.604   7.098   1.610  0.4098  0.3744  0.2151
  184MOL0     C24758   2.464   7.104   1.588  0.3316  0.5310 -0.5213
  184MOL0     C24759   2.013   6.932   1.562  0.5049 -0.3893 -0.2399
  184MOL0     C24760   1.918   6.877   1.654 -0.2504  0.5270 -0.3039
  184MOL0     C24761   1.783   6.899   1.657  0.3105 -0.2860  0.8821
  184MOL0     C24762   1.734   6.991   1.564 -0.5312 -0.1282 -0.3061
  184MOL0     O24763   1.612   7.040   1.553  0.4664  0.4175 -0.3569
  184MOL0     C24764   1.497   6.975   1.615 -0.1283 -0.8355  0.3704
  184MOL0     C24765   1.353   7.001   1.556 -0.5666  0.3268 -0.4467
  184MOL0     C24766   1.310   7.147   1.544  0.1502 -0.2342 -0.1929
  184MOL0     C24767   1.171   7.146   1.476 -0.1468 -0.2794 -0.5818
  184MOL0     C24768   1.140   7.279   1.419 -0.4831  0.2774  0.2082
  184MOL0     C24769   1.079   7.377   1.383 -0.4648 -0.4630  0.3902
  184MOL0     C24770   1.819   7.051   1.472  0.1749  0.1791  0.1077
  184MOL0     C24771   1.956   7.018   1.467 -0.4942 -0.7158  0.4072
  184MOL0     C24772   2.051   7.084   1.367  0.4448  0.1449 -0.2811
  184MOL0     H24773   2.390   6.771   1.644 -1.0970  0.0100 -0.7237
  184MOL0     H24774   2.626   6.753   1.637  1.9459  0.2530  2.0261
  184MOL0     H24775   2.843   6.795   1.530 -1.3915 -0.2699  3.9754
  184MOL0     H24776   2.769   6.917   1.430  2.4798 -0.3087 -1.5976
  184MOL0     H24777   2.963   7.059   1.467  0.8147 -0.2146  1.3086
  184MOL0     H24778   2.988   6.908   1.366 -3.0160  0.7900 -0.4007
  184MOL0     H24779   3.107   6.814   1.568  0.4084  0.9060  2.5764
  184MOL0     H24780   3.043   6.963   1.656  1.3989  1.8304 -0.4467
  184MOL0     H24781   3.249   6.945   1.440  0.0452  0.6868 -1.1791
  184MOL0     H24782   3.188   7.097   1.511 -2.2580 -0.1188  1.0301
  184MOL0     H24783   3.280   7.044   1.736  1.2958 -0.5935  1.6246
  184MOL0     H24784   3.333   6.888   1.681  0.3237 -0.0242 -1.6042
  184MOL0     H24785   3.444   7.113   1.525 -1.5853 -2.5034 -1.9311
  184MOL0     H24786   3.496   7.101   1.703 -1.6086  0.9756  0.0534
  184MOL0     H24787   3.533   6.886   1.496 -2.1812 -2.2052  2.0832
  184MOL0     H24788   3.566   6.870   1.662 -3.5338 -2.6597 -1.9606
  184MOL0     H24789   3.691   7.068   1.472  0.4548  0.5596  0.0291
  184MOL0     H24790   3.721   7.069   1.647 -1.1742 -1.7454  0.6391
  184MOL0     H24791   3.894   6.937   1.368  0.0061  3.2023  2.2623
  184MOL0     H24792   4.107   6.612   1.454 -1.1925 -0.8433 -1.5862
  184MOL0     H24793   4.038   6.701   1.318 -1.5377 -0.7358  1.0859
  184MOL0     H24794   4.280   6.809   1.478  1.9558  0.5989 -1.6081
  184MOL0     H24795   4.284   6.745   1.310  0.1931 -1.9965  0.7112
  184MOL0     H24796   4.295   6.994   1.331 -1.7393  2.4992 -0.3836
  184MOL0     H24797   4.144   6.988   1.409 -0.9059 -0.9052 -0.1168
  184MOL0     H24798   4.127   7.051   1.168 -2.9873 -0.0239  0.6281
  184MOL0     H24799   4.038   6.904   1.199  1.1988 -2.1275  1.6008
  184MOL0     H24800   4.014   6.805   0.966  0.4161 -0.0255 -0.7825
  184MOL0     H24801   3.954   6.872   0.731 -2.7062  2.5322 -0.0501
  184MOL0     H24802   3.870   6.843   0.363 -1.6461  0.7623  1.5616
  184MOL0     H24803   3.818   6.878   0.111  4.4285 -0.1774 -2.5928
  184MOL0     H24804   3.782   7.280  -0.030  0.1360  0.7206 -0.2089
  184MOL0     H24805   3.956   7.244  -0.065 -0.3491  1.8406 -1.1520
  184MOL0     H24806   3.895   7.095  -0.237  1.5624  1.5479 -0.4135
  184MOL0     H24807   3.728   7.147  -0.229 -0.0973 -1.1441  3.7986
  184MOL0     H24808   3.801   7.395  -0.280  0.0401  0.4497 -1.2650
  184MOL0     H24809   3.962   7.332  -0.306  0.4854 -0.1671 -1.3188
  184MOL0     H24810   3.706   7.234  -0.447 -0.3347  0.0275  0.6363
  184MOL0     H24811   3.872   7.190  -0.491 -1.0351 -0.8234 -0.1637
  184MOL0     H24812   3.815   7.351  -0.646  0.8842  0.7528 -0.9905
  184MOL0     H24813   3.940   7.411  -0.545 -0.5831  1.7915 -3.3564
  184MOL0     H24814   3.654   7.491  -0.552  1.5692 -3.2394 -2.3652
  184MOL0     H24815   3.755   7.534  -0.415  1.6594 -1.0213  0.0016
  184MOL0     H24816   3.764   7.728  -0.584 -1.9266 -0.4742 -1.6362
  184MOL0     H24817   3.831   7.619  -0.693  2.8125  0.8975 -0.8603
  184MOL0     H24818   4.052   7.602  -0.542  0.9764  0.4627 -1.7766
  184MOL0     H24819   3.997   7.759  -0.588 -2.0839 -1.2625 -2.0198
  184MOL0     H24820   3.961   7.266   0.144 -0.4513 -1.1496 -2.6419
  184MOL0     H24821   3.977   7.256   0.387  1.8047 -2.6901  4.2564
  184MOL0     H24822   4.283   7.153   0.748  0.5744 -1.7908 -1.3590
  184MOL0     H24823   4.346   7.082   0.948  3.1436 -0.3697 -3.5222
  184MOL0     H24824   2.659   7.190   1.597 -1.8078  1.5731 -1.3307
  184MOL0     H24825   2.423   7.201   1.564 -0.9116 -0.0970 -1.0149
  184MOL0     H24826   1.959   6.804   1.722 -0.1398 -1.0400 -1.9710
  184MOL0     H24827   1.716   6.861   1.734  0.4619 -1.1308  0.6141
  184MOL0     H24828   1.491   7.017   1.716 -1.6697  2.7543 -1.0303
  184MOL0     H24829   1.512   6.867   1.616 -1.5160 -1.0619 -0.4453
  184MOL0     H24830   1.274   6.957   1.618  1.4195  0.3479  2.2524
  184MOL0     H24831   1.364   6.957   1.456  4.6781  0.9047 -0.3629
  184MOL0     H24832   1.387   7.200   1.487  1.5206 -1.4687  0.4228
  184MOL0     H24833   1.301   7.192   1.644  1.4432  0.8890 -0.5627
  184MOL0     H24834   1.168   7.067   1.400  1.6050  0.8691 -1.9156
  184MOL0     H24835   1.099   7.121   1.554  1.8720 -0.6948  1.2351
  184MOL0     H24836   1.008   7.453   1.358 -1.7895 -1.3151  1.4078
  184MOL0     H24837   1.782   7.124   1.401  0.0909 -0.7963 -0.8855
  184MOL0     H24838   2.143   7.031   1.343  0.9541  2.3115 -3.7249
  184MOL0     H24839   1.990   7.095   1.277 -1.5768  3.0053  1.2949
  184MOL0     H24840   2.071   7.187   1.399  0.5401  0.0580 -0.0525
  185MOL0     O24841   2.500   3.312   9.867 -0.0399  0.0461 -0.3694
  185MOL0     C24842   2.443   3.260   9.779 -0.3599  0.2265 -0.3113
  185MOL0     O24843   2.483   3.265   9.654 -0.5085  0.3763 -0.2386
  185MOL0     C24844   2.602   3.322   9.609 -0.3803 -0.6479  0.4541
  185MOL0     C24845   2.620   3.456   9.627 -0.2808 -0.9418  0.0281
  185MOL0     C24846   2.745   3.503   9.580 -0.3406 -0.8830  0.1429
  185MOL0     C24847   2.844   3.426   9.514  0.8477  1.3859  1.0511
  185MOL0     O24848   2.961   3.476   9.470 -0.6350  0.0458  0.6544
  185MOL0     C24849   3.022   3.588   9.540  0.2966  0.2964 -0.1622
  185MOL0     C24850   3.157   3.609   9.472 -0.0134  0.4424  0.0957
  185MOL0     C24851   3.211   3.753   9.509 -0.1419 -0.3863  1.0576
  185MOL0     C24852   3.344   3.770   9.437 -0.0014 -1.0536 -0.0867
  185MOL0     C24853   3.430   3.890   9.475  0.2955  0.3104  0.2004
  185MOL0     C24854   3.546   3.911   9.382  0.1859  0.1171 -0.2882
  185MOL0     C24855   3.643   4.013   9.442  0.4596 -0.1091 -0.0981
  185MOL0     C24856   3.600   4.156   9.431  0.4062  0.3490 -0.1962
  185MOL0     N24857   3.708   4.250   9.469 -0.4194  0.1734 -0.9613
  185MOL0     C24858   3.708   4.326   9.584  0.6489 -0.1316  1.2273
  185MOL0     C24859   3.819   4.398   9.583 -0.3757 -0.1004 -0.3036
  185MOL0     C24860   3.866   4.503   9.680 -0.2537  0.8869  0.0103
  185MOL0     C24861   3.994   4.572   9.643 -0.3117 -0.8010 -0.8691
  185MOL0     C24862   4.124   4.488   9.661 -0.0734  0.1572  0.1123
  185MOL0     C24863   4.263   4.554   9.664  0.2576  0.5571 -0.1284
  185MOL0     O24864   4.265   4.674   9.744  0.6025  0.5268  0.3020
  185MOL0     C24865   4.372   4.759   9.745 -0.5186 -0.6509 -0.1593
  185MOL0     C24866   4.360   4.888   9.804 -0.3685  0.4228  0.0317
  185MOL0     C24867   4.468   4.981   9.797  0.3418  0.2518 -0.5721
  185MOL0     C24868   4.585   4.952   9.737 -0.6943  0.6634 -0.5283
  185MOL0     C24869   4.695   5.041   9.734  0.0841  0.0510  0.5309
  185MOL0     O24870   4.815   4.995   9.672  0.2952 -0.2988  0.4501
  185MOL0     C24871   4.924   5.076   9.697  0.4868 -0.3876 -0.6522
  185MOL0     C24872   4.953   5.197   9.641 -0.3266  0.0726 -0.3611
  185MOL0     C24873   5.079   5.256   9.668 -0.1276 -0.5382  0.3949
  185MOL0     C24874   5.162   5.202   9.763  0.5845  0.7102  0.2772
  185MOL0     O24875   5.262   5.280   9.804 -0.2805 -0.6741  0.6122
  185MOL0     C24876   5.306   5.268   9.944 -0.2967 -0.5233  0.2674
  185MOL0     C24877   5.379   5.389   9.994  0.6545 -0.6714  0.2870
  185MOL0     C24878   5.520   5.412   9.959 -0.0066  0.6812 -0.4710
  185MOL0     C24879   5.614   5.308  10.032  0.6503  0.1484 -0.2090
  185MOL0     C24880   5.766   5.344  10.025 -1.1745 -0.0623  0.7615
  185MOL0     C24881   5.841   5.290  10.150 -0.2431  0.1925 -0.0154
  185MOL0     C24882   5.992   5.271  10.130  1.0431 -0.2355  0.1558
  185MOL0     C24883   6.029   5.188  10.009 -0.3252 -0.1352  0.1467
  185MOL0    Cl24884   6.199   5.149  10.027 -0.0153  0.1379 -0.3865
  185MOL0     C24885   5.141   5.075   9.814  0.4859  0.2999 -0.5686
  185MOL0     C24886   5.015   5.021   9.787  0.1323  0.4552  0.6793
  185MOL0     O24887   4.681   5.147   9.792  0.1472 -0.9691  0.5770
  185MOL0     C24888   4.606   4.821   9.683  0.7174 -0.6249 -0.1618
  185MOL0     C24889   4.501   4.732   9.683  0.9544  0.4919 -0.2208
  185MOL0     N24890   3.879   4.372   9.460  0.2535 -0.5055 -0.2379
  185MOL0     N24891   3.809   4.288   9.398  0.2805  0.3764 -0.2826
  185MOL0     C24892   2.807   3.290   9.486 -0.3328  0.3833 -0.5807
  185MOL0     C24893   2.691   3.241   9.538  0.0967 -0.3127 -1.0347
  185MOL0     C24894   2.319   3.179   9.799 -0.5421  0.6058  0.0203
  185MOL0     C24895   2.263   3.125   9.684  0.1077 -0.0434 -0.0231
  185MOL0     C24896   2.130   3.074   9.678 -0.1971 -0.3934  0.1057
  185MOL0     C24897   2.058   3.072   9.792  0.0668  0.2432  0.3615
  185MOL0     O24898   1.940   3.009   9.772  0.1032 -0.0697  0.1579
  185MOL0     C24899   1.859   2.990   9.889  0.8004 -0.4944  0.0430
  185MOL0     C24900   1.710   2.965   9.868 -0.4913  0.9520 -0.1623
  185MOL0     C24901   1.685   2.830   9.802 -0.2450 -0.3629  0.7095
  185MOL0     C24902   1.542   2.802   9.754 -0.2154  0.1051  0.2361
  185MOL0     C24903   1.444   2.826   9.856  0.6563 -0.4026  0.6047
  185MOL0     C24904   1.356   2.834   9.941  0.1401  0.6759 -0.6362
  185MOL0     C24905   2.111   3.124   9.911  1.3709 -0.2561  0.3199
  185MOL0     C24906   2.236   3.182   9.915 -0.0883 -0.3992  0.4165
  185MOL0     C24907   2.274   3.250  10.047 -0.1732  0.4958  0.8421
  185MOL0     H24908   2.546   3.508   9.687  0.2400  0.5580 -0.5676
  185MOL0     H24909   2.757   3.609   9.600 -1.0686 -1.1385  2.2007
  185MOL0     H24910   2.960   3.678   9.543 -1.6370 -0.9618  3.3627
  185MOL0     H24911   3.046   3.558   9.643 -1.4234  0.6337  0.3815
  185MOL0     H24912   3.153   3.591   9.364  0.1112  0.6488  0.0559
  185MOL0     H24913   3.220   3.530   9.516  0.5478 -0.1216 -1.6264
  185MOL0     H24914   3.228   3.762   9.617  2.5465 -1.6598  0.8195
  185MOL0     H24915   3.142   3.834   9.481  0.4499 -0.1607  0.2398
  185MOL0     H24916   3.409   3.685   9.458 -1.1653 -2.2062 -0.9806
  185MOL0     H24917   3.315   3.764   9.332 -2.1282  0.9192  0.3018
  185MOL0     H24918   3.362   3.976   9.468 -1.9776 -1.4828 -1.1777
  185MOL0     H24919   3.470   3.869   9.575 -0.4340 -0.0011  0.4322
  185MOL0     H24920   3.599   3.817   9.363 -0.2510 -0.2375  0.2138
  185MOL0     H24921   3.511   3.938   9.282 -0.2211 -3.1315 -1.1610
  185MOL0     H24922   3.738   3.996   9.389  0.2073  0.1136 -0.6294
  185MOL0     H24923   3.663   3.987   9.546  2.3933 -4.2947 -1.2876
  185MOL0     H24924   3.559   4.194   9.337 -0.3115  5.0765  1.7578
  185MOL0     H24925   3.516   4.175   9.499  2.2077  0.9452  1.9863
  185MOL0     H24926   3.628   4.332   9.657 -0.3135  0.6938  0.1342
  185MOL0     H24927   3.788   4.577   9.698 -2.2804 -0.9756 -0.6832
  185MOL0     H24928   3.863   4.448   9.774 -4.6569 -1.4440 -1.1965
  185MOL0     H24929   4.001   4.610   9.540  1.4996  4.0843  0.7276
  185MOL0     H24930   4.009   4.668   9.694  0.0251 -0.5540 -1.4125
  185MOL0     H24931   4.138   4.420   9.576 -0.7057  0.9827 -0.6794
  185MOL0     H24932   4.110   4.432   9.753 -2.2263  1.5995  0.7293
  185MOL0     H24933   4.296   4.580   9.564  1.4094 -2.0151 -0.5092
  185MOL0     H24934   4.333   4.479   9.702 -1.2371 -0.2450  1.1879
  185MOL0     H24935   4.265   4.923   9.842 -0.5691  1.1358 -1.0947
  185MOL0     H24936   4.459   5.069   9.860 -0.4718 -0.5613  0.5120
  185MOL0     H24937   4.873   5.239   9.580 -1.4429 -0.0931  0.9266
  185MOL0     H24938   5.097   5.348   9.612  0.8825 -1.5349 -0.9683
  185MOL0     H24939   5.210   5.259   9.996 -1.6303  2.4548 -1.4449
  185MOL0     H24940   5.369   5.183   9.969  2.9618  2.3839  3.0802
  185MOL0     H24941   5.329   5.482   9.964 -0.4826 -1.6371 -0.9748
  185MOL0     H24942   5.372   5.392  10.103  1.4591  1.0015  0.3191
  185MOL0     H24943   5.537   5.413   9.850  0.0177  0.5197 -0.4692
  185MOL0     H24944   5.536   5.515   9.992  1.3145  0.9003 -1.6725
  185MOL0     H24945   5.590   5.205  10.005 -0.0179  0.0437  0.7215
  185MOL0     H24946   5.598   5.318  10.139 -2.4167  0.5992 -0.5964
  185MOL0     H24947   5.775   5.453  10.016 -1.7036 -0.2134 -3.2475
  185MOL0     H24948   5.807   5.303   9.932 -0.6044  1.1365  0.4708
  185MOL0     H24949   5.815   5.364  10.227 -1.1709 -0.4849  0.3445
  185MOL0     H24950   5.801   5.192  10.177 -1.8718  1.6125  3.4333
  185MOL0     H24951   6.026   5.222  10.222  1.5882 -0.6516 -0.2574
  185MOL0     H24952   6.034   5.371  10.119 -1.7196  0.9893  0.1798
  185MOL0     H24953   5.968   5.099   9.997 -0.4604  0.1225 -1.2684
  185MOL0     H24954   5.996   5.234   9.916 -3.6423 -1.6327  0.4304
  185MOL0     H24955   5.203   5.025   9.888 -2.1570 -2.1988  0.1543
  185MOL0     H24956   4.989   4.926   9.833  1.3030  0.6809  1.8819
  185MOL0     H24957   4.699   4.786   9.641 -0.0662 -2.8159 -0.2086
  185MOL0     H24958   4.516   4.630   9.651 -0.8155  0.5246 -1.2581
  185MOL0     H24959   2.867   3.217   9.432 -0.1171  0.3094 -0.2473
  185MOL0     H24960   2.662   3.137   9.524  0.9234 -1.3517  3.3770
  185MOL0     H24961   2.304   3.134   9.584 -1.8182  2.6126 -0.6844
  185MOL0     H24962   2.089   3.036   9.585  0.0962 -0.4132 -0.0153
  185MOL0     H24963   1.859   3.076   9.956  0.8324  0.4786 -1.1760
  185MOL0     H24964   1.907   2.902   9.934 -2.4850 -4.3389 -3.2029
  185MOL0     H24965   1.681   3.046   9.800 -0.3583 -0.2340 -1.6799
  185MOL0     H24966   1.659   2.983   9.963  1.0420  1.2349  0.6374
  185MOL0     H24967   1.715   2.748   9.868  1.3962  1.2597  2.1146
  185MOL0     H24968   1.750   2.829   9.714  0.8649  0.4617  1.4791
  185MOL0     H24969   1.519   2.867   9.669  0.0998 -0.3201 -0.1791
  185MOL0     H24970   1.543   2.698   9.721  0.9630  0.6296 -1.5460
  185MOL0     H24971   1.281   2.850  10.015  1.7614 -0.7523  1.4370
  185MOL0     H24972   2.052   3.122  10.002 -3.6199 -0.6640 -2.5637
  185MOL0     H24973   2.291   3.356  10.029  0.5171  0.2710  0.1001
  185MOL0     H24974   2.186   3.253  10.112 -1.8399  0.1052 -1.3049
  185MOL0     H24975   2.367   3.213  10.092 -0.2256 -0.4956  0.1765
  186MOL0     O24976   5.272  10.255   8.128  0.5165 -0.3741 -0.9766
  186MOL0     C24977   5.179  10.327   8.098  0.1859  0.0658 -0.5540
  186MOL0     O24978   5.171  10.392   7.978 -0.2204 -0.1537 -0.6505
  186MOL0     C24979   5.277  10.390   7.893 -0.0140  0.4055 -0.4208
  186MOL0     C24980   5.391  10.460   7.903  0.0200 -0.3737  0.1925
  186MOL0     C24981   5.504  10.442   7.820  0.7660 -0.0167  0.3906
  186MOL0     C24982   5.497  10.355   7.708  0.6374  0.2901  0.4442
  186MOL0     O24983   5.584  10.343   7.600 -0.6729  0.0666  0.5497
  186MOL0     C24984   5.694  10.425   7.596 -0.2086 -0.0086  0.2360
  186MOL0     C24985   5.759  10.418   7.460  0.0625  0.0498 -0.1563
  186MOL0     C24986   5.784  10.275   7.432  0.0820 -0.5725 -0.0405
  186MOL0     C24987   5.892  10.255   7.325 -0.4742  0.9208 -0.6907
  186MOL0     C24988   5.892  10.097   7.287 -1.0364  0.3539  0.8334
  186MOL0     C24989   5.993  10.019   7.369  0.0988 -0.6701 -1.2381
  186MOL0     C24990   6.038   9.880   7.289 -1.1277  0.0644 -0.1347
  186MOL0     C24991   6.131   9.792   7.382  0.3019  0.3582  0.1967
  186MOL0     N24992   6.047   9.728   7.477  0.5842  0.0034  0.7738
  186MOL0     C24993   5.993   9.601   7.471 -0.0651  0.0556  0.8099
  186MOL0     C24994   5.934   9.590   7.589 -0.7598 -0.3758 -0.0461
  186MOL0     C24995   5.845   9.476   7.632  0.7447 -0.2537  0.4792
  186MOL0     C24996   5.691   9.518   7.611 -0.2247  0.4005  0.8425
  186MOL0     C24997   5.607   9.400   7.653 -0.6765  0.9043  0.4439
  186MOL0     C24998   5.465   9.430   7.678 -0.1449  1.0061 -0.3241
  186MOL0     O24999   5.400   9.514   7.571 -0.2373  0.1060 -0.5289
  186MOL0     C25000   5.280   9.578   7.600  0.1762  0.7464 -0.3741
  186MOL0     C25001   5.224   9.650   7.495 -0.3459 -0.0743  0.0208
  186MOL0     C25002   5.106   9.723   7.524  0.5387  0.1880  0.3353
  186MOL0     C25003   5.047   9.728   7.652 -0.1500  1.1289 -0.0925
  186MOL0     C25004   4.936   9.826   7.681 -0.4291  0.3100 -0.2115
  186MOL0     O25005   4.906   9.846   7.811  0.3999  0.3479 -0.0397
  186MOL0     C25006   4.815   9.945   7.846  0.3930  0.2911 -1.3765
  186MOL0     C25007   4.751   9.933   7.975 -0.4853  0.3701  0.3297
  186MOL0     C25008   4.672  10.036   8.029  0.4499 -0.0366 -0.1207
  186MOL0     C25009   4.627  10.145   7.955  0.1799 -0.6446 -0.6054
  186MOL0     O25010   4.539  10.230   8.015 -0.7950 -0.1798 -0.0147
  186MOL0     C25011   4.527  10.369   7.961 -0.5758  0.3236  0.1966
  186MOL0     C25012   4.384  10.425   7.998 -0.5202  0.5402 -0.1138
  186MOL0     C25013   4.367  10.422   8.150  0.7883 -0.3228 -0.2432
  186MOL0     C25014   4.213  10.430   8.176 -0.3371  0.3335 -0.3730
  186MOL0     C25015   4.186  10.422   8.327 -0.4685 -0.0808 -0.1943
  186MOL0     C25016   4.224  10.558   8.394  0.5217 -0.1076 -0.0755
  186MOL0     C25017   4.201  10.542   8.550  0.5442 -0.4676  0.1916
  186MOL0     C25018   4.061  10.495   8.590  0.0212  0.2215 -0.0083
  186MOL0    Cl25019   4.047  10.485   8.772 -0.3182  0.3348 -0.4158
  186MOL0     C25020   4.701  10.169   7.835 -1.0933 -0.0597 -0.3256
  186MOL0     C25021   4.788  10.072   7.785  0.8462  0.2640  0.8026
  186MOL0     O25022   4.883   9.882   7.587 -0.5006 -0.6708  0.2432
  186MOL0     C25023   5.102   9.649   7.754 -0.4979  0.3104 -0.2698
  186MOL0     C25024   5.215   9.576   7.727 -1.2119  0.1738 -0.4302
  186MOL0     N25025   5.954   9.705   7.665  0.6002  0.3285 -0.5466
  186MOL0     N25026   6.024   9.789   7.599 -0.2967 -0.7529 -0.1412
  186MOL0     C25027   5.372  10.288   7.693  0.2397 -0.8084 -0.4849
  186MOL0     C25028   5.271  10.292   7.790  0.0237  0.7631  0.2980
  186MOL0     C25029   5.057  10.316   8.189  0.0473  0.5169  0.1453
  186MOL0     C25030   4.932  10.369   8.143  0.8450  0.0576  1.0579
  186MOL0     C25031   4.813  10.372   8.210  0.5036  0.1909  0.0114
  186MOL0     C25032   4.804  10.319   8.333 -0.1972  1.0873 -0.6612
  186MOL0     O25033   4.685  10.336   8.402 -0.0181  1.1213  0.6418
  186MOL0     C25034   4.652  10.241   8.502 -0.4119  0.0554 -0.6203
  186MOL0     C25035   4.503  10.243   8.507  0.6037  0.1162 -0.3617
  186MOL0     C25036   4.446  10.121   8.587  0.7207  0.8460 -0.1301
  186MOL0     C25037   4.359  10.168   8.709  0.9376  0.4216  0.5359
  186MOL0     C25038   4.440  10.216   8.819  0.5676  1.0231 -1.1417
  186MOL0     C25039   4.510  10.275   8.910  0.7030  0.0315  1.0773
  186MOL0     C25040   4.921  10.261   8.388 -0.3980  0.0090  0.3883
  186MOL0     C25041   5.047  10.260   8.319 -0.0251  0.5398 -0.1764
  186MOL0     C25042   5.164  10.210   8.393  0.7982  0.5583  0.6027
  186MOL0     H25043   5.388  10.518   7.995 -1.3349 -1.8294  1.1113
  186MOL0     H25044   5.593  10.502   7.834  0.9608  0.0445 -0.9289
  186MOL0     H25045   5.661  10.529   7.606 -0.2518 -0.0029  0.0382
  186MOL0     H25046   5.763  10.397   7.676 -0.7541  0.3391  0.8399
  186MOL0     H25047   5.852  10.475   7.458  3.0406 -4.2752 -0.0560
  186MOL0     H25048   5.692  10.462   7.386  1.0518 -1.8699 -2.2963
  186MOL0     H25049   5.692  10.231   7.394 -0.1823 -0.2974  0.2720
  186MOL0     H25050   5.819  10.219   7.520  0.9521 -2.3714 -1.4698
  186MOL0     H25051   5.858  10.308   7.236 -2.8670  0.9936  0.2017
  186MOL0     H25052   5.993  10.289   7.351 -0.0472 -1.6933  1.5465
  186MOL0     H25053   5.792  10.053   7.295 -0.4040 -1.5886 -1.0428
  186MOL0     H25054   5.908  10.084   7.180 -1.5690 -0.8991  0.8956
  186MOL0     H25055   6.075  10.085   7.398 -1.1273  0.5625 -0.4964
  186MOL0     H25056   5.933   9.986   7.454 -0.7684  2.0803 -0.6934
  186MOL0     H25057   6.100   9.909   7.203  1.9241  0.7818  2.1450
  186MOL0     H25058   5.947   9.824   7.265 -1.9132  1.0631  0.4600
  186MOL0     H25059   6.187   9.718   7.325  0.7948 -0.3600  1.5596
  186MOL0     H25060   6.207   9.858   7.426 -1.3165  3.6286 -1.5141
  186MOL0     H25061   5.996   9.529   7.391  0.7786  0.2451  0.6642
  186MOL0     H25062   5.878   9.386   7.580 -1.0208 -0.8229  0.2836
  186MOL0     H25063   5.855   9.462   7.740 -1.1866  0.1588  0.7634
  186MOL0     H25064   5.684   9.606   7.675  0.7350  2.0029 -1.1511
  186MOL0     H25065   5.667   9.553   7.511  1.7130  0.0876  0.2178
  186MOL0     H25066   5.642   9.342   7.739 -3.1216 -1.6185 -0.1197
  186MOL0     H25067   5.607   9.328   7.570  0.9542 -1.0241  2.0156
  186MOL0     H25068   5.457   9.489   7.771  0.3737 -0.3200  0.5870
  186MOL0     H25069   5.405   9.340   7.695  1.3282  0.1524  0.6114
  186MOL0     H25070   5.264   9.639   7.395 -1.5500 -1.1287 -0.3793
  186MOL0     H25071   5.062   9.770   7.436  4.6188 -1.3728 -2.8867
  186MOL0     H25072   4.773   9.848   8.039 -2.2177  0.0684  0.5754
  186MOL0     H25073   4.634  10.023   8.130 -1.0608  1.4855 -0.4434
  186MOL0     H25074   4.604  10.430   8.009  1.3682 -1.3604 -0.6238
  186MOL0     H25075   4.538  10.372   7.852 -0.0970 -0.5599  0.2117
  186MOL0     H25076   4.381  10.531   7.970  2.0361  1.3252  2.1706
  186MOL0     H25077   4.303  10.361   7.963 -1.9868  1.7719  0.9057
  186MOL0     H25078   4.410  10.334   8.199  1.1483  1.0326  2.0253
  186MOL0     H25079   4.421  10.500   8.204  1.5223  0.0360 -1.4656
  186MOL0     H25080   4.158  10.349   8.126  1.6075 -1.9530  0.9861
  186MOL0     H25081   4.181  10.524   8.131  1.5713  1.4636  0.5027
  186MOL0     H25082   4.235  10.337   8.376  0.2145 -0.7656 -1.9872
  186MOL0     H25083   4.078  10.403   8.333 -0.2673 -1.4113 -0.4757
  186MOL0     H25084   4.329  10.585   8.381 -0.3835  2.9878 -1.7258
  186MOL0     H25085   4.163  10.631   8.341 -1.2083 -1.4889 -0.1083
  186MOL0     H25086   4.236  10.629   8.606  1.0717 -1.3073  1.2107
  186MOL0     H25087   4.265  10.457   8.577  0.8030 -0.3328  0.0021
  186MOL0     H25088   3.993  10.576   8.560  0.2507  1.0959  1.6704
  186MOL0     H25089   4.029  10.407   8.535  0.7868 -1.0515  1.5130
  186MOL0     H25090   4.691  10.255   7.769  2.0974  0.3289 -0.4693
  186MOL0     H25091   4.841  10.102   7.695  0.0706 -1.8692 -0.4425
  186MOL0     H25092   5.064   9.659   7.855  1.2443 -0.3790  0.4950
  186MOL0     H25093   5.272   9.532   7.808  0.2703  4.1236  0.8714
  186MOL0     H25094   5.354  10.221   7.610  3.6182 -2.8467  0.2424
  186MOL0     H25095   5.178  10.242   7.768  0.6967 -0.5134  0.2720
  186MOL0     H25096   4.927  10.405   8.040  3.9579 -1.3803  0.3009
  186MOL0     H25097   4.730  10.434   8.176 -1.7278 -2.8499 -0.5682
  186MOL0     H25098   4.693  10.270   8.599 -0.9887  0.1283 -0.3968
  186MOL0     H25099   4.680  10.138   8.480 -1.1705 -0.6873  1.5819
  186MOL0     H25100   4.460  10.235   8.406 -2.2403 -1.7310  0.8620
  186MOL0     H25101   4.465  10.339   8.544 -1.9622  0.6419 -3.8251
  186MOL0     H25102   4.530  10.062   8.623  1.5572  0.6657 -2.2735
  186MOL0     H25103   4.381  10.059   8.524 -0.2904 -0.8335  2.4098
  186MOL0     H25104   4.293  10.248   8.675  1.8820  0.9739 -0.0233
  186MOL0     H25105   4.299  10.081   8.739  1.6347 -0.5257 -0.6989
  186MOL0     H25106   4.566  10.313   8.993  1.3197 -0.3700  0.8537
  186MOL0     H25107   4.908  10.217   8.486 -1.0698  0.0689  0.3349
  186MOL0     H25108   5.201  10.117   8.350 -0.7009  0.5867 -0.8186
  186MOL0     H25109   5.240  10.288   8.404  0.6646  0.8835 -0.6319
  186MOL0     H25110   5.120  10.177   8.488 -1.7656 -1.3719 -1.1377
  187MOL0     O25111   9.129   3.354  10.765 -0.4001  0.7624  0.2731
  187MOL0     C25112   9.103   3.413  10.665  0.8603 -0.1499 -0.8117
  187MOL0     O25113   9.128   3.544  10.653 -0.2150  0.0158 -0.2743
  187MOL0     C25114   9.187   3.603  10.767 -0.3657 -0.0641  0.8272
  187MOL0     C25115   9.326   3.638  10.775 -0.0193  0.6012 -0.0550
  187MOL0     C25116   9.382   3.687  10.897 -0.0054  0.1530 -0.0781
  187MOL0     C25117   9.305   3.678  11.015  0.3740  0.1599  0.2283
  187MOL0     O25118   9.378   3.708  11.128 -0.6841 -0.0204 -0.0217
  187MOL0     C25119   9.295   3.741  11.245  0.1485  0.0373  0.1614
  187MOL0     C25120   9.379   3.782  11.366  0.4369 -0.1988  0.3675
  187MOL0     C25121   9.446   3.671  11.440 -0.1094  0.5127  0.7525
  187MOL0     C25122   9.540   3.714  11.538 -0.4477  1.1513 -0.0056
  187MOL0     C25123   9.612   3.598  11.610 -0.9318  0.3302  0.2248
  187MOL0     C25124   9.677   3.645  11.754  0.0753 -0.1342  0.7046
  187MOL0     C25125   9.767   3.758  11.734 -0.5735 -0.1700 -0.1844
  187MOL0     C25126   9.862   3.776  11.853  0.3093  0.6351 -0.5284
  187MOL0     N25127   9.948   3.894  11.826  0.1421  1.1614 -0.4471
  187MOL0     C25128  10.057   3.923  11.906 -0.9685 -0.3174 -0.3385
  187MOL0     C25129  10.107   4.039  11.866  1.0982  0.5571  0.5944
  187MOL0     C25130  10.211   4.111  11.935 -0.3600 -0.6541 -0.6293
  187MOL0     C25131  10.345   4.047  11.934  0.0106  0.7614  0.1094
  187MOL0     C25132  10.434   4.129  12.032  0.0125 -0.4569  0.0645
  187MOL0     C25133  10.583   4.097  12.013 -0.7762 -0.6160  0.4871
  187MOL0     O25134  10.662   4.163  12.116  0.3867 -1.1919  0.4396
  187MOL0     C25135  10.789   4.171  12.084 -1.4910 -0.5227  0.1634
  187MOL0     C25136  10.880   4.060  12.089 -0.1379 -0.1932  0.6599
  187MOL0     C25137  11.009   4.087  12.044 -0.2330  0.2545 -0.6816
  187MOL0     C25138  11.059   4.204  11.998 -0.1559  0.4271 -0.0301
  187MOL0     C25139  11.201   4.221  11.981  0.3300  0.1296 -0.5541
  187MOL0     O25140  11.282   4.120  11.946 -0.7416  0.5238  0.3877
  187MOL0     C25141  11.422   4.145  11.937  0.4910  0.0131 -0.1941
  187MOL0     C25142  11.493   4.164  12.054 -0.0112  1.2184  0.2485
  187MOL0     C25143  11.635   4.198  12.053 -0.1648 -0.0677  0.2777
  187MOL0     C25144  11.704   4.214  11.929  0.0538 -0.3014 -0.3109
  187MOL0     O25145  11.833   4.256  11.917 -0.2639  0.2626  0.3964
  187MOL0     C25146  11.912   4.221  12.033 -0.9652 -0.4410 -0.3760
  187MOL0     C25147  12.053   4.243  11.974  0.3401  0.6504  0.3343
  187MOL0     C25148  12.152   4.287  12.081  0.2917  0.4526  0.4723
  187MOL0     C25149  12.287   4.273  12.012 -0.3771  0.1109  0.4891
  187MOL0     C25150  12.400   4.357  12.070 -0.0136 -0.4700  0.0804
  187MOL0     C25151  12.441   4.313  12.214  0.4165 -0.1557  0.2719
  187MOL0     C25152  12.539   4.412  12.273  0.2681 -0.5737  0.2259
  187MOL0     C25153  12.614   4.355  12.395 -0.1224  0.4046 -0.7757
  187MOL0    Cl25154  12.786   4.402  12.408  0.1385 -0.1036  0.0273
  187MOL0     C25155  11.628   4.193  11.806  1.0994 -0.3914 -0.4046
  187MOL0     C25156  11.491   4.149  11.812 -0.0732  0.1466 -0.2946
  187MOL0     O25157  11.246   4.333  12.014  0.6554  0.6097 -0.5852
  187MOL0     C25158  10.973   4.313  12.007 -0.4092 -0.0159  1.0043
  187MOL0     C25159  10.838   4.292  12.049 -0.4238 -0.2844 -0.0195
  187MOL0     N25160  10.037   4.075  11.754  0.6156  0.4324 -0.0119
  187MOL0     N25161   9.937   3.996  11.727 -0.4140  0.8046 -0.0221
  187MOL0     C25162   9.165   3.649  11.003 -0.3778 -0.7195 -0.0092
  187MOL0     C25163   9.112   3.625  10.883 -0.0270 -0.0761  1.0109
  187MOL0     C25164   9.021   3.353  10.555 -0.0912  0.8245 -0.5678
  187MOL0     C25165   8.992   3.427  10.435  1.0430  0.3252 -0.5905
  187MOL0     C25166   8.912   3.375  10.336 -0.0321  0.9474 -0.2085
  187MOL0     C25167   8.850   3.250  10.356  0.0800 -1.3966 -0.7509
  187MOL0     O25168   8.763   3.206  10.257 -0.8409  0.1951 -0.1890
  187MOL0     C25169   8.716   3.073  10.258  0.1372  0.8599 -0.7962
  187MOL0     C25170   8.582   3.079  10.182 -0.2467  0.0251  0.0065
  187MOL0     C25171   8.504   2.950  10.208  0.2274 -0.5859 -0.0437
  187MOL0     C25172   8.386   2.945  10.112  0.4275 -0.1850  0.4157
  187MOL0     C25173   8.289   3.052  10.098  0.1138 -1.1225 -0.0027
  187MOL0     C25174   8.207   3.141  10.103  0.3991 -0.3158 -0.4814
  187MOL0     C25175   8.877   3.177  10.471 -0.4275  0.3000 -0.2726
  187MOL0     C25176   8.955   3.224  10.573  0.0817 -0.7997  0.4961
  187MOL0     C25177   8.965   3.140  10.701  0.2626 -1.3104 -0.5570
  187MOL0     H25178   9.382   3.625  10.684  1.6227 -4.2531  1.3502
  187MOL0     H25179   9.488   3.712  10.901  0.2893 -0.5234 -2.3320
  187MOL0     H25180   9.232   3.825  11.215 -2.2368 -1.4890  0.5616
  187MOL0     H25181   9.229   3.659  11.276  0.2996 -1.1800 -2.4339
  187MOL0     H25182   9.307   3.829  11.434  1.0005 -0.1587  0.9453
  187MOL0     H25183   9.445   3.863  11.336  1.9822 -0.7423  2.1331
  187MOL0     H25184   9.497   3.620  11.358  2.2700  1.7458  1.3686
  187MOL0     H25185   9.371   3.608  11.489  1.6104 -1.8088  0.6127
  187MOL0     H25186   9.614   3.772  11.482  1.8162  0.5621  2.1675
  187MOL0     H25187   9.487   3.765  11.619 -1.7821  1.8487 -1.2699
  187MOL0     H25188   9.533   3.526  11.635 -0.5478  0.1673  0.9946
  187MOL0     H25189   9.689   3.552  11.547  0.3354 -0.9667  2.6070
  187MOL0     H25190   9.595   3.675  11.821 -0.4341  1.6181 -0.6277
  187MOL0     H25191   9.730   3.558  11.793 -0.3950 -0.9968 -0.5304
  187MOL0     H25192   9.709   3.849  11.728  0.6447  0.6560  0.1342
  187MOL0     H25193   9.821   3.755  11.638  0.0498  1.7398  0.0757
  187MOL0     H25194   9.807   3.795  11.946  0.6540  0.3313 -0.2648
  187MOL0     H25195   9.916   3.686  11.880  0.2560  0.7594 -0.0089
  187MOL0     H25196  10.087   3.868  11.994 -2.4540 -1.9142 -0.7603
  187MOL0     H25197  10.230   4.209  11.890  1.2225 -1.0521 -0.9044
  187MOL0     H25198  10.174   4.136  12.035 -2.6932 -1.5998 -1.1934
  187MOL0     H25199  10.357   3.942  11.963  0.6277  0.4901 -1.0546
  187MOL0     H25200  10.384   4.056  11.832  2.9178  1.9585  1.2041
  187MOL0     H25201  10.414   4.096  12.134  0.3955 -0.6160  0.0912
  187MOL0     H25202  10.420   4.237  12.024 -2.6197 -0.8510 -1.9722
  187MOL0     H25203  10.621   4.136  11.918 -3.8153  3.9562  0.8725
  187MOL0     H25204  10.596   3.988  12.024  0.4764 -0.5157  0.2226
  187MOL0     H25205  10.855   3.970  12.145 -0.3970 -1.0054 -0.7102
  187MOL0     H25206  11.068   3.997  12.057  0.6326  0.9354  0.2566
  187MOL0     H25207  11.435   4.159  12.145 -0.5274  2.9485  0.0411
  187MOL0     H25208  11.692   4.230  12.139 -1.0094 -2.0816  1.6544
  187MOL0     H25209  11.899   4.301  12.107  1.0553 -0.5297  0.1285
  187MOL0     H25210  11.892   4.123  12.076 -1.8853 -0.3260 -0.5150
  187MOL0     H25211  12.084   4.146  11.934  0.2921  0.9566 -0.4509
  187MOL0     H25212  12.052   4.314  11.891 -1.5834  0.4880  0.1861
  187MOL0     H25213  12.137   4.388  12.123  0.2339 -0.2441  2.2208
  187MOL0     H25214  12.146   4.217  12.165  0.0070  0.0464  0.1168
  187MOL0     H25215  12.274   4.307  11.909 -6.5263 -3.2652 -0.3484
  187MOL0     H25216  12.320   4.169  12.007 -1.1668 -0.1021 -1.0670
  187MOL0     H25217  12.370   4.462  12.066  1.1722 -0.1078  0.3539
  187MOL0     H25218  12.493   4.356  12.012  0.6433  1.4385  1.0232
  187MOL0     H25219  12.355   4.307  12.282  1.4569 -2.8750  1.5240
  187MOL0     H25220  12.499   4.221  12.205  1.3013  0.3622  0.5701
  187MOL0     H25221  12.493   4.510  12.284  0.2295 -0.4566 -0.8519
  187MOL0     H25222  12.618   4.440  12.203  0.4950 -0.0012  0.7069
  187MOL0     H25223  12.554   4.374  12.485 -0.4380 -1.4420 -0.5429
  187MOL0     H25224  12.613   4.246  12.403  1.6311  0.4524  0.9882
  187MOL0     H25225  11.670   4.212  11.708  1.0186  0.9147 -0.2055
  187MOL0     H25226  11.450   4.124  11.715  0.6592  0.0759 -0.5981
  187MOL0     H25227  11.018   4.405  11.973 -0.6164 -0.0103  0.7447
  187MOL0     H25228  10.769   4.375  12.054 -2.0205 -1.4386 -1.5953
  187MOL0     H25229   9.092   3.645  11.084 -1.9094  0.6897 -1.2386
  187MOL0     H25230   9.008   3.597  10.871  0.2343 -0.3426 -1.0580
  187MOL0     H25231   9.054   3.516  10.423  0.4030  1.1063  1.4818
  187MOL0     H25232   8.895   3.430  10.245 -0.9100 -2.5217 -2.3281
  187MOL0     H25233   8.684   3.052  10.360 -1.2698 -0.5724 -1.4985
  187MOL0     H25234   8.784   2.996  10.222 -0.0826 -0.1114  0.7772
  187MOL0     H25235   8.591   3.096  10.074 -2.9626 -0.2573 -0.3577
  187MOL0     H25236   8.528   3.170  10.211  0.6642  0.8037 -0.6915
  187MOL0     H25237   8.471   2.943  10.312 -1.4717 -0.4920 -0.5378
  187MOL0     H25238   8.567   2.862  10.194  3.2899  1.4649 -0.1089
  187MOL0     H25239   8.435   2.940  10.014  0.6246 -0.0475  0.5067
  187MOL0     H25240   8.325   2.857  10.135 -2.1547  0.5986 -2.6827
  187MOL0     H25241   8.136   3.221  10.098  4.0380  3.2935 -0.0106
  187MOL0     H25242   8.827   3.085  10.500  2.1726 -1.4861 -1.1374
  187MOL0     H25243   8.896   3.176  10.777  3.0433  0.9310  1.1218
  187MOL0     H25244   8.938   3.035  10.683 -1.1897 -0.7276 -2.0375
  187MOL0     H25245   9.070   3.137  10.733  0.6843 -2.2126 -1.9527
  188MOL0     O25246   6.991   6.861   9.861  0.0731 -0.3876  0.3695
  188MOL0     C25247   6.982   6.745   9.887  1.0207  0.6857  0.0880
  188MOL0     O25248   7.088   6.663   9.925 -0.6847 -0.1340 -0.6072
  188MOL0     C25249   7.215   6.716   9.936 -0.4102 -1.5243  0.3377
  188MOL0     C25250   7.287   6.804   9.847  0.8814  0.2346 -0.4933
  188MOL0     C25251   7.417   6.829   9.872 -0.4470 -0.0888  0.4457
  188MOL0     C25252   7.472   6.798   9.995  0.3886 -0.2429  0.3802
  188MOL0     O25253   7.598   6.845  10.015  0.4305 -0.1701 -0.4927
  188MOL0     C25254   7.706   6.767   9.955 -0.1271  0.2542 -0.4198
  188MOL0     C25255   7.819   6.867   9.958  0.0503  0.7127  0.0041
  188MOL0     C25256   7.880   6.876  10.095 -0.1563 -0.6358 -0.2881
  188MOL0     C25257   7.985   6.986  10.114  0.1144 -0.1090  0.2606
  188MOL0     C25258   8.083   6.961  10.219 -1.1183  0.2103 -0.4221
  188MOL0     C25259   8.179   7.081  10.223 -0.9260  0.3363  0.1630
  188MOL0     C25260   8.276   7.081  10.348 -0.0449  0.0334  0.0703
  188MOL0     C25261   8.408   7.147  10.306 -0.1192 -0.7522  0.3570
  188MOL0     N25262   8.495   7.169  10.430  0.6041  0.8805 -0.4435
  188MOL0     C25263   8.608   7.092  10.461 -0.2039  0.6656  0.3587
  188MOL0     C25264   8.659   7.144  10.574  0.6260 -0.0497  0.3951
  188MOL0     C25265   8.780   7.076  10.635 -0.8315 -0.0191 -0.8241
  188MOL0     C25266   8.890   7.175  10.689 -0.5404  0.6422 -0.0890
  188MOL0     C25267   9.019   7.096  10.714  0.6269 -0.0648 -0.6683
  188MOL0     C25268   9.123   7.172  10.807  0.2066  0.0753  0.0583
  188MOL0     O25269   9.196   7.276  10.743  0.4167 -0.4846 -0.4068
  188MOL0     C25270   9.286   7.353  10.815 -0.3986 -0.0653  0.8555
  188MOL0     C25271   9.364   7.303  10.917 -0.2392  0.5928  0.1970
  188MOL0     C25272   9.463   7.377  10.984 -0.1899  0.3482  0.0220
  188MOL0     C25273   9.502   7.502  10.932  0.1504  1.1799  0.0942
  188MOL0     C25274   9.611   7.585  11.000  0.5091  0.2414  0.3446
  188MOL0     O25275   9.625   7.722  10.984 -0.5064 -1.0301  0.4871
  188MOL0     C25276   9.731   7.785  11.038 -0.8218  0.1621  0.4293
  188MOL0     C25277   9.865   7.748  11.008 -0.4630 -0.0432  0.3769
  188MOL0     C25278   9.973   7.836  11.052  0.2318  0.4040 -0.0882
  188MOL0     C25279   9.948   7.956  11.111  0.2688 -0.6979 -0.4265
  188MOL0     O25280  10.044   8.038  11.158  0.0466 -0.4189 -1.3540
  188MOL0     C25281  10.183   8.018  11.148 -0.0112  0.3547  0.1197
  188MOL0     C25282  10.273   8.124  11.212  0.1954 -0.7470  0.2648
  188MOL0     C25283  10.256   8.254  11.142  0.3960 -0.4980  0.2149
  188MOL0     C25284  10.321   8.358  11.226  0.0675  0.7104  0.4430
  188MOL0     C25285  10.293   8.496  11.170  0.4816  0.0093  0.6819
  188MOL0     C25286  10.343   8.599  11.268  0.6903  0.2374 -0.1156
  188MOL0     C25287  10.284   8.730  11.208  0.2604 -0.6082  0.4375
  188MOL0     C25288  10.365   8.861  11.224  0.1157 -0.1225 -0.3919
  188MOL0    Cl25289  10.367   8.918  11.391 -0.1614 -0.0110  0.5161
  188MOL0     C25290   9.812   7.986  11.140 -0.5972 -1.3185 -0.0443
  188MOL0     C25291   9.701   7.907  11.105 -0.1585 -0.4751  0.4914
  188MOL0     O25292   9.689   7.519  11.065  0.0388  0.0595 -0.2115
  188MOL0     C25293   9.428   7.557  10.822 -1.1201  0.8239 -0.2024
  188MOL0     C25294   9.317   7.483  10.770 -0.3795 -1.0507  0.1959
  188MOL0     N25295   8.576   7.258  10.610 -0.0215  0.1054 -0.0535
  188MOL0     N25296   8.478   7.262  10.525  0.9229 -0.2216  0.6113
  188MOL0     C25297   7.410   6.713  10.076 -0.3829 -0.4612  0.4014
  188MOL0     C25298   7.290   6.673  10.049  0.5206 -0.1187  0.4872
  188MOL0     C25299   6.847   6.684   9.879 -0.8681 -0.7583 -0.2019
  188MOL0     C25300   6.749   6.746   9.792  0.9314  0.9019  0.0037
  188MOL0     C25301   6.619   6.706   9.791  0.4074 -0.7793 -0.5395
  188MOL0     C25302   6.585   6.589   9.860  0.5503  0.3782 -0.4473
  188MOL0     O25303   6.455   6.541   9.850 -0.3772 -0.4495 -1.1083
  188MOL0     C25304   6.427   6.496   9.716  0.4596 -0.2737  0.3174
  188MOL0     C25305   6.283   6.540   9.670 -0.1550 -0.9353  0.8233
  188MOL0     C25306   6.179   6.515   9.772 -0.2251  0.0189  0.4969
  188MOL0     C25307   6.173   6.377   9.831  0.6666  0.4063 -0.6578
  188MOL0     C25308   6.127   6.258   9.761  0.0245 -0.6556 -0.1266
  188MOL0     C25309   6.095   6.182   9.675  0.4757  0.1601  0.5213
  188MOL0     C25310   6.681   6.528   9.943  0.4236 -0.3452 -0.3295
  188MOL0     C25311   6.817   6.561   9.949  0.2043 -0.1402  0.0465
  188MOL0     C25312   6.906   6.474  10.032 -0.9367 -0.5230  0.5728
  188MOL0     H25313   7.245   6.842   9.755 -2.1637 -2.4598 -0.3734
  188MOL0     H25314   7.463   6.898   9.802 -0.8157  0.1593  0.4462
  188MOL0     H25315   7.715   6.671  10.008 -0.1258 -1.2884 -3.0322
  188MOL0     H25316   7.681   6.737   9.853  0.3496 -1.2951 -0.1214
  188MOL0     H25317   7.783   6.964   9.923  1.6753  1.7529  1.0732
  188MOL0     H25318   7.894   6.846   9.881  1.3069  1.7006  0.9077
  188MOL0     H25319   7.923   6.775  10.102  1.9172  0.0383 -2.1741
  188MOL0     H25320   7.792   6.898  10.157 -1.1832  2.0066 -2.4636
  188MOL0     H25321   8.034   7.000  10.018  0.6410 -2.2737  0.1694
  188MOL0     H25322   7.930   7.080  10.129 -0.1654 -0.0711 -0.8810
  188MOL0     H25323   8.045   6.955  10.321  0.5577  1.3720  0.3179
  188MOL0     H25324   8.133   6.865  10.210 -1.2709 -0.1713  2.0712
  188MOL0     H25325   8.242   7.078  10.134  1.3834 -0.5197  1.7000
  188MOL0     H25326   8.119   7.172  10.223 -2.4300 -0.5577  2.4330
  188MOL0     H25327   8.280   6.977  10.384 -1.3227  0.3873  1.3473
  188MOL0     H25328   8.227   7.141  10.425  0.4766 -0.5232  0.8419
  188MOL0     H25329   8.471   7.084  10.242 -0.9824 -1.2454 -0.0230
  188MOL0     H25330   8.379   7.240  10.257 -2.9733 -1.8130 -0.1773
  188MOL0     H25331   8.638   7.010  10.396 -0.8581  0.6314  0.0948
  188MOL0     H25332   8.749   7.006  10.713  1.5376  1.1329  1.2634
  188MOL0     H25333   8.835   7.020  10.559  0.7389  1.6085 -0.9539
  188MOL0     H25334   8.890   7.266  10.630 -1.6679  1.1534  0.6614
  188MOL0     H25335   8.853   7.204  10.788  0.7953 -0.9479  0.9568
  188MOL0     H25336   9.061   7.072  10.616 -1.6342 -4.1964 -0.8174
  188MOL0     H25337   8.993   7.001  10.763 -0.5684  0.4393 -0.2866
  188MOL0     H25338   9.186   7.096  10.854  2.3789  2.0942  0.5665
  188MOL0     H25339   9.063   7.215  10.887 -0.2812  0.9740 -0.7714
  188MOL0     H25340   9.337   7.201  10.944  2.6775 -1.2722 -3.0121
  188MOL0     H25341   9.505   7.349  11.080  3.9739  1.6851 -1.2193
  188MOL0     H25342   9.878   7.663  10.942  1.1657  1.5617 -1.5020
  188MOL0     H25343  10.075   7.800  11.049 -0.6383 -2.1953 -0.7065
  188MOL0     H25344  10.208   7.922  11.193 -1.5776  0.3276  1.0219
  188MOL0     H25345  10.207   8.006  11.042  0.0918 -1.7676  0.3346
  188MOL0     H25346  10.258   8.142  11.319  3.9869  0.7544  0.7328
  188MOL0     H25347  10.379   8.098  11.203  0.2603  0.1927 -3.4453
  188MOL0     H25348  10.310   8.252  11.047 -1.1349 -1.6261 -0.6774
  188MOL0     H25349  10.151   8.281  11.125  0.8079  2.0161  1.2476
  188MOL0     H25350  10.428   8.337  11.234  0.2399  0.9804 -0.9382
  188MOL0     H25351  10.269   8.352  11.322 -0.0820 -0.7800  0.2899
  188MOL0     H25352  10.186   8.518  11.159  0.4475 -0.2569  0.4629
  188MOL0     H25353  10.347   8.510  11.076 -0.3130 -1.4455 -0.0326
  188MOL0     H25354  10.301   8.577  11.366  2.3000  0.0935  0.5847
  188MOL0     H25355  10.452   8.611  11.263  0.7690 -0.6601 -4.7836
  188MOL0     H25356  10.186   8.743  11.255  1.7108  2.9566  2.9219
  188MOL0     H25357  10.269   8.713  11.101  1.2252  0.9868  0.0151
  188MOL0     H25358  10.466   8.827  11.197  0.8144 -0.3335  2.1556
  188MOL0     H25359  10.321   8.937  11.159 -0.1104 -0.1742 -0.2992
  188MOL0     H25360   9.786   8.077  11.193 -0.0156 -0.3673 -1.3475
  188MOL0     H25361   9.602   7.941  11.136  0.2346  0.2431  0.9757
  188MOL0     H25362   9.450   7.660  10.797  2.0053  0.0178 -1.2051
  188MOL0     H25363   9.260   7.542  10.698  1.4845  3.4633  2.0208
  188MOL0     H25364   7.434   6.681  10.176  0.4055  0.0970  0.4055
  188MOL0     H25365   7.233   6.615  10.121 -2.2366 -0.1864 -1.5681
  188MOL0     H25366   6.776   6.829   9.728  1.5274  0.0980 -0.8102
  188MOL0     H25367   6.542   6.755   9.732  0.9917  0.7145 -0.1106
  188MOL0     H25368   6.430   6.387   9.723  2.6509 -0.1717  1.6418
  188MOL0     H25369   6.487   6.535   9.633 -3.5255  1.9308 -1.8803
  188MOL0     H25370   6.258   6.479   9.583  2.4337 -1.6370  0.5025
  188MOL0     H25371   6.294   6.647   9.646 -0.4834 -1.0128  0.3049
  188MOL0     H25372   6.080   6.526   9.727  1.2693 -2.4432 -4.1413
  188MOL0     H25373   6.204   6.593   9.844  0.2979  1.2211 -0.9429
  188MOL0     H25374   6.271   6.342   9.865  0.7706 -3.8132 -4.2888
  188MOL0     H25375   6.116   6.379   9.924 -0.3936 -3.2422 -1.0615
  188MOL0     H25376   6.073   6.112   9.597  0.6209  0.3083  0.3485
  188MOL0     H25377   6.640   6.456  10.012  1.3106 -0.5168  0.0348
  188MOL0     H25378   6.986   6.439   9.966  0.3598  2.6992  0.2464
  188MOL0     H25379   6.951   6.536  10.110 -1.7544  0.0457  0.5977
  188MOL0     H25380   6.850   6.385  10.065 -0.5906 -1.0803 -0.3083
  189MOL0     O25381   0.527  11.270   0.672 -0.4962  0.5106  1.0852
  189MOL0     C25382   0.593  11.206   0.748  0.3294  0.9513 -0.4079
  189MOL0     O25383   0.729  11.208   0.763 -0.0518 -0.2547  0.1793
  189MOL0     C25384   0.795  11.306   0.688  0.2300 -0.7376  0.0402
  189MOL0     C25385   0.849  11.417   0.758  1.1306  0.6384 -0.4032
  189MOL0     C25386   0.940  11.502   0.700 -0.5168 -0.1619 -0.4934
  189MOL0     C25387   0.959  11.497   0.565  0.1300 -0.3634  0.9425
  189MOL0     O25388   1.050  11.584   0.510 -0.2632 -0.6904 -0.3444
  189MOL0     C25389   1.096  11.578   0.377  0.1656  0.4753  0.1766
  189MOL0     C25390   1.186  11.697   0.362 -0.3188 -0.1137  0.9966
  189MOL0     C25391   1.298  11.693   0.461 -0.0226  0.2653 -0.3603
  189MOL0     C25392   1.355  11.827   0.487  0.5263  0.4491 -0.2584
  189MOL0     C25393   1.421  11.841   0.629  0.0015 -0.6924 -0.6979
  189MOL0     C25394   1.516  11.961   0.636  0.3014  0.0592  0.1707
  189MOL0     C25395   1.604  11.974   0.760  0.7248  0.0010  0.0388
  189MOL0     C25396   1.535  12.048   0.880  0.1550 -0.4226  0.3799
  189MOL0     N25397   1.515  12.189   0.859  0.3066  0.0050 -0.3012
  189MOL0     C25398   1.621  12.272   0.874  0.4012  0.3238 -0.2660
  189MOL0     C25399   1.566  12.395   0.841 -0.5626 -0.5345  0.1583
  189MOL0     C25400   1.621  12.527   0.854 -0.4827 -0.1413 -0.2274
  189MOL0     C25401   1.775  12.523   0.842  0.1394  0.5550  0.6956
  189MOL0     C25402   1.824  12.667   0.814 -0.4800  0.4163  0.4424
  189MOL0     C25403   1.974  12.673   0.803  0.1588  0.0748  0.3705
  189MOL0     O25404   2.010  12.800   0.744  0.3193 -0.0905  0.4215
  189MOL0     C25405   2.142  12.835   0.738  0.4120  0.6949 -0.0344
  189MOL0     C25406   2.249  12.752   0.758 -0.5153 -0.0061 -0.5761
  189MOL0     C25407   2.374  12.798   0.740 -0.0307 -0.3680  0.2949
  189MOL0     C25408   2.397  12.929   0.695 -1.0214  0.2750 -0.5579
  189MOL0     C25409   2.542  12.968   0.662  0.3819 -0.1471 -0.3380
  189MOL0     O25410   2.562  13.095   0.619 -1.3979 -0.1369 -0.3320
  189MOL0     C25411   2.689  13.139   0.605  0.0504  0.0707  0.9858
  189MOL0     C25412   2.706  13.267   0.657  0.3068  0.5458  0.4184
  189MOL0     C25413   2.833  13.329   0.663 -0.5799  0.0790  0.6038
  189MOL0     C25414   2.937  13.278   0.589  0.4364  0.6147  0.2996
  189MOL0     O25415   3.058  13.358   0.577  0.1825  1.0643 -0.4126
  189MOL0     C25416   3.177  13.278   0.558  0.1479  1.1355  0.3510
  189MOL0     C25417   3.291  13.372   0.539 -0.3258 -0.0503 -0.6786
  189MOL0     C25418   3.423  13.286   0.530  0.4298  0.4237 -0.5560
  189MOL0     C25419   3.535  13.384   0.526  0.1503  0.2825 -0.2668
  189MOL0     C25420   3.576  13.423   0.383  0.1271 -0.0458  0.2880
  189MOL0     C25421   3.698  13.514   0.375  1.0116  0.1039 -0.1322
  189MOL0     C25422   3.713  13.555   0.232 -0.3067 -0.3440 -0.2307
  189MOL0     C25423   3.844  13.629   0.214  0.0444  0.2306  0.4584
  189MOL0    Cl25424   3.862  13.769   0.319  0.0400 -0.3582 -0.1418
  189MOL0     C25425   2.919  13.144   0.532 -0.8412 -0.6160  0.6364
  189MOL0     C25426   2.802  13.076   0.546 -0.7187 -0.3614 -0.5309
  189MOL0     O25427   2.632  12.884   0.695  0.1459  0.3516 -0.3376
  189MOL0     C25428   2.287  13.011   0.660 -0.1828 -0.1533  0.1778
  189MOL0     C25429   2.160  12.964   0.688  0.0545  0.1238 -0.3918
  189MOL0     N25430   1.431  12.376   0.823  0.6563  0.0755  1.3215
  189MOL0     N25431   1.398  12.245   0.823  0.6436 -0.0937 -0.2310
  189MOL0     C25432   0.894  11.401   0.490  0.8539  0.1566  0.2588
  189MOL0     C25433   0.818  11.307   0.556 -1.2544  0.8531  1.1042
  189MOL0     C25434   0.514  11.119   0.839 -0.2672  0.0236 -0.8613
  189MOL0     C25435   0.375  11.105   0.823 -0.3080  0.4092 -0.0598
  189MOL0     C25436   0.291  11.035   0.909 -0.1712  0.6718  0.1348
  189MOL0     C25437   0.342  10.963   1.022 -0.5385 -0.0521 -0.2431
  189MOL0     O25438   0.256  10.906   1.107 -0.2695  0.0851 -0.3264
  189MOL0     C25439   0.224  10.990   1.218  0.4535  0.8399 -0.6992
  189MOL0     C25440   0.094  10.926   1.293  0.0431  0.0703  1.5211
  189MOL0     C25441  -0.037  11.016   1.265  0.3873 -0.0685  0.7417
  189MOL0     C25442  -0.163  10.944   1.314 -0.4492 -0.5371  1.0125
  189MOL0     C25443  -0.163  10.941   1.457  0.2622 -0.5191  0.2497
  189MOL0     C25444  -0.164  10.935   1.579 -0.5019  0.5489 -0.3670
  189MOL0     C25445   0.475  10.978   1.050  0.5985 -1.3260  0.3717
  189MOL0     C25446   0.565  11.052   0.967  0.4639  0.7245 -0.4467
  189MOL0     C25447   0.715  11.075   1.005  0.2132 -0.3600  0.1795
  189MOL0     H25448   0.827  11.432   0.863  1.2449 -0.2337 -0.2463
  189MOL0     H25449   0.978  11.591   0.751  1.5129 -2.1980  1.8257
  189MOL0     H25450   1.166  11.495   0.364  1.6265  1.8118 -0.8117
  189MOL0     H25451   1.015  11.576   0.304  0.0174 -1.4209  0.3389
  189MOL0     H25452   1.122  11.782   0.385 -0.1058  0.3460 -0.0277
  189MOL0     H25453   1.229  11.693   0.261  2.5152 -0.3544  2.1317
  189MOL0     H25454   1.380  11.624   0.440 -0.1577  0.0655 -0.2333
  189MOL0     H25455   1.266  11.655   0.558  1.2385  1.9816  0.7797
  189MOL0     H25456   1.420  11.857   0.404  0.4597  2.7856  0.4565
  189MOL0     H25457   1.272  11.898   0.483  0.1391 -0.0387 -1.2450
  189MOL0     H25458   1.345  11.850   0.707  2.4898  1.9760  1.6922
  189MOL0     H25459   1.490  11.757   0.643  0.3380 -0.0888  1.7953
  189MOL0     H25460   1.580  11.954   0.547  1.4392  0.9743  0.8990
  189MOL0     H25461   1.448  12.046   0.635  1.1999  0.7816 -0.6010
  189MOL0     H25462   1.697  12.020   0.726  0.1258  0.5016 -0.9612
  189MOL0     H25463   1.623  11.872   0.794 -0.4897 -0.9028 -1.8235
  189MOL0     H25464   1.434  12.008   0.891 -1.3343  3.1502  0.9726
  189MOL0     H25465   1.611  12.022   0.955  3.3124  0.8831 -2.1283
  189MOL0     H25466   1.720  12.251   0.914  0.3092  0.8113  0.2208
  189MOL0     H25467   1.581  12.580   0.767 -1.6184  0.8358  0.8380
  189MOL0     H25468   1.590  12.567   0.951 -0.2068 -3.3292  1.3144
  189MOL0     H25469   1.811  12.481   0.937 -2.0314 -0.8109  0.9899
  189MOL0     H25470   1.811  12.470   0.753 -1.3998 -0.1655  0.4818
  189MOL0     H25471   1.792  12.726   0.901 -0.9002  0.4095  0.2953
  189MOL0     H25472   1.779  12.701   0.721  0.8619 -1.8137 -1.1302
  189MOL0     H25473   2.009  12.582   0.755  0.3146 -1.3795  3.0109
  189MOL0     H25474   2.016  12.661   0.903  2.9142  1.7555 -0.4989
  189MOL0     H25475   2.226  12.651   0.791 -2.1873  0.8428  1.0367
  189MOL0     H25476   2.461  12.739   0.766 -0.0824 -0.0299  1.2866
  189MOL0     H25477   2.627  13.327   0.701  1.1567  1.2857  0.9654
  189MOL0     H25478   2.844  13.431   0.697 -0.1274 -0.0913  0.9808
  189MOL0     H25479   3.193  13.214   0.646 -0.7963  0.6605  0.1919
  189MOL0     H25480   3.163  13.213   0.471 -2.1137  0.8525  0.8472
  189MOL0     H25481   3.265  13.425   0.448 -0.4716  1.5964  0.2786
  189MOL0     H25482   3.299  13.450   0.616  0.4030 -0.7828  0.0238
  189MOL0     H25483   3.425  13.224   0.620  1.4792 -0.5415 -1.2148
  189MOL0     H25484   3.417  13.218   0.445  1.1919  0.2377 -0.4716
  189MOL0     H25485   3.624  13.338   0.570 -0.6536 -0.6434  0.4462
  189MOL0     H25486   3.515  13.474   0.585 -0.2660  0.5655 -0.8295
  189MOL0     H25487   3.486  13.465   0.337 -0.0712  2.2577  2.5223
  189MOL0     H25488   3.589  13.329   0.330 -2.5496 -0.3148 -0.0159
  189MOL0     H25489   3.682  13.602   0.438  0.0361  0.3764 -0.7383
  189MOL0     H25490   3.787  13.461   0.411  0.8625 -0.6211 -0.8080
  189MOL0     H25491   3.633  13.621   0.196  1.6211  1.8797 -0.6204
  189MOL0     H25492   3.720  13.468   0.166  1.4559 -0.1796 -0.3070
  189MOL0     H25493   3.924  13.558   0.237  0.6282  0.9064  0.5436
  189MOL0     H25494   3.860  13.660   0.110  2.2417 -1.0665  0.3483
  189MOL0     H25495   2.996  13.089   0.479  0.2221  2.0106 -0.7058
  189MOL0     H25496   2.784  12.976   0.508 -4.0730  0.8643 -2.6401
  189MOL0     H25497   2.297  13.108   0.612 -0.4382 -0.9399 -1.5613
  189MOL0     H25498   2.072  13.024   0.665 -0.8636 -2.0300 -3.0869
  189MOL0     H25499   0.914  11.384   0.385 -3.6534 -4.2180 -0.2646
  189MOL0     H25500   0.771  11.230   0.495 -0.6624  0.1031  1.5738
  189MOL0     H25501   0.317  11.141   0.738  1.4106  2.8645 -0.3156
  189MOL0     H25502   0.186  11.038   0.879  0.2215  4.0198 -1.3161
  189MOL0     H25503   0.201  11.096   1.214 -3.4414  0.1773  0.1756
  189MOL0     H25504   0.303  10.996   1.294 -0.9981  3.0135  0.7722
  189MOL0     H25505   0.119  10.921   1.399  0.1164 -0.4083  1.4832
  189MOL0     H25506   0.080  10.825   1.252  1.7330  0.1386  0.6965
  189MOL0     H25507  -0.038  11.042   1.159  0.5386 -2.0820  0.2138
  189MOL0     H25508  -0.029  11.115   1.312  3.1502 -0.3082  0.9026
  189MOL0     H25509  -0.252  10.997   1.277  1.1684  1.0763 -0.8424
  189MOL0     H25510  -0.171  10.842   1.276  2.2631 -1.8385  3.5998
  189MOL0     H25511  -0.173  10.936   1.686 -1.9410 -1.4735 -0.4129
  189MOL0     H25512   0.513  10.947   1.147 -0.0104 -2.7660  0.1765
  189MOL0     H25513   0.782  11.048   0.923  1.0261  2.4871 -0.2131
  189MOL0     H25514   0.724  11.182   1.025 -0.8782 -0.5344  1.8239
  189MOL0     H25515   0.728  11.008   1.090  0.1172 -4.5559 -2.8051
  190MOL0     O25516   1.542   1.525   6.890  0.2283  0.4635 -0.0884
  190MOL0     C25517   1.553   1.543   7.007  0.2909  0.4417 -0.9013
  190MOL0     O25518   1.664   1.517   7.085 -0.3138  0.8137 -0.0322
  190MOL0     C25519   1.777   1.478   7.029  0.0879  0.0203  0.0869
  190MOL0     C25520   1.789   1.340   7.015  0.2393 -0.5364  0.4347
  190MOL0     C25521   1.908   1.282   6.982  0.1020  0.1701  0.3102
  190MOL0     C25522   2.021   1.364   6.959 -0.7005  0.3079 -0.9615
  190MOL0     O25523   2.137   1.314   6.916  0.1540  0.8883  0.1706
  190MOL0     C25524   2.208   1.221   7.009  0.4874  0.2456  0.5444
  190MOL0     C25525   2.352   1.201   6.949  0.2766 -0.0468 -0.1944
  190MOL0     C25526   2.437   1.328   6.959  0.4101 -0.2468  0.2372
  190MOL0     C25527   2.585   1.313   6.899 -0.3808 -0.1123 -0.6556
  190MOL0     C25528   2.652   1.459   6.919  0.0924  0.5040  0.2049
  190MOL0     C25529   2.794   1.460   6.869 -0.1975  0.0148  0.2351
  190MOL0     C25530   2.863   1.592   6.913 -0.1047 -0.6777  0.5862
  190MOL0     C25531   3.013   1.588   6.878 -0.0071 -0.6143 -0.6606
  190MOL0     N25532   3.084   1.534   6.990 -0.5705  0.6608 -0.6370
  190MOL0     C25533   3.082   1.583   7.118 -0.3911  0.3104  0.0923
  190MOL0     C25534   3.187   1.518   7.177  0.3696  0.3776 -0.3183
  190MOL0     C25535   3.254   1.534   7.311  0.6137 -0.8916  0.7520
  190MOL0     C25536   3.400   1.498   7.310 -0.4546  0.6873  0.0962
  190MOL0     C25537   3.456   1.506   7.455 -0.9284 -0.0635  1.3678
  190MOL0     C25538   3.605   1.468   7.451 -0.0545  1.0340  0.6282
  190MOL0     O25539   3.662   1.454   7.575 -0.7856  0.8506  0.3126
  190MOL0     C25540   3.791   1.414   7.594 -0.2532 -0.0582 -0.7047
  190MOL0     C25541   3.886   1.396   7.494 -0.0317 -0.6278  0.6317
  190MOL0     C25542   4.020   1.367   7.521 -0.4817 -0.5625 -0.0544
  190MOL0     C25543   4.056   1.338   7.654  0.9979 -0.0360 -0.5020
  190MOL0     C25544   4.196   1.299   7.683  0.2053  0.2800 -0.7021
  190MOL0     O25545   4.270   1.240   7.581  0.6244 -0.2167 -0.3057
  190MOL0     C25546   4.406   1.231   7.615 -0.0611  0.1659 -0.0723
  190MOL0     C25547   4.469   1.143   7.705 -0.6213 -0.5076 -0.2588
  190MOL0     C25548   4.605   1.158   7.735  0.2633 -0.6545  0.0552
  190MOL0     C25549   4.683   1.251   7.673 -0.9292  0.8772 -0.4107
  190MOL0     O25550   4.821   1.246   7.707  0.1949 -0.8223  0.2815
  190MOL0     C25551   4.903   1.348   7.649  0.0550 -0.3121 -0.2770
  190MOL0     C25552   5.043   1.304   7.656  0.5278  0.0862  0.1762
  190MOL0     C25553   5.070   1.161   7.612  0.2820 -0.4071 -0.0921
  190MOL0     C25554   5.222   1.125   7.596 -0.6450 -0.3160 -0.1146
  190MOL0     C25555   5.256   0.984   7.627 -0.2564 -0.3057  0.2286
  190MOL0     C25556   5.404   0.952   7.603  0.5332 -0.6379  0.0018
  190MOL0     C25557   5.404   0.799   7.613 -0.6516 -0.8820 -0.5997
  190MOL0     C25558   5.552   0.749   7.576 -0.0302  0.2550  0.1657
  190MOL0    Cl25559   5.621   0.805   7.426 -0.4239 -0.3020  0.5892
  190MOL0     C25560   4.615   1.344   7.579  0.1806  0.0397  0.2641
  190MOL0     C25561   4.485   1.321   7.550 -0.1358 -0.0034 -0.5693
  190MOL0     O25562   4.246   1.349   7.779  0.0412 -0.6154 -0.5355
  190MOL0     C25563   3.967   1.356   7.757  0.4157 -0.5622 -0.5383
  190MOL0     C25564   3.833   1.395   7.725  0.7856 -0.8700 -0.4223
  190MOL0     N25565   3.236   1.427   7.082 -0.5953  0.4138 -0.4444
  190MOL0     N25566   3.180   1.437   6.973  0.6408  0.1007 -0.3885
  190MOL0     C25567   2.012   1.503   6.986  0.4211  0.2367 -0.1190
  190MOL0     C25568   1.884   1.559   7.020 -0.3977  0.7360 -0.2123
  190MOL0     C25569   1.443   1.624   7.071 -0.6929  0.9113 -0.3792
  190MOL0     C25570   1.311   1.585   7.046  0.4437 -0.2636  0.2556
  190MOL0     C25571   1.211   1.634   7.130  1.0116  1.2106  0.9629
  190MOL0     C25572   1.235   1.740   7.220  0.4417 -0.2488 -0.7568
  190MOL0     O25573   1.143   1.816   7.294  0.0305 -0.0619 -0.0977
  190MOL0     C25574   1.005   1.790   7.294 -0.5222 -0.1005  0.2257
  190MOL0     C25575   0.930   1.911   7.352 -0.2628  0.0722 -0.1740
  190MOL0     C25576   0.914   2.024   7.245 -0.4264 -0.8102 -0.3298
  190MOL0     C25577   0.829   2.142   7.290 -0.1730 -0.0379 -0.2053
  190MOL0     C25578   0.684   2.114   7.288  0.7919  0.0022 -0.1899
  190MOL0     C25579   0.573   2.066   7.288  0.5772  0.2102 -0.6805
  190MOL0     C25580   1.366   1.786   7.236 -0.4510  0.9708  0.3538
  190MOL0     C25581   1.473   1.728   7.169 -0.4428 -0.9369  0.0826
  190MOL0     C25582   1.612   1.765   7.211  0.4601  0.6132  0.3973
  190MOL0     H25583   1.700   1.280   7.029 -0.8195 -0.4789 -4.4247
  190MOL0     H25584   1.910   1.174   6.971  3.8550 -0.0578  1.8747
  190MOL0     H25585   2.204   1.266   7.109  5.0058 -0.7447  1.4232
  190MOL0     H25586   2.150   1.129   7.008 -0.8439  1.0611  0.5570
  190MOL0     H25587   2.344   1.176   6.843  1.3169  0.8692 -0.5053
  190MOL0     H25588   2.397   1.113   6.995 -1.1469 -1.5063 -1.4868
  190MOL0     H25589   2.450   1.372   7.059 -0.2954  0.3331  0.0824
  190MOL0     H25590   2.390   1.410   6.903 -1.9142 -1.1804  0.7346
  190MOL0     H25591   2.643   1.244   6.961  0.6727 -0.5431 -2.0788
  190MOL0     H25592   2.595   1.264   6.802  2.2327 -3.1684  0.9523
  190MOL0     H25593   2.601   1.537   6.861 -0.0356  0.6333  0.4870
  190MOL0     H25594   2.632   1.489   7.023 -0.0604 -0.0473  0.3358
  190MOL0     H25595   2.850   1.384   6.923 -2.8728  0.2479  3.6399
  190MOL0     H25596   2.812   1.439   6.763  0.2837 -0.9137  0.4904
  190MOL0     H25597   2.851   1.605   7.021  0.9518 -0.4506  0.6938
  190MOL0     H25598   2.814   1.671   6.856  2.3345 -1.2909 -2.6597
  190MOL0     H25599   3.025   1.525   6.790 -0.8855 -0.5615 -0.8217
  190MOL0     H25600   3.051   1.688   6.855  0.3455 -0.5237  0.2815
  190MOL0     H25601   3.035   1.667   7.168 -0.5221  1.8958 -2.4902
  190MOL0     H25602   3.256   1.639   7.341 -2.7581 -0.8677  1.3403
  190MOL0     H25603   3.206   1.478   7.392  0.4916  0.9931  2.0231
  190MOL0     H25604   3.412   1.392   7.288 -1.4998  0.3665  0.9714
  190MOL0     H25605   3.461   1.555   7.239 -0.6005  0.4736 -0.2014
  190MOL0     H25606   3.403   1.438   7.523  2.0269 -2.7704  1.1767
  190MOL0     H25607   3.449   1.609   7.490 -0.9062  0.5468 -0.3533
  190MOL0     H25608   3.658   1.543   7.390 -1.0113  1.0161 -0.2581
  190MOL0     H25609   3.620   1.371   7.402  0.7710  0.5079  1.8698
  190MOL0     H25610   3.858   1.409   7.390 -0.0604  0.6219  0.7717
  190MOL0     H25611   4.095   1.356   7.443  1.1767  3.4765  0.7118
  190MOL0     H25612   4.408   1.070   7.757  1.8379 -1.1578  1.9451
  190MOL0     H25613   4.641   1.093   7.815  0.5263  0.7541  1.1114
  190MOL0     H25614   4.887   1.363   7.542  0.8767 -2.4436 -0.7478
  190MOL0     H25615   4.894   1.445   7.698  0.2204 -0.9225  0.9993
  190MOL0     H25616   5.108   1.368   7.595  0.4355  0.7575  0.7778
  190MOL0     H25617   5.064   1.316   7.762 -3.2198 -4.5282  1.7945
  190MOL0     H25618   5.035   1.101   7.696  1.5269 -1.2674 -0.1582
  190MOL0     H25619   5.018   1.140   7.518  1.8272 -0.2235 -1.0298
  190MOL0     H25620   5.289   1.183   7.659 -1.9166  0.5463  0.5004
  190MOL0     H25621   5.247   1.133   7.490  2.3580  2.6893  0.6662
  190MOL0     H25622   5.197   0.915   7.565 -2.6286 -0.4133  2.4278
  190MOL0     H25623   5.235   0.970   7.733 -1.2038  0.7064  0.1988
  190MOL0     H25624   5.440   0.997   7.510 -2.5133  2.5429  0.1516
  190MOL0     H25625   5.454   0.996   7.690  1.4608 -1.5733 -0.0430
  190MOL0     H25626   5.333   0.759   7.539 -0.6084  0.1950 -1.2428
  190MOL0     H25627   5.366   0.768   7.711  0.0121  0.9365  0.2693
  190MOL0     H25628   5.622   0.774   7.656  0.0838  0.3103  0.0484
  190MOL0     H25629   5.549   0.640   7.562 -1.3620  0.1891  0.7638
  190MOL0     H25630   4.669   1.429   7.540 -0.5257  1.9769  3.1620
  190MOL0     H25631   4.424   1.387   7.489 -2.1512 -1.1829  0.0552
  190MOL0     H25632   3.992   1.352   7.863 -0.8734  0.8449 -0.1366
  190MOL0     H25633   3.766   1.414   7.809  2.3744  0.9742  0.4897
  190MOL0     H25634   2.104   1.558   6.976 -0.1772  1.1657 -0.6621
  190MOL0     H25635   1.876   1.664   7.045  0.0154 -0.0180  3.9787
  190MOL0     H25636   1.297   1.513   6.966 -0.3679 -1.6015  1.5575
  190MOL0     H25637   1.110   1.595   7.127  1.6021 -0.3390  0.3481
  190MOL0     H25638   0.996   1.702   7.359  1.0399 -0.6374 -0.2626
  190MOL0     H25639   0.957   1.769   7.198 -0.0227 -1.9918  0.3497
  190MOL0     H25640   0.986   1.951   7.438  0.5465  0.7389 -0.9890
  190MOL0     H25641   0.832   1.886   7.392  0.4586  0.4645  1.9903
  190MOL0     H25642   0.866   1.989   7.154  0.4794 -1.7087 -0.4738
  190MOL0     H25643   1.017   2.057   7.227 -0.2528 -1.8036 -1.2419
  190MOL0     H25644   0.851   2.166   7.395 -1.0696 -1.4561  0.3498
  190MOL0     H25645   0.861   2.227   7.230  1.6378 -1.7394 -1.7712
  190MOL0     H25646   0.474   2.024   7.288  1.1342 -1.1600 -0.2257
  190MOL0     H25647   1.392   1.870   7.300 -0.7262  0.3266  1.3352
  190MOL0     H25648   1.601   1.840   7.290 -1.6113 -2.0391  2.8651
  190MOL0     H25649   1.665   1.680   7.254  1.1974 -0.6085 -2.6919
  190MOL0     H25650   1.673   1.800   7.128 -1.7135  0.0533 -1.5377
  191MOL0     O25651   2.526   4.449   4.198  0.0333 -0.7529 -0.3902
  191MOL0     C25652   2.519   4.345   4.142 -0.0149 -0.8897  0.3827
  191MOL0     O25653   2.608   4.314   4.045 -0.2988  0.1046 -0.5751
  191MOL0     C25654   2.700   4.405   3.998  0.7300 -0.2105 -0.8456
  191MOL0     C25655   2.830   4.395   4.036  0.0418  0.0013 -0.1500
  191MOL0     C25656   2.928   4.481   3.978 -0.0143 -0.0814 -0.0739
  191MOL0     C25657   2.891   4.571   3.875 -0.3796 -0.1451  0.0567
  191MOL0     O25658   3.004   4.635   3.822 -0.7868  0.2380  0.0466
  191MOL0     C25659   2.983   4.725   3.707  0.8115  1.3724 -0.2653
  191MOL0     C25660   3.120   4.798   3.685 -0.6176  0.0326 -0.5188
  191MOL0     C25661   3.118   4.919   3.792 -0.5984  0.4678  0.5879
  191MOL0     C25662   3.250   5.004   3.808 -0.3208  0.4766 -0.5267
  191MOL0     C25663   3.229   5.136   3.887  0.0456  0.0547 -0.8887
  191MOL0     C25664   3.172   5.118   4.030  0.6963  0.4032 -0.7962
  191MOL0     C25665   3.174   5.253   4.106  0.4844  0.5042 -0.2118
  191MOL0     C25666   3.055   5.336   4.055  0.5998  0.0007 -0.5452
  191MOL0     N25667   2.927   5.306   4.128 -0.4415  0.2099 -0.0597
  191MOL0     C25668   2.795   5.295   4.084  0.4358 -0.1137  0.3774
  191MOL0     C25669   2.718   5.276   4.191  0.8125 -0.9048 -0.2741
  191MOL0     C25670   2.569   5.250   4.195  0.7253  0.1421 -0.9862
  191MOL0     C25671   2.481   5.298   4.079  0.0638 -0.5178 -0.9674
  191MOL0     C25672   2.334   5.247   4.102 -0.9360  0.0752 -0.1310
  191MOL0     C25673   2.261   5.234   3.971  0.4806 -0.0434  0.4774
  191MOL0     O25674   2.127   5.211   4.006 -0.0633 -0.6246 -0.1962
  191MOL0     C25675   2.027   5.228   3.917 -0.2550 -1.2647 -0.9359
  191MOL0     C25676   2.022   5.323   3.810  0.6142 -0.3578 -0.9158
  191MOL0     C25677   1.900   5.345   3.732 -0.4816 -0.6852 -0.2401
  191MOL0     C25678   1.781   5.283   3.768  0.3419  1.1876  0.0840
  191MOL0     C25679   1.652   5.315   3.694  0.3950  0.4138  0.7928
  191MOL0     O25680   1.541   5.239   3.700 -0.1480  0.0743  0.2276
  191MOL0     C25681   1.437   5.291   3.619  0.7081  0.1580  0.5917
  191MOL0     C25682   1.337   5.380   3.659  0.2467  0.5423 -0.4728
  191MOL0     C25683   1.229   5.425   3.577 -0.3429 -0.6551 -0.3422
  191MOL0     C25684   1.213   5.374   3.444 -0.7742  0.0387  0.6662
  191MOL0     O25685   1.115   5.394   3.353 -0.8929  0.4646  0.0104
  191MOL0     C25686   0.985   5.432   3.408  0.2308 -0.0785  1.0087
  191MOL0     C25687   0.909   5.308   3.439 -0.3746  0.0292  0.0360
  191MOL0     C25688   0.771   5.329   3.510 -0.2415 -0.3582 -0.3144
  191MOL0     C25689   0.673   5.426   3.432  0.3114  0.7933  1.7441
  191MOL0     C25690   0.530   5.415   3.481  0.7814 -0.6331  0.0197
  191MOL0     C25691   0.514   5.494   3.620  0.0236  0.3268  0.6923
  191MOL0     C25692   0.412   5.417   3.705 -0.1492 -0.7666  0.2137
  191MOL0     C25693   0.276   5.409   3.637  0.1797 -0.3469 -0.0880
  191MOL0    Cl25694   0.213   5.572   3.632  0.3427 -0.6438  0.2735
  191MOL0     C25695   1.319   5.288   3.405  0.4177  0.3278 -0.1060
  191MOL0     C25696   1.424   5.245   3.491  0.1814  0.2397  0.6111
  191MOL0     O25697   1.667   5.417   3.626 -0.4521 -0.0103 -0.0233
  191MOL0     C25698   1.780   5.200   3.882 -0.3443 -0.1401 -0.3212
  191MOL0     C25699   1.897   5.170   3.949 -0.3544  0.3330 -0.7970
  191MOL0     N25700   2.799   5.285   4.304  1.3774  1.3512 -0.5191
  191MOL0     N25701   2.924   5.302   4.266 -0.6952  0.5048  0.1477
  191MOL0     C25702   2.759   4.581   3.837 -0.1642  0.1186 -0.4992
  191MOL0     C25703   2.664   4.500   3.899 -0.9482 -0.2409  1.1112
  191MOL0     C25704   2.394   4.258   4.165 -1.3276 -0.0355 -0.8240
  191MOL0     C25705   2.288   4.312   4.235 -0.0121 -0.3114 -0.0724
  191MOL0     C25706   2.171   4.239   4.265 -0.0670  0.0703 -0.3064
  191MOL0     C25707   2.154   4.108   4.218 -0.3330 -0.0666 -0.9619
  191MOL0     O25708   2.050   4.028   4.237  0.6085  0.0889 -0.1252
  191MOL0     C25709   1.945   4.053   4.332  0.0020  0.7855  0.5551
  191MOL0     C25710   1.854   3.929   4.348 -0.1254  0.2738  0.4980
  191MOL0     C25711   1.728   3.964   4.432  0.0568 -0.1837 -0.4846
  191MOL0     C25712   1.646   3.835   4.440 -0.1408 -0.1631  0.6667
  191MOL0     C25713   1.527   3.874   4.516  0.6017 -0.2463  0.2752
  191MOL0     C25714   1.422   3.914   4.567 -0.1146  1.4155  0.0236
  191MOL0     C25715   2.264   4.049   4.150 -0.5183 -0.0826  0.0119
  191MOL0     C25716   2.385   4.119   4.133  1.1607 -0.6016  0.3385
  191MOL0     C25717   2.497   4.044   4.071  1.0246 -0.3853  0.0477
  191MOL0     H25718   2.843   4.329   4.122  2.2670 -0.7258 -0.9571
  191MOL0     H25719   3.032   4.472   4.009 -0.3474 -3.2207  0.4468
  191MOL0     H25720   2.945   4.674   3.619 -1.7043  1.4999  0.6804
  191MOL0     H25721   2.910   4.802   3.732 -3.2032 -2.2223  0.1442
  191MOL0     H25722   3.132   4.840   3.584  0.6174  0.1086 -0.3654
  191MOL0     H25723   3.204   4.728   3.697 -0.9062 -0.8656 -3.0398
  191MOL0     H25724   3.086   4.887   3.892  0.2874 -0.9068  0.4627
  191MOL0     H25725   3.040   4.985   3.754 -2.0866 -2.7670 -2.6326
  191MOL0     H25726   3.330   4.939   3.845 -2.4423 -1.2503  1.3760
  191MOL0     H25727   3.273   5.039   3.707 -2.7132 -0.2977 -1.4207
  191MOL0     H25728   3.332   5.172   3.879 -0.1788  0.4641 -2.0978
  191MOL0     H25729   3.153   5.196   3.836 -1.0828 -0.8930 -0.3725
  191MOL0     H25730   3.070   5.079   4.026  1.1019 -0.6469 -1.0244
  191MOL0     H25731   3.227   5.042   4.086 -1.5234 -1.5507 -1.1379
  191MOL0     H25732   3.269   5.302   4.083  0.8076  1.2753  2.3836
  191MOL0     H25733   3.170   5.239   4.214 -0.2346  0.6313 -0.2198
  191MOL0     H25734   3.084   5.438   4.080  1.7547 -0.4916  0.1725
  191MOL0     H25735   3.044   5.326   3.946 -0.2354 -1.0651 -0.3903
  191MOL0     H25736   2.766   5.291   3.979  2.1356  0.2198 -0.1279
  191MOL0     H25737   2.556   5.141   4.199 -1.3548  0.3065 -1.8352
  191MOL0     H25738   2.527   5.295   4.286 -1.2993 -2.4116 -0.5223
  191MOL0     H25739   2.473   5.407   4.077  1.8516 -0.3033  0.7009
  191MOL0     H25740   2.505   5.248   3.984  0.6695 -3.3784  0.5920
  191MOL0     H25741   2.290   5.313   4.178  1.2966 -0.1764  1.5027
  191MOL0     H25742   2.330   5.147   4.146  0.4463  1.2041  2.8701
  191MOL0     H25743   2.299   5.153   3.908 -2.4404 -2.0085  1.0679
  191MOL0     H25744   2.257   5.331   3.920  1.4659  0.7477  1.8374
  191MOL0     H25745   2.115   5.374   3.785  1.8141 -1.9366  0.0460
  191MOL0     H25746   1.911   5.409   3.645 -1.4956  0.4161  0.4178
  191MOL0     H25747   1.344   5.409   3.763  1.7865 -1.1805 -0.0589
  191MOL0     H25748   1.157   5.500   3.609  0.9823  2.4699 -3.9573
  191MOL0     H25749   0.994   5.504   3.489 -2.1070 -0.8722  2.0357
  191MOL0     H25750   0.940   5.481   3.321  1.2201 -0.4659  0.2521
  191MOL0     H25751   0.891   5.253   3.346 -0.7077 -1.6108  1.0222
  191MOL0     H25752   0.971   5.246   3.505 -1.6093 -0.3850  0.8371
  191MOL0     H25753   0.717   5.238   3.538 -1.4503  1.2641  3.3972
  191MOL0     H25754   0.781   5.384   3.605 -1.5302  1.5272 -1.1997
  191MOL0     H25755   0.669   5.395   3.327  2.0860  1.5632  1.4041
  191MOL0     H25756   0.711   5.528   3.439  0.4118  0.9111 -0.0373
  191MOL0     H25757   0.511   5.308   3.490 -3.4078 -0.0944 -0.5760
  191MOL0     H25758   0.467   5.457   3.402  0.5808  1.7298  1.3345
  191MOL0     H25759   0.612   5.506   3.666  0.0684  2.3733  0.2057
  191MOL0     H25760   0.488   5.600   3.606 -0.7125 -0.0414 -1.1460
  191MOL0     H25761   0.399   5.463   3.804 -2.5817 -1.5434  0.3025
  191MOL0     H25762   0.448   5.314   3.717 -0.8718 -1.1016 -0.4238
  191MOL0     H25763   0.273   5.366   3.536  2.4527  0.7490 -0.6940
  191MOL0     H25764   0.212   5.337   3.690  0.3660 -0.8918 -0.5927
  191MOL0     H25765   1.316   5.257   3.301 -0.0115  2.5890 -0.8039
  191MOL0     H25766   1.500   5.173   3.463 -0.0440 -0.1606  1.0327
  191MOL0     H25767   1.688   5.154   3.917  0.5377 -2.3805 -0.7327
  191MOL0     H25768   1.896   5.093   4.026  1.0068  0.8130 -0.2667
  191MOL0     H25769   2.733   4.657   3.764 -1.0139 -1.0224 -1.4264
  191MOL0     H25770   2.562   4.508   3.864 -0.3228 -0.7882 -1.0378
  191MOL0     H25771   2.282   4.419   4.252 -1.8267 -0.1630 -1.3237
  191MOL0     H25772   2.086   4.290   4.310 -0.6308  0.2588 -1.5354
  191MOL0     H25773   1.890   4.135   4.286  1.3061 -0.2885 -3.2927
  191MOL0     H25774   1.983   4.085   4.429 -1.0274  0.5389  1.0539
  191MOL0     H25775   1.903   3.847   4.400 -1.7105 -2.0246 -1.4144
  191MOL0     H25776   1.822   3.891   4.251 -0.0231 -2.3642  1.4148
  191MOL0     H25777   1.666   4.041   4.385  1.1353  1.5611  0.8197
  191MOL0     H25778   1.757   4.004   4.530  2.4285 -2.0422 -0.3434
  191MOL0     H25779   1.615   3.800   4.341 -0.5458 -1.6395  1.2831
  191MOL0     H25780   1.705   3.760   4.493 -1.1105 -3.4655 -2.4505
  191MOL0     H25781   1.333   3.943   4.618 -0.4903  2.1922 -1.0324
  191MOL0     H25782   2.269   3.942   4.135 -2.6213 -0.1774 -0.3176
  191MOL0     H25783   2.590   4.096   4.096 -1.3728  3.7041  1.3947
  191MOL0     H25784   2.504   3.953   4.131 -0.7745  0.6479  1.9608
  191MOL0     H25785   2.483   4.019   3.965  0.8511  0.2813 -0.0881
  192MOL0     O25786   7.099   0.065  11.261  0.1141 -0.1726 -0.3627
  192MOL0     C25787   7.123   0.047  11.146 -0.1816 -0.0297  0.2878
  192MOL0     O25788   7.186  -0.064  11.092 -0.0097  0.1825 -0.1967
  192MOL0     C25789   7.261  -0.143  11.179  0.1272 -0.2130 -0.2488
  192MOL0     C25790   7.211  -0.269  11.232  0.5823  0.0757  0.1840
  192MOL0     C25791   7.302  -0.365  11.300  0.2925  0.0567  0.8571
  192MOL0     C25792   7.426  -0.321  11.332 -0.1430 -0.0561  0.1603
  192MOL0     O25793   7.507  -0.406  11.401  0.0759  0.7166 -0.4050
  192MOL0     C25794   7.617  -0.354  11.485 -0.6890 -0.3767  0.5865
  192MOL0     C25795   7.764  -0.378  11.426 -0.5132  0.1650 -0.3480
  192MOL0     C25796   7.867  -0.320  11.529  0.6453 -0.0456  0.5196
  192MOL0     C25797   8.012  -0.346  11.491  0.6944 -0.1238  0.4774
  192MOL0     C25798   8.114  -0.270  11.572  0.7801  0.1333  0.2548
  192MOL0     C25799   8.258  -0.305  11.522 -0.0051 -0.0644 -0.3838
  192MOL0     C25800   8.362  -0.262  11.628  0.0422  0.2297 -0.0755
  192MOL0     C25801   8.488  -0.342  11.603  0.5706  0.2291  1.1912
  192MOL0     N25802   8.605  -0.258  11.625 -0.5352  0.2539 -0.4059
  192MOL0     C25803   8.702  -0.296  11.708 -0.2305 -0.5591 -0.5355
  192MOL0     C25804   8.813  -0.216  11.677  0.0340  1.2311 -0.1635
  192MOL0     C25805   8.943  -0.208  11.752 -0.6927 -0.4789  0.6897
  192MOL0     C25806   9.040  -0.324  11.720  0.1561  0.5283 -0.4219
  192MOL0     C25807   9.157  -0.335  11.819  0.3498 -0.0106  0.5610
  192MOL0     C25808   9.232  -0.461  11.792  0.0414  0.1031 -0.5579
  192MOL0     O25809   9.336  -0.483  11.888 -0.3714  0.0885 -0.9483
  192MOL0     C25810   9.446  -0.406  11.884 -0.0026  0.3656  0.7320
  192MOL0     C25811   9.475  -0.299  11.799  0.1300  0.0485  0.8354
  192MOL0     C25812   9.595  -0.220  11.810 -0.5711 -0.6978 -0.3560
  192MOL0     C25813   9.692  -0.260  11.906  0.1357 -0.6779  0.1459
  192MOL0     C25814   9.814  -0.180  11.919 -0.0054 -0.0642  0.2869
  192MOL0     O25815   9.906  -0.234  11.996  0.1945  0.5870  0.0421
  192MOL0     C25816  10.026  -0.174  12.023  0.1120  0.8077  0.1874
  192MOL0     C25817  10.116  -0.121  11.936  0.0296 -0.7602 -0.0141
  192MOL0     C25818  10.251  -0.098  11.964 -0.9573 -0.2543 -0.8244
  192MOL0     C25819  10.302  -0.114  12.098 -0.5717  0.3069  0.2476
  192MOL0     O25820  10.428  -0.087  12.142 -0.5030  0.7292 -0.1524
  192MOL0     C25821  10.511  -0.015  12.048 -0.0919 -0.2803  0.2902
  192MOL0     C25822  10.572  -0.118  11.936  0.1573 -0.0637 -0.7301
  192MOL0     C25823  10.679  -0.024  11.865 -0.7144  0.1807  0.3969
  192MOL0     C25824  10.757  -0.115  11.761 -1.2976 -0.6346 -0.2806
  192MOL0     C25825  10.870  -0.030  11.695  0.4933 -0.3998  0.1396
  192MOL0     C25826  10.977  -0.108  11.613 -0.3500 -0.6441  0.1073
  192MOL0     C25827  11.070  -0.007  11.529 -0.2443 -0.1184 -0.0747
  192MOL0     C25828  11.189  -0.081  11.472  0.8586  0.2519 -0.2939
  192MOL0    Cl25829  11.292  -0.134  11.611  0.0505  0.0774 -0.0189
  192MOL0     C25830  10.209  -0.177  12.186  0.7924  0.3887 -0.4392
  192MOL0     C25831  10.080  -0.208  12.149  0.2645 -0.0052  0.0298
  192MOL0     O25832   9.831  -0.071  11.858 -0.8379 -0.0898 -0.3800
  192MOL0     C25833   9.670  -0.376  11.976  0.2119 -0.4729  0.3621
  192MOL0     C25834   9.547  -0.438  11.976  0.3230 -0.9225  0.5358
  192MOL0     N25835   8.777  -0.140  11.565 -0.0194 -0.3676  0.2956
  192MOL0     N25836   8.653  -0.171  11.531  0.4565 -0.4320  1.1279
  192MOL0     C25837   7.478  -0.207  11.259  0.5938  0.7551 -0.8054
  192MOL0     C25838   7.395  -0.122  11.188 -0.2146 -0.2476 -0.9594
  192MOL0     C25839   7.057   0.121  11.038 -0.4559 -0.4692 -0.3705
  192MOL0     C25840   7.063   0.074  10.900  0.3395 -0.4153  0.9391
  192MOL0     C25841   7.011   0.151  10.794  0.6742 -0.0917  0.4305
  192MOL0     C25842   6.930   0.262  10.818 -0.3012 -0.1957  0.0998
  192MOL0     O25843   6.882   0.330  10.711  0.0619  0.3053  0.0021
  192MOL0     C25844   6.775   0.425  10.726  0.2316 -0.1498 -0.2158
  192MOL0     C25845   6.759   0.502  10.598  0.5317 -0.8729  0.2225
  192MOL0     C25846   6.615   0.558  10.585 -0.0203  0.1650 -0.6815
  192MOL0     C25847   6.591   0.656  10.712 -0.6056 -0.0983 -0.1692
  192MOL0     C25848   6.484   0.742  10.658 -0.6987  0.0632 -0.1034
  192MOL0     C25849   6.395   0.798  10.605  0.5572  0.1092 -0.4767
  192MOL0     C25850   6.926   0.318  10.946  0.2588  0.0213 -0.2621
  192MOL0     C25851   6.986   0.243  11.064  0.0910 -0.1724  0.6189
  192MOL0     C25852   6.981   0.315  11.193  0.7200 -0.1746 -1.1504
  192MOL0     H25853   7.109  -0.286  11.199  1.8511 -2.3576 -2.9310
  192MOL0     H25854   7.266  -0.462  11.333 -3.4461  0.9235 -0.2571
  192MOL0     H25855   7.594  -0.249  11.505  1.3748  0.6903 -2.0368
  192MOL0     H25856   7.608  -0.413  11.577 -1.2740 -1.3410 -0.0708
  192MOL0     H25857   7.775  -0.351  11.321  2.6537 -2.8637 -0.9685
  192MOL0     H25858   7.779  -0.486  11.426  1.5850  0.4092 -0.9925
  192MOL0     H25859   7.840  -0.353  11.630  1.1825  2.1338  1.4309
  192MOL0     H25860   7.858  -0.212  11.538 -4.3530 -0.2180  0.2688
  192MOL0     H25861   8.025  -0.453  11.509 -0.3234 -0.8326 -2.4755
  192MOL0     H25862   8.032  -0.331  11.384  0.7519 -0.5865  0.4224
  192MOL0     H25863   8.092  -0.163  11.573  4.9571  1.1562  1.2561
  192MOL0     H25864   8.107  -0.288  11.679 -0.1293  1.2221  0.3953
  192MOL0     H25865   8.262  -0.414  11.509  4.1322 -0.0293 -0.8608
  192MOL0     H25866   8.272  -0.266  11.420 -1.9149 -1.0343 -1.0673
  192MOL0     H25867   8.310  -0.288  11.720 -0.3905 -1.2684 -0.7075
  192MOL0     H25868   8.388  -0.156  11.624  1.9187 -0.0837  2.1575
  192MOL0     H25869   8.508  -0.436  11.655  1.8118  0.5342  1.3015
  192MOL0     H25870   8.492  -0.360  11.495 -0.0379  2.2411  0.7875
  192MOL0     H25871   8.705  -0.367  11.790 -1.0014 -1.4161 -1.2257
  192MOL0     H25872   8.988  -0.116  11.715  1.4930 -1.2469  1.2235
  192MOL0     H25873   8.924  -0.203  11.860 -2.2035  2.6102  0.3801
  192MOL0     H25874   8.989  -0.420  11.727  1.4356 -0.4352 -3.1757
  192MOL0     H25875   9.085  -0.321  11.621  1.3009 -1.5659 -0.0205
  192MOL0     H25876   9.122  -0.331  11.923 -1.5809 -0.8852 -0.0194
  192MOL0     H25877   9.221  -0.247  11.802  0.3358 -0.3662 -1.6103
  192MOL0     H25878   9.266  -0.478  11.690 -1.7643 -0.0607 -1.1689
  192MOL0     H25879   9.164  -0.544  11.808 -1.3903  1.4171  0.5341
  192MOL0     H25880   9.407  -0.263  11.723 -0.5002 -2.2213  0.2500
  192MOL0     H25881   9.611  -0.127  11.755 -0.9609  0.5322  1.5022
  192MOL0     H25882  10.072  -0.110  11.837 -2.2232 -0.9768  0.8945
  192MOL0     H25883  10.313  -0.049  11.889 -1.5474  3.6399  1.0044
  192MOL0     H25884  10.464   0.073  12.003 -1.6248 -1.4831 -0.5707
  192MOL0     H25885  10.595   0.023  12.107  2.3354  1.1741 -3.7018
  192MOL0     H25886  10.620  -0.202  11.988  1.0745  0.0265 -1.4128
  192MOL0     H25887  10.494  -0.162  11.874  1.8192 -1.9755 -1.5788
  192MOL0     H25888  10.622   0.048  11.806 -4.1547 -0.6037  2.4786
  192MOL0     H25889  10.758   0.021  11.927  2.3486 -2.6499 -1.1067
  192MOL0     H25890  10.690  -0.162  11.689 -0.1945 -2.1028 -0.4059
  192MOL0     H25891  10.791  -0.203  11.816 -0.0551 -0.7846 -1.2509
  192MOL0     H25892  10.925   0.016  11.778  1.3583 -3.4020  1.3862
  192MOL0     H25893  10.816   0.039  11.630 -1.6272 -1.1896  0.9670
  192MOL0     H25894  11.036  -0.167  11.684  1.7521 -0.3554 -1.3279
  192MOL0     H25895  10.934  -0.179  11.542  0.6723  1.1234 -2.4499
  192MOL0     H25896  11.097   0.080  11.591 -0.9038  0.3390 -0.4234
  192MOL0     H25897  11.013   0.020  11.440 -1.1972  0.6236  0.7291
  192MOL0     H25898  11.154  -0.166  11.412 -2.7354  1.8694 -0.7467
  192MOL0     H25899  11.244  -0.017  11.403  1.5560 -2.1425 -2.1004
  192MOL0     H25900  10.247  -0.198  12.286  1.0862 -1.5388 -0.9201
  192MOL0     H25901  10.021  -0.269  12.217  3.8529 -4.6889 -0.4855
  192MOL0     H25902   9.754  -0.417  12.031  2.6918  0.8248 -2.2079
  192MOL0     H25903   9.536  -0.513  12.054 -1.7614 -2.2699 -0.9555
  192MOL0     H25904   7.584  -0.181  11.265  0.3425  1.6124  0.7245
  192MOL0     H25905   7.442  -0.036  11.141  1.5715  1.2363  3.1017
  192MOL0     H25906   7.125  -0.009  10.867  3.9768  3.0818 -2.1518
  192MOL0     H25907   7.031   0.125  10.691  0.2006 -2.2174  0.8244
  192MOL0     H25908   6.791   0.502  10.802  0.1543 -0.4605  0.1171
  192MOL0     H25909   6.685   0.371  10.758  0.4051 -0.0581  0.4496
  192MOL0     H25910   6.777   0.425  10.522 -1.7205 -2.8877  1.6124
  192MOL0     H25911   6.831   0.584  10.584  1.1179 -1.5750 -1.0913
  192MOL0     H25912   6.545   0.473  10.588 -1.0891  1.0371 -0.0820
  192MOL0     H25913   6.611   0.615  10.491  0.4081  3.1273  0.9797
  192MOL0     H25914   6.561   0.600  10.801 -2.4034  0.4173 -0.4089
  192MOL0     H25915   6.664   0.727  10.752 -0.7130 -0.4960  0.7623
  192MOL0     H25916   6.309   0.860  10.588  0.3920  0.6705  2.0652
  192MOL0     H25917   6.869   0.409  10.961  2.6530  2.0111 -2.3880
  192MOL0     H25918   6.913   0.254  11.252  0.1984  1.4781  0.0481
  192MOL0     H25919   7.083   0.318  11.232 -0.0013 -0.2109  0.8732
  192MOL0     H25920   6.952   0.420  11.185  1.9031  0.1333 -1.6406
  193MOL0     O25921   5.640   5.983   8.622 -0.0299  0.1494 -0.9159
  193MOL0     C25922   5.631   5.865   8.654 -1.0019 -0.5196 -1.0696
  193MOL0     O25923   5.743   5.790   8.705  0.4619  0.0474 -0.0466
  193MOL0     C25924   5.861   5.851   8.701  0.1065  0.8975  0.3911
  193MOL0     C25925   5.896   5.938   8.804 -0.1556 -0.6473  0.7859
  193MOL0     C25926   6.025   5.990   8.811  0.3204 -0.7554  0.4597
  193MOL0     C25927   6.112   5.969   8.706 -0.8062  0.1966  0.2587
  193MOL0     O25928   6.235   6.026   8.719 -0.1348 -0.0605  0.5745
  193MOL0     C25929   6.346   5.980   8.646  0.3939 -0.1735 -0.3354
  193MOL0     C25930   6.464   6.075   8.660  0.2832  0.0198 -0.9155
  193MOL0     C25931   6.593   6.014   8.599 -0.5153  0.4808  0.1216
  193MOL0     C25932   6.707   6.099   8.656 -0.7519  0.0887  0.1298
  193MOL0     C25933   6.728   6.227   8.566  0.1823  0.3504 -0.3256
  193MOL0     C25934   6.806   6.335   8.640  0.3724 -0.2951  0.0277
  193MOL0     C25935   6.940   6.294   8.692 -0.6215  0.0801  0.4025
  193MOL0     C25936   7.035   6.228   8.584  0.2094  1.2159  0.4434
  193MOL0     N25937   7.168   6.198   8.642 -0.6458  0.3330 -0.0747
  193MOL0     C25938   7.287   6.267   8.638 -0.1782 -0.1826 -0.6640
  193MOL0     C25939   7.379   6.201   8.709 -0.7664  0.2587  0.2003
  193MOL0     C25940   7.519   6.241   8.743 -0.7953 -0.3482 -0.5394
  193MOL0     C25941   7.607   6.213   8.621  0.1361  0.1740 -0.6786
  193MOL0     C25942   7.608   6.071   8.575  0.0498 -0.2650  1.1039
  193MOL0     C25943   7.711   6.050   8.463 -0.0198  0.0081 -0.3627
  193MOL0     O25944   7.849   6.073   8.495 -0.5647  0.1195  0.5225
  193MOL0     C25945   7.907   5.987   8.583 -0.1416  0.5165  0.3765
  193MOL0     C25946   7.862   5.863   8.641  0.2809 -0.5396 -0.3283
  193MOL0     C25947   7.940   5.788   8.721 -0.6314 -0.3397  0.1949
  193MOL0     C25948   8.073   5.828   8.735 -0.2595 -0.2081 -0.7451
  193MOL0     C25949   8.173   5.745   8.805 -0.8520 -0.4660 -0.2920
  193MOL0     O25950   8.123   5.646   8.887  0.4006  0.2635 -0.2189
  193MOL0     C25951   8.217   5.582   8.975  0.0447  0.2717 -0.1802
  193MOL0     C25952   8.239   5.635   9.101  0.5545  0.4823 -1.1685
  193MOL0     C25953   8.327   5.569   9.185 -0.3861  0.3449  0.4265
  193MOL0     C25954   8.390   5.451   9.157 -0.3850 -0.5348  0.4260
  193MOL0     O25955   8.471   5.379   9.246  0.1370  0.2760  0.4717
  193MOL0     C25956   8.461   5.417   9.382  0.5693  0.1189  0.4953
  193MOL0     C25957   8.529   5.296   9.456 -0.4878  0.3985 -0.3228
  193MOL0     C25958   8.455   5.166   9.426  0.3711 -0.7016 -0.0979
  193MOL0     C25959   8.544   5.055   9.484 -0.2026  0.3978  0.5998
  193MOL0     C25960   8.484   4.917   9.481 -0.2170 -0.2901  0.1400
  193MOL0     C25961   8.579   4.816   9.411 -0.0847  0.3954  0.0268
  193MOL0     C25962   8.707   4.793   9.505  0.3892 -0.8200  1.2073
  193MOL0     C25963   8.677   4.776   9.649 -0.0404  0.1234  1.0133
  193MOL0    Cl25964   8.624   4.608   9.688  0.3538 -0.0194  0.0727
  193MOL0     C25965   8.371   5.402   9.028 -0.5796  0.1441  0.8229
  193MOL0     C25966   8.278   5.462   8.946 -0.1045  0.0547  1.0923
  193MOL0     O25967   8.294   5.790   8.812  0.1926  0.7110 -0.6760
  193MOL0     C25968   8.117   5.954   8.690 -0.2259 -0.9353  0.0751
  193MOL0     C25969   8.034   6.033   8.613 -0.0584 -0.1224 -0.2168
  193MOL0     N25970   7.315   6.090   8.770  0.4063 -0.4428 -0.1734
  193MOL0     N25971   7.187   6.097   8.736 -0.0489 -0.4976  0.3079
  193MOL0     C25972   6.079   5.883   8.608 -0.0569 -0.0516 -0.7448
  193MOL0     C25973   5.947   5.833   8.599 -0.4751  0.3126 -0.3842
  193MOL0     C25974   5.512   5.789   8.646 -0.0109  0.5421  0.1403
  193MOL0     C25975   5.483   5.690   8.736 -0.0824 -0.5865 -0.6530
  193MOL0     C25976   5.373   5.601   8.716  1.1071 -0.2074  0.3359
  193MOL0     C25977   5.278   5.622   8.608 -1.2493 -0.4145 -0.4761
  193MOL0     O25978   5.179   5.532   8.607  0.4719  0.0975 -0.3880
  193MOL0     C25979   5.062   5.550   8.524  0.9327 -0.2336 -0.7366
  193MOL0     C25980   4.964   5.658   8.585 -0.4942  0.3813 -0.3728
  193MOL0     C25981   4.855   5.677   8.486  0.7045 -0.0226  0.4444
  193MOL0     C25982   4.896   5.773   8.373  0.3430  0.2233  1.0198
  193MOL0     C25983   4.957   5.904   8.406 -0.0346 -0.0527  0.7177
  193MOL0     C25984   4.999   6.022   8.418 -0.3589  0.5039 -1.1605
  193MOL0     C25985   5.297   5.729   8.520  0.3349 -0.0034 -0.2224
  193MOL0     C25986   5.416   5.805   8.533  1.0118  0.2229 -0.4096
  193MOL0     C25987   5.437   5.906   8.414 -0.4109 -0.7301  0.1314
  193MOL0     H25988   5.812   5.959   8.870 -0.8886 -0.9080 -0.0470
  193MOL0     H25989   6.041   6.066   8.888  0.2200  0.2663 -0.5006
  193MOL0     H25990   6.385   5.881   8.675  1.3762  0.0285 -0.9243
  193MOL0     H25991   6.332   5.975   8.538  1.4514 -2.0353 -0.4344
  193MOL0     H25992   6.466   6.104   8.766 -2.1588  0.5076 -0.9449
  193MOL0     H25993   6.434   6.172   8.619  3.0027  0.1430 -2.8937
  193MOL0     H25994   6.583   6.024   8.491  1.8169 -3.6118 -0.6680
  193MOL0     H25995   6.593   5.909   8.628 -2.0467  0.1087 -1.1361
  193MOL0     H25996   6.687   6.116   8.762  1.7507  3.0320  0.2523
  193MOL0     H25997   6.797   6.037   8.656 -1.3721 -0.8612  1.0754
  193MOL0     H25998   6.775   6.196   8.473  1.1480  1.6876 -0.3118
  193MOL0     H25999   6.630   6.271   8.544 -0.8928 -0.5969  2.0987
  193MOL0     H26000   6.819   6.413   8.565  2.0157 -0.5656 -0.0005
  193MOL0     H26001   6.742   6.376   8.719  1.2449 -0.9267  1.0886
  193MOL0     H26002   6.932   6.226   8.777  0.2410  1.6270  1.8097
  193MOL0     H26003   6.983   6.389   8.727 -1.5098 -0.7260  4.0838
  193MOL0     H26004   6.990   6.133   8.552 -2.7297  2.8683 -0.6372
  193MOL0     H26005   7.038   6.284   8.490 -0.6264 -0.8159 -0.8680
  193MOL0     H26006   7.303   6.359   8.583 -1.7782 -2.2455 -5.0222
  193MOL0     H26007   7.522   6.346   8.774  0.7408 -0.2505 -0.9399
  193MOL0     H26008   7.550   6.198   8.839 -0.3507 -1.5018 -1.1762
  193MOL0     H26009   7.579   6.280   8.539 -3.0895 -2.0885 -1.6007
  193MOL0     H26010   7.708   6.228   8.660  0.1706  0.3870 -0.8448
  193MOL0     H26011   7.510   6.036   8.543  0.0072  0.0394  0.9030
  193MOL0     H26012   7.640   6.009   8.659 -0.1694 -1.0051  0.6469
  193MOL0     H26013   7.679   6.121   8.385 -3.3682 -1.9060 -0.8965
  193MOL0     H26014   7.696   5.953   8.416  0.6700 -0.1370 -0.2860
  193MOL0     H26015   7.759   5.831   8.629  0.1599 -1.4530  2.4255
  193MOL0     H26016   7.899   5.692   8.749  1.9396 -1.5540  0.0991
  193MOL0     H26017   8.184   5.720   9.138  0.6270 -0.9168  2.5482
  193MOL0     H26018   8.354   5.616   9.279 -0.5255 -0.2212  0.7550
  193MOL0     H26019   8.503   5.514   9.411 -1.3162  1.3585 -0.6481
  193MOL0     H26020   8.360   5.428   9.423 -0.0541 -0.6098 -0.7838
  193MOL0     H26021   8.628   5.281   9.412 -1.7073 -1.9077 -2.5684
  193MOL0     H26022   8.544   5.315   9.563  0.5371 -1.0087 -0.1791
  193MOL0     H26023   8.357   5.169   9.474  0.2216 -0.1425 -0.4331
  193MOL0     H26024   8.439   5.153   9.319 -0.0355  0.7036 -0.2289
  193MOL0     H26025   8.556   5.074   9.591  1.7467 -4.1554  1.4299
  193MOL0     H26026   8.641   5.056   9.433 -0.6970 -1.5295 -0.4712
  193MOL0     H26027   8.400   4.915   9.411 -0.2184 -0.0032  0.1313
  193MOL0     H26028   8.441   4.894   9.579 -1.1682  1.7990  0.2767
  193MOL0     H26029   8.527   4.720   9.411 -1.1531  0.8125  4.1039
  193MOL0     H26030   8.606   4.838   9.307 -0.7148  0.5264 -0.1116
  193MOL0     H26031   8.767   4.884   9.494 -0.7878 -0.2929 -2.2703
  193MOL0     H26032   8.769   4.714   9.460  0.8937 -0.6085  1.5235
  193MOL0     H26033   8.773   4.781   9.701 -0.3192  0.3106  1.5222
  193MOL0     H26034   8.605   4.846   9.693  0.0204 -0.2042  1.6542
  193MOL0     H26035   8.429   5.319   8.990  0.6426  0.6298  1.5753
  193MOL0     H26036   8.253   5.415   8.851  2.0469 -0.2724  0.6338
  193MOL0     H26037   8.220   5.984   8.710 -0.5751 -0.6031  1.4885
  193MOL0     H26038   8.071   6.126   8.570  2.2434 -0.2550  1.2780
  193MOL0     H26039   6.156   5.861   8.535 -0.1758 -2.3537 -0.2585
  193MOL0     H26040   5.905   5.772   8.520 -1.9124  0.8027 -0.0239
  193MOL0     H26041   5.554   5.683   8.818  0.8924  2.5442 -1.0768
  193MOL0     H26042   5.375   5.515   8.783  1.8694 -0.4060  0.0618
  193MOL0     H26043   5.012   5.453   8.525  1.7604 -0.8380  3.8161
  193MOL0     H26044   5.091   5.578   8.422  0.1343  0.5502 -0.7653
  193MOL0     H26045   5.033   5.741   8.600  1.7301 -1.1539 -1.4888
  193MOL0     H26046   4.922   5.636   8.683  1.4135  1.6344  0.7818
  193MOL0     H26047   4.778   5.734   8.539  0.2975 -1.8124  1.8690
  193MOL0     H26048   4.805   5.585   8.453 -0.5662 -0.0354  2.2951
  193MOL0     H26049   4.956   5.720   8.298 -0.3144  2.6854 -1.4439
  193MOL0     H26050   4.805   5.789   8.314  0.9905 -0.3562 -0.1843
  193MOL0     H26051   5.050   6.116   8.419  0.5653  0.0210 -1.7259
  193MOL0     H26052   5.236   5.766   8.438  3.4299  2.3374 -1.6410
  193MOL0     H26053   5.540   5.942   8.401  0.1347 -2.7604 -1.7590
  193MOL0     H26054   5.410   5.863   8.317 -2.2869 -1.8590  1.1037
  193MOL0     H26055   5.369   5.990   8.432 -2.3425 -1.1912 -3.9233
  194MOL0     O26056   0.981   0.425   8.380 -0.3446 -0.0929 -0.5548
  194MOL0     C26057   0.980   0.419   8.256  0.3791 -0.6303 -1.0109
  194MOL0     O26058   1.093   0.446   8.175 -0.2866 -0.1048 -0.7313
  194MOL0     C26059   1.222   0.442   8.226  0.4545  0.5411  1.1021
  194MOL0     C26060   1.308   0.544   8.167  0.2922  0.5313  0.6561
  194MOL0     C26061   1.438   0.578   8.215  1.0015  0.6574  0.5175
  194MOL0     C26062   1.486   0.500   8.322  0.5394  0.1098 -0.2956
  194MOL0     O26063   1.601   0.543   8.385 -0.2617  0.0498 -1.1304
  194MOL0     C26064   1.668   0.460   8.485  0.6528  0.1726 -0.3812
  194MOL0     C26065   1.809   0.503   8.521 -0.4876  0.7377  0.2085
  194MOL0     C26066   1.909   0.454   8.410  0.8061  0.3148 -0.1872
  194MOL0     C26067   2.040   0.523   8.415  0.0063  0.0280 -0.8258
  194MOL0     C26068   2.113   0.469   8.540  0.2945  0.4964  0.0077
  194MOL0     C26069   2.230   0.563   8.567  0.2995  0.1738  0.1810
  194MOL0     C26070   2.272   0.540   8.709 -0.9370  0.1911 -1.0317
  194MOL0     C26071   2.342   0.410   8.727 -0.7724  0.3626  0.2911
  194MOL0     N26072   2.475   0.424   8.663  0.1921  0.5948  0.0154
  194MOL0     C26073   2.564   0.528   8.653 -0.3100 -0.0383 -0.2857
  194MOL0     C26074   2.675   0.479   8.603  0.3144  0.2041  0.5641
  194MOL0     C26075   2.802   0.566   8.584 -0.3516  0.4806 -0.2074
  194MOL0     C26076   2.933   0.496   8.621  0.0449  0.1590  0.5565
  194MOL0     C26077   2.994   0.384   8.530  1.2469 -0.6130 -0.0066
  194MOL0     C26078   3.043   0.449   8.401 -0.5910  0.0547  0.6244
  194MOL0     O26079   3.104   0.345   8.310  0.6808 -0.4774  0.5305
  194MOL0     C26080   3.241   0.335   8.312  0.7179 -0.9761 -0.1873
  194MOL0     C26081   3.330   0.444   8.311  0.0410  0.2340  0.1084
  194MOL0     C26082   3.468   0.419   8.354 -0.1619 -0.1496  0.2054
  194MOL0     C26083   3.517   0.293   8.380 -0.2096  0.1841  0.1712
  194MOL0     C26084   3.667   0.275   8.409 -0.5223 -0.5428  0.0474
  194MOL0     O26085   3.734   0.389   8.451 -0.1186 -0.0025  0.2764
  194MOL0     C26086   3.868   0.396   8.479 -0.0743 -0.2602  0.2654
  194MOL0     C26087   3.911   0.471   8.588 -0.5953 -0.0385  0.7469
  194MOL0     C26088   4.044   0.471   8.612 -0.3870 -1.2665 -0.0480
  194MOL0     C26089   4.139   0.409   8.531 -0.3188  0.6677 -0.8373
  194MOL0     O26090   4.274   0.406   8.577  0.2918  0.5176 -1.0187
  194MOL0     C26091   4.369   0.485   8.493  0.0890  0.0219 -0.6492
  194MOL0     C26092   4.478   0.526   8.590  0.1423  0.3103  0.8358
  194MOL0     C26093   4.586   0.610   8.506  0.4807 -0.7797 -0.6696
  194MOL0     C26094   4.699   0.639   8.603  0.0705  0.4145  0.0919
  194MOL0     C26095   4.801   0.723   8.540 -0.0695 -0.0787  0.3152
  194MOL0     C26096   4.913   0.748   8.641  0.2556  0.2227 -0.2797
  194MOL0     C26097   5.022   0.846   8.597  0.5310  0.1512  0.0646
  194MOL0     C26098   5.086   0.801   8.465  0.3913  0.9711  0.0870
  194MOL0    Cl26099   5.211   0.908   8.407  0.0568 -0.8028 -0.0145
  194MOL0     C26100   4.095   0.342   8.418 -0.0611 -0.1694 -0.6335
  194MOL0     C26101   3.958   0.341   8.391  0.4745 -0.0566 -0.0467
  194MOL0     O26102   3.715   0.167   8.392  1.0218  0.0782 -0.1544
  194MOL0     C26103   3.428   0.183   8.360  0.0615  0.3691  0.6565
  194MOL0     C26104   3.290   0.205   8.327  0.2441  0.4711 -0.6341
  194MOL0     N26105   2.660   0.341   8.574  0.0417 -0.5669 -0.6316
  194MOL0     N26106   2.544   0.319   8.613  0.3348 -0.0570  0.3446
  194MOL0     C26107   1.404   0.393   8.368  0.0524  0.1350 -0.5735
  194MOL0     C26108   1.278   0.361   8.326  0.2269  0.4904 -0.7116
  194MOL0     C26109   0.864   0.372   8.173 -1.0326 -1.4420  0.2715
  194MOL0     C26110   0.889   0.343   8.034  0.6689 -0.2721 -0.0753
  194MOL0     C26111   0.789   0.286   7.952  0.2574  1.0109 -0.0705
  194MOL0     C26112   0.662   0.250   7.999 -0.9176  0.1546  0.3801
  194MOL0     O26113   0.572   0.183   7.914  0.0204 -0.3498  0.3612
  194MOL0     C26114   0.434   0.192   7.952  0.4582 -0.0960  0.7558
  194MOL0     C26115   0.377   0.332   7.927  0.0535 -0.2386 -0.4229
  194MOL0     C26116   0.234   0.331   7.975 -0.1332  0.4494  0.7567
  194MOL0     C26117   0.166   0.470   7.972  0.7080  0.0160  0.6903
  194MOL0     C26118   0.023   0.457   7.990 -0.5565 -0.1840 -0.3711
  194MOL0     C26119  -0.098   0.450   8.019 -0.0322  0.2209 -0.0791
  194MOL0     C26120   0.642   0.280   8.128  0.5003  0.7127  1.1757
  194MOL0     C26121   0.732   0.340   8.218  0.1804 -0.3924  0.5888
  194MOL0     C26122   0.691   0.375   8.356  0.3889  0.3831  0.0039
  194MOL0     H26123   1.275   0.610   8.087 -3.1120  0.1646  1.5872
  194MOL0     H26124   1.499   0.657   8.173  1.2992  1.1693  1.8492
  194MOL0     H26125   1.600   0.462   8.571 -2.4507  2.4903 -2.6356
  194MOL0     H26126   1.667   0.358   8.447  2.0182  0.3808 -1.0250
  194MOL0     H26127   1.835   0.453   8.615  5.8580 -0.3419 -1.6568
  194MOL0     H26128   1.822   0.612   8.527  4.8667  0.6108 -3.0305
  194MOL0     H26129   1.853   0.474   8.318  0.8189 -2.8966 -1.0198
  194MOL0     H26130   1.918   0.345   8.423 -0.9461  0.2726  1.0159
  194MOL0     H26131   2.101   0.503   8.327 -0.0428  0.3927 -0.9431
  194MOL0     H26132   2.044   0.632   8.419 -0.1710  0.0086  0.1058
  194MOL0     H26133   2.039   0.481   8.620  0.4008 -1.0140  0.3582
  194MOL0     H26134   2.140   0.368   8.509  0.6154  1.3616 -2.8324
  194MOL0     H26135   2.301   0.544   8.486 -3.7908 -1.4923 -3.3879
  194MOL0     H26136   2.215   0.671   8.558  0.4256  0.5776  3.6006
  194MOL0     H26137   2.183   0.536   8.773 -0.4478 -1.3688 -0.3997
  194MOL0     H26138   2.332   0.621   8.752  0.9104 -0.9894 -1.2705
  194MOL0     H26139   2.354   0.393   8.834  0.1260  0.3839  0.2086
  194MOL0     H26140   2.282   0.329   8.684 -0.4478  0.6046 -0.6599
  194MOL0     H26141   2.554   0.628   8.694 -1.8805  0.0366 -0.7614
  194MOL0     H26142   2.793   0.591   8.478  1.6975 -1.5239 -0.9264
  194MOL0     H26143   2.798   0.661   8.640  0.0182  0.8127 -0.7350
  194MOL0     H26144   3.002   0.579   8.639  0.0858  0.4295 -0.7697
  194MOL0     H26145   2.918   0.449   8.719  0.4452 -1.4113 -0.1052
  194MOL0     H26146   2.910   0.315   8.518 -1.2670  2.3246 -0.5612
  194MOL0     H26147   3.075   0.330   8.579 -0.0536 -1.5851  1.1920
  194MOL0     H26148   3.122   0.516   8.435  2.3226 -2.4611 -0.6681
  194MOL0     H26149   2.968   0.506   8.346  0.6254  2.2700  1.1403
  194MOL0     H26150   3.302   0.540   8.270  1.8071  0.1089 -1.5349
  194MOL0     H26151   3.547   0.493   8.357 -0.1425 -0.1687  0.1692
  194MOL0     H26152   3.846   0.511   8.665 -0.3851  4.7957 -1.2090
  194MOL0     H26153   4.067   0.516   8.708 -0.9605 -1.5890  0.2469
  194MOL0     H26154   4.403   0.416   8.416 -2.7818 -2.4443  0.0983
  194MOL0     H26155   4.307   0.564   8.450 -1.7606 -1.2599 -0.4465
  194MOL0     H26156   4.434   0.586   8.671 -0.8792  0.6896  0.0379
  194MOL0     H26157   4.526   0.435   8.624 -1.4234 -0.3055  1.5162
  194MOL0     H26158   4.618   0.559   8.415  3.9724  0.9436 -0.5777
  194MOL0     H26159   4.540   0.699   8.461  1.6255 -0.3633 -1.0716
  194MOL0     H26160   4.760   0.553   8.633  1.8747  1.2265 -1.1310
  194MOL0     H26161   4.656   0.671   8.699  3.2224 -0.1810  1.8277
  194MOL0     H26162   4.756   0.813   8.497  2.3289  0.9277 -0.2177
  194MOL0     H26163   4.844   0.669   8.455  0.8720 -1.6797  1.7430
  194MOL0     H26164   4.870   0.806   8.724  1.6885  2.9737 -1.3444
  194MOL0     H26165   4.962   0.666   8.694 -0.8008  0.2162  0.7284
  194MOL0     H26166   5.095   0.852   8.678 -1.3252  0.4796  1.8182
  194MOL0     H26167   4.980   0.947   8.597 -0.0867 -0.0947 -0.6339
  194MOL0     H26168   5.126   0.703   8.489  2.5676  1.5147 -1.0461
  194MOL0     H26169   5.007   0.805   8.389  1.1417  2.5662 -0.6739
  194MOL0     H26170   4.167   0.298   8.349 -0.2723  1.1656 -1.7413
  194MOL0     H26171   3.921   0.299   8.298 -1.7331 -0.6978  1.0445
  194MOL0     H26172   3.478   0.088   8.374 -0.9575  0.1469  3.1671
  194MOL0     H26173   3.224   0.119   8.321  0.8501 -0.3140  2.4875
  194MOL0     H26174   1.449   0.322   8.437  1.1371  0.0505 -1.3291
  194MOL0     H26175   1.221   0.286   8.380  0.7709  0.3387 -0.3342
  194MOL0     H26176   0.980   0.366   7.981  1.0877 -3.1885 -0.7580
  194MOL0     H26177   0.826   0.269   7.852  0.3346  0.5461  0.0356
  194MOL0     H26178   0.421   0.162   8.056  0.0775  1.4603  1.1816
  194MOL0     H26179   0.374   0.128   7.886 -0.5012  1.7561 -0.2747
  194MOL0     H26180   0.388   0.350   7.820 -0.0132 -0.7753 -0.5215
  194MOL0     H26181   0.434   0.412   7.976  0.3999  1.0212 -2.7528
  194MOL0     H26182   0.235   0.290   8.076 -3.9835  0.4319  0.9538
  194MOL0     H26183   0.182   0.259   7.911 -1.2733  3.1519 -1.5915
  194MOL0     H26184   0.219   0.534   8.043 -2.4693  2.7714  0.8274
  194MOL0     H26185   0.187   0.506   7.871  1.9004 -0.8104  0.6167
  194MOL0     H26186  -0.203   0.444   8.036  0.0897 -0.6804  0.4339
  194MOL0     H26187   0.540   0.272   8.164  0.1603  0.0436  0.0919
  194MOL0     H26188   0.586   0.359   8.381 -0.5514  1.7771 -2.5974
  194MOL0     H26189   0.748   0.309   8.422  0.8765 -0.0239 -0.8140
  194MOL0     H26190   0.710   0.482   8.370 -0.3776  0.8207 -1.9703
  195MOL0     O26191  10.299   1.639   3.142 -0.2335  0.2847 -0.2158
  195MOL0     C26192  10.294   1.580   3.034  0.0722  0.0700  0.0306
  195MOL0     O26193  10.381   1.476   2.999  0.2816 -0.6892 -0.1181
  195MOL0     C26194  10.472   1.421   3.078  0.4588  0.6157 -0.6281
  195MOL0     C26195  10.438   1.397   3.213  0.1216  1.1361  0.2143
  195MOL0     C26196  10.524   1.323   3.295  0.0154  0.4013  0.6520
  195MOL0     C26197  10.640   1.264   3.240 -0.3304 -0.2789  0.4278
  195MOL0     O26198  10.716   1.186   3.328 -0.4022 -0.2610 -0.2682
  195MOL0     C26199  10.845   1.131   3.295  0.8799 -0.4507 -0.0743
  195MOL0     C26200  10.892   1.046   3.405  0.3440 -0.6108  0.3667
  195MOL0     C26201  11.039   1.000   3.382  0.2722 -0.6042 -0.1291
  195MOL0     C26202  11.103   0.937   3.507 -0.0078 -0.5778 -0.1174
  195MOL0     C26203  11.251   0.928   3.485 -0.0882  0.8833 -0.1587
  195MOL0     C26204  11.336   0.904   3.610 -0.5408  0.4441 -1.2778
  195MOL0     C26205  11.487   0.940   3.588  0.5993 -0.4435 -0.0525
  195MOL0     C26206  11.570   0.831   3.510 -0.1598 -0.9355  0.3828
  195MOL0     N26207  11.606   0.713   3.596 -0.1889 -0.3682 -0.4308
  195MOL0     C26208  11.711   0.722   3.678 -0.3995  0.1204 -0.1077
  195MOL0     C26209  11.709   0.622   3.766 -1.2800  0.2543 -0.0733
  195MOL0     C26210  11.828   0.574   3.851  0.0342  0.0108  0.1990
  195MOL0     C26211  11.961   0.634   3.818 -0.9065 -0.5590 -1.1815
  195MOL0     C26212  12.060   0.591   3.919 -0.6895  0.4921  0.4677
  195MOL0     C26213  12.196   0.617   3.871  0.3154  0.8833  0.1581
  195MOL0     O26214  12.291   0.557   3.963  0.4412  0.0611  0.4305
  195MOL0     C26215  12.421   0.563   3.954  0.0054  0.6872  0.5098
  195MOL0     C26216  12.498   0.453   3.995  0.3246 -0.0876 -0.5601
  195MOL0     C26217  12.637   0.461   3.991 -0.1733  0.6454 -0.0412
  195MOL0     C26218  12.707   0.566   3.929 -0.5351 -0.2018  0.5420
  195MOL0     C26219  12.859   0.561   3.913  0.4829  0.3729  0.6571
  195MOL0     O26220  12.913   0.436   3.905  0.3724 -1.1969 -1.0847
  195MOL0     C26221  13.048   0.432   3.916 -0.2609 -0.1732  0.2104
  195MOL0     C26222  13.126   0.416   3.807 -0.5257  0.4940  0.2820
  195MOL0     C26223  13.265   0.405   3.825  0.1520  0.5610  0.0931
  195MOL0     C26224  13.319   0.394   3.955  0.1485 -0.2671  0.1772
  195MOL0     O26225  13.458   0.371   3.976 -0.3194 -0.1359 -0.1823
  195MOL0     C26226  13.509   0.383   4.108 -0.6424 -0.3571  0.1343
  195MOL0     C26227  13.661   0.400   4.105  0.0769 -0.6969  1.1819
  195MOL0     C26228  13.708   0.538   4.054  0.0730  0.7205 -1.2711
  195MOL0     C26229  13.862   0.521   4.020  0.0980 -0.4050 -0.8412
  195MOL0     C26230  13.948   0.653   4.010  0.0333 -0.0264  0.0309
  195MOL0     C26231  14.084   0.622   3.935 -1.7509  0.2342 -1.0653
  195MOL0     C26232  14.198   0.548   4.015  0.3902 -0.0052  0.3258
  195MOL0     C26233  14.336   0.559   3.950  0.3862 -0.3663 -0.3384
  195MOL0    Cl26234  14.330   0.508   3.776 -0.0961  0.3466  0.1195
  195MOL0     C26235  13.232   0.412   4.061  0.3450 -0.9869 -1.0897
  195MOL0     C26236  13.095   0.437   4.047 -0.0798  0.1338 -0.9323
  195MOL0     O26237  12.924   0.665   3.901 -0.1750  0.2306 -0.4356
  195MOL0     C26238  12.629   0.661   3.877  0.3581 -0.7915 -0.3856
  195MOL0     C26239  12.486   0.669   3.882 -1.1864 -0.4367 -1.2610
  195MOL0     N26240  11.594   0.550   3.735 -0.2516  0.0514 -0.2048
  195MOL0     N26241  11.530   0.606   3.633  0.5446 -0.4789 -0.1538
  195MOL0     C26242  10.668   1.293   3.103  0.4405  0.4129 -0.4560
  195MOL0     C26243  10.586   1.366   3.023  0.3953 -0.2590 -0.1708
  195MOL0     C26244  10.165   1.592   2.954 -0.6660 -0.2303 -0.8451
  195MOL0     C26245  10.148   1.508   2.843  0.3251 -0.8430 -0.1902
  195MOL0     C26246  10.032   1.514   2.772  0.4387 -0.0321 -0.0183
  195MOL0     C26247   9.939   1.618   2.788 -0.6051  0.1100 -0.3971
  195MOL0     O26248   9.829   1.609   2.718 -0.3165 -0.5014  0.2138
  195MOL0     C26249   9.808   1.723   2.628 -0.1666  0.1509  0.0163
  195MOL0     C26250   9.901   1.729   2.511 -0.8686  0.0374 -0.2562
  195MOL0     C26251   9.887   1.602   2.426 -0.0913 -0.4522  0.5000
  195MOL0     C26252  10.006   1.597   2.328 -0.5620  1.1953  0.8154
  195MOL0     C26253   9.956   1.510   2.218 -0.5048  0.0905 -0.8721
  195MOL0     C26254   9.901   1.454   2.134 -0.3412 -0.2209  0.9214
  195MOL0     C26255   9.951   1.697   2.899 -0.5575  0.3665  0.7427
  195MOL0     C26256  10.068   1.695   2.978  0.0566  0.2239  0.0734
  195MOL0     C26257  10.064   1.802   3.094 -0.4547 -0.1436  0.4170
  195MOL0     H26258  10.346   1.435   3.256 -0.3154  2.5291 -1.8314
  195MOL0     H26259  10.507   1.302   3.400 -0.8305  0.6638  0.5750
  195MOL0     H26260  10.849   1.075   3.201  0.4927  0.3363 -0.5732
  195MOL0     H26261  10.899   1.223   3.273 -0.2892  1.4019  3.9365
  195MOL0     H26262  10.820   0.965   3.421  1.8501 -1.5266  3.2384
  195MOL0     H26263  10.891   1.102   3.499  1.6305 -0.3653  0.2504
  195MOL0     H26264  11.091   1.092   3.353  1.4518 -0.6444  1.7546
  195MOL0     H26265  11.056   0.933   3.297  0.6142  0.8538 -1.2647
  195MOL0     H26266  11.082   1.007   3.588 -0.3937  0.1428 -0.8297
  195MOL0     H26267  11.056   0.841   3.533  1.3667 -0.8616  1.4798
  195MOL0     H26268  11.269   0.855   3.405 -2.5622  1.0386 -0.9467
  195MOL0     H26269  11.271   1.028   3.446 -1.5314  1.4118  0.4062
  195MOL0     H26270  11.295   0.974   3.684 -1.6408 -1.3623 -0.1105
  195MOL0     H26271  11.328   0.797   3.631 -0.6197  0.8028  0.6876
  195MOL0     H26272  11.534   0.957   3.685 -1.2741  1.0960  0.6684
  195MOL0     H26273  11.489   1.035   3.532 -0.6744 -2.5165 -3.9814
  195MOL0     H26274  11.512   0.795   3.425  0.3921 -1.1796  0.1072
  195MOL0     H26275  11.657   0.883   3.468 -1.4741  0.9318 -0.1874
  195MOL0     H26276  11.784   0.803   3.675  1.2682 -1.3406 -1.7509
  195MOL0     H26277  11.822   0.577   3.960 -0.1827 -2.0822  0.2769
  195MOL0     H26278  11.829   0.467   3.831  0.1415 -0.1514  1.0450
  195MOL0     H26279  11.991   0.602   3.718  2.2328  0.8695 -0.7935
  195MOL0     H26280  11.965   0.743   3.818  2.4623 -0.5009  2.1815
  195MOL0     H26281  12.048   0.483   3.931 -1.5559  0.4012 -0.9703
  195MOL0     H26282  12.054   0.630   4.021 -0.7797 -0.0941  0.6896
  195MOL0     H26283  12.233   0.719   3.856  1.2646  0.1435 -3.4076
  195MOL0     H26284  12.208   0.571   3.772 -0.6539  0.9641 -0.0025
  195MOL0     H26285  12.452   0.368   4.045  0.6991 -2.1360 -3.4351
  195MOL0     H26286  12.684   0.372   4.034 -1.6685  0.4460  1.2499
  195MOL0     H26287  13.089   0.411   3.705  0.3064 -2.1794  0.0176
  195MOL0     H26288  13.322   0.383   3.735 -0.6420  0.0146 -0.2941
  195MOL0     H26289  13.465   0.467   4.162  2.6954  1.6504  0.0623
  195MOL0     H26290  13.498   0.294   4.170  0.0372 -0.6756 -0.1851
  195MOL0     H26291  13.689   0.401   4.211  0.2798  1.4729  1.1427
  195MOL0     H26292  13.704   0.324   4.040 -2.2999  0.5336 -2.0841
  195MOL0     H26293  13.661   0.563   3.959 -0.0241  1.1447 -1.1146
  195MOL0     H26294  13.695   0.626   4.118  0.1134  0.7615 -1.3195
  195MOL0     H26295  13.859   0.462   3.928  1.7995 -1.0970 -0.4848
  195MOL0     H26296  13.909   0.456   4.094  2.1405 -0.6741 -2.3054
  195MOL0     H26297  13.964   0.703   4.106 -3.8553  1.3756  0.1250
  195MOL0     H26298  13.893   0.727   3.951  0.0483  1.4475  1.7917
  195MOL0     H26299  14.062   0.563   3.845 -0.8681 -0.8638 -0.5788
  195MOL0     H26300  14.121   0.720   3.900  3.9338 -1.3123 -0.4682
  195MOL0     H26301  14.172   0.443   4.032  0.8447 -0.0576  0.7209
  195MOL0     H26302  14.199   0.584   4.119  0.1263 -1.3759  0.8279
  195MOL0     H26303  14.377   0.660   3.956 -5.2875  2.4056 -0.7986
  195MOL0     H26304  14.399   0.491   4.007 -0.5801  1.1598  2.7795
  195MOL0     H26305  13.270   0.402   4.162  3.6442 -0.7656 -2.1828
  195MOL0     H26306  13.032   0.434   4.135  3.7121 -2.0705  2.0502
  195MOL0     H26307  12.673   0.740   3.818  1.1721 -0.7502  0.2654
  195MOL0     H26308  12.429   0.754   3.849  0.5904  1.1013 -0.5451
  195MOL0     H26309  10.762   1.255   3.064  0.1294 -0.7882 -0.0599
  195MOL0     H26310  10.599   1.384   2.916  1.6780  1.6678  0.2509
  195MOL0     H26311  10.227   1.443   2.809  0.1562 -0.2399 -1.8066
  195MOL0     H26312  10.009   1.441   2.694 -0.4024  0.4423 -0.2327
  195MOL0     H26313   9.840   1.816   2.676  0.2741  0.9730 -1.7843
  195MOL0     H26314   9.701   1.725   2.606  0.0040 -0.2043 -0.8968
  195MOL0     H26315  10.004   1.744   2.544 -0.4394  3.1258 -2.5845
  195MOL0     H26316   9.883   1.823   2.458  2.0627  1.6931  1.3836
  195MOL0     H26317   9.789   1.610   2.379 -0.0731  0.8205  0.6657
  195MOL0     H26318   9.892   1.510   2.485  2.0153 -1.6765 -1.4161
  195MOL0     H26319  10.039   1.694   2.289 -1.7059  1.0763 -0.5215
  195MOL0     H26320  10.089   1.542   2.373 -3.5016 -2.8730  1.7687
  195MOL0     H26321   9.856   1.395   2.057  2.5034 -1.4528  0.0771
  195MOL0     H26322   9.869   1.762   2.926 -0.5735 -0.1976  2.0984
  195MOL0     H26323  10.027   1.898   3.055 -2.2809 -0.0849  2.1305
  195MOL0     H26324   9.989   1.761   3.162  1.1489 -4.6519 -0.2508
  195MOL0     H26325  10.159   1.830   3.139 -0.8442 -0.4993  1.4790
  196MOL0     O26326   2.741  11.111   9.886  0.0607  0.0070 -0.2824
  196MOL0     C26327   2.658  11.139   9.973  0.3960 -0.3263  0.5433
  196MOL0     O26328   2.676  11.237  10.059 -0.1699  0.5275  0.3953
  196MOL0     C26329   2.798  11.214  10.125  0.2102 -0.4668  0.6303
  196MOL0     C26330   2.911  11.257  10.075 -0.4454  0.2997  0.4595
  196MOL0     C26331   3.039  11.245  10.154  0.5799  0.6573  0.1570
  196MOL0     C26332   3.032  11.186  10.283  0.8325 -0.7574 -0.1941
  196MOL0     O26333   3.141  11.190  10.360  0.6009  0.3123 -0.2618
  196MOL0     C26334   3.273  11.209  10.308  0.6962 -0.5817 -0.1411
  196MOL0     C26335   3.365  11.191  10.422  0.0602 -0.4233 -0.8055
  196MOL0     C26336   3.506  11.240  10.389 -0.4145 -0.0711 -0.6649
  196MOL0     C26337   3.594  11.267  10.507  0.4525  0.3330  0.2660
  196MOL0     C26338   3.727  11.330  10.486 -0.0591  0.5720  0.2691
  196MOL0     C26339   3.815  11.260  10.382  0.5928  0.2542 -0.0054
  196MOL0     C26340   3.876  11.122  10.426 -0.1777  0.2501 -0.5632
  196MOL0     C26341   3.989  11.131  10.532 -0.5959  1.0719  0.6832
  196MOL0     N26342   4.125  11.127  10.467 -0.4411 -0.3892 -0.0601
  196MOL0     C26343   4.184  11.226  10.402  0.0822 -0.9922 -0.8827
  196MOL0     C26344   4.295  11.166  10.365 -0.3113 -0.4277  0.0932
  196MOL0     C26345   4.404  11.251  10.303 -0.0111  0.5822  0.6342
  196MOL0     C26346   4.491  11.166  10.207 -1.0342 -0.4989  0.3403
  196MOL0     C26347   4.590  11.262  10.143 -0.7408 -0.6858 -0.0093
  196MOL0     C26348   4.704  11.174  10.074 -0.3887 -0.0778 -0.6656
  196MOL0     O26349   4.814  11.262  10.072 -0.5035 -0.2346  0.1628
  196MOL0     C26350   4.917  11.248   9.980 -0.0328  0.2189  0.6051
  196MOL0     C26351   4.960  11.127   9.928  0.5727 -0.5527 -0.1180
  196MOL0     C26352   5.034  11.128   9.811  0.3409  0.5973 -0.9575
  196MOL0     C26353   5.064  11.246   9.748 -0.2215  0.5058  0.0140
  196MOL0     C26354   5.143  11.235   9.631  0.4652 -1.4980 -0.2068
  196MOL0     O26355   5.151  11.111   9.579  0.4453  0.4347  0.1968
  196MOL0     C26356   5.238  11.092   9.478  0.3859 -0.1039 -0.0716
  196MOL0     C26357   5.186  11.092   9.348 -0.4019 -0.2842 -1.0493
  196MOL0     C26358   5.274  11.072   9.244 -0.8530 -0.3685  0.1477
  196MOL0     C26359   5.419  11.054   9.271  0.6470  0.5413  0.0503
  196MOL0     O26360   5.501  11.041   9.166  0.0215 -0.2329  0.4843
  196MOL0     C26361   5.637  11.095   9.182 -1.0460  0.0472  0.5793
  196MOL0     C26362   5.707  11.007   9.088 -0.0588  0.0725  0.6659
  196MOL0     C26363   5.856  11.038   9.107  0.2882 -0.4086  0.0681
  196MOL0     C26364   5.946  10.966   9.003  0.5335  0.6826  0.3336
  196MOL0     C26365   6.101  10.985   9.015 -0.6788 -0.0795  0.7644
  196MOL0     C26366   6.179  10.884   8.921  0.6368  0.2209  0.3759
  196MOL0     C26367   6.319  10.870   8.964  0.7965 -0.2148 -0.9928
  196MOL0     C26368   6.403  10.998   8.935  0.4113  0.5538 -0.8954
  196MOL0    Cl26369   6.582  10.980   8.973  0.2886  0.2500 -0.0332
  196MOL0     C26370   5.458  11.028   9.410  0.0244  0.0019  0.4693
  196MOL0     C26371   5.368  11.051   9.510  0.8216 -0.8938 -0.1376
  196MOL0     O26372   5.201  11.331   9.581  0.0656 -0.4518  0.1367
  196MOL0     C26373   5.032  11.371   9.804 -0.4771  0.7520 -0.7820
  196MOL0     C26374   4.959  11.369   9.922  0.5157  0.0627  0.8910
  196MOL0     N26375   4.312  11.038  10.413 -0.0358  0.2196  0.6983
  196MOL0     N26376   4.209  11.025  10.479 -0.3372 -0.4511  0.5767
  196MOL0     C26377   2.907  11.138  10.327 -0.5037 -0.8624 -0.2810
  196MOL0     C26378   2.791  11.152  10.245  0.1746  0.1570  0.3875
  196MOL0     C26379   2.535  11.055   9.989  0.1043  0.6240 -0.2705
  196MOL0     C26380   2.440  11.081  10.098 -0.9632 -0.2198 -0.3578
  196MOL0     C26381   2.327  11.009  10.122  0.3315  0.0188 -1.2241
  196MOL0     C26382   2.284  10.904  10.025 -0.3790 -1.1034 -0.3689
  196MOL0     O26383   2.183  10.808  10.037 -0.1082  0.7584 -0.4272
  196MOL0     C26384   2.080  10.817  10.124 -0.3570 -0.2139 -0.2852
  196MOL0     C26385   1.994  10.944  10.102  0.2281 -0.2912 -0.4614
  196MOL0     C26386   1.849  10.915  10.164 -0.3240 -0.7918  0.4855
  196MOL0     C26387   1.750  11.032  10.121 -0.8671 -0.0170  0.4187
  196MOL0     C26388   1.617  11.011  10.169  0.4629 -0.7313 -0.5352
  196MOL0     C26389   1.508  10.994  10.226 -0.4376  0.0219 -0.1381
  196MOL0     C26390   2.375  10.877   9.922  0.4182  0.9040  0.5904
  196MOL0     C26391   2.497  10.949   9.900 -0.4501  0.5434  0.0957
  196MOL0     C26392   2.566  10.915   9.765  0.3065 -0.2264 -0.0049
  196MOL0     H26393   2.918  11.307   9.979  4.2471  1.9545  1.3695
  196MOL0     H26394   3.130  11.296  10.124  0.5727  0.6697  0.1573
  196MOL0     H26395   3.288  11.137  10.227  1.4142  0.2959 -0.8049
  196MOL0     H26396   3.282  11.313  10.273 -0.2508  0.1255  1.5631
  196MOL0     H26397   3.367  11.087  10.455 -1.9797 -1.0642 -2.5333
  196MOL0     H26398   3.326  11.256  10.501  0.4339  0.4874 -1.3595
  196MOL0     H26399   3.494  11.334  10.335 -0.4807  1.3355  1.6728
  196MOL0     H26400   3.554  11.167  10.323 -2.6686 -0.7815 -1.6119
  196MOL0     H26401   3.539  11.335  10.573 -1.0695 -0.3197 -0.2990
  196MOL0     H26402   3.615  11.170  10.553 -0.8813 -0.3723 -0.5603
  196MOL0     H26403   3.708  11.425  10.436  1.1563 -0.8735 -3.2399
  196MOL0     H26404   3.783  11.348  10.578  4.4022 -0.5987 -1.9171
  196MOL0     H26405   3.753  11.250  10.292  0.5794  1.2966 -0.1295
  196MOL0     H26406   3.904  11.317  10.354  1.4312 -1.1280 -0.2364
  196MOL0     H26407   3.894  11.059  10.338 -3.3866 -0.8530 -0.5612
  196MOL0     H26408   3.805  11.072  10.493  0.5324  1.5124  1.2158
  196MOL0     H26409   3.970  11.216  10.598 -0.4402  0.1375  1.9667
  196MOL0     H26410   3.985  11.045  10.600 -3.1148  1.3966  1.0475
  196MOL0     H26411   4.146  11.327  10.387  1.3507  0.0780  2.2962
  196MOL0     H26412   4.363  11.332  10.243  2.0775  1.1196 -0.1343
  196MOL0     H26413   4.459  11.294  10.387  0.4826  1.3966 -0.0928
  196MOL0     H26414   4.534  11.076  10.252  0.0345  0.0066  0.3461
  196MOL0     H26415   4.432  11.124  10.125 -3.0075 -1.5532  2.1838
  196MOL0     H26416   4.639  11.326  10.218  0.2741 -1.9624  0.4628
  196MOL0     H26417   4.545  11.336  10.075  2.5493  0.4122 -1.1999
  196MOL0     H26418   4.672  11.139   9.975 -1.8512 -3.2300  0.8052
  196MOL0     H26419   4.734  11.086  10.130  1.2246 -1.0865 -2.9521
  196MOL0     H26420   4.920  11.035   9.967 -0.2378  0.0050  0.3932
  196MOL0     H26421   5.069  11.029   9.786 -1.7362 -0.7949  1.2416
  196MOL0     H26422   5.081  11.110   9.327 -0.7169 -0.7521  0.0777
  196MOL0     H26423   5.228  11.074   9.146 -2.5381  0.1425  0.9058
  196MOL0     H26424   5.639  11.201   9.155 -4.2992 -0.0028 -0.3193
  196MOL0     H26425   5.682  11.095   9.281 -0.7947 -0.2579  0.4680
  196MOL0     H26426   5.700  10.900   9.106 -1.4186 -0.3173 -1.6862
  196MOL0     H26427   5.672  11.024   8.986 -1.1827 -1.4408  0.7753
  196MOL0     H26428   5.879  11.144   9.097 -1.9448  0.3608  2.1078
  196MOL0     H26429   5.880  11.006   9.209  0.3433 -0.6897 -0.0330
  196MOL0     H26430   5.917  11.000   8.904  0.2804 -1.7623 -0.4940
  196MOL0     H26431   5.928  10.858   9.002 -0.7529  0.8870 -0.8910
  196MOL0     H26432   6.131  10.964   9.118  0.0766  0.7642  0.7339
  196MOL0     H26433   6.122  11.089   8.992 -1.5141  0.4347  2.2051
  196MOL0     H26434   6.134  10.785   8.925  2.6727 -0.9133 -2.0512
  196MOL0     H26435   6.158  10.911   8.817  1.0302 -0.1649  0.1971
  196MOL0     H26436   6.371  10.798   8.902  4.2367 -0.2292  1.6058
  196MOL0     H26437   6.320  10.829   9.066 -1.5582  0.8261 -0.4735
  196MOL0     H26438   6.401  11.040   8.834  2.2429  0.0571 -1.1838
  196MOL0     H26439   6.367  11.079   8.999  2.4841  1.4130 -0.7268
  196MOL0     H26440   5.558  10.995   9.438  0.3029  3.0258  3.6991
  196MOL0     H26441   5.398  11.030   9.613 -0.1389  1.4441  0.6768
  196MOL0     H26442   5.054  11.471   9.768  0.5187  0.5915 -0.6240
  196MOL0     H26443   4.927  11.465   9.963 -1.5434  0.3008 -1.1092
  196MOL0     H26444   2.890  11.110  10.430  0.4938 -2.4959 -0.5274
  196MOL0     H26445   2.696  11.119  10.284  3.0998 -5.1391  4.2244
  196MOL0     H26446   2.460  11.167  10.161  0.0639  1.9914 -3.4513
  196MOL0     H26447   2.263  11.030  10.207  0.1700  0.1764 -1.3804
  196MOL0     H26448   2.106  10.814  10.230 -1.0569 -1.1537 -0.1362
  196MOL0     H26449   2.013  10.731  10.113  1.1216 -2.0632  3.5651
  196MOL0     H26450   1.983  10.966   9.995  0.6121  0.7607 -0.2865
  196MOL0     H26451   2.044  11.022  10.159 -0.2876 -1.7077  2.0622
  196MOL0     H26452   1.858  10.912  10.273 -2.3965 -1.1598  0.6773
  196MOL0     H26453   1.808  10.822  10.124  1.9948 -1.3391 -0.8267
  196MOL0     H26454   1.785  11.131  10.153 -2.6268  1.5208 -2.0628
  196MOL0     H26455   1.750  11.031  10.012  0.7477 -2.3116  0.3683
  196MOL0     H26456   1.418  10.956  10.270 -1.9189  2.6028 -0.7554
  196MOL0     H26457   2.345  10.804   9.848  1.4139  1.1000 -0.0109
  196MOL0     H26458   2.591  11.014   9.727  1.6671 -0.7507 -0.5649
  196MOL0     H26459   2.663  10.867   9.784  0.2870 -1.0320 -1.7257
  196MOL0     H26460   2.505  10.858   9.695  0.7910 -0.7088 -0.0453
  197MOL0     O26461   5.487  10.383   5.558  0.3446 -0.2569 -0.1257
  197MOL0     C26462   5.440  10.373   5.671 -0.6543  0.9851 -1.0485
  197MOL0     O26463   5.511  10.331   5.782  0.2238  0.0909  0.2051
  197MOL0     C26464   5.642  10.299   5.774 -0.6318  0.1625 -0.6413
  197MOL0     C26465   5.676  10.171   5.724 -0.5358 -0.4572  0.0323
  197MOL0     C26466   5.808  10.141   5.720  0.2376  0.8328  0.3448
  197MOL0     C26467   5.916  10.232   5.737  0.4212 -0.6186  0.2055
  197MOL0     O26468   6.050  10.214   5.718  0.3214  0.0016 -0.5963
  197MOL0     C26469   6.105  10.083   5.741  0.0587 -0.6243 -0.4595
  197MOL0     C26470   6.255  10.090   5.736 -0.2933  0.4585 -0.8429
  197MOL0     C26471   6.311  10.142   5.604  0.4452 -0.6335  0.2274
  197MOL0     C26472   6.443  10.074   5.580  0.3394  1.0405  0.0171
  197MOL0     C26473   6.525  10.140   5.475 -0.5252 -0.4943 -1.5420
  197MOL0     C26474   6.459  10.180   5.347  0.4658  0.5562 -0.5567
  197MOL0     C26475   6.391  10.066   5.280  0.2746 -0.1385 -0.4808
  197MOL0     C26476   6.309  10.126   5.170  0.0232  0.4267  0.3040
  197MOL0     N26477   6.378  10.190   5.063 -0.0240 -0.3443  0.4199
  197MOL0     C26478   6.389  10.323   5.039 -0.3792 -0.4000  0.5703
  197MOL0     C26479   6.441  10.325   4.912 -1.1424  0.2809  0.4669
  197MOL0     C26480   6.465  10.448   4.829  0.5168  0.2564  0.6335
  197MOL0     C26481   6.607  10.489   4.797 -0.0119  0.5190 -0.4468
  197MOL0     C26482   6.683  10.391   4.698  0.2801  0.6271  0.1149
  197MOL0     C26483   6.820  10.444   4.655 -0.6285 -0.3020 -0.4429
  197MOL0     O26484   6.914  10.464   4.770  0.1469  0.4697  0.3576
  197MOL0     C26485   7.052  10.473   4.748 -0.3653  1.5055 -0.1864
  197MOL0     C26486   7.140  10.444   4.849  0.5687 -0.7972 -0.8377
  197MOL0     C26487   7.275  10.440   4.823 -0.7895 -0.2458  0.3905
  197MOL0     C26488   7.329  10.470   4.692  0.4562  0.0698  0.1585
  197MOL0     C26489   7.473  10.465   4.669  0.7833 -0.2292 -0.9891
  197MOL0     O26490   7.551  10.472   4.788  0.0461 -0.2518  0.7013
  197MOL0     C26491   7.680  10.515   4.775 -0.2693 -1.1675  0.1408
  197MOL0     C26492   7.696  10.650   4.748  0.8088  0.8067 -0.8303
  197MOL0     C26493   7.819  10.709   4.725 -0.3409  0.3596  0.0476
  197MOL0     C26494   7.932  10.639   4.757  0.6663  0.1478  0.0876
  197MOL0     O26495   8.064  10.680   4.740 -0.0621  0.2467 -0.6031
  197MOL0     C26496   8.087  10.786   4.646  0.7026 -0.2315 -0.1410
  197MOL0     C26497   8.224  10.831   4.614  0.0275 -0.4815 -0.0716
  197MOL0     C26498   8.287  10.878   4.740  0.2193  0.2059 -1.1477
  197MOL0     C26499   8.427  10.938   4.699  0.6300  0.1659 -0.2756
  197MOL0     C26500   8.502  10.994   4.821  0.4302 -0.2529 -0.1359
  197MOL0     C26501   8.654  10.997   4.800 -1.2604 -0.5143  0.5485
  197MOL0     C26502   8.719  11.067   4.919 -0.1734  0.1281  0.5212
  197MOL0     C26503   8.871  11.027   4.919  0.3853 -0.1249  0.1961
  197MOL0    Cl26504   8.944  11.050   4.762  0.3534  0.1402  0.3415
  197MOL0     C26505   7.918  10.503   4.804  0.1114 -0.5376  1.0771
  197MOL0     C26506   7.789  10.437   4.814  0.0795  0.1804 -0.3270
  197MOL0     O26507   7.517  10.441   4.551 -0.0180  0.3697  0.0846
  197MOL0     C26508   7.241  10.509   4.599  0.4657 -0.2355 -0.3833
  197MOL0     C26509   7.102  10.510   4.621 -0.2607  0.1609  0.3040
  197MOL0     N26510   6.482  10.196   4.871 -0.4498  0.7130 -1.0993
  197MOL0     N26511   6.444  10.110   4.969  0.2918 -0.0354  0.0142
  197MOL0     C26512   5.880  10.361   5.784  0.5144  0.6913  0.4958
  197MOL0     C26513   5.745  10.392   5.793 -0.6722  0.9333 -0.9400
  197MOL0     C26514   5.299  10.401   5.685  0.6847 -0.6558  0.7478
  197MOL0     C26515   5.221  10.289   5.733 -0.4187 -0.2107  0.9027
  197MOL0     C26516   5.088  10.296   5.717 -0.3401 -0.5726 -0.7728
  197MOL0     C26517   5.016  10.412   5.679 -0.3279 -0.3103 -0.4558
  197MOL0     O26518   4.880  10.420   5.664  0.1764  0.4268  0.6785
  197MOL0     C26519   4.801  10.336   5.748 -0.5551 -0.3048 -0.3508
  197MOL0     C26520   4.651  10.362   5.731 -0.4133 -0.2487  1.3324
  197MOL0     C26521   4.567  10.249   5.794  0.2340 -0.7354  0.1601
  197MOL0     C26522   4.420  10.251   5.747 -0.4355 -0.0115 -0.0632
  197MOL0     C26523   4.418  10.217   5.602  0.6395 -0.4510  0.5699
  197MOL0     C26524   4.414  10.189   5.483 -0.6986 -0.7666  0.0949
  197MOL0     C26525   5.093  10.525   5.636  0.1184  0.6921  0.3814
  197MOL0     C26526   5.235  10.519   5.641 -0.7400 -0.3535 -0.0150
  197MOL0     C26527   5.310  10.638   5.598  0.6048 -0.2549  0.0001
  197MOL0     H26528   5.597  10.102   5.697  0.6199 -2.1640  0.8153
  197MOL0     H26529   5.841  10.040   5.695  0.3160  1.1646 -0.9618
  197MOL0     H26530   6.087  10.037   5.839 -1.1718  0.2544 -0.2568
  197MOL0     H26531   6.075  10.017   5.660 -0.6779 -0.2670 -0.4872
  197MOL0     H26532   6.297   9.993   5.765  0.4775  1.4808  1.6721
  197MOL0     H26533   6.296  10.133   5.827 -1.8770 -4.0679  2.3834
  197MOL0     H26534   6.318  10.250   5.619  2.3039 -1.0275  2.9621
  197MOL0     H26535   6.246  10.116   5.520 -0.3171  0.1954  0.5427
  197MOL0     H26536   6.507  10.085   5.668  0.5611 -0.2462  0.0290
  197MOL0     H26537   6.432   9.967   5.558  0.6105  1.0574 -0.1977
  197MOL0     H26538   6.567  10.230   5.519 -2.5970 -0.4697  0.5361
  197MOL0     H26539   6.606  10.068   5.462 -0.8213 -1.3863  1.0448
  197MOL0     H26540   6.384  10.251   5.383  2.1718  1.8163  0.6430
  197MOL0     H26541   6.533  10.222   5.278  2.1746 -1.3980  0.0056
  197MOL0     H26542   6.324  10.022   5.355 -0.6459 -0.3465 -1.4143
  197MOL0     H26543   6.458   9.988   5.244  2.1741  0.9286  0.5730
  197MOL0     H26544   6.253  10.044   5.124  1.4326 -2.4073  3.2564
  197MOL0     H26545   6.239  10.197   5.215  0.6640  1.6812 -0.6095
  197MOL0     H26546   6.352  10.408   5.095  0.5923  0.3581  0.0896
  197MOL0     H26547   6.403  10.437   4.739 -0.2031 -1.0215  1.2585
  197MOL0     H26548   6.412  10.536   4.867  1.5350  2.1846 -2.0466
  197MOL0     H26549   6.596  10.587   4.750 -1.7848  0.4844 -0.1809
  197MOL0     H26550   6.656  10.489   4.895 -2.2685 -0.2782  0.7623
  197MOL0     H26551   6.620  10.376   4.609  2.1439  0.8676 -1.3169
  197MOL0     H26552   6.711  10.292   4.734 -2.2128  0.1452  0.9124
  197MOL0     H26553   6.815  10.539   4.601  2.1687  1.2421  1.7682
  197MOL0     H26554   6.869  10.365   4.596  3.8700  0.4252  1.8797
  197MOL0     H26555   7.097  10.421   4.946  3.0500  0.8118  0.7633
  197MOL0     H26556   7.342  10.418   4.906  0.2160  0.5952 -0.1838
  197MOL0     H26557   7.602  10.704   4.741  1.2161  1.5756 -0.5083
  197MOL0     H26558   7.828  10.811   4.690  0.2604 -0.0957 -1.1580
  197MOL0     H26559   8.040  10.757   4.551 -0.0989 -0.3016  0.2665
  197MOL0     H26560   8.031  10.870   4.688  1.7321  0.4992 -0.2081
  197MOL0     H26561   8.272  10.740   4.578 -1.0997 -0.5263 -1.5683
  197MOL0     H26562   8.223  10.902   4.531  0.6759  0.6909  0.8940
  197MOL0     H26563   8.221  10.949   4.791 -0.0601 -0.6541 -0.2712
  197MOL0     H26564   8.306  10.795   4.809  1.6974  0.9722 -0.5822
  197MOL0     H26565   8.418  11.005   4.613 -1.5496  1.3055  0.7715
  197MOL0     H26566   8.492  10.855   4.669  1.2150  0.3853  0.3629
  197MOL0     H26567   8.480  10.934   4.909 -1.2617  1.0155  0.3676
  197MOL0     H26568   8.471  11.097   4.842  0.7654  0.1909 -1.6890
  197MOL0     H26569   8.682  10.892   4.792 -1.0989 -0.4263 -0.0762
  197MOL0     H26570   8.685  11.046   4.707 -2.2775  0.1890  0.5576
  197MOL0     H26571   8.681  11.032   5.015  2.8717 -2.4481  0.9575
  197MOL0     H26572   8.721  11.177   4.924  1.4331  0.0983  1.1736
  197MOL0     H26573   8.924  11.082   4.997  0.5699 -1.4784  1.0611
  197MOL0     H26574   8.887  10.923   4.951 -0.8036 -0.8544 -1.4212
  197MOL0     H26575   8.008  10.442   4.808  1.1170  0.6322 -1.3562
  197MOL0     H26576   7.767  10.333   4.834  0.0584  0.1192 -0.6722
  197MOL0     H26577   7.275  10.537   4.500  1.3819  2.4286  0.6188
  197MOL0     H26578   7.035  10.528   4.537 -0.4686 -2.3722 -0.1244
  197MOL0     H26579   5.965  10.426   5.803  0.3668  0.5293  1.8002
  197MOL0     H26580   5.731  10.499   5.811  2.9618  1.0117  2.6888
  197MOL0     H26581   5.262  10.194   5.764 -2.8886 -1.3878  0.7815
  197MOL0     H26582   5.033  10.208   5.749  1.1897 -0.1659  3.8101
  197MOL0     H26583   4.825  10.359   5.853  1.5662 -1.4387 -0.5299
  197MOL0     H26584   4.823  10.230   5.731 -0.8340 -0.0849 -2.2015
  197MOL0     H26585   4.641  10.357   5.622  3.4310 -4.5432  0.8673
  197MOL0     H26586   4.617  10.459   5.769 -2.8021  0.6487 -2.4870
  197MOL0     H26587   4.566  10.249   5.903 -0.7633 -2.4770  0.1904
  197MOL0     H26588   4.601  10.147   5.772  0.7448 -1.2140  2.9023
  197MOL0     H26589   4.363  10.177   5.803  1.6541 -0.3315  1.7500
  197MOL0     H26590   4.372  10.349   5.755  0.6500  0.4283  1.3793
  197MOL0     H26591   4.434  10.162   5.381 -2.8883  2.7013 -1.4387
  197MOL0     H26592   5.047  10.618   5.605  1.2922  0.4475 -2.3989
  197MOL0     H26593   5.256  10.733   5.604  2.8530  1.1740 -0.7492
  197MOL0     H26594   5.409  10.644   5.643  0.1934  1.6892  0.7471
  197MOL0     H26595   5.330  10.633   5.490  0.2585 -0.6584 -0.0458
  198MOL0     O26596   3.367   3.717   7.111  0.5887  0.0031  0.0089
  198MOL0     C26597   3.320   3.758   7.006 -0.0572  0.2255  0.1146
  198MOL0     O26598   3.383   3.821   6.908 -0.0799 -0.0593  0.2303
  198MOL0     C26599   3.512   3.853   6.916 -0.9854 -0.0888 -0.3468
  198MOL0     C26600   3.573   3.900   7.028 -0.2158 -1.0430  1.0759
  198MOL0     C26601   3.708   3.937   7.027  0.3436  0.2334  0.4546
  198MOL0     C26602   3.779   3.933   6.909 -0.5689  0.3993  0.1650
  198MOL0     O26603   3.917   3.957   6.906  0.7045  0.2043  0.6010
  198MOL0     C26604   3.994   3.888   7.009  0.8810 -0.2694  0.2952
  198MOL0     C26605   4.144   3.893   6.980  0.9564 -0.0852  0.0481
  198MOL0     C26606   4.180   4.036   6.932  0.0455  0.8100 -0.0950
  198MOL0     C26607   4.233   4.063   6.796 -0.0020  0.0495  0.0084
  198MOL0     C26608   4.372   3.995   6.782 -0.2498 -1.3002 -0.2562
  198MOL0     C26609   4.436   4.016   6.641 -0.1782  0.0185 -0.3878
  198MOL0     C26610   4.544   3.912   6.602  0.7696  0.0401  0.0713
  198MOL0     C26611   4.671   3.911   6.677  0.5215 -0.1151 -0.6856
  198MOL0     N26612   4.740   4.034   6.654 -0.3405 -1.0156  0.7607
  198MOL0     C26613   4.829   4.061   6.558 -1.4518  0.5975  0.4126
  198MOL0     C26614   4.915   4.161   6.603  0.1232 -0.8125 -0.5199
  198MOL0     C26615   5.038   4.213   6.537  0.0818 -0.2096 -0.3768
  198MOL0     C26616   5.159   4.176   6.628 -0.0424  0.3370  0.4194
  198MOL0     C26617   5.196   4.290   6.724 -0.3297 -0.3128 -1.1192
  198MOL0     C26618   5.339   4.273   6.766  0.2382 -0.1774  1.3815
  198MOL0     O26619   5.407   4.313   6.647 -0.5492  0.0996  1.0161
  198MOL0     C26620   5.542   4.342   6.649 -0.8861 -0.7988 -0.5245
  198MOL0     C26621   5.621   4.337   6.767 -0.1579  0.7046  0.2355
  198MOL0     C26622   5.762   4.346   6.756 -0.1540 -0.6965 -0.1186
  198MOL0     C26623   5.819   4.376   6.629  0.2137 -0.3370 -0.6646
  198MOL0     C26624   5.961   4.411   6.628  0.2547  0.4326 -0.4053
  198MOL0     O26625   6.046   4.382   6.736  0.2746  0.8061  0.2122
  198MOL0     C26626   6.167   4.445   6.748  0.2228 -0.8609 -0.2041
  198MOL0     C26627   6.183   4.583   6.715 -0.5422  0.9250  0.5371
  198MOL0     C26628   6.314   4.638   6.700  0.5876  0.3861  0.3431
  198MOL0     C26629   6.425   4.574   6.739 -0.1028  0.7120  0.4627
  198MOL0     O26630   6.558   4.612   6.715  0.5154 -0.6812 -0.1707
  198MOL0     C26631   6.578   4.747   6.680  0.4095  0.4415  0.6210
  198MOL0     C26632   6.728   4.748   6.642 -0.5241  0.0593 -0.6518
  198MOL0     C26633   6.781   4.888   6.623 -0.0252 -0.3649  0.2618
  198MOL0     C26634   6.726   4.966   6.503  0.4493 -0.0259  0.1811
  198MOL0     C26635   6.816   5.094   6.477 -0.9529  0.1199  0.3424
  198MOL0     C26636   6.746   5.171   6.375  0.6635 -0.0230  0.7999
  198MOL0     C26637   6.816   5.305   6.348 -0.0953 -0.2472  0.2871
  198MOL0     C26638   6.767   5.363   6.212 -0.0946  0.0528 -0.0591
  198MOL0    Cl26639   6.613   5.443   6.242 -0.0010 -0.1133  0.3101
  198MOL0     C26640   6.407   4.443   6.788 -0.0345  0.1535 -0.6077
  198MOL0     C26641   6.282   4.377   6.786 -0.4645  0.1965  0.3155
  198MOL0     O26642   6.000   4.446   6.523 -0.2665 -0.4942  0.1183
  198MOL0     C26643   5.739   4.401   6.515  0.4266  0.4819  0.0784
  198MOL0     C26644   5.600   4.373   6.527 -0.6262  0.5827  0.5902
  198MOL0     N26645   4.859   4.210   6.721 -0.3683 -0.5581 -0.0188
  198MOL0     N26646   4.761   4.131   6.752  0.3805 -0.3471  0.8435
  198MOL0     C26647   3.719   3.892   6.797  0.5947  0.5331  0.3762
  198MOL0     C26648   3.585   3.851   6.799  0.2111  0.4244  1.0195
  198MOL0     C26649   3.181   3.743   6.990 -0.7945 -0.8440 -0.1106
  198MOL0     C26650   3.109   3.826   6.901  0.7270  0.2439  0.8853
  198MOL0     C26651   2.975   3.819   6.871 -0.2964 -0.2803 -0.5278
  198MOL0     C26652   2.899   3.723   6.940  0.2185 -0.0280 -0.5099
  198MOL0     O26653   2.764   3.699   6.918  0.3598 -0.2766  0.3226
  198MOL0     C26654   2.675   3.806   6.877 -0.2707  0.4659  0.0260
  198MOL0     C26655   2.533   3.753   6.867  0.0965  0.1770 -0.5649
  198MOL0     C26656   2.489   3.700   7.009 -0.0886  0.1542  0.5290
  198MOL0     C26657   2.351   3.631   7.011  0.0246 -0.2198  0.5373
  198MOL0     C26658   2.354   3.498   6.942 -0.0524 -1.1131  0.8315
  198MOL0     C26659   2.338   3.391   6.878  0.1771 -0.2669  0.2533
  198MOL0     C26660   2.957   3.640   7.031 -0.9626  1.1774  0.4481
  198MOL0     C26661   3.098   3.641   7.055 -0.6617  0.3629  0.7150
  198MOL0     C26662   3.151   3.544   7.165 -0.5502  0.0627 -0.0858
  198MOL0     H26663   3.528   3.896   7.126  2.3963  1.4402  2.5405
  198MOL0     H26664   3.773   3.967   7.108  0.6464 -0.1090  0.3400
  198MOL0     H26665   3.977   3.923   7.111 -0.8754 -0.8296  0.2251
  198MOL0     H26666   3.974   3.781   7.018  2.2312 -0.4487  1.4737
  198MOL0     H26667   4.185   3.821   6.909  0.7627  1.1185 -1.3302
  198MOL0     H26668   4.192   3.870   7.075  2.0050  2.4996  0.2328
  198MOL0     H26669   4.264   4.069   6.993 -0.2923  2.3431 -0.4298
  198MOL0     H26670   4.093   4.099   6.952 -1.2155 -0.1522 -2.1809
  198MOL0     H26671   4.162   4.026   6.721 -0.7493 -1.4323  1.3658
  198MOL0     H26672   4.235   4.171   6.778  1.8570  0.7881  3.7048
  198MOL0     H26673   4.435   4.036   6.862 -0.8494 -2.4913  0.8564
  198MOL0     H26674   4.355   3.888   6.794 -2.4825 -0.9247  0.2004
  198MOL0     H26675   4.357   4.008   6.565 -0.4589 -0.6641 -0.0226
  198MOL0     H26676   4.478   4.117   6.639 -3.2535  1.4132 -1.2865
  198MOL0     H26677   4.553   3.942   6.497 -2.8462  3.5391  0.4863
  198MOL0     H26678   4.497   3.814   6.608 -0.2836  0.5760  0.8439
  198MOL0     H26679   4.643   3.915   6.782 -3.1338  0.0053 -1.4981
  198MOL0     H26680   4.729   3.825   6.642 -0.9988 -1.1448 -0.7662
  198MOL0     H26681   4.834   4.016   6.459 -1.2891 -3.5060  2.1092
  198MOL0     H26682   5.054   4.158   6.443  1.3956 -0.1069 -0.2244
  198MOL0     H26683   5.029   4.318   6.507  2.8894 -0.5843 -3.0309
  198MOL0     H26684   5.134   4.086   6.684  2.4172 -1.1163 -0.6507
  198MOL0     H26685   5.241   4.163   6.556 -1.0627 -0.4890 -0.6243
  198MOL0     H26686   5.131   4.282   6.812 -0.1797  1.8864 -0.7539
  198MOL0     H26687   5.184   4.385   6.671 -3.1319  0.1493  0.1122
  198MOL0     H26688   5.352   4.167   6.789  0.6847 -0.9155 -1.8430
  198MOL0     H26689   5.360   4.336   6.853  1.9880 -0.5497  1.2606
  198MOL0     H26690   5.571   4.300   6.856 -1.9152 -0.5529 -1.1926
  198MOL0     H26691   5.813   4.327   6.850 -0.4450  0.5241  0.2956
  198MOL0     H26692   6.096   4.648   6.716  0.1464  1.9940 -1.5767
  198MOL0     H26693   6.318   4.738   6.658 -2.2344  0.1094 -0.8166
  198MOL0     H26694   6.546   4.770   6.578 -1.9976 -0.9513  0.9990
  198MOL0     H26695   6.550   4.819   6.757 -1.8571 -0.8182  1.0503
  198MOL0     H26696   6.777   4.709   6.732 -1.2665 -0.4386 -0.4588
  198MOL0     H26697   6.749   4.675   6.563 -1.6268 -1.1585  0.1363
  198MOL0     H26698   6.767   4.944   6.716  0.3077  4.2470 -2.1772
  198MOL0     H26699   6.889   4.880   6.613  0.2505  2.1642  0.7272
  198MOL0     H26700   6.621   4.994   6.505 -0.0164 -1.3093 -2.3843
  198MOL0     H26701   6.728   4.908   6.410 -0.5893  2.5246 -1.5266
  198MOL0     H26702   6.920   5.070   6.453 -0.1111  2.1217  1.7380
  198MOL0     H26703   6.828   5.140   6.575 -2.5220  0.3569  0.4547
  198MOL0     H26704   6.743   5.121   6.278  1.6611 -0.7702  1.1449
  198MOL0     H26705   6.643   5.194   6.406  0.6449  2.5819 -0.8772
  198MOL0     H26706   6.922   5.278   6.343 -0.4845 -1.9429  0.3655
  198MOL0     H26707   6.798   5.367   6.436 -0.6835  0.6163 -0.4261
  198MOL0     H26708   6.833   5.443   6.178  0.3545 -0.2659  0.0554
  198MOL0     H26709   6.765   5.291   6.130 -0.6511 -0.4776  0.4037
  198MOL0     H26710   6.488   4.376   6.814 -1.5459 -1.4811  0.1032
  198MOL0     H26711   6.274   4.274   6.821  0.4113 -1.1145 -2.9492
  198MOL0     H26712   5.794   4.418   6.423 -0.3486  0.7344 -0.3443
  198MOL0     H26713   5.532   4.369   6.442  1.3558 -1.3420 -1.0628
  198MOL0     H26714   3.783   3.881   6.710  1.8276  3.2598  0.8276
  198MOL0     H26715   3.541   3.813   6.707  1.9065 -1.5534  0.9524
  198MOL0     H26716   3.166   3.903   6.849  0.7650  0.6853  1.5567
  198MOL0     H26717   2.940   3.890   6.798  0.3239  1.9832  1.2715
  198MOL0     H26718   2.696   3.840   6.776  0.2204 -0.0723 -0.0578
  198MOL0     H26719   2.680   3.896   6.939  0.6852  1.1794 -1.0695
  198MOL0     H26720   2.518   3.680   6.787  0.5988 -0.5421 -0.0129
  198MOL0     H26721   2.465   3.832   6.835 -2.5865 -1.3060  1.1391
  198MOL0     H26722   2.507   3.785   7.076 -0.1198 -0.1368  0.9110
  198MOL0     H26723   2.555   3.621   7.047 -2.5554 -2.7304 -0.8179
  198MOL0     H26724   2.317   3.614   7.113 -0.7116  1.6544  0.6452
  198MOL0     H26725   2.272   3.691   6.966  1.3846  1.1948 -0.0402
  198MOL0     H26726   2.298   3.312   6.818 -0.4657 -0.4347  0.8866
  198MOL0     H26727   2.893   3.574   7.088 -2.3449  0.4883 -1.7919
  198MOL0     H26728   3.069   3.482   7.201 -0.5381  1.5369  2.8012
  198MOL0     H26729   3.237   3.479   7.144  0.5986  0.7284  2.1825
  198MOL0     H26730   3.185   3.596   7.255  3.3061 -0.9565 -0.7780
  199MOL0     O26731  10.049  10.518  10.719  0.2232  0.0933  0.0910
  199MOL0     C26732  10.092  10.633  10.695 -1.1650 -0.7953  0.5932
  199MOL0     O26733  10.226  10.668  10.745  0.8140  0.6295  0.3599
  199MOL0     C26734  10.276  10.578  10.828 -1.4821  0.2296 -0.2924
  199MOL0     C26735  10.355  10.475  10.777 -0.0570 -0.5296 -1.1091
  199MOL0     C26736  10.418  10.389  10.874  0.5505 -0.4950 -0.1913
  199MOL0     C26737  10.405  10.404  11.013 -0.5489  0.3232 -0.1852
  199MOL0     O26738  10.470  10.326  11.111 -0.9927 -0.3116  0.4558
  199MOL0     C26739  10.562  10.228  11.066 -0.0006  0.7292  0.3666
  199MOL0     C26740  10.633  10.175  11.178  0.0120  0.2873 -0.3170
  199MOL0     C26741  10.751  10.082  11.138 -0.0156 -0.8272  0.8708
  199MOL0     C26742  10.830  10.027  11.253 -0.4210  0.0424  0.0483
  199MOL0     C26743  10.948   9.944  11.203  0.0712 -0.7553 -0.0632
  199MOL0     C26744  11.025   9.892  11.316 -0.4282  0.8393 -0.3545
  199MOL0     C26745  11.148   9.805  11.274  0.1200 -0.5515 -0.0225
  199MOL0     C26746  11.203   9.715  11.375  0.4535  0.3679 -0.3073
  199MOL0     N26747  11.314   9.630  11.338 -0.2461  0.0008 -0.5093
  199MOL0     C26748  11.415   9.681  11.260  1.0110  1.0276  0.3038
  199MOL0     C26749  11.482   9.571  11.234 -0.4232  0.4360  1.6316
  199MOL0     C26750  11.597   9.587  11.139 -0.0250  0.1430  0.3499
  199MOL0     C26751  11.552   9.589  10.994  0.3331 -0.0553 -0.0857
  199MOL0     C26752  11.654   9.559  10.892 -0.0278  0.0525 -0.7079
  199MOL0     C26753  11.701   9.680  10.816 -0.3632 -0.5537  0.2066
  199MOL0     O26754  11.816   9.653  10.733 -0.2855  0.0322 -0.1865
  199MOL0     C26755  11.936   9.603  10.792 -0.0349 -0.4382 -0.4219
  199MOL0     C26756  11.973   9.612  10.924  0.3308  0.3050 -0.1851
  199MOL0     C26757  12.095   9.573  10.983 -0.0612  0.6499  1.6567
  199MOL0     C26758  12.195   9.514  10.899  0.3806  0.0700  0.1758
  199MOL0     C26759  12.327   9.473  10.954 -0.4833  0.3427  0.2463
  199MOL0     O26760  12.350   9.486  11.091 -0.2729 -0.3320 -0.0553
  199MOL0     C26761  12.470   9.438  11.134  0.6179  0.0319  0.1685
  199MOL0     C26762  12.470   9.376  11.262 -0.0820  0.4010 -0.4215
  199MOL0     C26763  12.590   9.350  11.334  0.1605 -0.5297  0.1337
  199MOL0     C26764  12.713   9.374  11.276  0.3160 -0.1954  0.4984
  199MOL0     O26765  12.824   9.358  11.340 -0.1174  0.5723 -0.4712
  199MOL0     C26766  12.852   9.227  11.389 -1.0591  0.1557 -0.5985
  199MOL0     C26767  12.846   9.109  11.289 -0.5272 -0.6187 -0.3381
  199MOL0     C26768  12.961   9.110  11.191 -0.5261 -0.4271  0.4275
  199MOL0     C26769  13.091   9.042  11.250 -0.2168 -0.3877 -0.8457
  199MOL0     C26770  13.197   9.028  11.145  0.7852 -0.2640  0.7727
  199MOL0     C26771  13.336   8.988  11.199 -0.2667 -0.0922 -0.0682
  199MOL0     C26772  13.413   9.111  11.254 -0.3846 -0.6080  0.5776
  199MOL0     C26773  13.562   9.087  11.264 -0.6990  1.2114 -0.3800
  199MOL0    Cl26774  13.622   9.089  11.092 -0.1685 -0.0083  0.5697
  199MOL0     C26775  12.717   9.430  11.147  0.5352  0.0949  0.6120
  199MOL0     C26776  12.603   9.465  11.078  0.3064  0.0626  0.2654
  199MOL0     O26777  12.400   9.417  10.869 -0.4515 -0.5737 -0.4105
  199MOL0     C26778  12.162   9.497  10.761  0.8893 -0.0664  0.1950
  199MOL0     C26779  12.030   9.539  10.709  0.0248  0.1847  0.2495
  199MOL0     N26780  11.428   9.463  11.292  0.3018 -0.1426 -0.2236
  199MOL0     N26781  11.318   9.492  11.358  0.2447 -0.9640  0.6551
  199MOL0     C26782  10.315  10.501  11.060 -1.1150  0.2019  0.7277
  199MOL0     C26783  10.263  10.599  10.971 -0.4781 -0.3116  0.4421
  199MOL0     C26784  10.005  10.723  10.612  0.3231  0.0096  0.3364
  199MOL0     C26785   9.894  10.651  10.552 -0.9136  0.5066 -0.2562
  199MOL0     C26786   9.806  10.718  10.465  1.2380 -0.3284 -0.5174
  199MOL0     C26787   9.826  10.850  10.439  0.0807 -0.7891  0.2124
  199MOL0     O26788   9.757  10.919  10.344 -0.4005  0.2201  0.3131
  199MOL0     C26789   9.651  10.851  10.271  0.1164  0.1294  0.4636
  199MOL0     C26790   9.576  10.953  10.183  0.2086  0.2795 -0.2662
  199MOL0     C26791   9.489  11.047  10.273  0.2170 -0.0660  0.1812
  199MOL0     C26792   9.423  11.144  10.181 -0.7135 -0.0918 -0.6853
  199MOL0     C26793   9.515  11.255  10.149  0.2483 -0.0472 -0.0616
  199MOL0     C26794   9.583  11.345  10.119  0.3684 -0.6936 -0.3112
  199MOL0     C26795   9.926  10.921  10.504  0.1250 -0.1739 -0.4002
  199MOL0     C26796  10.020  10.862  10.593 -0.5015 -0.0717  0.9854
  199MOL0     C26797  10.115  10.953  10.660 -0.0371  0.3726 -0.4073
  199MOL0     H26798  10.377  10.456  10.672  1.4994 -1.2191 -0.6830
  199MOL0     H26799  10.465  10.303  10.827 -1.0896 -1.0743 -0.8248
  199MOL0     H26800  10.517  10.154  10.999  0.7774 -1.0439  1.7264
  199MOL0     H26801  10.633  10.275  10.997  0.3077 -2.1297 -1.3879
  199MOL0     H26802  10.565  10.113  11.237 -0.7342 -0.1071 -1.5555
  199MOL0     H26803  10.668  10.260  11.237 -0.5400  0.3394 -0.0486
  199MOL0     H26804  10.819  10.146  11.081 -1.6166  1.4156  1.3436
  199MOL0     H26805  10.719  10.000  11.074 -0.1462  1.6969 -2.5619
  199MOL0     H26806  10.860  10.111  11.316 -4.3089  1.2765  0.5513
  199MOL0     H26807  10.767   9.964  11.316 -0.3721  0.0731  0.1278
  199MOL0     H26808  10.911   9.861  11.143  2.4306 -0.4740 -2.0883
  199MOL0     H26809  11.010  10.005  11.136  0.4617  0.7836  1.6118
  199MOL0     H26810  11.064   9.977  11.374  2.2017 -0.0998 -0.6297
  199MOL0     H26811  10.956   9.840  11.382  0.7732 -0.1151  0.1862
  199MOL0     H26812  11.224   9.877  11.240  1.4912 -2.8089 -2.0034
  199MOL0     H26813  11.117   9.741  11.191 -0.2428  1.3873 -1.4555
  199MOL0     H26814  11.236   9.774  11.461  0.2164  1.3973 -0.8983
  199MOL0     H26815  11.123   9.643  11.391 -1.7743  2.7711 -0.0058
  199MOL0     H26816  11.424   9.785  11.232  1.4284  1.1971  1.0494
  199MOL0     H26817  11.648   9.682  11.156 -0.1287  0.7144 -2.2262
  199MOL0     H26818  11.677   9.515  11.157  0.6169  0.9068  0.6554
  199MOL0     H26819  11.481   9.506  10.982  2.8253 -2.4065  0.5555
  199MOL0     H26820  11.498   9.680  10.967  0.7848  0.2976  0.1857
  199MOL0     H26821  11.623   9.481  10.821  2.9363 -2.6423  0.7163
  199MOL0     H26822  11.736   9.506  10.941  0.8082  0.4007 -1.6916
  199MOL0     H26823  11.721   9.755  10.893 -2.0693 -0.2437  0.3794
  199MOL0     H26824  11.627   9.732  10.756 -0.4448 -1.5781 -0.6096
  199MOL0     H26825  11.911   9.665  10.996  1.9824 -0.2172  1.7151
  199MOL0     H26826  12.106   9.587  11.090  0.7883  2.2945  1.3831
  199MOL0     H26827  12.380   9.348  11.316 -0.2401 -3.5496 -2.3037
  199MOL0     H26828  12.578   9.308  11.433 -1.1791 -2.2551 -0.7218
  199MOL0     H26829  12.950   9.220  11.436 -1.7718  1.4257  1.2168
  199MOL0     H26830  12.785   9.203  11.472 -2.0078 -0.8685 -1.6329
  199MOL0     H26831  12.845   9.011  11.337  0.1494 -1.3298 -1.7010
  199MOL0     H26832  12.748   9.109  11.240  0.3560 -0.5880 -2.1962
  199MOL0     H26833  12.932   9.066  11.095 -1.4652  0.0729  0.4696
  199MOL0     H26834  12.980   9.214  11.162  0.4749 -1.4932 -3.2015
  199MOL0     H26835  13.063   8.946  11.295  0.8074  0.4432  1.7110
  199MOL0     H26836  13.133   9.098  11.333  0.4358 -1.0840 -0.6898
  199MOL0     H26837  13.205   9.115  11.079  0.8537 -2.4741 -2.3966
  199MOL0     H26838  13.166   8.948  11.077  0.1226 -0.7006  1.5734
  199MOL0     H26839  13.329   8.904  11.269 -2.2106  1.2433  1.4773
  199MOL0     H26840  13.392   8.953  11.112  1.8769 -0.2522  1.3087
  199MOL0     H26841  13.372   9.146  11.349 -0.3998  0.3645  0.2267
  199MOL0     H26842  13.390   9.189  11.181 -1.6857 -0.3194  1.2531
  199MOL0     H26843  13.614   9.164  11.321 -2.8596 -0.3987  4.3010
  199MOL0     H26844  13.581   8.995  11.321  2.5501  1.9983  0.0027
  199MOL0     H26845  12.812   9.456  11.101  0.7254 -2.6701 -0.7532
  199MOL0     H26846  12.613   9.509  10.979  1.4269 -0.3151  0.1983
  199MOL0     H26847  12.227   9.458  10.682 -1.9676  0.4648 -2.6375
  199MOL0     H26848  11.997   9.515  10.608  2.5136 -1.4909 -0.2756
  199MOL0     H26849  10.279  10.507  11.162 -0.5228  0.9335  0.9051
  199MOL0     H26850  10.203  10.686  10.996 -0.8651 -0.5408  0.3285
  199MOL0     H26851   9.867  10.548  10.569 -2.5515  0.8996 -0.3451
  199MOL0     H26852   9.732  10.665  10.405  0.9487  2.3572 -2.7412
  199MOL0     H26853   9.581  10.807  10.342 -0.6449  1.0997  0.3485
  199MOL0     H26854   9.688  10.773  10.205  1.9999 -0.2203  1.8491
  199MOL0     H26855   9.512  10.903  10.110  0.8872 -1.7260  0.4457
  199MOL0     H26856   9.643  11.019  10.127 -0.8374  1.1024 -0.5880
  199MOL0     H26857   9.552  11.088  10.353 -0.6139 -0.7651  1.2278
  199MOL0     H26858   9.417  10.980  10.322  1.7794 -2.6119 -0.8539
  199MOL0     H26859   9.393  11.103  10.084 -0.3202 -1.1459 -0.3751
  199MOL0     H26860   9.334  11.182  10.232  1.0602  2.0576  1.0359
  199MOL0     H26861   9.645  11.431  10.104  0.3208 -0.3845  1.1736
  199MOL0     H26862   9.939  11.027  10.483 -1.9900  0.3968  0.9194
  199MOL0     H26863  10.091  10.967  10.766  0.0193 -0.8877 -0.2175
  199MOL0     H26864  10.216  10.912  10.654  0.9864  1.8899  3.4598
  199MOL0     H26865  10.119  11.051  10.611 -0.6530  1.0414  0.8388
  200MOL0     O26866   8.839   9.864   1.568  0.2260  0.7650  0.3292
  200MOL0     C26867   8.841   9.744   1.603 -0.1939 -0.8350 -0.5921
  200MOL0     O26868   8.959   9.668   1.610  0.1314 -0.6183  0.3947
  200MOL0     C26869   9.075   9.737   1.596 -0.9221  0.5809  0.4377
  200MOL0     C26870   9.135   9.762   1.472  0.0557  1.0450  1.1356
  200MOL0     C26871   9.261   9.818   1.461 -0.7296 -0.7595  0.1811
  200MOL0     C26872   9.344   9.834   1.579 -0.4366  0.1367  0.3632
  200MOL0     O26873   9.480   9.858   1.567 -0.4285 -0.6281 -0.4127
  200MOL0     C26874   9.528   9.960   1.479 -0.2692 -0.3271 -0.4730
  200MOL0     C26875   9.660  10.004   1.542  0.0751 -0.5636 -1.0701
  200MOL0     C26876   9.772   9.897   1.536 -0.1557  0.3647 -0.8549
  200MOL0     C26877   9.852   9.905   1.667 -0.0312 -0.4623  0.0219
  200MOL0     C26878   9.934  10.036   1.683  0.6044  0.2602 -0.4388
  200MOL0     C26879  10.070  10.021   1.623 -0.9057 -0.5854 -0.1511
  200MOL0     C26880  10.181  10.114   1.680 -0.4196 -0.9681  0.1923
  200MOL0     C26881  10.192  10.100   1.830  0.8861  0.3747 -0.3995
  200MOL0     N26882  10.319  10.158   1.872 -0.9046  0.0428  0.7445
  200MOL0     C26883  10.350  10.289   1.890 -0.4071 -0.3457 -1.0022
  200MOL0     C26884  10.476  10.286   1.946 -0.5739  0.0312  0.1624
  200MOL0     C26885  10.569  10.403   1.975  0.3982  0.8528 -1.1432
  200MOL0     C26886  10.556  10.467   2.119  0.6055  0.3935  0.0563
  200MOL0     C26887  10.564  10.367   2.229  0.5703  0.6173 -0.9223
  200MOL0     C26888  10.552  10.431   2.366  0.0619  0.2394  0.0105
  200MOL0     O26889  10.659  10.526   2.383  0.1704  0.3997 -0.5903
  200MOL0     C26890  10.651  10.614   2.489 -0.2083 -0.2633 -0.0699
  200MOL0     C26891  10.541  10.672   2.551 -0.2304 -0.0035 -0.6771
  200MOL0     C26892  10.551  10.760   2.662 -1.2578 -0.0762  0.5398
  200MOL0     C26893  10.677  10.787   2.717 -0.5687  0.4658 -0.6589
  200MOL0     C26894  10.691  10.860   2.847 -0.3597 -1.3063 -0.6022
  200MOL0     O26895  10.577  10.866   2.932 -0.2818 -0.1776 -0.6663
  200MOL0     C26896  10.581  10.928   3.053  0.7815  0.4048  0.4792
  200MOL0     C26897  10.645  11.049   3.082  0.3183 -0.4221 -0.0736
  200MOL0     C26898  10.644  11.116   3.213 -0.1817 -0.6750  0.7576
  200MOL0     C26899  10.569  11.052   3.310  0.1378  0.3941 -0.1065
  200MOL0     O26900  10.574  11.120   3.424  0.4144 -0.3963 -0.7049
  200MOL0     C26901  10.580  11.032   3.548  0.1695  0.0672  0.9177
  200MOL0     C26902  10.685  11.086   3.651  0.2391 -0.9604 -0.5405
  200MOL0     C26903  10.722  10.972   3.755 -0.9365  0.7716  0.3214
  200MOL0     C26904  10.828  11.021   3.855 -0.0803 -0.1089 -0.7661
  200MOL0     C26905  10.895  10.913   3.944 -0.9262  0.2933 -0.1976
  200MOL0     C26906  10.984  10.813   3.867 -0.3335  0.7177  0.1360
  200MOL0     C26907  11.106  10.882   3.810 -0.6103 -0.0016 -0.0374
  200MOL0     C26908  11.220  10.794   3.775 -0.3922  0.4504 -0.1275
  200MOL0    Cl26909  11.266  10.701   3.928  0.2580  0.3261 -0.1645
  200MOL0     C26910  10.498  10.925   3.283  0.8939  0.0314  0.2509
  200MOL0     C26911  10.511  10.864   3.159 -0.3383 -0.2949 -0.0768
  200MOL0     O26912  10.795  10.921   2.857  0.8360 -0.3162 -0.2301
  200MOL0     C26913  10.790  10.726   2.657  0.2031  0.1260 -0.0238
  200MOL0     C26914  10.777  10.643   2.540 -0.2697 -0.7499  0.1036
  200MOL0     N26915  10.518  10.155   1.956 -0.0046  0.0769  0.7231
  200MOL0     N26916  10.421  10.075   1.913 -0.1922 -0.3185 -0.3838
  200MOL0     C26917   9.283   9.820   1.703 -0.1226  0.1569 -0.1679
  200MOL0     C26918   9.142   9.781   1.707  0.2148  0.2386 -0.3532
  200MOL0     C26919   8.722   9.701   1.672 -0.0069  0.5606  0.4692
  200MOL0     C26920   8.738   9.640   1.793 -0.2289 -0.1694 -0.3781
  200MOL0     C26921   8.628   9.583   1.853 -0.1156 -0.5220  0.2147
  200MOL0     C26922   8.499   9.615   1.808 -0.8615 -0.0072 -0.8370
  200MOL0     O26923   8.383   9.562   1.853 -0.4372  0.3015 -0.0492
  200MOL0     C26924   8.359   9.556   1.994  0.0480 -0.7637 -0.1978
  200MOL0     C26925   8.200   9.532   2.003 -0.0321  0.4459 -0.1824
  200MOL0     C26926   8.144   9.462   2.125  0.9104  0.3925 -0.5264
  200MOL0     C26927   8.191   9.535   2.255  0.9593 -0.3751 -0.9764
  200MOL0     C26928   8.101   9.496   2.365  0.5937 -0.1952 -0.0511
  200MOL0     C26929   8.037   9.440   2.453  0.0416 -0.2899  0.4748
  200MOL0     C26930   8.484   9.687   1.690  0.4580  0.6408 -0.5786
  200MOL0     C26931   8.595   9.718   1.619  0.5579  0.6251  0.3679
  200MOL0     C26932   8.577   9.761   1.478  0.1356  0.0235 -0.8606
  200MOL0     H26933   9.087   9.730   1.380  0.9087  1.9381  0.3498
  200MOL0     H26934   9.307   9.837   1.365  0.8036  4.1144  1.5841
  200MOL0     H26935   9.548   9.927   1.377 -0.0867 -0.5965 -0.3542
  200MOL0     H26936   9.459  10.043   1.463 -0.4440 -0.3061  0.3403
  200MOL0     H26937   9.647  10.040   1.644  1.3374 -1.6470 -0.4959
  200MOL0     H26938   9.700  10.090   1.486  2.3800 -0.3803  0.7133
  200MOL0     H26939   9.836   9.924   1.452  0.0753  3.4344  0.1819
  200MOL0     H26940   9.737   9.793   1.538  0.4356  0.1470  1.3641
  200MOL0     H26941   9.782   9.895   1.750 -3.5099 -2.1718 -2.8609
  200MOL0     H26942   9.915   9.816   1.669  1.3536  0.4388 -1.5067
  200MOL0     H26943   9.883  10.130   1.662 -0.4370 -0.1704  0.0809
  200MOL0     H26944   9.959  10.047   1.789  2.6026  1.1499 -0.9620
  200MOL0     H26945  10.114   9.921   1.624  1.1129  0.2446  1.4480
  200MOL0     H26946  10.059  10.036   1.515 -0.8074 -0.6856 -0.1751
  200MOL0     H26947  10.168  10.219   1.652  0.1992  0.3047  4.0460
  200MOL0     H26948  10.278  10.085   1.640  1.1888  2.0396  1.5813
  200MOL0     H26949  10.109  10.142   1.888 -0.7064  1.0831 -3.0069
  200MOL0     H26950  10.200   9.997   1.865  0.6180  0.3382 -0.4442
  200MOL0     H26951  10.288  10.378   1.886  1.3315  1.2997  2.9533
  200MOL0     H26952  10.670  10.364   1.974  0.1632  0.1965 -0.3531
  200MOL0     H26953  10.553  10.481   1.900 -1.1836 -0.1391 -1.8925
  200MOL0     H26954  10.643  10.533   2.119  2.6691 -2.1423 -1.6428
  200MOL0     H26955  10.468  10.531   2.132  0.2162 -0.1153 -0.0381
  200MOL0     H26956  10.657  10.312   2.214  1.2108  0.9480  1.3841
  200MOL0     H26957  10.483  10.295   2.219  1.1730 -0.0535 -1.0714
  200MOL0     H26958  10.566  10.350   2.438 -3.0433  1.1482  1.8540
  200MOL0     H26959  10.449  10.462   2.388 -0.1178 -1.5735  2.0900
  200MOL0     H26960  10.437  10.661   2.522 -0.8774 -1.3689  1.9171
  200MOL0     H26961  10.465  10.809   2.708 -0.8727 -0.5824  1.8618
  200MOL0     H26962  10.696  11.104   3.004 -1.1898  2.9243  1.1135
  200MOL0     H26963  10.684  11.214   3.237  0.0365  0.1206 -2.4245
  200MOL0     H26964  10.482  11.016   3.593  0.0702 -3.0572 -0.1682
  200MOL0     H26965  10.612  10.931   3.520  0.6877  0.5729 -0.3570
  200MOL0     H26966  10.774  11.126   3.602 -0.8436 -1.3543 -2.9970
  200MOL0     H26967  10.628  11.169   3.694 -0.0179 -1.0981 -0.6168
  200MOL0     H26968  10.631  10.950   3.812 -1.0939 -2.4965 -1.0072
  200MOL0     H26969  10.759  10.878   3.715 -0.6922 -0.6307  3.5643
  200MOL0     H26970  10.776  11.092   3.921 -0.2868 -1.8267  1.0324
  200MOL0     H26971  10.913  11.072   3.810 -0.9235  1.6355 -0.4705
  200MOL0     H26972  10.811  10.862   3.993 -0.3922 -0.5235 -0.1259
  200MOL0     H26973  10.955  10.957   4.024  2.1343  0.6545 -2.5096
  200MOL0     H26974  11.010  10.728   3.931 -1.5882 -0.8545 -1.3043
  200MOL0     H26975  10.929  10.759   3.789  0.5954 -3.6671  2.1951
  200MOL0     H26976  11.140  10.954   3.885 -2.0467  2.1209 -1.3400
  200MOL0     H26977  11.065  10.930   3.721  0.9222  0.3309 -0.5880
  200MOL0     H26978  11.188  10.727   3.694 -1.3377  0.8192 -0.0697
  200MOL0     H26979  11.304  10.854   3.739 -2.3104  3.5703  0.2176
  200MOL0     H26980  10.446  10.878   3.365  1.8437  0.4185  1.1040
  200MOL0     H26981  10.461  10.770   3.138 -1.1297 -0.0340  0.5724
  200MOL0     H26982  10.887  10.750   2.700 -0.1786  2.6065 -0.3600
  200MOL0     H26983  10.868  10.605   2.496  1.3508  1.4117  1.4348
  200MOL0     H26984   9.341   9.853   1.788  1.4384  4.0915 -2.5284
  200MOL0     H26985   9.086   9.774   1.800 -0.2766 -0.3222 -0.6855
  200MOL0     H26986   8.840   9.617   1.820 -0.1180 -0.7369 -1.2535
  200MOL0     H26987   8.643   9.526   1.945 -0.6836 -0.6769  0.2149
  200MOL0     H26988   8.381   9.657   2.032 -2.4721 -0.6759  1.2620
  200MOL0     H26989   8.417   9.475   2.038  3.6947  2.3408  1.2882
  200MOL0     H26990   8.169   9.464   1.922 -0.1902 -0.8302  0.9237
  200MOL0     H26991   8.160   9.628   1.967  1.7977  0.7139 -1.6369
  200MOL0     H26992   8.173   9.357   2.122 -2.8756 -0.8249  0.0479
  200MOL0     H26993   8.035   9.460   2.112  0.7095 -4.2963  0.1461
  200MOL0     H26994   8.289   9.490   2.278  0.0570 -0.9736  2.2350
  200MOL0     H26995   8.186   9.644   2.249 -1.7120 -0.3560  0.2497
  200MOL0     H26996   7.968   9.386   2.514 -1.5043  0.7009 -0.3266
  200MOL0     H26997   8.380   9.687   1.658  0.4985  0.0395 -0.7274
  200MOL0     H26998   8.603   9.866   1.462  0.2235  0.5108  1.9502
  200MOL0     H26999   8.625   9.702   1.400 -0.8877 -2.2177  0.1275
  200MOL0     H27000   8.474   9.739   1.446  0.3389 -1.2389 -0.6873
  201MOL0     O27001   4.837   0.593   5.918  0.5564 -0.9409 -0.1920
  201MOL0     C27002   4.882   0.580   6.032 -0.3714 -0.9224 -0.0210
  201MOL0     O27003   4.814   0.623   6.147 -0.3593 -0.5007  0.7259
  201MOL0     C27004   4.676   0.655   6.140 -1.2968 -0.6969  0.0698
  201MOL0     C27005   4.629   0.752   6.047  0.0696  0.4411  0.7055
  201MOL0     C27006   4.493   0.782   6.060  0.0186 -0.2594 -0.3167
  201MOL0     C27007   4.402   0.727   6.156 -1.0705 -0.1021 -0.4115
  201MOL0     O27008   4.280   0.778   6.171 -0.0315 -0.6347 -0.0076
  201MOL0     C27009   4.187   0.686   6.222  0.2090  0.3775 -0.1148
  201MOL0     C27010   4.065   0.767   6.238 -0.4844 -0.4079  0.9223
  201MOL0     C27011   3.982   0.768   6.112 -0.5777 -1.1267 -0.6887
  201MOL0     C27012   3.863   0.865   6.117 -1.1718  0.7217  0.3870
  201MOL0     C27013   3.889   1.006   6.084  0.3007 -0.2915  0.6758
  201MOL0     C27014   3.965   1.046   5.953  0.6764  0.2587  0.3403
  201MOL0     C27015   3.951   1.203   5.928  0.3919 -0.0202 -0.1563
  201MOL0     C27016   4.081   1.264   5.865 -0.3429 -0.8522  0.3372
  201MOL0     N27017   4.045   1.394   5.816  0.3131  0.0645 -0.5200
  201MOL0     C27018   4.030   1.501   5.894 -0.0714  0.0848 -0.0294
  201MOL0     C27019   3.984   1.595   5.807 -0.6162  0.4081 -0.5514
  201MOL0     C27020   3.940   1.741   5.847  0.6663  0.3970  0.4323
  201MOL0     C27021   4.058   1.826   5.913 -1.1174  0.6374 -0.2003
  201MOL0     C27022   4.154   1.899   5.815 -0.5852  0.5000 -0.9974
  201MOL0     C27023   4.227   1.811   5.714 -0.1117 -0.0458  0.1378
  201MOL0     O27024   4.295   1.905   5.639  1.0774 -0.0633  0.4123
  201MOL0     C27025   4.435   1.927   5.644 -0.0180  1.1663  0.3863
  201MOL0     C27026   4.525   1.893   5.747 -0.3944  0.9001 -0.7089
  201MOL0     C27027   4.667   1.906   5.733  0.3431  0.3909 -0.4263
  201MOL0     C27028   4.718   1.944   5.611 -0.0339  0.0794 -0.0532
  201MOL0     C27029   4.865   1.931   5.580  1.3382  0.3926 -0.2955
  201MOL0     O27030   4.951   1.918   5.684 -0.4972  0.8050  0.8707
  201MOL0     C27031   5.082   1.870   5.668  0.3891  0.1007  0.1714
  201MOL0     C27032   5.167   1.889   5.776 -0.4649 -0.2925 -1.0359
  201MOL0     C27033   5.298   1.829   5.780  0.4644  0.1190 -0.1143
  201MOL0     C27034   5.343   1.758   5.668 -0.7427  1.0156  0.0078
  201MOL0     O27035   5.479   1.726   5.681 -0.4097 -0.7992 -0.6069
  201MOL0     C27036   5.556   1.694   5.566 -0.6789  0.4096 -0.5798
  201MOL0     C27037   5.686   1.626   5.620 -0.1986 -0.0348 -0.1758
  201MOL0     C27038   5.760   1.542   5.515  0.5516  1.0036  0.5138
  201MOL0     C27039   5.844   1.620   5.420 -0.2278 -0.0132  0.5544
  201MOL0     C27040   5.922   1.534   5.315 -0.3751  0.0829  1.0796
  201MOL0     C27041   6.069   1.509   5.356  0.4847  0.1791  0.7548
  201MOL0     C27042   6.148   1.425   5.243  0.6761  1.0278 -0.5270
  201MOL0     C27043   6.289   1.401   5.277 -0.0522 -0.3914 -0.5012
  201MOL0    Cl27044   6.302   1.287   5.416 -0.1749 -0.2994 -0.0303
  201MOL0     C27045   5.263   1.742   5.558 -0.4105  0.4092  0.5682
  201MOL0     C27046   5.137   1.797   5.557  0.4232  0.3427  0.1518
  201MOL0     O27047   4.893   1.930   5.458 -0.4587 -0.0104 -0.3940
  201MOL0     C27048   4.632   1.984   5.507 -0.2813  0.6996 -0.8309
  201MOL0     C27049   4.494   1.986   5.528 -0.1250 -0.2004 -0.2658
  201MOL0     N27050   3.979   1.545   5.684 -0.7020  0.5872 -0.6655
  201MOL0     N27051   4.007   1.418   5.689 -0.1867 -0.7447  0.5526
  201MOL0     C27052   4.462   0.632   6.239 -0.3328 -0.7824 -0.9361
  201MOL0     C27053   4.598   0.592   6.229  0.4018 -0.3619  0.1094
  201MOL0     C27054   5.025   0.543   6.058 -0.9403 -0.3068 -0.1773
  201MOL0     C27055   5.072   0.553   6.194 -0.1346  0.0326 -0.5467
  201MOL0     C27056   5.205   0.519   6.231 -0.1011  0.1786 -0.4250
  201MOL0     C27057   5.294   0.472   6.134  0.1675 -0.4144  0.2705
  201MOL0     O27058   5.420   0.443   6.182 -0.0203  0.5990 -0.7749
  201MOL0     C27059   5.503   0.343   6.119 -0.4590 -0.7851  0.3504
  201MOL0     C27060   5.469   0.197   6.119 -0.2022 -0.2740  0.2739
  201MOL0     C27061   5.471   0.129   6.253 -0.2707  0.2662 -0.4525
  201MOL0     C27062   5.462  -0.027   6.253 -0.6351 -0.2726 -0.4437
  201MOL0     C27063   5.317  -0.073   6.232  0.4804  0.9165 -0.8133
  201MOL0     C27064   5.194  -0.088   6.226  0.3213 -0.4058 -0.9698
  201MOL0     C27065   5.257   0.466   6.003 -0.2699 -0.6433  0.4017
  201MOL0     C27066   5.124   0.494   5.964 -0.4450  0.3351  0.3290
  201MOL0     C27067   5.090   0.503   5.811  0.4198  0.1274 -0.0982
  201MOL0     H27068   4.692   0.798   5.972  0.5677 -2.0215 -0.5198
  201MOL0     H27069   4.456   0.865   6.000  1.7574  1.9398  1.4666
  201MOL0     H27070   4.170   0.601   6.155  1.9270  0.3549 -0.5781
  201MOL0     H27071   4.221   0.655   6.321 -0.2552  0.5143  0.0902
  201MOL0     H27072   4.086   0.869   6.272 -2.3510  0.7401 -1.1387
  201MOL0     H27073   4.005   0.720   6.317  0.9230  0.1069  2.3558
  201MOL0     H27074   3.947   0.665   6.100 -1.1212 -0.8387 -1.7142
  201MOL0     H27075   4.045   0.797   6.027 -0.4787 -1.5262 -0.7502
  201MOL0     H27076   3.785   0.827   6.050 -1.4806  1.0126  0.5764
  201MOL0     H27077   3.816   0.862   6.216 -1.2477 -2.7265  0.3609
  201MOL0     H27078   3.795   1.062   6.069  0.6160  0.0451 -0.0718
  201MOL0     H27079   3.938   1.054   6.170  1.0661  1.3805 -0.6265
  201MOL0     H27080   4.072   1.027   5.968  0.5200 -0.0486  1.1001
  201MOL0     H27081   3.932   0.986   5.868  0.5131 -0.3223  0.8076
  201MOL0     H27082   3.916   1.263   6.012 -2.1593 -0.3822 -0.8907
  201MOL0     H27083   3.872   1.206   5.852 -0.1233 -0.1626  0.3707
  201MOL0     H27084   4.166   1.278   5.932  1.0997 -0.1845 -1.5157
  201MOL0     H27085   4.120   1.196   5.788 -1.4116 -2.1108  0.8597
  201MOL0     H27086   4.047   1.510   6.001 -0.3149  2.8756 -0.1421
  201MOL0     H27087   3.902   1.804   5.766 -0.6252 -0.4542  0.3386
  201MOL0     H27088   3.855   1.742   5.916  1.2047  0.1425  1.1131
  201MOL0     H27089   4.009   1.907   5.967 -1.3807 -0.7623  1.8235
  201MOL0     H27090   4.109   1.760   5.984 -1.7555 -0.7300 -0.9671
  201MOL0     H27091   4.243   1.934   5.868  0.8125  1.0317 -3.4982
  201MOL0     H27092   4.100   1.982   5.769  0.0620  1.5661  0.1030
  201MOL0     H27093   4.152   1.750   5.663  0.0674 -0.1349 -0.0213
  201MOL0     H27094   4.294   1.743   5.767 -0.7440 -1.6488 -1.0605
  201MOL0     H27095   4.493   1.851   5.841  5.2880  0.5161  1.4331
  201MOL0     H27096   4.731   1.894   5.820  0.0596 -0.5261 -0.3273
  201MOL0     H27097   5.141   1.946   5.864  1.0549  0.6800 -1.1881
  201MOL0     H27098   5.358   1.840   5.870 -0.7015  0.3126  0.6541
  201MOL0     H27099   5.496   1.629   5.501 -2.4693  1.0121  0.3977
  201MOL0     H27100   5.580   1.788   5.515  0.1289  0.8472  0.5689
  201MOL0     H27101   5.747   1.706   5.662 -0.6948 -1.2225  3.1775
  201MOL0     H27102   5.667   1.560   5.706  1.0983  0.4389  0.5188
  201MOL0     H27103   5.825   1.458   5.540  0.9718 -0.3516 -4.0562
  201MOL0     H27104   5.689   1.482   5.456  1.4284 -0.1028  0.5479
  201MOL0     H27105   5.909   1.682   5.481 -0.7958  2.3895 -1.1260
  201MOL0     H27106   5.780   1.692   5.368 -1.2273 -0.9546  0.4282
  201MOL0     H27107   5.923   1.589   5.221 -2.5148  0.3368  1.1527
  201MOL0     H27108   5.875   1.438   5.290  0.7701 -0.2361  0.0945
  201MOL0     H27109   6.121   1.599   5.389  0.6280 -0.6328  2.8673
  201MOL0     H27110   6.059   1.444   5.443  0.0108 -3.0880 -1.5371
  201MOL0     H27111   6.149   1.486   5.151  2.0290  1.8783  0.0241
  201MOL0     H27112   6.107   1.324   5.229  0.6949  0.8325  0.7822
  201MOL0     H27113   6.336   1.349   5.193  0.1382 -0.3586 -0.4155
  201MOL0     H27114   6.341   1.494   5.302  1.2838 -1.8389  2.6295
  201MOL0     H27115   5.286   1.694   5.463 -0.6554  2.0810 -0.3772
  201MOL0     H27116   5.083   1.785   5.464  1.1918 -1.4268 -0.1177
  201MOL0     H27117   4.666   2.015   5.409  0.5658  0.1026 -0.7413
  201MOL0     H27118   4.431   2.039   5.458  0.2855  0.2192 -0.3238
  201MOL0     H27119   4.404   0.579   6.314 -3.1787  0.5564 -2.0070
  201MOL0     H27120   4.638   0.513   6.291 -2.4188 -2.4102 -0.4357
  201MOL0     H27121   5.008   0.563   6.281 -1.9974 -0.6459 -1.7741
  201MOL0     H27122   5.238   0.520   6.335  0.6800  1.0378 -0.6594
  201MOL0     H27123   5.607   0.357   6.152 -0.7039 -3.3500  2.6330
  201MOL0     H27124   5.496   0.365   6.012 -0.6404 -1.1637  0.2817
  201MOL0     H27125   5.553   0.153   6.064  1.4804  0.8312  1.8172
  201MOL0     H27126   5.377   0.178   6.063  0.8146 -2.2595 -0.8136
  201MOL0     H27127   5.395   0.165   6.323  0.2097 -1.7351  1.2086
  201MOL0     H27128   5.567   0.152   6.300  0.0682 -0.4594 -0.7671
  201MOL0     H27129   5.536  -0.067   6.182 -0.7044 -2.6122  0.7190
  201MOL0     H27130   5.500  -0.055   6.351  2.1298  3.2664 -0.3147
  201MOL0     H27131   5.088  -0.075   6.224  0.2757  0.0663  1.2914
  201MOL0     H27132   5.330   0.446   5.925 -1.0442 -2.2520  0.0334
  201MOL0     H27133   4.988   0.514   5.774  1.1687 -0.3667 -2.4970
  201MOL0     H27134   5.141   0.583   5.758  0.4955 -0.1239 -0.4042
  201MOL0     H27135   5.138   0.412   5.773  0.5721 -0.2466  0.9345
  202MOL0     O27136   5.993   8.568   2.038 -0.1176  0.2709 -0.4876
  202MOL0     C27137   5.992   8.556   2.163  0.4526  0.5977  0.0691
  202MOL0     O27138   6.093   8.598   2.249 -0.3656 -0.0829 -0.1630
  202MOL0     C27139   6.212   8.642   2.202 -0.6731 -1.0261  0.4423
  202MOL0     C27140   6.292   8.552   2.126  0.4886 -0.0822 -0.5066
  202MOL0     C27141   6.417   8.595   2.083  0.7611 -0.2435 -1.1143
  202MOL0     C27142   6.447   8.734   2.095 -0.1506 -0.3741 -0.6116
  202MOL0     O27143   6.570   8.781   2.056 -0.4697  0.3495  0.3491
  202MOL0     C27144   6.685   8.697   2.091 -0.1739 -0.3305  0.2847
  202MOL0     C27145   6.804   8.789   2.069  0.7919 -0.5749  0.2204
  202MOL0     C27146   6.800   8.893   2.185  0.1231 -0.0423  0.5341
  202MOL0     C27147   6.879   9.018   2.143  0.0485  0.3341  0.0208
  202MOL0     C27148   7.033   8.998   2.167  0.1571  0.2794 -0.6950
  202MOL0     C27149   7.114   9.129   2.162  0.4610  0.6546  0.6808
  202MOL0     C27150   7.064   9.238   2.268 -0.3694  0.5424 -0.3905
  202MOL0     C27151   7.152   9.370   2.248  0.3252  1.1976 -0.3213
  202MOL0     N27152   7.091   9.491   2.308 -0.4867  0.5165  0.1313
  202MOL0     C27153   7.129   9.558   2.422  0.4024 -0.5652  0.4769
  202MOL0     C27154   7.022   9.643   2.445 -0.5217 -0.5978 -0.0440
  202MOL0     C27155   7.012   9.742   2.558  0.0622 -0.0066 -0.4066
  202MOL0     C27156   7.097   9.863   2.525 -0.3801 -0.1122  0.2204
  202MOL0     C27157   7.052   9.989   2.613 -0.2654  0.6060  0.3224
  202MOL0     C27158   7.132  10.108   2.566 -0.0065  0.8551  0.1816
  202MOL0     O27159   7.277  10.082   2.565  0.6918  0.2172 -0.5369
  202MOL0     C27160   7.329  10.050   2.690 -0.4142  0.1311  0.4336
  202MOL0     C27161   7.320  10.140   2.796 -0.1366 -0.4072 -0.0809
  202MOL0     C27162   7.372  10.109   2.927  0.5406 -0.9132 -0.9185
  202MOL0     C27163   7.436   9.984   2.953 -0.6167 -1.0566 -0.0158
  202MOL0     C27164   7.503   9.949   3.085  0.3165 -0.2303 -0.0365
  202MOL0     O27165   7.577   9.835   3.091 -0.3454 -0.0542  0.4709
  202MOL0     C27166   7.651   9.812   3.207  0.2861 -0.8720 -0.4137
  202MOL0     C27167   7.611   9.818   3.341  0.4526  0.2326  1.0657
  202MOL0     C27168   7.708   9.800   3.442 -0.9651 -0.2408  0.3417
  202MOL0     C27169   7.845   9.758   3.415  0.5211 -0.0203  0.4103
  202MOL0     O27170   7.951   9.747   3.509  0.2394 -0.9468 -0.0201
  202MOL0     C27171   7.903   9.754   3.647 -0.4860 -0.2971  0.2643
  202MOL0     C27172   8.013   9.694   3.726 -0.0536  0.3261  0.1503
  202MOL0     C27173   8.157   9.751   3.700  1.2861 -0.2202  0.4979
  202MOL0     C27174   8.252   9.656   3.774  0.2349 -0.4493 -0.8843
  202MOL0     C27175   8.402   9.664   3.736  0.6734  0.0065  0.4644
  202MOL0     C27176   8.492   9.557   3.800 -0.9764 -0.2991  0.1258
  202MOL0     C27177   8.645   9.573   3.776 -0.5040  0.7139 -0.8346
  202MOL0     C27178   8.717   9.451   3.736  0.0997 -0.2299  0.2074
  202MOL0    Cl27179   8.702   9.328   3.868  0.5614  0.0086  0.6007
  202MOL0     C27180   7.872   9.737   3.276  0.2803 -0.3645  0.6847
  202MOL0     C27181   7.775   9.762   3.177  0.2388  0.0257 -0.6691
  202MOL0     O27182   7.501  10.038   3.176 -0.1334 -0.2569  0.6989
  202MOL0     C27183   7.439   9.898   2.843 -0.1030  0.0877 -0.2924
  202MOL0     C27184   7.385   9.926   2.714  0.8212  0.1322  0.6340
  202MOL0     N27185   6.918   9.614   2.353 -0.5764  0.3505  0.0796
  202MOL0     N27186   6.968   9.527   2.271  0.3979  0.3458  0.1227
  202MOL0     C27187   6.365   8.821   2.165  0.1843  0.0965  0.3304
  202MOL0     C27188   6.249   8.776   2.216 -0.5542 -0.3861  0.2573
  202MOL0     C27189   5.860   8.530   2.231  0.4354 -0.7853 -0.0311
  202MOL0     C27190   5.740   8.592   2.186  0.1706 -0.4435  0.6141
  202MOL0     C27191   5.619   8.586   2.253 -0.1757 -0.6798  0.1640
  202MOL0     C27192   5.611   8.507   2.369 -0.6540 -0.9020  0.4970
  202MOL0     O27193   5.500   8.497   2.441  0.2867 -0.0616  0.5954
  202MOL0     C27194   5.394   8.584   2.415 -0.0343  0.1752  0.2531
  202MOL0     C27195   5.270   8.569   2.507  0.3232 -0.3368  0.4839
  202MOL0     C27196   5.305   8.607   2.648  0.9052 -0.4794 -0.1412
  202MOL0     C27197   5.181   8.613   2.737  0.5082  0.9433 -0.2692
  202MOL0     C27198   5.111   8.744   2.726 -0.7121 -0.2226  0.2515
  202MOL0     C27199   5.029   8.835   2.718 -0.0420 -0.8440 -0.3796
  202MOL0     C27200   5.728   8.454   2.415  0.8799  0.5755 -0.3460
  202MOL0     C27201   5.846   8.456   2.346 -0.0190  0.2557 -0.4696
  202MOL0     C27202   5.951   8.366   2.398 -0.6988 -0.2901 -0.5712
  202MOL0     H27203   6.247   8.457   2.100 -2.5992  1.6248 -2.0295
  202MOL0     H27204   6.496   8.533   2.041  1.5321  0.0809 -0.1980
  202MOL0     H27205   6.668   8.659   2.192 -0.5910  0.4771  0.5313
  202MOL0     H27206   6.688   8.612   2.023 -1.3491 -1.4650  1.5783
  202MOL0     H27207   6.800   8.845   1.975 -1.3446 -0.4306  0.3574
  202MOL0     H27208   6.894   8.728   2.083  0.1120 -2.0061 -1.3088
  202MOL0     H27209   6.835   8.855   2.281  2.7889 -0.1107 -0.4046
  202MOL0     H27210   6.698   8.931   2.201  1.0302  1.1805  4.4948
  202MOL0     H27211   6.856   9.037   2.038  0.1975 -2.4136 -0.5986
  202MOL0     H27212   6.843   9.102   2.203  2.0239 -0.4646  2.5044
  202MOL0     H27213   7.049   8.943   2.261  2.2806  2.5871  0.4002
  202MOL0     H27214   7.067   8.926   2.092 -0.3683 -1.5350  0.7092
  202MOL0     H27215   7.219   9.103   2.178 -0.3082 -4.6566 -0.9515
  202MOL0     H27216   7.101   9.170   2.062 -1.4751 -1.7987 -0.1818
  202MOL0     H27217   7.078   9.202   2.371 -2.0224 -1.8441 -0.9277
  202MOL0     H27218   6.959   9.265   2.254 -0.6972  0.7935  2.0943
  202MOL0     H27219   7.251   9.362   2.293  1.3911  3.3191 -2.0737
  202MOL0     H27220   7.167   9.396   2.143  0.9801  2.8640  0.1592
  202MOL0     H27221   7.223   9.553   2.476  0.7814  1.8057  0.1555
  202MOL0     H27222   6.905   9.764   2.564  0.5654  3.1087 -1.1798
  202MOL0     H27223   7.055   9.690   2.644 -0.1135  0.9294  0.2673
  202MOL0     H27224   7.201   9.831   2.542 -0.8915 -1.7208  0.4779
  202MOL0     H27225   7.093   9.875   2.417 -2.3274 -1.7183  0.0598
  202MOL0     H27226   7.070   9.971   2.719 -1.5428  2.5540  0.9337
  202MOL0     H27227   6.949  10.025   2.603 -0.7989  0.6532  4.3506
  202MOL0     H27228   7.120  10.194   2.633  0.8677  1.1804 -0.0605
  202MOL0     H27229   7.096  10.141   2.468  1.5788  0.3470 -0.6079
  202MOL0     H27230   7.271  10.231   2.765 -0.5415 -1.5676 -3.1761
  202MOL0     H27231   7.361  10.183   3.006  1.1933 -1.5020 -0.2647
  202MOL0     H27232   7.506   9.833   3.362  0.2230 -1.3764  1.1842
  202MOL0     H27233   7.676   9.849   3.534 -2.0618  1.2559 -0.7840
  202MOL0     H27234   7.885   9.855   3.684 -0.5935 -0.4903  0.7472
  202MOL0     H27235   7.811   9.700   3.669 -1.1412  1.0776  1.0524
  202MOL0     H27236   7.992   9.708   3.833 -1.4073  1.8607 -0.2651
  202MOL0     H27237   8.005   9.586   3.712 -1.1667  0.5376 -1.1017
  202MOL0     H27238   8.187   9.769   3.597 -0.9722 -1.0581 -0.3660
  202MOL0     H27239   8.149   9.851   3.744  1.3573  0.6879 -1.4487
  202MOL0     H27240   8.219   9.554   3.754 -2.0951 -0.5093  2.3799
  202MOL0     H27241   8.238   9.669   3.882  1.9501  3.2389 -0.9506
  202MOL0     H27242   8.436   9.765   3.758 -1.8581  0.8951  0.6289
  202MOL0     H27243   8.400   9.656   3.627 -3.4753 -0.3200  0.3975
  202MOL0     H27244   8.472   9.555   3.907 -0.7234 -2.3353  0.1784
  202MOL0     H27245   8.459   9.458   3.767 -0.3191 -0.4007 -0.2670
  202MOL0     H27246   8.694   9.599   3.871 -0.0767 -1.2678 -0.4614
  202MOL0     H27247   8.666   9.648   3.699  3.9534 -0.6364 -1.2481
  202MOL0     H27248   8.676   9.420   3.639  0.4376  1.8802 -0.6667
  202MOL0     H27249   8.820   9.487   3.724 -0.7483  2.3253 -0.0160
  202MOL0     H27250   7.969   9.698   3.247  1.0199  2.2960 -0.7378
  202MOL0     H27251   7.805   9.737   3.076 -1.4384 -1.3257 -0.8810
  202MOL0     H27252   7.480   9.797   2.847  0.4055  0.2572 -0.9529
  202MOL0     H27253   7.393   9.849   2.638 -0.5941 -2.4102  2.8791
  202MOL0     H27254   6.386   8.926   2.182 -0.5531  0.1555  0.9598
  202MOL0     H27255   6.182   8.845   2.265 -3.2978 -2.0383 -0.9406
  202MOL0     H27256   5.760   8.654   2.099  0.8244 -0.9647  0.3894
  202MOL0     H27257   5.539   8.648   2.214  1.5456  1.8367  0.3974
  202MOL0     H27258   5.355   8.561   2.315 -2.1114  0.8295  0.8586
  202MOL0     H27259   5.431   8.687   2.410 -0.7587  0.4504  0.5128
  202MOL0     H27260   5.236   8.466   2.503 -0.4696 -0.0600 -1.7355
  202MOL0     H27261   5.189   8.626   2.460  0.5983 -1.0914 -0.9550
  202MOL0     H27262   5.359   8.703   2.649  0.8728 -0.4293 -1.6088
  202MOL0     H27263   5.373   8.534   2.694  1.3990  0.1372  0.1349
  202MOL0     H27264   5.117   8.525   2.724  3.9701 -1.3914 -3.9575
  202MOL0     H27265   5.213   8.616   2.841 -1.0169  1.9419  0.1866
  202MOL0     H27266   4.957   8.913   2.725  1.8719  0.9542  0.2455
  202MOL0     H27267   5.707   8.391   2.501 -0.3150 -3.1918 -3.1118
  202MOL0     H27268   6.024   8.426   2.453  1.7517 -1.8121 -2.0007
  202MOL0     H27269   5.910   8.291   2.466 -0.0978 -0.1355 -0.0291
  202MOL0     H27270   6.010   8.322   2.318  1.0310  0.5196  0.2065
  203MOL0     O27271   2.915   3.222   6.063 -0.2237  0.0753 -0.7828
  203MOL0     C27272   2.939   3.338   6.087 -0.1272  0.5444  1.2195
  203MOL0     O27273   3.062   3.377   6.133  0.0480 -0.0790  0.3403
  203MOL0     C27274   3.163   3.297   6.176  0.5878  0.2907  0.8262
  203MOL0     C27275   3.171   3.160   6.182 -0.0504  0.1792  0.3562
  203MOL0     C27276   3.291   3.091   6.222  0.2452  0.0372 -0.1583
  203MOL0     C27277   3.400   3.163   6.264  1.2135  0.1426  0.2469
  203MOL0     O27278   3.510   3.090   6.299  0.4226 -0.7881  1.0482
  203MOL0     C27279   3.597   3.140   6.412  0.4412 -0.5622 -0.1748
  203MOL0     C27280   3.719   3.209   6.356  0.6782  1.1396  0.6982
  203MOL0     C27281   3.811   3.267   6.472  0.2744 -0.4584  0.0914
  203MOL0     C27282   3.926   3.355   6.422  0.6474 -0.1379 -0.3567
  203MOL0     C27283   4.028   3.378   6.541  0.7013 -0.1429  0.2549
  203MOL0     C27284   4.165   3.425   6.503  0.0612 -0.3815  0.5213
  203MOL0     C27285   4.230   3.445   6.641  0.1999 -0.2252  0.3685
  203MOL0     C27286   4.373   3.500   6.612  0.3977 -1.0360 -0.8150
  203MOL0     N27287   4.452   3.535   6.733 -0.2085 -0.1004 -0.0510
  203MOL0     C27288   4.408   3.579   6.858  0.1401  0.0841  0.3555
  203MOL0     C27289   4.527   3.594   6.930 -0.5957 -0.0528  0.3564
  203MOL0     C27290   4.554   3.637   7.071 -0.1182 -0.2546  0.0106
  203MOL0     C27291   4.446   3.738   7.121  0.6071 -0.7806 -0.8544
  203MOL0     C27292   4.472   3.797   7.260 -0.3985 -0.0983  0.2812
  203MOL0     C27293   4.419   3.943   7.269 -0.0233 -0.0236  0.6605
  203MOL0     O27294   4.483   4.047   7.196  0.2785  0.9803  0.5160
  203MOL0     C27295   4.622   4.078   7.214 -0.3267 -0.3624  0.4666
  203MOL0     C27296   4.679   4.141   7.106 -0.1190 -0.5925  0.0973
  203MOL0     C27297   4.801   4.204   7.100 -0.0427  0.6717 -0.6117
  203MOL0     C27298   4.879   4.192   7.214  0.5690  0.0955 -0.9868
  203MOL0     C27299   5.015   4.249   7.216 -0.1378  0.1761  0.2162
  203MOL0     O27300   5.086   4.215   7.321 -0.7649  0.1785 -0.7147
  203MOL0     C27301   5.210   4.276   7.348 -0.9624  0.0256  0.5053
  203MOL0     C27302   5.254   4.404   7.300  0.2235  0.3710  0.2759
  203MOL0     C27303   5.378   4.457   7.355 -0.5367  0.1500  0.2116
  203MOL0     C27304   5.452   4.381   7.443  0.6220 -0.2546 -0.2747
  203MOL0     O27305   5.569   4.413   7.509 -0.0627 -0.0835 -0.4096
  203MOL0     C27306   5.618   4.547   7.508  0.4851  0.0044  0.5063
  203MOL0     C27307   5.751   4.542   7.590  0.0880  0.7852 -0.0891
  203MOL0     C27308   5.830   4.665   7.579 -0.5386 -1.3314 -0.1694
  203MOL0     C27309   5.978   4.667   7.635 -0.5093  0.0346  0.3746
  203MOL0     C27310   6.053   4.798   7.598  0.3469  0.7298  0.5111
  203MOL0     C27311   6.188   4.796   7.674  0.5466 -0.3177  0.0115
  203MOL0     C27312   6.280   4.911   7.652  0.3378 -0.8385  0.4798
  203MOL0     C27313   6.416   4.888   7.722 -0.7388  0.0952 -0.0835
  203MOL0    Cl27314   6.545   5.007   7.665  0.3354 -0.0499 -0.0613
  203MOL0     C27315   5.407   4.256   7.483 -0.4669  0.0938  0.4221
  203MOL0     C27316   5.291   4.200   7.425  0.1281  0.2141 -0.2394
  203MOL0     O27317   5.055   4.302   7.111 -0.1514 -0.0020  1.1102
  203MOL0     C27318   4.825   4.124   7.327 -0.3879 -0.0268  0.1576
  203MOL0     C27319   4.704   4.056   7.324  0.5815 -0.2493  0.1342
  203MOL0     N27320   4.633   3.567   6.847 -0.3237 -0.3896  0.2102
  203MOL0     N27321   4.591   3.524   6.735  1.0221  0.4008 -0.0111
  203MOL0     C27322   3.395   3.303   6.264 -0.2829  0.4870  0.1513
  203MOL0     C27323   3.280   3.368   6.212  0.5049 -0.5279  0.0820
  203MOL0     C27324   2.833   3.435   6.044  0.4329  0.2688 -0.0359
  203MOL0     C27325   2.889   3.565   6.013  0.5266  0.8678  0.3528
  203MOL0     C27326   2.806   3.664   5.969  0.9376 -0.5092 -0.6175
  203MOL0     C27327   2.668   3.648   5.983  0.7092 -0.1982  0.4781
  203MOL0     O27328   2.591   3.763   5.975  0.6506  0.0347 -0.7328
  203MOL0     C27329   2.466   3.738   5.918  0.5447 -0.0056 -0.8507
  203MOL0     C27330   2.417   3.881   5.851 -0.2646 -0.2788 -0.2005
  203MOL0     C27331   2.337   3.967   5.956  0.2031  0.4605 -0.4705
  203MOL0     C27332   2.192   3.923   5.971 -0.5798 -1.0117 -0.1921
  203MOL0     C27333   2.133   4.013   6.068 -0.9387  0.0504 -0.0355
  203MOL0     C27334   2.085   4.083   6.163  0.1062  0.1175 -1.1681
  203MOL0     C27335   2.616   3.517   6.013 -0.3568  0.1600  0.3939
  203MOL0     C27336   2.697   3.411   6.040 -0.5155  0.0107 -0.3802
  203MOL0     C27337   2.615   3.278   6.061  0.3422 -0.1203  0.3084
  203MOL0     H27338   3.094   3.084   6.170  1.2608 -1.4868  1.8365
  203MOL0     H27339   3.291   2.983   6.228 -2.4454 -0.0387 -0.3939
  203MOL0     H27340   3.542   3.216   6.469  1.6477 -0.9850  1.5979
  203MOL0     H27341   3.636   3.065   6.481  3.9983  2.2143  1.1295
  203MOL0     H27342   3.706   3.280   6.274 -2.2955  0.6640  0.6731
  203MOL0     H27343   3.775   3.130   6.304 -1.2562  0.0416  0.1727
  203MOL0     H27344   3.856   3.191   6.536  0.9766 -1.1273 -1.1539
  203MOL0     H27345   3.747   3.338   6.526  0.9117  0.5856 -0.4847
  203MOL0     H27346   3.970   3.304   6.335 -2.7656  0.9367 -2.9349
  203MOL0     H27347   3.889   3.452   6.388 -3.5119 -2.4225 -3.2831
  203MOL0     H27348   3.979   3.448   6.610  1.9428  0.2791  0.7579
  203MOL0     H27349   4.049   3.283   6.591 -0.3773 -0.8392 -0.5771
  203MOL0     H27350   4.223   3.358   6.439  1.0613 -0.0729  1.0866
  203MOL0     H27351   4.155   3.519   6.449  3.4174  0.5250  1.2797
  203MOL0     H27352   4.228   3.349   6.692  0.8665 -0.4774 -0.0721
  203MOL0     H27353   4.172   3.518   6.699 -1.0961 -0.6806 -0.3082
  203MOL0     H27354   4.425   3.416   6.565 -0.8445 -2.0829 -0.3788
  203MOL0     H27355   4.383   3.591   6.553 -1.2052 -2.0314 -2.7459
  203MOL0     H27356   4.308   3.575   6.900 -0.3656 -0.9964 -0.9050
  203MOL0     H27357   4.557   3.545   7.130 -2.1468 -0.3505  0.0361
  203MOL0     H27358   4.656   3.677   7.078 -0.4948  0.8024 -0.2494
  203MOL0     H27359   4.457   3.819   7.049  0.5929 -1.2686 -1.4078
  203MOL0     H27360   4.345   3.696   7.120  1.1044 -2.4041  2.3836
  203MOL0     H27361   4.580   3.796   7.279  0.2368 -3.7881 -2.2883
  203MOL0     H27362   4.421   3.737   7.336  1.9596 -1.6186  0.7910
  203MOL0     H27363   4.413   3.965   7.376  2.6588 -1.2561  1.1455
  203MOL0     H27364   4.320   3.932   7.224 -0.2330 -0.2681  1.1616
  203MOL0     H27365   4.630   4.134   7.009  1.2353 -2.8376 -0.5057
  203MOL0     H27366   4.831   4.234   7.001 -1.1836  2.6738 -0.4085
  203MOL0     H27367   5.201   4.465   7.228  2.5553  1.1931 -0.8678
  203MOL0     H27368   5.413   4.554   7.321 -2.3174  0.8275  0.1856
  203MOL0     H27369   5.651   4.571   7.407 -2.7096  0.6988 -0.4794
  203MOL0     H27370   5.541   4.614   7.547 -1.0086 -1.5370  0.3530
  203MOL0     H27371   5.725   4.509   7.691 -4.0524  1.1033 -0.8849
  203MOL0     H27372   5.808   4.463   7.540 -1.1511  0.8377 -1.6502
  203MOL0     H27373   5.830   4.688   7.472 -0.7616 -2.1935 -0.3574
  203MOL0     H27374   5.776   4.751   7.620  1.7461 -0.2841  0.8256
  203MOL0     H27375   6.034   4.579   7.602 -0.6848  0.3674 -0.8448
  203MOL0     H27376   5.966   4.654   7.743  0.1880 -3.9009  0.1500
  203MOL0     H27377   5.995   4.890   7.612  1.9830  1.7767  0.7612
  203MOL0     H27378   6.078   4.799   7.492  2.8028 -0.4351  1.0203
  203MOL0     H27379   6.161   4.794   7.780 -1.2763 -1.3167 -0.4275
  203MOL0     H27380   6.245   4.707   7.644 -1.5150 -2.0436  0.9115
  203MOL0     H27381   6.241   5.007   7.688  2.0349  0.4649 -1.0004
  203MOL0     H27382   6.295   4.941   7.547  0.9614 -3.2523 -0.1764
  203MOL0     H27383   6.407   4.886   7.831 -3.1755  0.0673 -0.2292
  203MOL0     H27384   6.448   4.790   7.685  1.8702  1.0834 -0.6212
  203MOL0     H27385   5.466   4.203   7.557 -1.6715 -1.7447  0.1456
  203MOL0     H27386   5.266   4.097   7.451  1.4846 -0.0706  0.0111
  203MOL0     H27387   4.879   4.119   7.420  1.3945  0.8002 -0.7715
  203MOL0     H27388   4.661   4.009   7.411  0.8617 -2.7085 -0.9665
  203MOL0     H27389   3.478   3.365   6.296 -0.5000  0.9338 -0.1464
  203MOL0     H27390   3.262   3.474   6.200 -2.3175 -1.0445 -0.9945
  203MOL0     H27391   2.992   3.597   6.020  0.2646  1.4087  2.3472
  203MOL0     H27392   2.839   3.766   5.955  0.8070 -0.3496  0.1580
  203MOL0     H27393   2.393   3.698   5.989 -0.4048 -1.0996 -2.3826
  203MOL0     H27394   2.472   3.660   5.842  1.7846  1.4543 -2.3250
  203MOL0     H27395   2.357   3.867   5.760 -1.0142 -3.4683  0.6327
  203MOL0     H27396   2.510   3.934   5.830  0.1374 -2.1335 -3.9836
  203MOL0     H27397   2.335   4.068   5.915  0.6173  1.1078  1.0470
  203MOL0     H27398   2.395   3.978   6.048 -0.5326 -0.1472  0.0828
  203MOL0     H27399   2.151   3.960   5.877  4.6337 -0.0157 -2.4423
  203MOL0     H27400   2.172   3.816   5.988 -0.4939 -1.2064 -1.2926
  203MOL0     H27401   2.049   4.153   6.236  0.3082  1.3740 -2.2229
  203MOL0     H27402   2.510   3.497   6.013 -0.1481 -1.0544 -0.2994
  203MOL0     H27403   2.516   3.299   6.102  0.4611 -0.4997  0.8074
  203MOL0     H27404   2.610   3.231   5.963 -3.2298 -1.0328  0.7798
  203MOL0     H27405   2.669   3.223   6.139  0.3033 -0.3993  0.1423
  204MOL0     O27406   9.007   2.144   8.651  0.7482  0.6893  0.0919
  204MOL0     C27407   8.998   2.074   8.551  0.9675  0.8162 -0.2080
  204MOL0     O27408   9.100   2.021   8.479 -0.0797 -0.1823 -0.2035
  204MOL0     C27409   9.224   2.027   8.549  0.1620  1.0065  0.3895
  204MOL0     C27410   9.251   1.915   8.636 -0.4746 -0.5209  1.2308
  204MOL0     C27411   9.366   1.914   8.713 -0.3405  0.4655  0.2405
  204MOL0     C27412   9.461   2.016   8.699 -0.8533 -0.0978 -0.4601
  204MOL0     O27413   9.593   2.006   8.741  0.4022 -0.1909  0.0295
  204MOL0     C27414   9.626   2.012   8.877 -0.7098 -1.3809 -0.3373
  204MOL0     C27415   9.775   2.038   8.905 -0.0621 -1.5161 -0.5514
  204MOL0     C27416   9.816   2.188   8.890  0.1396  0.9468 -0.3605
  204MOL0     C27417   9.803   2.224   8.747 -0.3025  0.0923  0.1583
  204MOL0     C27418   9.864   2.362   8.723 -0.6020 -0.2488 -0.0167
  204MOL0     C27419   9.832   2.409   8.575 -0.5571 -0.3381 -0.0662
  204MOL0     C27420   9.930   2.513   8.516 -0.6478 -0.6521 -0.4571
  204MOL0     C27421  10.003   2.600   8.623 -0.4232 -0.1280 -0.8564
  204MOL0     N27422  10.102   2.690   8.562  0.1543  0.0219  0.2950
  204MOL0     C27423  10.229   2.660   8.512 -0.5771  0.0367  0.6106
  204MOL0     C27424  10.273   2.786   8.481 -0.0847 -0.3567  0.6846
  204MOL0     C27425  10.417   2.819   8.438  0.7086 -0.3331  0.1908
  204MOL0     C27426  10.478   2.914   8.533  1.1089  1.1711 -0.1072
  204MOL0     C27427  10.612   2.947   8.469  0.6005  0.6068 -0.1353
  204MOL0     C27428  10.682   3.061   8.544  1.0709 -0.4039 -0.9109
  204MOL0     O27429  10.749   3.003   8.657  1.0076 -0.1770  0.4309
  204MOL0     C27430  10.884   3.003   8.655  0.5008  0.1005 -0.8523
  204MOL0     C27431  10.948   2.881   8.670 -0.0814 -0.1408  0.2115
  204MOL0     C27432  11.084   2.885   8.658 -0.3538 -0.3123 -0.6934
  204MOL0     C27433  11.163   3.005   8.635 -0.2512 -0.3042 -0.1447
  204MOL0     C27434  11.310   2.995   8.638  0.5242 -0.4048  0.8082
  204MOL0     O27435  11.361   2.870   8.642 -0.5161 -0.4519 -0.2186
  204MOL0     C27436  11.497   2.841   8.622 -0.1651 -0.6950 -0.4498
  204MOL0     C27437  11.572   2.915   8.532  0.6443  0.2825  1.5614
  204MOL0     C27438  11.705   2.874   8.510 -0.4362  0.6761  0.2089
  204MOL0     C27439  11.761   2.758   8.571  0.4184  0.2375  0.8465
  204MOL0     O27440  11.887   2.717   8.544 -0.8071  1.1099 -0.2398
  204MOL0     C27441  11.909   2.657   8.414 -0.1382 -0.4385  0.0950
  204MOL0     C27442  12.049   2.625   8.391 -0.7029 -0.5409  0.5306
  204MOL0     C27443  12.144   2.738   8.429 -0.4612  0.4250  0.7818
  204MOL0     C27444  12.288   2.698   8.415 -1.2881 -0.1017 -0.6913
  204MOL0     C27445  12.369   2.690   8.546  0.1156  0.1171 -0.7691
  204MOL0     C27446  12.516   2.679   8.515 -0.4473 -0.7044 -1.0580
  204MOL0     C27447  12.587   2.656   8.648 -0.1872  0.5278  0.0607
  204MOL0     C27448  12.728   2.592   8.635  0.3628 -0.4817  0.0009
  204MOL0    Cl27449  12.854   2.699   8.574  0.0155 -0.1951 -0.4331
  204MOL0     C27450  11.689   2.695   8.659  0.6765 -0.3071  0.2919
  204MOL0     C27451  11.554   2.728   8.688  0.1095 -0.5682 -0.2106
  204MOL0     O27452  11.372   3.098   8.650  0.8839 -0.4896 -0.1548
  204MOL0     C27453  11.095   3.127   8.626 -0.4721 -0.3550 -0.2844
  204MOL0     C27454  10.956   3.123   8.631  1.1641 -0.0651  0.3268
  204MOL0     N27455  10.179   2.875   8.513 -0.0965  0.2955  0.1706
  204MOL0     N27456  10.071   2.818   8.557  0.2786 -0.2266  0.0643
  204MOL0     C27457   9.430   2.115   8.611 -1.5794 -0.5149 -0.3694
  204MOL0     C27458   9.323   2.127   8.534  1.2052  0.1173  0.1203
  204MOL0     C27459   8.857   2.060   8.499 -0.1408  1.2893 -0.9092
  204MOL0     C27460   8.747   2.088   8.588  0.4595  0.5904 -0.5586
  204MOL0     C27461   8.616   2.051   8.550 -0.0074 -0.7508  0.3276
  204MOL0     C27462   8.589   2.010   8.415  0.3826 -0.5579 -0.3650
  204MOL0     O27463   8.465   1.973   8.363  0.3319 -0.3025  0.5116
  204MOL0     C27464   8.353   1.985   8.447 -0.4272  0.0809 -0.2146
  204MOL0     C27465   8.241   1.903   8.385 -0.1109 -0.2276 -0.0112
  204MOL0     C27466   8.258   1.752   8.411  0.1464 -0.2497  0.5636
  204MOL0     C27467   8.221   1.673   8.287 -0.2991  0.1962  0.6718
  204MOL0     C27468   8.331   1.661   8.197 -0.1826  0.0745 -0.5943
  204MOL0     C27469   8.426   1.637   8.131 -0.1277  0.0801 -0.2031
  204MOL0     C27470   8.695   1.993   8.326  0.3491 -0.1993 -0.5461
  204MOL0     C27471   8.827   2.006   8.372 -0.4094 -0.2958  0.6995
  204MOL0     C27472   8.932   1.970   8.270 -0.3762 -0.3061  1.1133
  204MOL0     H27473   9.173   1.839   8.636  1.7811 -2.9565  1.4878
  204MOL0     H27474   9.375   1.827   8.777 -1.7006  1.1618  1.4325
  204MOL0     H27475   9.564   2.095   8.912  1.3374  1.0664 -2.1772
  204MOL0     H27476   9.586   1.925   8.930 -0.3290 -1.0559  0.4970
  204MOL0     H27477   9.847   1.973   8.855  1.1126 -0.5112 -0.2290
  204MOL0     H27478   9.797   2.032   9.012 -2.5872  1.8859  0.3255
  204MOL0     H27479   9.923   2.192   8.914  0.3841  2.4984 -1.5360
  204MOL0     H27480   9.761   2.258   8.953  0.0688  2.0406 -1.5945
  204MOL0     H27481   9.853   2.142   8.694 -2.0786 -0.9617  0.0157
  204MOL0     H27482   9.700   2.220   8.710  0.0854  0.3334 -0.9871
  204MOL0     H27483   9.833   2.435   8.798 -0.5501  0.0330 -0.2673
  204MOL0     H27484   9.967   2.331   8.742 -0.7407 -1.6226 -1.2796
  204MOL0     H27485   9.840   2.321   8.511 -1.1250  0.9542 -2.0016
  204MOL0     H27486   9.733   2.457   8.575  0.7253  2.6428  1.9098
  204MOL0     H27487   9.883   2.573   8.438  0.0827 -1.1266 -1.2905
  204MOL0     H27488  10.017   2.464   8.469  2.0003  3.4658 -0.3692
  204MOL0     H27489   9.930   2.653   8.685  0.4760 -0.3836  0.4445
  204MOL0     H27490  10.062   2.539   8.692  3.0577  2.6121 -1.1392
  204MOL0     H27491  10.296   2.576   8.496  1.5870  1.7624  0.2173
  204MOL0     H27492  10.477   2.729   8.448 -1.4337 -1.6370  2.5528
  204MOL0     H27493  10.424   2.858   8.336 -0.0238  1.6623  0.8511
  204MOL0     H27494  10.415   3.003   8.537  0.9673  1.1751 -1.7574
  204MOL0     H27495  10.480   2.872   8.634 -2.0563  1.1745  0.0663
  204MOL0     H27496  10.580   2.981   8.370 -2.3519 -2.9450 -0.6574
  204MOL0     H27497  10.678   2.861   8.454 -1.9270 -1.0125 -3.2167
  204MOL0     H27498  10.611   3.138   8.576  1.2637 -2.0331  4.2748
  204MOL0     H27499  10.743   3.113   8.470  1.5721 -1.4172 -1.2349
  204MOL0     H27500  10.895   2.792   8.703 -1.7464  0.7330 -0.0279
  204MOL0     H27501  11.131   2.794   8.692  0.7795  0.7046  0.5904
  204MOL0     H27502  11.535   2.999   8.475 -2.1066 -1.2814  0.8967
  204MOL0     H27503  11.770   2.943   8.457 -1.0891  0.4174 -0.9739
  204MOL0     H27504  11.840   2.572   8.405  0.3572 -0.9393  0.9033
  204MOL0     H27505  11.876   2.722   8.333 -1.4090 -0.3982  0.6085
  204MOL0     H27506  12.058   2.535   8.452 -1.0591 -1.2393 -0.4153
  204MOL0     H27507  12.053   2.598   8.285  2.3677  1.4999 -0.0038
  204MOL0     H27508  12.127   2.831   8.374  4.6190  1.8527  1.1770
  204MOL0     H27509  12.130   2.760   8.535  2.0143  2.8417  0.7091
  204MOL0     H27510  12.344   2.770   8.355 -1.1944 -0.1012 -0.6033
  204MOL0     H27511  12.296   2.601   8.367 -0.4615  0.7158 -2.2585
  204MOL0     H27512  12.326   2.603   8.596  1.3923  0.2134  0.5411
  204MOL0     H27513  12.349   2.768   8.619  0.1739 -2.3050  1.9974
  204MOL0     H27514  12.528   2.589   8.454 -1.5318 -3.0134  1.9054
  204MOL0     H27515  12.560   2.767   8.466  0.7360  1.6252  3.5897
  204MOL0     H27516  12.530   2.590   8.714 -0.7692  0.1400 -0.8125
  204MOL0     H27517  12.601   2.752   8.699 -1.4307  0.9299 -0.3345
  204MOL0     H27518  12.768   2.566   8.733  2.6286 -0.8141 -0.9513
  204MOL0     H27519  12.728   2.503   8.572 -1.3673  0.7954 -1.9455
  204MOL0     H27520  11.742   2.609   8.700  1.6360 -0.2752 -0.8393
  204MOL0     H27521  11.498   2.660   8.752 -1.3982  0.4942 -0.3357
  204MOL0     H27522  11.142   3.224   8.617  0.0337 -0.4440  1.1575
  204MOL0     H27523  10.903   3.215   8.608 -0.2965 -1.0154 -0.2682
  204MOL0     H27524   9.496   2.197   8.585  0.9972 -1.2785  3.1006
  204MOL0     H27525   9.298   2.200   8.457 -0.6881 -0.6688 -0.0800
  204MOL0     H27526   8.772   2.128   8.686  0.9473  0.4644 -0.6318
  204MOL0     H27527   8.539   2.090   8.616  1.2744 -0.8311  1.9413
  204MOL0     H27528   8.321   2.090   8.451 -2.3049 -0.4183 -1.1107
  204MOL0     H27529   8.373   1.943   8.545  1.8014 -1.7669 -1.3695
  204MOL0     H27530   8.235   1.925   8.278  0.1880 -3.7951 -0.9056
  204MOL0     H27531   8.148   1.929   8.436 -0.2505  0.2158 -0.4815
  204MOL0     H27532   8.195   1.721   8.494 -0.1718  1.5771  1.0382
  204MOL0     H27533   8.360   1.737   8.447  0.6815  2.3460  0.2690
  204MOL0     H27534   8.182   1.573   8.309 -0.9231 -1.0792 -4.8206
  204MOL0     H27535   8.137   1.718   8.233  1.2371 -0.1005 -2.1183
  204MOL0     H27536   8.512   1.625   8.069  4.0789  1.4101  4.6950
  204MOL0     H27537   8.669   1.970   8.223 -3.6548 -0.6392  0.4108
  204MOL0     H27538   8.979   2.067   8.252 -0.9932  0.3175  2.6400
  204MOL0     H27539   9.009   1.900   8.304  0.6562 -0.6947 -1.7581
  204MOL0     H27540   8.892   1.923   8.179  0.2714  0.3301  0.4867
  205MOL0     O27541   6.053   9.716   8.558  0.6375  0.2652 -0.0018
  205MOL0     C27542   6.045   9.651   8.659  0.3849 -0.7201  0.0640
  205MOL0     O27543   6.147   9.625   8.737  0.2680 -0.2576 -0.1379
  205MOL0     C27544   6.265   9.691   8.717 -0.1109 -0.6387 -0.5018
  205MOL0     C27545   6.311   9.781   8.814  0.1995 -0.4077 -1.0797
  205MOL0     C27546   6.428   9.846   8.811 -0.4494 -0.5364  0.2475
  205MOL0     C27547   6.498   9.837   8.691  0.8017  0.3865 -0.1359
  205MOL0     O27548   6.618   9.907   8.695  0.6171  0.0469  0.5879
  205MOL0     C27549   6.718   9.875   8.595  0.3444 -0.3075 -0.6506
  205MOL0     C27550   6.842   9.934   8.652 -0.5526  0.9723 -0.8720
  205MOL0     C27551   6.853  10.086   8.652 -0.1598 -0.0713  0.5873
  205MOL0     C27552   6.971  10.144   8.718 -1.0816  0.0177 -0.0264
  205MOL0     C27553   7.096  10.153   8.620 -0.9234 -0.4677  0.0253
  205MOL0     C27554   7.201  10.233   8.699 -0.5522  0.0713 -0.4406
  205MOL0     C27555   7.344  10.207   8.646  0.4604  0.2488  0.0350
  205MOL0     C27556   7.400  10.074   8.695  0.2603  0.1374  0.3956
  205MOL0     N27557   7.504  10.029   8.599 -0.0249  0.6979  0.0549
  205MOL0     C27558   7.633  10.041   8.620  0.0596  0.1217 -1.0085
  205MOL0     C27559   7.689   9.961   8.524 -1.5408  0.5799  0.6144
  205MOL0     C27560   7.836   9.927   8.499  0.1007 -0.3199  0.1747
  205MOL0     C27561   7.852   9.780   8.539 -0.2856 -1.0901  0.7145
  205MOL0     C27562   7.999   9.730   8.518  0.1802  0.3818  0.3049
  205MOL0     C27563   8.071   9.747   8.656 -0.3503 -0.4727  0.6571
  205MOL0     O27564   8.075   9.880   8.687  0.6112 -0.1090  0.0539
  205MOL0     C27565   8.196   9.946   8.701 -1.1746  0.1496  1.0644
  205MOL0     C27566   8.331   9.896   8.721 -0.5333 -0.7698  0.2368
  205MOL0     C27567   8.440   9.986   8.733 -0.3896  0.1997  0.2129
  205MOL0     C27568   8.414  10.123   8.733 -0.3899  0.2568  0.5988
  205MOL0     C27569   8.523  10.217   8.782  0.2052  0.3509  1.0863
  205MOL0     O27570   8.635  10.162   8.831  0.5021 -0.5623  0.3726
  205MOL0     C27571   8.758  10.220   8.821 -0.7151 -0.0045 -0.7571
  205MOL0     C27572   8.855  10.190   8.917 -0.7070  0.2391  0.1124
  205MOL0     C27573   8.989  10.227   8.902 -0.0716  0.1028  0.2478
  205MOL0     C27574   9.028  10.324   8.809  0.2033 -0.5196  0.2966
  205MOL0     O27575   9.161  10.358   8.811  0.4909  0.4565  0.4838
  205MOL0     C27576   9.217  10.436   8.707  0.5526 -0.2051 -0.0449
  205MOL0     C27577   9.369  10.431   8.721  0.1616  0.6102  0.5313
  205MOL0     C27578   9.452  10.487   8.604  0.0230  0.3005  0.6416
  205MOL0     C27579   9.597  10.528   8.644  0.3767  0.3055 -0.5979
  205MOL0     C27580   9.664  10.590   8.521  0.2545  0.5415 -0.2033
  205MOL0     C27581   9.817  10.604   8.543  0.1513 -0.5931  0.3680
  205MOL0     C27582   9.871  10.694   8.659  0.9539 -0.4478 -0.1237
  205MOL0     C27583  10.030  10.690   8.668 -0.1420 -0.8570  0.2014
  205MOL0    Cl27584  10.072  10.550   8.773 -0.1560 -0.1510 -0.4686
  205MOL0     C27585   8.930  10.359   8.712  0.2692 -0.4549  0.2174
  205MOL0     C27586   8.796  10.314   8.717 -0.7527  0.4086 -0.2298
  205MOL0     O27587   8.489  10.332   8.792 -0.4714 -0.1804  0.1370
  205MOL0     C27588   8.282  10.171   8.699 -0.5219  0.6811  0.3126
  205MOL0     C27589   8.174  10.079   8.687  0.2860  0.0240  0.8257
  205MOL0     N27590   7.589   9.922   8.437  0.1611 -0.1325  0.5402
  205MOL0     N27591   7.480   9.964   8.484  0.9586 -0.0962 -0.0746
  205MOL0     C27592   6.461   9.753   8.587 -0.2380  0.4792 -0.0856
  205MOL0     C27593   6.345   9.671   8.603 -0.2288  1.0326 -0.3759
  205MOL0     C27594   5.909   9.595   8.695  0.8183  0.4607  0.3757
  205MOL0     C27595   5.905   9.534   8.821  0.3235  0.6615  0.1740
  205MOL0     C27596   5.784   9.499   8.877  0.4992 -0.7494  0.0876
  205MOL0     C27597   5.662   9.529   8.811  0.0981 -0.0925 -0.2062
  205MOL0     O27598   5.534   9.522   8.857  0.4357  0.4082  0.1488
  205MOL0     C27599   5.498   9.439   8.969  0.7079  0.1312  0.0388
  205MOL0     C27600   5.343   9.427   8.987 -0.3626  0.0093 -0.6946
  205MOL0     C27601   5.320   9.327   9.108 -0.0046  0.2978  0.3288
  205MOL0     C27602   5.218   9.366   9.215  0.0248 -0.0907  0.7317
  205MOL0     C27603   5.115   9.457   9.163  0.2348 -0.3804 -0.3313
  205MOL0     C27604   5.030   9.533   9.134 -0.6326 -0.0077  0.2462
  205MOL0     C27605   5.666   9.580   8.676  0.2706  0.0273 -0.6539
  205MOL0     C27606   5.790   9.617   8.628 -0.1312  0.7995 -0.1143
  205MOL0     C27607   5.784   9.674   8.483 -0.2660  0.9308 -0.4298
  205MOL0     H27608   6.253   9.789   8.905  2.3046  2.4168  0.1781
  205MOL0     H27609   6.457   9.922   8.882  2.0139  0.1605 -1.3841
  205MOL0     H27610   6.731   9.769   8.573 -2.5152 -0.3732 -2.6499
  205MOL0     H27611   6.698   9.920   8.497 -1.1196 -0.5875 -0.5121
  205MOL0     H27612   6.930   9.901   8.596 -0.8942 -1.8196  0.0754
  205MOL0     H27613   6.859   9.887   8.749  0.5766  1.8735 -0.6148
  205MOL0     H27614   6.772  10.121   8.717  1.9686 -1.4496  4.2424
  205MOL0     H27615   6.839  10.110   8.546 -1.9411 -2.3029  0.2277
  205MOL0     H27616   6.940  10.244   8.750  0.5386  0.6566 -0.3342
  205MOL0     H27617   6.999  10.089   8.808 -1.5492  0.1755  0.2204
  205MOL0     H27618   7.128  10.050   8.603 -1.2613 -0.3827 -1.2188
  205MOL0     H27619   7.077  10.204   8.525  1.9835  0.4664 -0.1825
  205MOL0     H27620   7.178  10.339   8.688 -2.0487 -0.3486 -1.6977
  205MOL0     H27621   7.194  10.202   8.804 -0.8508 -1.5562 -0.9134
  205MOL0     H27622   7.406  10.292   8.676  0.6816  0.3242 -0.6211
  205MOL0     H27623   7.336  10.197   8.538 -0.9097  0.2170  0.1215
  205MOL0     H27624   7.444  10.089   8.794 -1.0449  1.6188  0.7838
  205MOL0     H27625   7.318  10.003   8.708 -1.1717  1.2835 -1.7736
  205MOL0     H27626   7.672  10.096   8.704 -1.0291 -1.0489  0.3209
  205MOL0     H27627   7.869   9.941   8.395  2.6358  2.9826  1.2596
  205MOL0     H27628   7.893   9.994   8.563  1.3181  0.1405 -1.3273
  205MOL0     H27629   7.835   9.765   8.646  0.5190  0.3439  1.0663
  205MOL0     H27630   7.795   9.714   8.472  0.7652 -1.1768 -0.1313
  205MOL0     H27631   8.040   9.777   8.427 -2.8278  0.0440 -1.3567
  205MOL0     H27632   7.997   9.625   8.487  0.9205  0.9055 -1.6673
  205MOL0     H27633   8.170   9.703   8.645  0.2287  0.8120  0.4615
  205MOL0     H27634   8.015   9.692   8.732 -1.3540 -2.6607 -1.5447
  205MOL0     H27635   8.355   9.790   8.714 -0.5272 -0.6784 -2.6845
  205MOL0     H27636   8.533   9.936   8.758 -0.1483  0.6255  0.1717
  205MOL0     H27637   8.817  10.124   8.994 -2.6865 -0.0764 -1.0460
  205MOL0     H27638   9.065  10.191   8.970 -0.4238  0.8697  1.0769
  205MOL0     H27639   9.181  10.399   8.610  2.4061  2.3030 -1.8447
  205MOL0     H27640   9.188  10.540   8.726  3.1035 -0.1146  4.9239
  205MOL0     H27641   9.380  10.483   8.816  0.4254  1.1724  0.2001
  205MOL0     H27642   9.400  10.328   8.734 -0.6776  0.3304  0.3976
  205MOL0     H27643   9.463  10.411   8.526 -0.9517  3.1238 -2.4971
  205MOL0     H27644   9.392  10.559   8.547 -1.6339 -2.2013 -0.9787
  205MOL0     H27645   9.653  10.439   8.673  1.5018  1.4786  0.9949
  205MOL0     H27646   9.579  10.595   8.728  2.8325 -1.4596  1.4939
  205MOL0     H27647   9.618  10.685   8.492  0.4244  0.2023 -1.6339
  205MOL0     H27648   9.645  10.519   8.440 -0.5410 -0.8031  1.1095
  205MOL0     H27649   9.866  10.507   8.559  0.6104 -0.7120 -1.5248
  205MOL0     H27650   9.851  10.634   8.443 -1.3281  1.2608  0.3798
  205MOL0     H27651   9.822  10.668   8.753  1.8102  0.1867  0.5216
  205MOL0     H27652   9.844  10.798   8.637  0.2405 -0.7687 -0.8046
  205MOL0     H27653  10.079  10.679   8.571  1.5698 -5.2569  1.3471
  205MOL0     H27654  10.067  10.774   8.728  0.3531 -1.9707  1.4960
  205MOL0     H27655   8.971  10.415   8.628  5.1918 -3.2604  0.3288
  205MOL0     H27656   8.725  10.334   8.638 -0.8168  0.3157 -0.1964
  205MOL0     H27657   8.259  10.276   8.689 -2.0925  0.2190 -1.6431
  205MOL0     H27658   8.069  10.104   8.671  0.0200 -2.2645 -1.6312
  205MOL0     H27659   6.528   9.751   8.501  2.1331 -0.5540  1.6527
  205MOL0     H27660   6.298   9.597   8.539 -2.3243  1.1945  0.8959
  205MOL0     H27661   5.994   9.532   8.883  0.4164 -0.5266  0.0119
  205MOL0     H27662   5.774   9.468   8.981 -0.6570  1.6834  0.7711
  205MOL0     H27663   5.530   9.491   9.060  0.1600  2.6179 -1.1227
  205MOL0     H27664   5.545   9.341   8.958 -3.1941 -1.8436 -0.6689
  205MOL0     H27665   5.290   9.387   8.901 -0.1002  0.1519 -0.9269
  205MOL0     H27666   5.300   9.526   9.007  1.5700  0.6883  0.4373
  205MOL0     H27667   5.416   9.307   9.156 -0.2710 -1.5565  0.1357
  205MOL0     H27668   5.294   9.236   9.055  1.8604 -0.5405  0.7719
  205MOL0     H27669   5.175   9.281   9.269  0.7343 -1.1719 -0.3575
  205MOL0     H27670   5.277   9.418   9.290  0.7597  1.4896 -0.8583
  205MOL0     H27671   4.950   9.598   9.103 -1.5719 -0.6940  1.1561
  205MOL0     H27672   5.572   9.591   8.623 -0.4708 -1.4193  0.3033
  205MOL0     H27673   5.841   9.767   8.476 -2.8189  2.6852  0.7698
  205MOL0     H27674   5.817   9.605   8.405  0.3675  2.0492 -1.1782
  205MOL0     H27675   5.679   9.699   8.464 -1.6131 -4.0667 -1.0665
  206MOL0     O27676   1.394   0.768   5.455 -0.5520 -0.3588  0.2360
  206MOL0     C27677   1.327   0.760   5.557  0.4659 -0.4941  0.9348
  206MOL0     O27678   1.353   0.691   5.673 -0.1025  0.0944 -0.0904
  206MOL0     C27679   1.472   0.630   5.691  1.4033 -0.8511  0.6820
  206MOL0     C27680   1.522   0.635   5.820 -0.7588  0.5513 -0.5970
  206MOL0     C27681   1.631   0.554   5.859  0.4793 -0.6469 -0.3629
  206MOL0     C27682   1.699   0.482   5.759  0.0199 -0.9005  0.1787
  206MOL0     O27683   1.812   0.408   5.778 -0.3956 -0.5452  1.0628
  206MOL0     C27684   1.823   0.340   5.907 -0.1050  0.3697  0.3140
  206MOL0     C27685   1.908   0.223   5.881  0.6306 -0.2888 -0.0196
  206MOL0     C27686   2.047   0.262   5.822 -0.1992 -0.2341  0.8542
  206MOL0     C27687   2.145   0.150   5.828 -0.1633  0.0834  0.5896
  206MOL0     C27688   2.277   0.199   5.755  0.0033 -0.2876  0.9367
  206MOL0     C27689   2.357   0.284   5.855  0.1134  0.9619 -0.0401
  206MOL0     C27690   2.501   0.303   5.813 -0.5505 -0.0138 -0.9280
  206MOL0     C27691   2.592   0.315   5.943  0.8249 -0.1321  0.2077
  206MOL0     N27692   2.724   0.355   5.892 -0.2441 -0.0972 -0.0958
  206MOL0     C27693   2.770   0.478   5.843  0.7696 -0.0491 -1.1252
  206MOL0     C27694   2.884   0.449   5.780 -0.1751  0.6108  0.6581
  206MOL0     C27695   2.966   0.558   5.716 -0.6030  0.7136  0.5247
  206MOL0     C27696   3.070   0.608   5.815  0.3039  0.4397 -0.2526
  206MOL0     C27697   3.180   0.701   5.762 -0.7175  0.7178 -0.1499
  206MOL0     C27698   3.250   0.772   5.878 -0.7193 -0.4068  0.2313
  206MOL0     O27699   3.299   0.894   5.828  0.0430  1.0344  0.5654
  206MOL0     C27700   3.369   0.974   5.909 -0.1316 -2.0035 -0.1726
  206MOL0     C27701   3.427   1.087   5.853 -0.8546 -1.3000  0.1416
  206MOL0     C27702   3.504   1.173   5.926 -0.2410  0.3684 -0.0291
  206MOL0     C27703   3.516   1.162   6.063  0.7297  0.3157 -0.1773
  206MOL0     C27704   3.585   1.260   6.150 -0.1889  0.4294 -0.0898
  206MOL0     O27705   3.689   1.339   6.100  0.2604  0.3963 -0.1088
  206MOL0     C27706   3.751   1.437   6.178 -0.7176  0.2550  0.5041
  206MOL0     C27707   3.788   1.555   6.115 -0.8132  0.5047  0.5575
  206MOL0     C27708   3.851   1.656   6.192  0.3609  0.2955  0.6439
  206MOL0     C27709   3.885   1.640   6.331  0.2301  0.4781  0.1446
  206MOL0     O27710   3.951   1.723   6.407  0.8834 -0.6165 -0.8329
  206MOL0     C27711   4.064   1.787   6.340 -0.0314  0.2811 -0.3196
  206MOL0     C27712   4.183   1.699   6.312 -0.6037  0.2503 -0.0307
  206MOL0     C27713   4.292   1.798   6.255  0.1609  0.6917  0.1706
  206MOL0     C27714   4.414   1.736   6.193 -0.3555 -0.3425 -0.5869
  206MOL0     C27715   4.379   1.645   6.080 -0.6080 -0.1583  1.6431
  206MOL0     C27716   4.500   1.582   6.015  0.2402 -0.0168 -0.0320
  206MOL0     C27717   4.453   1.492   5.906  0.2196  0.0356 -0.5296
  206MOL0     C27718   4.568   1.428   5.826 -0.1774  0.5122  1.5007
  206MOL0    Cl27719   4.496   1.333   5.686  0.4020  0.2264  0.2615
  206MOL0     C27720   3.837   1.517   6.388 -0.6893 -1.2616  0.8963
  206MOL0     C27721   3.775   1.419   6.313  0.1594  0.5689  0.0449
  206MOL0     O27722   3.536   1.264   6.264  0.6611 -0.0495  0.6634
  206MOL0     C27723   3.455   1.052   6.121  0.6990 -0.2611 -0.0833
  206MOL0     C27724   3.385   0.958   6.046  0.3217  0.2627 -0.0966
  206MOL0     N27725   2.913   0.318   5.801 -0.4726  0.4076 -0.4339
  206MOL0     N27726   2.814   0.261   5.871 -0.5999  0.6379  0.1321
  206MOL0     C27727   1.652   0.483   5.632  0.2416  0.0215 -0.4526
  206MOL0     C27728   1.540   0.555   5.601 -0.7331  0.1564  0.3690
  206MOL0     C27729   1.190   0.819   5.551  0.5394 -0.3282 -1.0803
  206MOL0     C27730   1.087   0.744   5.614 -0.3647  0.3969  0.5693
  206MOL0     C27731   0.955   0.786   5.606 -0.2925  0.0183  0.1426
  206MOL0     C27732   0.913   0.919   5.554 -0.5016  0.6485 -0.0568
  206MOL0     O27733   0.789   0.977   5.537 -0.5158 -0.3566 -0.7435
  206MOL0     C27734   0.677   0.920   5.603  0.4851  0.8616 -0.1362
  206MOL0     C27735   0.670   0.979   5.738  0.2955 -0.0228  0.0399
  206MOL0     C27736   0.549   0.945   5.824 -0.0466  0.8770  0.2983
  206MOL0     C27737   0.418   1.018   5.799 -0.1918 -0.5662 -0.2277
  206MOL0     C27738   0.305   0.956   5.871  0.2472  0.4686  0.0035
  206MOL0     C27739   0.217   0.901   5.938 -0.2987  0.7267  0.0741
  206MOL0     C27740   1.022   0.992   5.493  0.5705 -0.6497  0.0096
  206MOL0     C27741   1.154   0.940   5.488  0.0263 -0.4679 -0.2438
  206MOL0     C27742   1.252   1.017   5.407 -0.7089 -0.2488 -0.9287
  206MOL0     H27743   1.469   0.694   5.894  0.3420  0.2106  0.4940
  206MOL0     H27744   1.673   0.557   5.959 -1.5077 -2.1716  0.5773
  206MOL0     H27745   1.878   0.414   5.966  4.3101 -1.4480 -1.1193
  206MOL0     H27746   1.725   0.301   5.939  0.3062 -0.4038  0.6574
  206MOL0     H27747   1.857   0.152   5.816 -0.8143  1.8804 -1.4076
  206MOL0     H27748   1.920   0.175   5.978 -0.6725  0.0475  0.3368
  206MOL0     H27749   2.086   0.354   5.866 -3.4213  2.1245 -0.7840
  206MOL0     H27750   2.046   0.294   5.717 -1.8963 -3.0287 -0.0621
  206MOL0     H27751   2.183   0.113   5.923  2.6913 -0.5719 -0.7035
  206MOL0     H27752   2.093   0.071   5.773 -0.8282  1.5124 -0.9450
  206MOL0     H27753   2.338   0.113   5.728  1.3113  0.8871 -0.0166
  206MOL0     H27754   2.264   0.260   5.665 -1.1052 -1.2082  0.4519
  206MOL0     H27755   2.310   0.383   5.854  1.7991  1.8532 -2.8382
  206MOL0     H27756   2.357   0.234   5.952 -1.5748  1.4856  0.2660
  206MOL0     H27757   2.499   0.392   5.750 -1.9318  0.1192 -0.7352
  206MOL0     H27758   2.538   0.215   5.759 -1.6988 -0.6309 -0.7416
  206MOL0     H27759   2.546   0.381   6.017 -0.3060 -1.2741  0.5509
  206MOL0     H27760   2.603   0.219   5.995 -3.4828 -1.6564 -1.2754
  206MOL0     H27761   2.732   0.580   5.839  1.6575  0.2685 -1.8827
  206MOL0     H27762   3.016   0.519   5.627  2.4516  2.6854  1.1809
  206MOL0     H27763   2.900   0.640   5.686  1.1085  1.4366 -1.4878
  206MOL0     H27764   3.031   0.660   5.902  1.6761 -0.8492  1.1979
  206MOL0     H27765   3.122   0.517   5.845 -2.5677 -0.8137  1.3503
  206MOL0     H27766   3.132   0.767   5.689  1.4264 -0.9549 -3.3050
  206MOL0     H27767   3.254   0.653   5.698  0.0780  3.4936 -1.4852
  206MOL0     H27768   3.335   0.711   5.908 -1.0881 -0.6341  0.8168
  206MOL0     H27769   3.182   0.790   5.962 -0.3062 -1.2160  0.7436
  206MOL0     H27770   3.419   1.100   5.746  3.0630  0.2165 -0.1037
  206MOL0     H27771   3.554   1.261   5.887  0.3379  0.5359  1.0494
  206MOL0     H27772   3.741   1.577   6.019 -1.2949 -0.8504  0.4592
  206MOL0     H27773   3.874   1.754   6.152  0.2338  0.8480  1.8594
  206MOL0     H27774   4.038   1.835   6.245 -1.7163 -1.6871 -0.9461
  206MOL0     H27775   4.098   1.869   6.404  0.6448 -2.2856  2.8872
  206MOL0     H27776   4.229   1.668   6.407 -1.3509 -2.8614 -0.5597
  206MOL0     H27777   4.148   1.610   6.259  0.8319 -1.3367  1.5576
  206MOL0     H27778   4.247   1.857   6.175  0.6324 -1.5155 -1.8268
  206MOL0     H27779   4.314   1.866   6.339 -0.6229  1.4615 -0.2366
  206MOL0     H27780   4.467   1.687   6.276  0.6358  2.8641  0.8274
  206MOL0     H27781   4.490   1.811   6.170 -1.3930  1.4495  1.5182
  206MOL0     H27782   4.331   1.697   5.997  0.0294  0.1476  1.4572
  206MOL0     H27783   4.311   1.569   6.118 -1.3640  0.2783  1.1725
  206MOL0     H27784   4.572   1.652   5.971 -1.3068  1.0195 -1.0459
  206MOL0     H27785   4.559   1.528   6.089 -1.8953  1.8151  3.2472
  206MOL0     H27786   4.383   1.537   5.835  1.0948 -1.3615 -2.3812
  206MOL0     H27787   4.402   1.412   5.960 -2.5769 -0.3786 -3.4595
  206MOL0     H27788   4.630   1.507   5.783 -0.2189 -0.8167 -1.2033
  206MOL0     H27789   4.639   1.363   5.878 -1.5727 -2.0988  0.3211
  206MOL0     H27790   3.840   1.501   6.495 -0.6457  0.3443  1.1574
  206MOL0     H27791   3.758   1.326   6.367 -0.0735 -0.9399 -2.5067
  206MOL0     H27792   3.461   1.040   6.229  0.7554  0.5207  0.0066
  206MOL0     H27793   3.322   0.877   6.083  0.5640 -0.6943 -1.6481
  206MOL0     H27794   1.701   0.422   5.556  1.5935 -0.7097  0.9606
  206MOL0     H27795   1.516   0.547   5.495 -0.1722 -0.4124  0.2807
  206MOL0     H27796   1.119   0.652   5.662  0.4971 -1.5766 -3.3385
  206MOL0     H27797   0.888   0.711   5.646  1.7226 -1.5662  0.7181
  206MOL0     H27798   0.702   0.815   5.619  0.1131  1.1053  2.6014
  206MOL0     H27799   0.585   0.944   5.549  1.1906  2.7340 -0.6208
  206MOL0     H27800   0.670   1.087   5.720 -2.2128 -0.3381 -2.7672
  206MOL0     H27801   0.758   0.946   5.794  0.6518  0.5120 -0.2026
  206MOL0     H27802   0.572   0.954   5.931  3.2783  1.1600 -0.3116
  206MOL0     H27803   0.525   0.842   5.798 -0.0117  0.9594 -0.0593
  206MOL0     H27804   0.429   1.123   5.827  1.6004 -1.4134  2.6281
  206MOL0     H27805   0.412   1.024   5.690  0.7224 -1.9909 -0.3779
  206MOL0     H27806   0.149   0.842   5.997 -3.0830  0.7205 -2.8876
  206MOL0     H27807   1.006   1.074   5.424 -0.5507 -2.4795 -2.0524
  206MOL0     H27808   1.352   1.014   5.451 -0.3784 -3.9197 -1.5917
  206MOL0     H27809   1.250   0.968   5.309  0.8973  1.3267 -1.8070
  206MOL0     H27810   1.215   1.119   5.395 -0.3597 -0.0198 -0.1119
  207MOL0     O27811   1.477  10.308   1.237  0.5596  0.1650 -0.0533
  207MOL0     C27812   1.492  10.252   1.128  0.8623 -0.0012  0.5115
  207MOL0     O27813   1.473  10.314   1.009 -0.3678 -0.0904 -0.2363
  207MOL0     C27814   1.424  10.440   1.011 -0.1684  0.0966 -0.1725
  207MOL0     C27815   1.481  10.527   0.925 -0.0331  0.1831 -0.3699
  207MOL0     C27816   1.427  10.653   0.906  0.0206 -0.0278 -0.0538
  207MOL0     C27817   1.301  10.687   0.962 -0.5322 -0.3620  0.1593
  207MOL0     O27818   1.255  10.810   0.922 -0.3096  0.6781  0.2887
  207MOL0     C27819   1.124  10.856   0.964 -0.7363 -0.8112  0.0972
  207MOL0     C27820   1.131  10.981   1.045 -0.3595  0.3085  0.2315
  207MOL0     C27821   1.167  11.101   0.950  0.5668  0.2009 -0.2897
  207MOL0     C27822   1.176  11.230   1.039 -0.0462 -0.4439 -0.4991
  207MOL0     C27823   1.220  11.350   0.959 -0.1887 -0.3548  0.2438
  207MOL0     C27824   1.192  11.486   1.034  0.0427  0.0991 -0.1789
  207MOL0     C27825   1.239  11.603   0.949 -0.2660 -0.4068 -0.3392
  207MOL0     C27826   1.259  11.729   1.037 -0.7961 -0.0996  0.1037
  207MOL0     N27827   1.338  11.717   1.159 -0.7423 -0.0386 -0.5206
  207MOL0     C27828   1.291  11.735   1.288  1.0298  0.7188 -0.2767
  207MOL0     C27829   1.397  11.762   1.356 -0.4920 -0.7626 -0.4856
  207MOL0     C27830   1.393  11.814   1.502 -0.2294 -0.2344 -0.0657
  207MOL0     C27831   1.499  11.734   1.593  0.6537 -0.7133 -0.0851
  207MOL0     C27832   1.630  11.801   1.631 -0.6056 -0.6934 -0.2944
  207MOL0     C27833   1.727  11.809   1.514  0.6106  0.2926 -0.7841
  207MOL0     O27834   1.857  11.836   1.567 -0.2645 -0.6344  0.1606
  207MOL0     C27835   1.955  11.820   1.478  0.3410  0.0120 -0.8674
  207MOL0     C27836   2.048  11.714   1.514  0.8004 -0.4602 -0.3440
  207MOL0     C27837   2.169  11.697   1.437  0.2994 -0.5527  0.0519
  207MOL0     C27838   2.195  11.782   1.327 -0.8009  0.0202 -0.6576
  207MOL0     C27839   2.327  11.778   1.256  0.3553  0.2825  0.4098
  207MOL0     O27840   2.438  11.715   1.315 -0.4517  0.6072 -0.6682
  207MOL0     C27841   2.548  11.691   1.232 -0.3213 -0.6154 -0.2876
  207MOL0     C27842   2.676  11.698   1.287  0.3721  0.4372 -0.6487
  207MOL0     C27843   2.784  11.634   1.220  0.5865 -0.2229 -0.6798
  207MOL0     C27844   2.772  11.580   1.089  0.1318  0.3322 -0.9190
  207MOL0     O27845   2.875  11.517   1.026  0.6820  0.5029 -0.0900
  207MOL0     C27846   2.997  11.589   1.002  0.3747  0.1877  0.5193
  207MOL0     C27847   3.116  11.564   1.098  0.2999  0.4783  0.6098
  207MOL0     C27848   3.186  11.429   1.079  0.4544  0.8721  0.5995
  207MOL0     C27849   3.300  11.418   1.180  0.1687  0.6434 -0.1409
  207MOL0     C27850   3.355  11.274   1.185 -0.6440  0.1047 -1.1400
  207MOL0     C27851   3.425  11.219   1.059  0.2447  0.1176 -0.7910
  207MOL0     C27852   3.492  11.089   1.103  0.3938 -0.1312 -0.3729
  207MOL0     C27853   3.550  11.020   0.990 -0.8032 -0.1219  0.7692
  207MOL0    Cl27854   3.673  11.133   0.906  0.1967 -0.3343 -0.2111
  207MOL0     C27855   2.646  11.589   1.035 -0.6396  0.4646  0.2022
  207MOL0     C27856   2.535  11.631   1.108 -0.2413 -0.4533 -0.0056
  207MOL0     O27857   2.327  11.821   1.141 -0.2876  0.3893  0.4138
  207MOL0     C27858   2.099  11.872   1.290 -1.0160  0.1373  0.9058
  207MOL0     C27859   1.976  11.894   1.359 -0.0056 -0.5219  0.7350
  207MOL0     N27860   1.512  11.763   1.283 -0.0586 -0.7470  0.8459
  207MOL0     N27861   1.471  11.746   1.162  0.2889  0.1886 -0.1213
  207MOL0     C27862   1.241  10.595   1.044 -0.1407  0.5779  0.4785
  207MOL0     C27863   1.312  10.478   1.079 -0.2690 -0.0340  0.4505
  207MOL0     C27864   1.496  10.107   1.097  0.5323  0.1351  0.8123
  207MOL0     C27865   1.443  10.054   0.979  0.7758 -1.1423  0.5799
  207MOL0     C27866   1.445   9.919   0.947 -0.2122 -0.5783 -0.4321
  207MOL0     C27867   1.514   9.826   1.027  0.1207 -0.3978  0.4106
  207MOL0     O27868   1.522   9.688   0.992  0.3134  0.0964 -0.9384
  207MOL0     C27869   1.401   9.619   0.956  0.7423 -0.8631  0.6759
  207MOL0     C27870   1.341   9.532   1.063 -0.2965 -0.2601  0.3654
  207MOL0     C27871   1.341   9.588   1.203  0.8297  0.9232 -0.0658
  207MOL0     C27872   1.267   9.491   1.306 -0.2485  0.1866 -0.2809
  207MOL0     C27873   1.130   9.470   1.272  0.2588  0.3403  0.1133
  207MOL0     C27874   1.013   9.451   1.261 -0.2132  0.2575  0.5722
  207MOL0     C27875   1.570   9.874   1.144 -0.0915  0.2579 -0.0703
  207MOL0     C27876   1.554  10.014   1.183  1.3750  0.6133 -1.0078
  207MOL0     C27877   1.607  10.051   1.322  0.5176 -0.7588 -0.4849
  207MOL0     H27878   1.564  10.500   0.861  0.3695  0.1711  0.1450
  207MOL0     H27879   1.473  10.726   0.841  0.1461  1.6293  1.7796
  207MOL0     H27880   1.066  10.867   0.872  0.4712  1.3516 -0.4775
  207MOL0     H27881   1.067  10.775   1.010 -2.1818 -0.3861 -0.8867
  207MOL0     H27882   1.218  10.971   1.110 -0.1006  1.3427  0.0472
  207MOL0     H27883   1.035  10.995   1.097 -0.3618 -1.8152  0.9318
  207MOL0     H27884   1.098  11.124   0.868 -0.7759  1.9150  1.2018
  207MOL0     H27885   1.263  11.067   0.913 -0.6137 -2.2505 -1.3094
  207MOL0     H27886   1.080  11.246   1.090 -1.4726 -1.8675 -2.5335
  207MOL0     H27887   1.249  11.209   1.117 -1.0147  0.5382  0.7021
  207MOL0     H27888   1.327  11.336   0.938 -0.0525 -0.2388  0.8471
  207MOL0     H27889   1.167  11.347   0.863 -0.3115 -2.3608  0.3292
  207MOL0     H27890   1.085  11.492   1.057  0.1553 -1.2974  0.7951
  207MOL0     H27891   1.254  11.483   1.124  1.7936 -0.2121 -1.3373
  207MOL0     H27892   1.179  11.628   0.861  0.7567 -3.5101 -2.0639
  207MOL0     H27893   1.340  11.571   0.920 -0.1625 -1.8480  1.4393
  207MOL0     H27894   1.309  11.796   0.967 -0.6953 -1.4232 -1.1293
  207MOL0     H27895   1.157  11.764   1.059 -2.4071 -2.0373 -3.4387
  207MOL0     H27896   1.189  11.721   1.321  0.7855  0.1299 -1.2326
  207MOL0     H27897   1.402  11.922   1.514 -1.1086 -0.2218  0.5811
  207MOL0     H27898   1.293  11.790   1.540 -0.1262  1.7404  1.6402
  207MOL0     H27899   1.449  11.723   1.689 -0.9813  1.5417 -0.6214
  207MOL0     H27900   1.523  11.639   1.542  3.4200  1.6431 -3.7222
  207MOL0     H27901   1.670  11.737   1.710 -1.3996 -0.4427  0.3278
  207MOL0     H27902   1.619  11.902   1.671 -1.9615 -0.4874 -1.1088
  207MOL0     H27903   1.690  11.883   1.442 -2.0102  0.3889  0.5339
  207MOL0     H27904   1.725  11.711   1.465  3.3413  0.0564 -0.5694
  207MOL0     H27905   2.027  11.650   1.599  1.0346 -0.1447 -0.0442
  207MOL0     H27906   2.242  11.625   1.472  1.0016  0.7770  1.4506
  207MOL0     H27907   2.703  11.743   1.383  5.4118 -2.5287 -0.3203
  207MOL0     H27908   2.883  11.628   1.264  1.0477 -2.5868 -1.9093
  207MOL0     H27909   3.032  11.569   0.900 -0.9871 -0.1395  0.0987
  207MOL0     H27910   2.973  11.696   1.009  0.2388  0.3024 -1.3148
  207MOL0     H27911   3.194  11.640   1.087  1.0714 -0.2250  1.0883
  207MOL0     H27912   3.082  11.575   1.202 -0.1505 -0.3436  0.5596
  207MOL0     H27913   3.109  11.351   1.085 -4.1232  4.1401 -4.9500
  207MOL0     H27914   3.218  11.426   0.975  0.1070  0.5105  0.4977
  207MOL0     H27915   3.267  11.454   1.278  0.5950 -2.2067  1.1497
  207MOL0     H27916   3.384  11.478   1.142  2.2271  0.9319  4.2175
  207MOL0     H27917   3.270  11.216   1.219  0.4769 -0.7371  0.3577
  207MOL0     H27918   3.425  11.273   1.269 -0.9985 -2.5062 -0.8116
  207MOL0     H27919   3.355  11.207   0.975 -0.8895  0.4246  0.0854
  207MOL0     H27920   3.499  11.294   1.029 -0.8473  1.3138 -0.5661
  207MOL0     H27921   3.410  11.030   1.145  1.6115 -2.0761 -0.5917
  207MOL0     H27922   3.558  11.109   1.188 -1.8855  1.5307  1.1222
  207MOL0     H27923   3.602  10.929   1.020 -1.4634 -0.4336  0.9865
  207MOL0     H27924   3.470  10.990   0.922  1.1577 -2.3192 -0.7294
  207MOL0     H27925   2.638  11.544   0.936  1.2089 -0.2622  0.3365
  207MOL0     H27926   2.439  11.642   1.058  1.5060  2.0343 -3.1306
  207MOL0     H27927   2.113  11.938   1.205 -1.8285 -0.9467 -0.1150
  207MOL0     H27928   1.898  11.967   1.340 -0.3294 -0.6363  1.5684
  207MOL0     H27929   1.147  10.605   1.098 -0.8777 -1.0977 -0.4499
  207MOL0     H27930   1.267  10.405   1.146  1.5512 -1.7646 -0.1443
  207MOL0     H27931   1.401  10.123   0.906  0.4979  1.7998  3.2810
  207MOL0     H27932   1.399   9.887   0.854 -2.7607 -1.3822  1.0188
  207MOL0     H27933   1.415   9.562   0.863 -1.0080  0.2882 -0.3475
  207MOL0     H27934   1.316   9.687   0.953  0.8943 -0.6457 -2.4776
  207MOL0     H27935   1.401   9.442   1.073 -2.1241 -1.4924  0.8576
  207MOL0     H27936   1.236   9.505   1.044 -0.5023  0.6085  0.2008
  207MOL0     H27937   1.295   9.687   1.196  1.5216  1.2481 -0.0771
  207MOL0     H27938   1.445   9.601   1.233  2.0044 -2.2990 -2.2050
  207MOL0     H27939   1.311   9.391   1.298 -1.1258 -0.5254  2.5537
  207MOL0     H27940   1.274   9.525   1.410  1.5252  0.4004 -0.4261
  207MOL0     H27941   0.910   9.420   1.258 -0.3482  0.5528  1.7465
  207MOL0     H27942   1.622   9.809   1.213 -3.7442 -0.0869  2.6248
  207MOL0     H27943   1.522  10.054   1.390  0.0273 -2.8853 -0.9436
  207MOL0     H27944   1.671   9.974   1.367 -1.0119 -0.8858  1.6342
  207MOL0     H27945   1.666  10.143   1.329 -0.0037 -0.5020  0.8709
  208MOL0     O27946   8.771   1.444   5.339 -0.2058 -0.3504 -0.0451
  208MOL0     C27947   8.664   1.467   5.297 -0.1595  0.4469  0.2137
  208MOL0     O27948   8.635   1.580   5.225  0.2725 -0.0622 -0.1402
  208MOL0     C27949   8.743   1.657   5.201 -0.1265  0.3545  0.3037
  208MOL0     C27950   8.755   1.770   5.275  0.6019 -0.3739 -0.5424
  208MOL0     C27951   8.872   1.848   5.272 -0.0727 -0.5068  0.8800
  208MOL0     C27952   8.985   1.806   5.200 -0.3058  1.4328 -0.7889
  208MOL0     O27953   9.101   1.873   5.192 -0.1167  0.0134 -0.3019
  208MOL0     C27954   9.170   1.885   5.317 -0.1663  0.2567  0.0138
  208MOL0     C27955   9.292   1.974   5.298 -0.4446 -0.6814  0.2618
  208MOL0     C27956   9.374   2.013   5.423  0.1108 -1.2717 -0.6062
  208MOL0     C27957   9.321   2.142   5.495  0.1192 -0.4234  0.8819
  208MOL0     C27958   9.376   2.182   5.630 -0.0307  0.1563  1.3285
  208MOL0     C27959   9.522   2.200   5.639 -0.5714  0.7208 -0.7828
  208MOL0     C27960   9.596   2.302   5.557  0.0128  0.1400  1.0283
  208MOL0     C27961   9.724   2.359   5.620  0.3412  0.5989 -0.7736
  208MOL0     N27962   9.758   2.486   5.553  1.0032 -0.7483  0.5973
  208MOL0     C27963   9.858   2.563   5.603 -0.1365 -0.0108 -0.5681
  208MOL0     C27964   9.871   2.669   5.514  1.3324 -0.7791  0.1818
  208MOL0     C27965   9.975   2.786   5.510 -0.2385 -0.2424 -0.0207
  208MOL0     C27966  10.114   2.729   5.517  0.5597  0.4685  0.1022
  208MOL0     C27967  10.176   2.711   5.657 -0.6459 -0.5720  0.2798
  208MOL0     C27968  10.301   2.634   5.661 -0.1221 -0.6557  0.7045
  208MOL0     O27969  10.397   2.685   5.565 -0.1491  0.1592 -0.1162
  208MOL0     C27970  10.516   2.737   5.616 -0.1939  1.1158 -0.4335
  208MOL0     C27971  10.630   2.658   5.618  1.1334  0.7578  0.2102
  208MOL0     C27972  10.748   2.713   5.655 -0.3655 -0.6318 -0.3626
  208MOL0     C27973  10.755   2.847   5.703 -0.4145 -0.6840  1.0217
  208MOL0     C27974  10.888   2.909   5.721  0.7251  0.0759 -0.4453
  208MOL0     O27975  10.988   2.859   5.634  0.4639  0.5484  0.4387
  208MOL0     C27976  11.105   2.915   5.626 -1.0150 -0.4927 -0.9126
  208MOL0     C27977  11.208   2.836   5.684 -0.8523  0.0128 -0.2323
  208MOL0     C27978  11.341   2.892   5.706  0.7359 -0.0170 -0.3669
  208MOL0     C27979  11.360   3.027   5.681  0.1386 -0.5407 -0.3960
  208MOL0     O27980  11.488   3.073   5.693  0.7785 -0.1938  0.0964
  208MOL0     C27981  11.551   3.060   5.562  0.4919  0.4856  0.6202
  208MOL0     C27982  11.694   3.078   5.579 -0.2516 -0.1037  0.7644
  208MOL0     C27983  11.768   2.962   5.640  0.4633  0.0594  0.4560
  208MOL0     C27984  11.916   2.994   5.649  0.8620  0.2184 -0.2317
  208MOL0     C27985  11.997   2.873   5.699  0.2841  0.6888  0.2561
  208MOL0     C27986  12.144   2.903   5.706 -0.3158 -0.5578 -0.7796
  208MOL0     C27987  12.229   2.784   5.740  0.0029 -1.1966  0.5566
  208MOL0     C27988  12.382   2.817   5.749  0.2159  0.4316  0.3768
  208MOL0    Cl27989  12.475   2.671   5.801 -0.3443 -0.0017 -0.5064
  208MOL0     C27990  11.262   3.107   5.627 -0.4819  0.3077  0.2336
  208MOL0     C27991  11.135   3.049   5.601  0.2984  0.4941  0.2259
  208MOL0     O27992  10.893   3.014   5.791  0.2079  0.5336  0.2569
  208MOL0     C27993  10.635   2.921   5.718 -0.0547  0.6047  0.1242
  208MOL0     C27994  10.517   2.863   5.674 -0.1550  0.0184 -0.2579
  208MOL0     N27995   9.769   2.653   5.419  0.6208  0.0376  0.7103
  208MOL0     N27996   9.700   2.548   5.443  1.4344 -0.5381  0.0032
  208MOL0     C27997   8.970   1.698   5.112 -0.2621  0.1899 -0.5688
  208MOL0     C27998   8.850   1.624   5.110  0.9530 -0.8377 -0.2672
  208MOL0     C27999   8.559   1.364   5.326 -0.3247 -0.9026  0.4751
  208MOL0     C28000   8.448   1.377   5.234 -0.5881  1.5269 -0.9027
  208MOL0     C28001   8.348   1.273   5.228 -0.3715 -0.7393  0.7091
  208MOL0     C28002   8.361   1.167   5.315  0.4200  0.2688  0.4676
  208MOL0     O28003   8.271   1.064   5.295  0.4779 -0.0341 -1.0887
  208MOL0     C28004   8.239   0.982   5.401  0.2332 -0.1246 -0.1469
  208MOL0     C28005   8.129   1.042   5.498  0.0320  0.7935 -0.2810
  208MOL0     C28006   7.991   1.055   5.435  0.2306 -0.7260  0.1137
  208MOL0     C28007   7.890   0.938   5.431 -0.5436 -0.2769  0.5967
  208MOL0     C28008   7.854   0.912   5.569  0.4529  0.4648  0.4922
  208MOL0     C28009   7.829   0.871   5.679 -0.8909 -0.0485 -0.0754
  208MOL0     C28010   8.467   1.156   5.409  0.4343  0.0968 -0.1816
  208MOL0     C28011   8.565   1.251   5.412  0.2127 -0.3841  0.0464
  208MOL0     C28012   8.685   1.223   5.505 -0.3740 -0.6216 -0.7533
  208MOL0     H28013   8.674   1.802   5.340  1.9823  1.0109  0.5668
  208MOL0     H28014   8.876   1.940   5.330  2.8334 -1.2610  2.0421
  208MOL0     H28015   9.104   1.918   5.397 -0.0085  0.4824  0.0494
  208MOL0     H28016   9.203   1.785   5.345  0.5968 -0.0800 -1.8973
  208MOL0     H28017   9.259   2.069   5.254  0.1093 -0.9478 -0.7607
  208MOL0     H28018   9.359   1.922   5.229  0.8554  0.7090  0.4109
  208MOL0     H28019   9.482   2.020   5.405  0.1965 -0.7831  0.0664
  208MOL0     H28020   9.370   1.932   5.496  4.4677 -0.2040  1.1457
  208MOL0     H28021   9.311   2.226   5.426  0.7855 -0.8101  0.2986
  208MOL0     H28022   9.216   2.117   5.511  0.3862 -1.1035  1.6827
  208MOL0     H28023   9.335   2.278   5.662  0.4805  0.3704  1.3569
  208MOL0     H28024   9.358   2.101   5.701  1.4547 -1.5802 -0.1826
  208MOL0     H28025   9.539   2.248   5.736  0.0344  0.9779 -1.0164
  208MOL0     H28026   9.566   2.100   5.626  0.1917  0.9943 -0.3565
  208MOL0     H28027   9.526   2.386   5.547 -1.3402 -0.6328  3.3085
  208MOL0     H28028   9.619   2.266   5.456 -0.6934 -2.7717  1.8385
  208MOL0     H28029   9.706   2.370   5.728  1.8050 -2.1294 -0.1483
  208MOL0     H28030   9.798   2.278   5.610 -2.4188 -2.0410 -1.3111
  208MOL0     H28031   9.920   2.537   5.688 -1.3527  0.1742  0.3964
  208MOL0     H28032   9.957   2.851   5.425  0.6695  2.9930  2.0618
  208MOL0     H28033   9.966   2.852   5.597 -2.0673 -0.5753  0.0844
  208MOL0     H28034  10.114   2.631   5.469  1.9788  0.3803  0.2341
  208MOL0     H28035  10.168   2.796   5.449 -0.1862  0.2659 -0.7136
  208MOL0     H28036  10.101   2.664   5.721 -3.1938 -1.8605 -3.3418
  208MOL0     H28037  10.194   2.811   5.698  0.7506  0.6331 -2.9629
  208MOL0     H28038  10.287   2.525   5.657  2.9198 -1.1251  0.3610
  208MOL0     H28039  10.348   2.630   5.759 -0.4697 -1.7187  0.8433
  208MOL0     H28040  10.625   2.560   5.571  0.2820 -0.9991  3.6248
  208MOL0     H28041  10.841   2.659   5.641 -0.9944 -2.1332  0.8964
  208MOL0     H28042  11.192   2.733   5.713 -0.4474  0.1984  0.6852
  208MOL0     H28043  11.424   2.828   5.733  1.0347 -0.0895 -1.4218
  208MOL0     H28044  11.532   2.959   5.525 -0.0585  0.5855  0.6183
  208MOL0     H28045  11.522   3.139   5.493  0.3114  0.3261  0.5116
  208MOL0     H28046  11.721   3.084   5.473 -2.5106  2.9620  0.2532
  208MOL0     H28047  11.716   3.175   5.624 -0.6040  0.4451 -0.2103
  208MOL0     H28048  11.721   2.949   5.737 -1.4040  1.0829 -0.2760
  208MOL0     H28049  11.741   2.866   5.596  1.4666  0.8478 -2.0673
  208MOL0     H28050  11.934   3.071   5.725  0.4268 -0.6449  0.7809
  208MOL0     H28051  11.951   3.036   5.554 -0.6750  0.3384 -0.7737
  208MOL0     H28052  11.987   2.791   5.628 -1.6912  0.8103  0.3490
  208MOL0     H28053  11.965   2.845   5.800  2.3929 -1.6493  0.3692
  208MOL0     H28054  12.182   2.946   5.613  2.1476 -1.6264 -0.3443
  208MOL0     H28055  12.162   2.974   5.788 -0.7612 -0.8658 -0.4117
  208MOL0     H28056  12.215   2.709   5.662 -0.6236 -0.7696  0.2483
  208MOL0     H28057  12.195   2.740   5.834  1.0317 -1.7814  0.6732
  208MOL0     H28058  12.426   2.874   5.666 -2.1843  2.3051  0.2708
  208MOL0     H28059  12.378   2.889   5.831 -0.1454  0.8845 -0.0272
  208MOL0     H28060  11.267   3.215   5.616 -1.3907  0.3109 -0.3279
  208MOL0     H28061  11.049   3.104   5.564 -1.5266 -2.4352 -0.2054
  208MOL0     H28062  10.645   3.018   5.766 -0.8966  0.9498 -0.3627
  208MOL0     H28063  10.425   2.920   5.681 -0.5700 -0.5326 -1.0477
  208MOL0     H28064   9.055   1.683   5.045  1.3258  0.7866  1.2104
  208MOL0     H28065   8.849   1.535   5.048 -0.6195 -0.3018 -1.0837
  208MOL0     H28066   8.443   1.466   5.174  1.6683  0.9804 -2.0322
  208MOL0     H28067   8.255   1.279   5.173 -0.7129  0.2394  1.3771
  208MOL0     H28068   8.329   0.938   5.445  0.1424 -0.7106 -0.5394
  208MOL0     H28069   8.183   0.895   5.365  0.1103  0.4765 -1.4658
  208MOL0     H28070   8.164   1.141   5.529  0.4957 -0.3239  3.2170
  208MOL0     H28071   8.125   0.975   5.585 -3.6716 -0.6354 -1.3657
  208MOL0     H28072   8.004   1.080   5.330 -0.8328  2.0611  0.5545
  208MOL0     H28073   7.944   1.141   5.484  2.5015  0.9779 -0.5011
  208MOL0     H28074   7.800   0.975   5.383 -0.7490 -1.4912  0.0091
  208MOL0     H28075   7.938   0.852   5.382  0.7061  0.7951 -0.1035
  208MOL0     H28076   7.807   0.841   5.780  0.9911  0.5271  0.5464
  208MOL0     H28077   8.474   1.069   5.472 -1.7909  2.4504  3.6734
  208MOL0     H28078   8.707   1.315   5.559 -1.4702 -1.0139  0.4142
  208MOL0     H28079   8.665   1.159   5.592  2.4963  1.0495  1.3103
  208MOL0     H28080   8.765   1.183   5.441 -0.3212  0.4338 -1.3658
  209MOL0     O28081   5.814   9.505   3.808 -1.0925  0.1171 -0.1779
  209MOL0     C28082   5.870   9.484   3.918 -0.0244  0.2023 -0.7122
  209MOL0     O28083   5.811   9.512   4.042 -0.3158  1.0883 -0.1472
  209MOL0     C28084   5.678   9.535   4.038  0.0222 -0.2954  0.8303
  209MOL0     C28085   5.588   9.428   4.026 -0.2248  0.3607  0.2726
  209MOL0     C28086   5.449   9.449   4.023 -0.7564  0.0965 -0.4101
  209MOL0     C28087   5.402   9.579   4.037  0.7229 -0.4528  0.0756
  209MOL0     O28088   5.261   9.599   4.043  0.2567  0.0177  0.3172
  209MOL0     C28089   5.211   9.725   4.086  0.1237  0.2227 -0.5556
  209MOL0     C28090   5.075   9.695   4.156 -0.2100 -0.3041 -0.2490
  209MOL0     C28091   5.011   9.822   4.207 -1.1776 -0.1887 -0.7989
  209MOL0     C28092   4.883   9.802   4.280 -0.0643  0.6747 -0.3295
  209MOL0     C28093   4.786   9.917   4.266  0.8357 -0.5076  0.1175
  209MOL0     C28094   4.648   9.869   4.320 -0.1011  0.4123  0.2612
  209MOL0     C28095   4.547   9.976   4.308  0.8651  0.7510 -0.3336
  209MOL0     C28096   4.449   9.986   4.429 -1.0407 -0.2735  0.1605
  209MOL0     N28097   4.519  10.044   4.538 -0.0018  0.4470  0.0432
  209MOL0     C28098   4.530  10.181   4.557  0.4177  0.3461 -0.0466
  209MOL0     C28099   4.609  10.199   4.664  0.2284  0.4625 -1.0273
  209MOL0     C28100   4.649  10.332   4.733 -0.5048  0.0706 -0.4992
  209MOL0     C28101   4.789  10.376   4.689 -0.2420  0.1434  0.3510
  209MOL0     C28102   4.837  10.502   4.747 -0.0993 -0.2715  0.8553
  209MOL0     C28103   4.972  10.544   4.670 -0.5198  0.3089 -0.4181
  209MOL0     O28104   5.077  10.442   4.661 -0.0652 -0.1800  0.1378
  209MOL0     C28105   5.197  10.451   4.598 -0.9090 -0.1149  0.0357
  209MOL0     C28106   5.242  10.564   4.536 -0.4159  0.1412  0.1755
  209MOL0     C28107   5.365  10.564   4.473 -0.2343 -0.9088 -0.5405
  209MOL0     C28108   5.445  10.456   4.468 -0.9329 -0.6613  0.4718
  209MOL0     C28109   5.582  10.460   4.413  0.8429  0.6030  0.7855
  209MOL0     O28110   5.634  10.586   4.404 -0.5820 -0.4365 -0.1830
  209MOL0     C28111   5.765  10.610   4.361  0.6384  0.0842 -0.6517
  209MOL0     C28112   5.826  10.537   4.259  0.2926  1.0934  0.4987
  209MOL0     C28113   5.953  10.569   4.223  0.1594 -0.0203 -0.4484
  209MOL0     C28114   6.018  10.676   4.278 -0.0325 -0.6634 -0.9932
  209MOL0     O28115   6.132  10.727   4.222 -0.5034  0.4591  0.1519
  209MOL0     C28116   6.204  10.654   4.127  0.3488  0.0773 -0.3251
  209MOL0     C28117   6.349  10.706   4.113  0.7311 -0.2829  0.1189
  209MOL0     C28118   6.428  10.627   4.015 -0.0819 -0.0559 -1.0982
  209MOL0     C28119   6.404  10.693   3.876 -0.8944 -0.1690 -0.2530
  209MOL0     C28120   6.514  10.634   3.791 -0.0241  0.6168  0.1589
  209MOL0     C28121   6.477  10.659   3.642 -0.6666 -0.0330 -0.2154
  209MOL0     C28122   6.569  10.566   3.552 -0.1426 -0.2035 -0.0662
  209MOL0     C28123   6.579  10.618   3.414 -0.0043 -0.4727  0.5038
  209MOL0    Cl28124   6.654  10.478   3.334 -0.2863 -0.2425  0.0775
  209MOL0     C28125   5.962  10.733   4.382 -0.1664  0.1848  0.1072
  209MOL0     C28126   5.833  10.709   4.428 -0.0531  0.4202  0.1857
  209MOL0     O28127   5.650  10.360   4.399 -0.3934  0.9963 -0.0468
  209MOL0     C28128   5.395  10.339   4.517  0.4656 -0.5941 -0.0128
  209MOL0     C28129   5.268  10.331   4.580 -0.4706 -0.5480 -0.5948
  209MOL0     N28130   4.647  10.079   4.714 -1.1696  0.2245 -0.9721
  209MOL0     N28131   4.586   9.985   4.639 -0.3313 -0.2219  0.8011
  209MOL0     C28132   5.493   9.686   4.032  0.2920  0.3838 -0.1061
  209MOL0     C28133   5.631   9.661   4.033 -0.3069 -0.9089  0.3048
  209MOL0     C28134   6.021   9.441   3.928 -0.2414  0.1335  0.0956
  209MOL0     C28135   6.085   9.429   4.059  0.5204 -0.2202  0.1323
  209MOL0     C28136   6.225   9.418   4.066 -0.4374  0.3959  0.5600
  209MOL0     C28137   6.307   9.392   3.956  0.3027 -0.6312  0.3277
  209MOL0     O28138   6.435   9.365   3.974  0.1575  0.2581 -0.6272
  209MOL0     C28139   6.522   9.346   3.859  0.8480  0.0070 -0.3020
  209MOL0     C28140   6.668   9.346   3.892  0.4844  0.0107  0.3883
  209MOL0     C28141   6.718   9.456   3.972  0.0658  0.5734 -0.0479
  209MOL0     C28142   6.874   9.484   3.953  0.4887 -0.9960 -1.1683
  209MOL0     C28143   6.951   9.364   3.987 -1.0902 -0.6127 -1.8133
  209MOL0     C28144   7.029   9.269   4.012  0.1752 -0.4178  0.3589
  209MOL0     C28145   6.244   9.405   3.836  0.2063 -0.2933 -0.9156
  209MOL0     C28146   6.107   9.421   3.810  0.2223 -0.2092  0.4844
  209MOL0     C28147   6.055   9.432   3.671  0.0713 -0.4586  0.2058
  209MOL0     H28148   5.628   9.328   4.026  0.1428  0.4598 -1.9614
  209MOL0     H28149   5.381   9.364   4.031 -1.2488  0.5615  0.6358
  209MOL0     H28150   5.282   9.790   4.139  0.7032  1.1068 -2.3257
  209MOL0     H28151   5.185   9.781   3.995  1.6152 -1.1599 -1.8980
  209MOL0     H28152   5.103   9.614   4.223 -1.5905 -1.7366 -1.3314
  209MOL0     H28153   5.001   9.658   4.084 -4.9385 -0.3796  4.0997
  209MOL0     H28154   4.994   9.887   4.121  0.9884  1.6484  0.0474
  209MOL0     H28155   5.077   9.878   4.275 -0.2410 -1.9118 -0.2285
  209MOL0     H28156   4.836   9.712   4.239 -0.4280  0.2657  0.9495
  209MOL0     H28157   4.890   9.778   4.386  0.2678 -0.9558 -0.6902
  209MOL0     H28158   4.832   9.996   4.327  1.6208 -1.2703  0.5347
  209MOL0     H28159   4.785   9.950   4.161  0.7274 -1.7145 -0.2789
  209MOL0     H28160   4.616   9.770   4.285  1.6941 -0.3100  0.5961
  209MOL0     H28161   4.659   9.845   4.426 -0.6431 -1.0375  0.0102
  209MOL0     H28162   4.487   9.947   4.222  0.2743 -0.6871  0.5376
  209MOL0     H28163   4.586  10.076   4.286 -1.8981  1.6544 -1.4835
  209MOL0     H28164   4.363  10.047   4.398  0.2059  2.1572  1.2676
  209MOL0     H28165   4.421   9.883   4.453  0.3919 -0.6665  0.2084
  209MOL0     H28166   4.486  10.261   4.497  3.5725  0.8264 -1.9397
  209MOL0     H28167   4.571  10.403   4.706  0.1706 -0.3930 -4.1959
  209MOL0     H28168   4.662  10.322   4.841  0.8856 -2.1889 -0.8141
  209MOL0     H28169   4.858  10.299   4.724  0.5960  0.6021 -0.2741
  209MOL0     H28170   4.790  10.378   4.580 -0.4026  0.6174  0.3563
  209MOL0     H28171   4.845  10.494   4.856 -2.0083  0.2369  1.0596
  209MOL0     H28172   4.759  10.575   4.724 -0.7815 -2.0329 -3.4388
  209MOL0     H28173   5.016  10.640   4.698 -1.3005  0.6816 -0.4340
  209MOL0     H28174   4.937  10.556   4.567 -1.4414 -0.9522 -0.2773
  209MOL0     H28175   5.181  10.653   4.552 -1.5047 -0.9611  2.5746
  209MOL0     H28176   5.408  10.653   4.427 -0.9173 -1.1844 -1.7551
  209MOL0     H28177   5.778  10.458   4.201  2.0442  3.3484 -4.5977
  209MOL0     H28178   5.993  10.524   4.132 -0.5212  3.4908 -2.6903
  209MOL0     H28179   6.216  10.549   4.154 -0.8147 -0.2186 -0.8976
  209MOL0     H28180   6.161  10.652   4.026 -0.4961 -1.8851  0.0251
  209MOL0     H28181   6.344  10.813   4.089  2.3522 -0.5803 -1.8461
  209MOL0     H28182   6.398  10.707   4.211 -0.4965 -0.0995  0.7459
  209MOL0     H28183   6.534  10.632   4.039 -0.4128  1.7172  0.1863
  209MOL0     H28184   6.408  10.521   4.036  1.2725 -0.4917 -1.9115
  209MOL0     H28185   6.415  10.802   3.877  0.5553 -0.2967  0.6858
  209MOL0     H28186   6.309  10.665   3.831 -0.0681 -0.1865 -2.0704
  209MOL0     H28187   6.510  10.527   3.813 -2.2173  1.2661  3.7397
  209MOL0     H28188   6.610  10.680   3.815  1.7963 -1.9398 -1.6786
  209MOL0     H28189   6.374  10.632   3.617 -1.2158  0.3352  1.5560
  209MOL0     H28190   6.502  10.765   3.629  0.2293 -0.2895 -0.7348
  209MOL0     H28191   6.527  10.466   3.541  1.4955 -0.8641 -0.7751
  209MOL0     H28192   6.668  10.577   3.598 -0.9911 -0.7522  1.9792
  209MOL0     H28193   6.475  10.623   3.379 -0.0616 -0.9135  0.5980
  209MOL0     H28194   6.624  10.715   3.393 -0.9878 -0.0896  0.1076
  209MOL0     H28195   6.011  10.816   4.432 -0.8453  0.4435  0.3566
  209MOL0     H28196   5.789  10.776   4.501 -1.0537  0.0207 -0.0470
  209MOL0     H28197   5.444  10.242   4.518  1.5251 -0.1261  2.5774
  209MOL0     H28198   5.221  10.239   4.611  0.4838 -0.1269  2.3813
  209MOL0     H28199   5.471   9.791   4.019  0.5856  0.5446  0.6452
  209MOL0     H28200   5.700   9.745   4.032  1.1080 -2.0028 -1.6840
  209MOL0     H28201   6.043   9.440   4.158  1.2720 -1.2344  0.5757
  209MOL0     H28202   6.263   9.397   4.166  1.0256  0.7901  0.1017
  209MOL0     H28203   6.511   9.424   3.784  1.8945  1.5788  1.0913
  209MOL0     H28204   6.494   9.252   3.811 -0.1576  0.4102 -0.5225
  209MOL0     H28205   6.720   9.337   3.796 -3.4392 -3.3620 -1.7546
  209MOL0     H28206   6.697   9.253   3.943  2.2061  0.4746  0.3272
  209MOL0     H28207   6.695   9.429   4.076  0.5662  0.1999 -0.0286
  209MOL0     H28208   6.668   9.548   3.943 -0.0652 -0.1007 -2.1377
  209MOL0     H28209   6.901   9.494   3.847  1.5129  2.9017 -0.7083
  209MOL0     H28210   6.903   9.572   4.012  1.6727 -1.7296 -0.6296
  209MOL0     H28211   7.105   9.198   4.034 -2.7770 -3.9300  0.2739
  209MOL0     H28212   6.298   9.397   3.743  0.1052 -1.9843 -0.8677
  209MOL0     H28213   6.128   9.387   3.604 -1.0395 -0.0132 -1.3705
  209MOL0     H28214   5.965   9.373   3.651  1.7546 -2.6172 -1.4980
  209MOL0     H28215   6.042   9.539   3.649  0.0810 -0.7254 -1.1911
  210MOL0     O28216   7.338   4.416   4.154  0.0602  0.2753 -0.6401
  210MOL0     C28217   7.329   4.413   4.039  1.0832  0.0318 -0.9128
  210MOL0     O28218   7.214   4.378   3.971  1.1871  0.2444  0.0514
  210MOL0     C28219   7.116   4.318   4.048 -0.6172 -0.1302 -0.9489
  210MOL0     C28220   7.009   4.391   4.107 -0.2420  0.3988  0.7605
  210MOL0     C28221   6.922   4.330   4.182  0.5671 -0.1502 -0.0465
  210MOL0     C28222   6.922   4.193   4.196 -0.3439 -0.4254 -0.0966
  210MOL0     O28223   6.818   4.145   4.269  0.9847 -1.0646  0.3323
  210MOL0     C28224   6.786   4.009   4.270  0.4803 -0.2293  0.8267
  210MOL0     C28225   6.658   3.985   4.353  0.5676 -0.1797  0.4129
  210MOL0     C28226   6.640   3.845   4.382 -0.1199  0.0554  0.3518
  210MOL0     C28227   6.533   3.823   4.491 -0.1457  0.1525  0.1914
  210MOL0     C28228   6.540   3.677   4.539 -0.3146  0.5226  0.3961
  210MOL0     C28229   6.537   3.563   4.434 -0.5068  0.4069 -0.1644
  210MOL0     C28230   6.406   3.541   4.361 -0.1871 -1.2366 -0.3745
  210MOL0     C28231   6.371   3.399   4.321 -0.2498  0.2166 -0.1516
  210MOL0     N28232   6.457   3.349   4.208 -0.0137 -0.9247 -0.0590
  210MOL0     C28233   6.583   3.313   4.231  0.0337 -0.0689 -0.2623
  210MOL0     C28234   6.646   3.281   4.119 -0.4932 -0.7983 -0.1051
  210MOL0     C28235   6.790   3.257   4.104 -0.3229  0.6245 -1.3822
  210MOL0     C28236   6.831   3.111   4.111 -0.7226  0.1174 -1.0619
  210MOL0     C28237   6.985   3.077   4.117 -0.0424  0.0423  0.0073
  210MOL0     C28238   7.005   2.924   4.137  0.8462  0.1051  0.0109
  210MOL0     O28239   7.137   2.887   4.168  0.6409  0.1893 -0.3515
  210MOL0     C28240   7.240   2.895   4.071  0.8992 -0.0499 -0.9374
  210MOL0     C28241   7.225   2.915   3.930  0.0401 -0.3372 -1.1552
  210MOL0     C28242   7.332   2.930   3.848  0.9570  0.2318  1.2778
  210MOL0     C28243   7.466   2.919   3.897  0.3682 -0.9214 -0.4872
  210MOL0     C28244   7.586   2.917   3.824 -0.0134  0.5167  0.3797
  210MOL0     O28245   7.701   2.931   3.902  0.9406  0.3236  0.2778
  210MOL0     C28246   7.831   2.939   3.851 -0.3941  0.1067 -0.0541
  210MOL0     C28247   7.875   2.939   3.720 -0.8790  0.2129 -0.9489
  210MOL0     C28248   8.014   2.959   3.691 -0.1906 -0.1628 -0.2464
  210MOL0     C28249   8.111   2.979   3.788 -0.1886  0.0659 -0.4877
  210MOL0     O28250   8.240   3.014   3.767  0.0890  0.4471  0.2547
  210MOL0     C28251   8.290   3.049   3.633  0.3870  0.0893  0.5711
  210MOL0     C28252   8.443   3.046   3.627 -0.6769 -0.2349 -0.0353
  210MOL0     C28253   8.510   3.101   3.498 -0.0506  0.8484  0.5253
  210MOL0     C28254   8.520   2.988   3.394 -0.0524  0.1958 -0.0217
  210MOL0     C28255   8.555   3.039   3.247  0.4151 -0.1538 -0.1653
  210MOL0     C28256   8.677   3.118   3.242 -0.2250  0.4232  0.7294
  210MOL0     C28257   8.714   3.124   3.093 -0.5172 -0.0981  0.6727
  210MOL0     C28258   8.825   3.223   3.063 -0.3052 -0.2049 -0.6553
  210MOL0    Cl28259   8.997   3.153   3.076 -0.2431  0.4077  0.4241
  210MOL0     C28260   8.066   2.977   3.921 -0.2232 -0.7283 -0.0467
  210MOL0     C28261   7.932   2.958   3.948  0.0486 -0.3061  0.2672
  210MOL0     O28262   7.586   2.915   3.702 -0.4061 -0.1433 -0.5334
  210MOL0     C28263   7.474   2.900   4.034 -1.1493  0.8705 -0.0306
  210MOL0     C28264   7.369   2.896   4.125 -0.1121 -0.0615 -0.1448
  210MOL0     N28265   6.546   3.279   4.017  0.3152  0.1565 -0.8619
  210MOL0     N28266   6.433   3.318   4.079  0.8284  0.3552 -0.1640
  210MOL0     C28267   7.021   4.117   4.135 -0.4455  0.0515 -0.5365
  210MOL0     C28268   7.119   4.187   4.066  0.0522  0.2312 -0.1590
  210MOL0     C28269   7.439   4.469   3.961  0.1023 -0.0538 -0.2238
  210MOL0     C28270   7.394   4.539   3.847 -0.3490 -0.0679 -1.0083
  210MOL0     C28271   7.483   4.608   3.761  0.2026  0.1513 -0.2061
  210MOL0     C28272   7.620   4.603   3.794 -0.1628  0.5503  0.7217
  210MOL0     O28273   7.711   4.667   3.708  0.5464 -0.1610  0.6005
  210MOL0     C28274   7.841   4.698   3.751 -0.6752  0.8086  0.0671
  210MOL0     C28275   7.892   4.805   3.672 -0.1210 -0.7841  0.2863
  210MOL0     C28276   8.027   4.860   3.723 -0.4685  0.1800 -0.4189
  210MOL0     C28277   8.097   4.967   3.629 -0.3590 -0.2082  0.1228
  210MOL0     C28278   8.154   4.893   3.517  0.4191 -0.2905 -1.0177
  210MOL0     C28279   8.200   4.841   3.422  0.1286  0.2020  0.2966
  210MOL0     C28280   7.671   4.534   3.909 -0.1594  0.1295 -0.6047
  210MOL0     C28281   7.577   4.461   3.988 -0.2612 -0.1027 -0.3787
  210MOL0     C28282   7.636   4.380   4.095  0.3645  0.4968  0.4286
  210MOL0     H28283   7.000   4.497   4.087 -1.9423 -0.0391 -1.0888
  210MOL0     H28284   6.840   4.388   4.225  1.7996  1.5256  0.1641
  210MOL0     H28285   6.767   3.973   4.169 -3.0403  1.5500  0.6998
  210MOL0     H28286   6.866   3.946   4.309 -1.8688 -2.2480  2.7098
  210MOL0     H28287   6.577   4.020   4.288 -1.1939 -1.2863  1.9444
  210MOL0     H28288   6.674   4.049   4.440 -0.9112  1.0062 -0.1481
  210MOL0     H28289   6.738   3.801   4.404 -1.4123 -2.9994  0.5371
  210MOL0     H28290   6.596   3.804   4.290 -0.4606  1.6676 -0.2414
  210MOL0     H28291   6.570   3.890   4.569  1.9771  1.0790 -1.4921
  210MOL0     H28292   6.433   3.850   4.457 -0.1188 -1.0936 -0.9446
  210MOL0     H28293   6.635   3.678   4.594  0.3107  0.8639 -0.6580
  210MOL0     H28294   6.463   3.666   4.616  1.6472  0.7915  2.5140
  210MOL0     H28295   6.616   3.567   4.359 -0.9314 -4.2994 -1.2206
  210MOL0     H28296   6.552   3.473   4.495 -1.3665  0.8169  0.6750
  210MOL0     H28297   6.403   3.608   4.275 -1.8238 -1.3294 -0.4074
  210MOL0     H28298   6.326   3.572   4.429 -0.3135 -0.6353 -0.7952
  210MOL0     H28299   6.372   3.334   4.409 -0.1734 -0.3407 -0.5610
  210MOL0     H28300   6.268   3.402   4.285 -0.4836  1.1149  0.5697
  210MOL0     H28301   6.640   3.323   4.323  0.0410  0.2506 -0.3010
  210MOL0     H28302   6.831   3.296   4.010  3.2423  0.7031  0.0454
  210MOL0     H28303   6.833   3.321   4.183 -3.2924 -1.5391  2.3008
  210MOL0     H28304   6.789   3.073   4.205  3.4279  1.2214  1.5254
  210MOL0     H28305   6.792   3.063   4.021  1.3957 -2.9783 -0.4901
  210MOL0     H28306   7.015   3.136   4.204  1.6415  0.7489 -1.0056
  210MOL0     H28307   7.034   3.100   4.022  1.4000 -3.1284 -0.1696
  210MOL0     H28308   6.972   2.874   4.046  0.4572  0.1253  0.1394
  210MOL0     H28309   6.935   2.893   4.215 -0.7646  1.1262 -0.9710
  210MOL0     H28310   7.127   2.931   3.887 -0.4014 -1.2473 -0.5017
  210MOL0     H28311   7.297   2.955   3.748 -2.5581  0.7723  2.4758
  210MOL0     H28312   7.812   2.929   3.633 -0.6707  1.7483 -1.3043
  210MOL0     H28313   8.046   2.988   3.592  0.1898  1.3557  0.3026
  210MOL0     H28314   8.252   2.981   3.556  0.4346  1.1979 -0.4795
  210MOL0     H28315   8.253   3.151   3.619  1.8447  0.3139 -2.8048
  210MOL0     H28316   8.477   3.104   3.713  0.9348 -2.1210  0.6598
  210MOL0     H28317   8.472   2.943   3.648 -1.5872 -1.4133 -3.8230
  210MOL0     H28318   8.456   3.182   3.449  0.3273  0.8536  0.1101
  210MOL0     H28319   8.608   3.142   3.524  0.4376  0.4510 -0.6065
  210MOL0     H28320   8.431   2.926   3.383  0.4932 -0.4704 -0.8596
  210MOL0     H28321   8.596   2.919   3.432 -1.6476 -2.0401 -0.6622
  210MOL0     H28322   8.479   3.100   3.197  2.6982  0.7900 -2.6866
  210MOL0     H28323   8.567   2.950   3.184 -0.4850 -0.1617 -0.3462
  210MOL0     H28324   8.653   3.214   3.289  1.3301  0.5801  1.2571
  210MOL0     H28325   8.759   3.076   3.300  1.1789  0.1725 -1.3179
  210MOL0     H28326   8.622   3.159   3.044  0.4899  1.1506 -0.4204
  210MOL0     H28327   8.743   3.025   3.056 -1.1712  0.9019 -2.9420
  210MOL0     H28328   8.816   3.261   2.961 -0.2727 -0.4274 -0.7412
  210MOL0     H28329   8.822   3.307   3.133 -1.1554 -0.8047  0.0623
  210MOL0     H28330   8.145   2.976   3.995  1.6449  1.8235 -1.8147
  210MOL0     H28331   7.899   2.964   4.051  1.1716 -1.4541  0.7258
  210MOL0     H28332   7.566   2.886   4.088  0.2222  2.0150 -1.9292
  210MOL0     H28333   7.387   2.888   4.231  0.3673  0.5167 -0.1775
  210MOL0     H28334   7.014   4.009   4.129  1.8706 -0.0850 -2.7900
  210MOL0     H28335   7.189   4.120   4.017 -4.4388 -1.9332 -4.4966
  210MOL0     H28336   7.290   4.556   3.819  0.0771  3.6844 -0.9245
  210MOL0     H28337   7.445   4.667   3.679  2.8840  0.7990 -1.0896
  210MOL0     H28338   7.906   4.611   3.742 -0.1231  1.2766 -0.5503
  210MOL0     H28339   7.839   4.731   3.855 -0.7424  2.9710 -0.5612
  210MOL0     H28340   7.829   4.893   3.685 -1.0663 -1.5714  1.2828
  210MOL0     H28341   7.899   4.773   3.567 -1.6986  2.0946 -0.8117
  210MOL0     H28342   8.088   4.771   3.740 -0.6186 -0.1793 -1.6395
  210MOL0     H28343   8.009   4.908   3.819  1.8577  2.3938 -0.9817
  210MOL0     H28344   8.027   5.045   3.598 -0.7004 -0.2610  0.7476
  210MOL0     H28345   8.183   5.008   3.682  0.4464  0.1638 -1.3936
  210MOL0     H28346   8.239   4.780   3.343 -0.9639 -2.1806  1.4591
  210MOL0     H28347   7.779   4.534   3.914 -0.1561 -1.9145 -0.0541
  210MOL0     H28348   7.639   4.439   4.187  0.2853  0.7885  0.2472
  210MOL0     H28349   7.578   4.289   4.115 -0.1494 -0.0584 -2.9372
  210MOL0     H28350   7.742   4.362   4.075 -0.0944 -1.2301 -0.6556
  211MOL0     O28351   1.616   7.504   9.517 -0.5350 -0.6720  0.5929
  211MOL0     C28352   1.664   7.619   9.501  0.1844 -0.6085  0.2125
  211MOL0     O28353   1.790   7.659   9.548 -0.1633  0.3173 -0.6875
  211MOL0     C28354   1.866   7.557   9.596  0.5072 -0.5313 -0.0701
  211MOL0     C28355   1.845   7.533   9.732 -0.7041  0.4339 -0.6709
  211MOL0     C28356   1.904   7.412   9.787 -1.1800 -0.0906 -1.2959
  211MOL0     C28357   1.978   7.322   9.714  0.2704  0.0507 -0.2907
  211MOL0     O28358   2.032   7.204   9.744  0.2855  0.1810 -0.0770
  211MOL0     C28359   2.044   7.169   9.887  0.8940 -0.4636  0.4415
  211MOL0     C28360   2.081   7.016   9.909 -0.1605 -0.5401 -0.3380
  211MOL0     C28361   2.236   7.003   9.888 -0.3941  0.5813 -1.4862
  211MOL0     C28362   2.270   6.951   9.747 -0.8273 -0.0792  0.1147
  211MOL0     C28363   2.414   6.917   9.718 -0.7659 -0.1995 -0.8963
  211MOL0     C28364   2.419   6.836   9.581 -0.3168 -1.3881 -0.6251
  211MOL0     C28365   2.553   6.771   9.556 -0.3545  0.3203 -0.6991
  211MOL0     C28366   2.657   6.874   9.503  0.0708  0.1307  0.0437
  211MOL0     N28367   2.782   6.809   9.514 -0.3042 -0.4563  0.3903
  211MOL0     C28368   2.819   6.707   9.435  0.9930  0.1682 -0.1040
  211MOL0     C28369   2.934   6.659   9.487 -0.5941 -0.5223 -0.1127
  211MOL0     C28370   3.024   6.566   9.413  0.5603  0.3929 -0.7021
  211MOL0     C28371   3.127   6.647   9.327 -0.5365  0.4589 -0.1940
  211MOL0     C28372   3.253   6.673   9.410  0.1221  0.5245 -0.3041
  211MOL0     C28373   3.338   6.785   9.342 -1.3828  0.3993  0.7960
  211MOL0     O28374   3.397   6.742   9.228  0.4813  0.5817  0.2638
  211MOL0     C28375   3.488   6.812   9.155 -0.0874  0.2511 -0.8320
  211MOL0     C28376   3.540   6.750   9.037  0.7347  0.6372  0.3530
  211MOL0     C28377   3.642   6.806   8.962  0.3772 -0.0593  0.1374
  211MOL0     C28378   3.703   6.926   9.003  0.3670  0.1524 -0.4955
  211MOL0     C28379   3.803   6.998   8.920  0.7026 -1.0218  0.8057
  211MOL0     O28380   3.837   7.127   8.960 -0.8045 -0.2914 -0.2877
  211MOL0     C28381   3.928   7.198   8.881 -0.2020  0.9942 -0.8398
  211MOL0     C28382   4.064   7.183   8.902  0.0022 -0.3310 -0.4171
  211MOL0     C28383   4.154   7.248   8.824 -0.2714 -0.5132 -0.8746
  211MOL0     C28384   4.108   7.355   8.736  0.6248  0.4088  0.7589
  211MOL0     O28385   4.209   7.427   8.680 -0.3190 -0.6351 -0.0214
  211MOL0     C28386   4.189   7.441   8.536 -0.4839  0.0871 -0.9620
  211MOL0     C28387   4.311   7.515   8.476 -0.2986 -0.4482 -0.2350
  211MOL0     C28388   4.439   7.451   8.520  0.0754  0.1409 -0.1157
  211MOL0     C28389   4.457   7.311   8.457  0.1771 -0.3811  0.1633
  211MOL0     C28390   4.608   7.267   8.440  0.3448  0.4287  0.3283
  211MOL0     C28391   4.671   7.316   8.307  0.1513 -0.2044  0.2456
  211MOL0     C28392   4.822   7.270   8.308  0.0325  0.0810 -0.3195
  211MOL0     C28393   4.904   7.311   8.192  0.6618  0.0694 -0.1591
  211MOL0    Cl28394   4.906   7.183   8.079  0.0463  0.3359  0.1114
  211MOL0     C28395   3.973   7.384   8.722  0.3540 -0.1250  0.0639
  211MOL0     C28396   3.885   7.306   8.801  0.0917  0.7536  0.0649
  211MOL0     O28397   3.848   6.941   8.822  0.0427  0.4639 -0.1254
  211MOL0     C28398   3.664   6.971   9.129  0.0124 -0.2515 -0.1700
  211MOL0     C28399   3.553   6.920   9.197 -0.1059 -0.8158 -0.4592
  211MOL0     N28400   2.975   6.740   9.592  0.2441 -0.5710  1.3292
  211MOL0     N28401   2.884   6.827   9.606  0.7609 -0.1479  0.6730
  211MOL0     C28402   1.998   7.356   9.580  0.3482 -0.1729 -0.3664
  211MOL0     C28403   1.945   7.474   9.521  0.0407 -0.6288  0.0453
  211MOL0     C28404   1.571   7.714   9.442  0.1871  0.2563  0.2918
  211MOL0     C28405   1.434   7.705   9.477  0.4505 -0.1298  0.4392
  211MOL0     C28406   1.340   7.804   9.449 -0.4625 -0.5097  1.1190
  211MOL0     C28407   1.373   7.909   9.363 -0.4271  0.3360 -1.4500
  211MOL0     O28408   1.275   7.984   9.311 -0.5129 -0.1542  0.2814
  211MOL0     C28409   1.313   8.094   9.223  0.2926  0.1031 -0.2933
  211MOL0     C28410   1.205   8.210   9.236 -0.4463 -0.2614  0.0217
  211MOL0     C28411   1.077   8.152   9.159  0.3258 -0.2183 -0.2434
  211MOL0     C28412   0.946   8.210   9.191 -0.0303 -0.2334 -0.1711
  211MOL0     C28413   0.915   8.181   9.330 -0.2707  0.9339  0.5363
  211MOL0     C28414   0.883   8.146   9.440 -0.1135 -0.4114 -0.0338
  211MOL0     C28415   1.512   7.914   9.318  0.4069 -0.1982  0.0805
  211MOL0     C28416   1.606   7.819   9.361  0.3745  0.5272 -0.1007
  211MOL0     C28417   1.740   7.830   9.297  0.7404  0.0048  0.2593
  211MOL0     H28418   1.791   7.601   9.798  0.2755 -1.4296  2.2773
  211MOL0     H28419   1.879   7.397   9.892  0.8494 -0.2532 -0.7891
  211MOL0     H28420   2.115   7.239   9.932  1.0638 -0.8612  0.8017
  211MOL0     H28421   1.947   7.189   9.934  1.0980  1.4568  0.1274
  211MOL0     H28422   2.031   6.965   9.826  1.4564 -1.4762 -0.7867
  211MOL0     H28423   2.050   6.969  10.003 -0.1257  0.6616  0.2869
  211MOL0     H28424   2.280   6.928   9.955 -2.5308 -1.2436 -2.0171
  211MOL0     H28425   2.278   7.103   9.905 -0.8230  0.7708 -1.5236
  211MOL0     H28426   2.213   6.861   9.726 -0.0557 -0.5918  0.1655
  211MOL0     H28427   2.241   7.032   9.679 -2.2549 -1.1141 -0.5399
  211MOL0     H28428   2.480   7.004   9.715  1.6522 -1.9550 -1.8602
  211MOL0     H28429   2.453   6.859   9.802  1.1894  0.3554 -1.3779
  211MOL0     H28430   2.338   6.763   9.596 -3.6391  2.0960  0.1029
  211MOL0     H28431   2.380   6.896   9.498 -0.4873  0.2037  0.5458
  211MOL0     H28432   2.538   6.688   9.486 -0.7185  0.6464 -1.0181
  211MOL0     H28433   2.587   6.738   9.654 -3.0917 -1.1635 -0.1753
  211MOL0     H28434   2.628   6.901   9.401 -0.2410 -0.3434  0.0023
  211MOL0     H28435   2.647   6.966   9.561  0.1143 -0.5079  1.0736
  211MOL0     H28436   2.766   6.675   9.346 -3.3294 -1.4454  2.7365
  211MOL0     H28437   3.075   6.505   9.488 -0.6638  0.7172  0.4340
  211MOL0     H28438   2.961   6.513   9.340  0.5462  2.1786 -2.0552
  211MOL0     H28439   3.141   6.588   9.237 -0.1626 -0.1794  0.2734
  211MOL0     H28440   3.081   6.746   9.313 -1.2852  0.3098  1.0331
  211MOL0     H28441   3.311   6.581   9.410 -0.3214  0.2413  0.2479
  211MOL0     H28442   3.225   6.711   9.508  0.9916  0.4596 -0.0183
  211MOL0     H28443   3.418   6.805   9.414  1.8489 -1.2665 -2.0808
  211MOL0     H28444   3.291   6.882   9.321  1.5116  1.2936 -2.5146
  211MOL0     H28445   3.481   6.666   9.004  2.7015 -0.2568 -1.0302
  211MOL0     H28446   3.669   6.750   8.874 -0.0179 -2.3468  1.3868
  211MOL0     H28447   4.103   7.107   8.969 -1.2948 -4.2788 -3.7323
  211MOL0     H28448   4.260   7.225   8.838 -0.3495  0.5704  2.1230
  211MOL0     H28449   4.186   7.340   8.495 -4.4328 -0.8284  1.1274
  211MOL0     H28450   4.098   7.496   8.512 -0.4557 -0.1506 -1.6264
  211MOL0     H28451   4.301   7.506   8.368  2.6815  0.5478 -0.6862
  211MOL0     H28452   4.318   7.622   8.501 -0.7834 -0.4295 -0.1733
  211MOL0     H28453   4.512   7.524   8.484  1.6078 -0.4069  1.6761
  211MOL0     H28454   4.446   7.439   8.629 -0.0922  0.2190 -0.0972
  211MOL0     H28455   4.414   7.306   8.357 -1.3327  0.2352  0.7497
  211MOL0     H28456   4.408   7.247   8.531 -0.4995  1.8022  1.7229
  211MOL0     H28457   4.617   7.158   8.441  1.3424  0.4964  0.0939
  211MOL0     H28458   4.664   7.287   8.532 -1.4739 -2.2005  2.1205
  211MOL0     H28459   4.610   7.275   8.226 -1.1644 -1.7853  1.9513
  211MOL0     H28460   4.666   7.425   8.300 -1.3716 -0.2901 -0.3489
  211MOL0     H28461   4.826   7.161   8.317 -2.3157  0.0728  3.1570
  211MOL0     H28462   4.875   7.316   8.392  2.4091  0.5853 -2.0105
  211MOL0     H28463   4.861   7.394   8.135 -1.1741  0.6520  1.9289
  211MOL0     H28464   5.007   7.325   8.225 -0.3754  2.1982  2.4805
  211MOL0     H28465   3.939   7.467   8.661 -0.3229 -1.1056 -0.9393
  211MOL0     H28466   3.778   7.323   8.797 -0.0468 -0.1615 -0.5752
  211MOL0     H28467   3.732   7.049   9.163 -0.9682  1.3748 -1.7635
  211MOL0     H28468   3.528   6.957   9.296 -2.9231 -1.7634 -0.7499
  211MOL0     H28469   2.054   7.287   9.518  2.8077  0.6839  0.7722
  211MOL0     H28470   1.966   7.506   9.420  0.3925  0.1158  0.3465
  211MOL0     H28471   1.390   7.630   9.543  0.1606 -1.0541 -0.7693
  211MOL0     H28472   1.239   7.798   9.488 -0.6584  3.4913  1.6921
  211MOL0     H28473   1.336   8.074   9.118 -0.0342  0.8517 -0.5183
  211MOL0     H28474   1.401   8.139   9.271 -1.6318  2.6502  1.1362
  211MOL0     H28475   1.239   8.295   9.177  2.3498 -0.3969  1.2736
  211MOL0     H28476   1.177   8.237   9.339 -1.2667 -2.1232  0.3325
  211MOL0     H28477   1.068   8.044   9.177 -1.0642 -0.5132 -2.3963
  211MOL0     H28478   1.085   8.179   9.054 -2.6559  4.2123  0.3843
  211MOL0     H28479   0.954   8.317   9.173  2.2873 -0.7527 -3.2556
  211MOL0     H28480   0.859   8.164   9.143  0.8655 -2.2527  0.0126
  211MOL0     H28481   0.856   8.111   9.538 -2.4974  0.0403 -0.4685
  211MOL0     H28482   1.546   7.992   9.251  0.0118 -2.5325 -3.0595
  211MOL0     H28483   1.791   7.734   9.285  3.9834  1.9646 -4.2924
  211MOL0     H28484   1.736   7.866   9.194 -0.4909 -0.4929  0.1121
  211MOL0     H28485   1.807   7.892   9.358  2.5746 -1.9991  0.3868
  212MOL0     O28486   6.095   3.073   1.042  0.3058 -0.3395 -0.1724
  212MOL0     C28487   6.007   3.141   1.097 -0.0111  1.4326 -0.0144
  212MOL0     O28488   5.986   3.140   1.229  0.0359 -0.3558  0.4865
  212MOL0     C28489   6.074   3.077   1.319  0.7210  0.4651  0.6468
  212MOL0     C28490   6.135   3.160   1.415 -0.7139 -0.5778  0.5268
  212MOL0     C28491   6.216   3.110   1.513 -0.3588 -0.0310 -0.7647
  212MOL0     C28492   6.243   2.970   1.518  0.0627  0.4062 -0.8136
  212MOL0     O28493   6.332   2.935   1.615 -0.4177 -0.3929  0.7558
  212MOL0     C28494   6.379   2.794   1.617  0.3056  0.0827  0.0722
  212MOL0     C28495   6.514   2.774   1.693  0.0531 -1.2295  0.6668
  212MOL0     C28496   6.508   2.799   1.840 -0.2472 -0.0048  0.0344
  212MOL0     C28497   6.650   2.845   1.888 -0.5475  0.1370  0.3124
  212MOL0     C28498   6.652   2.850   2.047  0.2053 -0.3333 -0.1415
  212MOL0     C28499   6.735   2.958   2.122  0.0658 -0.0976  0.1218
  212MOL0     C28500   6.722   2.931   2.274 -0.1195 -0.7418 -1.0065
  212MOL0     C28501   6.595   2.994   2.346 -0.4322  0.1501  0.4678
  212MOL0     N28502   6.597   2.998   2.491 -0.4513 -0.5278  0.4241
  212MOL0     C28503   6.523   2.909   2.560 -0.7961 -0.5912 -0.4465
  212MOL0     C28504   6.560   2.926   2.688 -0.3902 -0.3799 -0.5762
  212MOL0     C28505   6.520   2.865   2.814  0.4084  0.3919 -0.9102
  212MOL0     C28506   6.394   2.933   2.872 -0.4554  0.0576  0.2022
  212MOL0     C28507   6.402   3.081   2.912  0.1452 -0.2728  0.0450
  212MOL0     C28508   6.261   3.133   2.925 -0.2025 -0.2918  0.7878
  212MOL0     O28509   6.189   3.075   3.042  0.2845  0.7533  0.0094
  212MOL0     C28510   6.050   3.096   3.043  0.7251  0.0969 -0.7411
  212MOL0     C28511   5.971   3.010   3.112  0.3626 -0.3989  0.3060
  212MOL0     C28512   5.835   3.027   3.129 -0.6832  0.7398 -0.5494
  212MOL0     C28513   5.771   3.134   3.069 -0.0821  0.3909  0.0569
  212MOL0     C28514   5.626   3.150   3.072 -0.4915  0.5429 -0.2753
  212MOL0     O28515   5.551   3.051   3.137  0.2822  0.2274 -0.2082
  212MOL0     C28516   5.414   3.069   3.156 -0.6996 -0.0276  0.2157
  212MOL0     C28517   5.361   3.039   3.282 -0.4266 -0.6416 -0.0611
  212MOL0     C28518   5.235   3.048   3.311 -0.7657  0.5638  0.2600
  212MOL0     C28519   5.142   3.095   3.223 -0.6934 -0.6518  0.1770
  212MOL0     O28520   5.016   3.100   3.260  0.5794  0.4561  0.3860
  212MOL0     C28521   4.919   3.113   3.156 -0.2786  0.5475  0.7548
  212MOL0     C28522   4.777   3.069   3.196 -0.9255 -0.7568  0.0828
  212MOL0     C28523   4.731   3.148   3.319 -0.1112 -0.2298 -0.4254
  212MOL0     C28524   4.590   3.130   3.330 -0.0530 -0.8870  0.0122
  212MOL0     C28525   4.510   3.232   3.414  0.6117 -0.3584  0.5385
  212MOL0     C28526   4.370   3.183   3.446 -0.1119  0.0687  0.3032
  212MOL0     C28527   4.285   3.291   3.501 -0.9490  0.3204  0.2537
  212MOL0     C28528   4.158   3.235   3.571 -0.6373  0.2142 -0.8895
  212MOL0    Cl28529   4.069   3.150   3.442  0.3285 -0.3768 -0.0986
  212MOL0     C28530   5.191   3.145   3.100 -0.5299 -0.5488  0.2658
  212MOL0     C28531   5.329   3.129   3.068  0.0603  1.1551 -0.1901
  212MOL0     O28532   5.583   3.257   3.019  0.3180  0.0627 -0.5879
  212MOL0     C28533   5.851   3.234   3.010 -0.1803 -0.4015  0.0669
  212MOL0     C28534   5.992   3.219   3.002 -0.1309 -0.3152 -0.2700
  212MOL0     N28535   6.661   3.020   2.696 -0.5127 -1.0589 -0.0536
  212MOL0     N28536   6.672   3.073   2.575  0.3265  0.0613  0.1956
  212MOL0     C28537   6.177   2.885   1.420  0.5612 -0.7121  0.1579
  212MOL0     C28538   6.093   2.937   1.333  1.0917 -0.3322  0.4940
  212MOL0     C28539   5.906   3.222   1.022 -0.8919  0.8367 -0.8129
  212MOL0     C28540   5.799   3.273   1.090  0.7408 -0.2840 -0.7069
  212MOL0     C28541   5.698   3.341   1.020  0.7728 -0.4962  0.2092
  212MOL0     C28542   5.697   3.356   0.879 -0.6505  0.5678 -0.6647
  212MOL0     O28543   5.599   3.422   0.809  0.3794 -0.0608 -0.1263
  212MOL0     C28544   5.465   3.422   0.865  0.0398  0.0426  0.1317
  212MOL0     C28545   5.395   3.286   0.838  0.4671  0.5354  0.8331
  212MOL0     C28546   5.390   3.237   0.689 -1.0662 -0.8096  0.0129
  212MOL0     C28547   5.261   3.276   0.607 -0.2364 -0.1066 -0.3872
  212MOL0     C28548   5.255   3.426   0.584  0.3708 -0.1011  0.4274
  212MOL0     C28549   5.233   3.547   0.570 -0.0197  0.2799 -0.8979
  212MOL0     C28550   5.820   3.318   0.815  0.1761 -0.1200 -0.4331
  212MOL0     C28551   5.920   3.246   0.886  0.4550  0.7019  0.3602
  212MOL0     C28552   6.041   3.202   0.799 -0.1749 -0.2745 -0.2879
  212MOL0     H28553   6.110   3.266   1.423 -0.2738 -0.4224 -0.1366
  212MOL0     H28554   6.255   3.172   1.593  0.3110  3.5111 -3.6276
  212MOL0     H28555   6.307   2.730   1.669 -0.6047  0.6357 -0.4883
  212MOL0     H28556   6.391   2.745   1.520 -4.3506  0.4900 -0.9271
  212MOL0     H28557   6.578   2.856   1.658  0.2763 -1.7233 -0.0941
  212MOL0     H28558   6.555   2.678   1.660  1.1706 -0.3361 -0.7032
  212MOL0     H28559   6.477   2.702   1.881  0.5017 -0.3962 -0.3060
  212MOL0     H28560   6.429   2.861   1.883  3.0044  1.9517  3.7534
  212MOL0     H28561   6.737   2.788   1.853  1.0724  2.7431 -0.1978
  212MOL0     H28562   6.672   2.946   1.853  0.9763 -0.8035 -1.6140
  212MOL0     H28563   6.551   2.869   2.085  0.0784 -4.3338  2.0851
  212MOL0     H28564   6.676   2.749   2.082  0.3727 -0.6356 -1.0971
  212MOL0     H28565   6.840   2.950   2.094 -0.0316 -0.7827 -0.0807
  212MOL0     H28566   6.704   3.055   2.083  0.4347  1.0015  2.3790
  212MOL0     H28567   6.812   2.978   2.314 -0.0798 -0.4682 -1.4199
  212MOL0     H28568   6.734   2.823   2.292  0.0085 -0.6538 -0.5421
  212MOL0     H28569   6.581   3.097   2.312 -0.9670 -0.4982 -1.4033
  212MOL0     H28570   6.512   2.936   2.306  0.5545 -0.1557 -1.2467
  212MOL0     H28571   6.447   2.841   2.522 -0.7474 -0.2252 -1.2320
  212MOL0     H28572   6.488   2.761   2.798  1.7496 -1.0723  3.9807
  212MOL0     H28573   6.607   2.861   2.880 -0.1058  0.9386 -0.1707
  212MOL0     H28574   6.313   2.922   2.799 -0.7909  0.1353  0.5600
  212MOL0     H28575   6.366   2.872   2.958  3.4633 -2.6107 -0.1803
  212MOL0     H28576   6.460   3.131   2.833 -0.1390 -0.9282 -0.5872
  212MOL0     H28577   6.455   3.089   3.007  0.5904 -2.6767  0.0671
  212MOL0     H28578   6.211   3.114   2.829 -0.9145  1.1231  0.8646
  212MOL0     H28579   6.272   3.241   2.936  0.8392 -0.1728 -1.0149
  212MOL0     H28580   6.016   2.916   3.143  0.6009 -0.4553 -0.2044
  212MOL0     H28581   5.792   2.945   3.186  1.6719 -0.6326 -0.6414
  212MOL0     H28582   5.425   2.973   3.339  1.2088 -1.4324 -2.6644
  212MOL0     H28583   5.209   3.010   3.409  0.3019  1.3611  0.8682
  212MOL0     H28584   4.913   3.216   3.118 -0.6904  0.4718  0.6044
  212MOL0     H28585   4.949   3.049   3.073 -1.3622 -2.0460  2.2505
  212MOL0     H28586   4.712   3.088   3.109 -3.0705 -0.1887  1.7316
  212MOL0     H28587   4.773   2.962   3.221  2.8490 -1.3879 -1.3145
  212MOL0     H28588   4.777   3.123   3.415  1.2330  1.5702 -0.5579
  212MOL0     H28589   4.752   3.254   3.305  1.2701 -0.1135  2.1147
  212MOL0     H28590   4.566   3.030   3.365 -1.3736 -0.3195  0.8331
  212MOL0     H28591   4.544   3.146   3.232  1.1092  2.1266 -0.1382
  212MOL0     H28592   4.506   3.326   3.358  0.5493 -2.1388 -2.7089
  212MOL0     H28593   4.566   3.245   3.507 -0.3572 -2.1329  1.4298
  212MOL0     H28594   4.335   3.165   3.344  0.4597  1.0773 -0.0843
  212MOL0     H28595   4.365   3.093   3.509  1.7138 -1.1989 -1.2520
  212MOL0     H28596   4.265   3.354   3.414  1.2935  2.0926  0.9162
  212MOL0     H28597   4.344   3.348   3.574 -0.2210  0.8440 -0.7094
  212MOL0     H28598   4.199   3.176   3.654  3.1721  2.2409 -1.1031
  212MOL0     H28599   4.095   3.313   3.617  0.9455  1.2286 -0.3614
  212MOL0     H28600   5.125   3.197   3.031 -0.8455  1.0410  1.6964
  212MOL0     H28601   5.373   3.147   2.970 -1.2908 -1.5266 -1.4229
  212MOL0     H28602   5.814   3.322   2.958  1.0534 -0.4777 -0.9854
  212MOL0     H28603   6.052   3.304   2.973  0.6076  1.0016  4.3893
  212MOL0     H28604   6.193   2.779   1.431 -0.5766 -1.2611 -2.8044
  212MOL0     H28605   6.042   2.869   1.265 -0.8779 -0.9065  2.4448
  212MOL0     H28606   5.782   3.261   1.196  0.4208 -3.0475 -0.9889
  212MOL0     H28607   5.628   3.397   1.083 -1.6191 -2.5362 -0.4680
  212MOL0     H28608   5.410   3.500   0.811  0.2652 -1.5465 -2.5622
  212MOL0     H28609   5.464   3.447   0.972  1.0014  2.5541 -0.3589
  212MOL0     H28610   5.289   3.308   0.857  0.9824  1.1014  3.3745
  212MOL0     H28611   5.448   3.210   0.896  1.3810  0.4458 -0.0967
  212MOL0     H28612   5.403   3.128   0.683 -0.2494 -0.6755 -0.9070
  212MOL0     H28613   5.478   3.275   0.637  1.2475 -1.8949  2.8197
  212MOL0     H28614   5.286   3.230   0.511  1.6183  3.7329 -1.9399
  212MOL0     H28615   5.169   3.226   0.638 -0.0016 -0.0719  0.3838
  212MOL0     H28616   5.220   3.652   0.587 -1.0069 -0.0955  0.9855
  212MOL0     H28617   5.844   3.349   0.714 -0.7969  0.1043 -0.6044
  212MOL0     H28618   6.004   3.118   0.740  0.1786 -0.6215 -0.0170
  212MOL0     H28619   6.057   3.277   0.720 -0.2496  0.9923  0.8658
  212MOL0     H28620   6.139   3.180   0.843  0.9004 -0.6306 -2.6743
  213MOL0     O28621   2.953   1.542   4.507  0.0041  0.1623  1.2889
  213MOL0     C28622   2.848   1.599   4.542  0.3126  0.3713 -0.7829
  213MOL0     O28623   2.840   1.725   4.594 -0.3134 -0.7856 -0.2972
  213MOL0     C28624   2.938   1.813   4.573 -0.8701 -0.2126 -0.1411
  213MOL0     C28625   2.956   1.892   4.680  1.0216  0.0156 -0.3733
  213MOL0     C28626   3.061   1.983   4.691  0.2681 -0.2615  1.0061
  213MOL0     C28627   3.140   2.007   4.576  0.3798  0.7521 -0.5189
  213MOL0     O28628   3.224   2.109   4.577 -0.2799 -0.1408 -0.2578
  213MOL0     C28629   3.342   2.102   4.653  0.1030 -0.9012  0.0594
  213MOL0     C28630   3.366   2.239   4.733  0.6134  0.8547 -0.8957
  213MOL0     C28631   3.510   2.249   4.761 -0.1650  0.3072  0.6979
  213MOL0     C28632   3.558   2.381   4.806  0.1186 -0.9880 -0.3605
  213MOL0     C28633   3.698   2.426   4.770 -0.5394  0.3174 -1.0063
  213MOL0     C28634   3.724   2.587   4.787 -0.3497  0.1566 -0.5678
  213MOL0     C28635   3.691   2.644   4.922  0.0336  0.7148  0.6670
  213MOL0     C28636   3.712   2.795   4.937 -0.5667 -0.1171 -0.2372
  213MOL0     N28637   3.861   2.831   4.935  0.7038 -0.2785  0.2236
  213MOL0     C28638   3.925   2.903   4.838 -0.1945  0.1877 -0.5216
  213MOL0     C28639   4.056   2.902   4.871  0.2740 -0.3959 -1.7120
  213MOL0     C28640   4.171   2.971   4.797 -0.8012 -0.4335  0.0418
  213MOL0     C28641   4.289   2.882   4.767 -0.0358  0.0618  0.1630
  213MOL0     C28642   4.396   2.954   4.677  0.7711  0.2164  0.1712
  213MOL0     C28643   4.529   2.878   4.675 -0.0851  0.1210 -0.0408
  213MOL0     O28644   4.639   2.941   4.614 -0.2013 -0.4848 -0.3360
  213MOL0     C28645   4.749   2.866   4.591 -0.7338 -0.2241 -0.4683
  213MOL0     C28646   4.861   2.942   4.557  0.2340 -0.2698  0.4728
  213MOL0     C28647   4.994   2.881   4.558  0.3744  0.7566 -0.0361
  213MOL0     C28648   5.002   2.740   4.590 -1.1796 -0.7749 -0.2938
  213MOL0     C28649   5.131   2.683   4.604  0.2417 -0.0459 -1.1927
  213MOL0     O28650   5.238   2.753   4.565  0.3171 -0.7007  0.3684
  213MOL0     C28651   5.365   2.716   4.575 -0.5187  0.2756 -0.4513
  213MOL0     C28652   5.418   2.599   4.625 -0.1738  0.6060 -0.8839
  213MOL0     C28653   5.555   2.577   4.641  0.4685 -0.0858  0.7909
  213MOL0     C28654   5.642   2.685   4.601 -0.8252  0.4523  0.7377
  213MOL0     O28655   5.780   2.672   4.617 -0.1553 -1.5518 -0.8705
  213MOL0     C28656   5.821   2.591   4.730 -0.1746 -0.4754  0.4225
  213MOL0     C28657   5.940   2.662   4.801  0.6037 -0.0089 -0.4623
  213MOL0     C28658   6.074   2.656   4.724 -0.1397 -0.5787  0.1353
  213MOL0     C28659   6.181   2.710   4.824 -0.0306  0.4325 -0.0292
  213MOL0     C28660   6.242   2.596   4.907 -0.5475 -0.1993  0.0079
  213MOL0     C28661   6.332   2.638   5.025 -0.7337  0.1974 -0.1090
  213MOL0     C28662   6.355   2.519   5.116  0.2506 -0.1971 -0.0638
  213MOL0     C28663   6.272   2.521   5.248  0.1380  0.8082  0.0294
  213MOL0    Cl28664   6.203   2.357   5.275 -0.4484  0.1527 -0.0931
  213MOL0     C28665   5.593   2.805   4.551 -0.1837  0.3052  0.1623
  213MOL0     C28666   5.453   2.814   4.528 -0.0843  0.1328  0.2262
  213MOL0     O28667   5.133   2.575   4.664 -0.1744  0.0250  0.3577
  213MOL0     C28668   4.885   2.662   4.601 -0.4088  0.7528  0.1993
  213MOL0     C28669   4.764   2.728   4.609  0.6195 -0.4086 -0.1525
  213MOL0     N28670   4.062   2.825   4.996 -0.0442  0.0701  0.2449
  213MOL0     N28671   3.946   2.793   5.032 -0.9426 -0.0747 -0.5230
  213MOL0     C28672   3.130   1.916   4.472 -0.0928  0.0981  0.3360
  213MOL0     C28673   3.041   1.814   4.472  0.4117  0.1834  0.0671
  213MOL0     C28674   2.722   1.510   4.557  0.0884 -0.1685 -0.1414
  213MOL0     C28675   2.604   1.573   4.584  0.8649  0.0355 -0.8449
  213MOL0     C28676   2.490   1.502   4.629 -0.2246  0.2145 -0.1775
  213MOL0     C28677   2.481   1.367   4.608 -0.5975 -0.5011  0.2130
  213MOL0     O28678   2.365   1.308   4.631 -0.0384  0.3166 -0.9143
  213MOL0     C28679   2.347   1.168   4.590 -0.4410 -0.0355 -0.2421
  213MOL0     C28680   2.203   1.124   4.605  0.6611 -0.1555 -0.8352
  213MOL0     C28681   2.108   1.164   4.496  0.5483 -0.3357  0.2368
  213MOL0     C28682   1.962   1.123   4.509  1.0935 -0.1626 -0.5007
  213MOL0     C28683   1.902   1.192   4.625  0.2462  0.2196 -1.0248
  213MOL0     C28684   1.866   1.232   4.739 -1.1051  0.0236  0.3161
  213MOL0     C28685   2.596   1.302   4.558 -0.1559 -0.9885  0.0261
  213MOL0     C28686   2.721   1.365   4.537  0.0647  0.3920  0.7430
  213MOL0     C28687   2.841   1.280   4.509 -0.5595  0.5692  1.0787
  213MOL0     H28688   2.890   1.867   4.763 -0.1902  0.5562 -1.1439
  213MOL0     H28689   3.062   2.047   4.779 -2.0585  2.0596 -0.5132
  213MOL0     H28690   3.346   2.019   4.725 -1.0164 -1.0312 -0.0103
  213MOL0     H28691   3.419   2.082   4.578  2.0300 -0.0555  1.7443
  213MOL0     H28692   3.301   2.240   4.821 -0.6851 -2.5798 -1.6542
  213MOL0     H28693   3.341   2.325   4.671  2.0455  3.5077  1.9854
  213MOL0     H28694   3.549   2.237   4.660 -3.0937  4.3517 -1.1635
  213MOL0     H28695   3.536   2.170   4.832 -1.2866  0.0542  0.8581
  213MOL0     H28696   3.496   2.462   4.767  4.0397  2.9212  0.6613
  213MOL0     H28697   3.551   2.392   4.915 -1.1386  0.7181 -0.5623
  213MOL0     H28698   3.770   2.367   4.828 -0.7708  1.1991  0.2224
  213MOL0     H28699   3.707   2.401   4.664 -1.8745 -1.6207 -0.7118
  213MOL0     H28700   3.830   2.605   4.765 -0.3376 -0.2003 -0.8119
  213MOL0     H28701   3.656   2.631   4.714 -0.5125 -1.0786 -1.1834
  213MOL0     H28702   3.768   2.598   4.984  1.7151  0.1280 -1.7310
  213MOL0     H28703   3.593   2.619   4.963  0.6380 -0.9315  1.1670
  213MOL0     H28704   3.662   2.857   4.862  2.7150  0.5813 -2.0089
  213MOL0     H28705   3.676   2.837   5.031  0.2972  2.1315 -0.8635
  213MOL0     H28706   3.885   2.958   4.754  0.1669  1.4937  0.1394
  213MOL0     H28707   4.136   3.007   4.699 -1.4559  1.9729  1.0854
  213MOL0     H28708   4.205   3.058   4.854  1.0468  0.2024 -1.8733
  213MOL0     H28709   4.342   2.859   4.860 -0.3617 -1.8802 -0.0938
  213MOL0     H28710   4.247   2.792   4.722  1.5555  0.5130 -2.4565
  213MOL0     H28711   4.409   3.054   4.721  1.1091  0.2373  0.0266
  213MOL0     H28712   4.351   2.953   4.577 -0.4003 -0.8286  0.6789
  213MOL0     H28713   4.511   2.790   4.612 -1.7123  0.6219 -0.3391
  213MOL0     H28714   4.551   2.848   4.778 -0.0618 -2.9360 -0.8333
  213MOL0     H28715   4.845   3.049   4.544 -0.1249 -0.4120 -0.2417
  213MOL0     H28716   5.079   2.943   4.530  0.4638  0.5155 -0.2985
  213MOL0     H28717   5.349   2.523   4.658  1.4089 -0.1203  0.9314
  213MOL0     H28718   5.583   2.484   4.689 -2.3050 -1.5066 -0.1350
  213MOL0     H28719   5.740   2.567   4.801 -0.1347  0.2106  0.7072
  213MOL0     H28720   5.843   2.489   4.697 -1.0061 -0.0831 -1.4591
  213MOL0     H28721   5.912   2.766   4.818  0.3806 -0.1287 -0.0749
  213MOL0     H28722   5.953   2.609   4.896 -1.3704 -1.8849 -1.1756
  213MOL0     H28723   6.110   2.558   4.692  2.0459  0.2369 -0.1433
  213MOL0     H28724   6.065   2.729   4.642 -0.1974 -0.5168  0.1972
  213MOL0     H28725   6.131   2.789   4.881  1.5864 -0.3624  2.6480
  213MOL0     H28726   6.253   2.759   4.758 -1.3282  0.4996 -1.4548
  213MOL0     H28727   6.303   2.542   4.834  3.4208 -0.4669  3.1261
  213MOL0     H28728   6.156   2.542   4.947  0.5386 -0.1186  2.6652
  213MOL0     H28729   6.427   2.678   4.987 -1.1208  2.4705  1.1425
  213MOL0     H28730   6.286   2.720   5.080 -0.1896 -0.5334  1.4987
  213MOL0     H28731   6.459   2.509   5.148 -0.2791 -1.3874  1.3959
  213MOL0     H28732   6.334   2.425   5.064  2.4042  0.1048 -1.6203
  213MOL0     H28733   6.330   2.542   5.338  1.3645 -0.9864 -0.2824
  213MOL0     H28734   6.191   2.594   5.241 -0.0544  0.4669 -1.9122
  213MOL0     H28735   5.663   2.880   4.516  0.9798 -1.7430 -2.3337
  213MOL0     H28736   5.414   2.902   4.477 -2.2128  0.5246  2.3909
  213MOL0     H28737   4.888   2.555   4.619 -2.6199  0.2026 -2.1877
  213MOL0     H28738   4.676   2.671   4.637  1.3834 -0.5617  2.2215
  213MOL0     H28739   3.205   1.918   4.394 -1.1908 -0.7908 -0.7857
  213MOL0     H28740   3.053   1.747   4.387  0.7990  4.0772 -3.2724
  213MOL0     H28741   2.598   1.682   4.589  0.2149 -0.0040 -0.6832
  213MOL0     H28742   2.408   1.556   4.676 -0.4346  0.2668 -0.5941
  213MOL0     H28743   2.411   1.111   4.657  0.5030  0.2148 -0.9142
  213MOL0     H28744   2.379   1.156   4.486 -0.0243 -0.6194 -0.0560
  213MOL0     H28745   2.165   1.165   4.699 -0.6884  1.0590 -1.8545
  213MOL0     H28746   2.199   1.014   4.606  2.0821 -0.2504 -2.0714
  213MOL0     H28747   2.141   1.116   4.404 -0.8684  1.1084 -1.0897
  213MOL0     H28748   2.099   1.273   4.492 -0.7392 -0.4270  0.2733
  213MOL0     H28749   1.918   1.160   4.416  1.7270  1.5651 -0.1473
  213MOL0     H28750   1.959   1.014   4.504 -0.5921 -0.2367  1.0227
  213MOL0     H28751   1.812   1.261   4.827 -1.4498 -0.7779  0.3682
  213MOL0     H28752   2.584   1.201   4.520 -0.1453  0.0614 -3.0021
  213MOL0     H28753   2.887   1.294   4.411  0.0267 -2.9184  0.7100
  213MOL0     H28754   2.918   1.310   4.580  2.7595 -1.2650 -1.4498
  213MOL0     H28755   2.824   1.175   4.535  2.7346  0.5457  3.7631
  214MOL0     O28756   0.853  11.289  10.315 -0.0337 -0.3500 -0.3454
  214MOL0     C28757   0.771  11.237  10.236 -0.3226  0.0715 -0.6772
  214MOL0     O28758   0.799  11.178  10.116  0.0758 -0.2383  0.1108
  214MOL0     C28759   0.929  11.173  10.072  0.7047  0.0342  0.3999
  214MOL0     C28760   1.033  11.097  10.119  0.8560  0.7393  0.0536
  214MOL0     C28761   1.159  11.097  10.060 -0.9991  0.2150 -0.5634
  214MOL0     C28762   1.196  11.197   9.974  0.6780  0.2797  0.2491
  214MOL0     O28763   1.330  11.192   9.938  0.6487 -0.3854 -0.1295
  214MOL0     C28764   1.396  11.314   9.899 -0.8187  1.4754 -0.3256
  214MOL0     C28765   1.542  11.290   9.892 -0.3518  0.1430  0.0600
  214MOL0     C28766   1.619  11.422   9.906  0.0357 -0.9332  1.1284
  214MOL0     C28767   1.777  11.395   9.917  0.1540 -0.1492 -0.6092
  214MOL0     C28768   1.869  11.518   9.925 -0.2675 -0.4947 -0.5620
  214MOL0     C28769   2.011  11.496   9.856  0.5115 -0.7409 -0.8326
  214MOL0     C28770   2.081  11.374   9.926  0.5071  0.1193  0.5363
  214MOL0     C28771   2.226  11.355   9.901 -0.5524 -0.4738 -0.6164
  214MOL0     N28772   2.309  11.443   9.986 -0.2520 -0.2012  1.1953
  214MOL0     C28773   2.389  11.544   9.939 -0.6044  0.8550 -1.7587
  214MOL0     C28774   2.468  11.585  10.045 -0.2883  0.0756  0.1672
  214MOL0     C28775   2.576  11.687  10.035  0.0652 -0.1145 -0.2857
  214MOL0     C28776   2.710  11.629  10.086 -0.2562 -0.4802 -0.7070
  214MOL0     C28777   2.817  11.737  10.106 -0.4419  0.4717 -1.0109
  214MOL0     C28778   2.950  11.667  10.125 -0.4591  0.4208  0.2165
  214MOL0     O28779   3.052  11.761  10.171  0.4185  0.3074  0.0265
  214MOL0     C28780   3.176  11.745  10.127 -0.0069  0.5400  0.2602
  214MOL0     C28781   3.232  11.837  10.041 -0.2274  0.3361 -0.6707
  214MOL0     C28782   3.368  11.823   9.983 -0.3861  0.8260 -0.1700
  214MOL0     C28783   3.436  11.703  10.015 -0.4630 -0.7259  0.7541
  214MOL0     C28784   3.571  11.682   9.961  0.8787 -0.3072 -0.1325
  214MOL0     O28785   3.637  11.568   9.994 -0.4328 -0.0319 -0.8742
  214MOL0     C28786   3.766  11.540   9.960 -0.3288 -0.0023 -0.0356
  214MOL0     C28787   3.803  11.542   9.822  0.0448 -0.9513  0.7116
  214MOL0     C28788   3.940  11.561   9.782 -0.2017 -0.2681  0.1699
  214MOL0     C28789   4.039  11.534   9.879  0.7019  0.9476 -0.7306
  214MOL0     O28790   4.172  11.529   9.863  0.2939  0.3543 -0.2496
  214MOL0     C28791   4.230  11.580   9.746  0.5819  0.1289  0.1529
  214MOL0     C28792   4.381  11.615   9.766 -1.1316 -0.2783 -0.5649
  214MOL0     C28793   4.478  11.504   9.791 -0.6787  0.4356  0.0539
  214MOL0     C28794   4.445  11.382   9.709  0.0621 -0.1652 -0.6361
  214MOL0     C28795   4.542  11.259   9.722  0.3742 -0.0409 -0.3926
  214MOL0     C28796   4.673  11.298   9.669  0.1865 -0.4464  1.3575
  214MOL0     C28797   4.680  11.322   9.513 -0.5255 -0.0236  0.5171
  214MOL0     C28798   4.819  11.298   9.459  0.0348 -0.6635 -0.1662
  214MOL0    Cl28799   4.797  11.273   9.281  0.0492 -0.4570  0.4554
  214MOL0     C28800   4.000  11.524  10.017  0.0254  0.3626  0.3764
  214MOL0     C28801   3.866  11.537  10.057  0.1596  0.2192  0.0653
  214MOL0     O28802   3.628  11.772   9.898  0.0538  0.0274  0.5296
  214MOL0     C28803   3.374  11.611  10.101 -0.4890  0.5584  0.2238
  214MOL0     C28804   3.249  11.634  10.160  0.1090 -0.2341 -0.1462
  214MOL0     N28805   2.425  11.501  10.151  0.3526 -0.3361 -0.8490
  214MOL0     N28806   2.330  11.431  10.119  0.2654 -0.2659 -0.5917
  214MOL0     C28807   1.094  11.286   9.937  0.0763 -0.5802  0.5941
  214MOL0     C28808   0.965  11.279   9.989  0.7801  0.6494  0.0198
  214MOL0     C28809   0.627  11.274  10.267  0.3067 -0.1844 -0.8504
  214MOL0     C28810   0.538  11.253  10.162  0.0190 -0.4407 -0.8434
  214MOL0     C28811   0.401  11.259  10.189 -0.9202 -0.2281 -0.0994
  214MOL0     C28812   0.352  11.284  10.313 -0.3905  0.0629 -0.1730
  214MOL0     O28813   0.217  11.262  10.345  0.1597 -0.7434  0.0287
  214MOL0     C28814   0.150  11.306  10.466 -0.4448 -0.1548  0.3416
  214MOL0     C28815   0.003  11.304  10.444 -0.6597  0.4132 -0.0001
  214MOL0     C28816  -0.084  11.328  10.564  1.5313  0.2445  0.1911
  214MOL0     C28817  -0.227  11.285  10.537 -0.6650 -0.7343 -0.1878
  214MOL0     C28818  -0.296  11.279  10.666 -0.7863 -0.8475 -0.2559
  214MOL0     C28819  -0.369  11.282  10.762 -0.2273  0.2178  0.2946
  214MOL0     C28820   0.441  11.313  10.416  0.7247 -1.7872  0.6487
  214MOL0     C28821   0.575  11.304  10.395 -0.1913 -0.5719  0.2305
  214MOL0     C28822   0.651  11.325  10.526  0.0435 -0.8366 -0.0704
  214MOL0     H28823   0.991  11.047  10.206 -0.0882 -0.4405 -1.0299
  214MOL0     H28824   1.229  11.023  10.099 -1.2487  0.8675  1.2256
  214MOL0     H28825   1.355  11.358   9.807  0.3757 -0.3672 -1.8078
  214MOL0     H28826   1.381  11.383   9.983 -2.3204  0.8836 -0.0772
  214MOL0     H28827   1.562  11.257   9.790 -2.4135  1.1003 -0.7271
  214MOL0     H28828   1.574  11.212   9.962  0.1893  0.9831  0.7843
  214MOL0     H28829   1.577  11.468   9.997 -1.2694 -1.6202  0.8882
  214MOL0     H28830   1.601  11.481   9.816  1.4219 -1.0824  0.7308
  214MOL0     H28831   1.798  11.330  10.002  0.7196 -0.5898 -1.0838
  214MOL0     H28832   1.801  11.352   9.820  0.2949 -3.8450  0.9010
  214MOL0     H28833   1.817  11.594   9.865  1.0370  1.5997  0.8535
  214MOL0     H28834   1.871  11.547  10.031 -1.4724 -1.2579 -0.3022
  214MOL0     H28835   1.998  11.475   9.749 -3.9512  1.8259 -1.0195
  214MOL0     H28836   2.082  11.579   9.861  2.2484 -2.1946 -0.0899
  214MOL0     H28837   2.044  11.274   9.902 -2.1256  0.5932  2.1700
  214MOL0     H28838   2.062  11.385  10.033  1.4934  1.1169  0.6298
  214MOL0     H28839   2.249  11.254   9.937 -0.4998  0.6417  2.9009
  214MOL0     H28840   2.250  11.362   9.795 -0.5816  0.9462 -0.5400
  214MOL0     H28841   2.398  11.580   9.837  1.9614  1.0094 -1.5326
  214MOL0     H28842   2.573  11.711   9.929 -2.1461 -0.0591 -0.2707
  214MOL0     H28843   2.544  11.777  10.088  0.2798  0.6107 -1.3750
  214MOL0     H28844   2.677  11.593  10.184 -2.5424 -0.3442 -1.3560
  214MOL0     H28845   2.750  11.553  10.017  0.9463  0.9181 -1.6210
  214MOL0     H28846   2.809  11.793  10.200 -1.1910  0.9244 -1.3350
  214MOL0     H28847   2.816  11.802  10.017  2.9259  0.9295 -0.8562
  214MOL0     H28848   2.983  11.623  10.030 -0.2237  0.4482  0.2870
  214MOL0     H28849   2.941  11.584  10.196  1.7048 -1.1323 -1.1972
  214MOL0     H28850   3.175  11.924  10.010  1.1490  1.6070  0.2139
  214MOL0     H28851   3.407  11.909   9.929  0.4755 -0.7332 -2.1579
  214MOL0     H28852   3.728  11.562   9.747  0.4577 -3.0719 -0.3153
  214MOL0     H28853   3.971  11.583   9.680  5.9550  1.4860  1.9709
  214MOL0     H28854   4.218  11.510   9.663 -0.1012  0.7997 -0.3299
  214MOL0     H28855   4.169  11.667   9.722 -0.5976 -0.1176  2.0637
  214MOL0     H28856   4.425  11.676   9.687 -0.6958 -2.4783 -2.1178
  214MOL0     H28857   4.386  11.671   9.859 -0.1323  0.6119 -1.1384
  214MOL0     H28858   4.582  11.539   9.781 -0.5582  0.4398  1.2176
  214MOL0     H28859   4.457  11.475   9.894 -0.1286  0.5600  0.2045
  214MOL0     H28860   4.421  11.411   9.606  0.0490  2.0358 -0.0693
  214MOL0     H28861   4.348  11.354   9.750  0.4513  1.1876  1.3263
  214MOL0     H28862   4.515  11.168   9.667 -0.5971 -0.1175  0.1990
  214MOL0     H28863   4.545  11.239   9.829  3.0205  2.8491  0.2215
  214MOL0     H28864   4.717  11.383   9.721 -3.1688  4.4764 -2.8151
  214MOL0     H28865   4.738  11.212   9.688  1.2026  0.1382  0.6418
  214MOL0     H28866   4.647  11.425   9.494  2.0605  1.4619  3.1894
  214MOL0     H28867   4.612  11.253   9.462  1.3659 -0.4620 -1.5604
  214MOL0     H28868   4.886  11.382   9.476  0.2100 -1.1565  1.9873
  214MOL0     H28869   4.869  11.213   9.507 -1.2225 -0.1716  2.2087
  214MOL0     H28870   4.080  11.497  10.084  1.2003  1.3938 -0.5778
  214MOL0     H28871   3.833  11.529  10.160 -1.9361  2.8045 -0.3249
  214MOL0     H28872   3.434  11.525  10.129 -2.1422 -0.4108  0.9281
  214MOL0     H28873   3.214  11.562  10.233  1.2616  1.2912  2.0045
  214MOL0     H28874   1.122  11.371   9.876  0.4843 -0.0317  1.5270
  214MOL0     H28875   0.884  11.347   9.965 -2.6662 -2.9406  0.4251
  214MOL0     H28876   0.566  11.229  10.059  0.3546  0.3551 -0.9430
  214MOL0     H28877   0.347  11.230  10.100  0.4741 -3.0372 -0.1387
  214MOL0     H28878   0.177  11.411  10.481 -2.1317  0.0403  2.6933
  214MOL0     H28879   0.155  11.230  10.546 -2.3515 -1.4955 -0.7412
  214MOL0     H28880  -0.014  11.201  10.413  0.6006  0.9479 -2.7577
  214MOL0     H28881  -0.011  11.376  10.363  1.1790 -0.0505 -0.7860
  214MOL0     H28882  -0.085  11.434  10.589  0.8441  0.6535 -1.4274
  214MOL0     H28883  -0.045  11.278  10.653  1.1548  2.5586  1.7248
  214MOL0     H28884  -0.282  11.353  10.471 -1.2692 -1.4512 -0.4401
  214MOL0     H28885  -0.216  11.181  10.503  0.5964 -1.5708  2.4868
  214MOL0     H28886  -0.423  11.271  10.854 -0.1215 -0.5968  0.2672
  214MOL0     H28887   0.401  11.330  10.515  2.1741  0.1020  0.9621
  214MOL0     H28888   0.753  11.357  10.507 -0.0784 -0.0460  0.5457
  214MOL0     H28889   0.611  11.407  10.587 -0.0169 -1.7673  1.1861
  214MOL0     H28890   0.643  11.230  10.580 -0.0505 -0.4323  0.6338
  215MOL0     O28891   5.507   1.848   7.376  0.4250  0.2879  0.0362
  215MOL0     C28892   5.457   1.757   7.448  0.8657 -0.5610  0.7348
  215MOL0     O28893   5.531   1.655   7.495  0.9192  0.3132 -0.0207
  215MOL0     C28894   5.662   1.649   7.453 -0.4059  1.2676 -0.7377
  215MOL0     C28895   5.766   1.703   7.531  0.0451  0.3768  0.0608
  215MOL0     C28896   5.902   1.666   7.500  0.3086 -0.0159 -0.0764
  215MOL0     C28897   5.926   1.593   7.382  0.4483 -0.3805  0.1469
  215MOL0     O28898   6.052   1.576   7.337  0.0765  0.2299  0.8433
  215MOL0     C28899   6.158   1.554   7.431  0.3807  0.2547  0.0237
  215MOL0     C28900   6.282   1.530   7.354  0.1880 -0.1373  0.3822
  215MOL0     C28901   6.402   1.489   7.441  1.2191  0.4889 -0.2499
  215MOL0     C28902   6.539   1.521   7.376  0.7685 -0.2682 -0.1402
  215MOL0     C28903   6.659   1.482   7.458 -1.3100  0.3054  0.1492
  215MOL0     C28904   6.780   1.537   7.388  0.2597  0.1423 -0.8298
  215MOL0     C28905   6.913   1.483   7.443  0.1152  0.2095  0.0877
  215MOL0     C28906   7.036   1.531   7.364  0.1313  0.9548  0.6044
  215MOL0     N28907   7.157   1.462   7.411 -0.0917 -0.5122 -0.1452
  215MOL0     C28908   7.176   1.328   7.411 -0.3396 -0.6185 -0.0652
  215MOL0     C28909   7.280   1.306   7.491 -0.1722  0.1356  0.3352
  215MOL0     C28910   7.311   1.171   7.543  0.3865 -1.3692 -0.3474
  215MOL0     C28911   7.301   1.161   7.693  0.3221 -0.7167 -0.1497
  215MOL0     C28912   7.268   1.016   7.737 -0.2605  0.0983 -0.5456
  215MOL0     C28913   7.339   0.902   7.661  0.3249  0.6732 -0.9366
  215MOL0     O28914   7.326   0.772   7.734  0.2717 -0.1464  0.3905
  215MOL0     C28915   7.199   0.724   7.717  0.1602  0.0493 -0.3939
  215MOL0     C28916   7.093   0.747   7.807 -0.5378 -1.1345 -0.9040
  215MOL0     C28917   6.964   0.707   7.791 -0.4569 -0.5576 -0.0907
  215MOL0     C28918   6.927   0.637   7.669  0.5793 -0.5393 -0.0100
  215MOL0     C28919   6.793   0.601   7.626  0.7661 -0.0959  0.8680
  215MOL0     O28920   6.693   0.599   7.719  0.7509 -0.0750 -0.6906
  215MOL0     C28921   6.565   0.563   7.683  0.0529 -0.3281  0.2953
  215MOL0     C28922   6.468   0.663   7.676 -0.3029  0.7982  0.2461
  215MOL0     C28923   6.339   0.635   7.632  0.6079  1.0565 -0.0606
  215MOL0     C28924   6.308   0.501   7.593  0.1802 -0.1488  0.9297
  215MOL0     O28925   6.178   0.446   7.578 -0.1912  0.4246  0.6462
  215MOL0     C28926   6.078   0.525   7.509  0.2374 -0.7383  0.2683
  215MOL0     C28927   5.943   0.461   7.530 -0.2425  0.2230 -0.0198
  215MOL0     C28928   5.944   0.305   7.492 -0.3277 -0.3332  0.5912
  215MOL0     C28929   5.800   0.246   7.527  0.2952  0.0475 -0.2413
  215MOL0     C28930   5.772   0.114   7.455 -0.4078 -0.9198 -0.7702
  215MOL0     C28931   5.845  -0.014   7.495  0.6083 -0.3473  0.3508
  215MOL0     C28932   5.799  -0.082   7.625  0.3043 -0.2604  0.0470
  215MOL0     C28933   5.891  -0.200   7.673 -0.1753 -0.4017  0.3834
  215MOL0    Cl28934   6.055  -0.153   7.740  0.2902  0.0641 -0.0547
  215MOL0     C28935   6.408   0.403   7.586  1.2124 -1.2926 -0.3525
  215MOL0     C28936   6.537   0.437   7.628  0.5544  0.0055 -0.2631
  215MOL0     O28937   6.772   0.587   7.502 -0.3994 -0.4840 -0.4614
  215MOL0     C28938   7.031   0.625   7.571 -0.1863  0.3508  0.0587
  215MOL0     C28939   7.164   0.671   7.599  0.7114  0.3724  0.1089
  215MOL0     N28940   7.345   1.426   7.527  0.2519  0.5898  0.1013
  215MOL0     N28941   7.262   1.519   7.478  0.4415 -0.5916  0.4473
  215MOL0     C28942   5.827   1.564   7.292  0.8810 -0.5459  0.4370
  215MOL0     C28943   5.694   1.586   7.330  0.4033 -0.0180  0.5509
  215MOL0     C28944   5.312   1.757   7.481  0.0348  0.1013  0.0979
  215MOL0     C28945   5.274   1.693   7.603 -0.5135  0.4295  0.4143
  215MOL0     C28946   5.141   1.681   7.640 -0.1917 -0.0139  0.1488
  215MOL0     C28947   5.036   1.738   7.566 -0.6835 -0.2455  0.8280
  215MOL0     O28948   4.901   1.713   7.602 -0.6186 -0.1664  0.0783
  215MOL0     C28949   4.805   1.809   7.554  0.4081  0.6310  0.2910
  215MOL0     C28950   4.660   1.771   7.601 -0.1609 -0.1630  0.0239
  215MOL0     C28951   4.556   1.823   7.503  0.4266 -1.2908 -0.1281
  215MOL0     C28952   4.569   1.976   7.476  0.6940 -0.3160 -0.2789
  215MOL0     C28953   4.571   2.057   7.598  0.2030 -0.5802  1.0330
  215MOL0     C28954   4.562   2.139   7.688  0.8019  0.3371 -0.6295
  215MOL0     C28955   5.076   1.807   7.452  0.0695  1.1527 -0.5683
  215MOL0     C28956   5.210   1.823   7.414 -0.4195  0.2214 -0.1853
  215MOL0     C28957   5.221   1.919   7.306  0.4763  0.4509 -0.5635
  215MOL0     H28958   5.731   1.753   7.621  1.3412  1.7528 -0.1476
  215MOL0     H28959   5.975   1.711   7.566 -1.7421  1.8632  1.0791
  215MOL0     H28960   6.170   1.643   7.492 -2.1333  1.6331 -1.3250
  215MOL0     H28961   6.122   1.471   7.493  1.0196 -0.7720 -0.9326
  215MOL0     H28962   6.302   1.623   7.298 -0.0685 -1.3951 -1.9294
  215MOL0     H28963   6.268   1.446   7.285 -1.8946 -2.8680  3.7767
  215MOL0     H28964   6.387   1.382   7.460  0.0401  0.4809 -1.1035
  215MOL0     H28965   6.414   1.534   7.540 -1.8495 -0.0987  0.4880
  215MOL0     H28966   6.534   1.471   7.278 -4.9098  2.4610 -1.6622
  215MOL0     H28967   6.541   1.627   7.350  2.9760 -0.7902 -2.4661
  215MOL0     H28968   6.650   1.525   7.558 -0.8928  3.2425 -0.9956
  215MOL0     H28969   6.665   1.373   7.459 -1.2552  0.2820  2.4269
  215MOL0     H28970   6.772   1.506   7.283  0.9771 -1.3422 -0.4767
  215MOL0     H28971   6.784   1.645   7.404 -1.2364 -0.0131  0.8149
  215MOL0     H28972   6.905   1.374   7.444  0.8303  0.1517  1.3167
  215MOL0     H28973   6.924   1.521   7.545 -3.1174  0.3945  0.4577
  215MOL0     H28974   7.019   1.526   7.256 -0.1684  2.2852  0.5701
  215MOL0     H28975   7.054   1.637   7.385  1.4267  1.1096 -1.0756
  215MOL0     H28976   7.108   1.253   7.374 -0.1911 -0.8234  0.0795
  215MOL0     H28977   7.238   1.103   7.498 -0.1810 -0.8800 -0.1771
  215MOL0     H28978   7.409   1.137   7.508  0.5481  0.6071 -2.0145
  215MOL0     H28979   7.396   1.188   7.740  0.0549  0.9905 -0.5100
  215MOL0     H28980   7.218   1.220   7.733  0.5598  0.4411 -1.2678
  215MOL0     H28981   7.160   0.996   7.730  0.0335 -1.3936 -1.1314
  215MOL0     H28982   7.292   1.004   7.843 -3.5166  1.1379  0.4311
  215MOL0     H28983   7.445   0.930   7.656  0.4438  0.1963 -1.1838
  215MOL0     H28984   7.313   0.896   7.555  0.7231 -2.0662 -0.9680
  215MOL0     H28985   7.114   0.802   7.899 -0.5374 -1.9222 -0.4266
  215MOL0     H28986   6.891   0.741   7.864 -0.7799  0.9813 -1.0839
  215MOL0     H28987   6.496   0.764   7.704 -1.9839  2.0932 -2.3650
  215MOL0     H28988   6.264   0.713   7.644  1.1459  1.6332 -0.3819
  215MOL0     H28989   6.062   0.619   7.563 -0.0053  1.0976 -2.7684
  215MOL0     H28990   6.102   0.542   7.404 -0.0016 -5.6787 -0.7872
  215MOL0     H28991   5.924   0.476   7.637 -0.8881 -0.2545 -0.0607
  215MOL0     H28992   5.867   0.511   7.469 -1.5738 -0.6106  0.9143
  215MOL0     H28993   5.959   0.303   7.384 -0.1433 -1.4124  0.6274
  215MOL0     H28994   6.019   0.249   7.549  0.2826 -1.8785 -1.6131
  215MOL0     H28995   5.717   0.313   7.504  0.3180 -0.2960 -1.3816
  215MOL0     H28996   5.801   0.225   7.635 -0.4270 -1.3795 -0.4900
  215MOL0     H28997   5.786   0.123   7.347 -0.7545 -2.3256 -0.9508
  215MOL0     H28998   5.665   0.093   7.455 -0.3366 -1.3216 -0.0891
  215MOL0     H28999   5.843  -0.077   7.405  1.2796  2.3892 -1.6996
  215MOL0     H29000   5.947   0.022   7.513  1.3898  0.0226 -3.7654
  215MOL0     H29001   5.693  -0.104   7.611 -0.0576  0.1609  1.8462
  215MOL0     H29002   5.810   0.001   7.696  3.7078 -1.1345  0.7281
  215MOL0     H29003   5.844  -0.267   7.746  0.8470 -2.3652 -0.6530
  215MOL0     H29004   5.910  -0.274   7.595  1.9862 -1.0054  1.4174
  215MOL0     H29005   6.381   0.302   7.556 -0.7262 -0.8923 -0.0690
  215MOL0     H29006   6.612   0.360   7.621  0.1541 -0.6407  1.7527
  215MOL0     H29007   7.029   0.579   7.472  1.2929 -1.1981  0.7002
  215MOL0     H29008   7.240   0.670   7.522 -1.2517  0.8720 -1.9178
  215MOL0     H29009   5.863   1.534   7.194  2.9796  0.0849  0.9672
  215MOL0     H29010   5.614   1.541   7.271  0.1901 -0.8917  1.4789
  215MOL0     H29011   5.349   1.645   7.665 -0.8577 -0.2814  0.2950
  215MOL0     H29012   5.117   1.625   7.730 -3.4577 -0.2734 -0.7542
  215MOL0     H29013   4.803   1.783   7.448 -2.7004 -0.2219  0.4671
  215MOL0     H29014   4.832   1.915   7.557  1.5265  0.3719 -0.1980
  215MOL0     H29015   4.642   1.778   7.709  0.8038 -2.9380  0.4480
  215MOL0     H29016   4.656   1.664   7.581 -0.5155  0.0190 -0.9298
  215MOL0     H29017   4.450   1.812   7.527  0.0086  1.2057 -0.5778
  215MOL0     H29018   4.572   1.759   7.415  0.9520  0.1206 -1.0956
  215MOL0     H29019   4.654   1.983   7.407  0.2549 -0.9242 -0.8943
  215MOL0     H29020   4.481   2.015   7.425  0.0627  1.0184  1.6805
  215MOL0     H29021   4.544   2.213   7.764 -1.2572  1.9752 -2.5998
  215MOL0     H29022   5.004   1.846   7.380  1.0725  1.7865 -1.2593
  215MOL0     H29023   5.198   1.876   7.208 -1.4398  4.7074 -2.2509
  215MOL0     H29024   5.147   1.998   7.322  1.3017  1.1465 -0.1599
  215MOL0     H29025   5.316   1.972   7.300  0.4766  1.2866  3.7024
  216MOL0     O29026  10.800   1.538   2.842  0.5000 -0.3154 -0.2359
  216MOL0     C29027  10.877   1.632   2.866 -0.0885 -0.3716  0.0538
  216MOL0     O29028  11.009   1.623   2.895 -0.2388  0.6450 -0.5778
  216MOL0     C29029  11.068   1.503   2.907  0.1813 -0.2574  0.5480
  216MOL0     C29030  11.150   1.459   2.806 -0.4690 -0.3681 -0.6278
  216MOL0     C29031  11.225   1.341   2.835  0.3234 -0.1144 -0.4346
  216MOL0     C29032  11.205   1.263   2.953  0.4742 -0.3886 -1.3970
  216MOL0     O29033  11.294   1.163   2.985  0.0994 -0.5695  0.7083
  216MOL0     C29034  11.296   1.109   3.115  0.6947  0.2257 -0.4059
  216MOL0     C29035  11.419   1.013   3.142  0.6929 -0.1288  1.0534
  216MOL0     C29036  11.555   1.042   3.072 -0.3474  0.8006 -0.5346
  216MOL0     C29037  11.669   0.957   3.141 -0.1292 -0.3703  0.1275
  216MOL0     C29038  11.818   0.974   3.098 -0.3986  0.7272  0.6616
  216MOL0     C29039  11.887   0.844   3.134 -0.8629  0.3799  0.2437
  216MOL0     C29040  12.043   0.846   3.108  0.7591  0.7167  0.3195
  216MOL0     C29041  12.075   0.742   3.002 -1.0714  0.1576 -0.6428
  216MOL0     N29042  12.207   0.781   2.936 -0.3876  0.3641  0.0182
  216MOL0     C29043  12.208   0.834   2.804  0.1781 -0.3044 -0.1334
  216MOL0     C29044  12.338   0.873   2.792  0.4449  0.2507 -0.2367
  216MOL0     C29045  12.394   0.945   2.676 -0.0758  0.1559 -0.2888
  216MOL0     C29046  12.381   1.095   2.680 -0.7074 -0.6591 -0.3805
  216MOL0     C29047  12.525   1.160   2.671 -0.4063  0.5590 -0.3396
  216MOL0     C29048  12.503   1.316   2.636  0.5692  0.0391 -0.5880
  216MOL0     O29049  12.619   1.390   2.637  0.5945 -0.3946 -1.0033
  216MOL0     C29050  12.686   1.409   2.750  0.3599  0.2025  0.0463
  216MOL0     C29051  12.814   1.463   2.739  0.4177  0.1731  0.4363
  216MOL0     C29052  12.895   1.480   2.852  0.2948  0.2900  1.5621
  216MOL0     C29053  12.844   1.469   2.981  0.1452  0.0811 -0.2859
  216MOL0     C29054  12.927   1.481   3.101 -0.7147  0.2689  0.6406
  216MOL0     O29055  13.055   1.534   3.077 -0.0278  0.0025 -0.4531
  216MOL0     C29056  13.138   1.587   3.172 -0.6551 -0.5611 -0.2406
  216MOL0     C29057  13.273   1.571   3.147  0.1628  0.5443  0.1906
  216MOL0     C29058  13.360   1.642   3.229 -0.3066  0.1459  0.2998
  216MOL0     C29059  13.319   1.734   3.329  0.3354  0.8209 -0.9706
  216MOL0     O29060  13.416   1.790   3.407 -0.2347  0.6773 -0.9592
  216MOL0     C29061  13.386   1.898   3.494 -0.3279 -0.4882  0.2347
  216MOL0     C29062  13.522   1.937   3.560 -0.8571  0.1363 -0.0448
  216MOL0     C29063  13.614   1.995   3.454  0.8285  0.0038 -0.8455
  216MOL0     C29064  13.750   2.033   3.515  0.0630  0.4392 -0.8766
  216MOL0     C29065  13.844   2.067   3.408 -0.2080 -0.5353  0.0818
  216MOL0     C29066  13.983   2.104   3.464  1.2293  0.3816 -0.5584
  216MOL0     C29067  14.079   2.162   3.363  0.1433 -0.1673  0.4350
  216MOL0     C29068  14.221   2.140   3.402 -1.0564  0.3726 -0.9276
  216MOL0    Cl29069  14.322   2.229   3.288  0.3049 -0.4182  0.3039
  216MOL0     C29070  13.178   1.748   3.354 -0.9264 -0.0877  0.5100
  216MOL0     C29071  13.092   1.672   3.270  0.2649 -0.3592  0.4214
  216MOL0     O29072  12.879   1.464   3.214  0.1984 -0.6234 -0.2029
  216MOL0     C29073  12.711   1.420   2.993  0.2455 -0.4624  0.3489
  216MOL0     C29074  12.642   1.384   2.882 -0.5020 -0.0717  0.6750
  216MOL0     N29075  12.413   0.822   2.897 -0.1142 -0.2635 -0.2040
  216MOL0     N29076  12.330   0.786   2.991 -0.3510 -0.1389  0.9444
  216MOL0     C29077  11.106   1.303   3.045  0.4113 -0.1128  0.5148
  216MOL0     C29078  11.041   1.424   3.017 -0.1629  0.2740 -0.6373
  216MOL0     C29079  10.824   1.764   2.839  0.9547 -0.4321  0.6733
  216MOL0     C29080  10.901   1.867   2.786 -0.6538 -0.3382  0.4244
  216MOL0     C29081  10.850   1.997   2.757  0.5067  0.2183  0.5976
  216MOL0     C29082  10.718   2.039   2.784 -0.0400 -0.0231  0.2421
  216MOL0     O29083  10.673   2.164   2.748 -0.1646 -0.3690  0.0644
  216MOL0     C29084  10.535   2.178   2.710  0.3060  0.7420 -0.6029
  216MOL0     C29085  10.517   2.308   2.635 -0.1509  0.4622  0.1817
  216MOL0     C29086  10.521   2.422   2.732 -0.0923 -0.6709  0.0184
  216MOL0     C29087  10.515   2.544   2.654 -0.2803 -0.0958  0.0908
  216MOL0     C29088  10.637   2.566   2.573  0.3452 -0.0987 -0.3182
  216MOL0     C29089  10.726   2.587   2.499  0.5296  0.0403  0.6087
  216MOL0     C29090  10.647   1.935   2.842 -0.0500  0.1009  0.5061
  216MOL0     C29091  10.697   1.801   2.863  0.3221 -0.1456  0.4303
  216MOL0     C29092  10.598   1.709   2.929  0.5954 -0.0342  0.1533
  216MOL0     H29093  11.173   1.521   2.720  2.6263 -2.2069 -1.2680
  216MOL0     H29094  11.287   1.302   2.755  1.4155 -3.8307  1.9499
  216MOL0     H29095  11.297   1.195   3.183  3.3288 -0.1085  0.0970
  216MOL0     H29096  11.211   1.044   3.136  0.7491 -0.0673 -1.0710
  216MOL0     H29097  11.389   0.915   3.106  1.6270 -0.4209  1.0439
  216MOL0     H29098  11.437   1.005   3.250  0.6463  1.0865  1.1720
  216MOL0     H29099  11.579   1.149   3.081  1.5388  0.3485  0.4784
  216MOL0     H29100  11.559   1.014   2.966  0.8783  2.3879 -0.9560
  216MOL0     H29101  11.670   0.981   3.248  1.4882 -0.7704  0.2290
  216MOL0     H29102  11.633   0.854   3.134 -1.1202 -0.1947  1.8965
  216MOL0     H29103  11.832   0.991   2.990  2.5900  1.5730  1.1013
  216MOL0     H29104  11.864   1.055   3.154 -2.2949  2.0668  0.3855
  216MOL0     H29105  11.862   0.823   3.238 -2.2786 -2.2113 -0.5130
  216MOL0     H29106  11.827   0.776   3.073  0.6719  0.0097 -0.9307
  216MOL0     H29107  12.103   0.819   3.195  0.5278  0.8747  0.5297
  216MOL0     H29108  12.075   0.947   3.078  2.5633 -0.1244 -0.7549
  216MOL0     H29109  12.087   0.654   3.065  0.2794  1.4791  1.0550
  216MOL0     H29110  11.988   0.719   2.941 -0.9349 -0.7443 -0.5124
  216MOL0     H29111  12.126   0.845   2.733 -0.7044  0.1349  0.9343
  216MOL0     H29112  12.498   0.911   2.662 -0.4679 -0.4532 -1.9233
  216MOL0     H29113  12.351   0.903   2.585  2.6758  0.5120 -1.8963
  216MOL0     H29114  12.319   1.135   2.599 -2.4525  1.4023  1.8253
  216MOL0     H29115  12.342   1.132   2.775 -0.6774 -1.5258 -0.0153
  216MOL0     H29116  12.583   1.106   2.595 -2.1807 -0.7812 -0.8037
  216MOL0     H29117  12.574   1.149   2.768 -1.1990  1.1684  0.1399
  216MOL0     H29118  12.425   1.359   2.698 -1.1365 -0.0306 -2.5620
  216MOL0     H29119  12.471   1.307   2.532  3.1940 -0.3500 -1.4524
  216MOL0     H29120  12.839   1.481   2.635 -1.7663  2.0078  0.1499
  216MOL0     H29121  12.999   1.504   2.834 -0.1207  1.4011  0.4184
  216MOL0     H29122  13.287   1.491   3.075 -0.3778 -0.6746  1.3950
  216MOL0     H29123  13.467   1.636   3.216  0.0836 -0.1387  3.0324
  216MOL0     H29124  13.345   1.982   3.436 -1.4932 -0.8917  0.4516
  216MOL0     H29125  13.318   1.859   3.570  2.4279  0.5744  3.4963
  216MOL0     H29126  13.514   1.997   3.651 -3.0771 -0.9094  0.5314
  216MOL0     H29127  13.566   1.843   3.596  1.0958  0.5315 -1.2395
  216MOL0     H29128  13.627   1.915   3.380 -1.2359  0.2629 -1.5664
  216MOL0     H29129  13.567   2.080   3.404  2.2694  3.5945  3.3390
  216MOL0     H29130  13.788   1.943   3.564  1.0986  1.3531  0.0625
  216MOL0     H29131  13.737   2.108   3.594  1.0050  1.1496 -1.3751
  216MOL0     H29132  13.806   2.155   3.356 -1.2585  0.0455  1.7338
  216MOL0     H29133  13.853   1.975   3.350  0.6484  0.2777 -1.1063
  216MOL0     H29134  13.977   2.180   3.542  1.5357  0.5032 -0.6510
  216MOL0     H29135  14.025   2.012   3.507  0.2955 -0.2283 -0.9186
  216MOL0     H29136  14.057   2.269   3.351  0.4271  0.0260  1.4993
  216MOL0     H29137  14.053   2.102   3.276  1.2462  0.4170 -0.3127
  216MOL0     H29138  14.235   2.159   3.509 -1.7852 -2.7525 -0.1803
  216MOL0     H29139  14.243   2.034   3.387  0.0093  0.3899  0.3282
  216MOL0     H29140  13.148   1.831   3.417  1.4683  1.1170  0.1733
  216MOL0     H29141  12.986   1.691   3.284  0.3484 -1.1597  2.3472
  216MOL0     H29142  12.665   1.396   3.089  0.1072  1.1920  0.7246
  216MOL0     H29143  12.541   1.351   2.902 -1.2188  0.6888 -1.4698
  216MOL0     H29144  11.096   1.248   3.138 -0.9656 -0.6946  0.0467
  216MOL0     H29145  10.973   1.466   3.090 -0.5240  0.7723 -1.2416
  216MOL0     H29146  11.006   1.852   2.766 -0.5007  1.1082  0.0307
  216MOL0     H29147  10.915   2.067   2.705  1.0254 -2.0048 -1.9745
  216MOL0     H29148  10.481   2.179   2.805  1.6699  2.0836  0.2071
  216MOL0     H29149  10.512   2.091   2.648 -2.3140  1.1144 -0.2379
  216MOL0     H29150  10.412   2.300   2.604  0.0048  0.1514 -0.2637
  216MOL0     H29151  10.586   2.314   2.551  1.4825  1.4859  1.5493
  216MOL0     H29152  10.613   2.415   2.792 -0.4394 -1.7885  0.4438
  216MOL0     H29153  10.436   2.414   2.800 -0.2526 -1.4757 -0.2661
  216MOL0     H29154  10.422   2.538   2.596  0.3654 -2.7826 -0.7941
  216MOL0     H29155  10.511   2.633   2.718  0.8468  0.1072 -0.1021
  216MOL0     H29156  10.790   2.604   2.415 -2.2871 -1.8340 -2.1602
  216MOL0     H29157  10.547   1.962   2.876 -0.6124  2.0455 -2.3048
  216MOL0     H29158  10.647   1.657   3.012  1.4116 -1.7607 -1.3126
  216MOL0     H29159  10.516   1.771   2.965 -0.2589 -0.3412 -1.1879
  216MOL0     H29160  10.561   1.636   2.856  2.1791 -0.4864 -0.2553
  217MOL0     O29161   2.177   2.981   4.294 -1.2420 -0.0818  0.2835
  217MOL0     C29162   2.165   3.089   4.353 -0.3109  0.1502  0.4896
  217MOL0     O29163   2.263   3.186   4.366 -0.0690 -0.0683 -0.4072
  217MOL0     C29164   2.380   3.158   4.295  0.1043  0.2588 -0.6886
  217MOL0     C29165   2.478   3.059   4.317 -0.0764  0.1511  0.4702
  217MOL0     C29166   2.589   3.055   4.237 -0.5166  0.1110 -0.4410
  217MOL0     C29167   2.616   3.146   4.138  1.1737  1.0310  0.6256
  217MOL0     O29168   2.725   3.135   4.063  0.1156  0.0946  0.1897
  217MOL0     C29169   2.836   3.199   4.120  0.0500 -0.1396 -0.8750
  217MOL0     C29170   2.836   3.343   4.091 -0.1570 -0.7580  0.0522
  217MOL0     C29171   2.833   3.361   3.935  0.2245  0.7174 -0.3248
  217MOL0     C29172   2.850   3.501   3.904 -0.3129 -0.2948 -0.2383
  217MOL0     C29173   2.839   3.542   3.754  0.0456  0.1157 -0.0304
  217MOL0     C29174   2.722   3.488   3.676 -0.2377 -0.3086  0.7578
  217MOL0     C29175   2.581   3.513   3.740 -0.7413 -0.6924 -0.2617
  217MOL0     C29176   2.463   3.490   3.649  0.7168  0.5024 -0.0148
  217MOL0     N29177   2.337   3.497   3.721 -0.5505  0.5477 -0.3389
  217MOL0     C29178   2.279   3.388   3.788 -0.8302  0.6395  0.3826
  217MOL0     C29179   2.151   3.426   3.811  0.6335  0.0664 -0.9798
  217MOL0     C29180   2.045   3.337   3.876  0.2666 -0.6059  0.2512
  217MOL0     C29181   1.978   3.250   3.762 -0.5118 -0.0347  0.0288
  217MOL0     C29182   1.891   3.333   3.655 -0.0103  0.3331 -0.1060
  217MOL0     C29183   1.763   3.408   3.715 -0.3132  0.2592  0.0987
  217MOL0     O29184   1.691   3.327   3.798  0.1012  0.0432 -0.2589
  217MOL0     C29185   1.559   3.345   3.818 -0.0548 -0.3989  0.7646
  217MOL0     C29186   1.506   3.263   3.907  0.7023  0.3549  0.3816
  217MOL0     C29187   1.371   3.260   3.948  0.3089  0.7568 -0.0697
  217MOL0     C29188   1.283   3.345   3.878  0.1816  0.8698  0.4731
  217MOL0     C29189   1.141   3.364   3.931 -0.6652 -0.3633 -0.2588
  217MOL0     O29190   1.052   3.470   3.886 -0.2477 -0.1096  0.0038
  217MOL0     C29191   0.924   3.475   3.933 -0.2396  0.1805  0.5338
  217MOL0     C29192   0.821   3.479   3.834 -0.1297 -0.2821 -0.1577
  217MOL0     C29193   0.690   3.492   3.886 -0.7184 -0.1408  1.1430
  217MOL0     C29194   0.663   3.507   4.026 -0.3076 -0.0109  0.7897
  217MOL0     O29195   0.534   3.535   4.076  0.3758  0.0178  0.0850
  217MOL0     C29196   0.418   3.543   3.984 -0.5278  0.1330  0.2515
  217MOL0     C29197   0.286   3.567   4.059 -0.2391 -0.7557  0.0434
  217MOL0     C29198   0.156   3.575   3.980 -0.2069  0.4711  1.1949
  217MOL0     C29199   0.055   3.618   4.075  0.0662  0.5055 -0.5152
  217MOL0     C29200  -0.084   3.613   4.003 -0.0966  0.0235 -0.1568
  217MOL0     C29201  -0.202   3.631   4.099 -0.0234  0.3324  0.0542
  217MOL0     C29202  -0.342   3.610   4.023 -0.5864 -0.3289  0.7787
  217MOL0     C29203  -0.447   3.640   4.123 -0.1578 -0.1735 -0.2954
  217MOL0    Cl29204  -0.477   3.816   4.127 -0.0325 -0.1843 -0.1350
  217MOL0     C29205   0.768   3.500   4.119  0.2144  0.9228  0.2066
  217MOL0     C29206   0.894   3.480   4.072 -0.1733  0.1110 -0.0115
  217MOL0     O29207   1.114   3.286   4.023 -0.3110  0.2724 -0.2670
  217MOL0     C29208   1.338   3.437   3.782  0.0377 -0.0496  0.0754
  217MOL0     C29209   1.476   3.438   3.754  0.5907 -0.6362  0.1853
  217MOL0     N29210   2.137   3.552   3.750 -0.0069 -0.5355  0.5697
  217MOL0     N29211   2.250   3.595   3.700 -0.3907 -0.2952 -0.6920
  217MOL0     C29212   2.515   3.239   4.104 -1.2868  0.7634  0.1647
  217MOL0     C29213   2.404   3.243   4.193  0.0603 -0.2041  0.1408
  217MOL0     C29214   2.040   3.130   4.412  0.1900 -0.1432 -0.2845
  217MOL0     C29215   1.962   3.221   4.342 -0.2717  0.9187  0.3836
  217MOL0     C29216   1.843   3.261   4.394 -0.1156  0.6008 -0.3610
  217MOL0     C29217   1.787   3.202   4.504 -0.1643 -0.4963 -0.7447
  217MOL0     O29218   1.660   3.230   4.543  0.2570 -0.1087 -0.3414
  217MOL0     C29219   1.589   3.348   4.487  0.1726  0.2138  0.0108
  217MOL0     C29220   1.456   3.375   4.561  0.0960 -1.0850  0.2530
  217MOL0     C29221   1.483   3.468   4.682 -0.0289  0.4459  0.3117
  217MOL0     C29222   1.339   3.508   4.740 -0.3617 -0.1711  0.1596
  217MOL0     C29223   1.254   3.393   4.777 -0.4431  0.5449  0.8364
  217MOL0     C29224   1.177   3.302   4.785  0.2998 -0.2756 -0.2082
  217MOL0     C29225   1.863   3.104   4.567  0.1025 -0.4857 -0.6252
  217MOL0     C29226   1.989   3.073   4.527 -0.8101 -0.2855  0.7046
  217MOL0     C29227   2.058   2.970   4.605 -1.1115  0.6140  0.2971
  217MOL0     H29228   2.468   2.970   4.378  2.4370 -1.3750 -1.1509
  217MOL0     H29229   2.659   2.974   4.258 -1.3165  0.0929  2.5124
  217MOL0     H29230   2.835   3.178   4.227 -0.2816 -0.3535 -0.9182
  217MOL0     H29231   2.933   3.161   4.089  0.4583  0.2982 -0.1597
  217MOL0     H29232   2.928   3.386   4.129  1.2006 -1.5206 -2.1625
  217MOL0     H29233   2.763   3.405   4.143 -2.6026 -1.3756 -2.3717
  217MOL0     H29234   2.734   3.328   3.903  0.5678 -0.9734  0.2426
  217MOL0     H29235   2.904   3.297   3.882 -1.0531 -2.4165  1.5271
  217MOL0     H29236   2.768   3.548   3.958 -0.2201 -0.6535  0.2275
  217MOL0     H29237   2.947   3.523   3.949 -0.2681 -3.6041  1.6560
  217MOL0     H29238   2.847   3.651   3.748 -2.4791  0.3192 -1.3216
  217MOL0     H29239   2.928   3.502   3.705 -0.1699  0.5140 -0.7561
  217MOL0     H29240   2.724   3.518   3.571  1.7651 -1.7586  0.3151
  217MOL0     H29241   2.738   3.381   3.661  1.1911 -0.0227  0.0900
  217MOL0     H29242   2.574   3.616   3.775  0.6787  0.1991 -2.4526
  217MOL0     H29243   2.571   3.444   3.825 -2.5739  0.8227  0.8282
  217MOL0     H29244   2.453   3.558   3.564 -0.7423 -2.0332 -2.0019
  217MOL0     H29245   2.483   3.390   3.610  0.5540  0.7543 -0.7614
  217MOL0     H29246   2.323   3.295   3.820  2.0045  1.3753 -0.9819
  217MOL0     H29247   2.085   3.275   3.956  0.6051 -0.6758  0.0328
  217MOL0     H29248   1.964   3.396   3.919 -0.2384 -0.3439 -1.0170
  217MOL0     H29249   2.055   3.197   3.707 -0.6942  0.2664 -0.5193
  217MOL0     H29250   1.906   3.182   3.808  0.9314 -0.9324  1.0607
  217MOL0     H29251   1.856   3.263   3.578  0.9793  1.5019 -1.6752
  217MOL0     H29252   1.962   3.392   3.597 -0.7690  1.2127 -0.1674
  217MOL0     H29253   1.710   3.442   3.625  1.5664  0.4332 -0.9938
  217MOL0     H29254   1.788   3.505   3.761 -4.1192  1.5364 -0.1478
  217MOL0     H29255   1.583   3.209   3.962  0.3613 -0.9578 -0.3896
  217MOL0     H29256   1.340   3.208   4.038  1.4295 -2.4174 -1.3894
  217MOL0     H29257   0.834   3.467   3.727  0.8145  2.1057 -0.3640
  217MOL0     H29258   0.602   3.489   3.821 -0.6817 -0.9135  1.1128
  217MOL0     H29259   0.423   3.631   3.919 -0.2545 -0.3724 -0.4236
  217MOL0     H29260   0.412   3.444   3.937 -1.5714 -0.6587  1.9497
  217MOL0     H29261   0.275   3.497   4.143 -0.3932 -1.2239 -0.3565
  217MOL0     H29262   0.296   3.664   4.108  0.5030 -0.8367  0.0704
  217MOL0     H29263   0.179   3.640   3.895  0.7124 -0.9929  0.2867
  217MOL0     H29264   0.122   3.478   3.941 -1.8074  2.4070 -2.8588
  217MOL0     H29265   0.073   3.719   4.114 -0.1779  1.1812 -2.0900
  217MOL0     H29266   0.048   3.558   4.167 -0.3480 -0.4667 -1.1689
  217MOL0     H29267  -0.098   3.512   3.963 -0.0280  0.0285 -0.1939
  217MOL0     H29268  -0.103   3.685   3.924 -2.2686 -1.4028 -1.0318
  217MOL0     H29269  -0.199   3.569   4.190  0.6391  0.4537  0.1131
  217MOL0     H29270  -0.198   3.734   4.135  0.0189  0.7926 -1.2350
  217MOL0     H29271  -0.354   3.511   3.979 -2.2633 -0.3090  1.1195
  217MOL0     H29272  -0.342   3.681   3.939  3.0792 -1.2346 -0.2007
  217MOL0     H29273  -0.540   3.587   4.099  0.2009 -0.8515 -0.2167
  217MOL0     H29274  -0.410   3.604   4.219  0.9866 -3.3423 -1.7664
  217MOL0     H29275   0.737   3.493   4.223  0.3491 -1.6537  0.1213
  217MOL0     H29276   0.977   3.476   4.141  2.4110  0.9289 -2.8139
  217MOL0     H29277   1.272   3.499   3.722  0.0158  0.1643  0.3189
  217MOL0     H29278   1.504   3.518   3.686  0.0745 -0.2912  0.3704
  217MOL0     H29279   2.532   3.309   4.023 -3.2352  1.3275  0.1937
  217MOL0     H29280   2.331   3.321   4.169  0.8646  0.2169 -1.0523
  217MOL0     H29281   2.005   3.264   4.251  1.9179 -3.1962 -0.8051
  217MOL0     H29282   1.797   3.342   4.337  4.0100  0.4503 -4.4966
  217MOL0     H29283   1.560   3.322   4.384 -0.8300  0.5331  0.2026
  217MOL0     H29284   1.655   3.435   4.481  2.6527 -1.4800  0.9426
  217MOL0     H29285   1.407   3.280   4.583  0.9154 -1.3559  0.9799
  217MOL0     H29286   1.393   3.416   4.482  0.3294  0.5106  0.8434
  217MOL0     H29287   1.544   3.555   4.657  3.0909 -1.5656  0.4611
  217MOL0     H29288   1.537   3.411   4.758 -1.9835 -2.3408 -0.2065
  217MOL0     H29289   1.368   3.553   4.836  1.0857 -1.7063  0.4767
  217MOL0     H29290   1.282   3.579   4.678 -0.0576 -1.4300 -1.6308
  217MOL0     H29291   1.106   3.222   4.790  1.3525 -1.1769  2.2344
  217MOL0     H29292   1.832   3.065   4.664  1.4775 -2.0289 -0.7469
  217MOL0     H29293   2.030   2.970   4.711 -0.5132 -0.9027  0.4818
  217MOL0     H29294   2.047   2.870   4.562  3.3602 -0.4687  1.0919
  217MOL0     H29295   2.167   2.977   4.613 -1.2124  3.9040 -0.1087
  218MOL0     O29296   0.386   0.579   5.599  0.4301  0.0129  0.6816
  218MOL0     C29297   0.329   0.568   5.705 -0.3331 -0.2776  0.0686
  218MOL0     O29298   0.395   0.574   5.823  0.1373  0.4781  0.0260
  218MOL0     C29299   0.533   0.545   5.842  0.7657 -0.2447  0.4432
  218MOL0     C29300   0.581   0.583   5.967  0.2784  0.3166 -0.3593
  218MOL0     C29301   0.712   0.584   5.993  0.1488  0.0786  0.0213
  218MOL0     C29302   0.803   0.543   5.895 -0.0695  0.5526  0.1519
  218MOL0     O29303   0.941   0.552   5.895  0.2412 -0.7477 -0.0833
  218MOL0     C29304   1.015   0.525   6.014  0.3750 -0.1831  0.3243
  218MOL0     C29305   1.102   0.408   6.003 -0.7205  0.2357  0.4877
  218MOL0     C29306   1.205   0.401   6.108 -0.4785 -0.2923 -0.0267
  218MOL0     C29307   1.336   0.333   6.060  0.9601  0.7142  0.1789
  218MOL0     C29308   1.338   0.177   6.038  0.0943 -0.3432 -0.4664
  218MOL0     C29309   1.473   0.127   5.994 -0.6697  0.5973  0.1495
  218MOL0     C29310   1.484  -0.028   5.978 -0.1319  0.2054  0.6048
  218MOL0     C29311   1.491  -0.095   6.118 -0.3541 -0.7290  0.9288
  218MOL0     N29312   1.621  -0.072   6.197 -0.3078  0.0410  0.1575
  218MOL0     C29313   1.733  -0.148   6.179 -1.1882  0.3326 -1.2387
  218MOL0     C29314   1.830  -0.089   6.256  0.4110 -0.6069 -0.0962
  218MOL0     C29315   1.969  -0.142   6.268 -0.0685 -0.0580  0.7678
  218MOL0     C29316   2.062  -0.090   6.152 -0.0214  1.0386  0.6443
  218MOL0     C29317   2.177  -0.188   6.127 -0.0238  0.6002 -0.0555
  218MOL0     C29318   2.278  -0.136   6.029  0.0993 -0.7278  0.0219
  218MOL0     O29319   2.370  -0.245   5.999  0.2471 -0.0423  0.1897
  218MOL0     C29320   2.505  -0.211   6.005  0.2244  0.0363  0.2528
  218MOL0     C29321   2.567  -0.108   5.930 -0.8097 -0.0514 -0.1953
  218MOL0     C29322   2.712  -0.097   5.934  0.9712  0.4379  0.0903
  218MOL0     C29323   2.783  -0.180   6.009 -0.2288 -0.0371  0.0720
  218MOL0     C29324   2.932  -0.167   6.024 -0.7987  0.3313 -0.7907
  218MOL0     O29325   3.002  -0.101   5.923 -0.5605  0.4287 -0.3523
  218MOL0     C29326   3.133  -0.061   5.929 -0.0557  0.2522  0.3104
  218MOL0     C29327   3.240  -0.154   5.925 -0.5576 -0.8059  0.1591
  218MOL0     C29328   3.380  -0.100   5.916  0.2885  0.5437  0.1900
  218MOL0     C29329   3.402   0.032   5.926 -0.5847  0.8957  0.1492
  218MOL0     O29330   3.528   0.083   5.929  0.0849  0.2397  0.3112
  218MOL0     C29331   3.640   0.008   5.983  1.0926  0.2315 -0.2805
  218MOL0     C29332   3.777   0.075   5.952 -0.5200 -0.6778  0.1496
  218MOL0     C29333   3.821   0.073   5.802  0.6888 -0.2404 -0.3341
  218MOL0     C29334   3.974   0.077   5.785 -0.1323 -0.2494  0.0542
  218MOL0     C29335   4.014   0.058   5.642 -0.9209  0.6667  0.9218
  218MOL0     C29336   3.948   0.152   5.539 -0.3042  0.8901  1.0989
  218MOL0     C29337   3.991   0.294   5.572  0.0092  1.0490  0.7612
  218MOL0     C29338   4.032   0.344   5.436 -0.2919 -0.2419  0.5377
  218MOL0    Cl29339   4.195   0.282   5.392 -0.2056 -0.1959  0.0768
  218MOL0     C29340   3.297   0.113   5.922  0.1339  0.0537 -0.3518
  218MOL0     C29341   3.164   0.072   5.920  0.8279 -0.0372  0.0492
  218MOL0     O29342   2.986  -0.205   6.123  0.5307  1.4231  0.0331
  218MOL0     C29343   2.727  -0.280   6.089 -0.1207  0.6525  1.1682
  218MOL0     C29344   2.584  -0.295   6.091  0.2391 -0.0398  0.5396
  218MOL0     N29345   1.776   0.018   6.327 -0.0259  0.0595  0.3813
  218MOL0     N29346   1.653   0.032   6.282  0.2037 -0.5686 -0.1232
  218MOL0     C29347   0.754   0.475   5.775 -0.5044 -0.2858  0.0793
  218MOL0     C29348   0.620   0.486   5.747 -0.6224  0.3875 -0.4522
  218MOL0     C29349   0.178   0.548   5.719 -0.3934 -0.0942 -0.9489
  218MOL0     C29350   0.116   0.562   5.845 -0.5113  0.1115  1.3351
  218MOL0     C29351  -0.020   0.554   5.861 -0.6001  0.5675 -0.6313
  218MOL0     C29352  -0.100   0.518   5.752 -0.4122 -0.3164 -0.7744
  218MOL0     O29353  -0.237   0.514   5.768 -0.4669 -0.2713 -0.0137
  218MOL0     C29354  -0.300   0.391   5.763  0.0154 -0.1051 -0.6961
  218MOL0     C29355  -0.436   0.400   5.824  0.6459 -0.7360 -0.0498
  218MOL0     C29356  -0.433   0.427   5.976  0.4898 -0.5582  0.1541
  218MOL0     C29357  -0.329   0.340   6.055 -0.2263 -0.4872  0.0648
  218MOL0     C29358  -0.340   0.196   6.018 -0.5202 -1.0608  0.6710
  218MOL0     C29359  -0.363   0.080   5.996  0.2859  0.1958 -0.2912
  218MOL0     C29360  -0.039   0.499   5.625  0.5055 -0.4959 -0.5965
  218MOL0     C29361   0.095   0.519   5.601  0.1786 -0.2383  0.1746
  218MOL0     C29362   0.136   0.504   5.453 -1.0102 -0.1818 -0.6639
  218MOL0     H29363   0.509   0.628   6.035  0.0150  3.5466 -2.5611
  218MOL0     H29364   0.756   0.636   6.077  0.3977  0.3994 -0.3033
  218MOL0     H29365   1.077   0.610   6.044  0.5177  0.1441 -0.8221
  218MOL0     H29366   0.953   0.507   6.102  1.6236 -0.4044  1.1847
  218MOL0     H29367   1.157   0.423   5.909 -1.9919  1.0915 -0.1559
  218MOL0     H29368   1.040   0.319   5.992  0.4020 -0.4868 -0.2500
  218MOL0     H29369   1.172   0.352   6.199  1.7049 -2.8095 -0.4521
  218MOL0     H29370   1.241   0.501   6.132 -3.0704  0.7621 -0.2408
  218MOL0     H29371   1.372   0.382   5.969 -1.0718  1.4211 -0.2786
  218MOL0     H29372   1.420   0.344   6.130  1.7082 -1.0698 -0.3693
  218MOL0     H29373   1.307   0.137   6.135 -3.3723  0.4940 -1.0900
  218MOL0     H29374   1.269   0.146   5.959  1.7922  1.2446 -2.7148
  218MOL0     H29375   1.495   0.170   5.896 -2.1692  0.8995 -0.0786
  218MOL0     H29376   1.552   0.160   6.062  1.4640 -3.4117 -0.0824
  218MOL0     H29377   1.579  -0.051   5.930  0.1978  1.0882  0.8310
  218MOL0     H29378   1.404  -0.067   5.914  1.7395 -0.5232 -1.3941
  218MOL0     H29379   1.409  -0.062   6.182  0.5229  0.5404  1.4482
  218MOL0     H29380   1.479  -0.201   6.091  1.5201 -0.4167 -1.4064
  218MOL0     H29381   1.740  -0.226   6.103  0.1984 -0.1576 -0.6464
  218MOL0     H29382   2.017  -0.088   6.350  2.1098 -0.6210 -0.0527
  218MOL0     H29383   1.962  -0.251   6.282 -0.6265 -0.1413 -0.0602
  218MOL0     H29384   1.998  -0.094   6.063  1.4518 -0.1252 -0.4280
  218MOL0     H29385   2.106   0.007   6.175  1.0929  0.3736  1.4723
  218MOL0     H29386   2.130  -0.279   6.087  1.7809 -0.0924 -0.6905
  218MOL0     H29387   2.236  -0.213   6.215  0.0214 -4.5784 -1.1969
  218MOL0     H29388   2.331  -0.053   6.078 -2.1682  0.9508 -0.1812
  218MOL0     H29389   2.238  -0.091   5.938  0.4668  0.1352  0.2721
  218MOL0     H29390   2.520  -0.030   5.872  4.3053  1.6899 -2.6003
  218MOL0     H29391   2.761  -0.010   5.891  1.8750  0.3715  0.9835
  218MOL0     H29392   3.229  -0.261   5.915 -2.9256 -0.4189 -2.7320
  218MOL0     H29393   3.458  -0.173   5.897 -0.5194  0.0282 -1.3821
  218MOL0     H29394   3.635  -0.009   6.091  1.0153 -2.7439 -0.6933
  218MOL0     H29395   3.638  -0.093   5.941 -4.5272 -0.1670  0.1640
  218MOL0     H29396   3.780   0.181   5.975  2.7575 -0.4314 -0.8102
  218MOL0     H29397   3.857   0.028   6.012  0.0152  0.6741  0.5240
  218MOL0     H29398   3.782  -0.018   5.756 -1.2305  1.5675 -2.5627
  218MOL0     H29399   3.777   0.156   5.746 -0.9046 -0.3913  0.6398
  218MOL0     H29400   4.025  -0.003   5.839  2.3496  0.7221 -0.7220
  218MOL0     H29401   4.016   0.171   5.822 -2.0114  0.9115 -0.6354
  218MOL0     H29402   3.982  -0.040   5.605  2.8273 -0.7910  1.1977
  218MOL0     H29403   4.122   0.067   5.628  0.0048 -4.4312  2.4852
  218MOL0     H29404   3.991   0.120   5.444 -1.5337 -1.0509  1.1510
  218MOL0     H29405   3.841   0.132   5.529 -0.0288 -0.3175  0.4675
  218MOL0     H29406   4.085   0.295   5.628  0.4720 -0.8328  0.1113
  218MOL0     H29407   3.907   0.355   5.606 -1.8474 -0.6843 -0.4571
  218MOL0     H29408   3.963   0.325   5.353 -0.6268  1.4488  0.3853
  218MOL0     H29409   4.032   0.453   5.431 -0.9429 -0.2828 -2.5384
  218MOL0     H29410   3.306   0.220   5.939 -2.0657  0.0332  1.4109
  218MOL0     H29411   3.079   0.138   5.908 -1.9639 -3.4137 -0.5008
  218MOL0     H29412   2.790  -0.330   6.162 -0.4367  0.1730  1.1172
  218MOL0     H29413   2.531  -0.371   6.147  0.0123 -3.2807 -3.5532
  218MOL0     H29414   0.821   0.443   5.695 -1.9336 -0.5847 -1.0538
  218MOL0     H29415   0.575   0.448   5.656 -0.7440 -1.9573  0.5340
  218MOL0     H29416   0.190   0.595   5.918  0.6287  2.5889 -0.8008
  218MOL0     H29417  -0.069   0.557   5.958  0.6149 -4.5899  0.4442
  218MOL0     H29418  -0.233   0.309   5.794  0.5240  0.0773 -1.2942
  218MOL0     H29419  -0.325   0.377   5.658 -1.0516  1.0956 -0.6170
  218MOL0     H29420  -0.477   0.300   5.807 -0.9339 -0.1138 -0.0752
  218MOL0     H29421  -0.488   0.481   5.772  0.5689 -0.3793  0.5684
  218MOL0     H29422  -0.536   0.408   6.007  0.7108  0.2529  1.4662
  218MOL0     H29423  -0.418   0.535   5.989  0.8871 -0.4980 -0.7249
  218MOL0     H29424  -0.230   0.385   6.042  0.4700 -1.9010  0.3071
  218MOL0     H29425  -0.355   0.346   6.161  4.0963  0.2396  1.2698
  218MOL0     H29426  -0.382  -0.025   5.989 -0.8054  0.2252  1.6803
  218MOL0     H29427  -0.108   0.477   5.544 -0.3417 -0.5284  0.1211
  218MOL0     H29428   0.207   0.421   5.450  0.4835  1.0695 -1.0501
  218MOL0     H29429   0.047   0.495   5.390 -0.4867  0.7457 -1.5559
  218MOL0     H29430   0.187   0.598   5.430  0.6450 -0.5861  1.0415
  219MOL0     O29431  10.362   8.963   6.153 -0.0803  0.8623  1.3591
  219MOL0     C29432  10.239   8.954   6.161  0.5536 -0.4897 -0.7300
  219MOL0     O29433  10.159   9.057   6.197 -0.5087 -0.1597  0.7200
  219MOL0     C29434  10.229   9.168   6.245 -0.2056  0.4595  0.7820
  219MOL0     C29435  10.324   9.246   6.178  0.3660  0.3217 -0.0000
  219MOL0     C29436  10.365   9.373   6.226 -0.6269  0.3540 -0.4075
  219MOL0     C29437  10.331   9.413   6.350 -0.7424  1.2269 -0.1546
  219MOL0     O29438  10.365   9.549   6.381  0.5917  0.1708  0.4044
  219MOL0     C29439  10.295   9.619   6.496 -0.1613  0.5609 -0.0731
  219MOL0     C29440  10.362   9.756   6.511 -0.2534  0.4380  0.0458
  219MOL0     C29441  10.485   9.761   6.605 -0.3247 -0.5733 -0.7809
  219MOL0     C29442  10.558   9.897   6.590  0.4151 -0.2751  0.5640
  219MOL0     C29443  10.690   9.901   6.672  0.7885  0.1532  0.1142
  219MOL0     C29444  10.685  10.008   6.787  0.2979 -0.3428 -0.0576
  219MOL0     C29445  10.805  10.009   6.881  0.1381  1.1856 -0.1778
  219MOL0     C29446  10.817   9.880   6.966  0.0925 -0.6223  0.3552
  219MOL0     N29447  10.713   9.894   7.068 -0.8508  0.4491 -0.5833
  219MOL0     C29448  10.713   9.977   7.179  0.2641 -0.6274  0.4524
  219MOL0     C29449  10.638   9.909   7.269 -0.5128  0.6010  0.3338
  219MOL0     C29450  10.630   9.945   7.411 -0.3845  0.1415  0.4925
  219MOL0     C29451  10.768   9.962   7.474 -0.4298 -0.0971 -0.3551
  219MOL0     C29452  10.752  10.009   7.611 -0.3247  0.0467  0.2961
  219MOL0     C29453  10.888  10.072   7.654  0.3123  0.5565  0.6533
  219MOL0     O29454  10.878  10.094   7.799  0.4563  0.2996 -0.6758
  219MOL0     C29455  10.989  10.145   7.850  0.0613  0.3154  0.1493
  219MOL0     C29456  11.045  10.083   7.968 -0.1557  0.6247 -0.3463
  219MOL0     C29457  11.153  10.146   8.041 -0.2161  0.5141 -0.1601
  219MOL0     C29458  11.205  10.257   7.979  0.0299 -0.5308 -0.8948
  219MOL0     C29459  11.310  10.322   8.065  0.3000  0.4140 -0.5925
  219MOL0     O29460  11.383  10.243   8.136 -1.2617  0.5437 -0.5056
  219MOL0     C29461  11.488  10.300   8.203 -0.9554  0.5822  0.9691
  219MOL0     C29462  11.470  10.362   8.325  0.5733 -0.1416 -1.3222
  219MOL0     C29463  11.567  10.451   8.377  0.5872  0.8757 -0.0500
  219MOL0     C29464  11.698  10.450   8.329 -1.4656  0.2572 -0.8329
  219MOL0     O29465  11.794  10.510   8.410  0.2566 -0.6621  0.4235
  219MOL0     C29466  11.926  10.528   8.345  0.9775 -0.8240 -0.4296
  219MOL0     C29467  12.005  10.600   8.441  0.1025 -0.3830 -0.8716
  219MOL0     C29468  12.153  10.644   8.396 -0.0324 -0.6369  0.6709
  219MOL0     C29469  12.236  10.708   8.507  1.0455  0.0997  0.1021
  219MOL0     C29470  12.374  10.756   8.462 -0.5608 -0.4326 -0.2282
  219MOL0     C29471  12.463  10.825   8.570 -0.1198  0.3547 -0.0400
  219MOL0     C29472  12.591  10.888   8.520  0.0485  0.3363 -0.2970
  219MOL0     C29473  12.684  10.794   8.441 -0.3043  0.1764 -0.3641
  219MOL0    Cl29474  12.733  10.662   8.544  0.1189 -0.1409  0.3041
  219MOL0     C29475  11.719  10.381   8.207 -0.3673 -0.6095 -0.7225
  219MOL0     C29476  11.611  10.312   8.143 -1.2474 -0.7815 -0.8416
  219MOL0     O29477  11.320  10.445   8.057 -0.6972  0.6515 -0.2884
  219MOL0     C29478  11.161  10.313   7.863  0.4282  0.2164 -0.0179
  219MOL0     C29479  11.056  10.253   7.790  0.3267 -0.2228 -0.4805
  219MOL0     N29480  10.576   9.803   7.208 -0.4837  0.0948 -0.1924
  219MOL0     N29481  10.624   9.795   7.089  0.7723  0.0419 -0.2528
  219MOL0     C29482  10.246   9.321   6.427 -0.7148 -0.3276  0.2990
  219MOL0     C29483  10.193   9.205   6.372  0.2081 -0.1547 -0.6832
  219MOL0     C29484  10.178   8.827   6.118  0.1783 -0.0051  0.0629
  219MOL0     C29485  10.036   8.825   6.082 -0.2722 -0.3875  0.3724
  219MOL0     C29486   9.967   8.710   6.034 -0.4671  0.7049  0.4628
  219MOL0     C29487  10.038   8.590   6.021 -0.0877 -0.2633 -0.4459
  219MOL0     O29488   9.987   8.477   5.973 -0.2436 -0.6753  0.1187
  219MOL0     C29489   9.847   8.474   5.947 -0.3603  0.3795 -0.3196
  219MOL0     C29490   9.814   8.330   5.893 -0.0107 -0.2169 -0.2648
  219MOL0     C29491   9.671   8.315   5.873  0.0605 -0.1861  0.2758
  219MOL0     C29492   9.634   8.172   5.836 -0.2066 -0.4641  0.2931
  219MOL0     C29493   9.492   8.163   5.797  0.0590 -1.0155 -0.4082
  219MOL0     C29494   9.373   8.156   5.785  0.6713 -0.3179 -0.0054
  219MOL0     C29495  10.171   8.590   6.066  0.7275  0.7430 -0.9488
  219MOL0     C29496  10.243   8.699   6.111 -0.0507 -0.2089 -0.8174
  219MOL0     C29497  10.389   8.678   6.142 -0.2049 -0.2853 -0.3681
  219MOL0     H29498  10.354   9.203   6.083 -1.0617 -0.4705 -0.1328
  219MOL0     H29499  10.435   9.427   6.164  1.3559  0.1420  1.5179
  219MOL0     H29500  10.188   9.636   6.479  0.1107  1.5098 -0.9335
  219MOL0     H29501  10.308   9.558   6.585 -3.7833  0.4121  0.4895
  219MOL0     H29502  10.293   9.827   6.557 -1.7398 -1.9696  1.7821
  219MOL0     H29503  10.393   9.806   6.419 -0.3631  1.7043  0.6726
  219MOL0     H29504  10.554   9.682   6.574  0.4710 -0.1438 -0.1441
  219MOL0     H29505  10.457   9.744   6.709 -0.4660  1.0508 -0.5226
  219MOL0     H29506  10.576   9.919   6.485  1.0454 -1.3668  0.4273
  219MOL0     H29507  10.500   9.978   6.635  3.2560  2.6492 -0.6038
  219MOL0     H29508  10.703   9.798   6.705 -0.9611 -0.5772 -1.3044
  219MOL0     H29509  10.776   9.929   6.610 -2.3202  1.9566 -3.7928
  219MOL0     H29510  10.687  10.106   6.739  1.8559 -0.7825 -0.9919
  219MOL0     H29511  10.601   9.995   6.855  1.8208 -0.6598  1.8687
  219MOL0     H29512  10.796  10.095   6.948 -0.9349 -0.6649  2.2051
  219MOL0     H29513  10.895  10.016   6.819 -1.4326  0.5879 -2.6860
  219MOL0     H29514  10.795   9.791   6.906  1.3769 -1.1057  0.5557
  219MOL0     H29515  10.916   9.875   7.012  1.4425 -0.9979 -2.3763
  219MOL0     H29516  10.779  10.058   7.209 -0.0372 -0.9679  2.1541
  219MOL0     H29517  10.596  10.049   7.406  0.5868  0.4309 -0.2234
  219MOL0     H29518  10.574   9.863   7.459 -0.0316 -2.2512 -2.8565
  219MOL0     H29519  10.829   9.871   7.469  0.3355  0.4608 -2.3460
  219MOL0     H29520  10.829  10.040   7.428  0.1236 -0.0297  0.4740
  219MOL0     H29521  10.722   9.926   7.675  2.0021 -2.6026 -1.7830
  219MOL0     H29522  10.676  10.087   7.608  1.4622  1.9709 -3.9512
  219MOL0     H29523  10.913  10.167   7.605  2.8601 -0.3573  0.0137
  219MOL0     H29524  10.976  10.010   7.636 -0.5993 -0.6343  0.1752
  219MOL0     H29525  10.997   9.995   8.008 -1.4800  0.8765 -1.3214
  219MOL0     H29526  11.196  10.103   8.131 -1.9136 -2.5822 -0.6858
  219MOL0     H29527  11.371  10.366   8.368  0.8904 -0.5296 -0.5378
  219MOL0     H29528  11.533  10.506   8.464  0.0281  1.6125 -0.7262
  219MOL0     H29529  11.986  10.439   8.325  3.2180  0.9998 -2.3192
  219MOL0     H29530  11.912  10.594   8.259  0.1083  0.9449  1.0015
  219MOL0     H29531  11.951  10.688   8.476 -1.1192 -1.2060 -0.6069
  219MOL0     H29532  12.020  10.529   8.523 -3.2061 -0.4775 -0.2064
  219MOL0     H29533  12.206  10.554   8.364 -0.4757 -0.6993  0.0957
  219MOL0     H29534  12.144  10.704   8.305  1.9554 -1.0193  0.1645
  219MOL0     H29535  12.246  10.640   8.592 -0.3990  0.2305  0.4027
  219MOL0     H29536  12.194  10.797   8.556  0.3217  0.4449 -1.1181
  219MOL0     H29537  12.366  10.835   8.387 -3.1510 -1.3950 -1.0862
  219MOL0     H29538  12.423  10.670   8.417 -3.1298 -0.8892 -2.4269
  219MOL0     H29539  12.401  10.896   8.626 -2.3266 -1.6801  0.2742
  219MOL0     H29540  12.484  10.738   8.634  1.9018 -1.3097 -2.7842
  219MOL0     H29541  12.647  10.931   8.604  2.3783 -1.0987 -0.9973
  219MOL0     H29542  12.570  10.965   8.446  0.5863 -1.4943 -2.4728
  219MOL0     H29543  12.627  10.759   8.354 -3.7300  2.6454  0.6614
  219MOL0     H29544  12.777  10.842   8.409  0.0802 -1.1852 -1.3795
  219MOL0     H29545  11.820  10.372   8.167  0.9411  4.2597  0.7798
  219MOL0     H29546  11.633  10.266   8.047  0.1938 -0.8712 -0.4960
  219MOL0     H29547  11.204  10.401   7.815 -3.3749  3.0219  1.2562
  219MOL0     H29548  11.017  10.297   7.698 -2.3560 -0.7309  0.3464
  219MOL0     H29549  10.196   9.342   6.521 -0.6947 -2.4539  0.8160
  219MOL0     H29550  10.121   9.158   6.438  0.4828  0.4240  0.0477
  219MOL0     H29551   9.977   8.914   6.099 -0.7116 -0.7365  0.7132
  219MOL0     H29552   9.862   8.733   6.021 -0.3083  0.7530 -0.8735
  219MOL0     H29553   9.835   8.553   5.872  0.1854  1.5891  0.8245
  219MOL0     H29554   9.790   8.490   6.040  2.8872  3.0120  1.4240
  219MOL0     H29555   9.843   8.259   5.970 -2.3931  0.0522  0.9746
  219MOL0     H29556   9.873   8.299   5.806  0.7714 -1.5142  0.7039
  219MOL0     H29557   9.639   8.388   5.798 -3.5389 -0.1406  1.6788
  219MOL0     H29558   9.625   8.347   5.966 -1.7201  1.3722 -1.0654
  219MOL0     H29559   9.701   8.143   5.754  0.5317 -1.0762  1.0963
  219MOL0     H29560   9.646   8.102   5.919 -0.5813 -2.1369 -0.9920
  219MOL0     H29561   9.268   8.159   5.764  0.7526 -0.3936 -0.4283
  219MOL0     H29562  10.213   8.490   6.077 -2.2762 -0.4832  0.9253
  219MOL0     H29563  10.405   8.571   6.125 -0.6717 -0.4713  0.3400
  219MOL0     H29564  10.453   8.732   6.071 -0.9066  3.2280  1.4391
  219MOL0     H29565  10.405   8.722   6.241  0.1610 -1.6085  0.1782
  220MOL0     O29566   9.519   1.940   4.980 -0.5927 -0.5248 -0.2091
  220MOL0     C29567   9.509   1.943   4.859  0.4833 -0.2522  0.4332
  220MOL0     O29568   9.611   1.974   4.767 -0.5863  0.7538  0.5790
  220MOL0     C29569   9.738   2.005   4.804  0.6367  0.1518 -0.2372
  220MOL0     C29570   9.801   1.964   4.922 -0.6456  0.0199  0.5040
  220MOL0     C29571   9.938   1.983   4.931 -0.7332 -0.2818 -0.3665
  220MOL0     C29572  10.016   2.029   4.825  1.0595 -0.4038 -0.1412
  220MOL0     O29573  10.156   2.048   4.840  0.3722 -0.4234  0.0591
  220MOL0     C29574  10.213   2.038   4.969 -0.5457 -0.4326  0.7270
  220MOL0     C29575  10.361   2.078   4.948  0.5452 -0.5628 -0.3770
  220MOL0     C29576  10.416   2.107   5.084  1.1100  0.5726 -0.3898
  220MOL0     C29577  10.568   2.110   5.068 -0.0350 -0.7807  0.6018
  220MOL0     C29578  10.648   2.155   5.187  0.6465 -0.0294  0.2463
  220MOL0     C29579  10.793   2.184   5.134 -0.9569 -1.0255 -0.2217
  220MOL0     C29580  10.858   2.273   5.234 -0.0258  0.0008 -0.5082
  220MOL0     C29581  10.884   2.196   5.363 -0.1154  0.2513  0.3045
  220MOL0     N29582  10.958   2.268   5.464 -0.5084  0.4981 -0.4597
  220MOL0     C29583  11.094   2.285   5.482  0.6917  0.9135  0.2629
  220MOL0     C29584  11.108   2.344   5.603 -1.1110 -0.2650  0.7849
  220MOL0     C29585  11.235   2.384   5.679 -0.8575  0.2251 -0.0281
  220MOL0     C29586  11.321   2.458   5.574  0.8432  0.6008  0.0309
  220MOL0     C29587  11.449   2.495   5.652 -0.0492 -0.6822 -0.5070
  220MOL0     C29588  11.556   2.556   5.563 -0.3526  0.0908  0.3452
  220MOL0     O29589  11.669   2.572   5.652  0.1244 -0.5231 -0.0292
  220MOL0     C29590  11.798   2.534   5.617 -0.3613 -0.1188  0.0135
  220MOL0     C29591  11.853   2.543   5.485  0.5195 -0.1041 -0.2149
  220MOL0     C29592  11.992   2.514   5.467  0.0196 -0.5416 -0.8264
  220MOL0     C29593  12.072   2.457   5.564 -0.5491  0.3306 -0.3788
  220MOL0     C29594  12.219   2.413   5.546 -0.1174  0.1180 -0.1153
  220MOL0     O29595  12.262   2.325   5.637  0.1188 -0.0856  0.0055
  220MOL0     C29596  12.390   2.278   5.644  0.2052 -0.3575  0.4330
  220MOL0     C29597  12.508   2.345   5.585 -0.0733 -0.3480  0.1763
  220MOL0     C29598  12.623   2.270   5.573 -0.6316  0.2777 -0.9431
  220MOL0     C29599  12.632   2.142   5.635  0.5140 -0.0984 -0.2004
  220MOL0     O29600  12.753   2.082   5.621  1.0314 -0.2409 -0.5236
  220MOL0     C29601  12.796   1.983   5.725  0.4768 -0.2228 -0.0775
  220MOL0     C29602  12.827   2.043   5.863  0.4600 -0.4130 -0.1893
  220MOL0     C29603  12.809   2.199   5.882 -0.3693  0.8433 -0.0505
  220MOL0     C29604  12.879   2.253   6.004  0.3627 -0.0839  0.4850
  220MOL0     C29605  12.860   2.405   6.021  1.0182  0.1179  0.5809
  220MOL0     C29606  12.940   2.502   5.934 -0.1974  0.2181 -0.3705
  220MOL0     C29607  12.890   2.653   5.969 -0.0137 -0.1317  0.3412
  220MOL0     C29608  12.880   2.728   5.843  0.3562  0.4901  0.4069
  220MOL0    Cl29609  13.018   2.760   5.731 -0.2745  0.0928  0.2413
  220MOL0     C29610  12.523   2.086   5.700 -0.0742 -0.1879 -0.6585
  220MOL0     C29611  12.410   2.158   5.710 -0.1816 -0.0902  0.3368
  220MOL0     O29612  12.270   2.439   5.437 -0.1616  0.2498 -0.7631
  220MOL0     C29613  12.018   2.447   5.690  0.6568 -0.1929  0.6649
  220MOL0     C29614  11.882   2.485   5.712 -0.6173 -0.0529  0.0545
  220MOL0     N29615  10.988   2.386   5.640  1.0361 -0.1734 -0.6783
  220MOL0     N29616  10.895   2.340   5.562  0.1670  0.3147  0.4846
  220MOL0     C29617   9.954   2.078   4.709  0.2998 -0.5991  0.1712
  220MOL0     C29618   9.816   2.058   4.695  0.3630 -0.0936 -0.2190
  220MOL0     C29619   9.375   1.913   4.804  0.0383 -0.1938 -0.1831
  220MOL0     C29620   9.261   1.910   4.890 -0.0744 -0.5618 -0.2384
  220MOL0     C29621   9.138   1.888   4.846  0.2092  0.5304 -0.2659
  220MOL0     C29622   9.108   1.863   4.712 -0.4936 -0.6636 -0.1943
  220MOL0     O29623   8.990   1.831   4.659  1.0530  0.5818 -0.3724
  220MOL0     C29624   8.885   1.797   4.755 -0.6207 -0.2149 -0.4584
  220MOL0     C29625   8.824   1.920   4.811  0.9966 -0.1234 -0.8662
  220MOL0     C29626   8.714   1.882   4.914  0.2145 -0.3075 -0.2623
  220MOL0     C29627   8.642   2.004   4.972 -0.6883 -0.9385  0.1172
  220MOL0     C29628   8.518   1.950   5.035 -0.1793 -0.3726  0.4748
  220MOL0     C29629   8.440   1.882   5.094  0.6749 -0.1922 -0.5025
  220MOL0     C29630   9.220   1.865   4.625  0.2272 -0.0326 -0.3699
  220MOL0     C29631   9.350   1.890   4.668 -0.5182  0.6705 -0.0978
  220MOL0     C29632   9.455   1.884   4.551  0.4575 -0.5027 -0.1366
  220MOL0     H29633   9.751   1.911   5.003  1.1681 -2.8779 -0.1304
  220MOL0     H29634   9.984   1.963   5.027  0.3032  0.3406 -0.7176
  220MOL0     H29635  10.165   2.103   5.043 -0.8474 -0.9090  0.9516
  220MOL0     H29636  10.201   1.941   5.017 -1.7363  0.2129  1.7881
  220MOL0     H29637  10.369   2.164   4.881 -0.4868  0.0598  0.2619
  220MOL0     H29638  10.405   1.983   4.916 -0.1505 -1.8025  2.0742
  220MOL0     H29639  10.388   2.033   5.158 -0.6777 -1.2933 -2.7553
  220MOL0     H29640  10.387   2.206   5.122 -0.0945  0.3098 -0.5933
  220MOL0     H29641  10.611   2.022   5.019  0.1236 -1.0599  1.2326
  220MOL0     H29642  10.595   2.178   4.987 -1.6614  0.1502  0.7908
  220MOL0     H29643  10.608   2.243   5.239  1.6942  0.8986 -0.4871
  220MOL0     H29644  10.655   2.070   5.257 -0.9202  1.5089  2.4287
  220MOL0     H29645  10.846   2.089   5.126 -3.3339 -2.4445 -0.2932
  220MOL0     H29646  10.791   2.221   5.031  1.0163 -0.3823 -0.0548
  220MOL0     H29647  10.793   2.360   5.244 -0.1712 -0.1687  0.0416
  220MOL0     H29648  10.955   2.308   5.198 -0.4474 -1.6840 -3.6593
  220MOL0     H29649  10.793   2.154   5.407 -1.5614 -1.3184 -3.7625
  220MOL0     H29650  10.936   2.103   5.339 -2.0969 -1.5988  2.6940
  220MOL0     H29651  11.173   2.252   5.415  0.1597  1.0829 -0.4695
  220MOL0     H29652  11.220   2.457   5.758  0.9882  0.2501  0.3446
  220MOL0     H29653  11.282   2.292   5.715 -1.5517  0.0268  0.3934
  220MOL0     H29654  11.352   2.398   5.488  0.5757 -2.0426  1.6720
  220MOL0     H29655  11.272   2.551   5.543  0.9389  0.9565  0.9281
  220MOL0     H29656  11.496   2.415   5.710 -1.2233 -0.7559  0.3987
  220MOL0     H29657  11.418   2.575   5.720 -1.4795 -2.1957  0.7318
  220MOL0     H29658  11.523   2.654   5.527 -2.5081 -1.8781 -3.7008
  220MOL0     H29659  11.594   2.510   5.471  0.8068  2.3952 -0.4023
  220MOL0     H29660  11.800   2.576   5.396  0.0427 -1.1554 -0.3406
  220MOL0     H29661  12.036   2.533   5.369 -1.0235  2.1009 -0.8537
  220MOL0     H29662  12.495   2.434   5.525 -1.6109 -0.1532  0.7569
  220MOL0     H29663  12.711   2.301   5.517  0.7927 -1.2448  0.3401
  220MOL0     H29664  12.716   1.908   5.737 -0.5617  0.8142 -0.3782
  220MOL0     H29665  12.882   1.928   5.684 -0.8111 -0.0945 -3.2387
  220MOL0     H29666  12.762   1.983   5.928 -1.6269 -0.1190 -1.9204
  220MOL0     H29667  12.934   2.027   5.883  0.1110 -2.3700  0.3487
  220MOL0     H29668  12.849   2.246   5.792 -4.3873  1.1332 -1.9301
  220MOL0     H29669  12.702   2.222   5.888 -0.4288  0.2994  1.4288
  220MOL0     H29670  12.984   2.225   5.998  0.2631 -0.1407 -1.7864
  220MOL0     H29671  12.844   2.209   6.098  4.8222 -3.1564  1.0239
  220MOL0     H29672  12.886   2.441   6.121  1.8275  0.1536  0.3627
  220MOL0     H29673  12.753   2.427   6.012  0.4180 -3.2090 -2.8448
  220MOL0     H29674  13.048   2.489   5.950 -0.1033  0.3671 -0.8517
  220MOL0     H29675  12.924   2.477   5.829  3.5717 -1.0302 -0.8165
  220MOL0     H29676  12.973   2.703   6.020  0.4466  0.6009 -1.0666
  220MOL0     H29677  12.794   2.653   6.020  1.0353  1.1923  2.4502
  220MOL0     H29678  12.804   2.676   5.784 -2.5634 -0.6025  4.6050
  220MOL0     H29679  12.832   2.822   5.875 -1.3008 -0.5191  1.0620
  220MOL0     H29680  12.525   1.992   5.754 -0.6901  0.8854  1.3516
  220MOL0     H29681  12.326   2.107   5.756 -2.6434 -0.0157 -3.5722
  220MOL0     H29682  12.074   2.403   5.773  0.3194 -0.3984  0.7840
  220MOL0     H29683  11.838   2.482   5.811  0.4083 -0.9781  0.5175
  220MOL0     H29684   9.998   2.116   4.617 -0.4549  0.0276  0.0598
  220MOL0     H29685   9.777   2.075   4.596 -1.4077 -2.4649 -0.0014
  220MOL0     H29686   9.279   1.921   4.996 -0.7320  1.1689 -0.2731
  220MOL0     H29687   9.056   1.883   4.917 -0.5109 -0.7888 -1.1590
  220MOL0     H29688   8.933   1.747   4.840  0.6610  1.9241  0.1620
  220MOL0     H29689   8.803   1.739   4.713 -0.4302  0.0622 -1.2259
  220MOL0     H29690   8.769   1.980   4.739 -2.2542  0.1841  1.6306
  220MOL0     H29691   8.896   1.976   4.872  0.7239 -1.1598  0.4729
  220MOL0     H29692   8.752   1.812   4.990 -0.9147 -1.6676 -0.9237
  220MOL0     H29693   8.645   1.817   4.859  1.3894  0.1926 -2.4368
  220MOL0     H29694   8.708   2.052   5.045 -2.5070 -0.9798  1.8811
  220MOL0     H29695   8.599   2.079   4.905 -1.7344  0.5541  2.3314
  220MOL0     H29696   8.353   1.839   5.139 -1.4142  0.3793 -3.7023
  220MOL0     H29697   9.206   1.834   4.521 -0.9073 -2.1671  0.3672
  220MOL0     H29698   9.524   1.801   4.565  0.5069 -0.3414  0.6150
  220MOL0     H29699   9.402   1.874   4.456 -1.5680 -1.5243  1.0505
  220MOL0     H29700   9.504   1.982   4.540  0.7784 -0.8218 -1.7595
  221MOL0     O29701   2.197   2.796   5.918  0.0582  0.2086 -0.1955
  221MOL0     C29702   2.202   2.678   5.958 -0.9213 -0.1930 -0.3398
  221MOL0     O29703   2.298   2.627   6.045  0.1896 -0.0112  0.4280
  221MOL0     C29704   2.375   2.723   6.109 -0.4455  0.5371 -0.5463
  221MOL0     C29705   2.361   2.744   6.249 -1.2576 -0.4354  0.2321
  221MOL0     C29706   2.437   2.834   6.325  0.6688 -0.5712 -0.0094
  221MOL0     C29707   2.523   2.912   6.253 -0.5702 -1.0029 -0.1068
  221MOL0     O29708   2.592   3.022   6.312 -0.8768 -0.8693  0.3157
  221MOL0     C29709   2.582   3.048   6.451  0.0270 -0.1262  0.1097
  221MOL0     C29710   2.684   3.156   6.481 -0.1338  0.3549  0.3327
  221MOL0     C29711   2.657   3.179   6.623 -0.0319 -0.2476 -0.4740
  221MOL0     C29712   2.748   3.295   6.660 -0.9631  0.2413  0.3909
  221MOL0     C29713   2.732   3.342   6.806 -0.6704  0.3916  0.3970
  221MOL0     C29714   2.785   3.237   6.912  0.1389 -0.5335 -0.1582
  221MOL0     C29715   2.759   3.284   7.056  0.9607  0.6139  0.1235
  221MOL0     C29716   2.609   3.272   7.098 -1.2164 -0.4387 -0.4310
  221MOL0     N29717   2.592   3.304   7.243  0.2191 -0.1793  0.0623
  221MOL0     C29718   2.588   3.427   7.299  1.2329 -0.1706  0.3211
  221MOL0     C29719   2.567   3.399   7.428  0.3725 -0.2350  0.1867
  221MOL0     C29720   2.551   3.514   7.523 -0.3163 -0.1813 -0.4588
  221MOL0     C29721   2.403   3.559   7.544  0.1975  0.6257 -0.1720
  221MOL0     C29722   2.344   3.670   7.462  1.5301 -0.5706 -0.5019
  221MOL0     C29723   2.430   3.794   7.461 -0.0974  0.4036  0.4006
  221MOL0     O29724   2.531   3.771   7.364 -0.2131  0.4475 -0.5462
  221MOL0     C29725   2.634   3.855   7.359 -0.3785  0.7215 -0.0376
  221MOL0     C29726   2.649   3.961   7.446  0.2225 -0.7705 -0.4338
  221MOL0     C29727   2.761   4.041   7.450  0.1095 -1.7336 -0.3028
  221MOL0     C29728   2.858   4.021   7.346 -0.2570  0.0609 -0.2115
  221MOL0     C29729   2.966   4.118   7.344  0.1451  0.5685  0.8040
  221MOL0     O29730   3.080   4.079   7.286  0.0695  0.6178 -0.0257
  221MOL0     C29731   3.196   4.145   7.329 -0.1035 -0.6316  0.9484
  221MOL0     C29732   3.234   4.177   7.462 -0.0437 -1.2517  0.2779
  221MOL0     C29733   3.356   4.229   7.500  0.9302 -0.1638  0.7050
  221MOL0     C29734   3.454   4.221   7.406 -0.3556 -0.7419  0.3824
  221MOL0     O29735   3.588   4.253   7.428  0.4855  0.1815 -0.9913
  221MOL0     C29736   3.614   4.295   7.564  0.6493  0.3702 -0.0156
  221MOL0     C29737   3.760   4.288   7.589  0.3047  0.5000  0.5894
  221MOL0     C29738   3.797   4.367   7.712  0.7330  0.1319  0.1278
  221MOL0     C29739   3.937   4.327   7.765 -0.4059  0.1914 -0.0958
  221MOL0     C29740   3.985   4.425   7.873  0.1345 -0.6142  0.0160
  221MOL0     C29741   4.131   4.403   7.924 -0.4978 -0.1691 -0.0557
  221MOL0     C29742   4.165   4.497   8.035 -0.3412 -0.3685 -1.1368
  221MOL0     C29743   4.314   4.511   8.048 -0.3500  0.0583 -0.3261
  221MOL0    Cl29744   4.361   4.617   8.178  0.2746  0.5791 -0.0583
  221MOL0     C29745   3.421   4.181   7.271 -0.3479 -0.4712 -0.6648
  221MOL0     C29746   3.291   4.156   7.234 -0.2310  0.0940 -0.0124
  221MOL0     O29747   2.946   4.220   7.416 -0.1316  0.0464 -0.4144
  221MOL0     C29748   2.847   3.913   7.254 -0.1145 -0.0550  0.3164
  221MOL0     C29749   2.727   3.831   7.257 -1.0487 -0.0944 -0.8243
  221MOL0     N29750   2.559   3.261   7.449  0.2012  0.9332 -0.2482
  221MOL0     N29751   2.574   3.204   7.336  0.0984  0.0961  0.4056
  221MOL0     C29752   2.550   2.890   6.112  0.1093 -0.6551 -0.0645
  221MOL0     C29753   2.476   2.794   6.040  0.7002 -0.6963 -0.3869
  221MOL0     C29754   2.093   2.580   5.911 -0.2416 -0.2282  0.0824
  221MOL0     C29755   2.067   2.474   5.994  0.4641  0.8298  0.7375
  221MOL0     C29756   1.992   2.362   5.950  1.0657 -0.0911 -0.9097
  221MOL0     C29757   1.922   2.379   5.830  1.6314 -0.1938 -0.8517
  221MOL0     O29758   1.834   2.283   5.784  0.4960 -0.2756  0.0979
  221MOL0     C29759   1.836   2.269   5.641  0.1818  0.2372 -0.1421
  221MOL0     C29760   1.777   2.134   5.608 -0.0719 -0.9540  1.1173
  221MOL0     C29761   1.785   2.118   5.453 -0.4326 -0.1303  0.6112
  221MOL0     C29762   1.705   2.000   5.411  0.5915 -0.5435 -0.0905
  221MOL0     C29763   1.752   1.933   5.287  0.3521  0.0994  1.0407
  221MOL0     C29764   1.777   1.877   5.180 -0.1421  0.2364 -0.5144
  221MOL0     C29765   1.938   2.498   5.764  1.4881 -0.2291 -0.1695
  221MOL0     C29766   2.023   2.602   5.795  0.1463  0.3965  0.1916
  221MOL0     C29767   2.024   2.708   5.693 -0.5814  0.6644 -0.6464
  221MOL0     H29768   2.295   2.677   6.304  1.3202 -0.4435  3.5845
  221MOL0     H29769   2.425   2.843   6.433 -1.8332  1.4573 -0.3532
  221MOL0     H29770   2.479   3.082   6.463  0.1276  0.9244 -1.6484
  221MOL0     H29771   2.609   2.956   6.504 -3.9448 -1.6404 -0.1992
  221MOL0     H29772   2.644   3.239   6.422 -0.8689 -0.5592 -0.4830
  221MOL0     H29773   2.789   3.129   6.464  0.4691  1.5083  1.9663
  221MOL0     H29774   2.677   3.095   6.690 -1.4314 -0.5989 -0.4677
  221MOL0     H29775   2.556   3.216   6.642  0.6135  0.6788  1.4022
  221MOL0     H29776   2.853   3.268   6.656 -1.0067 -0.1301  1.4772
  221MOL0     H29777   2.736   3.382   6.593 -1.4799 -0.2975 -0.2323
  221MOL0     H29778   2.790   3.435   6.807  1.0643 -0.6516  0.4611
  221MOL0     H29779   2.626   3.355   6.829 -1.1329 -1.6807 -0.2933
  221MOL0     H29780   2.728   3.145   6.904  0.3359 -0.6740  0.0459
  221MOL0     H29781   2.892   3.218   6.901  0.2144 -0.0252 -0.3805
  221MOL0     H29782   2.793   3.388   7.066 -1.5071  1.2690  3.9263
  221MOL0     H29783   2.812   3.224   7.130 -0.9929 -0.9637  0.3137
  221MOL0     H29784   2.545   3.344   7.047 -1.6009 -1.6828 -1.7385
  221MOL0     H29785   2.564   3.178   7.066  1.4259 -1.2919 -1.9451
  221MOL0     H29786   2.600   3.525   7.253  1.3064 -0.3810 -0.1165
  221MOL0     H29787   2.590   3.487   7.621 -4.1245 -2.8321  0.5860
  221MOL0     H29788   2.618   3.594   7.491  0.4376 -0.1697  1.0829
  221MOL0     H29789   2.336   3.473   7.540  0.8760  0.1212 -0.7334
  221MOL0     H29790   2.395   3.595   7.647 -0.0655  0.0942 -0.0044
  221MOL0     H29791   2.247   3.697   7.504  1.5404 -0.6378 -0.4338
  221MOL0     H29792   2.319   3.639   7.360  1.4334 -2.9981  0.2024
  221MOL0     H29793   2.465   3.819   7.562 -2.0823 -0.1873  1.2864
  221MOL0     H29794   2.387   3.886   7.420  0.9076  2.3682  3.3749
  221MOL0     H29795   2.581   3.977   7.529  1.9319 -0.9092  1.0485
  221MOL0     H29796   2.762   4.111   7.533 -1.8174  0.4235 -1.9547
  221MOL0     H29797   3.160   4.163   7.541  2.1021 -3.1491  2.1058
  221MOL0     H29798   3.370   4.249   7.605 -2.7804 -1.3048  1.5531
  221MOL0     H29799   3.582   4.397   7.585  1.9393  0.5933  1.0367
  221MOL0     H29800   3.568   4.226   7.635 -0.5965 -1.8518 -2.7777
  221MOL0     H29801   3.795   4.186   7.605  0.1620  0.6666  2.1217
  221MOL0     H29802   3.805   4.323   7.496 -1.7354 -2.0858 -1.5129
  221MOL0     H29803   3.807   4.470   7.678  3.5304  0.1329  0.7333
  221MOL0     H29804   3.724   4.346   7.791  2.4311 -1.1134  1.4378
  221MOL0     H29805   4.012   4.312   7.687 -1.7012  0.6396 -1.4662
  221MOL0     H29806   3.936   4.235   7.825 -0.4188  1.8083  2.5550
  221MOL0     H29807   3.919   4.410   7.959  1.9252 -0.4887  1.4898
  221MOL0     H29808   3.970   4.530   7.847 -0.5488 -0.7928 -0.3076
  221MOL0     H29809   4.136   4.298   7.952 -0.4905 -0.2860 -0.4797
  221MOL0     H29810   4.195   4.423   7.838  0.4984 -1.5964  0.3304
  221MOL0     H29811   4.126   4.459   8.129  2.0165 -0.7623 -0.2405
  221MOL0     H29812   4.116   4.593   8.015  1.0346  0.7903  0.6790
  221MOL0     H29813   4.370   4.417   8.056  2.0932  1.1359 -2.9574
  221MOL0     H29814   4.353   4.556   7.956  0.0635  0.4283  0.0276
  221MOL0     H29815   3.502   4.179   7.199 -0.0671  0.2698 -0.3821
  221MOL0     H29816   3.253   4.131   7.135 -1.6495  0.2991  0.4510
  221MOL0     H29817   2.918   3.890   7.175 -1.1494 -3.0796  0.1449
  221MOL0     H29818   2.721   3.756   7.179  1.9661 -0.0164 -1.2516
  221MOL0     H29819   2.616   2.948   6.048 -0.8292 -1.6831 -2.0637
  221MOL0     H29820   2.489   2.770   5.935  0.2021  0.0112 -0.6203
  221MOL0     H29821   2.107   2.469   6.095  1.4202 -0.2108  0.3275
  221MOL0     H29822   1.967   2.280   6.016 -1.1449  1.9688  1.0275
  221MOL0     H29823   1.941   2.279   5.613 -0.1890  2.0709 -0.9805
  221MOL0     H29824   1.782   2.348   5.589 -1.8099 -0.5975  0.5594
  221MOL0     H29825   1.674   2.145   5.644  0.0921  0.7696  1.1535
  221MOL0     H29826   1.824   2.051   5.661  2.1491 -0.9130 -0.6022
  221MOL0     H29827   1.892   2.111   5.431 -0.6706  0.2230 -0.7458
  221MOL0     H29828   1.744   2.210   5.411 -0.3624 -0.2546  0.2751
  221MOL0     H29829   1.701   1.924   5.489 -2.1443 -2.3296 -1.8010
  221MOL0     H29830   1.604   2.033   5.387  1.0499  0.6546 -0.4661
  221MOL0     H29831   1.808   1.833   5.087 -0.3019  0.9887 -0.9277
  221MOL0     H29832   1.884   2.519   5.672  0.6578 -0.6455  0.2082
  221MOL0     H29833   1.989   2.669   5.597 -0.7430 -2.3023  0.4916
  221MOL0     H29834   1.960   2.793   5.718 -3.0889 -2.0055  3.0861
  221MOL0     H29835   2.128   2.743   5.688 -0.5800  0.7640  0.0530
  222MOL0     O29836   4.405   5.924  10.666  0.4647 -0.3868 -0.5773
  222MOL0     C29837   4.516   5.965  10.698  0.1891 -0.6266  0.1019
  222MOL0     O29838   4.626   5.953  10.614  0.0266 -0.0984 -0.2208
  222MOL0     C29839   4.638   5.840  10.550  0.6421  1.2933  0.1503
  222MOL0     C29840   4.661   5.708  10.615 -0.8632 -1.1293  1.3435
  222MOL0     C29841   4.687   5.592  10.542  1.1833  1.2548 -0.3969
  222MOL0     C29842   4.685   5.590  10.400  0.0565 -1.7281 -0.2036
  222MOL0     O29843   4.723   5.477  10.335  0.0385 -0.0994  0.0171
  222MOL0     C29844   4.612   5.404  10.276 -0.5985  0.1105  0.4110
  222MOL0     C29845   4.666   5.280  10.206 -0.3035 -0.2123  0.0312
  222MOL0     C29846   4.793   5.309  10.124  0.8042  0.4756  0.2445
  222MOL0     C29847   4.772   5.412  10.016  0.1398  0.0228 -0.5256
  222MOL0     C29848   4.892   5.434   9.926 -0.4868  0.5676 -0.0702
  222MOL0     C29849   4.974   5.559   9.957  0.0991 -0.8658 -0.4670
  222MOL0     C29850   5.011   5.561  10.104  0.8851  1.2050 -0.0316
  222MOL0     C29851   5.093   5.682  10.138  0.1444 -0.1570  0.1620
  222MOL0     N29852   5.150   5.668  10.274  0.2790 -0.1056 -0.1864
  222MOL0     C29853   5.090   5.728  10.381  0.3477 -0.0069 -0.7242
  222MOL0     C29854   5.183   5.707  10.485 -0.3850 -0.8045 -0.4936
  222MOL0     C29855   5.159   5.761  10.623  0.2958 -0.1811  0.7618
  222MOL0     C29856   5.278   5.793  10.704 -1.0233 -0.2062  0.0150
  222MOL0     C29857   5.377   5.895  10.636  0.2703 -0.5837 -0.3961
  222MOL0     C29858   5.506   5.913  10.721  0.1237 -0.5204 -0.6488
  222MOL0     O29859   5.590   5.997  10.643  0.8372 -0.6531  0.3227
  222MOL0     C29860   5.727   6.002  10.664  0.5266 -0.2922 -0.0878
  222MOL0     C29861   5.798   6.092  10.580  0.1459 -0.0175  0.2818
  222MOL0     C29862   5.939   6.112  10.597  0.7613  0.3601 -0.7789
  222MOL0     C29863   6.006   6.060  10.707  0.1233  0.0742 -0.3161
  222MOL0     C29864   6.144   6.099  10.730 -0.6961 -0.3719  0.6228
  222MOL0     O29865   6.204   6.176  10.634 -0.4182 -0.7932  0.7502
  222MOL0     C29866   6.321   6.242  10.668  0.1034 -0.5115  0.0100
  222MOL0     C29867   6.328   6.381  10.636 -0.2918 -0.0573  0.0045
  222MOL0     C29868   6.450   6.445  10.650  0.1678 -0.2600  0.4671
  222MOL0     C29869   6.560   6.384  10.707 -0.6195  1.1838 -0.2930
  222MOL0     O29870   6.683   6.445  10.735 -0.1300 -0.4596  0.0113
  222MOL0     C29871   6.688   6.587  10.712  0.0564 -0.4029  0.2900
  222MOL0     C29872   6.818   6.630  10.760 -0.5053  0.0802 -0.2717
  222MOL0     C29873   6.825   6.784  10.748 -0.9259 -0.7297 -0.6969
  222MOL0     C29874   6.962   6.823  10.804  0.0427  0.6106  0.0501
  222MOL0     C29875   7.016   6.961  10.749  0.5697 -0.5430  0.1930
  222MOL0     C29876   7.131   7.004  10.844  0.0950  0.5175  0.3489
  222MOL0     C29877   7.187   7.134  10.800  0.2656  0.6287 -0.6705
  222MOL0     C29878   7.323   7.165  10.870  0.2049 -0.0037  0.2251
  222MOL0    Cl29879   7.308   7.225  11.041 -0.1487  0.1044  0.4051
  222MOL0     C29880   6.555   6.250  10.747 -0.0220  0.0073 -1.1454
  222MOL0     C29881   6.436   6.179  10.725  0.5000  0.4576 -0.2214
  222MOL0     O29882   6.193   6.074  10.841 -0.0331 -0.1484  0.0964
  222MOL0     C29883   5.938   5.965  10.790  0.7748  0.0566  0.5781
  222MOL0     C29884   5.798   5.948  10.764  0.1750  1.2722 -0.4414
  222MOL0     N29885   5.290   5.632  10.437  0.9507 -0.9068 -0.1893
  222MOL0     N29886   5.268   5.618  10.311  0.2834 -0.5233 -0.6165
  222MOL0     C29887   4.651   5.716  10.341 -0.5941  0.6005 -0.5188
  222MOL0     C29888   4.631   5.838  10.411  0.3798 -1.1333 -1.1721
  222MOL0     C29889   4.536   6.037  10.828  0.4544  0.0506  0.2061
  222MOL0     C29890   4.655   6.114  10.836  0.3782  0.4613  0.3037
  222MOL0     C29891   4.695   6.164  10.959 -0.0138 -0.1529 -0.0236
  222MOL0     C29892   4.620   6.159  11.074 -0.3563 -0.2160 -0.0479
  222MOL0     O29893   4.681   6.214  11.181 -0.3555 -0.1053 -0.4236
  222MOL0     C29894   4.633   6.186  11.314 -0.5242 -0.9181  0.0519
  222MOL0     C29895   4.655   6.048  11.365  0.0936  0.2499 -0.6877
  222MOL0     C29896   4.575   6.026  11.496 -0.4667 -1.0647  0.0992
  222MOL0     C29897   4.430   5.996  11.486  0.0105  0.7333  0.2393
  222MOL0     C29898   4.403   5.883  11.399 -0.1056 -0.1395  0.9715
  222MOL0     C29899   4.381   5.797  11.315  0.3590  0.0064 -0.2307
  222MOL0     C29900   4.490   6.100  11.061  0.4102  0.0157  0.6185
  222MOL0     C29901   4.456   6.033  10.941 -0.2346  0.4435  0.2890
  222MOL0     C29902   4.326   5.948  10.944  1.3449 -0.6320  1.1146
  222MOL0     H29903   4.658   5.704  10.724  2.8367  2.1954  1.7756
  222MOL0     H29904   4.712   5.500  10.593 -2.6583  1.0615  1.4456
  222MOL0     H29905   4.547   5.367  10.356  1.7506 -1.2016  1.8257
  222MOL0     H29906   4.557   5.467  10.206 -0.0534 -0.7904 -0.8720
  222MOL0     H29907   4.593   5.240  10.134 -0.3364  0.3253 -0.2412
  222MOL0     H29908   4.699   5.205  10.277  1.3740  2.2233  2.0016
  222MOL0     H29909   4.818   5.211  10.083 -0.7683 -1.0989  2.7532
  222MOL0     H29910   4.879   5.341  10.184  3.2569 -1.5025 -1.9735
  222MOL0     H29911   4.688   5.376   9.957 -0.8225  0.8536  0.3091
  222MOL0     H29912   4.745   5.510  10.056 -0.4074 -0.0196 -0.7934
  222MOL0     H29913   4.959   5.348   9.933  1.8279  2.2076 -0.9055
  222MOL0     H29914   4.867   5.431   9.820  3.3832  0.5823 -1.1001
  222MOL0     H29915   5.069   5.550   9.903 -0.8262 -0.8313 -2.1929
  222MOL0     H29916   4.921   5.646   9.918 -0.6162 -1.3381 -0.5623
  222MOL0     H29917   5.064   5.472  10.139  0.4839  1.1132  0.3555
  222MOL0     H29918   4.922   5.558  10.169 -0.0772 -1.2983 -1.3215
  222MOL0     H29919   5.181   5.686  10.074 -0.5369 -3.6218 -1.2078
  222MOL0     H29920   5.025   5.767  10.128 -1.0871 -1.1293  0.0373
  222MOL0     H29921   4.991   5.770  10.386 -0.0364 -0.9898  2.3728
  222MOL0     H29922   5.104   5.856  10.615 -0.2185 -0.4770  0.7328
  222MOL0     H29923   5.106   5.689  10.687  2.2635 -2.0056  0.4512
  222MOL0     H29924   5.249   5.821  10.806  1.2026  0.1369  0.5998
  222MOL0     H29925   5.327   5.695  10.708 -0.3107  0.1728  0.9650
  222MOL0     H29926   5.326   5.992  10.646  0.2574 -0.7443  1.5107
  222MOL0     H29927   5.410   5.874  10.534  1.9442 -0.8899  0.1773
  222MOL0     H29928   5.552   5.817  10.745  1.1199  0.1369  0.1329
  222MOL0     H29929   5.477   5.961  10.815 -1.1597 -2.4832  0.0242
  222MOL0     H29930   5.746   6.130  10.493  0.5252  0.0727  0.0910
  222MOL0     H29931   5.994   6.175  10.528  1.6844 -0.4975 -0.8561
  222MOL0     H29932   6.237   6.417  10.589 -0.5022  0.2375  0.6206
  222MOL0     H29933   6.446   6.549  10.621 -2.7872  0.3237  2.5698
  222MOL0     H29934   6.691   6.629  10.611 -3.6111 -0.4544  0.0240
  222MOL0     H29935   6.614   6.639  10.773  1.2061  0.9527  0.5715
  222MOL0     H29936   6.809   6.605  10.866 -1.3990  2.2062  0.2102
  222MOL0     H29937   6.896   6.572  10.712  0.1888  0.0663  0.8371
  222MOL0     H29938   6.820   6.823  10.646  0.5400  1.0040 -0.1663
  222MOL0     H29939   6.742   6.835  10.798  0.2822  0.3341  0.3153
  222MOL0     H29940   7.042   6.751  10.784  0.8906  2.0311 -2.0833
  222MOL0     H29941   6.936   6.817  10.910  0.8268 -2.2113  0.1443
  222MOL0     H29942   6.937   7.036  10.739  1.0099  0.0170  0.8872
  222MOL0     H29943   7.052   6.927  10.651 -1.0875 -0.4573 -0.4858
  222MOL0     H29944   7.089   7.001  10.945 -0.1547  0.4973  0.2473
  222MOL0     H29945   7.205   6.924  10.835  0.1057  0.3039  2.0920
  222MOL0     H29946   7.124   7.224  10.809  1.6396  1.5572  0.0646
  222MOL0     H29947   7.217   7.123  10.696  1.1715 -0.4160 -0.3117
  222MOL0     H29948   7.379   7.071  10.872 -1.5807 -1.1012  0.9982
  222MOL0     H29949   7.381   7.250  10.832  0.4046  0.6284  1.8646
  222MOL0     H29950   6.633   6.210  10.812 -1.1898 -2.4573 -1.1449
  222MOL0     H29951   6.440   6.077  10.759  0.4145  0.6978  0.5231
  222MOL0     H29952   5.982   5.914  10.875 -1.0795  0.6958  1.9895
  222MOL0     H29953   5.755   5.884  10.841 -1.6568  0.5415 -1.9912
  222MOL0     H29954   4.639   5.715  10.233 -0.1774  2.4940 -0.6324
  222MOL0     H29955   4.606   5.936  10.373  0.7980  0.0910  1.4790
  222MOL0     H29956   4.726   6.123  10.754 -1.0431 -0.9811 -1.1560
  222MOL0     H29957   4.789   6.217  10.972 -1.2572  2.3298 -0.5175
  222MOL0     H29958   4.527   6.215  11.322 -0.3336 -0.2363  0.1562
  222MOL0     H29959   4.682   6.257  11.380 -0.6869 -1.9587  1.3488
  222MOL0     H29960   4.762   6.039  11.386 -0.4670 -0.9167  2.2434
  222MOL0     H29961   4.623   5.973  11.293 -0.5777 -0.3353  0.1908
  222MOL0     H29962   4.601   6.119  11.547 -1.5212  1.6889 -3.9118
  222MOL0     H29963   4.620   5.948  11.558  0.9438 -0.7037 -0.4392
  222MOL0     H29964   4.396   5.972  11.587  1.9861  1.9687  1.2567
  222MOL0     H29965   4.387   6.093  11.459  0.0568  0.9340  0.8838
  222MOL0     H29966   4.354   5.718  11.248  1.2596 -0.3913 -0.1388
  222MOL0     H29967   4.428   6.098  11.150 -0.7842 -2.3422 -0.1930
  222MOL0     H29968   4.338   5.855  10.888  0.1812 -0.9172  1.3283
  222MOL0     H29969   4.297   5.920  11.045 -2.2969  1.5393  0.8244
  222MOL0     H29970   4.238   5.987  10.893 -0.3081 -2.8695  2.0895
  223MOL0     O29971   6.810   0.638   3.988 -0.5650 -0.0432 -0.1449
  223MOL0     C29972   6.693   0.668   3.977  0.5664  0.0349  0.2807
  223MOL0     O29973   6.633   0.747   3.882  0.4297 -1.3707 -0.1656
  223MOL0     C29974   6.716   0.808   3.794  0.3089 -0.5390  0.7755
  223MOL0     C29975   6.680   0.798   3.659  0.1759  0.6599  1.1046
  223MOL0     C29976   6.761   0.866   3.554 -0.1306  0.1587  0.0312
  223MOL0     C29977   6.871   0.941   3.596 -0.0926  0.2098  0.3389
  223MOL0     O29978   6.942   1.016   3.508 -0.0625 -0.6232  0.6213
  223MOL0     C29979   6.900   1.020   3.373 -0.1515  0.3157 -0.4046
  223MOL0     C29980   6.974   1.125   3.293  0.0215 -0.2222  0.7466
  223MOL0     C29981   6.984   1.251   3.371 -0.3760 -0.3594 -0.5053
  223MOL0     C29982   7.047   1.359   3.279 -0.2688 -1.0937  0.5578
  223MOL0     C29983   7.103   1.485   3.363  0.1111 -0.9393  0.2041
  223MOL0     C29984   7.150   1.593   3.265  0.1281  0.2890 -0.3667
  223MOL0     C29985   7.258   1.688   3.339 -0.4504 -0.5760  0.7401
  223MOL0     C29986   7.247   1.834   3.269  0.3595 -0.1108 -0.1240
  223MOL0     N29987   7.299   1.948   3.354 -0.1372  1.0590 -0.3231
  223MOL0     C29988   7.391   1.943   3.454 -0.5300  0.1765 -0.3587
  223MOL0     C29989   7.395   2.069   3.516 -0.0998 -0.3512 -0.4175
  223MOL0     C29990   7.487   2.124   3.617 -0.9329  0.1418  0.4215
  223MOL0     C29991   7.625   2.132   3.556  0.4684 -0.7009  0.3785
  223MOL0     C29992   7.625   2.230   3.444  0.0213  0.5437 -0.1502
  223MOL0     C29993   7.769   2.243   3.388  1.1272  0.7573 -0.2289
  223MOL0     O29994   7.796   2.118   3.316  0.0726 -0.0775  0.8044
  223MOL0     C29995   7.931   2.116   3.264  0.8630  0.4468 -0.1018
  223MOL0     C29996   7.998   2.004   3.238  0.2472  0.2866  0.2235
  223MOL0     C29997   8.138   2.003   3.217 -0.7438  0.4399 -0.1408
  223MOL0     C29998   8.210   2.118   3.189  0.5696  0.6911  0.3789
  223MOL0     C29999   8.344   2.113   3.135  0.8626  0.9818 -0.2205
  223MOL0     O30000   8.390   1.982   3.112  0.6745  0.4049  0.3443
  223MOL0     C30001   8.497   1.957   3.034 -0.8784  0.5318  0.1011
  223MOL0     C30002   8.482   1.886   2.911 -0.4603 -0.0539 -0.4031
  223MOL0     C30003   8.600   1.853   2.843 -0.2101 -0.5281  0.7598
  223MOL0     C30004   8.732   1.886   2.880  0.3415  0.6614 -1.2684
  223MOL0     O30005   8.832   1.838   2.803  0.0552 -0.4975 -0.0283
  223MOL0     C30006   8.958   1.835   2.869 -0.3705 -0.1261  0.1395
  223MOL0     C30007   9.064   1.793   2.765  0.6798 -0.2074 -0.8670
  223MOL0     C30008   9.196   1.793   2.829  0.5507  0.1945  0.5938
  223MOL0     C30009   9.297   1.794   2.721  0.4978  0.6653 -0.6624
  223MOL0     C30010   9.442   1.780   2.788 -0.4627  0.4567  0.1394
  223MOL0     C30011   9.453   1.647   2.859 -0.8147  0.1815  0.2278
  223MOL0     C30012   9.594   1.611   2.887  0.1859  0.3458  0.3196
  223MOL0     C30013   9.609   1.536   3.019 -0.7739 -0.3728 -0.6881
  223MOL0    Cl30014   9.479   1.410   3.040  0.0170  0.7178 -0.2330
  223MOL0     C30015   8.741   1.967   3.000  0.0182  0.0474  0.2616
  223MOL0     C30016   8.626   2.000   3.071 -0.1091  0.7604  0.5208
  223MOL0     O30017   8.396   2.217   3.104 -0.1271 -0.1942 -0.0874
  223MOL0     C30018   8.137   2.236   3.189  1.0791  0.1595  0.5864
  223MOL0     C30019   8.004   2.234   3.227 -0.0740  0.7784  0.2748
  223MOL0     N30020   7.293   2.149   3.462 -0.5268  0.5249 -0.1852
  223MOL0     N30021   7.244   2.072   3.366 -0.1881  0.4573  0.6242
  223MOL0     C30022   6.903   0.945   3.725  0.8546 -0.8260 -0.6407
  223MOL0     C30023   6.831   0.885   3.821  0.0079 -0.7232 -0.4674
  223MOL0     C30024   6.598   0.629   4.087 -0.6718 -0.6921 -0.1492
  223MOL0     C30025   6.507   0.729   4.142  1.1846  0.2428  0.4792
  223MOL0     C30026   6.435   0.703   4.257  0.6860  0.2027  0.2006
  223MOL0     C30027   6.437   0.588   4.320 -0.2834 -0.2879  0.4172
  223MOL0     O30028   6.370   0.585   4.433  0.4983 -0.0214 -0.7500
  223MOL0     C30029   6.321   0.459   4.463  0.3162  0.3862 -0.6908
  223MOL0     C30030   6.201   0.450   4.554 -0.0634  0.0272  0.0441
  223MOL0     C30031   6.125   0.315   4.541  0.4140  0.3023  0.7476
  223MOL0     C30032   6.213   0.189   4.566  0.2605 -0.3350  0.1996
  223MOL0     C30033   6.265   0.169   4.707  0.7369 -0.9629 -0.7738
  223MOL0     C30034   6.323   0.165   4.818  0.2839  0.0150  0.1086
  223MOL0     C30035   6.521   0.480   4.266  0.5567  0.3744  0.1632
  223MOL0     C30036   6.596   0.503   4.148  0.4035 -0.0191  0.2591
  223MOL0     C30037   6.677   0.383   4.098 -1.0294  0.0618 -0.1446
  223MOL0     H30038   6.596   0.734   3.634 -0.0205  1.4776 -0.4453
  223MOL0     H30039   6.736   0.849   3.450  4.0729 -0.4447 -1.0643
  223MOL0     H30040   6.923   0.922   3.330 -3.5127 -1.6590  1.9151
  223MOL0     H30041   6.792   1.033   3.362 -0.3142 -0.1035  0.6221
  223MOL0     H30042   6.920   1.148   3.201 -0.4544 -0.4511  0.9621
  223MOL0     H30043   7.078   1.100   3.272 -0.5981 -2.5307  0.1988
  223MOL0     H30044   7.033   1.234   3.467  0.0140 -1.6077 -0.9167
  223MOL0     H30045   6.893   1.303   3.402  2.4804  4.2812  1.3343
  223MOL0     H30046   7.124   1.311   3.217  0.6665  0.4876  0.4210
  223MOL0     H30047   6.962   1.400   3.225  1.0947 -0.0880 -0.9465
  223MOL0     H30048   7.041   1.521   3.445  0.3191 -2.5856  1.1275
  223MOL0     H30049   7.195   1.449   3.410 -0.4208 -2.9038 -0.1714
  223MOL0     H30050   7.206   1.542   3.187 -0.2060 -3.5456  1.6249
  223MOL0     H30051   7.069   1.651   3.220  3.0933  1.3753 -4.8612
  223MOL0     H30052   7.356   1.641   3.335 -1.0080 -1.9031  1.7302
  223MOL0     H30053   7.231   1.702   3.444  1.4143  0.9639  1.0622
  223MOL0     H30054   7.296   1.832   3.171 -3.0807  2.6344 -2.1174
  223MOL0     H30055   7.144   1.868   3.257  1.3911  3.2019 -0.6834
  223MOL0     H30056   7.452   1.856   3.479  0.9423  1.5433  1.1026
  223MOL0     H30057   7.452   2.221   3.652 -0.4572  0.4690  0.0154
  223MOL0     H30058   7.487   2.050   3.697  1.3821 -2.9454 -2.1352
  223MOL0     H30059   7.693   2.175   3.629 -1.3985  2.1990  0.5539
  223MOL0     H30060   7.651   2.030   3.524 -1.0704 -0.1827 -2.9415
  223MOL0     H30061   7.592   2.330   3.475 -0.0944  0.9966 -1.6815
  223MOL0     H30062   7.566   2.195   3.359  0.0572  1.1405 -0.4218
  223MOL0     H30063   7.846   2.249   3.466  3.9482  0.2043 -2.7541
  223MOL0     H30064   7.772   2.333   3.325  3.0859  1.1735  0.3933
  223MOL0     H30065   7.939   1.914   3.253  2.6069 -1.2902  0.6717
  223MOL0     H30066   8.175   1.902   3.203 -1.3538  0.4096 -1.8222
  223MOL0     H30067   8.383   1.871   2.868 -0.8137 -0.2401  0.4503
  223MOL0     H30068   8.593   1.789   2.755  0.9701 -0.7633  0.8167
  223MOL0     H30069   8.984   1.939   2.892 -2.5014  0.1905  1.3460
  223MOL0     H30070   8.954   1.769   2.957  1.8244  0.5476  0.8199
  223MOL0     H30071   9.042   1.691   2.734  1.9919 -0.1905 -1.9917
  223MOL0     H30072   9.049   1.854   2.675 -0.7561 -0.3046 -0.7150
  223MOL0     H30073   9.209   1.879   2.895 -2.5255  0.3349  1.1793
  223MOL0     H30074   9.198   1.700   2.887  2.2629 -0.4961 -0.5103
  223MOL0     H30075   9.292   1.889   2.667 -0.9686  1.1902  0.3490
  223MOL0     H30076   9.280   1.715   2.647  1.6584  0.9241 -1.2346
  223MOL0     H30077   9.456   1.864   2.856  3.8343  0.4302 -0.4231
  223MOL0     H30078   9.520   1.793   2.712 -1.2516  0.5484 -0.6771
  223MOL0     H30079   9.396   1.642   2.952 -0.1191 -1.7937  0.6017
  223MOL0     H30080   9.397   1.572   2.802 -0.8553  1.0824 -0.9348
  223MOL0     H30081   9.649   1.705   2.895 -0.3705  1.0352 -2.6492
  223MOL0     H30082   9.622   1.551   2.800 -1.4586 -0.0367  0.0190
  223MOL0     H30083   9.700   1.475   3.012 -1.9133 -2.2158 -0.2253
  223MOL0     H30084   9.599   1.598   3.109 -0.6357 -0.9835 -0.2431
  223MOL0     H30085   8.836   2.010   3.031  0.8503 -1.0437 -0.6726
  223MOL0     H30086   8.641   2.078   3.145 -1.8863 -0.0252  1.7848
  223MOL0     H30087   8.180   2.334   3.175 -1.8940  2.0061  3.0228
  223MOL0     H30088   7.959   2.332   3.233  0.3197  1.0130 -0.5061
  223MOL0     H30089   6.998   0.992   3.749  0.2098  0.1779 -0.0012
  223MOL0     H30090   6.846   0.900   3.927 -0.1400  2.9334 -0.8486
  223MOL0     H30091   6.495   0.826   4.096 -0.3859 -0.7279 -1.2726
  223MOL0     H30092   6.376   0.788   4.292  0.8417  0.2174  0.4285
  223MOL0     H30093   6.400   0.400   4.511 -0.6407 -1.6142 -1.4708
  223MOL0     H30094   6.299   0.405   4.371  0.8159  0.1369 -0.6721
  223MOL0     H30095   6.139   0.537   4.532  1.6895  1.8312  1.8873
  223MOL0     H30096   6.228   0.466   4.658  0.8673  2.1546 -0.4831
  223MOL0     H30097   6.084   0.304   4.440  2.6766  0.2683 -0.2319
  223MOL0     H30098   6.049   0.317   4.619  2.5418  0.6209  2.9415
  223MOL0     H30099   6.158   0.097   4.543  0.7161 -0.7757  0.8119
  223MOL0     H30100   6.301   0.188   4.500 -0.9724 -0.8347 -1.5181
  223MOL0     H30101   6.364   0.156   4.917 -1.7568  1.1453  1.1347
  223MOL0     H30102   6.521   0.381   4.310  0.9061  0.8151  1.2039
  223MOL0     H30103   6.660   0.287   4.146 -1.1446 -0.5327 -1.3504
  223MOL0     H30104   6.659   0.374   3.991  2.4157  0.0700 -0.8574
  223MOL0     H30105   6.785   0.397   4.114 -1.0064  0.5184 -0.6599
  224MOL0     O30106   0.628   4.811   1.402 -0.1661 -0.2363 -0.9244
  224MOL0     C30107   0.570   4.863   1.307  0.4372 -0.3388 -0.0936
  224MOL0     O30108   0.633   4.927   1.203  0.3971  0.3904  0.0673
  224MOL0     C30109   0.755   4.987   1.212 -0.4623  0.6408 -0.1731
  224MOL0     C30110   0.813   5.027   1.092  0.6414 -0.2860 -0.4228
  224MOL0     C30111   0.948   5.065   1.081  1.1079 -0.3493  0.5111
  224MOL0     C30112   1.017   5.093   1.198  0.5072 -0.4089 -0.7362
  224MOL0     O30113   1.147   5.126   1.206 -0.0784 -0.1273 -0.3930
  224MOL0     C30114   1.221   5.145   1.080  0.2700 -0.4531  0.9834
  224MOL0     C30115   1.332   5.245   1.122  0.1192  0.0490  0.4030
  224MOL0     C30116   1.423   5.170   1.224 -0.6369 -0.8288  0.4069
  224MOL0     C30117   1.580   5.174   1.179 -0.3738  0.6356  0.0791
  224MOL0     C30118   1.651   5.307   1.219  0.1334  0.0176  0.4622
  224MOL0     C30119   1.608   5.447   1.169  0.3183 -0.0063  0.1818
  224MOL0     C30120   1.705   5.550   1.236  0.5478  0.6416 -0.1246
  224MOL0     C30121   1.663   5.700   1.201  0.4665  0.5764 -0.2131
  224MOL0     N30122   1.642   5.721   1.057  0.0231  0.2096  0.0816
  224MOL0     C30123   1.740   5.756   0.967  0.2668 -0.7049 -0.1135
  224MOL0     C30124   1.679   5.766   0.844  0.1976 -0.4229 -0.8704
  224MOL0     C30125   1.742   5.785   0.710 -0.7556 -0.5689 -0.7080
  224MOL0     C30126   1.817   5.928   0.685 -0.9965  0.6828 -0.7118
  224MOL0     C30127   1.727   6.046   0.718 -0.9530 -0.4743  0.2834
  224MOL0     C30128   1.802   6.178   0.669 -0.1718  0.3404 -0.7171
  224MOL0     O30129   1.920   6.207   0.753 -0.2114 -0.1974 -0.7308
  224MOL0     C30130   2.019   6.275   0.680 -0.3005  0.2449 -0.4351
  224MOL0     C30131   2.132   6.203   0.642  0.0563 -0.4905  0.4844
  224MOL0     C30132   2.238   6.271   0.574  0.1432  0.2236 -0.7437
  224MOL0     C30133   2.230   6.403   0.527 -0.3566 -0.5607  0.1571
  224MOL0     C30134   2.332   6.455   0.429  1.0039  0.3046  1.2338
  224MOL0     O30135   2.456   6.414   0.429  0.1073 -0.5444  0.4020
  224MOL0     C30136   2.566   6.468   0.369 -0.4257 -0.9152 -0.2061
  224MOL0     C30137   2.683   6.390   0.356 -0.2336 -0.0464 -0.0200
  224MOL0     C30138   2.807   6.445   0.321 -0.3485  0.0271 -0.8516
  224MOL0     C30139   2.817   6.583   0.292 -0.6998 -0.1015 -0.3826
  224MOL0     O30140   2.929   6.653   0.249 -0.4284 -0.1564 -0.2393
  224MOL0     C30141   3.055   6.586   0.261 -0.4114  0.1568  0.3055
  224MOL0     C30142   3.164   6.684   0.216 -0.0956  0.4191  0.2938
  224MOL0     C30143   3.177   6.816   0.290  0.0013 -0.5401 -1.2201
  224MOL0     C30144   3.308   6.884   0.239  0.8835 -0.6349 -0.5151
  224MOL0     C30145   3.330   7.013   0.312 -0.6482 -0.4251 -0.2558
  224MOL0     C30146   3.263   7.132   0.240  0.0081  0.2709 -0.0150
  224MOL0     C30147   3.304   7.263   0.294 -0.3823 -0.6256 -0.3580
  224MOL0     C30148   3.219   7.305   0.421 -0.0907 -0.7563 -0.4920
  224MOL0    Cl30149   3.049   7.311   0.384  0.0443 -0.2573 -0.2059
  224MOL0     C30150   2.697   6.669   0.300 -0.1653  0.6399 -0.1728
  224MOL0     C30151   2.577   6.608   0.338 -0.2355  1.0017  0.1346
  224MOL0     O30152   2.280   6.524   0.342 -0.0255 -0.0486 -0.5215
  224MOL0     C30153   2.108   6.466   0.566  0.6884  0.1479 -0.1976
  224MOL0     C30154   2.008   6.408   0.648 -0.4886  0.2880  0.6987
  224MOL0     N30155   1.549   5.716   0.859  0.1009 -0.3101 -0.5761
  224MOL0     N30156   1.530   5.692   0.983 -0.6538  0.3545 -0.0737
  224MOL0     C30157   0.957   5.066   1.318 -0.0997  0.9035  0.1583
  224MOL0     C30158   0.834   5.013   1.323 -0.2372  0.1306 -0.4600
  224MOL0     C30159   0.428   4.829   1.294  0.9414 -0.0157  0.0228
  224MOL0     C30160   0.366   4.839   1.165 -0.0209 -0.4196  0.1904
  224MOL0     C30161   0.226   4.816   1.136 -0.0815  0.1513 -0.4139
  224MOL0     C30162   0.151   4.769   1.238  0.3631  0.3639  0.6525
  224MOL0     O30163   0.023   4.746   1.194  0.5851 -0.1193  0.5405
  224MOL0     C30164  -0.073   4.660   1.268 -0.4609 -0.3291  0.3150
  224MOL0     C30165  -0.138   4.738   1.385 -0.2064 -0.7086  0.4504
  224MOL0     C30166  -0.187   4.883   1.352  0.5296  0.5789  0.1596
  224MOL0     C30167  -0.236   4.948   1.478 -0.7283 -0.0081  0.1279
  224MOL0     C30168  -0.285   5.084   1.455 -0.4478  0.4336 -0.0292
  224MOL0     C30169  -0.331   5.196   1.444  0.1194 -0.0100  0.0668
  224MOL0     C30170   0.208   4.758   1.372  0.3306 -0.1155  0.3514
  224MOL0     C30171   0.345   4.782   1.393 -0.9143 -0.2844 -0.4957
  224MOL0     C30172   0.387   4.765   1.535  0.4642  0.2409 -0.8903
  224MOL0     H30173   0.747   5.002   1.009  0.3156 -0.7649 -0.0247
  224MOL0     H30174   0.981   5.067   0.977 -2.2852 -1.6345 -0.7547
  224MOL0     H30175   1.261   5.050   1.042 -2.6147 -1.7789  0.9430
  224MOL0     H30176   1.160   5.189   1.000 -1.4985 -0.8162  2.0800
  224MOL0     H30177   1.286   5.334   1.166 -1.0729 -0.6276  0.5494
  224MOL0     H30178   1.395   5.276   1.037 -0.2504 -2.8006 -1.0326
  224MOL0     H30179   1.393   5.065   1.234 -0.6990 -1.1677 -2.4749
  224MOL0     H30180   1.416   5.220   1.321 -0.0139 -0.9419  0.5122
  224MOL0     H30181   1.625   5.092   1.235 -2.0536 -2.0736 -2.2825
  224MOL0     H30182   1.585   5.156   1.071 -0.5087 -0.7497  0.2926
  224MOL0     H30183   1.624   5.315   1.325 -2.2733 -0.6003 -0.0423
  224MOL0     H30184   1.757   5.296   1.196 -0.7821  0.6733 -5.6818
  224MOL0     H30185   1.627   5.447   1.061  1.8520 -0.3711  0.4321
  224MOL0     H30186   1.502   5.465   1.187  0.2394  0.1826 -0.4382
  224MOL0     H30187   1.811   5.529   1.216  1.0660  0.9376  2.0871
  224MOL0     H30188   1.694   5.552   1.344 -2.8330  2.8623 -0.3694
  224MOL0     H30189   1.575   5.723   1.261  2.2418  2.3345  1.8555
  224MOL0     H30190   1.740   5.770   1.233 -1.8215  3.1583 -0.0326
  224MOL0     H30191   1.846   5.771   0.978  0.2474  0.0729 -0.8874
  224MOL0     H30192   1.819   5.710   0.689 -0.6353 -0.9272  0.9036
  224MOL0     H30193   1.667   5.780   0.630 -2.5887  1.3099  0.7710
  224MOL0     H30194   1.904   5.921   0.751 -1.0109 -1.4884 -0.8417
  224MOL0     H30195   1.855   5.931   0.582  0.5641 -0.1574 -0.1977
  224MOL0     H30196   1.696   6.051   0.823 -1.7156  1.3017  0.0146
  224MOL0     H30197   1.635   6.043   0.661 -1.9383 -2.5087  1.8678
  224MOL0     H30198   1.729   6.260   0.671 -2.1068 -1.3078  0.5834
  224MOL0     H30199   1.838   6.160   0.567 -1.6550 -0.1829 -1.1855
  224MOL0     H30200   2.143   6.102   0.680 -4.8832 -1.5776 -0.2937
  224MOL0     H30201   2.327   6.213   0.552  0.8963  1.7584 -1.9144
  224MOL0     H30202   2.665   6.290   0.393  0.5872 -0.4531 -0.7081
  224MOL0     H30203   2.897   6.386   0.330 -2.2227 -2.9611 -0.4631
  224MOL0     H30204   3.072   6.559   0.366  0.3020  1.2712  0.4988
  224MOL0     H30205   3.066   6.500   0.195  3.0736  0.5237  0.1956
  224MOL0     H30206   3.254   6.628   0.240 -1.9704 -3.7503 -1.4422
  224MOL0     H30207   3.152   6.694   0.107 -0.5916  1.9872  0.4541
  224MOL0     H30208   3.091   6.883   0.276 -0.8874 -2.0015 -3.3142
  224MOL0     H30209   3.172   6.791   0.396 -1.1394 -1.6915 -1.5253
  224MOL0     H30210   3.290   6.908   0.134  0.6110  0.4584 -0.2325
  224MOL0     H30211   3.395   6.819   0.249  0.0366 -1.5278  1.6350
  224MOL0     H30212   3.436   7.037   0.327 -1.4560  1.2856  4.3043
  224MOL0     H30213   3.297   7.003   0.416  1.5410 -1.2033  0.4345
  224MOL0     H30214   3.267   7.119   0.131 -0.0731 -0.0228  0.0170
  224MOL0     H30215   3.157   7.108   0.251  0.6602 -2.7927  0.4172
  224MOL0     H30216   3.301   7.338   0.215 -0.0365  2.3616  2.2529
  224MOL0     H30217   3.406   7.262   0.334 -1.6354 -3.0160  3.2399
  224MOL0     H30218   3.234   7.242   0.509 -0.4853 -1.4550 -0.9169
  224MOL0     H30219   3.258   7.405   0.445 -1.1057 -0.6258  0.7317
  224MOL0     H30220   2.698   6.777   0.288 -0.3094  0.8094  1.2290
  224MOL0     H30221   2.487   6.669   0.347  0.0018  1.2881  0.6320
  224MOL0     H30222   2.092   6.568   0.531  1.7076 -0.4582 -2.6314
  224MOL0     H30223   1.919   6.464   0.674 -0.1982  0.9986  0.2133
  224MOL0     H30224   1.010   5.078   1.412 -0.3045 -2.4333  0.8176
  224MOL0     H30225   0.788   4.987   1.417 -1.8913  1.6054 -0.8035
  224MOL0     H30226   0.427   4.875   1.083  0.1586  0.8709  0.8639
  224MOL0     H30227   0.202   4.823   1.031 -2.2400 -1.0329 -0.0625
  224MOL0     H30228  -0.018   4.576   1.311 -1.1354 -0.6071  0.6443
  224MOL0     H30229  -0.151   4.626   1.199 -0.8319 -0.7809  0.9485
  224MOL0     H30230  -0.059   4.758   1.458  0.4732  1.9284 -0.8827
  224MOL0     H30231  -0.218   4.686   1.439 -1.6919  1.4232  0.4295
  224MOL0     H30232  -0.261   4.891   1.272  0.0734  2.0781  0.7042
  224MOL0     H30233  -0.099   4.937   1.316  2.1302 -0.5556  2.1168
  224MOL0     H30234  -0.324   4.890   1.508 -0.6456  0.4090  1.2209
  224MOL0     H30235  -0.168   4.950   1.564 -0.1500  1.1785 -0.3374
  224MOL0     H30236  -0.365   5.298   1.431 -4.7580 -1.6599 -3.4665
  224MOL0     H30237   0.143   4.718   1.450 -0.0044 -1.4579 -0.5737
  224MOL0     H30238   0.310   4.742   1.610  2.8127  0.3361  1.7213
  224MOL0     H30239   0.459   4.684   1.549 -1.7054 -1.4409  1.8147
  224MOL0     H30240   0.424   4.861   1.572 -1.3666  0.5772  0.2470
  225MOL0     O30241   6.207   8.728   9.666 -0.1308 -0.6883 -0.2713
  225MOL0     C30242   6.112   8.708   9.596  0.1784 -0.9433 -0.7118
  225MOL0     O30243   6.107   8.737   9.459  0.7493 -0.1598  0.5368
  225MOL0     C30244   6.204   8.818   9.418 -0.3464 -0.2543  0.3246
  225MOL0     C30245   6.323   8.767   9.391  0.7279  0.1976 -0.0353
  225MOL0     C30246   6.429   8.844   9.353  0.1277 -0.2392 -0.0904
  225MOL0     C30247   6.411   8.983   9.335  0.7882 -0.1394 -0.7023
  225MOL0     O30248   6.513   9.064   9.296  0.4552 -0.0045  0.0901
  225MOL0     C30249   6.547   9.051   9.156  0.5329  0.0280 -0.0469
  225MOL0     C30250   6.591   9.175   9.064  0.1335  0.2660 -0.3186
  225MOL0     C30251   6.721   9.228   9.123 -0.0891  0.4655  0.4914
  225MOL0     C30252   6.845   9.180   9.052 -0.4388  1.6544 -0.2645
  225MOL0     C30253   6.972   9.245   9.105 -0.0955  0.0934  0.3068
  225MOL0     C30254   7.102   9.173   9.058 -0.4274  0.4631  0.6266
  225MOL0     C30255   7.235   9.244   9.114 -0.1835  0.3017  0.4646
  225MOL0     C30256   7.372   9.170   9.093  0.3440  0.4310  0.1838
  225MOL0     N30257   7.427   9.177   8.961  0.0563  0.3527 -0.0785
  225MOL0     C30258   7.547   9.133   8.937 -0.1871  0.2992  0.1586
  225MOL0     C30259   7.578   9.179   8.814  0.5699 -0.2032  0.2679
  225MOL0     C30260   7.714   9.153   8.740 -0.2998 -0.3480  0.1069
  225MOL0     C30261   7.823   9.264   8.763 -0.5770  0.0584 -0.1769
  225MOL0     C30262   7.844   9.296   8.915 -0.4377 -0.1846  0.1884
  225MOL0     C30263   7.958   9.387   8.945  0.1415  0.0520 -0.5675
  225MOL0     O30264   8.069   9.349   8.870  0.1834 -0.4482  0.2324
  225MOL0     C30265   8.187   9.425   8.883  0.5979 -0.1879  0.9731
  225MOL0     C30266   8.309   9.375   8.837  0.3547  0.8145 -1.2438
  225MOL0     C30267   8.425   9.450   8.849 -0.6609  0.6051  0.2945
  225MOL0     C30268   8.419   9.572   8.919  0.6315  0.6517 -0.5126
  225MOL0     C30269   8.532   9.659   8.935 -0.3312  1.1073 -0.8807
  225MOL0     O30270   8.656   9.615   8.904  0.4212  0.7604  0.1887
  225MOL0     C30271   8.771   9.679   8.936 -0.1708  0.4958 -0.1573
  225MOL0     C30272   8.852   9.700   8.826 -0.3326 -0.0335 -0.7134
  225MOL0     C30273   8.968   9.781   8.845  0.7855 -0.0790  0.5770
  225MOL0     C30274   8.998   9.825   8.973 -0.3725  0.2860  0.6206
  225MOL0     O30275   9.098   9.916   8.966  0.4684 -0.1461  0.4635
  225MOL0     C30276   9.185   9.931   9.080 -0.7649 -0.2569 -0.1242
  225MOL0     C30277   9.299  10.002   9.014  0.1153  0.1675  0.0750
  225MOL0     C30278   9.423  10.016   9.094  0.3237  1.3843 -0.6913
  225MOL0     C30279   9.537  10.072   9.015 -1.0666 -0.1581 -0.4157
  225MOL0     C30280   9.660  10.067   9.104 -0.3675  0.7691 -0.1735
  225MOL0     C30281   9.786  10.146   9.046 -0.4333  0.2023 -0.0620
  225MOL0     C30282   9.910  10.129   9.140 -0.2017  0.1755 -0.2651
  225MOL0     C30283  10.022  10.211   9.086 -0.5882 -0.6138 -0.2002
  225MOL0    Cl30284  10.163  10.181   9.189 -0.7668 -0.1109 -0.6123
  225MOL0     C30285   8.918   9.798   9.082 -1.1766  0.1130  0.4910
  225MOL0     C30286   8.807   9.717   9.063 -0.3355 -0.3896 -0.6257
  225MOL0     O30287   8.500   9.771   8.977  0.1685 -0.6721 -0.4170
  225MOL0     C30288   8.297   9.616   8.974 -0.4212 -0.1182 -1.0116
  225MOL0     C30289   8.181   9.548   8.951 -0.1111 -0.0006 -0.3317
  225MOL0     N30290   7.468   9.260   8.767 -0.2026  0.0447 -0.1478
  225MOL0     N30291   7.379   9.247   8.862  0.0920  0.0211  0.1307
  225MOL0     C30292   6.287   9.038   9.367  0.3518  0.0286  0.5144
  225MOL0     C30293   6.177   8.961   9.405  0.1908  0.3810 -0.9437
  225MOL0     C30294   5.989   8.650   9.669 -0.0055  0.6245  0.6099
  225MOL0     C30295   5.999   8.612   9.799  0.6688  0.0865 -0.5356
  225MOL0     C30296   5.888   8.552   9.863 -0.6923  0.0308  0.0947
  225MOL0     C30297   5.765   8.551   9.803  0.3452 -0.1845  0.5345
  225MOL0     O30298   5.648   8.509   9.862 -0.3764 -0.1759 -0.1056
  225MOL0     C30299   5.645   8.445   9.993  0.2766  0.0030  0.0423
  225MOL0     C30300   5.690   8.299   9.972  0.0394 -0.2429  0.4794
  225MOL0     C30301   5.579   8.229   9.889  0.2341  0.2382 -0.6816
  225MOL0     C30302   5.591   8.075   9.882  0.1263 -0.6689 -0.1609
  225MOL0     C30303   5.731   8.040   9.854  0.2098 -0.3561  0.7572
  225MOL0     C30304   5.851   8.005   9.840 -0.0336 -0.3017 -0.3218
  225MOL0     C30305   5.747   8.594   9.671 -0.9344 -0.0526  0.4475
  225MOL0     C30306   5.863   8.639   9.598  0.9736  0.0778 -1.0562
  225MOL0     C30307   5.838   8.685   9.456 -0.1646 -0.4243  0.0503
  225MOL0     H30308   6.331   8.660   9.408 -1.0393  0.2773  1.7240
  225MOL0     H30309   6.526   8.802   9.329  0.6196 -0.6492  2.3618
  225MOL0     H30310   6.628   8.978   9.145 -1.0032 -1.5124 -2.0582
  225MOL0     H30311   6.463   9.003   9.104  0.7044  0.6488 -0.9157
  225MOL0     H30312   6.522   9.260   9.064 -0.0400  0.1262 -0.1340
  225MOL0     H30313   6.604   9.146   8.959  2.3778  1.8040 -0.5414
  225MOL0     H30314   6.730   9.205   9.230  3.4578 -0.1197  0.1849
  225MOL0     H30315   6.732   9.336   9.109  2.1173  0.0978 -1.0782
  225MOL0     H30316   6.856   9.074   9.074  0.3908  0.9314 -3.6962
  225MOL0     H30317   6.837   9.182   8.943  0.4578 -2.3834 -0.5597
  225MOL0     H30318   6.970   9.347   9.065  1.5094 -0.4838 -1.3720
  225MOL0     H30319   6.969   9.249   9.214 -1.1246 -1.2249  0.3556
  225MOL0     H30320   7.105   9.066   9.077  0.9668  0.1561 -1.0079
  225MOL0     H30321   7.116   9.189   8.950  1.7869  0.1689  0.8328
  225MOL0     H30322   7.220   9.252   9.222 -0.9048 -1.2078  0.4952
  225MOL0     H30323   7.230   9.345   9.073 -1.0956  0.3131  0.5708
  225MOL0     H30324   7.439   9.218   9.165 -1.2235 -0.2045  2.1505
  225MOL0     H30325   7.364   9.063   9.113  3.0737 -0.0689 -0.9862
  225MOL0     H30326   7.613   9.069   8.995  0.5053 -0.2256 -1.1612
  225MOL0     H30327   7.763   9.067   8.786  1.1117  1.8070  2.9626
  225MOL0     H30328   7.695   9.155   8.632  1.6234  2.0234 -0.2818
  225MOL0     H30329   7.917   9.220   8.730  0.9693  2.0857  1.2627
  225MOL0     H30330   7.802   9.356   8.708  0.3042 -0.0380 -0.6845
  225MOL0     H30331   7.860   9.206   8.975  1.0997 -0.3881 -0.4887
  225MOL0     H30332   7.763   9.362   8.948  0.9352  2.3966 -1.2309
  225MOL0     H30333   7.975   9.379   9.052  0.7866  4.4966 -0.1185
  225MOL0     H30334   7.933   9.493   8.927 -1.8942 -0.4509 -0.9491
  225MOL0     H30335   8.307   9.275   8.795  0.7599 -0.1209  0.8319
  225MOL0     H30336   8.518   9.408   8.813 -1.9803 -0.7102 -1.7965
  225MOL0     H30337   8.829   9.673   8.723  0.9497  1.2235 -1.3568
  225MOL0     H30338   9.026   9.822   8.763  0.2283  1.0521  0.7262
  225MOL0     H30339   9.137   9.990   9.158 -1.4372  0.0403 -0.7563
  225MOL0     H30340   9.216   9.831   9.113 -1.8105 -0.1158  1.4385
  225MOL0     H30341   9.335   9.932   8.938 -2.8927 -2.9728  1.2442
  225MOL0     H30342   9.255  10.093   8.971  0.0694 -0.0606 -0.3620
  225MOL0     H30343   9.403  10.079   9.181 -0.2033  0.0584  0.1975
  225MOL0     H30344   9.447   9.920   9.142 -1.3879  1.2441 -0.0495
  225MOL0     H30345   9.520  10.176   8.982  0.5369  0.3713  0.3497
  225MOL0     H30346   9.556  10.009   8.927 -0.1446  0.3833 -0.6166
  225MOL0     H30347   9.687   9.962   9.118 -0.3847  0.5637 -1.6112
  225MOL0     H30348   9.641  10.116   9.200 -0.2394  2.0945 -0.7992
  225MOL0     H30349   9.814  10.095   8.953 -0.7873  2.1160 -1.2730
  225MOL0     H30350   9.763  10.251   9.028 -2.9618 -0.3989 -0.7380
  225MOL0     H30351   9.948  10.027   9.151 -3.5199 -1.2953 -1.3706
  225MOL0     H30352   9.880  10.155   9.242  0.1425 -0.1515 -0.0736
  225MOL0     H30353  10.042  10.168   8.987  0.3382 -2.3498  0.7065
  225MOL0     H30354   9.988  10.315   9.077 -0.8524 -0.6562  0.2732
  225MOL0     H30355   8.940   9.832   9.183 -1.0399 -1.1800  0.9122
  225MOL0     H30356   8.746   9.721   9.153  0.1659  0.7409 -0.3160
  225MOL0     H30357   8.295   9.707   9.032  2.5397 -0.6566  0.1105
  225MOL0     H30358   8.096   9.600   8.994  1.1064  0.0841  2.1430
  225MOL0     H30359   6.288   9.142   9.335  0.5758 -0.4308 -1.0446
  225MOL0     H30360   6.081   9.009   9.420 -0.1121 -0.6406  0.7074
  225MOL0     H30361   6.091   8.626   9.854  0.5506  0.5436 -0.4515
  225MOL0     H30362   5.916   8.518   9.962  1.5024 -0.9968 -0.8032
  225MOL0     H30363   5.547   8.452  10.042  0.3218 -3.1067  0.7765
  225MOL0     H30364   5.712   8.511  10.048  0.6700  2.1139 -2.7398
  225MOL0     H30365   5.690   8.254  10.072 -0.6803 -0.1342  0.5333
  225MOL0     H30366   5.788   8.284   9.925 -0.2512  1.1573 -0.6579
  225MOL0     H30367   5.588   8.283   9.794 -1.3231  2.8646  0.5531
  225MOL0     H30368   5.493   8.256   9.951  1.2118  0.2312  0.6946
  225MOL0     H30369   5.553   8.039   9.978  0.5433  1.6759  0.9516
  225MOL0     H30370   5.530   8.036   9.800  0.4567  1.4468 -1.4749
  225MOL0     H30371   5.956   7.989   9.827  0.2933 -3.1481  3.9742
  225MOL0     H30372   5.646   8.592   9.632 -0.6371 -0.7564 -0.3377
  225MOL0     H30373   5.738   8.663   9.419 -0.0935  1.2984 -1.2680
  225MOL0     H30374   5.847   8.794   9.446  0.2100 -0.5102 -0.6722
  225MOL0     H30375   5.914   8.632   9.397  0.1301 -1.8033  1.5875
  226MOL0     O30376   5.967   3.505   8.547  0.0881  0.3287  0.5176
  226MOL0     C30377   5.980   3.394   8.497 -0.2459  0.1728  0.1335
  226MOL0     O30378   6.097   3.340   8.460  0.2499 -0.5645 -0.3186
  226MOL0     C30379   6.201   3.374   8.540  0.4006 -0.8542 -0.3478
  226MOL0     C30380   6.243   3.295   8.646  0.7753 -0.7247 -0.8287
  226MOL0     C30381   6.368   3.310   8.706 -0.8121 -0.5751 -0.3091
  226MOL0     C30382   6.444   3.421   8.666 -0.1306  0.0549 -0.3546
  226MOL0     O30383   6.566   3.448   8.725  0.3987 -0.1721 -0.8600
  226MOL0     C30384   6.593   3.414   8.858 -0.0346  0.3670 -0.7426
  226MOL0     C30385   6.715   3.486   8.913  0.6270 -0.0447  0.5562
  226MOL0     C30386   6.837   3.397   8.923 -0.1818 -0.0002  0.2695
  226MOL0     C30387   6.877   3.331   8.785  1.6538 -0.0112 -0.3801
  226MOL0     C30388   7.017   3.279   8.799  0.2454  0.1456 -0.1612
  226MOL0     C30389   7.055   3.206   8.671  0.0206  0.3110  0.4500
  226MOL0     C30390   7.192   3.139   8.656 -0.8202  0.4916  0.4504
  226MOL0     C30391   7.296   3.243   8.601 -0.1494  0.0885 -0.0702
  226MOL0     N30392   7.420   3.175   8.577  0.2800 -0.0298  0.2498
  226MOL0     C30393   7.519   3.178   8.671  0.0048 -0.0905 -0.7647
  226MOL0     C30394   7.622   3.087   8.628  0.5361 -0.0457  0.2216
  226MOL0     C30395   7.751   3.044   8.694  0.7222  0.2941  0.5474
  226MOL0     C30396   7.829   3.164   8.734 -0.5607  0.0661 -0.3895
  226MOL0     C30397   7.976   3.125   8.741  0.4316  0.7683  0.0364
  226MOL0     C30398   8.058   3.238   8.813 -0.3856 -0.0800  0.3546
  226MOL0     O30399   8.192   3.197   8.820 -0.2715 -0.4404  0.2660
  226MOL0     C30400   8.271   3.243   8.716 -0.2604 -0.2867  0.4278
  226MOL0     C30401   8.230   3.283   8.583  0.0534 -0.0181  0.4669
  226MOL0     C30402   8.334   3.326   8.499 -0.5962 -0.4174  0.0299
  226MOL0     C30403   8.468   3.333   8.543 -0.0543  0.9700 -0.0515
  226MOL0     C30404   8.571   3.378   8.448  0.3872 -0.0485  0.9805
  226MOL0     O30405   8.526   3.400   8.318 -0.0133 -0.6883  0.3774
  226MOL0     C30406   8.616   3.451   8.232 -0.3667 -1.0239  0.2269
  226MOL0     C30407   8.682   3.357   8.156  0.1312 -0.0298  0.3033
  226MOL0     C30408   8.767   3.395   8.054 -0.3646 -0.2123  1.1565
  226MOL0     C30409   8.782   3.531   8.009 -0.6522  0.6550  0.0389
  226MOL0     O30410   8.879   3.576   7.923  0.3668 -0.3364  0.0849
  226MOL0     C30411   8.946   3.483   7.846 -0.2693  0.0776 -0.2848
  226MOL0     C30412   9.053   3.576   7.771  0.5517 -0.5056 -0.2840
  226MOL0     C30413   9.166   3.622   7.862  0.0828  0.2551 -0.1738
  226MOL0     C30414   9.232   3.738   7.788 -0.2007  0.6176  0.9933
  226MOL0     C30415   9.311   3.828   7.869 -0.5780 -0.4951  0.6636
  226MOL0     C30416   9.424   3.774   7.947 -0.3273 -0.0933  0.4224
  226MOL0     C30417   9.544   3.865   7.980  0.6305  0.1460  0.7814
  226MOL0     C30418   9.639   3.785   8.069 -0.5567  0.3566 -0.8898
  226MOL0    Cl30419   9.723   3.666   7.962 -0.1103  0.2080  0.4845
  226MOL0     C30420   8.709   3.624   8.085 -0.1061 -0.4113  1.5322
  226MOL0     C30421   8.629   3.585   8.187  0.2937  0.1642 -1.0882
  226MOL0     O30422   8.694   3.383   8.483 -0.4864 -0.2213  0.4367
  226MOL0     C30423   8.498   3.310   8.681  1.1004  0.7384  0.1768
  226MOL0     C30424   8.401   3.266   8.762  0.5312  0.1118 -0.6252
  226MOL0     N30425   7.571   3.039   8.501 -0.7416 -0.4768 -1.2345
  226MOL0     N30426   7.457   3.097   8.470 -0.2961 -0.9698 -0.7020
  226MOL0     C30427   6.404   3.511   8.561 -0.3471 -1.4837  0.0730
  226MOL0     C30428   6.279   3.487   8.507 -1.0310 -0.7693 -0.2180
  226MOL0     C30429   5.854   3.334   8.437 -0.1417  0.9375 -0.1733
  226MOL0     C30430   5.734   3.369   8.511  0.2697  0.7365  0.4744
  226MOL0     C30431   5.610   3.313   8.473 -0.0525  0.1984 -0.8911
  226MOL0     C30432   5.593   3.247   8.353  0.3505 -0.2066 -0.1261
  226MOL0     O30433   5.472   3.203   8.315  0.8456 -0.5919 -0.8075
  226MOL0     C30434   5.357   3.268   8.381 -0.8632  0.6548  0.8703
  226MOL0     C30435   5.229   3.241   8.312  0.2089 -0.5725 -0.0714
  226MOL0     C30436   5.108   3.304   8.386 -0.2500  0.3972  0.1466
  226MOL0     C30437   4.971   3.297   8.320  0.3175  0.7797  0.1630
  226MOL0     C30438   4.968   3.336   8.177 -0.3426 -0.4638  0.0576
  226MOL0     C30439   4.974   3.374   8.067  0.5603 -0.2483 -1.0061
  226MOL0     C30440   5.706   3.223   8.274 -0.0269  0.1023 -0.5692
  226MOL0     C30441   5.840   3.262   8.319 -0.4013 -0.4399  0.6665
  226MOL0     C30442   5.962   3.239   8.235  0.0634 -0.2472 -0.3230
  226MOL0     H30443   6.198   3.207   8.691  2.9968 -0.2845  2.5733
  226MOL0     H30444   6.393   3.249   8.793 -0.8096  2.0980  1.6838
  226MOL0     H30445   6.508   3.450   8.917  2.4004  1.3838  2.4496
  226MOL0     H30446   6.610   3.306   8.868  1.0609  0.6968  1.9265
  226MOL0     H30447   6.693   3.526   9.013  1.7998 -0.2370  0.9057
  226MOL0     H30448   6.732   3.573   8.849 -0.1755 -1.4801 -1.7328
  226MOL0     H30449   6.811   3.326   9.002 -0.6691  1.1902  1.1949
  226MOL0     H30450   6.926   3.447   8.959  0.5522 -1.7735  1.0435
  226MOL0     H30451   6.809   3.252   8.752  1.2292  0.2555 -0.1589
  226MOL0     H30452   6.881   3.410   8.710  2.9482 -0.4957 -0.8376
  226MOL0     H30453   7.081   3.366   8.816  1.9928 -1.2776  0.9428
  226MOL0     H30454   7.020   3.225   8.894 -0.7386 -0.0320 -0.2161
  226MOL0     H30455   6.990   3.118   8.668  2.8354 -1.8867 -0.1926
  226MOL0     H30456   7.035   3.275   8.589  1.3189  0.6386  0.3797
  226MOL0     H30457   7.184   3.060   8.581  2.1796 -0.1816  0.7064
  226MOL0     H30458   7.230   3.095   8.748  0.2566  2.1994  0.8633
  226MOL0     H30459   7.259   3.282   8.506  0.9332 -1.2316 -1.0816
  226MOL0     H30460   7.310   3.326   8.670  3.1394  0.2133 -0.7189
  226MOL0     H30461   7.522   3.240   8.760  2.4275  2.5810 -2.5262
  226MOL0     H30462   7.735   2.982   8.783  3.8777  0.5507  1.4220
  226MOL0     H30463   7.809   2.985   8.623 -1.0850 -0.0868 -0.6846
  226MOL0     H30464   7.815   3.244   8.661  1.1604 -0.3451 -1.2500
  226MOL0     H30465   7.785   3.204   8.825 -0.0745  1.2458 -0.6453
  226MOL0     H30466   8.022   3.100   8.645 -0.3085 -1.1786  0.1503
  226MOL0     H30467   7.990   3.031   8.796  1.8999  1.1641  0.3865
  226MOL0     H30468   8.020   3.249   8.915  0.6020  2.8577  0.5172
  226MOL0     H30469   8.040   3.342   8.783 -1.3824  0.3479  2.2920
  226MOL0     H30470   8.129   3.283   8.543  0.1283 -0.1990  0.2797
  226MOL0     H30471   8.305   3.360   8.400 -1.8805 -3.0437 -0.5958
  226MOL0     H30472   8.667   3.254   8.185  0.4623 -0.0635  0.3604
  226MOL0     H30473   8.821   3.321   7.996 -3.6540  0.0267 -2.6601
  226MOL0     H30474   8.992   3.409   7.912 -2.5940 -1.2175 -0.0081
  226MOL0     H30475   8.882   3.429   7.775  1.7310 -2.1412 -0.5236
  226MOL0     H30476   9.083   3.520   7.682 -0.8539  0.7531 -1.6263
  226MOL0     H30477   8.988   3.658   7.736  0.1760  0.2270  1.9981
  226MOL0     H30478   9.130   3.658   7.959  1.4891  2.5713 -0.4422
  226MOL0     H30479   9.216   3.525   7.870 -2.1211 -1.0503 -1.2465
  226MOL0     H30480   9.156   3.797   7.737  1.2750  1.5014 -0.2495
  226MOL0     H30481   9.293   3.699   7.706 -2.8408  1.9131 -1.7512
  226MOL0     H30482   9.257   3.884   7.946  3.9382  1.8360  2.5405
  226MOL0     H30483   9.353   3.904   7.802 -2.3820  0.3071  0.3929
  226MOL0     H30484   9.384   3.740   8.043  2.2555  0.9530  1.9610
  226MOL0     H30485   9.471   3.685   7.904  3.7556  2.2467 -0.5721
  226MOL0     H30486   9.508   3.954   8.032  0.7138  1.5958 -1.4875
  226MOL0     H30487   9.592   3.895   7.886  1.2831  1.9370  1.6462
  226MOL0     H30488   9.704   3.859   8.117  0.0131 -0.0482 -1.0276
  226MOL0     H30489   9.584   3.723   8.141  0.1776  0.9323  0.1998
  226MOL0     H30490   8.701   3.725   8.047  2.1394 -0.7576 -0.0207
  226MOL0     H30491   8.560   3.650   8.238  0.1769 -2.2526  2.1706
  226MOL0     H30492   8.590   3.338   8.731  2.7544 -1.3538 -1.4797
  226MOL0     H30493   8.420   3.244   8.867  1.0716 -0.5287 -0.8514
  226MOL0     H30494   6.465   3.598   8.538 -1.7826 -0.7244 -1.0393
  226MOL0     H30495   6.251   3.546   8.420 -0.6872  0.1093  0.2651
  226MOL0     H30496   5.740   3.424   8.605 -2.2018 -0.0838  1.1902
  226MOL0     H30497   5.535   3.319   8.552 -0.0761  2.7300 -1.0413
  226MOL0     H30498   5.380   3.374   8.390 -0.2039  0.4561  1.7487
  226MOL0     H30499   5.346   3.214   8.476 -2.2536 -0.2729  0.2109
  226MOL0     H30500   5.213   3.133   8.313  0.6883 -0.6560  1.5901
  226MOL0     H30501   5.230   3.274   8.208 -0.2878 -2.8502 -0.8478
  226MOL0     H30502   5.126   3.412   8.396 -3.5204  1.3594 -2.1386
  226MOL0     H30503   5.086   3.267   8.486  0.4078  1.7142  0.7940
  226MOL0     H30504   4.940   3.193   8.328 -2.4454  1.3661 -1.4248
  226MOL0     H30505   4.905   3.354   8.386  0.2073  1.2781 -0.3659
  226MOL0     H30506   4.962   3.417   7.969  0.9298  0.3386 -0.8004
  226MOL0     H30507   5.702   3.165   8.182 -1.5540 -0.1410 -0.3724
  226MOL0     H30508   5.928   3.218   8.133 -3.4325  1.2522  0.3863
  226MOL0     H30509   6.026   3.327   8.220 -0.3917  0.0230 -0.7344
  226MOL0     H30510   6.013   3.155   8.282 -0.5194 -1.7855 -2.2734
  227MOL0     O30511   0.828  10.788   6.695  0.4047  0.2692 -0.3296
  227MOL0     C30512   0.774  10.876   6.618 -0.4701 -0.3218 -1.1845
  227MOL0     O30513   0.820  11.005   6.610  0.1333 -0.2161 -0.2407
  227MOL0     C30514   0.921  11.049   6.686 -0.2146  0.2972 -0.7000
  227MOL0     C30515   0.911  11.084   6.825 -0.3876 -1.0612  0.3516
  227MOL0     C30516   1.038  11.093   6.895 -0.0925  1.0243  0.2384
  227MOL0     C30517   1.160  11.086   6.827 -0.0265  0.8253  0.3657
  227MOL0     O30518   1.270  11.102   6.905 -0.6004  0.6301  0.1054
  227MOL0     C30519   1.331  10.981   6.935  0.1429 -1.2073  0.1010
  227MOL0     C30520   1.427  10.938   6.820 -0.0509  0.1178  0.3690
  227MOL0     C30521   1.538  11.040   6.779  0.0168 -0.7521  0.9642
  227MOL0     C30522   1.645  10.989   6.678  0.3792  0.5545  0.7215
  227MOL0     C30523   1.772  11.067   6.690  0.5469 -0.1603 -0.2209
  227MOL0     C30524   1.758  11.218   6.670  0.1792 -1.1514 -0.6539
  227MOL0     C30525   1.900  11.262   6.709 -0.4976 -0.5874 -0.6992
  227MOL0     C30526   1.905  11.413   6.704  0.5997  0.3491 -0.7446
  227MOL0     N30527   2.037  11.466   6.734 -0.2177 -0.4653  1.4975
  227MOL0     C30528   2.091  11.490   6.858  0.2411  0.6639 -0.5177
  227MOL0     C30529   2.208  11.555   6.842 -0.4148 -0.3659  0.7517
  227MOL0     C30530   2.289  11.612   6.950 -0.1991  0.2961 -0.0690
  227MOL0     C30531   2.432  11.589   6.923  0.5252 -0.1317  0.3439
  227MOL0     C30532   2.520  11.669   7.015  0.2699  0.7903  0.9975
  227MOL0     C30533   2.656  11.669   6.948  0.8204  0.5008 -0.3387
  227MOL0     O30534   2.757  11.719   7.031 -0.2409 -0.2919 -0.2979
  227MOL0     C30535   2.881  11.738   6.974  1.0077 -0.8032  0.0218
  227MOL0     C30536   2.915  11.713   6.841  0.4640 -0.5507 -0.7588
  227MOL0     C30537   3.028  11.764   6.783 -0.3869  0.1905  0.7815
  227MOL0     C30538   3.128  11.823   6.847  0.4297 -0.2794  0.5007
  227MOL0     C30539   3.252  11.861   6.787 -1.0871  0.0442  0.4096
  227MOL0     O30540   3.346  11.897   6.871  0.4550 -0.1773  0.0543
  227MOL0     C30541   3.459  11.942   6.815 -0.8664 -1.8081 -0.7534
  227MOL0     C30542   3.462  12.058   6.732 -0.7664 -0.6028 -0.1191
  227MOL0     C30543   3.577  12.126   6.696 -0.1502  0.1944  0.7046
  227MOL0     C30544   3.698  12.094   6.743  0.4128 -0.0702  0.6500
  227MOL0     O30545   3.807  12.166   6.712 -0.4832  0.9974 -0.0895
  227MOL0     C30546   3.934  12.100   6.723 -0.4286  0.6289  0.2746
  227MOL0     C30547   4.039  12.190   6.652  0.2500 -0.4414 -1.0596
  227MOL0     C30548   4.165  12.100   6.656 -0.5233  0.2755  0.1686
  227MOL0     C30549   4.274  12.183   6.589  0.3952 -0.8740 -0.3128
  227MOL0     C30550   4.398  12.092   6.595  1.3046  0.3038  0.0473
  227MOL0     C30551   4.514  12.163   6.556 -0.4190  0.4144 -0.2704
  227MOL0     C30552   4.632  12.066   6.589  0.8083  0.2054 -0.2131
  227MOL0     C30553   4.759  12.089   6.508 -0.2481 -0.0349 -0.5503
  227MOL0    Cl30554   4.869  11.956   6.535 -0.6641  0.0270  0.0267
  227MOL0     C30555   3.695  11.988   6.836 -0.0280  0.6181 -0.5553
  227MOL0     C30556   3.579  11.925   6.871  0.6691  0.1951 -0.0952
  227MOL0     O30557   3.254  11.888   6.665  0.9434  0.8566 -0.6887
  227MOL0     C30558   3.097  11.853   6.987  0.5419  0.3772  0.4359
  227MOL0     C30559   2.975  11.810   7.050  0.8265  0.5167  0.1343
  227MOL0     N30560   2.226  11.565   6.707  0.1476 -0.1575 -0.2466
  227MOL0     N30561   2.122  11.526   6.643  0.0876  0.5102 -0.7804
  227MOL0     C30562   1.165  11.053   6.693 -0.6041 -0.8473  0.3088
  227MOL0     C30563   1.047  11.043   6.622  0.3155 -0.5901  0.3141
  227MOL0     C30564   0.662  10.835   6.533  0.2518 -0.2766  0.5682
  227MOL0     C30565   0.629  10.908   6.416 -0.3138  0.2927 -0.1956
  227MOL0     C30566   0.533  10.866   6.327 -0.5473  1.2989  0.1422
  227MOL0     C30567   0.447  10.749   6.350 -0.2712  0.4296  0.9873
  227MOL0     O30568   0.354  10.727   6.254  0.2096 -0.3484 -0.1062
  227MOL0     C30569   0.264  10.618   6.266  0.0837  0.0744 -0.6378
  227MOL0     C30570   0.138  10.615   6.177  0.2042  0.0596 -0.3103
  227MOL0     C30571   0.178  10.612   6.030 -0.3780  0.6951 -0.3572
  227MOL0     C30572   0.063  10.559   5.940  0.2334  0.5295  0.3369
  227MOL0     C30573   0.113  10.502   5.810  0.5667  0.2537  0.4728
  227MOL0     C30574   0.159  10.455   5.713  0.4624 -0.0976  0.3744
  227MOL0     C30575   0.483  10.678   6.467  0.2853 -0.2608 -0.3376
  227MOL0     C30576   0.582  10.725   6.563 -0.2238 -0.0624 -0.7097
  227MOL0     C30577   0.592  10.641   6.679  0.7654  0.8987 -0.0859
  227MOL0     H30578   0.818  11.096   6.879 -0.1344 -2.1228  1.0507
  227MOL0     H30579   1.028  11.112   7.002 -0.4227  0.3079  0.3413
  227MOL0     H30580   1.392  10.984   7.026  0.3663  2.5602 -0.0387
  227MOL0     H30581   1.257  10.905   6.961 -0.2330 -0.6841  0.5704
  227MOL0     H30582   1.361  10.914   6.736 -1.1947  0.6429  1.1091
  227MOL0     H30583   1.482  10.850   6.854  1.1467  1.1706  1.2692
  227MOL0     H30584   1.576  11.069   6.877  0.7335 -1.0344  0.7768
  227MOL0     H30585   1.493  11.128   6.731  2.1992  0.2887  0.6973
  227MOL0     H30586   1.663  10.883   6.702 -0.1559 -0.5530 -3.0899
  227MOL0     H30587   1.593  10.994   6.582  2.2097  1.6390 -0.2678
  227MOL0     H30588   1.823  11.036   6.781  0.2559 -1.8493 -0.5982
  227MOL0     H30589   1.843  11.052   6.608  1.7991  0.4126  0.7253
  227MOL0     H30590   1.735  11.238   6.564  1.6042 -1.1233 -0.9801
  227MOL0     H30591   1.683  11.268   6.733  3.7037  2.4174  1.2037
  227MOL0     H30592   1.980  11.235   6.640  1.8682  1.0857  1.1889
  227MOL0     H30593   1.944  11.235   6.805 -1.2435  1.2222  0.2138
  227MOL0     H30594   1.864  11.457   6.612  1.4771  2.5697 -0.1280
  227MOL0     H30595   1.840  11.439   6.788 -0.2035  0.0781 -1.2714
  227MOL0     H30596   2.036  11.464   6.948  0.5508 -1.9512 -1.0155
  227MOL0     H30597   2.266  11.719   6.956  0.2049  0.3856 -0.0545
  227MOL0     H30598   2.263  11.565   7.045  2.4283 -1.6516 -0.2067
  227MOL0     H30599   2.462  11.484   6.935 -1.4030 -0.4922  2.5717
  227MOL0     H30600   2.451  11.615   6.818  1.1599  0.9326  0.7170
  227MOL0     H30601   2.529  11.623   7.114 -3.5871 -1.9858  0.2932
  227MOL0     H30602   2.491  11.772   7.040  0.3207  1.2342 -0.6372
  227MOL0     H30603   2.641  11.742   6.867  1.5502  0.5289 -0.4481
  227MOL0     H30604   2.698  11.577   6.908 -0.3558 -0.5374  0.7444
  227MOL0     H30605   2.850  11.663   6.769  0.5212  0.4654 -1.5427
  227MOL0     H30606   3.043  11.739   6.678 -2.1432  0.9747  0.3190
  227MOL0     H30607   3.366  12.096   6.700  0.0616  2.2869  0.5193
  227MOL0     H30608   3.567  12.211   6.628 -3.1624 -2.0450 -1.9312
  227MOL0     H30609   3.964  12.078   6.826  2.2745  0.0302 -0.5814
  227MOL0     H30610   3.927  12.002   6.675 -0.9427  0.6802  0.2361
  227MOL0     H30611   4.021  12.205   6.545 -0.7324  0.1517 -0.8295
  227MOL0     H30612   4.054  12.284   6.707  0.5001 -1.8628  1.4566
  227MOL0     H30613   4.184  12.042   6.746  0.8810 -2.9147 -1.9973
  227MOL0     H30614   4.136  12.022   6.585 -0.5793 -1.4917  2.0442
  227MOL0     H30615   4.295  12.282   6.631 -0.1548 -0.0319 -1.9331
  227MOL0     H30616   4.239  12.210   6.489 -0.8937  0.1855  0.3870
  227MOL0     H30617   4.378  12.012   6.523  2.3608  1.9423 -2.1991
  227MOL0     H30618   4.402  12.054   6.698 -1.8253 -0.4828 -0.0278
  227MOL0     H30619   4.510  12.184   6.449  1.9053  0.1780 -0.4692
  227MOL0     H30620   4.523  12.261   6.604  0.2069  1.4311 -2.3435
  227MOL0     H30621   4.599  11.969   6.551  1.1599  1.1650 -3.2342
  227MOL0     H30622   4.655  12.066   6.696  2.5146 -0.5412 -0.5393
  227MOL0     H30623   4.737  12.084   6.401  1.6047  1.6161 -1.0707
  227MOL0     H30624   4.807  12.184   6.535  2.3201 -0.8106 -2.0278
  227MOL0     H30625   3.789  11.974   6.888  0.1042  0.5792 -0.8043
  227MOL0     H30626   3.584  11.848   6.947  4.1216  1.7013  1.3989
  227MOL0     H30627   3.166  11.912   7.048  1.8100  1.0518 -1.5353
  227MOL0     H30628   2.958  11.847   7.150  2.2886 -0.3982  0.7587
  227MOL0     H30629   1.257  11.040   6.638 -1.4683 -0.7232 -1.2199
  227MOL0     H30630   1.041  11.026   6.515  2.1230 -3.0202  0.5052
  227MOL0     H30631   0.695  10.989   6.387  2.0873 -2.1666 -2.1122
  227MOL0     H30632   0.539  10.928   6.238  0.8008  3.7146  1.8079
  227MOL0     H30633   0.241  10.607   6.373 -0.7051  1.9679 -0.5639
  227MOL0     H30634   0.319  10.530   6.233 -1.5408 -0.4309 -2.1561
  227MOL0     H30635   0.077  10.703   6.197  2.1130  1.3125  0.2204
  227MOL0     H30636   0.084  10.525   6.209  2.0315 -0.3754  1.8645
  227MOL0     H30637   0.261  10.541   6.020 -0.9356 -0.0262  0.1297
  227MOL0     H30638   0.211  10.713   6.001 -0.9526  0.7060 -1.0043
  227MOL0     H30639   0.003  10.478   5.982  0.1620  0.1780 -0.4358
  227MOL0     H30640  -0.011  10.638   5.920  0.8898  1.1855  0.4578
  227MOL0     H30641   0.195  10.421   5.617 -1.8794 -0.5362 -0.4177
  227MOL0     H30642   0.428  10.587   6.487 -2.1446  1.3882  0.8375
  227MOL0     H30643   0.674  10.573   6.657 -1.2021 -2.9376  2.9648
  227MOL0     H30644   0.615  10.688   6.775 -0.9179  1.7003 -0.0372
  227MOL0     H30645   0.506  10.574   6.692  0.8863  0.2769 -2.2327
  228MOL0     O30646   6.195   7.887   1.115  0.4181 -0.0439 -0.5427
  228MOL0     C30647   6.215   7.762   1.109 -0.5113 -1.1389  0.0357
  228MOL0     O30648   6.126   7.659   1.086  0.2060 -0.1794  1.0952
  228MOL0     C30649   6.007   7.681   1.022  0.3896 -0.6691 -0.3353
  228MOL0     C30650   5.909   7.581   1.048 -0.1307  0.3118  0.5064
  228MOL0     C30651   5.777   7.593   1.009 -0.1612  0.5919 -0.1809
  228MOL0     C30652   5.741   7.701   0.926  0.9484  0.4974 -0.8129
  228MOL0     O30653   5.608   7.724   0.874 -0.3282 -0.6071  0.4158
  228MOL0     C30654   5.520   7.609   0.866 -0.1656 -0.0516 -0.8636
  228MOL0     C30655   5.394   7.632   0.780  0.0368  0.8167 -0.2832
  228MOL0     C30656   5.279   7.536   0.828  0.7982  0.3021  0.0865
  228MOL0     C30657   5.147   7.551   0.750 -1.0072 -0.1067 -0.5392
  228MOL0     C30658   5.024   7.474   0.809  0.0588  0.0576 -0.4159
  228MOL0     C30659   4.984   7.537   0.940 -0.2206  0.3600  0.7455
  228MOL0     C30660   4.850   7.483   0.995 -0.1322 -0.5512 -0.4355
  228MOL0     C30661   4.733   7.588   0.968  0.1977  0.7554  0.0567
  228MOL0     N30662   4.669   7.569   0.835 -0.7104 -0.0316  0.2092
  228MOL0     C30663   4.696   7.638   0.721 -0.4335 -0.4755  0.3689
  228MOL0     C30664   4.621   7.575   0.624 -0.1270 -0.0161 -0.2033
  228MOL0     C30665   4.609   7.626   0.480  0.0246  0.2731  0.0389
  228MOL0     C30666   4.681   7.540   0.375 -0.6481  0.0682 -0.3086
  228MOL0     C30667   4.660   7.601   0.232 -0.4753 -0.1713  0.2985
  228MOL0     C30668   4.701   7.495   0.121  0.3098 -0.6874 -0.5819
  228MOL0     O30669   4.674   7.571   0.007  0.3906  0.7247  0.0123
  228MOL0     C30670   4.616   7.489  -0.085 -0.0830 -0.3104  0.0199
  228MOL0     C30671   4.486   7.509  -0.106  0.9868 -0.4470  0.4865
  228MOL0     C30672   4.414   7.434  -0.196 -0.7385  0.4591  0.0921
  228MOL0     C30673   4.474   7.341  -0.286  0.2980 -0.5040  0.0803
  228MOL0     C30674   4.393   7.259  -0.368  0.4555 -0.2958  0.3703
  228MOL0     O30675   4.257   7.264  -0.366  0.2513  0.3237  0.7833
  228MOL0     C30676   4.205   7.174  -0.455  0.8254  0.2012 -0.1833
  228MOL0     C30677   4.182   7.039  -0.424  0.1664 -0.8819 -0.7937
  228MOL0     C30678   4.150   6.942  -0.514 -0.6149 -0.2528  0.3705
  228MOL0     C30679   4.123   6.984  -0.645 -0.0342  0.0070  0.1771
  228MOL0     O30680   4.097   6.903  -0.758  0.6103 -0.3590  0.6361
  228MOL0     C30681   4.020   6.787  -0.720  1.3008  0.6413 -0.8341
  228MOL0     C30682   3.980   6.704  -0.846 -0.3151 -1.1055  1.0001
  228MOL0     C30683   3.847   6.642  -0.827 -0.1883  0.1840 -0.6688
  228MOL0     C30684   3.813   6.550  -0.940 -0.1706 -0.4985 -0.1424
  228MOL0     C30685   3.659   6.520  -0.941 -1.0162 -1.0184 -0.8138
  228MOL0     C30686   3.636   6.390  -1.018 -1.5409 -0.0116 -0.7081
  228MOL0     C30687   3.485   6.366  -1.034 -0.3681 -0.3393 -0.1175
  228MOL0     C30688   3.419   6.259  -0.943 -0.0925  0.6534  0.3579
  228MOL0    Cl30689   3.454   6.289  -0.767 -0.5284 -0.2484  0.0626
  228MOL0     C30690   4.106   7.116  -0.675 -0.4941 -0.8793 -0.2952
  228MOL0     C30691   4.148   7.211  -0.582 -0.0849 -0.2140 -1.2846
  228MOL0     O30692   4.463   7.198  -0.448 -0.1015 -0.0256 -0.1329
  228MOL0     C30693   4.614   7.339  -0.269 -0.6502  1.0500  0.5229
  228MOL0     C30694   4.678   7.409  -0.169 -0.2766  0.3701 -0.1706
  228MOL0     N30695   4.557   7.471   0.688 -0.4230  0.0198  0.4741
  228MOL0     N30696   4.579   7.472   0.809 -0.9014 -0.4371 -0.0573
  228MOL0     C30697   5.836   7.794   0.889  1.1443 -0.6456 -0.1024
  228MOL0     C30698   5.972   7.789   0.939  0.5079 -0.4379  0.4628
  228MOL0     C30699   6.350   7.723   1.141 -0.2226  0.4145  0.0949
  228MOL0     C30700   6.393   7.609   1.075  0.4912  0.7361  0.6894
  228MOL0     C30701   6.526   7.555   1.087  0.3054  0.1489  1.2207
  228MOL0     C30702   6.620   7.612   1.173 -0.0510  0.5079 -0.7980
  228MOL0     O30703   6.753   7.558   1.193  0.2946 -0.0711 -0.7279
  228MOL0     C30704   6.852   7.622   1.261 -1.0150  0.1366 -0.5370
  228MOL0     C30705   6.993   7.576   1.202  0.8700  0.4704 -0.1907
  228MOL0     C30706   7.095   7.682   1.245  0.0523 -0.0187  0.2713
  228MOL0     C30707   7.227   7.675   1.165 -0.6303  0.2704  0.0508
  228MOL0     C30708   7.295   7.796   1.178 -0.5908  0.1569 -0.7118
  228MOL0     C30709   7.357   7.901   1.183  0.5717  0.1777 -0.7341
  228MOL0     C30710   6.574   7.725   1.248  0.2203  0.1708  0.2621
  228MOL0     C30711   6.451   7.788   1.214 -0.3876 -0.4152  0.1212
  228MOL0     C30712   6.424   7.928   1.275 -0.3949 -0.4973 -0.2419
  228MOL0     H30713   5.940   7.492   1.103 -1.2704 -1.5169 -1.6411
  228MOL0     H30714   5.701   7.518   1.031 -0.7835  1.4875  0.8249
  228MOL0     H30715   5.567   7.522   0.820  0.8195  0.9518 -1.8228
  228MOL0     H30716   5.496   7.577   0.967 -2.1391  1.1830 -0.8811
  228MOL0     H30717   5.413   7.615   0.674 -2.6237 -0.2298 -0.6800
  228MOL0     H30718   5.360   7.735   0.795 -0.0330  0.6854  0.5276
  228MOL0     H30719   5.259   7.565   0.931  3.6569 -1.7920  1.3514
  228MOL0     H30720   5.306   7.430   0.825 -0.9665 -0.1732  0.2405
  228MOL0     H30721   5.125   7.658   0.746 -1.7692 -0.2642 -0.6865
  228MOL0     H30722   5.170   7.524   0.647 -1.6580  0.7682 -0.9267
  228MOL0     H30723   4.946   7.479   0.733  0.0039 -0.8672 -0.4323
  228MOL0     H30724   5.046   7.367   0.823 -1.0010 -0.6092 -3.1939
  228MOL0     H30725   5.054   7.517   1.022 -0.3587  2.0581  1.3005
  228MOL0     H30726   4.974   7.645   0.930 -2.5668  0.0886 -0.4372
  228MOL0     H30727   4.862   7.475   1.103 -0.9373 -0.8216 -0.3584
  228MOL0     H30728   4.829   7.376   0.981  0.4809 -0.6655 -0.5116
  228MOL0     H30729   4.662   7.582   1.050 -0.4154  1.2439 -0.4294
  228MOL0     H30730   4.770   7.691   0.964 -1.1991  1.4146  2.2545
  228MOL0     H30731   4.762   7.722   0.704 -0.2825 -0.5312  0.6742
  228MOL0     H30732   4.500   7.629   0.471 -0.3211 -0.8484  2.7139
  228MOL0     H30733   4.654   7.726   0.468  0.4329  0.2491  1.1611
  228MOL0     H30734   4.787   7.548   0.402  0.1024 -1.0618 -2.5989
  228MOL0     H30735   4.648   7.436   0.381  0.0664 -0.1129  0.8553
  228MOL0     H30736   4.717   7.693   0.222  0.6671 -0.0866  5.2863
  228MOL0     H30737   4.552   7.615   0.226 -0.6506 -0.2765  2.5403
  228MOL0     H30738   4.637   7.408   0.134 -0.6447  0.3819  3.1823
  228MOL0     H30739   4.808   7.477   0.129  1.0877  3.4604  1.3323
  228MOL0     H30740   4.440   7.587  -0.046  1.9374 -0.0729  0.7499
  228MOL0     H30741   4.307   7.450  -0.195 -0.7830  0.2354 -0.7003
  228MOL0     H30742   4.206   7.008  -0.323 -3.9972 -0.1336  0.6148
  228MOL0     H30743   4.158   6.836  -0.492  1.5672 -0.9294 -2.8859
  228MOL0     H30744   4.083   6.721  -0.660 -0.5145 -0.8629 -0.4620
  228MOL0     H30745   3.944   6.823  -0.650  2.0835  1.0566 -0.1893
  228MOL0     H30746   3.972   6.776  -0.928  2.7519  0.6959  2.1380
  228MOL0     H30747   4.059   6.636  -0.880  0.1978 -0.1026  0.1053
  228MOL0     H30748   3.842   6.585  -0.734  1.1370 -2.9350 -2.3442
  228MOL0     H30749   3.776   6.723  -0.811 -0.2944 -0.5002  3.5491
  228MOL0     H30750   3.870   6.458  -0.930  0.4387 -0.3549 -1.9194
  228MOL0     H30751   3.838   6.608  -1.029 -0.2518  0.1564  0.2545
  228MOL0     H30752   3.611   6.609  -0.982  0.7147  1.0698  1.3708
  228MOL0     H30753   3.613   6.502  -0.843  0.9305  0.6337  0.4906
  228MOL0     H30754   3.681   6.395  -1.117  0.6000 -1.2774  0.1310
  228MOL0     H30755   3.680   6.306  -0.964 -2.3582 -0.3813 -0.6004
  228MOL0     H30756   3.466   6.345  -1.140 -0.0248  2.7797 -0.9112
  228MOL0     H30757   3.426   6.456  -1.015  0.7716  0.3095  0.4693
  228MOL0     H30758   3.309   6.264  -0.944 -0.1873  1.1688  3.4861
  228MOL0     H30759   3.454   6.161  -0.977 -1.2210  0.4468 -0.2977
  228MOL0     H30760   4.055   7.143  -0.768 -2.4239 -0.2980  0.8609
  228MOL0     H30761   4.133   7.318  -0.585 -1.1233 -0.2997  0.0029
  228MOL0     H30762   4.669   7.266  -0.327 -1.2473 -1.3180  2.7827
  228MOL0     H30763   4.785   7.407  -0.150 -0.3785  3.4057  1.3971
  228MOL0     H30764   5.798   7.883   0.840  1.7179  0.2561  1.0459
  228MOL0     H30765   6.061   7.849   0.926 -0.1171  0.4891  0.3707
  228MOL0     H30766   6.320   7.574   1.003 -0.4868  3.2381  0.3656
  228MOL0     H30767   6.557   7.466   1.032 -0.1088  1.1139 -0.6714
  228MOL0     H30768   6.854   7.602   1.368  0.8502  1.3458 -0.2846
  228MOL0     H30769   6.854   7.730   1.246 -2.0415  0.7970  3.2254
  228MOL0     H30770   6.994   7.576   1.092  1.6906  2.2699 -0.2311
  228MOL0     H30771   7.025   7.472   1.214  0.9348 -0.0078 -3.5620
  228MOL0     H30772   7.130   7.667   1.348  1.9680  3.6683  0.3287
  228MOL0     H30773   7.058   7.782   1.220 -1.5184 -1.5593 -4.8140
  228MOL0     H30774   7.299   7.607   1.212  0.7947  1.7576  0.1052
  228MOL0     H30775   7.205   7.650   1.061  1.0106 -0.7776 -0.0962
  228MOL0     H30776   7.416   7.990   1.187 -0.7038  1.0035  0.8927
  228MOL0     H30777   6.648   7.773   1.310  2.2445 -0.4744 -1.5063
  228MOL0     H30778   6.320   7.950   1.302  0.4157  2.8688  0.6377
  228MOL0     H30779   6.474   7.924   1.372  2.0906 -0.4478 -1.4552
  228MOL0     H30780   6.465   8.004   1.208  1.8969 -1.4691 -0.0100
  229MOL0     O30781   3.420   5.942   1.315  0.2364  0.1640 -0.1917
  229MOL0     C30782   3.426   5.828   1.354  0.5756 -0.3829 -0.4192
  229MOL0     O30783   3.534   5.747   1.348  0.1173  0.3307 -0.6466
  229MOL0     C30784   3.654   5.797   1.304 -0.1083  0.5360  0.0058
  229MOL0     C30785   3.749   5.860   1.387  0.0080 -0.8238  0.4399
  229MOL0     C30786   3.872   5.909   1.333 -0.0837 -0.2604 -0.3222
  229MOL0     C30787   3.895   5.898   1.197 -0.5783  0.4454  0.2875
  229MOL0     O30788   4.029   5.935   1.168 -0.4913  0.1650  0.0005
  229MOL0     C30789   4.085   5.870   1.055 -0.4393  0.8221  0.2761
  229MOL0     C30790   4.221   5.931   1.026 -0.0333 -1.3005 -0.1892
  229MOL0     C30791   4.329   5.891   1.118  0.9801  0.2898 -0.5652
  229MOL0     C30792   4.463   5.946   1.067  0.0129  0.6734 -0.6912
  229MOL0     C30793   4.583   5.915   1.159 -0.3283 -0.3415 -0.3615
  229MOL0     C30794   4.617   5.765   1.133 -0.4286  0.1965 -0.5054
  229MOL0     C30795   4.728   5.723   1.229  1.1767  0.9717 -0.4884
  229MOL0     C30796   4.865   5.766   1.195  0.5742 -0.0575  0.8187
  229MOL0     N30797   4.916   5.698   1.066  0.7342 -0.6655 -0.6194
  229MOL0     C30798   4.990   5.587   1.061 -0.6282 -0.3349  0.1737
  229MOL0     C30799   4.999   5.563   0.919 -0.3966 -0.7550 -0.0738
  229MOL0     C30800   5.056   5.442   0.857 -0.4745  1.0690  0.3539
  229MOL0     C30801   5.169   5.472   0.759  0.0491  0.3859  0.3896
  229MOL0     C30802   5.202   5.340   0.677 -0.4136  0.3515 -0.6024
  229MOL0     C30803   5.306   5.243   0.721  0.3752  0.4582  0.9609
  229MOL0     O30804   5.265   5.169   0.842  0.7383 -1.2683 -0.1461
  229MOL0     C30805   5.353   5.075   0.889 -0.7984  0.9021  0.0174
  229MOL0     C30806   5.312   4.996   0.999 -0.6610  0.6530 -0.4314
  229MOL0     C30807   5.407   4.904   1.055 -0.3011 -0.2599  0.0788
  229MOL0     C30808   5.535   4.882   1.010 -0.1861  0.3789  0.3076
  229MOL0     C30809   5.630   4.796   1.079 -0.6579  0.0667 -0.0818
  229MOL0     O30810   5.615   4.781   1.212  0.4830  0.1149 -0.2522
  229MOL0     C30811   5.697   4.685   1.271  0.4969 -0.6292  0.3064
  229MOL0     C30812   5.652   4.553   1.283 -0.1419 -0.6502 -0.1859
  229MOL0     C30813   5.728   4.446   1.326 -0.5872 -0.5975  0.5644
  229MOL0     C30814   5.865   4.483   1.355 -0.0132  0.3177 -0.1170
  229MOL0     O30815   5.956   4.383   1.394 -0.2272 -0.0776  0.4395
  229MOL0     C30816   5.922   4.320   1.516 -0.2799  0.1788  0.4088
  229MOL0     C30817   5.968   4.403   1.628 -0.7515 -0.5174 -0.3116
  229MOL0     C30818   5.988   4.315   1.754 -0.3079 -1.0481 -0.8964
  229MOL0     C30819   5.979   4.404   1.886 -0.3500  0.8550 -0.3588
  229MOL0     C30820   6.014   4.313   2.005  0.3152 -0.2790 -0.5438
  229MOL0     C30821   5.999   4.389   2.136 -0.1212  0.7375  0.8308
  229MOL0     C30822   6.049   4.318   2.252 -0.1699  0.4087 -0.8427
  229MOL0     C30823   6.210   4.315   2.249 -0.2741  0.1527 -0.3311
  229MOL0    Cl30824   6.278   4.478   2.254 -0.2405  0.3168 -0.0052
  229MOL0     C30825   5.907   4.612   1.356  0.5020 -0.2062 -0.3698
  229MOL0     C30826   5.830   4.721   1.311 -0.5009  0.2360  0.8823
  229MOL0     O30827   5.709   4.732   1.014  0.7230  0.1502  0.5669
  229MOL0     C30828   5.568   4.958   0.895 -0.5389  0.6979 -0.4164
  229MOL0     C30829   5.481   5.054   0.839 -0.2691  0.1493 -0.0714
  229MOL0     N30830   4.931   5.667   0.851 -0.2745 -0.4358  0.7395
  229MOL0     N30831   4.893   5.752   0.941  0.1398  0.4551  0.0807
  229MOL0     C30832   3.792   5.841   1.117  0.2256 -1.4415 -0.2988
  229MOL0     C30833   3.671   5.794   1.163  0.0817 -0.7404  0.1566
  229MOL0     C30834   3.299   5.770   1.414  0.5978 -0.0658  0.0219
  229MOL0     C30835   3.296   5.636   1.469 -0.3629 -0.1448 -0.8106
  229MOL0     C30836   3.184   5.572   1.512  0.1192 -0.2423 -0.2353
  229MOL0     C30837   3.063   5.643   1.509  0.1130  0.1009 -0.6987
  229MOL0     O30838   2.951   5.575   1.534  0.7021  0.7565 -0.6765
  229MOL0     C30839   2.894   5.607   1.667 -0.0931  1.0115 -1.0338
  229MOL0     C30840   2.754   5.558   1.680  0.2496  0.2425  0.1582
  229MOL0     C30841   2.654   5.633   1.590  0.4806 -1.5750  0.1812
  229MOL0     C30842   2.522   5.562   1.582 -0.6868 -1.0710  0.2192
  229MOL0     C30843   2.436   5.621   1.480 -0.5890 -0.1803  0.2609
  229MOL0     C30844   2.352   5.670   1.406  0.2722  0.0146  0.0832
  229MOL0     C30845   3.055   5.771   1.452  0.2222  0.3601 -0.8205
  229MOL0     C30846   3.166   5.828   1.391 -0.1084 -0.7727 -0.6218
  229MOL0     C30847   3.132   5.955   1.326  0.4386 -1.0090  0.2608
  229MOL0     H30848   3.735   5.872   1.494  1.0901 -1.9644  0.7427
  229MOL0     H30849   3.948   5.949   1.399 -0.0400 -0.5765 -0.1814
  229MOL0     H30850   4.087   5.762   1.066  2.2479  0.8013  0.2264
  229MOL0     H30851   4.012   5.892   0.976  0.7978  0.2302 -1.0768
  229MOL0     H30852   4.200   6.038   1.022  2.6190 -0.7466 -2.6232
  229MOL0     H30853   4.249   5.902   0.925  0.7467  1.8919 -1.0228
  229MOL0     H30854   4.325   5.782   1.131 -1.3386  0.3388 -0.5377
  229MOL0     H30855   4.293   5.938   1.210  2.1528  2.5598 -1.1973
  229MOL0     H30856   4.486   5.906   0.967  0.1934  1.7741 -1.1047
  229MOL0     H30857   4.466   6.055   1.057  1.0567  0.8902  1.5348
  229MOL0     H30858   4.667   5.984   1.143 -3.1110  3.0212 -1.6576
  229MOL0     H30859   4.562   5.928   1.265 -0.3266  4.9070 -0.7775
  229MOL0     H30860   4.526   5.711   1.162  0.3306  0.0217  1.7125
  229MOL0     H30861   4.641   5.756   1.027 -2.4004 -0.9213 -0.9093
  229MOL0     H30862   4.727   5.614   1.216  2.5383  1.1834 -3.1034
  229MOL0     H30863   4.712   5.738   1.336 -0.3564 -1.9859 -0.1814
  229MOL0     H30864   4.878   5.875   1.193  0.1151 -0.0134 -0.0922
  229MOL0     H30865   4.923   5.730   1.280 -1.2530 -0.5523  1.9049
  229MOL0     H30866   5.022   5.523   1.143 -0.0493 -1.6372 -1.0221
  229MOL0     H30867   5.102   5.391   0.942  2.8558  1.3315 -1.1168
  229MOL0     H30868   4.981   5.377   0.812  3.1352 -2.8459 -0.6112
  229MOL0     H30869   5.136   5.560   0.702 -0.7118  1.3826  2.2713
  229MOL0     H30870   5.260   5.511   0.807  2.8931 -1.5211 -2.9584
  229MOL0     H30871   5.227   5.362   0.573  1.8918 -0.0549 -0.2073
  229MOL0     H30872   5.116   5.273   0.673  0.6130 -1.0337 -0.3498
  229MOL0     H30873   5.394   5.308   0.735  0.1555  0.5780  1.8815
  229MOL0     H30874   5.317   5.170   0.641 -1.3547  1.0517  0.1238
  229MOL0     H30875   5.213   4.993   1.044  0.3629 -2.0314  1.9920
  229MOL0     H30876   5.368   4.846   1.139 -0.4289  0.6951  0.6885
  229MOL0     H30877   5.552   4.532   1.244  0.1672  1.4914 -2.3829
  229MOL0     H30878   5.692   4.345   1.338 -1.0678 -0.6650 -1.1200
  229MOL0     H30879   5.813   4.310   1.519 -0.3658  0.6126 -0.9202
  229MOL0     H30880   5.959   4.217   1.519  1.0138  0.5891 -0.6056
  229MOL0     H30881   6.060   4.460   1.613 -1.8280  1.4236  0.1877
  229MOL0     H30882   5.885   4.471   1.649 -1.4794 -2.2865  3.5357
  229MOL0     H30883   5.913   4.236   1.764 -0.6513 -0.6381 -0.1085
  229MOL0     H30884   6.083   4.262   1.755 -0.0407 -0.5905 -1.5987
  229MOL0     H30885   5.879   4.447   1.898  0.7087  2.6509  3.8392
  229MOL0     H30886   6.047   4.489   1.882 -1.4826  1.7923  0.0630
  229MOL0     H30887   6.120   4.296   1.986  1.1278  3.8333 -0.6407
  229MOL0     H30888   5.948   4.226   2.005  0.6947 -0.5872  0.5983
  229MOL0     H30889   6.052   4.484   2.119 -1.6324  1.5009  0.2540
  229MOL0     H30890   5.890   4.395   2.141 -0.5135 -2.6722 -0.7947
  229MOL0     H30891   6.014   4.214   2.249  3.0291 -0.7902 -0.5453
  229MOL0     H30892   6.024   4.368   2.346 -1.4772 -0.6983 -0.5662
  229MOL0     H30893   6.237   4.257   2.337  1.3147 -0.5838 -1.2550
  229MOL0     H30894   6.249   4.266   2.159  0.0398 -0.6779  0.2474
  229MOL0     H30895   6.012   4.625   1.381  0.4290 -0.7891  0.2632
  229MOL0     H30896   5.869   4.822   1.304  1.8698 -0.5525  2.0054
  229MOL0     H30897   5.670   4.965   0.858 -0.4074  0.9473 -0.0160
  229MOL0     H30898   5.523   5.118   0.761 -0.9284  1.0995  0.3370
  229MOL0     H30899   3.811   5.821   1.012 -0.9500 -1.7943 -0.4658
  229MOL0     H30900   3.595   5.757   1.096 -0.3841  2.8585 -1.5159
  229MOL0     H30901   3.392   5.586   1.472 -0.5591 -0.4669  0.4265
  229MOL0     H30902   3.175   5.468   1.543  0.0444  0.0765  0.8632
  229MOL0     H30903   2.894   5.713   1.692 -0.4114  1.2997 -2.1741
  229MOL0     H30904   2.951   5.557   1.746 -4.1784  0.0042  1.5396
  229MOL0     H30905   2.714   5.552   1.782 -1.1792  3.6142 -0.0651
  229MOL0     H30906   2.751   5.457   1.638 -2.3357  0.2901  0.0713
  229MOL0     H30907   2.695   5.625   1.488 -2.4155 -0.4573 -1.1775
  229MOL0     H30908   2.651   5.736   1.624 -0.2017 -2.1283  1.9256
  229MOL0     H30909   2.547   5.457   1.568  0.9863 -1.0450  2.4350
  229MOL0     H30910   2.460   5.572   1.672  0.1869  3.0687  0.5616
  229MOL0     H30911   2.298   5.719   1.328 -1.0566  0.6644  1.3535
  229MOL0     H30912   2.956   5.815   1.438 -0.8445 -2.0004 -1.1941
  229MOL0     H30913   3.168   6.040   1.385  5.0806 -3.1182  0.9597
  229MOL0     H30914   3.178   5.968   1.228 -1.2263 -2.2840 -0.7471
  229MOL0     H30915   3.025   5.963   1.307  0.8291  0.0514 -1.7768
  230MOL0     O30916   1.629   0.758   7.657 -0.2106 -0.0822 -0.2286
  230MOL0     C30917   1.556   0.782   7.753 -0.0830  0.6183  0.2746
  230MOL0     O30918   1.587   0.840   7.871 -0.4627 -0.0201  0.2125
  230MOL0     C30919   1.720   0.826   7.912 -0.5640  0.1837 -0.4196
  230MOL0     C30920   1.812   0.915   7.852  0.2330  0.2790  0.3849
  230MOL0     C30921   1.949   0.900   7.878  0.4250  0.5295 -0.1709
  230MOL0     C30922   2.004   0.806   7.969 -0.4783 -0.2381  0.3456
  230MOL0     O30923   2.139   0.788   8.005  0.3679 -0.1804  0.4330
  230MOL0     C30924   2.214   0.897   7.975  0.6559  1.3532  0.0093
  230MOL0     C30925   2.350   0.901   8.052 -0.1998  0.0592 -0.5322
  230MOL0     C30926   2.453   0.796   7.999 -0.1710 -0.3653  0.3046
  230MOL0     C30927   2.510   0.812   7.857  0.3736 -0.0752  0.8747
  230MOL0     C30928   2.622   0.701   7.823  0.3771 -0.6422  0.2221
  230MOL0     C30929   2.741   0.727   7.910  0.3810  0.9635  0.2187
  230MOL0     C30930   2.865   0.650   7.855 -0.3388 -0.7619 -0.1764
  230MOL0     C30931   2.985   0.697   7.934  0.2709  0.0281 -0.7122
  230MOL0     N30932   3.111   0.630   7.892  0.1376 -0.7818  0.0590
  230MOL0     C30933   3.156   0.498   7.908  0.6505  0.6166 -0.4072
  230MOL0     C30934   3.260   0.489   7.837 -0.0706  0.3067  0.2345
  230MOL0     C30935   3.327   0.361   7.818 -0.1305 -0.1611 -0.8495
  230MOL0     C30936   3.474   0.353   7.859 -0.2983  0.6796  0.1202
  230MOL0     C30937   3.492   0.312   8.001 -0.3529 -0.4572 -0.1629
  230MOL0     C30938   3.638   0.273   8.034 -0.0753 -0.1081  1.0500
  230MOL0     O30939   3.678   0.156   7.950  0.9682  0.1640 -0.5730
  230MOL0     C30940   3.804   0.103   7.979  0.8144 -0.3570 -0.1067
  230MOL0     C30941   3.897   0.083   7.875  0.7551 -0.7362 -0.3953
  230MOL0     C30942   4.032   0.047   7.893 -0.0852 -0.1635 -0.4766
  230MOL0     C30943   4.075   0.012   8.020  0.4847 -0.3285 -0.7962
  230MOL0     C30944   4.210  -0.034   8.045  0.3459  0.5865  0.6217
  230MOL0     O30945   4.236  -0.074   8.172 -0.4017 -0.2333 -0.5599
  230MOL0     C30946   4.363  -0.100   8.200  0.1128  0.2214  0.0761
  230MOL0     C30947   4.448   0.006   8.237  0.0603  0.3685  0.5365
  230MOL0     C30948   4.587  -0.014   8.268 -0.3031  1.1444 -0.5654
  230MOL0     C30949   4.638  -0.147   8.257  0.1965  0.0222 -0.0412
  230MOL0     O30950   4.766  -0.158   8.298  0.3606 -0.0140  0.7638
  230MOL0     C30951   4.839  -0.279   8.333 -0.0958 -0.6876 -0.6164
  230MOL0     C30952   4.951  -0.219   8.419 -0.8133  0.1267  0.2153
  230MOL0     C30953   5.039  -0.333   8.468  0.8039  0.5976  0.9234
  230MOL0     C30954   5.185  -0.282   8.502  0.0932  0.4513 -0.2035
  230MOL0     C30955   5.269  -0.404   8.553  0.9703 -0.9853 -0.3865
  230MOL0     C30956   5.414  -0.345   8.590 -1.0001 -0.5337  0.1318
  230MOL0     C30957   5.492  -0.458   8.668  1.2212 -0.3163 -1.0340
  230MOL0     C30958   5.634  -0.422   8.677 -0.4683  0.4893  0.2309
  230MOL0    Cl30959   5.709  -0.406   8.506 -0.4901 -0.0660  0.3286
  230MOL0     C30960   4.556  -0.257   8.209  0.6648  0.4343 -0.0011
  230MOL0     C30961   4.420  -0.229   8.180 -0.2246 -0.6884  0.1559
  230MOL0     O30962   4.291  -0.013   7.955  0.4164 -0.2135  0.1146
  230MOL0     C30963   3.991   0.028   8.129  0.5034 -0.4712  0.4111
  230MOL0     C30964   3.857   0.075   8.107  0.5965  0.4695  0.2543
  230MOL0     N30965   3.297   0.613   7.783  0.0302 -0.0973 -0.0694
  230MOL0     N30966   3.212   0.702   7.832  0.4850 -0.3859  0.0050
  230MOL0     C30967   1.911   0.732   8.035 -0.3517 -0.2392 -0.4843
  230MOL0     C30968   1.772   0.742   8.011 -0.3277 -0.5349  0.3084
  230MOL0     C30969   1.418   0.747   7.741  0.5503 -0.7081 -0.1728
  230MOL0     C30970   1.373   0.636   7.816 -0.3742  0.4884 -0.4346
  230MOL0     C30971   1.243   0.591   7.806 -0.8568  0.0870 -0.1057
  230MOL0     C30972   1.156   0.660   7.731  0.6528  0.3963  0.1038
  230MOL0     O30973   1.035   0.597   7.731  0.4444  0.4765  0.1330
  230MOL0     C30974   0.941   0.633   7.634 -0.2590  0.1679  0.1127
  230MOL0     C30975   0.806   0.579   7.674  0.0159 -0.0271 -0.8560
  230MOL0     C30976   0.738   0.635   7.803 -0.7203 -0.4264  0.9677
  230MOL0     C30977   0.594   0.675   7.770 -0.6750  0.8976 -0.3278
  230MOL0     C30978   0.540   0.701   7.904  0.7755  0.4449 -0.0676
  230MOL0     C30979   0.483   0.707   8.008  0.1081 -0.0120 -0.1666
  230MOL0     C30980   1.188   0.780   7.663  1.3146 -0.3196  0.3377
  230MOL0     C30981   1.318   0.819   7.664 -0.0258  0.7636 -0.8565
  230MOL0     C30982   1.358   0.944   7.599 -0.1409 -0.0957  0.3910
  230MOL0     H30983   1.770   0.988   7.783 -0.1035  0.3285  0.6388
  230MOL0     H30984   2.014   0.976   7.834 -0.9500  0.3371 -2.7264
  230MOL0     H30985   2.222   0.907   7.866 -1.3762 -2.1669 -0.5905
  230MOL0     H30986   2.164   0.985   8.016 -0.3087  1.1475 -0.6918
  230MOL0     H30987   2.331   0.879   8.157 -0.3450  0.1028 -0.5484
  230MOL0     H30988   2.393   1.000   8.066  0.6852 -0.3055 -0.6097
  230MOL0     H30989   2.406   0.698   8.005 -2.1252  0.4110 -0.9111
  230MOL0     H30990   2.534   0.801   8.072 -1.2184  2.8509  1.4450
  230MOL0     H30991   2.425   0.801   7.789 -0.5275 -0.0919  1.9599
  230MOL0     H30992   2.538   0.917   7.841 -0.1418  0.0886  1.0066
  230MOL0     H30993   2.588   0.597   7.834 -0.6882 -0.3436 -0.1440
  230MOL0     H30994   2.648   0.724   7.719 -1.4986  0.5037 -0.0368
  230MOL0     H30995   2.764   0.834   7.915 -3.7717  2.1240 -1.6735
  230MOL0     H30996   2.716   0.683   8.008 -0.0088  0.1182 -0.2432
  230MOL0     H30997   2.885   0.669   7.749  1.8066  1.8018  0.5683
  230MOL0     H30998   2.847   0.546   7.882 -2.4746 -0.0485  1.5134
  230MOL0     H30999   2.989   0.804   7.913 -2.5954  0.1508 -0.9198
  230MOL0     H31000   2.965   0.686   8.041  0.1684  0.9942 -0.6304
  230MOL0     H31001   3.113   0.410   7.955  3.4458  0.4831  2.2545
  230MOL0     H31002   3.267   0.278   7.856 -1.0806  0.9675  0.2062
  230MOL0     H31003   3.326   0.352   7.709 -0.2364  1.3355 -0.9870
  230MOL0     H31004   3.535   0.294   7.789  0.3327  3.0347 -1.4254
  230MOL0     H31005   3.527   0.447   7.842  0.8186  0.4381  2.0053
  230MOL0     H31006   3.438   0.219   8.024  0.5330 -1.1241 -0.6738
  230MOL0     H31007   3.475   0.392   8.074  1.8343 -1.3274  1.4427
  230MOL0     H31008   3.647   0.247   8.140  1.0133  0.4105  1.0992
  230MOL0     H31009   3.688   0.366   8.009 -2.9396  1.3629  0.3588
  230MOL0     H31010   3.859   0.125   7.782  1.2475  0.3718 -0.1185
  230MOL0     H31011   4.093   0.034   7.803 -0.1085  4.5896 -1.4268
  230MOL0     H31012   4.398   0.103   8.242 -0.3433  0.1756  0.3153
  230MOL0     H31013   4.651   0.069   8.299  1.1147 -1.0566  3.0252
  230MOL0     H31014   4.778  -0.339   8.401 -1.4535  2.3377  1.0281
  230MOL0     H31015   4.879  -0.331   8.246  0.5808  0.3115 -0.9238
  230MOL0     H31016   5.012  -0.171   8.341 -0.1188 -3.0215 -1.3235
  230MOL0     H31017   4.917  -0.159   8.504 -1.6305 -1.0869  0.7570
  230MOL0     H31018   4.981  -0.374   8.551 -1.0192  2.5119  0.6720
  230MOL0     H31019   5.037  -0.415   8.396 -2.9335  0.2181  1.2879
  230MOL0     H31020   5.189  -0.196   8.569  2.1061  2.4883 -2.7109
  230MOL0     H31021   5.236  -0.241   8.414 -0.5037  1.2746 -0.1720
  230MOL0     H31022   5.267  -0.484   8.478 -0.3567 -0.5141 -0.8870
  230MOL0     H31023   5.220  -0.444   8.642  0.4543 -0.0742 -0.2517
  230MOL0     H31024   5.464  -0.332   8.494  2.7963 -2.4563  1.6461
  230MOL0     H31025   5.392  -0.249   8.639  0.5070 -0.1731  0.1479
  230MOL0     H31026   5.476  -0.558   8.626  1.1253 -1.0634  0.6974
  230MOL0     H31027   5.450  -0.451   8.769  2.4898  1.4259 -0.5862
  230MOL0     H31028   5.644  -0.329   8.733 -0.1258 -1.0392  2.8785
  230MOL0     H31029   5.690  -0.496   8.736 -1.0754 -0.9843 -0.9687
  230MOL0     H31030   4.591  -0.358   8.187  1.8879  0.1860  2.5936
  230MOL0     H31031   4.365  -0.311   8.135 -2.1868 -0.0086  1.1945
  230MOL0     H31032   4.020  -0.007   8.227  0.6948 -1.8726 -0.1200
  230MOL0     H31033   3.797   0.081   8.197  1.6148 -0.7318  1.0377
  230MOL0     H31034   1.940   0.669   8.119  2.3618  0.2190 -0.9789
  230MOL0     H31035   1.719   0.681   8.083 -0.6248 -1.5221 -0.7190
  230MOL0     H31036   1.449   0.583   7.874 -0.0341  2.4965  1.0569
  230MOL0     H31037   1.221   0.512   7.877  2.5067 -0.3526  0.6258
  230MOL0     H31038   0.952   0.587   7.535 -1.4722  1.4941 -0.6828
  230MOL0     H31039   0.931   0.740   7.613 -4.4955 -0.2143 -0.8961
  230MOL0     H31040   0.804   0.470   7.686 -1.5210  0.0624 -0.0452
  230MOL0     H31041   0.742   0.597   7.587 -0.9010  0.4895 -0.0943
  230MOL0     H31042   0.798   0.723   7.827  1.7470 -1.5826 -0.5694
  230MOL0     H31043   0.758   0.558   7.878 -0.6809 -1.6995 -0.3029
  230MOL0     H31044   0.580   0.761   7.704 -2.9152 -0.4309 -1.7112
  230MOL0     H31045   0.538   0.594   7.722  0.2337 -1.0747  1.7532
  230MOL0     H31046   0.429   0.714   8.100  0.8524  0.1764  0.2558
  230MOL0     H31047   1.116   0.842   7.610  1.6022 -0.7996 -0.6526
  230MOL0     H31048   1.366   0.941   7.490 -2.3053  0.9490  0.1501
  230MOL0     H31049   1.287   1.022   7.627 -0.8364 -0.1594 -1.1219
  230MOL0     H31050   1.455   0.968   7.645 -1.0567 -0.4047  2.5878
  231MOL0     O31051   2.936   3.641   4.665  0.1622 -0.8792  0.0674
  231MOL0     C31052   2.923   3.750   4.722  0.5450 -1.0311 -0.3282
  231MOL0     O31053   3.002   3.860   4.704 -0.3342  0.5586 -0.8075
  231MOL0     C31054   3.132   3.843   4.646 -0.0801 -0.7679 -0.3884
  231MOL0     C31055   3.244   3.823   4.732 -0.3945  0.1640 -0.2762
  231MOL0     C31056   3.376   3.829   4.676 -0.0978  0.6751 -0.5712
  231MOL0     C31057   3.389   3.845   4.539 -0.9078  0.0143  0.0345
  231MOL0     O31058   3.517   3.857   4.482 -0.4790  0.4484 -0.4922
  231MOL0     C31059   3.620   3.921   4.554 -0.5743  0.4199  0.4351
  231MOL0     C31060   3.714   4.000   4.458 -0.4572  0.2324  0.1352
  231MOL0     C31061   3.843   4.039   4.535 -0.1678 -0.4553  0.3853
  231MOL0     C31062   3.935   4.118   4.453 -0.0326 -0.7068  0.0705
  231MOL0     C31063   4.063   4.159   4.531  0.8169 -0.9126 -0.2649
  231MOL0     C31064   4.149   4.266   4.485 -0.8288  0.0121  0.4467
  231MOL0     C31065   4.288   4.285   4.547  0.4032  0.4750  0.3409
  231MOL0     C31066   4.355   4.400   4.477 -0.3859 -0.0997 -0.7697
  231MOL0     N31067   4.485   4.428   4.546 -0.3595 -0.5937  0.1434
  231MOL0     C31068   4.584   4.340   4.558  0.4310 -0.0998  0.1175
  231MOL0     C31069   4.701   4.419   4.585  0.0416 -0.3819  0.6096
  231MOL0     C31070   4.837   4.347   4.600 -0.3058 -0.4263 -0.0886
  231MOL0     C31071   4.954   4.442   4.605  1.2640  0.2209 -0.2151
  231MOL0     C31072   4.976   4.512   4.465  0.2395  0.4404 -1.0119
  231MOL0     C31073   5.115   4.582   4.449  1.0332 -0.3702 -0.2122
  231MOL0     O31074   5.223   4.526   4.519  0.3172 -0.3560 -0.5362
  231MOL0     C31075   5.355   4.561   4.475  0.3172 -0.1164  0.5947
  231MOL0     C31076   5.389   4.660   4.382 -0.1260 -0.9191  0.4128
  231MOL0     C31077   5.518   4.674   4.330 -0.6480 -0.1284  0.8999
  231MOL0     C31078   5.627   4.593   4.379  0.4299  0.2747 -0.2496
  231MOL0     C31079   5.758   4.573   4.314 -0.1688 -0.4703  0.6090
  231MOL0     O31080   5.866   4.548   4.398 -0.1486 -0.0224 -0.1466
  231MOL0     C31081   5.986   4.509   4.360 -0.5238  0.0418 -0.2377
  231MOL0     C31082   6.082   4.482   4.465  0.5462 -0.3899 -0.5135
  231MOL0     C31083   6.198   4.411   4.451 -0.2194 -0.2892  0.6053
  231MOL0     C31084   6.229   4.366   4.325 -0.5782  0.1638  0.3207
  231MOL0     O31085   6.340   4.281   4.305 -0.5401  0.3550 -0.1587
  231MOL0     C31086   6.465   4.360   4.289  1.1223  0.5288  1.0193
  231MOL0     C31087   6.487   4.431   4.162  0.4035 -0.3041  0.1284
  231MOL0     C31088   6.497   4.345   4.031  0.1895  0.2182 -0.1756
  231MOL0     C31089   6.635   4.287   4.005 -0.9097 -0.2593  0.4372
  231MOL0     C31090   6.643   4.226   3.864  0.6456 -0.7773 -0.1813
  231MOL0     C31091   6.793   4.187   3.856  0.1381  0.1334 -1.1128
  231MOL0     C31092   6.846   4.153   3.718  0.6681 -0.2849  0.2998
  231MOL0     C31093   6.991   4.130   3.715 -0.9187 -0.4155  0.5071
  231MOL0    Cl31094   7.030   3.983   3.805  0.0669 -0.0953  0.6854
  231MOL0     C31095   6.153   4.410   4.219  0.0891 -0.4309  0.0665
  231MOL0     C31096   6.031   4.480   4.233  0.0838  0.4302  1.4347
  231MOL0     O31097   5.756   4.582   4.189  0.2693 -0.3725  0.2896
  231MOL0     C31098   5.589   4.504   4.482  0.2144 -0.4429  0.6338
  231MOL0     C31099   5.461   4.485   4.524  0.1120 -0.1557  0.3400
  231MOL0     N31100   4.661   4.550   4.582 -0.5153  0.9306 -0.1767
  231MOL0     N31101   4.534   4.557   4.560 -0.0891  0.0530  0.5303
  231MOL0     C31102   3.282   3.862   4.457  0.5697  0.2548 -0.8256
  231MOL0     C31103   3.155   3.866   4.508 -0.1668  0.3717  0.7915
  231MOL0     C31104   2.797   3.773   4.800  0.3248  0.1860  0.1521
  231MOL0     C31105   2.747   3.906   4.825  0.0674  0.1575  0.0120
  231MOL0     C31106   2.621   3.931   4.880  0.1775 -0.6247  0.2703
  231MOL0     C31107   2.539   3.833   4.934 -0.0195  0.7170 -0.0290
  231MOL0     O31108   2.422   3.862   4.995 -0.4592 -0.1454 -0.3381
  231MOL0     C31109   2.338   3.755   5.020  0.7915  0.5336  0.8223
  231MOL0     C31110   2.199   3.811   5.058  0.7250 -0.2018  0.8024
  231MOL0     C31111   2.200   3.875   5.202 -0.4987  0.2833  0.4316
  231MOL0     C31112   2.068   3.950   5.234 -0.1885  0.3353  0.7112
  231MOL0     C31113   1.946   3.866   5.228  0.3445  0.9044  0.4432
  231MOL0     C31114   1.847   3.791   5.246 -0.0179  0.0142  0.1787
  231MOL0     C31115   2.591   3.699   4.918  0.1346  0.8207  0.1533
  231MOL0     C31116   2.717   3.668   4.857 -0.0188  0.6261  0.0428
  231MOL0     C31117   2.757   3.519   4.862 -0.2309  1.3533  0.1160
  231MOL0     H31118   3.236   3.797   4.837 -2.0442  2.4214  0.2275
  231MOL0     H31119   3.461   3.815   4.743 -0.5184  0.7281 -0.0228
  231MOL0     H31120   3.580   3.984   4.633  1.5063 -0.6681  2.4638
  231MOL0     H31121   3.685   3.852   4.607  0.1628  1.7895  1.3685
  231MOL0     H31122   3.653   4.084   4.422 -3.5435 -1.6691  0.5930
  231MOL0     H31123   3.741   3.936   4.374 -2.7799 -2.7715  1.5081
  231MOL0     H31124   3.887   3.953   4.586  1.8586 -0.3025 -1.0289
  231MOL0     H31125   3.814   4.110   4.613  1.8124  2.9633 -1.7852
  231MOL0     H31126   3.961   4.067   4.359  1.0421  0.6328 -0.3882
  231MOL0     H31127   3.884   4.210   4.424 -1.4856 -1.0920  1.2662
  231MOL0     H31128   4.029   4.196   4.628  1.3345  0.3628 -0.5456
  231MOL0     H31129   4.121   4.067   4.541  2.5808  0.0707 -0.8311
  231MOL0     H31130   4.170   4.226   4.385 -1.1722  1.4825 -0.2329
  231MOL0     H31131   4.096   4.361   4.474  1.2645  0.9868 -2.7365
  231MOL0     H31132   4.345   4.193   4.531 -1.3338 -0.9106  1.6824
  231MOL0     H31133   4.279   4.307   4.654 -2.3863 -0.0359  0.2880
  231MOL0     H31134   4.377   4.381   4.371  1.1143  0.0150 -0.5066
  231MOL0     H31135   4.297   4.493   4.473 -0.8496 -0.3542 -0.0143
  231MOL0     H31136   4.590   4.234   4.535  0.1225 -0.0177 -0.3597
  231MOL0     H31137   4.841   4.305   4.701  0.1921 -0.0333  0.0592
  231MOL0     H31138   4.859   4.267   4.527 -1.0241 -1.4281  0.7683
  231MOL0     H31139   4.937   4.517   4.682 -0.0899  0.7586 -1.0004
  231MOL0     H31140   5.044   4.388   4.638  2.4468  1.8368 -0.6608
  231MOL0     H31141   4.899   4.584   4.435 -0.4864 -0.5651 -1.5985
  231MOL0     H31142   4.975   4.433   4.389 -1.7223  1.6063 -2.2805
  231MOL0     H31143   5.113   4.691   4.462 -0.5908 -0.3471 -0.3983
  231MOL0     H31144   5.141   4.575   4.343  0.0712  4.0929 -0.9540
  231MOL0     H31145   5.314   4.724   4.336 -1.2245 -3.6959 -2.0485
  231MOL0     H31146   5.532   4.739   4.245  4.2738 -1.0511  0.6809
  231MOL0     H31147   6.059   4.494   4.571  1.0224  0.2590 -0.4816
  231MOL0     H31148   6.253   4.369   4.534  0.4508 -3.4565 -1.2542
  231MOL0     H31149   6.456   4.433   4.369 -3.4307  2.4944 -0.9663
  231MOL0     H31150   6.548   4.289   4.301 -0.1656 -1.4826 -1.0913
  231MOL0     H31151   6.406   4.502   4.144  0.3579  0.3359  2.4943
  231MOL0     H31152   6.581   4.484   4.175  0.1573  0.0489  0.4933
  231MOL0     H31153   6.416   4.273   4.038  0.1179  0.2698 -0.4418
  231MOL0     H31154   6.477   4.413   3.947  0.4099 -0.9917 -1.2535
  231MOL0     H31155   6.648   4.206   4.077 -1.4992 -1.9947 -1.2988
  231MOL0     H31156   6.703   4.373   4.005 -2.3583  0.9552 -1.5266
  231MOL0     H31157   6.618   4.299   3.787  1.5297  1.9472  1.9609
  231MOL0     H31158   6.578   4.138   3.860 -0.6788  0.2417 -2.2394
  231MOL0     H31159   6.859   4.272   3.875  1.5826 -0.7603 -1.9487
  231MOL0     H31160   6.808   4.100   3.920  0.9131 -3.1020 -5.2371
  231MOL0     H31161   6.821   4.234   3.649 -1.3718 -0.9220  0.2372
  231MOL0     H31162   6.795   4.064   3.681  0.5429  0.4102 -1.2500
  231MOL0     H31163   7.008   4.116   3.607 -0.2562 -1.9149  0.7767
  231MOL0     H31164   7.042   4.220   3.751 -1.8721 -0.5771  2.3384
  231MOL0     H31165   6.169   4.373   4.118 -0.4258 -0.0730 -0.1448
  231MOL0     H31166   5.973   4.493   4.142 -1.7337 -1.4104  2.2656
  231MOL0     H31167   5.660   4.437   4.527  1.0792 -0.2984 -0.4671
  231MOL0     H31168   5.443   4.406   4.596 -4.6743 -1.8149 -2.1845
  231MOL0     H31169   3.303   3.869   4.351  0.6828 -3.0816 -1.1501
  231MOL0     H31170   3.065   3.891   4.453 -0.4761 -1.0036  0.6359
  231MOL0     H31171   2.803   3.986   4.778 -0.8924 -1.0696 -3.6125
  231MOL0     H31172   2.595   4.035   4.897 -2.6047 -0.8835 -1.6074
  231MOL0     H31173   2.372   3.686   5.098  1.3045 -0.9330 -0.6418
  231MOL0     H31174   2.321   3.699   4.928  0.0054  1.9740  0.0455
  231MOL0     H31175   2.128   3.728   5.059  0.4035  0.0360  3.1403
  231MOL0     H31176   2.159   3.893   4.998  0.6420  2.4599  4.1669
  231MOL0     H31177   2.274   3.956   5.213 -1.0540  0.5179  2.7629
  231MOL0     H31178   2.214   3.789   5.267  2.4279 -0.6877 -1.2807
  231MOL0     H31179   2.077   3.998   5.332  2.8808 -0.3828  0.8832
  231MOL0     H31180   2.045   4.034   5.167  1.6242 -0.2909 -0.7630
  231MOL0     H31181   1.767   3.723   5.267 -0.7243  1.0711  0.9939
  231MOL0     H31182   2.538   3.608   4.944  2.5439 -0.3877  1.2343
  231MOL0     H31183   2.864   3.501   4.863 -0.5751 -0.9752  0.2537
  231MOL0     H31184   2.714   3.461   4.944  1.3654 -1.2807 -0.7873
  231MOL0     H31185   2.724   3.470   4.770  1.7391 -0.6994  0.4268
  232MOL0     O31186   9.381  10.489  11.045  0.5959 -0.2452  0.1564
  232MOL0     C31187   9.375  10.367  11.049 -0.0049  0.6169  0.6721
  232MOL0     O31188   9.271  10.293  11.000  0.1624  0.0572  0.4008
  232MOL0     C31189   9.153  10.342  10.939 -1.0410 -1.0496  0.3528
  232MOL0     C31190   9.106  10.475  10.937 -0.3229 -0.5667  0.3149
  232MOL0     C31191   8.986  10.522  10.877  0.3647 -0.0978  0.5227
  232MOL0     C31192   8.919  10.429  10.799  0.0586  0.3000 -0.2815
  232MOL0     O31193   8.801  10.476  10.738  0.1228 -0.2399  0.3085
  232MOL0     C31194   8.691  10.387  10.701 -0.7547  0.3519 -0.3616
  232MOL0     C31195   8.590  10.478  10.637  0.3695  0.1115  0.3625
  232MOL0     C31196   8.461  10.399  10.592 -0.4523  0.5443  0.8729
  232MOL0     C31197   8.482  10.279  10.490  0.5397 -0.1982 -0.7022
  232MOL0     C31198   8.355  10.183  10.477 -0.2928 -0.5622 -0.0074
  232MOL0     C31199   8.249  10.235  10.375  0.3458  0.5126  0.2108
  232MOL0     C31200   8.133  10.131  10.353 -0.3545  0.2942 -0.4298
  232MOL0     C31201   8.058  10.089  10.480 -1.3482 -0.0492 -0.0924
  232MOL0     N31202   7.985  10.194  10.538 -0.1452 -0.2156 -0.5195
  232MOL0     C31203   7.885  10.260  10.470 -0.4649 -0.0149  0.1201
  232MOL0     C31204   7.818  10.330  10.569 -0.1688 -0.3936  0.1122
  232MOL0     C31205   7.690  10.389  10.546 -0.5094  0.1151 -0.0953
  232MOL0     C31206   7.629  10.483  10.651  0.3808 -0.3619 -0.3586
  232MOL0     C31207   7.679  10.625  10.649  0.1834 -0.5968  0.5681
  232MOL0     C31208   7.821  10.637  10.690 -0.1016 -0.3205 -0.0170
  232MOL0     O31209   7.864  10.769  10.704 -0.0471 -0.4422  0.2855
  232MOL0     C31210   7.995  10.783  10.722  0.0590 -1.0807  0.2485
  232MOL0     C31211   8.041  10.917  10.697 -1.0630  0.6644 -0.7113
  232MOL0     C31212   8.177  10.954  10.725  0.5109  0.0614  1.3065
  232MOL0     C31213   8.272  10.854  10.749  0.2205 -0.5210 -0.3001
  232MOL0     C31214   8.412  10.903  10.779 -0.1903  0.2704 -0.1043
  232MOL0     O31215   8.439  11.029  10.780 -0.1038 -0.5429  0.5084
  232MOL0     C31216   8.561  11.073  10.753  0.9241 -0.2790 -0.2470
  232MOL0     C31217   8.599  11.086  10.617  0.4438  0.4435  0.3065
  232MOL0     C31218   8.733  11.130  10.594  0.7445 -0.9182 -0.0812
  232MOL0     C31219   8.827  11.149  10.696  0.2337  0.2440 -0.6762
  232MOL0     O31220   8.946  11.204  10.674 -0.1539 -0.8158  0.8030
  232MOL0     C31221   9.023  11.172  10.556 -0.3034 -0.8565 -1.1471
  232MOL0     C31222   9.132  11.275  10.566 -0.1620 -0.0400 -0.6397
  232MOL0     C31223   9.235  11.244  10.675  0.0477  0.0436  0.3680
  232MOL0     C31224   9.342  11.350  10.678 -0.4310 -0.6831 -0.5138
  232MOL0     C31225   9.447  11.324  10.783  0.3188 -0.0636 -0.9158
  232MOL0     C31226   9.576  11.239  10.748 -0.2367  0.2951  0.7440
  232MOL0     C31227   9.670  11.316  10.653  0.4986  0.1842  0.3593
  232MOL0     C31228   9.804  11.246  10.631 -0.1466 -0.5746 -0.3948
  232MOL0    Cl31229   9.886  11.191  10.789  0.3401 -0.3931  0.1184
  232MOL0     C31230   8.778  11.149  10.827 -0.1194 -0.4131  0.2606
  232MOL0     C31231   8.647  11.107  10.857  0.4444 -0.3951  0.1037
  232MOL0     O31232   8.496  10.814  10.786  0.4250  0.0275  0.6194
  232MOL0     C31233   8.225  10.721  10.773 -0.4690  0.0752  0.3881
  232MOL0     C31234   8.088  10.684  10.748  0.8380 -0.2664 -0.4732
  232MOL0     N31235   7.877  10.304  10.693 -0.7460 -0.1558  0.4094
  232MOL0     N31236   7.977  10.222  10.671  0.2323 -0.6113  1.0806
  232MOL0     C31237   8.965  10.294  10.790  0.3667  0.1917 -0.2810
  232MOL0     C31238   9.078  10.254  10.861 -0.1919 -0.6558 -0.1133
  232MOL0     C31239   9.490  10.309  11.121 -0.3541 -0.1345  0.1474
  232MOL0     C31240   9.622  10.345  11.096  0.4045  0.6782 -0.5373
  232MOL0     C31241   9.729  10.276  11.157 -0.3250 -0.0862  0.1725
  232MOL0     C31242   9.701  10.164  11.234  0.0263 -0.4296  0.7136
  232MOL0     O31243   9.804  10.094  11.285  0.5194  0.2455  0.1161
  232MOL0     C31244   9.865   9.999  11.204  0.5164  0.0439  0.8081
  232MOL0     C31245   9.819   9.855  11.231  0.3086  0.2027 -0.7342
  232MOL0     C31246   9.835   9.811  11.379 -0.5287 -0.0538  0.2846
  232MOL0     C31247   9.982   9.806  11.428 -0.2564  0.4282 -0.0697
  232MOL0     C31248  10.005   9.771  11.561  0.9794 -0.4922  0.6286
  232MOL0     C31249  10.008   9.745  11.675  0.0966 -1.2488 -0.0100
  232MOL0     C31250   9.564  10.129  11.261  0.4458 -0.6639 -0.1641
  232MOL0     C31251   9.467  10.217  11.217  0.2222  1.2600  0.4260
  232MOL0     C31252   9.331  10.186  11.279  0.0281  0.4674  0.3704
  232MOL0     H31253   9.154  10.548  11.001 -0.2988 -0.4813  0.2004
  232MOL0     H31254   8.943  10.621  10.887 -0.3495 -0.1987 -1.2244
  232MOL0     H31255   8.726  10.308  10.633  2.0481 -0.3653  1.7221
  232MOL0     H31256   8.637  10.350  10.788  3.0262  1.4574  2.7605
  232MOL0     H31257   8.635  10.528  10.551 -0.6144  0.6456  0.1388
  232MOL0     H31258   8.560  10.556  10.707  1.8346  0.9656  0.0809
  232MOL0     H31259   8.399  10.472  10.539  0.6023 -0.0902 -1.3583
  232MOL0     H31260   8.403  10.353  10.672 -1.4286 -1.0920 -0.7161
  232MOL0     H31261   8.507  10.323  10.393  0.0460 -2.8149 -2.1102
  232MOL0     H31262   8.570  10.219  10.510  0.9574  0.9478  1.1257
  232MOL0     H31263   8.379  10.079  10.452 -0.0756 -0.3734 -0.6146
  232MOL0     H31264   8.312  10.187  10.577 -0.0565 -1.8648  0.1526
  232MOL0     H31265   8.218  10.331  10.418 -2.2464 -1.2455  2.6488
  232MOL0     H31266   8.293  10.254  10.277 -0.4860  1.1823 -0.0433
  232MOL0     H31267   8.192  10.046  10.318  0.0845 -0.3024  1.5982
  232MOL0     H31268   8.071  10.166  10.270  0.6001 -2.2330 -2.3297
  232MOL0     H31269   7.991  10.007  10.454  1.1337 -1.3566 -2.9900
  232MOL0     H31270   8.134  10.048  10.548 -1.8232 -0.5336  0.1531
  232MOL0     H31271   7.858  10.233  10.369  3.3920 -0.9940 -0.7711
  232MOL0     H31272   7.690  10.441  10.450 -1.4642 -0.6598 -0.5228
  232MOL0     H31273   7.621  10.309  10.519 -0.0723 -0.3827  0.2243
  232MOL0     H31274   7.520  10.479  10.636  0.5319  0.0596 -1.7855
  232MOL0     H31275   7.654  10.442  10.749  2.8689  1.8698  0.0478
  232MOL0     H31276   7.609  10.685  10.707 -0.5648 -1.5002  0.6212
  232MOL0     H31277   7.662  10.657  10.546 -1.5953 -0.1019  0.9854
  232MOL0     H31278   7.887  10.581  10.623 -0.0911  1.7319 -1.8670
  232MOL0     H31279   7.831  10.588  10.787  0.2171 -0.3463 -0.0620
  232MOL0     H31280   7.972  11.001  10.700  0.1670  1.7266 -1.1746
  232MOL0     H31281   8.208  11.058  10.718 -1.0136  0.4189 -1.4008
  232MOL0     H31282   8.532  11.055  10.538 -0.4127 -0.7038  1.4251
  232MOL0     H31283   8.753  11.158  10.491 -0.8111 -0.7707 -0.3651
  232MOL0     H31284   9.062  11.070  10.562  0.2190 -0.6690 -1.3594
  232MOL0     H31285   8.956  11.178  10.470 -2.4511 -0.2793  0.4737
  232MOL0     H31286   9.174  11.258  10.467  0.9498 -1.0546 -0.0304
  232MOL0     H31287   9.091  11.376  10.573  2.1471  1.1616 -2.6323
  232MOL0     H31288   9.181  11.235  10.769 -1.2706 -0.0179 -0.3737
  232MOL0     H31289   9.281  11.148  10.650 -0.9982 -0.0361 -1.4264
  232MOL0     H31290   9.283  11.439  10.700 -1.5185 -1.0425 -1.8243
  232MOL0     H31291   9.388  11.362  10.580  2.6861  1.3170  0.9987
  232MOL0     H31292   9.394  11.274  10.865  0.8182 -0.0233 -0.5638
  232MOL0     H31293   9.471  11.423  10.822 -0.3858 -0.5620  0.8856
  232MOL0     H31294   9.631  11.214  10.840 -0.0016 -0.0871  0.5032
  232MOL0     H31295   9.551  11.144  10.700 -0.2831  0.9353 -0.5362
  232MOL0     H31296   9.691  11.420  10.677  3.3440 -0.1473 -0.2704
  232MOL0     H31297   9.628  11.307  10.552  0.0082  0.4510  0.5394
  232MOL0     H31298   9.789  11.157  10.569  3.4670 -0.6287 -1.4166
  232MOL0     H31299   9.872  11.313  10.579 -0.4149 -0.5133 -0.6704
  232MOL0     H31300   8.841  11.185  10.908 -2.1291  1.4656  1.0959
  232MOL0     H31301   8.621  11.113  10.962  1.9626 -1.5090  0.5661
  232MOL0     H31302   8.298  10.641  10.785  0.3620  0.5456 -1.2047
  232MOL0     H31303   8.060  10.580  10.758  0.4593 -0.0300  1.2348
  232MOL0     H31304   8.904  10.215  10.746 -1.0324  0.6092  0.8431
  232MOL0     H31305   9.112  10.152  10.848 -0.0032 -0.3688 -2.2887
  232MOL0     H31306   9.644  10.412  11.014 -1.2070  2.5773  0.4932
  232MOL0     H31307   9.829  10.302  11.124 -0.7609  0.4768 -0.7437
  232MOL0     H31308   9.973  10.014  11.210  0.4740 -0.0462  2.0172
  232MOL0     H31309   9.847  10.013  11.097  0.8142 -1.9217  0.4549
  232MOL0     H31310   9.877   9.791  11.163 -1.4358 -0.6190 -1.5001
  232MOL0     H31311   9.712   9.844  11.209 -0.1812 -0.5229  1.7142
  232MOL0     H31312   9.789   9.714  11.402 -2.1783  0.3847 -0.9535
  232MOL0     H31313   9.781   9.880  11.445 -1.4428 -0.0556 -0.4320
  232MOL0     H31314  10.044   9.727  11.384  0.6244 -0.2897  2.3269
  232MOL0     H31315  10.030   9.901  11.404  0.1859  0.0181 -0.8443
  232MOL0     H31316  10.018   9.729  11.780  2.4296  2.7335  0.6012
  232MOL0     H31317   9.542  10.042  11.323  2.7410 -1.2551 -0.0698
  232MOL0     H31318   9.241  10.196  11.218  1.1750  1.4419 -1.2244
  232MOL0     H31319   9.327  10.078  11.291 -0.3430  0.3533 -0.7154
  232MOL0     H31320   9.300  10.228  11.376  0.2953  0.5129  0.4373
  233MOL0     O31321   8.297   2.497   8.110  0.7738 -0.3052  0.2684
  233MOL0     C31322   8.223   2.432   8.187 -0.4747  0.3278 -0.2674
  233MOL0     O31323   8.264   2.394   8.309 -0.6097  0.1839  0.2672
  233MOL0     C31324   8.379   2.448   8.359 -0.0013  0.6587  0.0258
  233MOL0     C31325   8.366   2.568   8.421 -0.1513  0.3609 -0.0922
  233MOL0     C31326   8.478   2.632   8.483 -0.9461  0.2009  0.3104
  233MOL0     C31327   8.593   2.559   8.498 -0.4339 -1.0350 -0.0721
  233MOL0     O31328   8.698   2.622   8.562  0.5741 -0.0057 -0.4349
  233MOL0     C31329   8.820   2.562   8.596 -0.3723  0.0689 -0.5813
  233MOL0     C31330   8.819   2.520   8.748 -0.2596  0.6915 -1.0500
  233MOL0     C31331   8.954   2.463   8.795 -0.0049  0.3902  0.1409
  233MOL0     C31332   9.091   2.523   8.753  0.2134  0.6919 -0.0994
  233MOL0     C31333   9.201   2.469   8.847  0.9805 -0.0597  0.0779
  233MOL0     C31334   9.337   2.482   8.792  0.5460  0.2116 -0.0462
  233MOL0     C31335   9.456   2.420   8.881 -0.1309  0.3081 -0.8457
  233MOL0     C31336   9.493   2.495   9.000 -0.6574 -0.7263  0.1060
  233MOL0     N31337   9.598   2.419   9.071  0.1883  0.3505  0.4470
  233MOL0     C31338   9.724   2.461   9.104  0.1960 -1.0140 -0.7878
  233MOL0     C31339   9.756   2.377   9.205 -0.3101 -0.6486 -0.2351
  233MOL0     C31340   9.872   2.398   9.296 -0.8410  0.4570  0.2126
  233MOL0     C31341  10.011   2.403   9.229  1.1687  0.3142 -0.7236
  233MOL0     C31342  10.129   2.402   9.330 -0.4965  0.5209 -0.5433
  233MOL0     C31343  10.262   2.368   9.251 -0.6457 -0.5147 -0.7820
  233MOL0     O31344  10.377   2.403   9.335  0.6256 -0.8435  0.2259
  233MOL0     C31345  10.506   2.354   9.309  0.2154  0.3741 -0.3267
  233MOL0     C31346  10.531   2.309   9.174  0.3046  0.0169 -0.3479
  233MOL0     C31347  10.650   2.255   9.135  0.3284  0.1249 -0.7698
  233MOL0     C31348  10.752   2.238   9.230  0.2654  0.3210  0.2419
  233MOL0     C31349  10.882   2.177   9.184 -0.1830  0.4412 -0.0009
  233MOL0     O31350  10.893   2.160   9.048  0.3421  0.1038  0.1314
  233MOL0     C31351  11.006   2.084   8.998  0.4496  0.1679 -0.0924
  233MOL0     C31352  11.028   1.949   9.038  0.9253  0.1063 -0.4932
  233MOL0     C31353  11.140   1.882   8.994 -0.8373 -0.0879 -0.0199
  233MOL0     C31354  11.233   1.952   8.911  0.3847  0.4096  0.8825
  233MOL0     O31355  11.353   1.883   8.875  0.2945 -0.0417  0.2288
  233MOL0     C31356  11.461   1.958   8.818  0.1522 -0.6608 -0.0664
  233MOL0     C31357  11.573   1.853   8.791 -0.9885 -0.6680 -0.2861
  233MOL0     C31358  11.699   1.905   8.718  0.7494 -0.0503 -0.7219
  233MOL0     C31359  11.802   1.970   8.808 -0.8199  0.1064  0.1085
  233MOL0     C31360  11.936   1.945   8.746  0.4509  0.0874 -0.3297
  233MOL0     C31361  12.057   1.980   8.850  0.5026 -1.2763  0.1402
  233MOL0     C31362  12.199   1.933   8.804 -0.2517  0.8913  0.6456
  233MOL0     C31363  12.290   2.048   8.762 -0.0665  0.1248  0.1559
  233MOL0    Cl31364  12.443   1.991   8.705  0.0382 -0.0497  0.2378
  233MOL0     C31365  11.202   2.083   8.865  0.4382 -0.5141  0.2586
  233MOL0     C31366  11.086   2.148   8.908 -0.3163  0.6083 -0.5469
  233MOL0     O31367  10.972   2.156   9.269  0.3900 -0.3634  0.4214
  233MOL0     C31368  10.734   2.286   9.363  1.1224 -1.2128  0.4799
  233MOL0     C31369  10.611   2.345   9.400 -0.9399 -0.2542  0.5917
  233MOL0     N31370   9.663   2.270   9.199  0.4741 -0.9477 -1.0893
  233MOL0     N31371   9.566   2.304   9.126  0.0831  0.3060  0.2785
  233MOL0     C31372   8.601   2.430   8.439 -0.3895  0.5653 -0.4847
  233MOL0     C31373   8.495   2.370   8.373 -0.1519  0.1110 -0.4841
  233MOL0     C31374   8.078   2.394   8.155  0.1437  1.5062 -0.6901
  233MOL0     C31375   8.011   2.298   8.230 -0.7021  0.3590  0.1733
  233MOL0     C31376   7.881   2.262   8.203 -0.1685  0.3766 -0.0350
  233MOL0     C31377   7.801   2.321   8.108  0.2365 -0.6307 -0.0329
  233MOL0     O31378   7.661   2.277   8.088  0.3980 -0.5814  0.2322
  233MOL0     C31379   7.574   2.358   8.004 -0.6698 -0.1957  0.2788
  233MOL0     C31380   7.445   2.289   7.965 -0.1217 -0.4382  0.7005
  233MOL0     C31381   7.342   2.387   7.901  1.4027  0.2853 -0.8475
  233MOL0     C31382   7.242   2.439   8.005 -0.4688 -0.3816  0.2842
  233MOL0     C31383   7.160   2.328   8.058 -0.5996 -0.3566 -0.1217
  233MOL0     C31384   7.090   2.249   8.113 -0.4029  0.2614  0.2303
  233MOL0     C31385   7.866   2.425   8.048 -0.3199 -0.4466 -0.2792
  233MOL0     C31386   7.999   2.461   8.057  0.5294 -0.5835 -0.3767
  233MOL0     C31387   8.047   2.579   7.970 -0.1324 -0.1662 -0.6086
  233MOL0     H31388   8.278   2.632   8.430  1.0021  1.9713  0.1936
  233MOL0     H31389   8.476   2.737   8.510  0.2793  0.3572 -0.1203
  233MOL0     H31390   8.841   2.472   8.536  2.0207  0.0533  0.1708
  233MOL0     H31391   8.897   2.638   8.578 -1.0942  2.2932  4.1841
  233MOL0     H31392   8.726   2.463   8.763 -1.4217  2.4719 -1.1446
  233MOL0     H31393   8.800   2.607   8.811 -0.1029 -1.1151  1.6160
  233MOL0     H31394   8.966   2.356   8.776 -0.7731  0.4244 -0.6430
  233MOL0     H31395   8.938   2.461   8.903 -2.4444 -3.7510 -0.0869
  233MOL0     H31396   9.110   2.505   8.647  0.6296  1.1950 -0.1183
  233MOL0     H31397   9.092   2.631   8.770 -0.9676  0.7942 -0.5667
  233MOL0     H31398   9.194   2.522   8.943 -1.1644  0.3532 -0.2560
  233MOL0     H31399   9.184   2.362   8.860  3.4232 -0.6096 -0.6484
  233MOL0     H31400   9.327   2.432   8.695 -1.9021  2.0175 -0.7974
  233MOL0     H31401   9.371   2.584   8.776 -0.6774  0.5022 -0.8720
  233MOL0     H31402   9.547   2.423   8.820 -0.3885  0.3925 -1.2347
  233MOL0     H31403   9.430   2.321   8.921  1.6715  0.4313  0.7614
  233MOL0     H31404   9.530   2.597   8.982 -4.4537  1.3042  2.3679
  233MOL0     H31405   9.410   2.495   9.072 -0.2456  0.0979  0.6009
  233MOL0     H31406   9.778   2.551   9.075  1.6978 -1.3683  0.7299
  233MOL0     H31407   9.852   2.488   9.356  0.8344 -0.4353  2.2351
  233MOL0     H31408   9.872   2.307   9.357 -0.8459  0.4759  0.2414
  233MOL0     H31409  10.020   2.311   9.170 -2.3272 -2.2389  2.2518
  233MOL0     H31410  10.032   2.491   9.168  4.7085  1.5485  1.9169
  233MOL0     H31411  10.115   2.329   9.411 -0.9532  1.8731  0.6374
  233MOL0     H31412  10.143   2.504   9.368 -0.8637  0.6439 -0.7441
  233MOL0     H31413  10.263   2.435   9.164  0.4733 -1.0552 -1.1914
  233MOL0     H31414  10.266   2.263   9.224 -1.6450 -0.1618 -2.4727
  233MOL0     H31415  10.463   2.316   9.090  3.8498  0.3195 -3.4988
  233MOL0     H31416  10.659   2.205   9.039  2.2673  0.1365 -0.6311
  233MOL0     H31417  10.952   1.908   9.104  1.2254  2.1581  1.2253
  233MOL0     H31418  11.157   1.777   9.015  0.8674  0.1810  0.0818
  233MOL0     H31419  11.443   2.018   8.728  4.1425 -0.3630 -0.8767
  233MOL0     H31420  11.495   2.032   8.891 -1.2409  0.9710 -0.9986
  233MOL0     H31421  11.608   1.809   8.885 -0.9182  0.2856  0.1386
  233MOL0     H31422  11.522   1.770   8.742 -1.2035 -0.9056  0.3263
  233MOL0     H31423  11.726   1.822   8.652 -0.4120 -1.7163  0.7992
  233MOL0     H31424  11.663   1.983   8.651 -0.4645  0.4752  0.4867
  233MOL0     H31425  11.804   1.911   8.900 -0.2705 -1.2764 -0.7472
  233MOL0     H31426  11.805   2.078   8.826  1.4264  0.2383 -0.7453
  233MOL0     H31427  11.936   1.999   8.651  0.1813 -2.6096 -1.9552
  233MOL0     H31428  11.935   1.838   8.723  2.3165 -0.2756  1.1119
  233MOL0     H31429  12.060   2.089   8.860 -0.7252 -1.1288 -0.8213
  233MOL0     H31430  12.032   1.940   8.949 -2.9909  0.3496  0.0611
  233MOL0     H31431  12.191   1.860   8.723  0.3023  1.8344 -0.2826
  233MOL0     H31432  12.248   1.873   8.881 -0.7865 -0.6614 -0.1766
  233MOL0     H31433  12.239   2.117   8.693  2.4607  0.4613 -1.5314
  233MOL0     H31434  12.304   2.097   8.858  0.6936 -0.6663  0.4554
  233MOL0     H31435  11.269   2.140   8.801  0.1762  0.9937  1.2598
  233MOL0     H31436  11.047   2.246   8.881 -2.1111  0.3097  0.7399
  233MOL0     H31437  10.808   2.267   9.440  2.8490  2.4816 -0.0584
  233MOL0     H31438  10.594   2.396   9.495  2.2475  2.1583  0.0392
  233MOL0     H31439   8.691   2.369   8.439 -0.5174  0.3626  0.1212
  233MOL0     H31440   8.518   2.278   8.321  1.6573  1.0319 -1.4126
  233MOL0     H31441   8.062   2.236   8.303 -2.5045  0.9541  2.0133
  233MOL0     H31442   7.825   2.189   8.261  1.3851 -1.4150 -0.6764
  233MOL0     H31443   7.626   2.368   7.909 -2.4210 -1.5295 -0.8910
  233MOL0     H31444   7.565   2.460   8.041 -1.5424 -0.5739  1.1627
  233MOL0     H31445   7.397   2.241   8.052 -1.6978  1.3548  0.8766
  233MOL0     H31446   7.479   2.225   7.883  0.8314  2.3500 -1.1956
  233MOL0     H31447   7.285   2.346   7.817  0.8934 -0.8114 -0.0019
  233MOL0     H31448   7.398   2.475   7.869  0.6672  0.7288 -0.9283
  233MOL0     H31449   7.291   2.495   8.085 -0.8483  0.6404 -0.1945
  233MOL0     H31450   7.179   2.513   7.956 -0.2235 -0.0874  0.4066
  233MOL0     H31451   7.012   2.195   8.164  1.4169 -1.7837  0.9937
  233MOL0     H31452   7.802   2.479   7.978  1.0474  0.3554 -0.9464
  233MOL0     H31453   8.108   2.644   8.033  0.4191 -0.5715 -0.7174
  233MOL0     H31454   8.106   2.540   7.886  0.0116  3.1466 -2.1780
  233MOL0     H31455   7.964   2.639   7.932 -0.2885  0.5799  0.8351
  234MOL0     O31456   8.721   0.942   7.514 -0.2596 -0.5167  0.4567
  234MOL0     C31457   8.697   0.849   7.600  0.2439 -0.3266 -0.3277
  234MOL0     O31458   8.775   0.828   7.700 -0.0794  0.6560 -0.0038
  234MOL0     C31459   8.893   0.886   7.711 -0.5324  0.1778 -0.2250
  234MOL0     C31460   8.920   0.958   7.830  0.4558  0.2896  0.2188
  234MOL0     C31461   9.040   1.023   7.850 -0.8667 -0.0278  0.4496
  234MOL0     C31462   9.150   0.998   7.766  0.3187 -0.3119  1.0902
  234MOL0     O31463   9.270   1.059   7.765  0.1934  0.0306 -0.0840
  234MOL0     C31464   9.292   1.162   7.859  0.1389  0.6014 -0.7282
  234MOL0     C31465   9.421   1.232   7.833  0.2975  0.2810  0.0762
  234MOL0     C31466   9.540   1.152   7.907 -0.0762  0.1290 -0.0227
  234MOL0     C31467   9.661   1.239   7.956 -0.7288 -0.4601 -0.3132
  234MOL0     C31468   9.798   1.180   7.955 -0.9761  0.5423 -0.0022
  234MOL0     C31469   9.896   1.273   8.036 -0.6299 -0.2733 -0.0456
  234MOL0     C31470  10.029   1.218   8.087 -0.1497  0.1975  0.3441
  234MOL0     C31471  10.124   1.170   7.972 -0.7612 -0.2425  0.6196
  234MOL0     N31472  10.174   1.268   7.878 -0.0400 -0.0536  0.5647
  234MOL0     C31473  10.244   1.379   7.906  1.1164 -0.1482 -0.2742
  234MOL0     C31474  10.278   1.440   7.788  0.3515 -1.3040 -0.2891
  234MOL0     C31475  10.359   1.563   7.772 -0.1353 -0.5641  0.4491
  234MOL0     C31476  10.508   1.518   7.746  0.0298 -0.5299  0.2550
  234MOL0     C31477  10.535   1.486   7.600  0.6843  0.7154  0.4062
  234MOL0     C31478  10.678   1.523   7.563  0.4837  0.3776 -0.7610
  234MOL0     O31479  10.681   1.671   7.558  0.2047 -0.5395  0.4365
  234MOL0     C31480  10.800   1.720   7.601 -0.2697 -0.4115 -0.1421
  234MOL0     C31481  10.790   1.838   7.683  0.4212  0.0337 -0.3431
  234MOL0     C31482  10.908   1.905   7.722  0.7224 -0.0248 -0.6397
  234MOL0     C31483  11.033   1.863   7.683  0.1821  0.7556  0.2223
  234MOL0     C31484  11.162   1.922   7.729  0.1887 -0.3908 -0.1718
  234MOL0     O31485  11.146   2.001   7.847  0.1951  0.0004  0.5560
  234MOL0     C31486  11.255   2.065   7.902  0.0266 -0.0188  0.1134
  234MOL0     C31487  11.376   2.002   7.938 -0.2198 -0.2506 -0.1706
  234MOL0     C31488  11.480   2.068   7.998  0.4779 -0.1558 -0.6014
  234MOL0     C31489  11.468   2.205   8.023  0.2445  0.0267  0.9058
  234MOL0     O31490  11.572   2.270   8.089 -0.6771  0.4311  0.2106
  234MOL0     C31491  11.696   2.252   8.019 -0.6156 -0.2411  1.4800
  234MOL0     C31492  11.807   2.316   8.097  0.5714 -0.3910 -0.5653
  234MOL0     C31493  11.941   2.275   8.033 -0.2348  0.7786  0.2750
  234MOL0     C31494  12.061   2.365   8.067 -0.3666  0.0755  0.6423
  234MOL0     C31495  12.192   2.311   8.029 -0.8289 -0.7273  0.2273
  234MOL0     C31496  12.314   2.412   8.045  1.2692 -0.2501  0.3201
  234MOL0     C31497  12.442   2.332   8.016 -0.5385 -0.6671  0.6924
  234MOL0     C31498  12.567   2.425   8.023  1.2861 -1.0851 -0.1314
  234MOL0    Cl31499  12.602   2.462   8.191 -0.0417  0.5466  0.0331
  234MOL0     C31500  11.337   2.271   8.000  0.3159  0.5655 -0.1684
  234MOL0     C31501  11.229   2.196   7.944 -0.2841  0.0392 -0.6847
  234MOL0     O31502  11.271   1.899   7.675  0.5180 -0.7204  0.0942
  234MOL0     C31503  11.041   1.746   7.600  0.1391 -0.4122  0.0976
  234MOL0     C31504  10.927   1.676   7.561  0.8746  0.4915 -0.2750
  234MOL0     N31505  10.224   1.369   7.688  0.1430  0.1828  0.2707
  234MOL0     N31506  10.171   1.259   7.740  0.0782  0.8044 -0.5216
  234MOL0     C31507   9.121   0.936   7.646  0.4118  1.2471  0.8931
  234MOL0     C31508   8.998   0.873   7.620 -0.5757  0.9316  1.4870
  234MOL0     C31509   8.588   0.750   7.594  0.2560 -0.7124 -0.7229
  234MOL0     C31510   8.530   0.710   7.469 -0.2063  0.4000 -0.6490
  234MOL0     C31511   8.414   0.637   7.451  0.3812  0.0526 -0.6469
  234MOL0     C31512   8.363   0.570   7.565 -0.0253 -0.0625  0.4233
  234MOL0     O31513   8.248   0.503   7.560  0.7870 -0.1121 -0.0528
  234MOL0     C31514   8.129   0.547   7.635  0.3340 -0.1755  0.4886
  234MOL0     C31515   8.011   0.560   7.547  1.0505  0.2568 -0.0999
  234MOL0     C31516   8.023   0.711   7.488  0.7995 -0.3053  0.5691
  234MOL0     C31517   7.907   0.754   7.401 -0.2101 -0.1673 -0.9633
  234MOL0     C31518   7.777   0.710   7.449 -0.7531 -1.0462 -0.4537
  234MOL0     C31519   7.672   0.666   7.477 -0.1912 -0.7671  0.2360
  234MOL0     C31520   8.424   0.592   7.688 -0.1412  0.5742  0.2336
  234MOL0     C31521   8.541   0.677   7.703  1.0162  0.8673 -0.0842
  234MOL0     C31522   8.583   0.704   7.845  0.1636 -0.2108 -0.1136
  234MOL0     H31523   8.845   0.971   7.907  1.3800  1.3128  0.9780
  234MOL0     H31524   9.050   1.077   7.944 -1.4092 -1.0832  1.1315
  234MOL0     H31525   9.207   1.229   7.873 -1.0927 -1.0429  0.0643
  234MOL0     H31526   9.304   1.120   7.959 -1.9824  2.8175  0.5627
  234MOL0     H31527   9.413   1.338   7.859 -0.7456  0.2986 -0.2678
  234MOL0     H31528   9.455   1.234   7.729  0.5881 -1.3321  0.1228
  234MOL0     H31529   9.588   1.073   7.848  2.8146  2.0437 -0.3997
  234MOL0     H31530   9.511   1.101   7.999 -0.4458  0.5218  0.0829
  234MOL0     H31531   9.657   1.330   7.896 -0.0548 -0.4582 -0.3615
  234MOL0     H31532   9.635   1.270   8.057  0.5670  1.2113 -0.4489
  234MOL0     H31533   9.800   1.083   8.006 -1.1553  2.2025  3.5038
  234MOL0     H31534   9.831   1.173   7.851  0.5080 -1.8656  0.5420
  234MOL0     H31535   9.921   1.363   7.979  0.8061  0.4450  1.5913
  234MOL0     H31536   9.835   1.318   8.115 -1.7372  1.4436 -1.7976
  234MOL0     H31537  10.000   1.126   8.137 -0.6126 -0.5854 -1.3035
  234MOL0     H31538  10.074   1.288   8.158  2.7473  1.2590 -2.2924
  234MOL0     H31539  10.212   1.123   8.017  0.7948  1.5191 -0.4218
  234MOL0     H31540  10.069   1.093   7.917 -2.9559  2.0595 -0.6156
  234MOL0     H31541  10.284   1.423   7.997  1.5896  2.0873 -1.4822
  234MOL0     H31542  10.316   1.628   7.695  3.1519  0.3248 -0.8135
  234MOL0     H31543  10.362   1.618   7.866 -0.8331  4.1096 -1.9404
  234MOL0     H31544  10.571   1.598   7.786 -0.4929 -0.2209  0.4697
  234MOL0     H31545  10.538   1.424   7.794 -1.1718 -1.9309 -1.5933
  234MOL0     H31546  10.466   1.548   7.542  1.4144  1.6618  0.5228
  234MOL0     H31547  10.516   1.381   7.576 -1.8147  1.5938 -1.8390
  234MOL0     H31548  10.696   1.482   7.463 -2.0119 -0.6301 -0.8882
  234MOL0     H31549  10.743   1.480   7.639 -2.5946 -0.5703  1.5343
  234MOL0     H31550  10.689   1.875   7.702 -0.0903 -1.4573 -0.0055
  234MOL0     H31551  10.877   2.000   7.764 -4.0305 -1.1393 -1.0604
  234MOL0     H31552  11.389   1.898   7.909  0.0819 -1.1145  2.7285
  234MOL0     H31553  11.562   2.008   8.037 -1.6793 -1.7534  1.8188
  234MOL0     H31554  11.729   2.147   8.023  0.0992 -0.1975 -1.3725
  234MOL0     H31555  11.696   2.278   7.913 -0.7062 -2.7528  0.7889
  234MOL0     H31556  11.803   2.425   8.087  0.0309 -0.5842 -3.0115
  234MOL0     H31557  11.801   2.284   8.201  1.7228  1.5579  0.1575
  234MOL0     H31558  11.965   2.171   8.054  1.7412  1.1852  0.2661
  234MOL0     H31559  11.934   2.278   7.924  0.5073 -1.0091  0.1477
  234MOL0     H31560  12.075   2.397   8.171  0.9224 -1.6827  1.0584
  234MOL0     H31561  12.046   2.459   8.014  1.3276  0.0992  0.1595
  234MOL0     H31562  12.179   2.284   7.924  1.0605  0.9384 -0.4921
  234MOL0     H31563  12.208   2.217   8.084  3.1384 -0.7790 -0.7041
  234MOL0     H31564  12.300   2.494   7.974  2.6876 -0.6960 -0.5228
  234MOL0     H31565  12.313   2.452   8.146 -1.0218  2.9640 -0.8128
  234MOL0     H31566  12.437   2.269   7.927  0.6185 -2.8968  2.0968
  234MOL0     H31567  12.465   2.259   8.094  4.7246 -1.7800 -1.4654
  234MOL0     H31568  12.652   2.373   7.977  1.5197 -0.8558  0.0443
  234MOL0     H31569  12.559   2.521   7.971  0.2914  0.2068  2.2787
  234MOL0     H31570  11.309   2.370   8.033  2.7690  1.6311 -1.0631
  234MOL0     H31571  11.131   2.237   7.919  0.5866  2.0215 -1.0763
  234MOL0     H31572  11.136   1.713   7.561  0.9488  1.8260  0.0474
  234MOL0     H31573  10.920   1.598   7.485 -1.6359  2.1639 -1.9338
  234MOL0     H31574   9.193   0.919   7.566  0.4941 -0.1636  1.2552
  234MOL0     H31575   8.982   0.831   7.522 -0.0832  1.0331  1.3635
  234MOL0     H31576   8.564   0.769   7.384 -0.6274  0.9122 -0.4698
  234MOL0     H31577   8.362   0.631   7.356  2.3900 -1.0865 -1.7479
  234MOL0     H31578   8.136   0.638   7.696 -1.3418  0.0333  0.4292
  234MOL0     H31579   8.108   0.459   7.695 -0.7869 -1.3447 -1.5086
  234MOL0     H31580   7.925   0.544   7.613  0.2993  0.8042 -0.9333
  234MOL0     H31581   8.011   0.484   7.468 -0.5287  0.2727 -0.1573
  234MOL0     H31582   8.113   0.724   7.427 -2.0304 -0.2065 -4.0172
  234MOL0     H31583   8.029   0.782   7.571  0.3100  0.0800  0.2781
  234MOL0     H31584   7.918   0.859   7.373  0.3876  0.1933  0.4794
  234MOL0     H31585   7.915   0.693   7.311 -4.8701 -3.3393  0.4267
  234MOL0     H31586   7.577   0.634   7.515  0.2646 -0.9936  1.2404
  234MOL0     H31587   8.371   0.535   7.763 -1.3178 -0.3910 -1.2601
  234MOL0     H31588   8.558   0.808   7.864  1.1192 -0.1662  1.0632
  234MOL0     H31589   8.528   0.651   7.924  2.7893 -1.8611  0.7518
  234MOL0     H31590   8.686   0.678   7.871  0.0595  0.4084  0.9716
  235MOL0     O31591   8.846   8.260  10.863 -0.7303 -0.2565  0.4108
  235MOL0     C31592   8.768   8.338  10.806  0.3287  0.4413  0.3348
  235MOL0     O31593   8.802   8.462  10.771  0.0915 -0.6014  0.5138
  235MOL0     C31594   8.933   8.508  10.787 -0.1024 -0.3477 -0.8958
  235MOL0     C31595   9.046   8.444  10.737  0.2950  0.0272 -0.0238
  235MOL0     C31596   9.172   8.494  10.775  0.8427 -0.0462 -0.2659
  235MOL0     C31597   9.185   8.607  10.858  0.1021  0.4655 -0.0992
  235MOL0     O31598   9.310   8.657  10.880  0.1297  0.3839 -0.3573
  235MOL0     C31599   9.332   8.720  11.011  0.8153  0.3439 -0.7278
  235MOL0     C31600   9.486   8.738  11.025  0.5566  0.6446 -0.1850
  235MOL0     C31601   9.543   8.612  11.093  0.2254 -0.1897  0.3521
  235MOL0     C31602   9.696   8.632  11.131  0.7159  0.0279  0.2687
  235MOL0     C31603   9.745   8.499  11.200 -0.2834  0.2974 -0.5808
  235MOL0     C31604   9.889   8.503  11.229 -0.0485 -0.3595  0.1646
  235MOL0     C31605   9.945   8.377  11.302  0.8588  0.7106 -0.7321
  235MOL0     C31606   9.874   8.345  11.435  0.3378 -0.1246 -0.8566
  235MOL0     N31607   9.951   8.237  11.487 -0.1994  0.1136 -0.0921
  235MOL0     C31608   9.912   8.106  11.502 -0.3401 -0.0886 -0.7284
  235MOL0     C31609  10.023   8.048  11.560  0.4909  0.7506 -0.0124
  235MOL0     C31610  10.038   7.898  11.572  0.3076 -0.3368 -0.6886
  235MOL0     C31611  10.093   7.826  11.453 -0.6739 -0.5393 -0.0755
  235MOL0     C31612  10.052   7.676  11.470 -0.2038  0.2491 -0.0753
  235MOL0     C31613  10.090   7.595  11.347  0.2826 -0.7426  0.2883
  235MOL0     O31614  10.079   7.459  11.371 -0.1500  0.4841 -0.4768
  235MOL0     C31615   9.955   7.401  11.370 -0.1471  0.2141 -0.3624
  235MOL0     C31616   9.825   7.456  11.381 -0.3714  0.5743  0.8851
  235MOL0     C31617   9.715   7.376  11.354 -0.1291  0.0440 -0.3827
  235MOL0     C31618   9.716   7.237  11.332 -0.5921 -0.1081  0.2767
  235MOL0     C31619   9.591   7.152  11.333 -0.2915 -1.2170 -1.1972
  235MOL0     O31620   9.467   7.213  11.297 -0.4764  0.2256  0.2721
  235MOL0     C31621   9.357   7.147  11.243  0.0938 -0.1473 -0.1696
  235MOL0     C31622   9.234   7.211  11.234  0.1315 -0.2738 -1.1896
  235MOL0     C31623   9.118   7.151  11.187 -0.3451 -0.4259  0.4491
  235MOL0     C31624   9.127   7.015  11.142  1.0441 -0.3822 -0.5671
  235MOL0     O31625   9.023   6.952  11.081  0.1565  0.1900 -0.7960
  235MOL0     C31626   8.896   7.015  11.074  0.5885  0.2019  0.5122
  235MOL0     C31627   8.806   6.898  11.027 -0.1301  0.5353 -0.2482
  235MOL0     C31628   8.660   6.948  11.024 -0.1699 -0.5927  0.1591
  235MOL0     C31629   8.613   6.963  11.169 -0.2281  0.6379  0.3567
  235MOL0     C31630   8.464   6.952  11.171 -0.4776  0.3409  0.1921
  235MOL0     C31631   8.418   6.804  11.176  0.2974 -0.9655 -0.3914
  235MOL0     C31632   8.274   6.793  11.223  0.1486  0.7829  0.2450
  235MOL0     C31633   8.243   6.641  11.234  0.9210  0.5090  0.1718
  235MOL0    Cl31634   8.070   6.612  11.272 -0.0051  0.7007  0.0314
  235MOL0     C31635   9.245   6.949  11.159 -0.3843  0.2245 -0.5110
  235MOL0     C31636   9.360   7.016  11.201 -0.0249  0.4487 -0.2348
  235MOL0     O31637   9.608   7.035  11.373  0.6549 -0.1238  0.5139
  235MOL0     C31638   9.849   7.183  11.322 -0.2246 -0.4215 -0.4366
  235MOL0     C31639   9.962   7.266  11.341  0.1183 -0.0997 -0.2812
  235MOL0     N31640  10.127   8.136  11.584  0.4446 -0.2469 -0.3112
  235MOL0     N31641  10.073   8.252  11.550  0.4321  0.2669  0.0424
  235MOL0     C31642   9.074   8.669  10.900 -0.4176 -0.7297 -0.3975
  235MOL0     C31643   8.952   8.619  10.867 -0.1685 -1.0469  0.6328
  235MOL0     C31644   8.630   8.295  10.766  0.4263 -0.1432  1.0010
  235MOL0     C31645   8.569   8.386  10.666  1.2905  0.1916 -0.5374
  235MOL0     C31646   8.436   8.348  10.624  0.4848  0.0390  0.1740
  235MOL0     C31647   8.373   8.230  10.667 -0.5342 -0.4730 -0.1402
  235MOL0     O31648   8.246   8.207  10.615  0.6320  0.1993  0.7581
  235MOL0     C31649   8.176   8.081  10.642  0.0601 -1.0729  0.2761
  235MOL0     C31650   8.034   8.084  10.584 -1.0973  0.0676 -0.2333
  235MOL0     C31651   7.949   8.196  10.631  0.3890 -0.3727  0.2534
  235MOL0     C31652   7.931   8.307  10.526  1.2755 -0.2467 -0.6601
  235MOL0     C31653   7.831   8.405  10.563  0.1686  0.2198 -0.2218
  235MOL0     C31654   7.745   8.477  10.610  0.5280  0.6978 -0.0198
  235MOL0     C31655   8.435   8.145  10.762  0.4232 -0.6717 -0.1866
  235MOL0     C31656   8.559   8.180  10.816 -0.1892 -0.5134 -0.0898
  235MOL0     C31657   8.606   8.106  10.947  0.2357 -0.5775  0.1248
  235MOL0     H31658   9.034   8.353  10.679 -2.9612 -2.0212  3.4256
  235MOL0     H31659   9.266   8.466  10.729  1.1723  1.5834 -0.6114
  235MOL0     H31660   9.286   8.819  11.010  1.7571  0.8728  1.8806
  235MOL0     H31661   9.284   8.660  11.088  0.0095  2.1846  0.2758
  235MOL0     H31662   9.512   8.825  11.086 -2.1014  1.6527 -0.3875
  235MOL0     H31663   9.531   8.746  10.926  1.6382 -1.5646  0.0634
  235MOL0     H31664   9.541   8.529  11.023  3.1794  0.3232 -0.4778
  235MOL0     H31665   9.491   8.600  11.188  1.1495 -0.5126  0.8299
  235MOL0     H31666   9.740   8.653  11.033  2.2284 -0.7726  0.7516
  235MOL0     H31667   9.716   8.720  11.192 -0.0940  1.1656 -1.0545
  235MOL0     H31668   9.687   8.487  11.293  0.3809 -1.9257 -0.4023
  235MOL0     H31669   9.725   8.416  11.133 -1.9180  2.2848 -2.7468
  235MOL0     H31670   9.949   8.513  11.138 -0.3913  2.5189  0.1471
  235MOL0     H31671   9.913   8.594  11.285 -1.9804  0.2563  0.0496
  235MOL0     H31672  10.048   8.397  11.332  0.4092  0.0505  1.4634
  235MOL0     H31673   9.934   8.285  11.243 -0.3876 -0.6160  1.4184
  235MOL0     H31674   9.874   8.429  11.505 -1.7992  0.0931 -1.0566
  235MOL0     H31675   9.770   8.311  11.425  0.0249 -0.5922  2.6879
  235MOL0     H31676   9.829   8.046  11.467 -2.2530  1.9140  0.1758
  235MOL0     H31677  10.105   7.871  11.655  2.6510  4.5368 -0.6683
  235MOL0     H31678   9.939   7.863  11.601  1.1945 -0.8299  2.1057
  235MOL0     H31679  10.049   7.867  11.362 -0.0519 -0.2909 -0.2678
  235MOL0     H31680  10.201   7.838  11.452 -0.7702  0.3709 -0.9654
  235MOL0     H31681   9.946   7.661  11.491 -0.1292  0.3007  0.3426
  235MOL0     H31682  10.109   7.639  11.556  0.9426 -2.3154 -1.8349
  235MOL0     H31683  10.194   7.616  11.322  0.4735 -1.6548  0.2857
  235MOL0     H31684  10.028   7.630  11.264  2.0375  1.1330 -0.3248
  235MOL0     H31685   9.816   7.564  11.393  2.3109  0.9596  0.1922
  235MOL0     H31686   9.612   7.408  11.371 -0.8236 -2.3324  0.2754
  235MOL0     H31687   9.224   7.310  11.278 -2.1053 -1.2172  0.6676
  235MOL0     H31688   9.026   7.208  11.177  0.5727  0.6841 -3.6951
  235MOL0     H31689   8.862   7.050  11.172 -1.0137 -1.4912  0.6113
  235MOL0     H31690   8.899   7.095  10.998 -0.4867  0.0149  0.2423
  235MOL0     H31691   8.835   6.865  10.926 -2.1857 -0.7111 -0.4806
  235MOL0     H31692   8.826   6.810  11.087 -1.5973 -0.0431 -0.5558
  235MOL0     H31693   8.663   7.049  10.983  1.4227 -0.4417  0.5837
  235MOL0     H31694   8.594   6.888  10.960 -1.5545 -1.0841  1.9420
  235MOL0     H31695   8.651   7.052  11.219 -1.7294  0.2145  2.3742
  235MOL0     H31696   8.651   6.873  11.218  0.6010  0.9144  0.2368
  235MOL0     H31697   8.416   6.992  11.082  0.5173  0.6103 -0.2375
  235MOL0     H31698   8.422   7.003  11.258 -1.5248  2.7434 -1.6216
  235MOL0     H31699   8.435   6.765  11.075  0.8565  0.6279 -0.9476
  235MOL0     H31700   8.481   6.758  11.252  0.6737  0.5436  0.2366
  235MOL0     H31701   8.205   6.835  11.149 -1.4424 -0.2927  1.0708
  235MOL0     H31702   8.257   6.832  11.324 -2.2122 -1.1031  0.6573
  235MOL0     H31703   8.266   6.585  11.143 -2.4700 -0.6683 -0.1118
  235MOL0     H31704   8.294   6.589  11.315 -0.4346 -2.2633 -0.6222
  235MOL0     H31705   9.248   6.847  11.122 -0.8857  0.8233 -2.3223
  235MOL0     H31706   9.448   6.953  11.203 -0.0816  0.3547 -0.8503
  235MOL0     H31707   9.866   7.076  11.310 -1.7084 -0.7664  0.3406
  235MOL0     H31708  10.064   7.227  11.337 -0.2542 -1.6957  2.5600
  235MOL0     H31709   9.066   8.762  10.955  0.1453  0.4202 -2.1786
  235MOL0     H31710   8.861   8.664  10.905  0.6568 -0.1423  1.6185
  235MOL0     H31711   8.614   8.474  10.622  1.0636 -0.2703 -1.7311
  235MOL0     H31712   8.372   8.406  10.557  0.6604  2.4718  1.9696
  235MOL0     H31713   8.167   8.064  10.750  2.9181 -3.9088  0.2131
  235MOL0     H31714   8.217   7.988  10.602 -0.3014 -1.1586  0.1008
  235MOL0     H31715   7.991   7.990  10.621  0.0560 -0.2901  0.2377
  235MOL0     H31716   8.045   8.093  10.475  2.2770  1.1071  0.0655
  235MOL0     H31717   7.998   8.240  10.718  0.5662 -0.4465  0.1922
  235MOL0     H31718   7.853   8.157  10.667  0.6287  0.1617  1.5114
  235MOL0     H31719   8.030   8.349  10.506  1.1489  0.7822  0.7527
  235MOL0     H31720   7.899   8.262  10.431  1.6031  1.4851 -1.6457
  235MOL0     H31721   7.670   8.540  10.653 -0.3818  0.2340 -0.8931
  235MOL0     H31722   8.382   8.060  10.804  1.9635 -1.4027  0.3267
  235MOL0     H31723   8.693   8.046  10.922  2.0750  2.5270 -1.6024
  235MOL0     H31724   8.639   8.171  11.028 -1.6886  0.5987  0.0608
  235MOL0     H31725   8.519   8.057  10.991  0.8068 -0.1103  1.8351
  236MOL0     O31726   1.370   5.457   7.715 -0.8535 -0.2033 -0.0872
  236MOL0     C31727   1.310   5.552   7.685  0.2475  0.0632  1.0592
  236MOL0     O31728   1.363   5.657   7.614  0.5309  0.0081  0.2928
  236MOL0     C31729   1.467   5.625   7.536 -0.2000  0.0205 -0.5453
  236MOL0     C31730   1.436   5.570   7.410 -0.0796 -0.9514  0.0041
  236MOL0     C31731   1.529   5.517   7.330 -1.1457 -0.0343  0.9065
  236MOL0     C31732   1.668   5.540   7.361  0.2763 -0.8170  0.4253
  236MOL0     O31733   1.752   5.486   7.274 -0.4530 -0.2167  0.4123
  236MOL0     C31734   1.884   5.483   7.318 -0.2346  0.1246  0.1986
  236MOL0     C31735   1.986   5.436   7.207 -1.2264 -0.7729 -0.5469
  236MOL0     C31736   1.986   5.541   7.100  0.0164  0.0098  0.0214
  236MOL0     C31737   2.089   5.512   6.990  0.1249 -0.5932 -0.1975
  236MOL0     C31738   2.084   5.626   6.884  0.4262 -0.1136  0.5656
  236MOL0     C31739   2.159   5.591   6.754  0.4075  0.0114  0.1356
  236MOL0     C31740   2.312   5.578   6.778  0.5173 -0.0064  0.6339
  236MOL0     C31741   2.381   5.714   6.808  1.1833  0.0661  0.1980
  236MOL0     N31742   2.531   5.691   6.812  0.4655 -0.7586  0.1435
  236MOL0     C31743   2.620   5.754   6.736  0.0177  0.4350 -1.0248
  236MOL0     C31744   2.738   5.691   6.763 -0.2204 -0.9258  0.0492
  236MOL0     C31745   2.876   5.732   6.715 -0.0149  0.0532  0.7313
  236MOL0     C31746   2.991   5.658   6.783  0.3778 -0.4650 -0.0148
  236MOL0     C31747   3.128   5.722   6.760 -0.3142 -0.6005  0.1514
  236MOL0     C31748   3.239   5.652   6.835 -0.1326  0.3377 -0.2040
  236MOL0     O31749   3.349   5.738   6.865 -0.1941 -0.0858 -0.4864
  236MOL0     C31750   3.448   5.697   6.947  0.8046 -0.5744 -0.0420
  236MOL0     C31751   3.444   5.593   7.051 -0.5226 -0.6527  0.8178
  236MOL0     C31752   3.557   5.573   7.128 -0.0283  0.3871 -0.1840
  236MOL0     C31753   3.678   5.647   7.116  0.3242 -0.5842 -0.2520
  236MOL0     C31754   3.792   5.633   7.208 -0.8009 -0.2261  0.0319
  236MOL0     O31755   3.887   5.742   7.196  0.6836  0.2339 -0.2448
  236MOL0     C31756   3.981   5.771   7.292 -0.9157  0.5448 -0.5978
  236MOL0     C31757   3.989   5.716   7.420  0.8619  0.3886 -0.3667
  236MOL0     C31758   4.088   5.753   7.510 -0.6741  0.1617  0.2256
  236MOL0     C31759   4.194   5.829   7.466  0.2335 -1.0306  0.7590
  236MOL0     O31760   4.296   5.861   7.552  0.9880  0.6759 -0.1670
  236MOL0     C31761   4.413   5.937   7.519 -0.2236  0.8103  0.1766
  236MOL0     C31762   4.492   5.939   7.653 -0.4051 -0.7549 -0.1804
  236MOL0     C31763   4.635   6.001   7.651 -0.4378  1.0246 -0.0699
  236MOL0     C31764   4.687   6.009   7.797 -0.7581  0.9267  0.1291
  236MOL0     C31765   4.794   5.897   7.813 -1.0502 -0.4382  0.5046
  236MOL0     C31766   4.879   5.930   7.937  0.4137  1.0441  0.5176
  236MOL0     C31767   5.004   6.001   7.908 -0.4445 -0.2777  1.0124
  236MOL0     C31768   5.103   6.021   8.020  0.1467 -0.4744  0.0129
  236MOL0    Cl31769   5.159   5.886   8.109 -0.0599  0.2892 -0.1092
  236MOL0     C31770   4.194   5.879   7.338  0.1850  0.2415  0.0919
  236MOL0     C31771   4.091   5.847   7.247 -0.3510  0.4558 -0.1380
  236MOL0     O31772   3.805   5.533   7.282  0.3042  0.4505  0.2416
  236MOL0     C31773   3.677   5.747   7.009  0.4555 -0.6878 -0.7333
  236MOL0     C31774   3.564   5.766   6.930 -0.2725  0.1109  0.1277
  236MOL0     N31775   2.713   5.595   6.857  0.2885  0.1683 -0.2605
  236MOL0     N31776   2.592   5.609   6.897  0.1622 -0.1302 -1.0506
  236MOL0     C31777   1.697   5.597   7.483  0.0991 -0.2187  0.2496
  236MOL0     C31778   1.602   5.639   7.570  0.4726 -0.2934 -0.2165
  236MOL0     C31779   1.162   5.559   7.729  0.3426  0.0968 -0.4841
  236MOL0     C31780   1.099   5.686   7.709  0.1076 -0.2116  0.5029
  236MOL0     C31781   0.968   5.717   7.755  0.6194  0.1069 -0.3134
  236MOL0     C31782   0.898   5.615   7.821  1.1960  0.0180 -0.1252
  236MOL0     O31783   0.774   5.645   7.869 -0.9548 -0.0355 -0.1011
  236MOL0     C31784   0.698   5.566   7.962 -0.4651  0.0614  0.5869
  236MOL0     C31785   0.597   5.494   7.879 -0.4764 -0.7633  1.0085
  236MOL0     C31786   0.503   5.410   7.972  0.2665 -0.7714  0.8286
  236MOL0     C31787   0.428   5.302   7.894 -1.1479  0.6856  0.7969
  236MOL0     C31788   0.521   5.185   7.882 -0.2119 -0.4696  1.3962
  236MOL0     C31789   0.594   5.096   7.867 -0.1991  0.6651 -0.2405
  236MOL0     C31790   0.949   5.490   7.837 -0.2510  0.2824 -0.6939
  236MOL0     C31791   1.078   5.460   7.794  0.2844  0.3365 -0.3828
  236MOL0     C31792   1.124   5.322   7.823  0.0499 -0.1376 -1.1401
  236MOL0     H31793   1.332   5.553   7.385 -0.0769 -0.4874 -0.3381
  236MOL0     H31794   1.512   5.462   7.238  1.6467 -1.5878  1.2176
  236MOL0     H31795   1.912   5.586   7.344  1.5007 -0.0381 -0.8754
  236MOL0     H31796   1.902   5.422   7.407  2.9677  1.8589  0.9050
  236MOL0     H31797   1.944   5.341   7.173 -1.8047 -0.6028 -0.3229
  236MOL0     H31798   2.087   5.420   7.245 -1.2749 -3.6804 -1.4360
  236MOL0     H31799   2.003   5.642   7.139 -0.5730 -0.5467  1.7953
  236MOL0     H31800   1.890   5.537   7.047  0.8279 -6.3352 -1.8706
  236MOL0     H31801   2.189   5.502   7.034 -0.2990  1.3677  1.3238
  236MOL0     H31802   2.069   5.411   6.953 -0.4180 -0.5704  0.0272
  236MOL0     H31803   1.979   5.645   6.860  0.6690  1.5969  0.7486
  236MOL0     H31804   2.120   5.724   6.919 -1.4947  1.1137 -0.7250
  236MOL0     H31805   2.114   5.499   6.715  1.4993 -0.8340  0.7692
  236MOL0     H31806   2.143   5.668   6.678 -1.8189 -1.8754 -1.4472
  236MOL0     H31807   2.357   5.528   6.693  1.2108  2.1011 -0.3173
  236MOL0     H31808   2.320   5.510   6.863 -2.7492 -0.8213  0.4110
  236MOL0     H31809   2.352   5.783   6.728  0.3938  0.7000  1.0034
  236MOL0     H31810   2.343   5.757   6.902 -0.1459 -0.6898  0.0324
  236MOL0     H31811   2.599   5.833   6.665 -0.8681 -3.4421 -5.6411
  236MOL0     H31812   2.885   5.698   6.611  0.7140  1.3960  0.3256
  236MOL0     H31813   2.885   5.840   6.728 -3.2289  0.8282 -2.0940
  236MOL0     H31814   2.970   5.672   6.890 -0.8260  0.7666 -0.3738
  236MOL0     H31815   2.988   5.552   6.758 -2.1273  0.1789 -3.0914
  236MOL0     H31816   3.127   5.825   6.796  1.3104  0.4116 -2.4481
  236MOL0     H31817   3.146   5.708   6.653 -0.8270 -0.5711  0.0589
  236MOL0     H31818   3.262   5.565   6.772  0.2916  1.8700 -2.2638
  236MOL0     H31819   3.196   5.616   6.930 -1.9436 -0.1083 -1.1422
  236MOL0     H31820   3.354   5.538   7.076 -1.9611  1.7662  1.3742
  236MOL0     H31821   3.546   5.488   7.195  1.1482  0.2872 -0.1079
  236MOL0     H31822   3.913   5.645   7.450  2.3229 -1.3345 -0.5724
  236MOL0     H31823   4.087   5.722   7.614  1.0582 -0.4346  0.1081
  236MOL0     H31824   4.478   5.884   7.449 -2.0624  0.6698 -1.5154
  236MOL0     H31825   4.378   6.031   7.475 -1.6227 -0.9721 -2.8955
  236MOL0     H31826   4.435   6.010   7.714  1.5051 -2.1602  3.5262
  236MOL0     H31827   4.492   5.836   7.689 -2.2776 -1.1495 -1.1914
  236MOL0     H31828   4.695   5.947   7.577 -2.1588 -3.0747  1.2147
  236MOL0     H31829   4.615   6.102   7.615 -2.5139  0.2633 -1.2584
  236MOL0     H31830   4.605   5.995   7.868 -1.0290  0.8640 -0.1996
  236MOL0     H31831   4.726   6.111   7.808 -0.3194  0.8186 -0.3915
  236MOL0     H31832   4.851   5.880   7.721 -2.7378  0.4739 -0.7453
  236MOL0     H31833   4.747   5.799   7.826  0.2523 -1.0653  0.7689
  236MOL0     H31834   4.821   5.970   8.021 -0.8026  0.1073  0.1473
  236MOL0     H31835   4.899   5.832   7.980 -0.8613  0.2087 -0.7510
  236MOL0     H31836   4.959   6.094   7.871  1.0089 -0.6380 -1.9333
  236MOL0     H31837   5.073   5.958   7.835 -1.3395  0.9832 -0.6468
  236MOL0     H31838   5.194   6.072   7.984  0.5308 -0.2226  1.2774
  236MOL0     H31839   5.053   6.094   8.084  1.2965  0.5619 -0.2143
  236MOL0     H31840   4.279   5.936   7.301  3.3310 -3.0438  1.6005
  236MOL0     H31841   4.094   5.879   7.143 -4.6412 -1.1853 -0.9628
  236MOL0     H31842   3.762   5.814   7.008 -0.3439  0.5782  2.4248
  236MOL0     H31843   3.574   5.844   6.856 -0.1221 -2.0955 -2.3369
  236MOL0     H31844   1.796   5.606   7.526 -0.5676  1.9096  1.4963
  236MOL0     H31845   1.636   5.683   7.663  0.6214  1.4187 -1.0445
  236MOL0     H31846   1.156   5.762   7.658 -1.2172  1.0609  0.8448
  236MOL0     H31847   0.918   5.811   7.731 -0.4944 -0.3078  0.2817
  236MOL0     H31848   0.661   5.635   8.039  1.2453  3.1622 -1.1431
  236MOL0     H31849   0.759   5.487   8.006  0.3330  0.0833 -0.4483
  236MOL0     H31850   0.640   5.433   7.799 -3.5787 -1.9396  0.0525
  236MOL0     H31851   0.532   5.573   7.839 -0.1804  0.5953  3.0381
  236MOL0     H31852   0.429   5.471   8.025  0.6004  0.5877 -0.1880
  236MOL0     H31853   0.563   5.359   8.047  3.1900 -0.3887 -1.0804
  236MOL0     H31854   0.342   5.265   7.951 -0.5748 -3.5276 -0.7657
  236MOL0     H31855   0.386   5.342   7.802  1.7335 -1.8744 -1.8534
  236MOL0     H31856   0.659   5.012   7.850  0.3365  1.3866 -2.0554
  236MOL0     H31857   0.899   5.404   7.880  2.4351 -0.7947  0.5645
  236MOL0     H31858   1.211   5.324   7.889 -1.3527  1.0231  0.8148
  236MOL0     H31859   1.050   5.257   7.872  0.3624  1.2456  1.3552
  236MOL0     H31860   1.148   5.283   7.724 -0.3347  0.8670 -1.6523
  237MOL0     O31861   4.691   2.395   2.614  0.2499  0.2736  0.0830
  237MOL0     C31862   4.617   2.342   2.533 -0.4067  0.0276 -0.0645
  237MOL0     O31863   4.661   2.251   2.435  0.0765 -0.0534  0.1896
  237MOL0     C31864   4.796   2.255   2.399  0.8724  0.4684  0.2182
  237MOL0     C31865   4.887   2.362   2.403 -0.6117  0.7327  0.0768
  237MOL0     C31866   5.028   2.354   2.372  0.7782 -0.3583  1.5649
  237MOL0     C31867   5.075   2.240   2.325  0.2320  0.1341  1.0857
  237MOL0     O31868   5.213   2.228   2.290  0.4113  0.1130 -0.4889
  237MOL0     C31869   5.281   2.105   2.318 -0.3796  0.8468 -0.3021
  237MOL0     C31870   5.432   2.141   2.320  0.0510 -0.2066  0.5787
  237MOL0     C31871   5.487   2.245   2.426 -0.2498 -0.5399  0.5798
  237MOL0     C31872   5.642   2.262   2.428  0.7649  0.5375  1.3869
  237MOL0     C31873   5.695   2.368   2.543  0.6025  0.3090 -0.5941
  237MOL0     C31874   5.801   2.464   2.474 -0.2852  0.1645 -0.3616
  237MOL0     C31875   5.852   2.579   2.569  0.7487 -0.2948 -0.3978
  237MOL0     C31876   5.935   2.678   2.491 -0.0297  0.6379  0.3898
  237MOL0     N31877   5.858   2.763   2.399  0.2595  0.2067  0.7565
  237MOL0     C31878   5.765   2.856   2.441  0.5849 -0.2377 -0.5431
  237MOL0     C31879   5.741   2.930   2.328 -0.0221 -0.4258 -0.2723
  237MOL0     C31880   5.650   3.055   2.320 -0.8578  0.3011  0.3430
  237MOL0     C31881   5.501   3.001   2.296  0.1753 -0.3125 -0.1648
  237MOL0     C31882   5.421   3.116   2.247  1.2373  0.6581 -0.0009
  237MOL0     C31883   5.276   3.090   2.267 -0.4778  0.6299 -0.3012
  237MOL0     O31884   5.217   3.177   2.362  0.0234  0.2038  0.5277
  237MOL0     C31885   5.082   3.173   2.377 -0.4038  0.5013 -0.2464
  237MOL0     C31886   4.993   3.081   2.313 -0.7831  0.4884 -1.1411
  237MOL0     C31887   4.853   3.094   2.335  0.5818  0.0699  0.0830
  237MOL0     C31888   4.801   3.199   2.409  0.2634 -0.4533 -0.3680
  237MOL0     C31889   4.658   3.211   2.422  0.1464  0.6305 -0.9776
  237MOL0     O31890   4.607   3.287   2.518  0.0396 -0.4404  0.5515
  237MOL0     C31891   4.476   3.317   2.528 -0.6493 -0.1222  0.0496
  237MOL0     C31892   4.438   3.368   2.654  1.1195 -0.3530 -0.8402
  237MOL0     C31893   4.304   3.386   2.689  0.0932 -0.0896  0.2344
  237MOL0     C31894   4.194   3.360   2.605 -0.3041  0.6804 -0.5223
  237MOL0     O31895   4.058   3.370   2.621 -0.4736  0.2678 -0.0914
  237MOL0     C31896   3.996   3.343   2.749 -0.0725  0.0332  0.7416
  237MOL0     C31897   3.940   3.483   2.799  0.1993  0.8492 -0.1327
  237MOL0     C31898   3.833   3.473   2.904 -0.0282 -0.8155  0.1120
  237MOL0     C31899   3.753   3.602   2.923 -0.2854  0.3854 -0.2353
  237MOL0     C31900   3.784   3.686   3.049 -0.3313 -0.4435 -0.0003
  237MOL0     C31901   3.933   3.713   3.067  0.1808 -1.0151  0.4367
  237MOL0     C31902   4.001   3.800   2.957  0.7637  0.4725  0.7702
  237MOL0     C31903   4.155   3.811   2.957 -0.1885  0.0259 -0.7112
  237MOL0    Cl31904   4.207   3.944   2.836 -0.2052  0.1365 -0.0138
  237MOL0     C31905   4.234   3.312   2.475  0.7791 -0.4476 -1.1309
  237MOL0     C31906   4.370   3.300   2.438 -0.1488  0.6571 -0.0740
  237MOL0     O31907   4.590   3.140   2.352 -0.4960 -0.3150 -0.3950
  237MOL0     C31908   4.890   3.295   2.460 -0.0629 -0.0114 -0.8572
  237MOL0     C31909   5.029   3.281   2.451 -0.0841  0.3278 -1.1253
  237MOL0     N31910   5.796   2.858   2.222  0.1970  0.1952 -0.3449
  237MOL0     N31911   5.861   2.753   2.268 -0.0941 -0.6799  0.8660
  237MOL0     C31912   4.989   2.132   2.307 -0.2035  0.0885  0.3036
  237MOL0     C31913   4.853   2.131   2.353  0.0448  0.2443  0.1916
  237MOL0     C31914   4.473   2.362   2.536  0.1965  0.0969  0.0127
  237MOL0     C31915   4.400   2.285   2.446  0.6853 -0.0244  0.2282
  237MOL0     C31916   4.261   2.283   2.462  0.8295  0.1703 -0.5188
  237MOL0     C31917   4.194   2.372   2.543  0.6898 -0.3195 -0.2270
  237MOL0     O31918   4.059   2.366   2.552  0.0878 -0.3256 -0.0306
  237MOL0     C31919   3.981   2.456   2.637  0.3262  0.0687 -0.2681
  237MOL0     C31920   3.843   2.385   2.650 -0.4730 -0.5171  0.4320
  237MOL0     C31921   3.776   2.409   2.787 -0.5123 -0.1167  0.1425
  237MOL0     C31922   3.627   2.413   2.778 -0.7745  0.0204  0.5620
  237MOL0     C31923   3.591   2.276   2.757 -0.6572 -0.2866  0.5281
  237MOL0     C31924   3.544   2.159   2.737  0.5703 -0.1386 -0.0121
  237MOL0     C31925   4.269   2.461   2.617 -0.4959  0.4276  0.5873
  237MOL0     C31926   4.407   2.462   2.609  0.7943  0.2765 -0.4084
  237MOL0     C31927   4.489   2.561   2.697 -0.0402  1.7053  0.6126
  237MOL0     H31928   4.851   2.458   2.437 -0.5940  1.6533 -2.2781
  237MOL0     H31929   5.094   2.436   2.399  0.2980  0.0751  1.4385
  237MOL0     H31930   5.263   2.054   2.413  0.1860 -2.7435 -1.9668
  237MOL0     H31931   5.264   2.027   2.243  0.8191  2.0324 -1.8538
  237MOL0     H31932   5.447   2.188   2.222 -3.5540  2.7194  1.2011
  237MOL0     H31933   5.494   2.051   2.327  1.1757  0.6378  2.0390
  237MOL0     H31934   5.462   2.208   2.526  0.2206 -4.1804 -0.4720
  237MOL0     H31935   5.451   2.345   2.402  3.1610  0.7920  0.5015
  237MOL0     H31936   5.684   2.162   2.442 -2.3762 -0.7972  1.9801
  237MOL0     H31937   5.688   2.288   2.332  2.7038 -3.0775  1.1772
  237MOL0     H31938   5.606   2.423   2.576  1.0633  1.9221 -1.8722
  237MOL0     H31939   5.726   2.316   2.634 -0.9896  1.3440  0.6123
  237MOL0     H31940   5.892   2.409   2.448  0.4279  0.7254  0.8556
  237MOL0     H31941   5.758   2.522   2.392  0.1619  3.6411  1.6585
  237MOL0     H31942   5.921   2.543   2.646  1.3864  2.3078  0.3279
  237MOL0     H31943   5.766   2.636   2.604  3.1176  1.4314  3.1739
  237MOL0     H31944   6.000   2.738   2.555  0.4212  1.7257 -1.0165
  237MOL0     H31945   6.013   2.619   2.441 -0.3907  0.0692  0.4926
  237MOL0     H31946   5.723   2.867   2.540 -0.9250 -1.7151 -0.9789
  237MOL0     H31947   5.655   3.115   2.412 -2.4850  0.6823  0.2168
  237MOL0     H31948   5.689   3.121   2.242  1.6530  1.2360  2.2530
  237MOL0     H31949   5.496   2.924   2.218 -1.5770 -1.6290  1.1406
  237MOL0     H31950   5.453   2.964   2.387  0.7846  2.5470  1.4297
  237MOL0     H31951   5.442   3.159   2.149  1.3909 -1.0486 -0.7426
  237MOL0     H31952   5.448   3.193   2.320  1.9643 -2.2073  3.0277
  237MOL0     H31953   5.259   2.986   2.294 -1.1809  0.3919 -1.5666
  237MOL0     H31954   5.217   3.111   2.177 -0.0895 -1.0641 -0.9893
  237MOL0     H31955   5.027   2.993   2.260  1.9279 -0.1290  1.3393
  237MOL0     H31956   4.794   3.024   2.276 -0.7580  0.7539  0.5603
  237MOL0     H31957   4.510   3.399   2.729  0.0217  2.3716 -0.7921
  237MOL0     H31958   4.287   3.421   2.791  0.0487 -0.1879  0.2597
  237MOL0     H31959   3.924   3.261   2.740  0.7363 -0.4988 -4.7796
  237MOL0     H31960   4.078   3.320   2.818  1.3215  0.6224 -0.6607
  237MOL0     H31961   4.025   3.548   2.824  0.2864  0.9023 -0.5655
  237MOL0     H31962   3.890   3.526   2.712  0.0509  1.2524  0.1518
  237MOL0     H31963   3.776   3.382   2.880  0.4438 -0.5291 -2.2682
  237MOL0     H31964   3.880   3.451   3.001  0.9549  0.3828 -0.0724
  237MOL0     H31965   3.648   3.571   2.922 -0.5443  0.3503 -5.8616
  237MOL0     H31966   3.778   3.663   2.836  2.3836 -0.2930 -0.0364
  237MOL0     H31967   3.740   3.647   3.141 -0.0166 -1.9935 -0.4799
  237MOL0     H31968   3.713   3.769   3.040 -2.8999 -2.1786  2.6337
  237MOL0     H31969   3.947   3.781   3.151  2.6038 -2.0669  0.9807
  237MOL0     H31970   3.992   3.625   3.094  0.5635 -0.4046  1.6630
  237MOL0     H31971   3.961   3.900   2.971  0.9511  1.1168 -2.5439
  237MOL0     H31972   3.958   3.771   2.861 -2.1527  3.6679  0.9279
  237MOL0     H31973   4.194   3.840   3.055  0.4758  0.4765 -1.0953
  237MOL0     H31974   4.194   3.713   2.927 -0.5828 -0.2971 -0.1834
  237MOL0     H31975   4.171   3.296   2.388  0.1675  1.8292 -1.1613
  237MOL0     H31976   4.378   3.270   2.333  0.4918 -0.6145  0.3177
  237MOL0     H31977   4.857   3.377   2.522  0.3842 -1.1859  1.0317
  237MOL0     H31978   5.093   3.356   2.494  0.5337 -1.8807  2.1252
  237MOL0     H31979   5.023   2.032   2.282 -0.5804 -0.8317  3.1259
  237MOL0     H31980   4.781   2.053   2.333  1.6314 -0.6116 -2.8454
  237MOL0     H31981   4.442   2.212   2.377 -0.8202  1.3664 -2.3475
  237MOL0     H31982   4.197   2.224   2.398 -0.8950  2.3432 -0.9384
  237MOL0     H31983   3.986   2.560   2.604  0.3829  0.4626  0.9477
  237MOL0     H31984   4.016   2.459   2.740  0.0060  0.6257 -0.1704
  237MOL0     H31985   3.866   2.278   2.650 -1.5373 -0.7584  0.5225
  237MOL0     H31986   3.787   2.408   2.559 -1.1504  1.1064  1.2126
  237MOL0     H31987   3.812   2.504   2.827  1.2514 -1.7203  2.6675
  237MOL0     H31988   3.811   2.335   2.860  0.1757  2.6832  2.8597
  237MOL0     H31989   3.594   2.443   2.878  0.2071 -1.5893  1.4356
  237MOL0     H31990   3.589   2.478   2.700 -0.8716  1.2941  1.6287
  237MOL0     H31991   3.492   2.076   2.693  0.2650 -1.5621  2.8271
  237MOL0     H31992   4.222   2.531   2.685 -2.8856  0.4447 -0.9919
  237MOL0     H31993   4.542   2.513   2.780  4.6519  2.2792 -1.7495
  237MOL0     H31994   4.571   2.603   2.638  0.9127 -0.3258  0.3938
  237MOL0     H31995   4.418   2.638   2.727 -0.3304  1.5712  0.2825
  238MOL0     O31996   4.085   2.641   6.256 -0.4664 -0.5186  0.3820
  238MOL0     C31997   4.012   2.724   6.310  0.2143  1.0500 -0.6383
  238MOL0     O31998   4.054   2.847   6.358  0.2550  0.2499 -0.1110
  238MOL0     C31999   4.185   2.874   6.394  0.0292  0.7211 -0.5481
  238MOL0     C32000   4.214   3.010   6.398 -0.0828 -0.3967  0.7228
  238MOL0     C32001   4.342   3.058   6.436  0.6199  0.1283 -0.4170
  238MOL0     C32002   4.438   2.959   6.462 -1.0203 -0.4573  0.2322
  238MOL0     O32003   4.564   2.994   6.503  0.8622 -0.6939 -0.8194
  238MOL0     C32004   4.574   3.104   6.599  0.7002 -0.4704 -0.7994
  238MOL0     C32005   4.721   3.118   6.640  0.9956 -0.1453 -0.3505
  238MOL0     C32006   4.762   3.008   6.729 -0.0724 -0.0530 -0.2652
  238MOL0     C32007   4.917   3.020   6.767  0.3247 -0.7677  0.4676
  238MOL0     C32008   4.945   2.915   6.877 -0.2581 -0.8153 -0.6456
  238MOL0     C32009   5.088   2.921   6.933 -0.5895 -0.2112  0.6288
  238MOL0     C32010   5.120   2.835   7.058  0.3738 -0.4006 -0.1118
  238MOL0     C32011   5.116   2.687   7.029 -0.5336 -0.3446 -0.8205
  238MOL0     N32012   5.138   2.628   7.159 -0.0233 -0.7591 -0.2983
  238MOL0     C32013   5.256   2.598   7.222 -0.1174  0.3266 -0.2838
  238MOL0     C32014   5.219   2.579   7.353 -0.1932 -0.1558 -0.0007
  238MOL0     C32015   5.295   2.545   7.470 -0.4620  0.0053  0.6953
  238MOL0     C32016   5.292   2.391   7.481 -0.5205 -1.0716 -0.2429
  238MOL0     C32017   5.339   2.309   7.356 -0.6259  0.1416  0.2877
  238MOL0     C32018   5.455   2.212   7.394  1.0785 -0.1200  0.1442
  238MOL0     O32019   5.559   2.284   7.462 -0.1455 -0.4536 -0.3255
  238MOL0     C32020   5.682   2.225   7.475 -0.0975  0.2992  0.8087
  238MOL0     C32021   5.728   2.102   7.417 -0.4530 -0.3839 -0.5072
  238MOL0     C32022   5.862   2.067   7.423 -0.0916  1.1396 -0.3450
  238MOL0     C32023   5.956   2.150   7.491  0.0959 -0.0360  0.3083
  238MOL0     C32024   6.097   2.114   7.483  0.3179 -0.5568  0.1516
  238MOL0     O32025   6.137   1.989   7.449  0.3692  0.3288  0.9617
  238MOL0     C32026   6.271   1.961   7.440 -0.0313 -0.2064  0.4283
  238MOL0     C32027   6.340   2.005   7.318 -0.0224  0.8600 -0.9400
  238MOL0     C32028   6.475   1.969   7.300  0.2792 -0.8698  0.6418
  238MOL0     C32029   6.547   1.889   7.388  1.0796 -1.3445 -0.1280
  238MOL0     O32030   6.672   1.863   7.363 -0.1207 -0.2401 -0.4431
  238MOL0     C32031   6.768   1.945   7.416 -0.2101 -0.4464 -0.9397
  238MOL0     C32032   6.925   1.924   7.382  0.1744 -0.2054  0.2444
  238MOL0     C32033   6.931   1.976   7.232 -1.0389  1.2930 -0.1760
  238MOL0     C32034   7.072   1.930   7.180  0.3664  0.3236  0.2138
  238MOL0     C32035   7.132   2.004   7.061 -0.1882 -0.6677 -0.5190
  238MOL0     C32036   7.275   1.948   7.018 -0.4665 -0.1090 -0.4225
  238MOL0     C32037   7.332   2.039   6.903  0.6046 -0.7307 -0.2855
  238MOL0     C32038   7.416   1.947   6.814 -0.0532 -0.2448  0.1533
  238MOL0    Cl32039   7.505   2.028   6.676 -0.5034  0.1028  0.0428
  238MOL0     C32040   6.478   1.846   7.509  0.3768  0.4346  0.3109
  238MOL0     C32041   6.334   1.879   7.535 -0.5565  0.0350  0.5071
  238MOL0     O32042   6.170   2.213   7.495  0.5062  0.7014 -0.1761
  238MOL0     C32043   5.914   2.262   7.557 -0.3594 -0.1102  0.0933
  238MOL0     C32044   5.777   2.292   7.545  0.3967  0.1757 -0.4455
  238MOL0     N32045   5.082   2.585   7.357 -0.4118 -0.8066 -0.1045
  238MOL0     N32046   5.034   2.624   7.244 -0.5932 -0.0513 -1.1012
  238MOL0     C32047   4.414   2.824   6.459  0.1679 -0.0224  0.2864
  238MOL0     C32048   4.285   2.782   6.426 -0.8505  0.8341  0.6884
  238MOL0     C32049   3.867   2.695   6.324 -0.5270  0.4619  0.7728
  238MOL0     C32050   3.777   2.797   6.360  0.2494 -0.0378  0.0981
  238MOL0     C32051   3.636   2.776   6.374 -0.2131  0.1737  0.4492
  238MOL0     C32052   3.581   2.652   6.350 -0.4905 -0.2844  0.4001
  238MOL0     O32053   3.441   2.649   6.343  0.2911 -0.5022 -0.1139
  238MOL0     C32054   3.379   2.546   6.273  0.2467  0.7096  0.2198
  238MOL0     C32055   3.237   2.541   6.300  0.3878 -0.4212 -0.3750
  238MOL0     C32056   3.171   2.684   6.301  1.0241  0.5584 -0.5176
  238MOL0     C32057   3.014   2.679   6.279 -0.2912  0.0994  0.3278
  238MOL0     C32058   2.944   2.801   6.222 -0.9632 -0.7455 -0.5457
  238MOL0     C32059   2.892   2.900   6.169  0.2793 -0.2573  0.6503
  238MOL0     C32060   3.666   2.551   6.306  0.3891  0.2039 -0.5481
  238MOL0     C32061   3.808   2.566   6.293 -0.0296  0.3603 -0.0018
  238MOL0     C32062   3.881   2.440   6.251 -0.1457  0.3073  0.7071
  238MOL0     H32063   4.132   3.077   6.375  0.4180 -0.8671 -3.2326
  238MOL0     H32064   4.348   3.166   6.437 -2.5263  0.4676 -2.8503
  238MOL0     H32065   4.549   3.195   6.544 -0.3684  0.0534  0.5150
  238MOL0     H32066   4.508   3.098   6.686 -0.9827  0.6705 -1.9417
  238MOL0     H32067   4.731   3.215   6.689 -0.3616 -1.2940  2.3997
  238MOL0     H32068   4.790   3.118   6.555  0.1329 -2.3636 -1.1151
  238MOL0     H32069   4.750   2.913   6.677 -0.9748 -1.0539  1.6730
  238MOL0     H32070   4.702   3.006   6.820  2.4983  0.4157  1.5538
  238MOL0     H32071   4.976   2.985   6.682 -1.4343 -1.9493 -0.3299
  238MOL0     H32072   4.933   3.125   6.789 -1.0772 -0.5045  0.3443
  238MOL0     H32073   4.879   2.920   6.964  1.8186 -2.5191  1.1496
  238MOL0     H32074   4.931   2.815   6.834 -1.3917 -0.2825 -1.5842
  238MOL0     H32075   5.160   2.913   6.851 -0.4454  0.5470  0.6727
  238MOL0     H32076   5.110   3.022   6.970 -1.9362  1.3111 -2.3250
  238MOL0     H32077   5.049   2.868   7.134  0.3019 -1.5161  0.3297
  238MOL0     H32078   5.220   2.873   7.083 -0.9010  3.1361  0.0264
  238MOL0     H32079   5.021   2.650   6.990  0.1547 -0.1574 -2.7782
  238MOL0     H32080   5.185   2.658   6.950  0.0920  0.4492 -0.5792
  238MOL0     H32081   5.355   2.602   7.177  0.2178 -0.8788  0.3103
  238MOL0     H32082   5.396   2.586   7.464  1.0630 -2.6719  4.1890
  238MOL0     H32083   5.245   2.596   7.553 -1.4243  3.4065 -1.7261
  238MOL0     H32084   5.346   2.355   7.569  1.1377 -0.1920 -0.8538
  238MOL0     H32085   5.184   2.374   7.488 -0.8303  0.6924 -0.3308
  238MOL0     H32086   5.376   2.382   7.283 -1.8698  0.5538  0.0438
  238MOL0     H32087   5.250   2.262   7.313  1.3257 -2.4534 -1.2570
  238MOL0     H32088   5.498   2.152   7.313  4.3297 -1.6152  2.7209
  238MOL0     H32089   5.420   2.133   7.461  1.6950 -1.8533 -1.5046
  238MOL0     H32090   5.661   2.036   7.362  0.3952 -1.5506 -0.1716
  238MOL0     H32091   5.893   1.977   7.371  0.3433  1.2275 -0.2351
  238MOL0     H32092   6.293   2.057   7.235 -0.0857 -0.9217 -2.0700
  238MOL0     H32093   6.523   2.017   7.216  1.1909  2.1799  2.7481
  238MOL0     H32094   6.737   2.040   7.371  0.9642  0.6588  0.4807
  238MOL0     H32095   6.750   1.948   7.524  0.5729  0.0119 -0.8166
  238MOL0     H32096   6.989   1.986   7.446 -0.9515  0.7318  0.4939
  238MOL0     H32097   6.950   1.820   7.403 -1.9752 -0.3675  2.4335
  238MOL0     H32098   6.856   1.931   7.167 -0.5814 -1.6816  1.1955
  238MOL0     H32099   6.933   2.085   7.224 -4.2469  1.3959 -0.9273
  238MOL0     H32100   7.051   1.824   7.164 -4.6838  1.2477 -0.9491
  238MOL0     H32101   7.148   1.935   7.259  1.8819 -1.6738 -1.0182
  238MOL0     H32102   7.139   2.109   7.088  2.3768 -0.6571 -0.9801
  238MOL0     H32103   7.051   2.006   6.987 -1.0499 -2.9523  0.2631
  238MOL0     H32104   7.344   1.953   7.103  0.6965  3.0606 -1.4030
  238MOL0     H32105   7.260   1.848   6.978 -4.8653  0.2822 -0.2859
  238MOL0     H32106   7.389   2.124   6.942  0.1855  0.8821 -2.9621
  238MOL0     H32107   7.251   2.080   6.843 -0.2949 -0.1626  1.2600
  238MOL0     H32108   7.493   1.891   6.868 -0.3762 -2.0812 -1.1940
  238MOL0     H32109   7.342   1.877   6.773 -3.8328  3.0580  0.6861
  238MOL0     H32110   6.541   1.787   7.574  0.9600  0.4723 -0.2161
  238MOL0     H32111   6.283   1.833   7.619  1.5377 -1.9912  0.8044
  238MOL0     H32112   5.982   2.333   7.602  2.9479 -1.6688 -2.0210
  238MOL0     H32113   5.742   2.382   7.596  0.3247  0.1185 -0.3932
  238MOL0     H32114   4.489   2.759   6.502  2.7108  0.7163 -2.6328
  238MOL0     H32115   4.248   2.681   6.447 -1.0906  1.1499  1.8360
  238MOL0     H32116   3.816   2.896   6.384  0.8356 -0.1389 -0.4252
  238MOL0     H32117   3.572   2.859   6.404 -0.6740  0.7647 -1.8876
  238MOL0     H32118   3.422   2.451   6.304  0.8078  0.4703 -1.1918
  238MOL0     H32119   3.396   2.549   6.165  0.2069 -0.1855  0.1802
  238MOL0     H32120   3.219   2.504   6.402 -2.4772  0.6532 -0.3913
  238MOL0     H32121   3.190   2.472   6.229  3.0657 -1.7891 -0.9619
  238MOL0     H32122   3.212   2.738   6.215  1.8012 -2.1142 -1.9372
  238MOL0     H32123   3.189   2.747   6.388 -1.1114  0.9341 -0.2811
  238MOL0     H32124   2.997   2.589   6.220 -0.5023 -1.7054  2.9810
  238MOL0     H32125   2.968   2.643   6.372  1.3769 -1.8576  0.4525
  238MOL0     H32126   2.853   2.986   6.119  3.1177  0.5737 -0.3618
  238MOL0     H32127   3.626   2.450   6.292  2.1587 -0.3281 -2.2075
  238MOL0     H32128   3.820   2.359   6.292 -0.5100 -0.1695 -0.7178
  238MOL0     H32129   3.881   2.424   6.143  0.0757  2.0780  0.4142
  238MOL0     H32130   3.987   2.434   6.279  1.0382  1.5380 -2.8935
  239MOL0     O32131   4.298   9.977   2.370 -0.9035 -0.3550  0.1928
  239MOL0     C32132   4.194   9.977   2.435  1.0622  0.5766 -0.0787
  239MOL0     O32133   4.187   9.963   2.568 -0.6254 -0.2050 -0.0278
  239MOL0     C32134   4.304   9.946   2.642 -0.0021 -0.6074  0.6623
  239MOL0     C32135   4.411   9.867   2.590  0.0070  0.4216  0.0078
  239MOL0     C32136   4.506   9.812   2.682  0.6240 -0.3005  0.0040
  239MOL0     C32137   4.501   9.852   2.815  0.8569 -0.9362 -1.0173
  239MOL0     O32138   4.604   9.806   2.898  0.4934 -0.6217  0.6752
  239MOL0     C32139   4.570   9.761   3.024  0.6059  0.4301  0.2955
  239MOL0     C32140   4.688   9.692   3.096  0.4965  0.1222  0.2199
  239MOL0     C32141   4.756   9.576   3.014  0.1580  0.8748  0.2368
  239MOL0     C32142   4.667   9.457   2.978  0.1655  0.4833  0.0933
  239MOL0     C32143   4.625   9.377   3.104 -1.2869 -0.0125 -0.7898
  239MOL0     C32144   4.532   9.270   3.064  0.0871 -0.1612  0.3272
  239MOL0     C32145   4.454   9.215   3.183  1.0905 -0.5299  0.5379
  239MOL0     C32146   4.530   9.105   3.253 -0.4610  0.0269 -0.0242
  239MOL0     N32147   4.536   8.979   3.172  0.2750 -0.4323  0.1197
  239MOL0     C32148   4.660   8.948   3.116 -0.3522 -0.1452  0.4845
  239MOL0     C32149   4.638   8.823   3.072  0.2149 -1.1020  0.8254
  239MOL0     C32150   4.733   8.739   2.995 -0.2522 -0.2832  0.2568
  239MOL0     C32151   4.822   8.656   3.095  0.5858 -0.0929  0.4734
  239MOL0     C32152   4.901   8.543   3.026  0.0581 -0.3274 -0.4418
  239MOL0     C32153   5.016   8.495   3.115 -0.3386  0.0116  0.7027
  239MOL0     O32154   5.111   8.595   3.127 -0.0251  0.4289 -0.2906
  239MOL0     C32155   5.245   8.556   3.124  0.2650 -0.6795 -0.5488
  239MOL0     C32156   5.299   8.439   3.190  0.3072  1.1647 -0.1831
  239MOL0     C32157   5.432   8.407   3.177 -0.3264  0.0636  0.6487
  239MOL0     C32158   5.514   8.484   3.098 -0.3530 -0.3195  0.1328
  239MOL0     C32159   5.661   8.455   3.091  0.8322  0.4104 -0.6233
  239MOL0     O32160   5.732   8.564   3.051 -0.7924  0.9334  0.4177
  239MOL0     C32161   5.868   8.552   3.047  0.2018  0.0790  0.2029
  239MOL0     C32162   5.940   8.472   2.955 -0.2650  0.2022  0.2997
  239MOL0     C32163   6.083   8.473   2.959  0.3849 -0.3855 -0.3836
  239MOL0     C32164   6.149   8.547   3.063 -0.7933 -0.2898 -0.2249
  239MOL0     O32165   6.283   8.527   3.076 -0.5742  0.2302  0.2710
  239MOL0     C32166   6.365   8.639   3.040 -0.6750 -0.4638 -0.4515
  239MOL0     C32167   6.499   8.589   2.976  0.0285  0.5907  0.0549
  239MOL0     C32168   6.586   8.702   2.940  0.7336 -0.1161 -0.3894
  239MOL0     C32169   6.722   8.664   2.886 -0.4778  0.2372 -0.2791
  239MOL0     C32170   6.806   8.789   2.876 -0.2694  0.2937  0.5466
  239MOL0     C32171   6.940   8.774   2.807 -0.1609  0.2727  0.4723
  239MOL0     C32172   6.949   8.792   2.653 -0.2759  0.5383 -0.5058
  239MOL0     C32173   7.060   8.716   2.591 -0.2309 -0.0560  0.3090
  239MOL0    Cl32174   7.213   8.789   2.640 -0.2587  0.0405  0.1936
  239MOL0     C32175   6.080   8.637   3.141 -0.3402  0.0339 -0.9359
  239MOL0     C32176   5.937   8.640   3.131 -0.8609 -0.0540 -0.4706
  239MOL0     O32177   5.714   8.345   3.129  0.1525  0.6343 -0.0467
  239MOL0     C32178   5.458   8.608   3.051 -0.8300  0.5768  0.4737
  239MOL0     C32179   5.331   8.642   3.063  0.0758 -0.4887 -0.8278
  239MOL0     N32180   4.511   8.781   3.105 -0.2735  0.3625  0.1131
  239MOL0     N32181   4.452   8.872   3.170 -0.4422  0.9449 -0.0770
  239MOL0     C32182   4.387   9.930   2.863 -0.5476 -0.4932  0.1324
  239MOL0     C32183   4.290   9.970   2.775 -0.8515 -0.4928  0.4025
  239MOL0     C32184   4.067  10.006   2.361  0.6764  0.0208 -1.0052
  239MOL0     C32185   3.949  10.019   2.439  0.4847  0.6255 -0.1435
  239MOL0     C32186   3.822  10.029   2.378 -0.9559 -0.8669 -0.8637
  239MOL0     C32187   3.815  10.050   2.239  0.1324  0.5758  0.0556
  239MOL0     O32188   3.701  10.090   2.172  0.6795 -0.8313 -0.3628
  239MOL0     C32189   3.572  10.079   2.239 -0.2730  0.2182  0.1050
  239MOL0     C32190   3.475  10.058   2.123 -0.5497  0.1480 -0.5789
  239MOL0     C32191   3.335  10.023   2.186 -0.5925 -0.1730 -0.4394
  239MOL0     C32192   3.233   9.954   2.089 -1.5252 -0.5956  1.3795
  239MOL0     C32193   3.246   9.996   1.946  0.1735 -0.6963 -0.8308
  239MOL0     C32194   3.259  10.021   1.827 -0.4181 -0.2705 -0.0918
  239MOL0     C32195   3.928  10.052   2.162  0.5938 -0.1744  0.1968
  239MOL0     C32196   4.051  10.031   2.220 -0.2753 -0.2898 -0.3807
  239MOL0     C32197   4.170  10.011   2.126 -0.3031 -0.1158  0.4793
  239MOL0     H32198   4.419   9.833   2.488  1.9525 -4.0131  1.4162
  239MOL0     H32199   4.592   9.753   2.652 -0.4405 -1.8391 -0.1292
  239MOL0     H32200   4.532   9.844   3.085  2.6154  1.2378  0.5071
  239MOL0     H32201   4.484   9.693   3.026 -0.8793  2.2228  1.2138
  239MOL0     H32202   4.645   9.643   3.184  0.8422 -0.0871  0.2714
  239MOL0     H32203   4.768   9.758   3.129  1.8523 -0.2717 -2.0313
  239MOL0     H32204   4.836   9.538   3.077 -0.6538  0.6471  1.1554
  239MOL0     H32205   4.801   9.615   2.922  1.3241 -0.6248  0.1433
  239MOL0     H32206   4.572   9.491   2.936  0.1061 -0.9307 -1.0086
  239MOL0     H32207   4.707   9.380   2.911 -1.0979  0.3773 -0.5724
  239MOL0     H32208   4.713   9.321   3.138 -2.6462 -1.0628  1.1852
  239MOL0     H32209   4.589   9.444   3.182 -0.8312 -2.8067  2.0369
  239MOL0     H32210   4.461   9.312   2.992  0.5572  0.0443 -0.0212
  239MOL0     H32211   4.584   9.190   3.011  1.1415  0.7005  0.0067
  239MOL0     H32212   4.363   9.166   3.148 -0.1358 -2.1147  5.2195
  239MOL0     H32213   4.437   9.294   3.257  2.6682 -2.2204  2.8211
  239MOL0     H32214   4.629   9.137   3.288 -0.7911  4.9691 -2.5764
  239MOL0     H32215   4.485   9.064   3.343 -0.3921 -0.6022 -0.2753
  239MOL0     H32216   4.751   9.007   3.117 -0.7826  0.5285  1.1805
  239MOL0     H32217   4.661   8.677   2.941  0.5113  1.2918 -2.7706
  239MOL0     H32218   4.801   8.788   2.925  0.8203 -4.0023 -1.5726
  239MOL0     H32219   4.893   8.725   3.142 -0.1675 -1.6988  4.3613
  239MOL0     H32220   4.761   8.615   3.176 -0.4475  1.4511  0.5094
  239MOL0     H32221   4.940   8.580   2.931  0.1921  0.8010  0.0384
  239MOL0     H32222   4.826   8.465   3.010 -0.7292  0.8918 -3.2788
  239MOL0     H32223   5.055   8.401   3.075  0.0020 -0.9615  3.1722
  239MOL0     H32224   4.987   8.463   3.215  2.7083 -1.0887  1.3312
  239MOL0     H32225   5.239   8.370   3.248  0.4979  0.3157 -0.9760
  239MOL0     H32226   5.490   8.332   3.229  0.5470 -0.5246 -1.0623
  239MOL0     H32227   5.891   8.411   2.880  1.8454 -0.7826 -0.3732
  239MOL0     H32228   6.139   8.412   2.889  0.3696  0.3298 -1.0233
  239MOL0     H32229   6.331   8.712   2.966  3.1918  1.1814 -0.8381
  239MOL0     H32230   6.387   8.697   3.130  0.1759 -1.2118 -0.1690
  239MOL0     H32231   6.557   8.529   3.046 -3.3472 -0.0477  2.5451
  239MOL0     H32232   6.496   8.543   2.877  1.2724  3.1905 -1.2943
  239MOL0     H32233   6.540   8.755   2.856 -3.5389 -0.3508  1.5733
  239MOL0     H32234   6.592   8.771   3.024  3.6156 -0.0859 -0.5063
  239MOL0     H32235   6.713   8.608   2.793 -3.0893  0.6689 -0.3610
  239MOL0     H32236   6.769   8.604   2.964 -1.1804  0.5040  0.3669
  239MOL0     H32237   6.821   8.818   2.980  0.1374 -1.5437  1.0428
  239MOL0     H32238   6.753   8.870   2.825 -1.3422  0.2063  1.4876
  239MOL0     H32239   6.999   8.854   2.853  2.4092 -2.4529  2.3100
  239MOL0     H32240   6.989   8.682   2.841 -0.8485  0.1515  1.1639
  239MOL0     H32241   6.952   8.896   2.622 -2.8458  0.8861  0.1749
  239MOL0     H32242   6.854   8.759   2.611  0.2112 -2.0950  0.2215
  239MOL0     H32243   7.049   8.610   2.616 -4.2184  0.3658  1.1344
  239MOL0     H32244   7.048   8.712   2.482  1.1421 -1.1904  0.1749
  239MOL0     H32245   6.111   8.706   3.219 -3.3612  0.7602 -0.2340
  239MOL0     H32246   5.869   8.712   3.174  0.4607  1.2831 -0.5566
  239MOL0     H32247   5.515   8.672   2.984  0.4047 -0.8139  0.1235
  239MOL0     H32248   5.291   8.733   3.022  1.0283 -1.0475 -3.1838
  239MOL0     H32249   4.369   9.956   2.967 -0.1556 -1.2192  0.3877
  239MOL0     H32250   4.193  10.000   2.815 -0.3199 -2.5568  3.6304
  239MOL0     H32251   3.957  10.019   2.547  0.9114  1.5935 -0.1599
  239MOL0     H32252   3.737  10.037   2.446  1.3689 -0.4375  2.2307
  239MOL0     H32253   3.543  10.166   2.298  0.7203  0.1294  0.7650
  239MOL0     H32254   3.577   9.984   2.294 -0.5891 -1.6208 -2.8343
  239MOL0     H32255   3.513   9.974   2.063 -0.1944 -1.4122  1.7169
  239MOL0     H32256   3.464  10.146   2.060 -0.8503 -1.8808 -3.5781
  239MOL0     H32257   3.294  10.112   2.234  0.0250 -0.6749  1.0828
  239MOL0     H32258   3.353   9.967   2.278  0.6443  2.3552  0.9910
  239MOL0     H32259   3.263   9.849   2.095  3.5012  0.4165 -0.4667
  239MOL0     H32260   3.134   9.976   2.130 -1.9688  2.3492 -0.9398
  239MOL0     H32261   3.281  10.050   1.727 -0.0745  2.0718  0.6006
  239MOL0     H32262   3.928  10.074   2.056  1.4640 -0.6955  0.0824
  239MOL0     H32263   4.219   9.916   2.148 -1.5710 -1.3755 -1.7470
  239MOL0     H32264   4.127  10.012   2.025 -3.0740  1.2340  1.5458
  239MOL0     H32265   4.235  10.098   2.140  1.7435 -1.4832 -0.0957
  240MOL0     O32266   9.720   9.513   7.192  0.1116 -1.3203 -0.0066
  240MOL0     C32267   9.625   9.596   7.201 -0.4044  0.1442  0.0696
  240MOL0     O32268   9.640   9.735   7.185  0.7590  0.6528 -0.3031
  240MOL0     C32269   9.761   9.790   7.164  0.3752 -0.9295  1.1678
  240MOL0     C32270   9.825   9.772   7.041  0.6241 -0.1691 -0.4659
  240MOL0     C32271   9.951   9.842   7.024 -0.1113 -0.0391 -0.0846
  240MOL0     C32272  10.009   9.898   7.134  0.5175 -0.4373 -0.5869
  240MOL0     O32273  10.129   9.960   7.102 -0.0311  0.3913 -0.8354
  240MOL0     C32274  10.214   9.998   7.210 -0.1099 -0.7065 -0.2285
  240MOL0     C32275  10.352  10.048   7.160  0.0853  0.2913 -0.0475
  240MOL0     C32276  10.361  10.182   7.104 -0.1827 -0.6305  0.2690
  240MOL0     C32277  10.497  10.226   7.031 -0.3652 -0.1879 -0.4332
  240MOL0     C32278  10.546  10.366   7.075  0.0919 -0.4452  0.7473
  240MOL0     C32279  10.667  10.411   6.987  0.2515 -0.3452 -0.0034
  240MOL0     C32280  10.746  10.529   7.026  0.0716 -0.1176  0.0877
  240MOL0     C32281  10.838  10.478   7.143  0.2081 -0.0635 -0.4890
  240MOL0     N32282  10.947  10.396   7.092 -0.3303 -0.5171  0.2665
  240MOL0     C32283  11.038  10.436   6.999  0.3800 -0.9355 -0.2596
  240MOL0     C32284  11.119  10.327   6.967 -0.6104  0.6717  1.0498
  240MOL0     C32285  11.220  10.305   6.862 -0.6695  0.4577  0.0152
  240MOL0     C32286  11.237  10.169   6.800  0.6049  0.4205  0.5868
  240MOL0     C32287  11.303  10.062   6.890  1.0562  0.3229  0.2612
  240MOL0     C32288  11.441  10.098   6.945 -0.3967  0.5426  0.4990
  240MOL0     O32289  11.463  10.007   7.051  0.9112  0.2233 -0.6621
  240MOL0     C32290  11.559  10.035   7.148  0.1730  0.1961 -0.5915
  240MOL0     C32291  11.664  10.131   7.130  0.8221 -0.1601 -0.8294
  240MOL0     C32292  11.776  10.136   7.212 -0.6524 -0.5729  1.0034
  240MOL0     C32293  11.766  10.072   7.334 -0.9711  1.2321  0.6472
  240MOL0     C32294  11.865  10.103   7.437  0.1546  0.3693  0.5385
  240MOL0     O32295  11.842  10.058   7.566 -0.2918 -0.4668  0.3504
  240MOL0     C32296  11.929  10.088   7.668 -0.1484  0.6051 -0.1879
  240MOL0     C32297  11.866  10.141   7.776  0.6991  0.1388 -0.5420
  240MOL0     C32298  11.939  10.209   7.879  0.4390 -0.1899 -0.7033
  240MOL0     C32299  12.076  10.207   7.878 -1.2239  0.3574  0.0951
  240MOL0     O32300  12.145  10.273   7.981  0.1328 -0.2553 -0.6397
  240MOL0     C32301  12.287  10.238   7.991 -0.2442  0.4108  1.0986
  240MOL0     C32302  12.340  10.325   8.102  0.1819  0.3879 -0.4845
  240MOL0     C32303  12.472  10.279   8.171  0.3820  0.1418  1.1503
  240MOL0     C32304  12.492  10.340   8.313 -0.1274  0.4637  0.2809
  240MOL0     C32305  12.638  10.361   8.344  0.0074  0.6528 -0.3493
  240MOL0     C32306  12.724  10.232   8.339  1.0111  0.2005  0.1114
  240MOL0     C32307  12.860  10.262   8.412  0.1628  0.2449 -0.4405
  240MOL0     C32308  12.958  10.328   8.314  0.6500  0.0333  0.0634
  240MOL0    Cl32309  12.996  10.218   8.180 -0.1915 -0.1417  0.2386
  240MOL0     C32310  12.142  10.140   7.769 -0.1195 -0.1733  0.3116
  240MOL0     C32311  12.076  10.086   7.662 -0.5254  0.0230 -0.1853
  240MOL0     O32312  11.951  10.184   7.404  0.0855 -0.1680  0.5246
  240MOL0     C32313  11.666   9.968   7.358 -0.6582  0.7036  0.1512
  240MOL0     C32314  11.567   9.952   7.263  0.5889 -0.0773 -0.2022
  240MOL0     N32315  11.078  10.223   7.051 -0.7270  0.5300  0.3287
  240MOL0     N32316  10.982  10.269   7.122  0.9679  0.3059 -0.0729
  240MOL0     C32317   9.941   9.919   7.253  0.1669 -0.0810 -0.0876
  240MOL0     C32318   9.815   9.859   7.270 -1.6122 -0.4323 -0.6398
  240MOL0     C32319   9.498   9.541   7.232  0.3371 -0.1908  0.8034
  240MOL0     C32320   9.485   9.451   7.340 -0.5567  0.3165  0.2742
  240MOL0     C32321   9.362   9.402   7.383 -0.0093 -0.3005  0.2425
  240MOL0     C32322   9.244   9.442   7.326  0.1229  0.5404  0.3544
  240MOL0     O32323   9.130   9.387   7.380  0.7179  0.2625 -0.1523
  240MOL0     C32324   8.997   9.446   7.357 -0.5395 -0.0910 -0.1246
  240MOL0     C32325   8.937   9.382   7.236 -0.1687 -0.6704  0.5011
  240MOL0     C32326   8.802   9.443   7.200 -0.4650  0.2465  0.3001
  240MOL0     C32327   8.691   9.355   7.162 -0.3838 -0.3581 -0.7073
  240MOL0     C32328   8.635   9.292   7.281  0.4787  0.0609  0.7002
  240MOL0     C32329   8.565   9.229   7.363 -0.4749  0.5670  0.5611
  240MOL0     C32330   9.254   9.533   7.221 -0.3858  0.3670  0.3776
  240MOL0     C32331   9.379   9.566   7.161  0.1748  1.0030 -0.0426
  240MOL0     C32332   9.374   9.646   7.034 -0.0348  0.1212  0.6553
  240MOL0     H32333   9.780   9.715   6.960 -0.5326 -0.6869  0.5149
  240MOL0     H32334   9.999   9.835   6.927  0.5261 -0.1912  0.2363
  240MOL0     H32335  10.168  10.073   7.274  1.5567  0.8447 -0.7754
  240MOL0     H32336  10.225   9.905   7.268  0.2000 -0.8085 -0.4433
  240MOL0     H32337  10.398   9.975   7.094  2.2900 -1.4703  3.1374
  240MOL0     H32338  10.415  10.062   7.249 -0.9020  2.1067  0.4265
  240MOL0     H32339  10.358  10.246   7.193  3.7345 -2.7954  2.2554
  240MOL0     H32340  10.284  10.196   7.028  0.8697  2.2946 -0.4115
  240MOL0     H32341  10.568  10.147   7.057 -0.6855 -0.3043  0.1172
  240MOL0     H32342  10.489  10.216   6.922  1.8824  0.3022 -0.6784
  240MOL0     H32343  10.473  10.446   7.060  0.3761 -0.4584 -0.8770
  240MOL0     H32344  10.579  10.357   7.179 -2.6960 -0.3269  1.7429
  240MOL0     H32345  10.738  10.329   6.974  0.4074 -0.6811  2.4937
  240MOL0     H32346  10.630  10.424   6.885 -0.7980 -1.3871  0.2260
  240MOL0     H32347  10.689  10.618   7.055  1.4053  0.8846 -0.2546
  240MOL0     H32348  10.806  10.560   6.940 -0.9155 -1.5577 -1.1836
  240MOL0     H32349  10.879  10.568   7.189  2.1610  0.3610 -2.8671
  240MOL0     H32350  10.789  10.422   7.224  0.1699  0.0785 -0.4142
  240MOL0     H32351  11.039  10.534   6.952  0.4273 -0.6794  0.2671
  240MOL0     H32352  11.193  10.375   6.782 -1.9145  0.4797  0.4367
  240MOL0     H32353  11.316  10.347   6.894 -0.1730 -0.0710 -0.7296
  240MOL0     H32354  11.133  10.136   6.790  1.7014 -4.5744  2.7271
  240MOL0     H32355  11.293  10.173   6.705  1.5287  0.8110  1.1331
  240MOL0     H32356  11.311   9.974   6.826  3.0565 -0.6395  1.7101
  240MOL0     H32357  11.241  10.032   6.974  1.0396  0.5747  0.3406
  240MOL0     H32358  11.455  10.201   6.979  0.4340  0.5997 -0.0035
  240MOL0     H32359  11.519  10.087   6.869 -1.8676 -2.6382 -0.7001
  240MOL0     H32360  11.658  10.203   7.049  0.7294  0.1856 -0.5189
  240MOL0     H32361  11.856  10.205   7.186 -0.9157 -1.0015 -1.1470
  240MOL0     H32362  11.758  10.155   7.779  0.1910 -3.1635  2.2135
  240MOL0     H32363  11.894  10.263   7.962  3.3930 -1.9643  2.3487
  240MOL0     H32364  12.298  10.131   8.014 -0.7302  0.4772  1.6686
  240MOL0     H32365  12.325  10.272   7.895 -0.9671  2.5532  1.5123
  240MOL0     H32366  12.343  10.428   8.064  2.3121 -0.3406 -2.5173
  240MOL0     H32367  12.262  10.314   8.178  0.7266 -0.9835 -0.0957
  240MOL0     H32368  12.477  10.170   8.173  1.2761  0.1126 -0.9248
  240MOL0     H32369  12.558  10.313   8.113 -1.0443  0.7163 -0.7137
  240MOL0     H32370  12.452  10.268   8.385 -2.4446  1.5810  0.2203
  240MOL0     H32371  12.436  10.433   8.325 -0.3367  0.1376  2.2488
  240MOL0     H32372  12.641  10.394   8.449  0.9007  2.3914 -0.8726
  240MOL0     H32373  12.681  10.437   8.278 -0.1080  1.4315  0.4556
  240MOL0     H32374  12.676  10.153   8.397 -0.3725 -1.8731 -3.4954
  240MOL0     H32375  12.742  10.201   8.236  2.2939 -1.4797  0.7982
  240MOL0     H32376  12.909  10.173   8.453 -0.6636 -0.6841 -1.4097
  240MOL0     H32377  12.850  10.341   8.488 -3.5909  1.9043 -2.3840
  240MOL0     H32378  12.911  10.416   8.268  1.5316 -0.2612 -1.4498
  240MOL0     H32379  13.050  10.354   8.368  1.1582  1.6868 -1.5051
  240MOL0     H32380  12.248  10.119   7.768 -0.3885 -1.6995  0.0406
  240MOL0     H32381  12.132  10.038   7.582 -1.1534 -1.4717  0.2434
  240MOL0     H32382  11.664   9.906   7.447 -0.4103  3.0845  1.9149
  240MOL0     H32383  11.514   9.859   7.278 -0.6524  0.9324  2.4733
  240MOL0     H32384   9.981   9.968   7.341 -0.6355  0.2324  0.1125
  240MOL0     H32385   9.752   9.866   7.358 -2.6445 -2.2819 -1.1611
  240MOL0     H32386   9.572   9.419   7.397 -2.7431 -2.7199  2.2429
  240MOL0     H32387   9.350   9.334   7.467 -1.3622 -0.2562  0.1054
  240MOL0     H32388   9.021   9.552   7.343  0.2992  0.2706  3.1910
  240MOL0     H32389   8.928   9.423   7.439  0.9960 -2.5997  0.5951
  240MOL0     H32390   8.935   9.274   7.254  1.1151 -0.7224  0.4215
  240MOL0     H32391   9.009   9.396   7.155 -3.3967 -0.0083 -2.4725
  240MOL0     H32392   8.823   9.514   7.120  2.2283  0.3906  1.0097
  240MOL0     H32393   8.764   9.511   7.277 -1.2515  2.7757 -2.1913
  240MOL0     H32394   8.618   9.419   7.111 -0.2038  0.4863  0.0654
  240MOL0     H32395   8.717   9.283   7.084 -0.0094  0.3436 -1.2357
  240MOL0     H32396   8.522   9.188   7.452  1.7134 -3.1070  0.1587
  240MOL0     H32397   9.164   9.558   7.165  0.8303 -0.5988 -2.2021
  240MOL0     H32398   9.275   9.660   6.991  0.3087  3.2410  0.6272
  240MOL0     H32399   9.413   9.745   7.060  2.4145 -0.9362  1.3508
  240MOL0     H32400   9.440   9.597   6.961 -0.3964  0.2711  0.2271
  241MOL0     O32401   9.688   8.200   9.131  0.3721 -0.3710 -0.1469
  241MOL0     C32402   9.624   8.217   9.239 -0.5482 -0.4829 -0.1602
  241MOL0     O32403   9.677   8.182   9.366  0.0912 -0.0702  0.1460
  241MOL0     C32404   9.815   8.169   9.379  0.0627  0.4194 -0.8515
  241MOL0     C32405   9.897   8.280   9.372  0.4598 -0.5269 -0.0985
  241MOL0     C32406  10.033   8.256   9.398  0.2098 -0.4231 -0.3731
  241MOL0     C32407  10.080   8.128   9.428 -1.0191 -1.0631  0.9672
  241MOL0     O32408  10.210   8.100   9.455 -0.0759  0.4161  0.3728
  241MOL0     C32409  10.306   8.203   9.478 -0.1005 -0.3717 -0.2309
  241MOL0     C32410  10.445   8.161   9.519  0.0906 -0.1930  0.1646
  241MOL0     C32411  10.494   8.025   9.451  0.5390 -0.4401  0.8201
  241MOL0     C32412  10.608   7.965   9.531  0.2413 -1.4185 -0.0442
  241MOL0     C32413  10.658   7.834   9.494 -0.2737  0.2181  0.0420
  241MOL0     C32414  10.664   7.800   9.336 -0.1775 -0.8864 -0.0504
  241MOL0     C32415  10.755   7.681   9.319 -0.8697  0.0429  0.2048
  241MOL0     C32416  10.741   7.621   9.178 -1.1557  0.3425 -0.1728
  241MOL0     N32417  10.872   7.557   9.143  0.5786  0.1293 -0.2571
  241MOL0     C32418  10.984   7.625   9.105  0.3437 -0.1268  0.2063
  241MOL0     C32419  11.078   7.525   9.101 -0.7010 -0.9324  0.1382
  241MOL0     C32420  11.223   7.539   9.073 -0.2773  0.5180 -0.1909
  241MOL0     C32421  11.308   7.515   9.192 -0.1647  0.8877  0.2160
  241MOL0     C32422  11.457   7.524   9.145 -0.8909  0.8094  0.4622
  241MOL0     C32423  11.495   7.390   9.079  0.9887 -0.2522 -0.6338
  241MOL0     O32424  11.639   7.380   9.090  0.2287  0.0779  0.1934
  241MOL0     C32425  11.698   7.337   9.200 -1.0022 -0.4030 -0.3458
  241MOL0     C32426  11.833   7.326   9.193  0.5920 -0.9031 -0.5704
  241MOL0     C32427  11.906   7.277   9.299 -0.0443  0.0642 -0.8081
  241MOL0     C32428  11.839   7.236   9.418  0.1334  0.2053 -0.0277
  241MOL0     C32429  11.913   7.181   9.535  0.2825  0.0045 -0.1249
  241MOL0     O32430  12.041   7.154   9.513 -0.7567  0.5537 -0.1246
  241MOL0     C32431  12.127   7.105   9.612  0.0203 -0.1294 -0.2352
  241MOL0     C32432  12.120   7.136   9.746 -0.6891 -0.3659  0.1116
  241MOL0     C32433  12.199   7.072   9.839  0.2465 -0.0050 -0.3507
  241MOL0     C32434  12.288   6.979   9.804 -0.2180 -0.0415  0.2409
  241MOL0     O32435  12.382   6.922   9.883 -0.0599  0.1019  0.2482
  241MOL0     C32436  12.383   6.955  10.027 -0.1828  0.4784  0.1074
  241MOL0     C32437  12.500   6.880  10.098  0.2904  0.6277  0.4806
  241MOL0     C32438  12.516   6.732  10.064 -0.3757 -0.3977 -1.0589
  241MOL0     C32439  12.642   6.678  10.114 -0.2175 -0.3641 -1.2184
  241MOL0     C32440  12.764   6.726  10.044 -0.1306  0.4259  0.8614
  241MOL0     C32441  12.889   6.750  10.128  0.5077  0.5466  0.2045
  241MOL0     C32442  13.017   6.766  10.034  0.2279  0.5614  0.3054
  241MOL0     C32443  13.157   6.781  10.108 -0.1768 -0.0341  1.0848
  241MOL0    Cl32444  13.198   6.631  10.211 -0.6523 -0.1714 -0.1513
  241MOL0     C32445  12.300   6.949   9.670 -0.6433 -0.1245 -0.8295
  241MOL0     C32446  12.219   7.008   9.569 -0.0213 -0.4113 -0.5490
  241MOL0     O32447  11.852   7.159   9.634 -0.1325 -0.1611  0.1951
  241MOL0     C32448  11.702   7.254   9.422 -0.4877 -0.4110  0.7385
  241MOL0     C32449  11.629   7.304   9.317  0.3575  0.5616  0.3947
  241MOL0     N32450  11.022   7.405   9.142  0.1788  0.1234 -0.2229
  241MOL0     N32451  10.905   7.428   9.172  0.1861 -0.6891 -0.0391
  241MOL0     C32452   9.998   8.018   9.425 -0.4348  0.8628 -0.0734
  241MOL0     C32453   9.861   8.032   9.409  0.7303 -0.4066 -0.1446
  241MOL0     C32454   9.482   8.256   9.229  0.8692 -0.5674 -0.4040
  241MOL0     C32455   9.437   8.298   9.098 -0.8773 -0.3881  0.0211
  241MOL0     C32456   9.310   8.354   9.086 -0.5284  0.6399  0.3089
  241MOL0     C32457   9.221   8.358   9.195 -0.8691 -0.2254  0.2611
  241MOL0     O32458   9.096   8.401   9.190  0.6381  0.2760 -0.4345
  241MOL0     C32459   9.031   8.408   9.057  0.3536 -0.6828 -0.0065
  241MOL0     C32460   8.882   8.430   9.079 -0.0070 -0.5752 -0.9323
  241MOL0     C32461   8.818   8.313   9.145  0.4034 -0.5865 -0.3897
  241MOL0     C32462   8.671   8.337   9.186  0.7306 -0.9837  0.4854
  241MOL0     C32463   8.592   8.348   9.069  0.4114 -1.3157  1.0678
  241MOL0     C32464   8.531   8.359   8.961  0.5433  0.3707 -0.5172
  241MOL0     C32465   9.259   8.317   9.321  0.6539  0.4928  0.5409
  241MOL0     C32466   9.386   8.259   9.333 -0.3834 -0.5331 -0.8348
  241MOL0     C32467   9.412   8.191   9.459 -0.1728  0.8787 -0.2455
  241MOL0     H32468   9.867   8.384   9.361  1.3592 -0.0581  1.4696
  241MOL0     H32469  10.105   8.337   9.399 -1.0305  0.8312 -2.6879
  241MOL0     H32470  10.311   8.265   9.388  0.5661  0.2186  0.2006
  241MOL0     H32471  10.258   8.277   9.543 -0.7216  3.1554 -4.2413
  241MOL0     H32472  10.438   8.137   9.625  0.3980 -1.2148 -0.0354
  241MOL0     H32473  10.517   8.242   9.504  0.5343 -0.8315 -1.4359
  241MOL0     H32474  10.534   8.041   9.350  0.7870 -0.6387  0.8864
  241MOL0     H32475  10.416   7.948   9.446  1.4458 -1.3014 -1.9923
  241MOL0     H32476  10.683   8.045   9.529 -3.0559  1.9180 -1.3620
  241MOL0     H32477  10.582   7.965   9.637 -0.6395 -1.5404 -0.2561
  241MOL0     H32478  10.758   7.815   9.534  0.5671 -0.1919 -2.1304
  241MOL0     H32479  10.584   7.770   9.544  1.2445 -1.4294  0.3012
  241MOL0     H32480  10.566   7.769   9.297 -1.3176  0.5016  1.5233
  241MOL0     H32481  10.703   7.881   9.274 -0.5906  0.0965  0.9305
  241MOL0     H32482  10.721   7.616   9.400 -1.8514  0.7011  0.3387
  241MOL0     H32483  10.861   7.707   9.332 -0.3841 -1.0405 -1.2329
  241MOL0     H32484  10.657   7.552   9.172 -0.6308 -0.2561 -0.7696
  241MOL0     H32485  10.737   7.699   9.101  0.9490 -1.1652 -1.9418
  241MOL0     H32486  10.993   7.733   9.099  4.0631 -0.1242  2.6933
  241MOL0     H32487  11.248   7.471   8.991  0.2637  0.9028 -0.3473
  241MOL0     H32488  11.242   7.644   9.048  1.3064  0.0817 -0.9223
  241MOL0     H32489  11.285   7.585   9.272  0.3481  0.5324  0.6785
  241MOL0     H32490  11.285   7.421   9.243  1.5834  0.8406  1.0073
  241MOL0     H32491  11.504   7.540   9.242  1.2754  2.0561 -0.6993
  241MOL0     H32492  11.477   7.606   9.075 -0.7465  1.0993  0.8423
  241MOL0     H32493  11.453   7.387   8.978  0.1922  0.0660 -0.3216
  241MOL0     H32494  11.447   7.308   9.133  0.5624  0.8291  0.6789
  241MOL0     H32495  11.890   7.341   9.101 -1.2884  0.9479 -1.5189
  241MOL0     H32496  12.008   7.241   9.283  0.0158 -0.3474  0.3536
  241MOL0     H32497  12.052   7.219   9.762  1.6713  1.8539 -0.8747
  241MOL0     H32498  12.188   7.092   9.945  1.2169 -0.7770 -0.0792
  241MOL0     H32499  12.400   7.063  10.027  0.2008  0.4884 -2.8858
  241MOL0     H32500  12.287   6.923  10.071 -1.2521  2.6136 -0.5229
  241MOL0     H32501  12.591   6.940  10.091 -2.0829  4.7638  1.5281
  241MOL0     H32502  12.473   6.884  10.204 -1.2624 -3.3311  0.4054
  241MOL0     H32503  12.439   6.680  10.122 -1.5034  2.0050 -0.2957
  241MOL0     H32504  12.515   6.732   9.955 -0.4844  1.7237 -1.1035
  241MOL0     H32505  12.650   6.570  10.106  4.1892 -0.4717  1.4637
  241MOL0     H32506  12.650   6.689  10.222 -1.1364 -0.7534 -1.1011
  241MOL0     H32507  12.751   6.819   9.988  2.8330  1.5667  1.9003
  241MOL0     H32508  12.788   6.650   9.969  0.8381  1.3873  0.1652
  241MOL0     H32509  12.883   6.838  10.191  1.7033  0.2936  0.6936
  241MOL0     H32510  12.890   6.659  10.189 -0.5076 -0.9395 -1.8495
  241MOL0     H32511  12.999   6.857   9.975 -1.9196  0.0367  0.0563
  241MOL0     H32512  13.033   6.684   9.963 -0.1589 -0.8267  1.7686
  241MOL0     H32513  13.235   6.788  10.033 -0.3264 -2.0941  0.6864
  241MOL0     H32514  13.156   6.861  10.183  1.4358  0.4278  0.6492
  241MOL0     H32515  12.371   6.872   9.642 -2.7046 -1.6378 -2.1528
  241MOL0     H32516  12.212   6.967   9.469 -4.0725  0.3893 -0.7832
  241MOL0     H32517  11.650   7.224   9.512  2.7806  0.5142  3.1265
  241MOL0     H32518  11.522   7.320   9.326  0.2017  1.8526 -2.6416
  241MOL0     H32519  10.029   7.922   9.466 -1.7149  0.9261  1.1595
  241MOL0     H32520   9.797   7.947   9.427 -1.2698 -0.0168 -4.3475
  241MOL0     H32521   9.509   8.291   9.017  2.7902  1.6143  2.7868
  241MOL0     H32522   9.294   8.382   8.982  2.6912 -2.6359 -1.2724
  241MOL0     H32523   9.042   8.314   9.003  0.4194  1.2511 -3.6719
  241MOL0     H32524   9.063   8.494   8.997 -0.7220  0.9261  1.5967
  241MOL0     H32525   8.845   8.440   8.976 -0.4664  1.2182 -0.6279
  241MOL0     H32526   8.859   8.517   9.141 -1.4107 -0.6303 -1.3254
  241MOL0     H32527   8.876   8.294   9.236 -0.9851  0.8296  0.8201
  241MOL0     H32528   8.824   8.231   9.072  3.5172  0.5613 -1.6315
  241MOL0     H32529   8.639   8.251   9.245  0.7081 -2.0641 -1.0601
  241MOL0     H32530   8.648   8.422   9.251  0.1280  0.3032 -1.3335
  241MOL0     H32531   8.499   8.364   8.859 -1.3821 -0.8436 -0.0382
  241MOL0     H32532   9.186   8.312   9.400  1.3304 -1.1443  1.1111
  241MOL0     H32533   9.503   8.216   9.514  0.0901  0.3240 -0.4252
  241MOL0     H32534   9.323   8.183   9.523 -1.1044 -2.0013 -1.7328
  241MOL0     H32535   9.428   8.089   9.425  1.1963  2.1433 -3.8776
  242MOL0     O32536   0.924   3.019   6.686 -0.2671  0.0188 -0.2912
  242MOL0     C32537   0.917   3.130   6.727  0.8642 -0.1726  0.6291
  242MOL0     O32538   1.029   3.221   6.734  0.2324  0.1533 -0.1897
  242MOL0     C32539   1.142   3.185   6.677  0.5954  0.3666  0.3297
  242MOL0     C32540   1.202   3.268   6.584  1.1152  0.2173  0.7858
  242MOL0     C32541   1.326   3.230   6.527 -0.5754  0.0309  0.9636
  242MOL0     C32542   1.388   3.108   6.563 -0.3997 -0.2874  0.4141
  242MOL0     O32543   1.506   3.077   6.502  0.7316  0.6410 -0.0269
  242MOL0     C32544   1.610   3.046   6.604  0.5220  0.0367  0.9429
  242MOL0     C32545   1.745   3.030   6.526 -0.5315 -0.1307  0.2443
  242MOL0     C32546   1.761   2.897   6.459  0.2172  0.3642  0.0859
  242MOL0     C32547   1.895   2.858   6.411 -0.4922  0.2759  0.2507
  242MOL0     C32548   1.991   2.826   6.532 -0.1031 -0.0915 -0.3295
  242MOL0     C32549   2.069   2.946   6.584 -0.5662 -0.7728  0.4422
  242MOL0     C32550   2.175   2.901   6.687  1.0219  0.9527 -0.1710
  242MOL0     C32551   2.295   2.994   6.679 -0.1014 -0.5294  0.4396
  242MOL0     N32552   2.366   3.011   6.806 -0.0029  0.4432 -0.1285
  242MOL0     C32553   2.307   3.069   6.911  0.7278  0.7010 -0.5743
  242MOL0     C32554   2.364   3.006   7.012 -0.1521 -0.2277  0.1235
  242MOL0     C32555   2.326   3.029   7.155  0.1113  0.8734  0.7243
  242MOL0     C32556   2.187   2.980   7.174  0.0009 -0.7766 -0.5374
  242MOL0     C32557   2.145   3.025   7.314  0.1532 -0.8110  0.3898
  242MOL0     C32558   2.116   3.176   7.323 -0.1360 -0.0254  0.1033
  242MOL0     O32559   2.009   3.204   7.419 -0.1215  0.5462  0.1490
  242MOL0     C32560   2.045   3.248   7.542  0.5080  0.1943 -0.5536
  242MOL0     C32561   2.182   3.252   7.596  0.1095  1.0126  0.0189
  242MOL0     C32562   2.218   3.306   7.722  0.2961  1.2887  0.3966
  242MOL0     C32563   2.119   3.371   7.804 -0.2868  0.1824  0.9042
  242MOL0     C32564   2.139   3.439   7.932  0.1782  0.1522 -0.4067
  242MOL0     O32565   2.026   3.472   8.013  0.0175 -0.4417  0.5464
  242MOL0     C32566   2.040   3.545   8.123 -0.0204 -0.1524  0.3004
  242MOL0     C32567   2.105   3.666   8.117 -0.1897 -0.1033  0.4541
  242MOL0     C32568   2.103   3.736   8.238  0.2151 -0.0981  0.1536
  242MOL0     C32569   2.036   3.696   8.348  0.0794 -0.0137 -0.0249
  242MOL0     O32570   2.041   3.762   8.472 -0.0147 -0.1191  0.8000
  242MOL0     C32571   1.914   3.831   8.497 -0.1069  0.8260 -0.0613
  242MOL0     C32572   1.877   3.822   8.644 -0.4808  0.1535  0.7277
  242MOL0     C32573   1.856   3.671   8.692  0.2221  0.2738 -0.5863
  242MOL0     C32574   1.756   3.682   8.805 -0.1268  0.0285  0.2462
  242MOL0     C32575   1.740   3.540   8.866 -0.5544 -0.1824  0.0136
  242MOL0     C32576   1.629   3.567   8.981 -0.2993  0.7019 -0.0956
  242MOL0     C32577   1.619   3.445   9.070 -0.2937  0.8310 -0.1135
  242MOL0     C32578   1.502   3.454   9.167 -0.6518 -0.7659  0.4499
  242MOL0    Cl32579   1.343   3.405   9.105  0.1584 -0.6178  0.1337
  242MOL0     C32580   1.971   3.571   8.346 -0.1330 -0.0616 -0.0460
  242MOL0     C32581   1.982   3.490   8.239 -0.1001 -0.3585  0.6574
  242MOL0     O32582   2.256   3.457   7.964  0.4324  0.1205 -0.5097
  242MOL0     C32583   1.989   3.361   7.750 -0.0496  1.0942 -0.2818
  242MOL0     C32584   1.948   3.301   7.628 -0.2985  0.1691  0.5045
  242MOL0     N32585   2.458   2.917   6.974 -0.2876  0.3872 -0.2948
  242MOL0     N32586   2.448   2.914   6.850  0.6888 -0.1092 -0.0618
  242MOL0     C32587   1.317   3.022   6.650 -0.2467 -0.2487  0.0477
  242MOL0     C32588   1.205   3.065   6.713  0.4422  0.6501 -0.1503
  242MOL0     C32589   0.782   3.180   6.772 -0.4723 -0.0117  0.2221
  242MOL0     C32590   0.778   3.297   6.846  0.8678  0.2064  0.5007
  242MOL0     C32591   0.656   3.359   6.872  0.0048  0.2458 -0.6369
  242MOL0     C32592   0.534   3.309   6.824 -0.5573 -0.4780 -0.4045
  242MOL0     O32593   0.415   3.371   6.859 -0.0989  0.3700  0.0724
  242MOL0     C32594   0.307   3.374   6.758 -0.1603  0.7085 -0.0712
  242MOL0     C32595   0.187   3.453   6.794  0.9595  0.2595  0.7094
  242MOL0     C32596   0.223   3.604   6.829 -0.1358  0.1403 -0.3579
  242MOL0     C32597   0.104   3.696   6.849  0.1287  0.6483  0.7720
  242MOL0     C32598   0.146   3.826   6.900  0.5436  0.6018 -0.1876
  242MOL0     C32599   0.183   3.931   6.943  1.4740 -0.3003  0.6379
  242MOL0     C32600   0.541   3.188   6.762  1.0144 -0.8123  0.3186
  242MOL0     C32601   0.659   3.123   6.730  0.0335  0.0269  0.4335
  242MOL0     C32602   0.647   2.994   6.655 -0.2053  0.0607 -1.2457
  242MOL0     H32603   1.149   3.358   6.554 -3.5037 -2.6052 -0.5789
  242MOL0     H32604   1.360   3.302   6.454 -1.0424  1.1410  1.8153
  242MOL0     H32605   1.628   3.135   6.664  1.2654  0.3226  0.3174
  242MOL0     H32606   1.586   2.954   6.658 -0.1743  1.0559  2.4333
  242MOL0     H32607   1.835   3.059   6.580  1.0515 -0.9264 -1.8380
  242MOL0     H32608   1.753   3.101   6.443  0.0464  1.3823  1.5582
  242MOL0     H32609   1.687   2.884   6.380  0.5021 -0.3804 -0.0661
  242MOL0     H32610   1.746   2.818   6.534  2.4107  0.9641  1.2402
  242MOL0     H32611   1.893   2.780   6.334  1.0431  0.6909 -0.2376
  242MOL0     H32612   1.931   2.941   6.350  3.8144 -0.9334  0.8514
  242MOL0     H32613   1.929   2.782   6.611 -1.2086 -1.2008 -1.7702
  242MOL0     H32614   2.058   2.754   6.485  1.7637  2.7217 -2.3107
  242MOL0     H32615   2.117   2.992   6.497  1.4536 -2.6899  0.4393
  242MOL0     H32616   2.014   3.029   6.628  1.4926  0.7349  0.3377
  242MOL0     H32617   2.199   2.799   6.658 -0.3297  1.1867 -2.3861
  242MOL0     H32618   2.126   2.907   6.785  0.4900  2.7736 -0.5082
  242MOL0     H32619   2.360   2.955   6.600 -0.7383 -0.9569  0.1149
  242MOL0     H32620   2.249   3.091   6.656  1.0614 -0.4247 -1.6799
  242MOL0     H32621   2.216   3.128   6.921 -0.0389 -0.3493 -1.1875
  242MOL0     H32622   2.391   2.974   7.224  1.7336  0.8989 -0.7079
  242MOL0     H32623   2.338   3.135   7.176  0.4229  1.1309 -0.6775
  242MOL0     H32624   2.115   3.012   7.097 -0.8382 -0.8987  0.1842
  242MOL0     H32625   2.191   2.871   7.173 -1.0197 -0.8846  1.6344
  242MOL0     H32626   2.223   2.999   7.386  0.0771  1.7937  1.5380
  242MOL0     H32627   2.071   2.968   7.371  0.9100 -1.6139  0.5864
  242MOL0     H32628   2.080   3.213   7.227  0.0486 -0.4686 -0.1369
  242MOL0     H32629   2.207   3.227   7.355 -0.8064 -1.0476  4.1820
  242MOL0     H32630   2.262   3.201   7.543  0.4661 -0.3937  1.8265
  242MOL0     H32631   2.326   3.305   7.733  0.3153 -0.1702  0.2094
  242MOL0     H32632   2.150   3.705   8.026 -0.9504  0.1519  0.1834
  242MOL0     H32633   2.148   3.835   8.236  1.3952 -0.5342  2.3236
  242MOL0     H32634   1.922   3.938   8.476 -0.7172  0.6922 -1.0479
  242MOL0     H32635   1.830   3.797   8.436  0.5212  2.1133 -1.7212
  242MOL0     H32636   1.957   3.872   8.699 -0.2651  0.2966  0.2868
  242MOL0     H32637   1.785   3.878   8.667 -0.3893  0.6779 -0.1634
  242MOL0     H32638   1.806   3.611   8.616  0.1160 -2.3693  1.4222
  242MOL0     H32639   1.951   3.622   8.716  0.3636  1.8833  2.7734
  242MOL0     H32640   1.660   3.719   8.766 -0.4667 -1.6637 -0.6134
  242MOL0     H32641   1.794   3.748   8.883  2.2720 -1.2619  0.2566
  242MOL0     H32642   1.833   3.511   8.916  0.3170  1.5570 -0.5058
  242MOL0     H32643   1.716   3.465   8.790  1.9368  1.7668 -2.9460
  242MOL0     H32644   1.648   3.652   9.046 -3.9456  0.1477  1.9423
  242MOL0     H32645   1.532   3.582   8.932 -2.1109 -2.0462  2.2984
  242MOL0     H32646   1.709   3.439   9.131 -0.8680  2.6711  0.9825
  242MOL0     H32647   1.612   3.352   9.012  3.1008  0.0996  0.4346
  242MOL0     H32648   1.525   3.387   9.250 -4.0063  0.4147  2.5410
  242MOL0     H32649   1.489   3.548   9.221  1.4945 -1.1259  1.7284
  242MOL0     H32650   1.911   3.532   8.428 -1.3573  0.6495 -0.5661
  242MOL0     H32651   1.940   3.390   8.235 -4.2213  1.2250 -1.0431
  242MOL0     H32652   1.907   3.402   7.808  1.4909  0.3915  2.6425
  242MOL0     H32653   1.846   3.302   7.591  0.6342  0.7539 -2.2400
  242MOL0     H32654   1.367   2.935   6.692  1.2250  1.6407  2.5500
  242MOL0     H32655   1.150   3.001   6.781  1.8547 -1.2655 -0.7151
  242MOL0     H32656   0.866   3.337   6.896 -2.2943  2.0845  5.2809
  242MOL0     H32657   0.642   3.443   6.939 -1.8789 -1.9285  1.8998
  242MOL0     H32658   0.276   3.270   6.747  0.5541  0.3609  1.0228
  242MOL0     H32659   0.343   3.414   6.663 -0.7607  2.4006  0.3698
  242MOL0     H32660   0.138   3.405   6.880  2.3247 -0.8662  0.9011
  242MOL0     H32661   0.106   3.447   6.721 -1.9913  1.7170  3.6047
  242MOL0     H32662   0.293   3.638   6.752  2.1305 -0.6354  1.2108
  242MOL0     H32663   0.287   3.603   6.918 -0.2884  1.6481 -0.1895
  242MOL0     H32664   0.049   3.707   6.755  4.0395  0.4614 -1.7922
  242MOL0     H32665   0.040   3.642   6.918 -0.5079 -0.2193 -0.4718
  242MOL0     H32666   0.208   4.024   6.990 -1.1736  2.3187 -2.6206
  242MOL0     H32667   0.448   3.140   6.734  1.2816  0.3090 -2.8274
  242MOL0     H32668   0.701   2.915   6.706  3.0930  2.4875 -0.6567
  242MOL0     H32669   0.542   2.972   6.630 -0.2311 -1.1051 -0.2246
  242MOL0     H32670   0.693   3.008   6.557  1.4300  3.3367 -0.1744
  243MOL0     O32671   5.283   9.046   5.365 -0.4511  0.6207 -0.0459
  243MOL0     C32672   5.326   9.161   5.355  0.3433  0.7716 -0.6209
  243MOL0     O32673   5.263   9.272   5.395  0.6451  0.7914 -0.0502
  243MOL0     C32674   5.122   9.264   5.387 -0.5294  0.5923 -0.0320
  243MOL0     C32675   5.037   9.213   5.481 -0.0011 -0.0804 -1.3419
  243MOL0     C32676   4.898   9.206   5.479 -0.3774 -0.0862  0.1105
  243MOL0     C32677   4.831   9.241   5.362 -0.0457  0.1672 -0.1055
  243MOL0     O32678   4.686   9.239   5.351  0.0418  0.0925 -0.6804
  243MOL0     C32679   4.602   9.271   5.467  0.8975  0.8299  0.2210
  243MOL0     C32680   4.457   9.234   5.443 -0.0996 -0.1914  0.1014
  243MOL0     C32681   4.381   9.327   5.349  0.4260 -0.9265  0.1370
  243MOL0     C32682   4.232   9.339   5.396 -0.4597 -0.6723  0.2216
  243MOL0     C32683   4.155   9.452   5.311  0.8148  0.2550 -0.5610
  243MOL0     C32684   4.013   9.488   5.358 -0.2072 -0.0767 -0.2810
  243MOL0     C32685   3.945   9.572   5.243 -0.0059  0.4025  0.5106
  243MOL0     C32686   3.797   9.572   5.245  0.7440 -0.5149  0.1646
  243MOL0     N32687   3.737   9.634   5.127  0.0003 -0.5463 -0.1731
  243MOL0     C32688   3.594   9.651   5.127  0.2983  0.0388  0.9274
  243MOL0     C32689   3.579   9.740   5.017  0.5428 -0.3851 -0.3842
  243MOL0     C32690   3.443   9.764   4.954 -0.8658  0.3179 -0.3026
  243MOL0     C32691   3.356   9.855   5.041 -0.5961 -1.2189  0.2011
  243MOL0     C32692   3.415   9.989   5.090 -0.2289 -0.1834 -0.0839
  243MOL0     C32693   3.322  10.104   5.120 -0.9232 -0.3431  0.0133
  243MOL0     O32694   3.283  10.160   4.997  0.0384 -0.0844  0.8804
  243MOL0     C32695   3.299  10.294   4.974 -0.3510 -0.2232  0.2436
  243MOL0     C32696   3.411  10.339   4.899 -0.2788 -0.2494 -0.2335
  243MOL0     C32697   3.423  10.476   4.860 -0.2909  0.3884  0.0777
  243MOL0     C32698   3.332  10.571   4.896  0.1121  0.3866 -0.6065
  243MOL0     C32699   3.349  10.717   4.861  0.1329  0.0679  0.5601
  243MOL0     O32700   3.247  10.801   4.897 -0.6654  0.4039 -0.0162
  243MOL0     C32701   3.258  10.938   4.871  0.6728  0.7593 -0.8841
  243MOL0     C32702   3.306  10.987   4.747  0.1347  0.6860  0.4765
  243MOL0     C32703   3.311  11.125   4.720 -0.2133  0.1683 -0.6758
  243MOL0     C32704   3.260  11.214   4.816 -0.7004 -0.2091 -0.5904
  243MOL0     O32705   3.254  11.352   4.793  0.0947  0.6803  0.1628
  243MOL0     C32706   3.365  11.407   4.722  0.8066  0.6528 -0.7780
  243MOL0     C32707   3.365  11.549   4.757  0.5660 -0.5236 -0.6644
  243MOL0     C32708   3.441  11.637   4.656  0.8540 -0.0083 -0.3501
  243MOL0     C32709   3.431  11.792   4.690  0.2740  0.4769 -0.0728
  243MOL0     C32710   3.453  11.871   4.563  0.6349  0.5111  0.5863
  243MOL0     C32711   3.602  11.865   4.523  0.2162 -0.6736 -0.6421
  243MOL0     C32712   3.707  11.933   4.612  0.1320 -0.1982  0.8471
  243MOL0     C32713   3.707  12.092   4.595 -0.3481 -0.1631 -0.0760
  243MOL0    Cl32714   3.846  12.159   4.696 -0.1179  0.7645  0.1564
  243MOL0     C32715   3.205  11.162   4.941  0.4314 -0.2641  0.2656
  243MOL0     C32716   3.204  11.025   4.963 -0.8607  1.3684 -0.4343
  243MOL0     O32717   3.451  10.750   4.801 -0.6598  0.3823  0.4342
  243MOL0     C32718   3.223  10.521   4.982  0.4838  0.3590 -0.5737
  243MOL0     C32719   3.204  10.387   5.013  0.2439  0.8177  0.3288
  243MOL0     N32720   3.702   9.779   4.968  0.0807 -0.0554  0.3961
  243MOL0     N32721   3.795   9.721   5.049  0.6545  0.1032  0.2546
  243MOL0     C32722   4.917   9.292   5.260  0.1696 -0.6597  0.3235
  243MOL0     C32723   5.060   9.302   5.270 -0.0503 -0.4045 -0.2680
  243MOL0     C32724   5.463   9.180   5.305  0.6342  0.0687  0.0353
  243MOL0     C32725   5.520   9.302   5.335  0.0248  0.1515  0.2953
  243MOL0     C32726   5.660   9.331   5.307  0.4808  0.6309  0.3262
  243MOL0     C32727   5.741   9.235   5.246 -1.1690  0.0695 -0.2784
  243MOL0     O32728   5.880   9.256   5.228 -0.1974  0.0967  0.0308
  243MOL0     C32729   5.942   9.376   5.279  0.0093  0.6727  0.1857
  243MOL0     C32730   6.089   9.367   5.244  0.1084  0.8962  0.6533
  243MOL0     C32731   6.170   9.260   5.319 -0.5326 -0.5753  0.0911
  243MOL0     C32732   6.322   9.268   5.341  0.3985  0.0340  0.4317
  243MOL0     C32733   6.398   9.306   5.223 -0.0375 -0.3919  0.0576
  243MOL0     C32734   6.459   9.345   5.127  0.0260 -0.5514 -0.5932
  243MOL0     C32735   5.683   9.114   5.214  0.0857  0.8432 -1.0427
  243MOL0     C32736   5.547   9.090   5.241  0.2140 -0.1303  0.5788
  243MOL0     C32737   5.493   8.948   5.215  0.0624  0.1221 -0.1909
  243MOL0     H32738   5.074   9.177   5.577 -0.1806 -1.9244 -1.9253
  243MOL0     H32739   4.850   9.161   5.565  0.3093  0.7730  0.9525
  243MOL0     H32740   4.643   9.207   5.545  1.8481  0.5278 -0.4995
  243MOL0     H32741   4.620   9.375   5.496  0.8152  1.4200 -1.6790
  243MOL0     H32742   4.409   9.232   5.541  0.8147 -4.7509  0.6794
  243MOL0     H32743   4.449   9.131   5.405  1.9662 -0.2626 -0.2498
  243MOL0     H32744   4.388   9.274   5.254  0.8975 -1.3392  0.3988
  243MOL0     H32745   4.427   9.427   5.344 -1.3318 -0.0017  1.2599
  243MOL0     H32746   4.170   9.250   5.384 -3.5329  1.2876  0.2024
  243MOL0     H32747   4.226   9.358   5.503  0.3148  1.4157 -0.0579
  243MOL0     H32748   4.214   9.544   5.303  1.2651 -0.0864 -1.3130
  243MOL0     H32749   4.146   9.409   5.211 -2.3947 -1.5405  0.3511
  243MOL0     H32750   3.958   9.394   5.368  2.3443 -1.6888 -0.5345
  243MOL0     H32751   4.012   9.544   5.452 -0.0710  1.7323 -1.3063
  243MOL0     H32752   3.987   9.532   5.150 -2.4910 -0.8742 -0.1630
  243MOL0     H32753   3.966   9.679   5.239 -2.0434  0.8143 -2.3439
  243MOL0     H32754   3.754   9.473   5.265 -0.8150 -0.2312 -1.5073
  243MOL0     H32755   3.758   9.638   5.324 -2.4130  0.4678 -2.0080
  243MOL0     H32756   3.516   9.602   5.186  0.9442 -0.7765  1.1236
  243MOL0     H32757   3.441   9.803   4.852 -1.3924  1.1968  0.0244
  243MOL0     H32758   3.394   9.666   4.958  0.5501 -0.4204 -0.6762
  243MOL0     H32759   3.270   9.880   4.978  1.0531  1.1201 -1.2967
  243MOL0     H32760   3.335   9.797   5.131 -1.7531 -1.1777 -0.0237
  243MOL0     H32761   3.478  10.028   5.009 -1.0695  1.4631  0.0273
  243MOL0     H32762   3.488   9.986   5.172  1.4833 -2.2836 -1.5398
  243MOL0     H32763   3.380  10.172   5.183  0.9343 -0.0070 -1.9433
  243MOL0     H32764   3.234  10.077   5.180 -1.1973 -1.9096 -1.0160
  243MOL0     H32765   3.491  10.270   4.871 -1.8371 -2.6557  0.9040
  243MOL0     H32766   3.516  10.500   4.810 -0.7508  2.2705  0.0612
  243MOL0     H32767   3.336  10.919   4.668  0.1394  1.6458 -0.3651
  243MOL0     H32768   3.354  11.164   4.629 -3.3945  1.3887 -1.7871
  243MOL0     H32769   3.459  11.366   4.760  1.1000  1.6106 -0.4470
  243MOL0     H32770   3.350  11.389   4.615  1.6227  2.4957 -1.2459
  243MOL0     H32771   3.270  11.600   4.775  1.3325  1.0913 -0.9717
  243MOL0     H32772   3.406  11.544   4.859 -2.8493 -0.7767  0.8381
  243MOL0     H32773   3.548  11.617   4.664  0.8563 -0.4651 -1.3880
  243MOL0     H32774   3.404  11.615   4.555  0.1577 -0.0843 -0.0861
  243MOL0     H32775   3.505  11.818   4.766  1.1534 -2.3702  0.1327
  243MOL0     H32776   3.332  11.822   4.726 -0.8735 -1.5375 -1.3716
  243MOL0     H32777   3.418  11.972   4.581  3.2295  1.5504  0.2676
  243MOL0     H32778   3.401  11.817   4.483  0.5337 -1.2022  1.7546
  243MOL0     H32779   3.632  11.760   4.521  3.1311  0.0467  0.4001
  243MOL0     H32780   3.607  11.896   4.418 -1.8304 -0.6868 -0.7838
  243MOL0     H32781   3.806  11.895   4.586  1.2863  1.6156  2.3276
  243MOL0     H32782   3.691  11.907   4.717 -2.7634 -0.5173  0.4173
  243MOL0     H32783   3.729  12.134   4.497 -0.6069 -0.9050 -0.4635
  243MOL0     H32784   3.614  12.130   4.639 -0.2497 -1.1740  1.0703
  243MOL0     H32785   3.162  11.223   5.020  0.0562 -1.2209  0.8173
  243MOL0     H32786   3.160  10.988   5.055 -3.3865  0.7626 -1.8180
  243MOL0     H32787   3.164  10.603   5.021 -1.5125 -0.9991 -0.5689
  243MOL0     H32788   3.121  10.353   5.075  0.4706 -3.2267 -1.2838
  243MOL0     H32789   4.854   9.321   5.177 -0.9533 -1.9290  0.6918
  243MOL0     H32790   5.124   9.350   5.197  0.8275  1.7978  1.8167
  243MOL0     H32791   5.454   9.383   5.362 -1.4406 -1.0223  0.3546
  243MOL0     H32792   5.698   9.429   5.336 -1.1833  1.1214  0.9339
  243MOL0     H32793   5.925   9.389   5.386  0.2237 -0.5300  0.3900
  243MOL0     H32794   5.898   9.458   5.222  0.1803 -1.5464 -3.4912
  243MOL0     H32795   6.129   9.466   5.270 -1.8740  1.8136  0.4323
  243MOL0     H32796   6.114   9.353   5.138  1.8462 -0.1421  1.1578
  243MOL0     H32797   6.147   9.161   5.280 -0.8367 -0.5065  0.0933
  243MOL0     H32798   6.135   9.259   5.422 -0.2081  1.6186  0.2890
  243MOL0     H32799   6.332   9.349   5.414 -0.8879 -0.4651  1.1845
  243MOL0     H32800   6.359   9.178   5.390  2.5692  1.2069  1.0628
  243MOL0     H32801   6.491   9.387   5.033 -1.2368  1.8347 -0.0405
  243MOL0     H32802   5.733   9.026   5.175  1.1515  2.5890 -3.9530
  243MOL0     H32803   5.554   8.910   5.132  1.8926  3.1231 -0.3926
  243MOL0     H32804   5.508   8.881   5.300  3.3692  3.3809  2.1071
  243MOL0     H32805   5.389   8.959   5.183  0.5845  1.5040 -1.5784
  244MOL0     O32806   6.880  10.228   2.841 -1.0625  0.1382  0.4429
  244MOL0     C32807   6.817  10.312   2.910  0.7484 -0.5175 -0.5647
  244MOL0     O32808   6.872  10.412   2.980 -0.1527  0.0596 -0.5044
  244MOL0     C32809   7.006  10.436   2.959 -0.0549  0.4346 -0.6403
  244MOL0     C32810   7.103  10.442   3.062  0.3074  0.5047 -0.7957
  244MOL0     C32811   7.235  10.446   3.033 -0.4353 -0.8620 -0.2858
  244MOL0     C32812   7.286  10.466   2.911 -0.5168 -0.4759 -0.1069
  244MOL0     O32813   7.420  10.466   2.890  0.1249 -1.1112  0.2836
  244MOL0     C32814   7.462  10.547   2.777  0.2408 -0.1473 -0.7034
  244MOL0     C32815   7.613  10.566   2.785 -0.2041 -0.7688 -0.3243
  244MOL0     C32816   7.701  10.448   2.752  0.1204 -0.4565 -0.1377
  244MOL0     C32817   7.703  10.341   2.865 -1.1635  0.3173 -0.1748
  244MOL0     C32818   7.821  10.242   2.863 -0.7503  0.0008  0.2691
  244MOL0     C32819   7.830  10.154   2.992  0.9950 -0.0895  0.7111
  244MOL0     C32820   7.940  10.061   2.992  0.4344  0.0269 -0.3979
  244MOL0     C32821   7.990  10.032   3.139 -0.0773  0.2736  0.3379
  244MOL0     N32822   8.097   9.925   3.137  0.0492  0.1385 -0.8148
  244MOL0     C32823   8.180   9.900   3.243 -0.3589 -0.0667 -0.2236
  244MOL0     C32824   8.245   9.786   3.219  0.3899  1.1829  0.3675
  244MOL0     C32825   8.351   9.713   3.303  0.8488 -0.1425  0.9701
  244MOL0     C32826   8.460   9.801   3.335  0.7414  1.2243 -0.5832
  244MOL0     C32827   8.593   9.738   3.395 -0.4691  0.6310  0.0559
  244MOL0     C32828   8.706   9.848   3.393  0.0590  0.1059 -0.1999
  244MOL0     O32829   8.696   9.932   3.502 -0.0123  0.2400  0.1090
  244MOL0     C32830   8.763   9.896   3.618  0.1503  1.3397  0.1704
  244MOL0     C32831   8.735   9.981   3.729  0.4390  0.6934  0.2765
  244MOL0     C32832   8.780   9.940   3.855 -0.5631 -0.4910 -0.0697
  244MOL0     C32833   8.872   9.837   3.866  0.9209  0.4699  0.3375
  244MOL0     C32834   8.913   9.791   4.000  1.0181  1.2282  0.7227
  244MOL0     O32835   8.930   9.657   4.010  0.1644  0.9352 -0.3983
  244MOL0     C32836   8.916   9.600   4.136 -0.0235  0.0235  0.6547
  244MOL0     C32837   9.009   9.616   4.238  0.7657  0.7818  1.3828
  244MOL0     C32838   8.978   9.544   4.362  0.2583  0.2915  0.5047
  244MOL0     C32839   8.858   9.479   4.385  0.3296  0.2286  0.4950
  244MOL0     O32840   8.836   9.409   4.499 -0.0053 -0.2817  0.3037
  244MOL0     C32841   8.735   9.477   4.578  0.2810 -0.1951  1.0542
  244MOL0     C32842   8.719   9.389   4.702  0.1235 -0.4503  0.0313
  244MOL0     C32843   8.804   9.448   4.818  0.2681  0.5801 -0.2270
  244MOL0     C32844   8.775   9.591   4.865  0.1999  0.2090  0.3725
  244MOL0     C32845   8.803   9.612   5.011 -0.3945 -0.9873  0.3257
  244MOL0     C32846   8.954   9.590   5.043 -0.4259  0.1704  0.3199
  244MOL0     C32847   8.997   9.649   5.182  0.4196  0.4891  0.3026
  244MOL0     C32848   9.149   9.669   5.188  0.2963  0.4438 -0.0003
  244MOL0    Cl32849   9.196   9.720   5.351  0.1265  0.2929  0.0329
  244MOL0     C32850   8.766   9.478   4.284  0.2785  0.4196  0.8620
  244MOL0     C32851   8.800   9.524   4.155  0.0882  0.3127 -0.2585
  244MOL0     O32852   8.921   9.868   4.089  0.3318  0.3377 -0.2598
  244MOL0     C32853   8.920   9.777   3.752  0.2978 -0.5640  0.1926
  244MOL0     C32854   8.856   9.799   3.626 -0.6981 -0.7391 -0.5977
  244MOL0     N32855   8.210   9.747   3.092  0.0438 -0.2929 -0.1233
  244MOL0     N32856   8.116   9.826   3.042  0.1798  0.9769 -0.3995
  244MOL0     C32857   7.191  10.474   2.809 -0.2464 -1.0775 -0.0603
  244MOL0     C32858   7.056  10.450   2.831  0.3859 -0.5370  0.3214
  244MOL0     C32859   6.667  10.308   2.916 -0.5286  0.8338 -0.1621
  244MOL0     C32860   6.602  10.412   2.974  0.3417  0.8915  0.5907
  244MOL0     C32861   6.463  10.407   2.994 -0.5853  0.1439 -0.1920
  244MOL0     C32862   6.378  10.305   2.953 -0.8681  0.6100 -0.3731
  244MOL0     O32863   6.243  10.306   2.983  0.1746  0.0578 -0.3806
  244MOL0     C32864   6.153  10.271   2.880 -0.3061 -0.2518  0.4050
  244MOL0     C32865   6.007  10.288   2.928  0.6026 -0.8448 -0.7492
  244MOL0     C32866   5.896  10.299   2.828  0.0214  0.0989  0.6209
  244MOL0     C32867   5.758  10.357   2.864  0.3800 -0.4329  0.0816
  244MOL0     C32868   5.726  10.476   2.774 -0.3929  0.5235  0.1782
  244MOL0     C32869   5.719  10.564   2.696 -0.9723  0.0952 -1.4632
  244MOL0     C32870   6.439  10.205   2.883 -0.7379  0.2054  0.2100
  244MOL0     C32871   6.583  10.199   2.874  1.1020 -0.1703 -0.3118
  244MOL0     C32872   6.644  10.074   2.816 -0.0452 -0.3316  0.0415
  244MOL0     H32873   7.070  10.449   3.165  0.2816  1.8020 -0.8709
  244MOL0     H32874   7.302  10.443   3.118  0.9241  0.9870 -1.2296
  244MOL0     H32875   7.436  10.494   2.685  1.0133 -1.0978 -0.3898
  244MOL0     H32876   7.413  10.645   2.780 -1.2104 -0.8425 -0.7637
  244MOL0     H32877   7.644  10.611   2.880  2.9321 -0.5405 -1.3431
  244MOL0     H32878   7.642  10.633   2.703 -0.7810  1.5442  1.2452
  244MOL0     H32879   7.803  10.486   2.751 -0.2897  0.6951  0.5054
  244MOL0     H32880   7.677  10.419   2.649  4.4460  0.1946 -1.5183
  244MOL0     H32881   7.707  10.393   2.961 -0.1634  2.0526 -1.1086
  244MOL0     H32882   7.619  10.272   2.859 -1.3354  0.5780 -0.8215
  244MOL0     H32883   7.814  10.181   2.773 -2.2806  1.9480 -1.0372
  244MOL0     H32884   7.909  10.307   2.856 -0.8011  0.0541  0.1297
  244MOL0     H32885   7.847  10.217   3.080  2.2970  3.0099 -1.5687
  244MOL0     H32886   7.741  10.092   3.005 -1.1639  1.6200 -3.7459
  244MOL0     H32887   8.026  10.112   2.949  2.6826 -2.1766  1.2340
  244MOL0     H32888   7.918   9.967   2.941 -1.7189  0.2299  0.0302
  244MOL0     H32889   8.023  10.118   3.197  3.4039 -0.6862 -0.0046
  244MOL0     H32890   7.903   9.983   3.182  0.9007 -4.6654 -2.5514
  244MOL0     H32891   8.194   9.971   3.323  0.7109 -0.6349  0.1156
  244MOL0     H32892   8.311   9.663   3.391  1.2136  0.5900  1.5618
  244MOL0     H32893   8.384   9.630   3.239 -0.6174 -1.3276  1.6683
  244MOL0     H32894   8.490   9.850   3.241 -0.7825 -0.7744 -2.2156
  244MOL0     H32895   8.422   9.873   3.408 -0.7093 -1.8658  1.9195
  244MOL0     H32896   8.613   9.648   3.336 -2.2740  0.1082  0.1756
  244MOL0     H32897   8.588   9.706   3.499 -0.0399 -2.0384 -0.6695
  244MOL0     H32898   8.682   9.905   3.303 -3.3787  0.5320  0.8504
  244MOL0     H32899   8.804   9.802   3.375 -1.0884 -2.0157 -1.4098
  244MOL0     H32900   8.664  10.063   3.722  1.5759  1.9771  2.6370
  244MOL0     H32901   8.749   9.998   3.941  0.3476  0.4350 -0.3445
  244MOL0     H32902   9.099   9.676   4.231  1.3644 -0.1359  0.9513
  244MOL0     H32903   9.048   9.539   4.445  1.1871 -0.2581 -0.2908
  244MOL0     H32904   8.774   9.575   4.606 -0.1237 -0.4869  2.7081
  244MOL0     H32905   8.645   9.482   4.516  0.6313  0.1899  0.5598
  244MOL0     H32906   8.611   9.387   4.718 -0.4139  0.1896 -2.8750
  244MOL0     H32907   8.751   9.288   4.676  0.6365 -0.7036  1.5874
  244MOL0     H32908   8.786   9.379   4.900  2.0992  0.1536 -0.1440
  244MOL0     H32909   8.910   9.436   4.794  0.3412  2.1571 -0.8228
  244MOL0     H32910   8.672   9.623   4.852 -0.4265 -1.7084  0.2221
  244MOL0     H32911   8.843   9.660   4.814 -0.8005  0.2799 -0.9175
  244MOL0     H32912   8.732   9.552   5.069 -0.8455 -2.2301 -1.3931
  244MOL0     H32913   8.783   9.718   5.026 -0.9725 -1.0100 -0.2165
  244MOL0     H32914   8.982   9.486   5.022  2.2898  0.8897 -0.0495
  244MOL0     H32915   8.994   9.651   4.961 -2.3977  1.8453  0.5109
  244MOL0     H32916   8.981   9.572   5.259  0.5641 -1.1780 -1.2839
  244MOL0     H32917   8.941   9.741   5.198  1.1410  1.1134 -0.6721
  244MOL0     H32918   9.208   9.584   5.153  3.2092  2.5495 -0.6726
  244MOL0     H32919   9.184   9.752   5.125  1.7910 -0.3596 -0.2971
  244MOL0     H32920   8.677   9.417   4.296  0.6378  0.0219  1.6024
  244MOL0     H32921   8.730   9.516   4.073 -1.3339  0.9625  0.8383
  244MOL0     H32922   8.993   9.697   3.739  1.2768  0.7246 -3.2048
  244MOL0     H32923   8.891   9.744   3.539  0.8133  1.0664 -1.2168
  244MOL0     H32924   7.223  10.492   2.707  2.0586  4.2070  1.2198
  244MOL0     H32925   6.985  10.451   2.749 -3.0928  1.1854  3.0790
  244MOL0     H32926   6.657  10.494   3.018  0.9899  1.0880 -0.5303
  244MOL0     H32927   6.422  10.496   3.040 -3.8022 -1.5930  0.5594
  244MOL0     H32928   6.169  10.167   2.850 -1.9285 -0.1866 -0.8441
  244MOL0     H32929   6.171  10.338   2.796  1.9302 -1.7229 -0.3689
  244MOL0     H32930   6.007  10.385   2.979  0.0554 -0.5271 -1.3304
  244MOL0     H32931   5.992  10.210   3.003  1.6141 -0.8348 -0.5258
  244MOL0     H32932   5.876  10.193   2.808 -0.7785 -0.6118  4.4257
  244MOL0     H32933   5.928  10.349   2.737 -1.1544  0.0983  0.1867
  244MOL0     H32934   5.685  10.275   2.860  2.4567 -2.5281  1.9198
  244MOL0     H32935   5.749  10.392   2.967 -4.3524  0.2437 -0.3057
  244MOL0     H32936   5.722  10.641   2.621  1.2997  2.0844  0.5197
  244MOL0     H32937   6.378  10.119   2.858  0.6267 -0.9314  0.7170
  244MOL0     H32938   6.712  10.022   2.884  0.1392 -1.8869 -1.2525
  244MOL0     H32939   6.579   9.987   2.802  0.3976 -0.5314 -0.9457
  244MOL0     H32940   6.691  10.097   2.719 -1.2556 -0.3795 -0.5785
  245MOL0     O32941   5.826   6.590   3.033 -0.6559  0.2968  0.5851
  245MOL0     C32942   5.908   6.618   3.120 -0.0848 -0.2850 -0.0902
  245MOL0     O32943   6.043   6.591   3.115 -0.7310  0.6499  0.0746
  245MOL0     C32944   6.084   6.524   2.999  0.6154  0.4920 -0.1015
  245MOL0     C32945   6.071   6.577   2.866 -0.4200 -1.0149 -0.2395
  245MOL0     C32946   6.127   6.509   2.756 -0.3605 -0.8470 -0.0199
  245MOL0     C32947   6.189   6.387   2.767 -0.3468 -0.4598  0.6440
  245MOL0     O32948   6.240   6.319   2.667 -0.4800 -0.4919  0.0085
  245MOL0     C32949   6.334   6.395   2.591 -0.2010 -0.4860  0.1813
  245MOL0     C32950   6.443   6.306   2.524 -0.4473 -0.4906  0.1580
  245MOL0     C32951   6.386   6.212   2.429 -0.2302 -0.0357 -0.2839
  245MOL0     C32952   6.494   6.108   2.393  0.8321  0.1139  0.0482
  245MOL0     C32953   6.455   6.028   2.271 -0.6813  0.3353  0.3082
  245MOL0     C32954   6.574   5.950   2.217  0.5549 -0.6994  0.0846
  245MOL0     C32955   6.547   5.883   2.084  0.1167 -0.8094  0.1961
  245MOL0     C32956   6.627   5.760   2.068 -0.1239  0.2066 -0.5747
  245MOL0     N32957   6.583   5.684   1.955 -0.5286 -0.7771 -0.1505
  245MOL0     C32958   6.460   5.648   1.930  0.0717  0.3794 -0.0597
  245MOL0     C32959   6.475   5.571   1.822  0.0260 -0.5689  0.1924
  245MOL0     C32960   6.373   5.505   1.739 -0.3923  0.1716 -0.7736
  245MOL0     C32961   6.234   5.521   1.792  0.3560  0.3251 -0.1732
  245MOL0     C32962   6.140   5.443   1.703  0.1676  0.2947  0.1228
  245MOL0     C32963   5.997   5.435   1.767  0.0926  0.3428  0.0145
  245MOL0     O32964   5.938   5.566   1.774 -0.5478  0.5382  0.2918
  245MOL0     C32965   5.813   5.570   1.827  0.9904  0.0539  0.0608
  245MOL0     C32966   5.700   5.523   1.764 -0.1452 -0.1562 -0.8479
  245MOL0     C32967   5.566   5.536   1.817 -0.8137  0.7257 -0.7005
  245MOL0     C32968   5.552   5.591   1.951 -0.3235  0.6979  0.6794
  245MOL0     C32969   5.420   5.597   2.007  0.4168  0.2058  0.4978
  245MOL0     O32970   5.328   5.507   1.945  0.4847 -0.5537 -0.0387
  245MOL0     C32971   5.196   5.512   1.985 -0.4794  0.0267 -0.9806
  245MOL0     C32972   5.118   5.620   1.967  0.3322 -0.2068 -0.5329
  245MOL0     C32973   4.982   5.621   1.997 -0.8526 -1.0107 -0.5746
  245MOL0     C32974   4.915   5.511   2.040  0.3191  0.2302 -0.8573
  245MOL0     O32975   4.777   5.519   2.062 -0.8772  0.3655 -0.5157
  245MOL0     C32976   4.703   5.406   2.121  0.0036 -0.2268  0.5099
  245MOL0     C32977   4.569   5.447   2.164  1.0364 -0.1153  0.1259
  245MOL0     C32978   4.491   5.509   2.052 -0.5798 -0.3012  0.8496
  245MOL0     C32979   4.346   5.544   2.082  0.3901 -0.2314  0.2021
  245MOL0     C32980   4.268   5.599   1.961  0.0736 -0.8185  0.1640
  245MOL0     C32981   4.115   5.604   1.975 -0.1516  0.1296 -0.3820
  245MOL0     C32982   4.050   5.691   1.865 -0.0829  0.2842  0.7595
  245MOL0     C32983   4.078   5.645   1.724  0.6549  0.0654 -0.4244
  245MOL0    Cl32984   3.963   5.731   1.629 -0.3287 -0.0201 -0.4579
  245MOL0     C32985   4.989   5.390   2.051 -0.6969 -0.1792  0.0462
  245MOL0     C32986   5.135   5.396   2.032  0.2027  0.1130 -0.4257
  245MOL0     O32987   5.399   5.675   2.100  0.4645  0.8634  0.6438
  245MOL0     C32988   5.671   5.639   2.008  1.0690 -0.7987 -0.1369
  245MOL0     C32989   5.798   5.620   1.953 -0.7672  0.0738 -0.2735
  245MOL0     N32990   6.604   5.571   1.781  0.8585 -0.9938 -0.6193
  245MOL0     N32991   6.671   5.643   1.856  0.2454 -0.8354 -1.1041
  245MOL0     C32992   6.193   6.331   2.893  1.2478 -0.0859 -0.6969
  245MOL0     C32993   6.142   6.390   3.011  0.8195  0.1476 -0.6080
  245MOL0     C32994   5.854   6.697   3.231  0.2756  0.3640 -0.5672
  245MOL0     C32995   5.941   6.787   3.300  0.9734 -0.3117 -0.0442
  245MOL0     C32996   5.899   6.863   3.414  0.1968  0.9549 -0.0183
  245MOL0     C32997   5.772   6.861   3.465 -0.5280 -0.9792 -1.0096
  245MOL0     O32998   5.727   6.936   3.566  0.7620 -0.3008  0.0427
  245MOL0     C32999   5.831   6.999   3.647 -0.2598 -0.1027  0.1575
  245MOL0     C33000   5.748   7.051   3.761 -0.4137  1.1450 -0.8524
  245MOL0     C33001   5.710   6.937   3.859  0.5241 -0.3638 -0.0845
  245MOL0     C33002   5.826   6.862   3.925 -0.6290 -0.6530 -0.5007
  245MOL0     C33003   5.800   6.848   4.067 -0.4366  0.1707  0.6305
  245MOL0     C33004   5.769   6.828   4.179  0.1515 -0.2834 -0.4792
  245MOL0     C33005   5.681   6.784   3.389 -0.0805  0.9190 -0.3394
  245MOL0     C33006   5.721   6.700   3.284 -0.2352 -0.0085 -0.3966
  245MOL0     C33007   5.616   6.603   3.241  0.0938  0.0089  0.8871
  245MOL0     H33008   6.030   6.675   2.846  3.0450  1.2212  2.4850
  245MOL0     H33009   6.124   6.548   2.655  1.9691  0.5634  0.3829
  245MOL0     H33010   6.276   6.453   2.519 -0.6171 -1.4473 -0.2757
  245MOL0     H33011   6.392   6.465   2.651  0.0826  0.1875 -0.8504
  245MOL0     H33012   6.483   6.246   2.606  1.9167  0.9357  0.1419
  245MOL0     H33013   6.518   6.374   2.482 -1.4510  1.4668  1.4131
  245MOL0     H33014   6.359   6.266   2.338 -0.9118  0.3141  0.1258
  245MOL0     H33015   6.294   6.169   2.468 -0.2177  2.5299  2.9428
  245MOL0     H33016   6.582   6.163   2.359  2.4748 -3.1905 -1.5433
  245MOL0     H33017   6.529   6.055   2.482  2.8019 -0.4681 -1.0226
  245MOL0     H33018   6.371   5.967   2.305  0.5034 -1.1953  0.6139
  245MOL0     H33019   6.412   6.097   2.198 -0.8163 -0.8684 -0.7911
  245MOL0     H33020   6.658   6.019   2.228 -0.0581  0.5705 -2.4276
  245MOL0     H33021   6.597   5.877   2.296 -1.1078 -0.4921  0.8046
  245MOL0     H33022   6.563   5.955   2.003  0.3971  1.0218  1.8020
  245MOL0     H33023   6.440   5.862   2.078 -0.1226 -0.8472  3.0125
  245MOL0     H33024   6.734   5.779   2.056 -0.2058 -0.7822 -3.9904
  245MOL0     H33025   6.614   5.709   2.163  1.1636  1.1188  0.1306
  245MOL0     H33026   6.372   5.685   1.981  0.9148  2.0453  0.2438
  245MOL0     H33027   6.377   5.537   1.634  1.8067 -1.7286 -1.3699
  245MOL0     H33028   6.395   5.398   1.745 -0.6001  0.2148  1.5053
  245MOL0     H33029   6.222   5.482   1.894  1.1553  0.9203  0.1555
  245MOL0     H33030   6.218   5.629   1.784  3.8473  0.8404 -2.7716
  245MOL0     H33031   6.169   5.341   1.676 -2.9545 -0.2498 -1.7661
  245MOL0     H33032   6.129   5.497   1.608 -1.3131  0.5082  0.3759
  245MOL0     H33033   6.007   5.386   1.864 -2.8431  0.1318  0.2790
  245MOL0     H33034   5.923   5.376   1.711 -1.8673  1.2218  1.5742
  245MOL0     H33035   5.711   5.463   1.674  1.2348 -3.2743  1.2122
  245MOL0     H33036   5.486   5.492   1.758 -2.1261  1.3137  0.5972
  245MOL0     H33037   5.163   5.708   1.922  1.9178 -1.0750 -0.6810
  245MOL0     H33038   4.921   5.709   2.008 -1.2411 -1.4410  0.9534
  245MOL0     H33039   4.697   5.319   2.055  2.4189  0.2244 -0.3962
  245MOL0     H33040   4.765   5.373   2.205  0.5090  0.6363  0.4915
  245MOL0     H33041   4.509   5.364   2.205  2.4037 -1.4386 -0.4441
  245MOL0     H33042   4.579   5.515   2.249 -0.2800  1.1371 -0.6694
  245MOL0     H33043   4.542   5.603   2.028 -0.6965 -0.5880 -0.6210
  245MOL0     H33044   4.484   5.441   1.967 -2.7075 -1.1196  1.6175
  245MOL0     H33045   4.349   5.618   2.163 -0.8504  1.1318 -0.9373
  245MOL0     H33046   4.286   5.463   2.124 -0.0322 -1.6958 -2.9415
  245MOL0     H33047   4.294   5.546   1.869 -0.0364  0.4327 -0.6063
  245MOL0     H33048   4.296   5.703   1.940 -0.3192 -0.7758 -0.1598
  245MOL0     H33049   4.085   5.499   1.964  0.0104  0.1517 -1.0848
  245MOL0     H33050   4.072   5.640   2.069  0.7279 -1.4049  0.6442
  245MOL0     H33051   4.081   5.793   1.888 -1.0087  0.5431  0.8885
  245MOL0     H33052   3.941   5.685   1.872 -0.0610  0.5815  1.4155
  245MOL0     H33053   4.181   5.673   1.702  1.5355 -1.8806  0.9079
  245MOL0     H33054   4.060   5.537   1.718 -3.0410  0.4568  1.0446
  245MOL0     H33055   4.945   5.297   2.086  1.2660 -0.3729  2.2607
  245MOL0     H33056   5.179   5.298   2.046 -3.4217 -1.5763  0.3439
  245MOL0     H33057   5.665   5.690   2.104  1.3700 -0.7035 -0.1676
  245MOL0     H33058   5.883   5.641   2.017  0.5952 -0.5432 -1.8086
  245MOL0     H33059   6.243   6.236   2.907  0.3499 -0.5924 -0.8894
  245MOL0     H33060   6.156   6.346   3.109 -0.1127  2.2091  0.5094
  245MOL0     H33061   6.045   6.799   3.273  1.5201  0.3488  2.2107
  245MOL0     H33062   5.973   6.918   3.472 -1.5782  0.2209  3.1523
  245MOL0     H33063   5.886   7.082   3.601 -2.2707  1.1739 -0.0315
  245MOL0     H33064   5.902   6.919   3.671 -0.4609 -0.2573  0.2356
  245MOL0     H33065   5.655   7.090   3.718 -1.4007  2.0978  1.9285
  245MOL0     H33066   5.806   7.130   3.810  0.5360  0.7352 -1.2850
  245MOL0     H33067   5.659   6.861   3.800 -1.7648  1.7705 -0.9859
  245MOL0     H33068   5.630   6.972   3.924 -1.9454 -3.3448 -1.2489
  245MOL0     H33069   5.842   6.760   3.888  1.2752 -1.9804  3.4998
  245MOL0     H33070   5.917   6.922   3.914 -2.5812  2.7806  0.4791
  245MOL0     H33071   5.743   6.800   4.279  1.4010 -2.1613 -0.6388
  245MOL0     H33072   5.576   6.786   3.417 -0.1961  0.8502 -0.7671
  245MOL0     H33073   5.539   6.587   3.317 -2.5576 -0.2069 -1.6562
  245MOL0     H33074   5.558   6.646   3.159 -2.9007 -0.7761  2.4647
  245MOL0     H33075   5.656   6.505   3.212  3.6506  0.8462  2.4044
  246MOL0     O33076   5.877   5.303  10.553 -0.2304 -0.0365  0.6395
  246MOL0     C33077   5.774   5.363  10.576  1.0590 -0.4539  0.0648
  246MOL0     O33078   5.768   5.483  10.635  0.5350 -0.4475 -0.0383
  246MOL0     C33079   5.876   5.532  10.705  0.7115  0.5448  0.6233
  246MOL0     C33080   6.009   5.531  10.660 -0.2242 -0.0669  0.0454
  246MOL0     C33081   6.119   5.577  10.743  0.0187  0.3654 -0.1716
  246MOL0     C33082   6.096   5.633  10.866  0.1054 -0.3097 -0.4231
  246MOL0     O33083   6.190   5.685  10.955 -0.4013  0.3606  0.3115
  246MOL0     C33084   6.332   5.683  10.941 -0.0495  0.4523  0.6264
  246MOL0     C33085   6.385   5.771  11.050 -0.0414  0.2572  0.5978
  246MOL0     C33086   6.530   5.742  11.094  0.2489  0.9016 -0.3568
  246MOL0     C33087   6.627   5.744  10.982 -0.3961  0.2341  0.2918
  246MOL0     C33088   6.751   5.669  11.022 -0.9256  0.6503 -0.0542
  246MOL0     C33089   6.865   5.691  10.920  0.0674  0.3805 -0.9724
  246MOL0     C33090   6.953   5.821  10.931 -0.9848  0.1492  0.3036
  246MOL0     C33091   7.038   5.830  11.055  0.0761  0.2800 -0.2901
  246MOL0     N33092   7.119   5.953  11.079  0.2527  1.1461  0.9505
  246MOL0     C33093   7.242   5.988  11.016  0.1195 -0.7443  0.3303
  246MOL0     C33094   7.291   6.095  11.086  0.5110 -0.6581 -0.4734
  246MOL0     C33095   7.398   6.185  11.042  0.4392 -0.3913 -0.5940
  246MOL0     C33096   7.356   6.292  10.938 -0.3689  0.9734  0.6505
  246MOL0     C33097   7.344   6.224  10.799  0.6018  0.3374 -0.5277
  246MOL0     C33098   7.259   6.322  10.717 -0.0305 -0.7203  0.0412
  246MOL0     O33099   7.123   6.319  10.770  0.3636 -0.1290  0.2317
  246MOL0     C33100   7.034   6.256  10.686 -0.5909  0.2857 -0.8713
  246MOL0     C33101   6.990   6.121  10.722 -0.5888 -0.2033 -0.6478
  246MOL0     C33102   6.913   6.062  10.633 -0.1520 -0.2187  0.0885
  246MOL0     C33103   6.864   6.128  10.512  0.0716 -0.4547 -1.0220
  246MOL0     C33104   6.753   6.075  10.423  0.1857 -0.3384  0.4824
  246MOL0     O33105   6.702   6.155  10.336  0.3776 -0.8300 -0.3243
  246MOL0     C33106   6.617   6.101  10.237 -0.6669  0.2829 -0.2687
  246MOL0     C33107   6.646   5.998  10.148  0.1986  0.1398 -0.6248
  246MOL0     C33108   6.548   5.938  10.064 -0.3214 -0.0936 -1.0206
  246MOL0     C33109   6.424   5.988  10.052  1.5640 -0.3622 -0.2586
  246MOL0     O33110   6.337   5.929   9.963 -0.5579 -0.0859 -0.1262
  246MOL0     C33111   6.194   5.952   9.984  0.5999  0.5310  0.3623
  246MOL0     C33112   6.122   5.859   9.878  0.1974  0.5398 -0.4238
  246MOL0     C33113   5.968   5.870   9.905 -1.7035 -0.9678  0.5433
  246MOL0     C33114   5.905   5.753   9.831 -0.0385  1.3721  0.1454
  246MOL0     C33115   5.753   5.778   9.831 -0.2639  0.1227 -0.8224
  246MOL0     C33116   5.699   5.902   9.749  0.0884 -0.4900  0.1527
  246MOL0     C33117   5.758   5.908   9.609 -0.5702  0.3679 -0.2064
  246MOL0     C33118   5.668   5.998   9.531  0.2727  0.4501  0.1038
  246MOL0    Cl33119   5.695   6.180   9.552  0.1881 -0.0945 -0.4073
  246MOL0     C33120   6.391   6.095  10.133  0.0160 -0.6551 -0.3460
  246MOL0     C33121   6.488   6.150  10.227 -0.0268 -0.3559 -0.7472
  246MOL0     O33122   6.717   5.962  10.445  0.2271 -0.3574  0.2521
  246MOL0     C33123   6.918   6.260  10.477  0.5143 -0.4217 -0.8448
  246MOL0     C33124   6.997   6.320  10.576 -0.7120 -0.6601  0.2782
  246MOL0     N33125   7.205   6.115  11.193 -0.9720  0.8042  0.2203
  246MOL0     N33126   7.104   6.030  11.191  0.8993 -0.8926 -0.1583
  246MOL0     C33127   5.960   5.640  10.903  0.6506  0.3197  0.3427
  246MOL0     C33128   5.852   5.587  10.832 -0.4579  0.3214  0.2563
  246MOL0     C33129   5.639   5.316  10.519  0.0493 -0.2123  0.0122
  246MOL0     C33130   5.522   5.396  10.537  0.0067 -0.3554  0.5434
  246MOL0     C33131   5.393   5.349  10.514  0.4171 -0.4910  0.7156
  246MOL0     C33132   5.372   5.222  10.462 -0.5708  0.4241 -0.4489
  246MOL0     O33133   5.244   5.181  10.436  0.2439 -0.1290  0.0928
  246MOL0     C33134   5.128   5.273  10.429  0.3923  0.2583 -0.6220
  246MOL0     C33135   4.998   5.196  10.416  0.5213 -0.3640  0.3381
  246MOL0     C33136   4.982   5.085  10.509 -0.0173  0.0139 -0.1249
  246MOL0     C33137   4.840   5.009  10.503  0.0018  0.0008  1.0067
  246MOL0     C33138   4.741   5.107  10.550  0.2548  0.1965  0.4079
  246MOL0     C33139   4.667   5.188  10.599 -0.0089  0.4407  0.2579
  246MOL0     C33140   5.477   5.130  10.453  0.1514 -0.1451  0.2013
  246MOL0     C33141   5.612   5.181  10.481  0.9620  0.4380 -0.0725
  246MOL0     C33142   5.714   5.070  10.468  0.0271  0.1257 -1.0504
  246MOL0     H33143   6.049   5.481  10.572  0.0692 -2.0211  1.2223
  246MOL0     H33144   6.221   5.564  10.706 -0.0620 -0.2797 -0.1778
  246MOL0     H33145   6.370   5.582  10.961  2.6872  0.8402 -2.0383
  246MOL0     H33146   6.354   5.718  10.840  1.7737  0.7199  1.0812
  246MOL0     H33147   6.331   5.753  11.143  0.1480  1.8548  1.0526
  246MOL0     H33148   6.373   5.874  11.016  2.0541  1.4048  2.9523
  246MOL0     H33149   6.525   5.643  11.142 -1.6647  1.7562  1.3848
  246MOL0     H33150   6.542   5.804  11.183 -0.7902 -0.5532  0.8589
  246MOL0     H33151   6.595   5.695  10.890  3.2175 -0.5761 -0.6518
  246MOL0     H33152   6.656   5.846  10.955 -0.0673 -0.0040 -0.2684
  246MOL0     H33153   6.791   5.701  11.119 -2.0819 -2.0258  1.4061
  246MOL0     H33154   6.716   5.566  11.035 -2.0258  0.9749 -0.3706
  246MOL0     H33155   6.935   5.607  10.914 -0.7628 -0.3814 -0.4274
  246MOL0     H33156   6.821   5.687  10.820  2.5879 -2.8679 -2.1411
  246MOL0     H33157   6.892   5.911  10.916  1.3628  1.5499 -1.5587
  246MOL0     H33158   7.027   5.813  10.852 -0.7895  0.4375  0.4558
  246MOL0     H33159   6.969   5.827  11.139  1.6586  0.3917  1.0546
  246MOL0     H33160   7.109   5.749  11.077 -0.1227  0.5062  1.2775
  246MOL0     H33161   7.270   5.955  10.917 -0.7503 -1.2307  0.2378
  246MOL0     H33162   7.455   6.230  11.124 -0.4428  1.0724 -0.7584
  246MOL0     H33163   7.475   6.132  10.985  0.4526  1.1742 -2.1039
  246MOL0     H33164   7.257   6.327  10.967 -1.8337 -0.1616 -2.5170
  246MOL0     H33165   7.430   6.372  10.926  0.4971 -0.0162 -0.9254
  246MOL0     H33166   7.296   6.125  10.802 -0.3814  0.6049 -3.8698
  246MOL0     H33167   7.445   6.223  10.758  1.5934 -0.1664  1.7486
  246MOL0     H33168   7.263   6.290  10.613 -2.7775  0.7728 -0.6096
  246MOL0     H33169   7.303   6.422  10.722 -0.0730 -0.7044  0.0942
  246MOL0     H33170   7.014   6.075  10.818 -0.5358 -0.8210 -0.9504
  246MOL0     H33171   6.893   5.956  10.650 -1.0328 -0.0283  0.2929
  246MOL0     H33172   6.742   5.947  10.150  0.7000  0.9797 -1.6797
  246MOL0     H33173   6.576   5.847  10.013 -0.6651 -0.7416 -0.0871
  246MOL0     H33174   6.159   5.923  10.084 -0.2770  0.5423  0.0720
  246MOL0     H33175   6.166   6.055   9.960  0.5752 -0.0020 -2.1247
  246MOL0     H33176   6.152   5.893   9.778  2.9601 -0.3893 -0.0065
  246MOL0     H33177   6.147   5.753   9.888 -1.3421  0.2583  0.7072
  246MOL0     H33178   5.953   5.860  10.013  1.5379  0.1459  1.2019
  246MOL0     H33179   5.937   5.970   9.873 -1.3079 -0.9345  0.2571
  246MOL0     H33180   5.928   5.657   9.878  0.9339 -0.1108 -3.0922
  246MOL0     H33181   5.940   5.742   9.728  0.9038  2.8609  0.2754
  246MOL0     H33182   5.712   5.780   9.933 -0.2416 -0.3768 -0.7998
  246MOL0     H33183   5.698   5.690   9.795 -2.1128  1.7309 -2.0899
  246MOL0     H33184   5.591   5.893   9.742  0.0299  1.2057 -2.5528
  246MOL0     H33185   5.718   5.996   9.802 -1.3467 -1.3160  2.2875
  246MOL0     H33186   5.774   5.808   9.567  0.1259  0.0204  0.8654
  246MOL0     H33187   5.853   5.961   9.605  0.0346 -0.3557  2.5803
  246MOL0     H33188   5.684   5.980   9.425 -3.2427 -3.6192  0.0177
  246MOL0     H33189   5.565   5.969   9.556  0.8761 -0.5406  1.5744
  246MOL0     H33190   6.291   6.136  10.124 -0.2428 -0.8080  1.5386
  246MOL0     H33191   6.454   6.225  10.298  1.0489 -0.9657  0.4382
  246MOL0     H33192   6.883   6.312  10.389  1.6411  0.3039 -0.8715
  246MOL0     H33193   7.037   6.419  10.561 -0.8585  0.6217  6.0952
  246MOL0     H33194   5.925   5.675  10.999 -0.8161 -0.9951  0.3162
  246MOL0     H33195   5.751   5.582  10.870 -0.2970 -1.0548  0.5770
  246MOL0     H33196   5.529   5.502  10.562 -0.5266  0.5319 -2.6256
  246MOL0     H33197   5.309   5.415  10.533  2.1250  2.2865 -0.7048
  246MOL0     H33198   5.137   5.348  10.351  1.7917  2.3809  1.4589
  246MOL0     H33199   5.130   5.334  10.520 -0.5793  0.9614 -1.0638
  246MOL0     H33200   4.995   5.148  10.318  2.7342 -2.7494  1.3265
  246MOL0     H33201   4.915   5.267  10.419 -0.4227 -1.1699 -2.9160
  246MOL0     H33202   4.990   5.126  10.610  0.2439  1.6451 -0.7761
  246MOL0     H33203   5.056   5.007  10.491 -2.1853 -2.4790  1.1584
  246MOL0     H33204   4.815   4.991  10.398  0.5487 -0.4080  0.9405
  246MOL0     H33205   4.840   4.913  10.556 -0.3979 -0.5228  0.0803
  246MOL0     H33206   4.599   5.258  10.642  2.6561  2.3136  1.7839
  246MOL0     H33207   5.452   5.028  10.427 -2.1770  0.7138 -1.2832
  246MOL0     H33208   5.788   5.067  10.548 -1.3892  2.1748  0.4061
  246MOL0     H33209   5.669   4.971  10.454  0.4387 -1.0846  4.1753
  246MOL0     H33210   5.778   5.081  10.380  0.0059 -1.1674 -1.2546
  247MOL0     O33211   5.120   1.415   3.600 -0.0339  0.2730 -0.0278
  247MOL0     C33212   5.234   1.457   3.577 -0.0947 -0.2052  0.0314
  247MOL0     O33213   5.260   1.557   3.481  0.4304  1.1242  0.2912
  247MOL0     C33214   5.178   1.569   3.375 -0.2918  0.4134  0.4672
  247MOL0     C33215   5.142   1.456   3.295  0.1411 -0.0837 -0.1972
  247MOL0     C33216   5.053   1.474   3.189 -0.8158 -0.5666  0.1418
  247MOL0     C33217   5.001   1.605   3.169 -0.3995  0.5180 -0.4679
  247MOL0     O33218   4.902   1.612   3.081  0.4683  0.1124  0.7737
  247MOL0     C33219   4.913   1.717   2.982  0.1360  0.8626  0.5548
  247MOL0     C33220   4.871   1.666   2.841  0.0951  0.2452  0.4565
  247MOL0     C33221   4.966   1.547   2.801 -1.1266  0.5415  0.3003
  247MOL0     C33222   4.947   1.514   2.651 -0.6281  0.4590  0.1907
  247MOL0     C33223   5.012   1.387   2.611  0.3767 -0.4634  0.0126
  247MOL0     C33224   5.015   1.370   2.463  0.4613 -1.7530 -0.3105
  247MOL0     C33225   5.091   1.249   2.414  0.6112 -0.0598 -0.3053
  247MOL0     C33226   5.029   1.182   2.295  0.3734 -0.4786 -0.1356
  247MOL0     N33227   5.041   1.265   2.165  0.3989  0.4421 -0.3083
  247MOL0     C33228   5.142   1.249   2.069 -0.7142  0.4211  0.8563
  247MOL0     C33229   5.106   1.336   1.975  0.1353 -0.0446 -0.4231
  247MOL0     C33230   5.169   1.370   1.841 -0.0559 -0.5527  0.4329
  247MOL0     C33231   5.250   1.491   1.869  0.0602 -0.4444 -1.1492
  247MOL0     C33232   5.362   1.470   1.973  0.3121 -0.2174 -0.3875
  247MOL0     C33233   5.429   1.605   1.991 -0.6955  0.1476  0.2141
  247MOL0     O33234   5.516   1.591   2.100 -0.7685  0.1899 -0.6767
  247MOL0     C33235   5.595   1.702   2.136  0.3297 -0.5035 -0.2067
  247MOL0     C33236   5.688   1.680   2.235 -0.3126  0.1277  0.5968
  247MOL0     C33237   5.782   1.771   2.281 -0.5588  0.7358  0.0378
  247MOL0     C33238   5.784   1.896   2.219  0.7751 -0.6015  0.6690
  247MOL0     C33239   5.901   1.988   2.256  0.2418  0.0032  0.5981
  247MOL0     O33240   6.007   1.929   2.329  0.4978 -0.0151  0.0028
  247MOL0     C33241   6.098   2.015   2.393  0.0751  0.7587  1.1142
  247MOL0     C33242   6.069   2.107   2.492 -0.7188 -0.0837 -0.0633
  247MOL0     C33243   6.163   2.181   2.563 -0.6937  0.4822 -0.3069
  247MOL0     C33244   6.303   2.165   2.531 -0.1290 -0.7208  1.4458
  247MOL0     O33245   6.393   2.232   2.608 -0.1904 -0.3806  0.2733
  247MOL0     C33246   6.399   2.375   2.555 -0.6198 -0.3727  0.0689
  247MOL0     C33247   6.485   2.470   2.640 -0.4416 -0.7104 -0.1941
  247MOL0     C33248   6.617   2.529   2.595 -0.6938 -0.6506 -0.1878
  247MOL0     C33249   6.723   2.425   2.562  0.1049  0.6015  0.1730
  247MOL0     C33250   6.862   2.490   2.518 -0.9002 -0.2357 -0.1374
  247MOL0     C33251   6.973   2.380   2.499  0.7639 -0.1216 -0.1540
  247MOL0     C33252   7.088   2.448   2.421 -0.0589 -0.2067  0.2209
  247MOL0     C33253   7.233   2.386   2.436 -0.3174 -0.3428 -0.2727
  247MOL0    Cl33254   7.362   2.440   2.323 -0.3085 -0.4680  0.1444
  247MOL0     C33255   6.328   2.072   2.428  0.0273  0.1046 -0.2390
  247MOL0     C33256   6.232   1.999   2.359  0.2525 -0.0285 -0.6536
  247MOL0     O33257   5.907   2.103   2.214  0.0088 -0.0117  0.4681
  247MOL0     C33258   5.678   1.928   2.127  0.2743 -0.3901  0.1134
  247MOL0     C33259   5.577   1.836   2.092 -0.4776  0.4352 -0.0883
  247MOL0     N33260   4.983   1.397   2.010 -0.3330 -0.1862 -0.0569
  247MOL0     N33261   4.948   1.355   2.122 -0.5856  0.1882 -0.8886
  247MOL0     C33262   5.056   1.717   3.237 -0.3306 -0.0757  0.7201
  247MOL0     C33263   5.137   1.701   3.344 -0.0908  0.0776 -0.4499
  247MOL0     C33264   5.358   1.438   3.669  0.0372 -0.1122  0.0289
  247MOL0     C33265   5.473   1.512   3.651  0.1122 -0.1905  0.2743
  247MOL0     C33266   5.587   1.501   3.741  0.1562  0.2620  0.0103
  247MOL0     C33267   5.583   1.399   3.837 -0.2625 -0.1396 -0.4381
  247MOL0     O33268   5.692   1.374   3.916  0.5442 -0.0791  0.5998
  247MOL0     C33269   5.828   1.425   3.874  0.5879  0.3479  0.0876
  247MOL0     C33270   5.928   1.388   3.980 -0.3951  1.2544  0.1531
  247MOL0     C33271   5.893   1.432   4.127  0.7699 -0.3071 -0.3310
  247MOL0     C33272   5.954   1.336   4.230  0.3584  0.3119  0.1415
  247MOL0     C33273   6.099   1.351   4.236 -0.0806  0.1840  0.0123
  247MOL0     C33274   6.212   1.373   4.254  0.1602 -0.0174 -0.1215
  247MOL0     C33275   5.475   1.321   3.864  0.9970 -0.3744  0.1176
  247MOL0     C33276   5.357   1.344   3.778  0.4921 -0.1408 -0.3792
  247MOL0     C33277   5.229   1.280   3.826  0.4894 -0.3139 -0.2981
  247MOL0     H33278   5.174   1.358   3.327 -0.2227 -0.1385  0.0019
  247MOL0     H33279   5.024   1.389   3.127 -1.7658  0.4700 -0.8870
  247MOL0     H33280   4.853   1.806   3.002 -0.4599  0.0984  2.3970
  247MOL0     H33281   5.018   1.744   2.967  0.0838  0.0390 -1.7256
  247MOL0     H33282   4.887   1.748   2.771 -2.6730  1.7090  1.3922
  247MOL0     H33283   4.765   1.640   2.849 -0.0297  1.2215  3.2512
  247MOL0     H33284   4.949   1.464   2.870  2.7260  0.1582  0.9976
  247MOL0     H33285   5.070   1.570   2.825 -0.1246 -2.4305 -0.8291
  247MOL0     H33286   4.841   1.503   2.629 -0.4507  0.7784 -0.8559
  247MOL0     H33287   4.988   1.598   2.594  0.4835  0.5511  1.0885
  247MOL0     H33288   5.114   1.377   2.650  0.6492  0.6928 -0.3804
  247MOL0     H33289   4.956   1.307   2.659  0.5730 -0.1776  0.7325
  247MOL0     H33290   4.914   1.370   2.422  0.0955  1.7147  0.2594
  247MOL0     H33291   5.063   1.462   2.427 -0.5108  0.0258  2.5452
  247MOL0     H33292   5.104   1.176   2.495  1.7302  0.4218 -0.0260
  247MOL0     H33293   5.193   1.268   2.379  0.4260  0.2289 -0.6976
  247MOL0     H33294   5.088   1.090   2.281  0.0958 -0.4950 -1.2562
  247MOL0     H33295   4.926   1.154   2.318  0.9045 -2.1728  0.3155
  247MOL0     H33296   5.226   1.181   2.063  0.1347  1.5668 -1.0213
  247MOL0     H33297   5.230   1.290   1.797  0.0145 -0.2113 -0.1095
  247MOL0     H33298   5.094   1.395   1.765  1.7308  1.7537 -0.7237
  247MOL0     H33299   5.296   1.527   1.776  1.6344 -2.1643 -1.1021
  247MOL0     H33300   5.176   1.566   1.897 -0.3771 -1.0142 -0.7786
  247MOL0     H33301   5.437   1.398   1.939  0.1891 -0.6103  0.1487
  247MOL0     H33302   5.321   1.432   2.068 -0.4667  0.2069 -0.5418
  247MOL0     H33303   5.354   1.682   2.010  1.4521  2.4064  0.0976
  247MOL0     H33304   5.493   1.624   1.904 -0.3374 -1.2224  0.1517
  247MOL0     H33305   5.677   1.580   2.276 -3.3474 -0.2028 -0.7431
  247MOL0     H33306   5.851   1.726   2.352 -0.6239 -1.0537 -0.9560
  247MOL0     H33307   5.968   2.112   2.531 -1.5908 -1.1819 -2.0160
  247MOL0     H33308   6.147   2.249   2.645  2.0310 -0.1509  0.8898
  247MOL0     H33309   6.460   2.347   2.469  0.0889 -1.3190  0.8451
  247MOL0     H33310   6.305   2.416   2.518 -0.3778 -3.1491 -4.3124
  247MOL0     H33311   6.430   2.561   2.665 -0.6543 -1.4462  2.2465
  247MOL0     H33312   6.506   2.430   2.739  0.1171  1.9670  0.8443
  247MOL0     H33313   6.605   2.605   2.517 -1.6814 -0.3768  0.2097
  247MOL0     H33314   6.652   2.590   2.679 -2.0089  0.1693 -0.2092
  247MOL0     H33315   6.684   2.345   2.497  1.1407  0.4141 -0.2415
  247MOL0     H33316   6.744   2.372   2.655 -1.9261 -0.1010  0.2760
  247MOL0     H33317   6.894   2.562   2.593  2.0202 -1.3714 -0.1418
  247MOL0     H33318   6.851   2.538   2.420  0.9971  0.1583 -0.2087
  247MOL0     H33319   7.002   2.333   2.594 -0.7611  0.4788  0.6354
  247MOL0     H33320   6.939   2.304   2.428 -1.2705  0.3963  0.2042
  247MOL0     H33321   7.097   2.555   2.439  1.9484  0.1122 -2.1813
  247MOL0     H33322   7.064   2.447   2.314 -0.8723 -0.2208  0.3935
  247MOL0     H33323   7.271   2.418   2.534  1.2147  1.5320 -1.4020
  247MOL0     H33324   7.231   2.277   2.428  0.7883 -0.4297  0.4140
  247MOL0     H33325   6.434   2.065   2.407 -0.1463  1.0237 -1.5528
  247MOL0     H33326   6.250   1.928   2.279  0.6681 -0.3292 -0.3029
  247MOL0     H33327   5.682   2.021   2.072 -1.6871 -0.1996  0.2314
  247MOL0     H33328   5.497   1.865   2.023 -1.7955  1.1357  1.6591
  247MOL0     H33329   5.026   1.815   3.201  1.8075  0.2713 -0.2611
  247MOL0     H33330   5.184   1.777   3.405 -1.0890  1.7446 -1.6598
  247MOL0     H33331   5.489   1.584   3.572 -0.4738  1.3793  1.5213
  247MOL0     H33332   5.682   1.550   3.721  0.8588 -0.6076  1.1133
  247MOL0     H33333   5.830   1.534   3.874  1.1415  0.3415 -0.3007
  247MOL0     H33334   5.853   1.391   3.773  2.0937  1.9633 -0.1232
  247MOL0     H33335   6.019   1.442   3.952  1.4979 -1.1454  1.2453
  247MOL0     H33336   5.946   1.282   3.960 -2.3894  0.5075  1.9465
  247MOL0     H33337   5.785   1.436   4.143  0.9305 -0.3923  0.8360
  247MOL0     H33338   5.934   1.529   4.159 -0.1696 -0.4926  1.5371
  247MOL0     H33339   5.902   1.365   4.322  0.3416  1.4174 -0.2104
  247MOL0     H33340   5.930   1.230   4.214  1.5414 -0.1999  1.5767
  247MOL0     H33341   6.318   1.387   4.259 -0.1308  2.9087 -0.0066
  247MOL0     H33342   5.471   1.243   3.939 -1.2993 -0.1508  0.3008
  247MOL0     H33343   5.229   1.258   3.933 -1.1295  4.2297  0.8455
  247MOL0     H33344   5.134   1.327   3.799 -0.9607 -2.8508  0.0754
  247MOL0     H33345   5.212   1.180   3.785  1.9579 -0.0502 -1.6683
  248MOL0     O33346  10.675   9.141  11.009 -0.5026 -0.5753 -0.3511
  248MOL0     C33347  10.643   9.206  10.907 -0.5177  1.0134  0.1895
  248MOL0     O33348  10.712   9.208  10.793 -0.4260 -0.7478 -0.1153
  248MOL0     C33349  10.847   9.191  10.793  0.9410 -0.7652 -0.0338
  248MOL0     C33350  10.923   9.290  10.736  0.1239 -0.2337 -0.5822
  248MOL0     C33351  11.071   9.274  10.738  0.3850 -0.3560 -0.0706
  248MOL0     C33352  11.131   9.154  10.775 -0.4364  0.0699  0.6627
  248MOL0     O33353  11.266   9.133  10.772  0.3241 -0.6382  0.2364
  248MOL0     C33354  11.326   9.214  10.881 -0.5290 -0.1603  0.2671
  248MOL0     C33355  11.393   9.116  10.972  0.8166 -0.3439  0.6135
  248MOL0     C33356  11.527   9.066  10.925  0.1017 -0.3230  0.6639
  248MOL0     C33357  11.606   9.021  11.057  0.4036 -0.4690  0.0486
  248MOL0     C33358  11.745   8.973  11.033  0.2433 -0.2661 -0.4824
  248MOL0     C33359  11.824   9.075  10.968 -0.3638  0.3548  0.0818
  248MOL0     C33360  11.972   9.047  11.021  0.2863  0.2704  0.3655
  248MOL0     C33361  12.034   8.924  10.959  0.0375 -0.0998 -0.4023
  248MOL0     N33362  12.177   8.922  11.001  0.2029 -0.0716  0.5776
  248MOL0     C33363  12.256   9.028  10.966 -0.7229  0.1839  0.7730
  248MOL0     C33364  12.367   9.010  11.035 -0.7655 -0.5198  0.1118
  248MOL0     C33365  12.497   9.080  11.031 -0.4095  0.0609 -0.5204
  248MOL0     C33366  12.566   9.075  10.887 -0.5380 -0.0955 -0.2616
  248MOL0     C33367  12.662   9.189  10.872 -0.7473 -0.0145  0.2035
  248MOL0     C33368  12.801   9.152  10.822 -0.0917 -0.0851 -0.0972
  248MOL0     O33369  12.888   9.264  10.847  0.1267 -0.0013 -0.4323
  248MOL0     C33370  13.016   9.262  10.790 -0.1169  0.0481 -1.1315
  248MOL0     C33371  13.109   9.366  10.829 -0.6791  0.8829  0.1328
  248MOL0     C33372  13.244   9.363  10.787  0.3917 -0.4021  0.0757
  248MOL0     C33373  13.295   9.261  10.709 -0.2861 -0.1168  0.5821
  248MOL0     C33374  13.433   9.263  10.659 -0.0174  0.4795  1.4887
  248MOL0     O33375  13.515   9.373  10.688 -0.0179  0.3933  0.1144
  248MOL0     C33376  13.630   9.398  10.613  0.3768 -0.1992 -0.0161
  248MOL0     C33377  13.729   9.317  10.576  0.5969  0.6011  0.0606
  248MOL0     C33378  13.835   9.349  10.500  0.3928 -0.2056 -0.1486
  248MOL0     C33379  13.859   9.484  10.465 -0.1881  1.1010  0.1280
  248MOL0     O33380  13.959   9.543  10.400  0.1114  0.4533 -0.1203
  248MOL0     C33381  14.073   9.464  10.368  0.0044 -0.1316 -0.4486
  248MOL0     C33382  14.175   9.543  10.306 -0.0429  0.0840 -0.2963
  248MOL0     C33383  14.297   9.460  10.266  0.4083  0.6197 -0.4929
  248MOL0     C33384  14.418   9.548  10.247  0.6431  0.3418 -0.0493
  248MOL0     C33385  14.532   9.476  10.169 -0.0255 -0.6069 -0.4691
  248MOL0     C33386  14.509   9.509  10.022 -1.4587 -0.6065  1.4987
  248MOL0     C33387  14.613   9.444   9.926  0.2305  0.3764 -0.0345
  248MOL0     C33388  14.612   9.519   9.788  0.2573 -0.2395 -0.1306
  248MOL0    Cl33389  14.461   9.520   9.694 -0.1616  0.3328  0.0911
  248MOL0     C33390  13.761   9.568  10.507 -0.0708 -0.1445  0.3360
  248MOL0     C33391  13.646   9.531  10.571 -0.1081  1.5571  0.3061
  248MOL0     O33392  13.471   9.169  10.593 -0.0912  0.3259  0.6987
  248MOL0     C33393  13.206   9.157  10.678  0.4286  0.0488 -1.0534
  248MOL0     C33394  13.070   9.161  10.709  0.5249 -0.3400 -0.2291
  248MOL0     N33395  12.358   8.891  11.101  0.1458  0.0900 -0.0347
  248MOL0     N33396  12.241   8.847  11.092 -0.1066  0.6157  0.1705
  248MOL0     C33397  11.047   9.051  10.820 -0.1078 -0.1929 -0.1577
  248MOL0     C33398  10.907   9.071  10.834 -0.5429  0.1819  0.5117
  248MOL0     C33399  10.509   9.273  10.906 -0.7099  0.7129  1.2773
  248MOL0     C33400  10.452   9.309  10.780 -0.0659  0.3372 -0.2449
  248MOL0     C33401  10.330   9.360  10.769  0.2673  0.1929  0.0987
  248MOL0     C33402  10.259   9.376  10.895 -0.3426  0.1361 -0.0644
  248MOL0     O33403  10.121   9.393  10.892  0.2997  0.3868  0.0852
  248MOL0     C33404  10.040   9.428  10.775  0.5211  0.4201 -0.8025
  248MOL0     C33405   9.893   9.484  10.815  0.3153 -0.3482 -0.0563
  248MOL0     C33406   9.783   9.460  10.702 -0.1214 -0.2940  0.0332
  248MOL0     C33407   9.652   9.546  10.710  0.6125  0.4067  0.5883
  248MOL0     C33408   9.539   9.469  10.660  1.1580 -0.2354 -0.0102
  248MOL0     C33409   9.445   9.398  10.620  0.3531 -0.2350  0.0501
  248MOL0     C33410  10.316   9.349  11.015  0.6914 -0.0505  0.3713
  248MOL0     C33411  10.447   9.304  11.025 -0.6830 -0.9808 -0.8686
  248MOL0     C33412  10.501   9.298  11.167  0.7602 -0.3301 -0.5303
  248MOL0     H33413  10.873   9.379  10.700  1.0952  0.4570 -0.2732
  248MOL0     H33414  11.151   9.338  10.703 -0.4586  1.1203  0.6152
  248MOL0     H33415  11.407   9.265  10.827 -1.2963 -2.3430 -3.2820
  248MOL0     H33416  11.258   9.279  10.937 -2.6641 -1.4174 -0.7383
  248MOL0     H33417  11.329   9.028  10.982  0.9707 -0.3416  1.7211
  248MOL0     H33418  11.392   9.153  11.075 -2.8800 -2.5332  1.5530
  248MOL0     H33419  11.578   9.149  10.877 -2.4284  1.4353  0.8130
  248MOL0     H33420  11.524   8.995  10.842  0.1072 -0.4938  0.8082
  248MOL0     H33421  11.603   9.099  11.133  0.3197  1.5323 -1.9083
  248MOL0     H33422  11.551   8.933  11.092 -1.8633 -0.2465 -2.6139
  248MOL0     H33423  11.777   8.943  11.134 -0.0407  0.4197 -0.1820
  248MOL0     H33424  11.740   8.879  10.977 -3.5712  0.4496 -1.6191
  248MOL0     H33425  11.811   9.078  10.860  0.1904  1.7275  0.0344
  248MOL0     H33426  11.796   9.177  10.997  3.3204  0.9772  2.1548
  248MOL0     H33427  11.988   9.042  11.129 -0.2883  1.4210  0.5177
  248MOL0     H33428  12.039   9.128  10.990 -1.4973  1.1340 -1.5135
  248MOL0     H33429  11.985   8.831  10.988 -0.7861 -0.4838 -2.7831
  248MOL0     H33430  12.030   8.928  10.850 -3.4190  0.7246 -0.3559
  248MOL0     H33431  12.237   9.101  10.888 -0.6115  2.1946  2.5292
  248MOL0     H33432  12.478   9.182  11.065  1.3846  1.1825 -2.6882
  248MOL0     H33433  12.563   9.036  11.107 -0.8904 -1.0255 -0.7099
  248MOL0     H33434  12.628   8.985  10.882 -0.8561 -0.4860  1.9123
  248MOL0     H33435  12.495   9.071  10.804  1.6749  2.0541 -2.4401
  248MOL0     H33436  12.680   9.239  10.968 -2.4585  0.7814  0.1408
  248MOL0     H33437  12.622   9.269  10.810  0.0531  0.0596 -0.2251
  248MOL0     H33438  12.803   9.137  10.714  0.7959 -3.0084  0.2489
  248MOL0     H33439  12.834   9.062  10.875  4.5875  0.1621 -2.1999
  248MOL0     H33440  13.078   9.447  10.894  1.7993  0.1802  2.3916
  248MOL0     H33441  13.319   9.441  10.801  0.6687 -0.1076 -2.5381
  248MOL0     H33442  13.723   9.216  10.616 -0.8153 -0.1439 -1.8857
  248MOL0     H33443  13.916   9.278  10.485  2.7899  2.4808 -0.9988
  248MOL0     H33444  14.124   9.428  10.458 -2.5792 -1.7916  0.4992
  248MOL0     H33445  14.045   9.377  10.308 -3.9533  0.1650  0.6851
  248MOL0     H33446  14.135   9.579  10.211 -2.9814 -1.9873  0.0045
  248MOL0     H33447  14.201   9.629  10.369 -0.3350  1.7427 -2.2917
  248MOL0     H33448  14.323   9.384  10.340  2.9907  0.8607 -1.0778
  248MOL0     H33449  14.263   9.400  10.181 -2.4165 -0.5542  1.3017
  248MOL0     H33450  14.459   9.579  10.343 -0.5070 -0.4641  0.7255
  248MOL0     H33451  14.382   9.635  10.191  1.0845  0.7369  0.2808
  248MOL0     H33452  14.530   9.370  10.194  0.6206 -0.4508  0.2712
  248MOL0     H33453  14.634   9.505  10.197  0.5017 -0.4604 -2.3449
  248MOL0     H33454  14.418   9.470   9.974  0.1298  0.1775 -2.6157
  248MOL0     H33455  14.498   9.617  10.009 -0.6522 -0.5613  1.1023
  248MOL0     H33456  14.570   9.344   9.914 -2.1655  0.7117  3.9499
  248MOL0     H33457  14.710   9.447   9.975 -0.7970  0.9059  2.0933
  248MOL0     H33458  14.641   9.624   9.804 -1.6285  0.2393  0.3438
  248MOL0     H33459  14.693   9.469   9.734 -0.5911 -1.9417  0.1175
  248MOL0     H33460  13.761   9.673  10.478 -0.8853  0.4640  2.3992
  248MOL0     H33461  13.559   9.591  10.594 -1.6798  0.0176 -1.2690
  248MOL0     H33462  13.223   9.075  10.609 -0.8882  0.3504 -1.7660
  248MOL0     H33463  12.995   9.090  10.675  1.1013 -0.8948 -0.3593
  248MOL0     H33464  11.084   8.953  10.848 -1.8707 -1.9761 -3.4215
  248MOL0     H33465  10.837   9.002  10.878 -1.3122  0.7173  0.1459
  248MOL0     H33466  10.500   9.274  10.689 -2.6575 -0.2256 -1.4958
  248MOL0     H33467  10.294   9.380  10.669  1.1705 -1.3994 -0.5929
  248MOL0     H33468  10.039   9.335  10.719  2.7005  0.3341 -0.8061
  248MOL0     H33469  10.095   9.507  10.721  3.2705  1.1947  2.7221
  248MOL0     H33470   9.904   9.590  10.839  1.2941 -0.6162  0.7406
  248MOL0     H33471   9.856   9.445  10.910  0.3886  3.5632  1.7709
  248MOL0     H33472   9.767   9.352  10.706  2.4633 -0.7054  0.9538
  248MOL0     H33473   9.832   9.469  10.605  0.3044  0.4991  0.3160
  248MOL0     H33474   9.634   9.573  10.814 -0.3418  2.1098  0.0183
  248MOL0     H33475   9.653   9.639  10.652  0.1090 -0.6379 -1.1842
  248MOL0     H33476   9.357   9.343  10.596  0.9102 -0.6547 -1.1295
  248MOL0     H33477  10.249   9.376  11.096 -0.8984  2.3489 -1.5967
  248MOL0     H33478  10.494   9.197  11.209  1.6868 -0.5604 -0.8978
  248MOL0     H33479  10.609   9.316  11.161  1.1157 -2.5648 -1.8060
  248MOL0     H33480  10.452   9.371  11.232  2.4892 -0.3974  0.9332
  249MOL0     O33481  10.536   8.611  10.963  0.4503 -0.5107  0.0320
  249MOL0     C33482  10.545   8.718  10.904  0.1280  0.3995  0.5894
  249MOL0     O33483  10.656   8.804  10.896 -0.5814 -0.0536  0.4297
  249MOL0     C33484  10.777   8.750  10.940  0.2194  0.2741 -0.2032
  249MOL0     C33485  10.845   8.653  10.862  1.4630 -0.0006  0.7332
  249MOL0     C33486  10.971   8.609  10.899 -0.1144  0.3230  0.2647
  249MOL0     C33487  11.026   8.661  11.014 -0.9302  0.0979 -0.2660
  249MOL0     O33488  11.146   8.604  11.054 -0.7730  0.2792 -0.5578
  249MOL0     C33489  11.230   8.659  11.145  0.9779 -0.2296  0.6184
  249MOL0     C33490  11.387   8.643  11.120 -0.0840 -0.1814 -0.8535
  249MOL0     C33491  11.465   8.686  11.248 -0.2768  0.0326  0.2110
  249MOL0     C33492  11.611   8.655  11.226 -0.4012 -0.6461 -0.1007
  249MOL0     C33493  11.706   8.698  11.343  0.5085  1.1090 -1.0410
  249MOL0     C33494  11.845   8.677  11.294  0.1402  0.3688 -0.3736
  249MOL0     C33495  11.949   8.745  11.393 -0.4307 -0.2524 -0.5836
  249MOL0     C33496  12.084   8.668  11.386 -0.3841 -0.3481  0.5204
  249MOL0     N33497  12.173   8.732  11.480  0.2518  0.4573  0.0686
  249MOL0     C33498  12.261   8.830  11.453 -0.0408  0.6027  0.0408
  249MOL0     C33499  12.306   8.872  11.572  0.3497  1.3040  0.3971
  249MOL0     C33500  12.392   8.989  11.599 -0.4473  0.1919  0.4016
  249MOL0     C33501  12.539   8.970  11.541 -0.1611  0.2580  0.3461
  249MOL0     C33502  12.614   8.870  11.627 -0.5755 -0.4887 -0.1138
  249MOL0     C33503  12.762   8.848  11.590 -0.8636  1.3802 -0.5026
  249MOL0     O33504  12.840   8.964  11.624  0.0580 -0.2785 -0.0049
  249MOL0     C33505  12.975   8.968  11.645 -0.5749 -0.3420 -0.1557
  249MOL0     C33506  13.066   8.868  11.612  0.3423 -0.6468 -0.0960
  249MOL0     C33507  13.207   8.896  11.615 -0.3094 -0.0065 -0.2359
  249MOL0     C33508  13.257   9.016  11.661 -0.3049  0.8559 -0.4020
  249MOL0     C33509  13.399   9.043  11.662 -0.0264 -0.4500  0.4839
  249MOL0     O33510  13.457   9.149  11.732  0.4357  0.2928  0.1990
  249MOL0     C33511  13.589   9.189  11.719  0.1200 -0.2701 -0.0122
  249MOL0     C33512  13.696   9.119  11.657  0.0194 -0.3281 -0.0918
  249MOL0     C33513  13.822   9.181  11.652 -0.8071  1.4396 -0.0661
  249MOL0     C33514  13.847   9.312  11.698  0.3529 -0.5714 -0.2877
  249MOL0     O33515  13.966   9.366  11.685 -0.3184 -0.5995  0.3016
  249MOL0     C33516  13.998   9.484  11.762  0.8896 -0.7601 -0.4978
  249MOL0     C33517  14.145   9.472  11.772  0.7877  0.1549  0.5677
  249MOL0     C33518  14.227   9.578  11.845  0.1027 -0.0158  0.7279
  249MOL0     C33519  14.213   9.725  11.793 -0.4108 -0.4094  0.5369
  249MOL0     C33520  14.277   9.821  11.895 -0.2249 -0.3008  0.1006
  249MOL0     C33521  14.425   9.803  11.900  1.4269 -0.8173 -0.3456
  249MOL0     C33522  14.505   9.907  11.974  0.0787  0.0961  0.5501
  249MOL0     C33523  14.655   9.864  11.985  0.3589  0.9914 -0.4499
  249MOL0    Cl33524  14.685   9.729  12.108 -0.7342  0.1345  0.0226
  249MOL0     C33525  13.735   9.375  11.765  0.4209  0.6363  0.7339
  249MOL0     C33526  13.605   9.319  11.778 -0.1771  0.1777 -0.4229
  249MOL0     O33527  13.467   8.946  11.611  0.3151 -0.5933  0.0608
  249MOL0     C33528  13.165   9.113  11.714 -0.3511 -0.6308  0.7467
  249MOL0     C33529  13.030   9.096  11.690  0.5885 -0.3206  0.1091
  249MOL0     N33530  12.230   8.799  11.668 -0.3208 -0.4056  0.9285
  249MOL0     N33531  12.153   8.708  11.606  0.9226 -0.1500  0.0981
  249MOL0     C33532  10.961   8.755  11.092 -0.7972 -0.7432  0.2995
  249MOL0     C33533  10.833   8.796  11.060  0.0969  0.5051 -0.6710
  249MOL0     C33534  10.414   8.765  10.861  0.6386  0.0284  0.4091
  249MOL0     C33535  10.388   8.903  10.882 -0.6159 -0.0479  0.4311
  249MOL0     C33536  10.269   8.953  10.842  0.9613  0.6716 -0.0985
  249MOL0     C33537  10.169   8.869  10.793  0.0844 -0.1511  0.7678
  249MOL0     O33538  10.043   8.906  10.757 -0.1540  0.0110 -0.2928
  249MOL0     C33539   9.993   9.040  10.767 -0.3286  0.0767  0.0152
  249MOL0     C33540   9.938   9.073  10.906  0.3117 -0.2255 -0.2266
  249MOL0     C33541   9.795   9.025  10.927 -0.6121 -0.6628 -0.5569
  249MOL0     C33542   9.684   9.104  10.849 -0.0839  1.3375 -0.5419
  249MOL0     C33543   9.638   9.042  10.728  0.1373 -0.5879  0.5958
  249MOL0     C33544   9.579   8.993  10.630  0.2497  0.0088  0.6303
  249MOL0     C33545  10.192   8.736  10.777  1.0471  0.4757  0.8267
  249MOL0     C33546  10.317   8.680  10.795 -0.0763  0.1069  0.9911
  249MOL0     C33547  10.348   8.536  10.755  0.3341  0.5054  0.1939
  249MOL0     H33548  10.797   8.600  10.781  1.5216 -0.7686  1.1862
  249MOL0     H33549  11.033   8.535  10.850  0.1428  0.5107  0.3087
  249MOL0     H33550  11.220   8.768  11.156 -0.2772  0.1895 -3.2064
  249MOL0     H33551  11.210   8.621  11.246  1.4650  1.3501  1.3531
  249MOL0     H33552  11.418   8.712  11.042  1.6284  1.5527  1.2081
  249MOL0     H33553  11.404   8.541  11.086  0.7653 -0.2516 -0.2443
  249MOL0     H33554  11.441   8.625  11.336  2.3452 -1.1984  0.1722
  249MOL0     H33555  11.449   8.794  11.260  0.8657  0.3216 -0.7553
  249MOL0     H33556  11.622   8.549  11.203 -1.5977 -0.1772 -3.2197
  249MOL0     H33557  11.644   8.712  11.139  2.8070  0.0995  1.4478
  249MOL0     H33558  11.687   8.804  11.360  0.1918  0.9699 -0.4973
  249MOL0     H33559  11.691   8.649  11.439  1.6572 -0.5377 -1.6512
  249MOL0     H33560  11.857   8.569  11.279 -0.0261  0.3699 -0.5149
  249MOL0     H33561  11.842   8.722  11.194 -1.7069  1.7352  0.2396
  249MOL0     H33562  11.919   8.742  11.498  0.0644  0.3021 -0.4229
  249MOL0     H33563  11.975   8.848  11.369 -1.6953  0.4861  1.0521
  249MOL0     H33564  12.069   8.568  11.430  3.3074 -0.5052  1.7349
  249MOL0     H33565  12.127   8.684  11.287  0.3507  1.2183  1.0699
  249MOL0     H33566  12.297   8.864  11.356  1.5250  0.2616  0.4792
  249MOL0     H33567  12.353   9.081  11.556 -1.5041 -0.1648  0.5756
  249MOL0     H33568  12.396   9.017  11.705 -1.8600  0.1829  0.4774
  249MOL0     H33569  12.536   8.933  11.438 -0.2437 -2.2375  1.1809
  249MOL0     H33570  12.593   9.064  11.547 -1.2353  0.8469  1.3227
  249MOL0     H33571  12.570   8.773  11.600 -4.1228  0.4149  1.6983
  249MOL0     H33572  12.615   8.900  11.732  3.0034 -0.3267 -0.0804
  249MOL0     H33573  12.773   8.832  11.482 -0.8271  2.4885 -0.6731
  249MOL0     H33574  12.790   8.759  11.648 -2.6917  1.5101  0.6418
  249MOL0     H33575  13.040   8.773  11.566 -0.4716  0.4522 -1.9921
  249MOL0     H33576  13.283   8.828  11.580  0.9016  1.4841 -0.5878
  249MOL0     H33577  13.702   9.024  11.604 -0.6879 -0.3359 -0.1726
  249MOL0     H33578  13.902   9.113  11.626 -1.8790 -1.5897  3.4865
  249MOL0     H33579  13.973   9.579  11.713  3.8884 -0.7315 -2.1944
  249MOL0     H33580  13.959   9.480  11.864 -1.2343  2.1487 -1.0666
  249MOL0     H33581  14.167   9.376  11.820  3.0586 -0.9703 -2.3834
  249MOL0     H33582  14.180   9.460  11.669  0.0441 -3.0901  0.5867
  249MOL0     H33583  14.195   9.583  11.949  1.4126  0.6088  1.1096
  249MOL0     H33584  14.333   9.554  11.832  0.1148  1.0301 -1.4455
  249MOL0     H33585  14.109   9.759  11.791  0.3394  2.2741  1.7221
  249MOL0     H33586  14.263   9.742  11.698 -1.6505  0.7713  0.0750
  249MOL0     H33587  14.231   9.810  11.994  0.0283  0.6086  0.3302
  249MOL0     H33588  14.254   9.919  11.852  1.1624 -0.7773 -1.8497
  249MOL0     H33589  14.450   9.702  11.933  0.6156 -0.7358  0.5287
  249MOL0     H33590  14.456   9.802  11.795  1.0804 -0.3725 -0.4552
  249MOL0     H33591  14.463   9.921  12.074 -1.9650 -3.9571  0.4929
  249MOL0     H33592  14.486   9.996  11.914 -2.2861 -0.6088  0.1111
  249MOL0     H33593  14.685   9.832  11.885  1.6270  1.8744 -0.3806
  249MOL0     H33594  14.722   9.946  12.013 -0.2750  0.8513  1.6639
  249MOL0     H33595  13.748   9.475  11.803 -1.9131  1.7405 -1.0953
  249MOL0     H33596  13.526   9.375  11.827  1.1481  0.4469  1.5489
  249MOL0     H33597  13.199   9.205  11.759 -1.0231 -1.1437  2.3954
  249MOL0     H33598  12.965   9.182  11.703  0.2543 -0.5595  0.0139
  249MOL0     H33599  11.006   8.799  11.181 -0.5675 -2.4382  1.0810
  249MOL0     H33600  10.780   8.858  11.132  1.9057  0.9446  0.3506
  249MOL0     H33601  10.455   8.976  10.927 -1.9448  2.4677 -1.4510
  249MOL0     H33602  10.248   9.059  10.836 -0.5752  0.3139 -2.5738
  249MOL0     H33603   9.914   9.041  10.692 -0.8977 -4.1404  0.3582
  249MOL0     H33604  10.063   9.118  10.734 -2.3607  1.1448 -2.0183
  249MOL0     H33605   9.937   9.182  10.921 -2.1789  0.1301 -2.1556
  249MOL0     H33606   9.998   9.032  10.987  1.6860  1.5282 -0.2886
  249MOL0     H33607   9.776   9.043  11.033  1.2618  1.0632 -0.4533
  249MOL0     H33608   9.786   8.917  10.915  1.1657 -0.5846 -3.8505
  249MOL0     H33609   9.602   9.100  10.923  3.1749  4.0678  3.7159
  249MOL0     H33610   9.704   9.211  10.840  3.4443  1.2077  3.0132
  249MOL0     H33611   9.541   8.966  10.533  0.1868 -0.0195  0.6621
  249MOL0     H33612  10.102   8.686  10.743 -0.7881  3.2488  1.2568
  249MOL0     H33613  10.329   8.461  10.832  0.2062  0.5249  0.1815
  249MOL0     H33614  10.272   8.512  10.680 -0.7270 -0.8042  1.6219
  249MOL0     H33615  10.450   8.512  10.724 -0.5363 -4.1033  0.1859
  250MOL0     O33616   0.837   9.904  11.265  0.0759  0.0837  0.3960
  250MOL0     C33617   0.878   9.910  11.151  0.4010  0.2667  0.2045
  250MOL0     O33618   1.011   9.934  11.120  0.4918 -0.1395 -0.3820
  250MOL0     C33619   1.116   9.915  11.206  0.5114 -0.0699 -0.7535
  250MOL0     C33620   1.168  10.031  11.267 -0.3415 -0.4455 -0.0229
  250MOL0     C33621   1.260  10.013  11.372  0.1292 -0.6749  0.1402
  250MOL0     C33622   1.287   9.881  11.412 -0.5783  0.2373  0.5511
  250MOL0     O33623   1.372   9.848  11.514  0.6814 -0.5901 -0.1346
  250MOL0     C33624   1.412   9.960  11.599 -0.0814  0.0314  0.1747
  250MOL0     C33625   1.524   9.912  11.677  0.4304 -0.4176  0.1282
  250MOL0     C33626   1.550  10.002  11.799 -0.5100 -0.0030 -0.5494
  250MOL0     C33627   1.651   9.922  11.894 -0.0835 -0.2423 -0.3580
  250MOL0     C33628   1.682   9.993  12.025 -0.6544 -0.4274  0.0703
  250MOL0     C33629   1.807  10.075  11.995  0.5771  0.0644  0.6920
  250MOL0     C33630   1.865  10.128  12.128 -0.8964  0.1816 -0.1165
  250MOL0     C33631   1.770  10.250  12.176  0.8294 -0.2914  0.0953
  250MOL0     N33632   1.772  10.358  12.076 -0.4079  0.1243  0.7872
  250MOL0     C33633   1.845  10.475  12.086 -0.3744  0.4372 -0.1513
  250MOL0     C33634   1.804  10.561  11.986 -0.0167  0.8264  0.5810
  250MOL0     C33635   1.836  10.706  11.956  0.0817  0.0574 -0.2463
  250MOL0     C33636   1.850  10.722  11.800 -0.5235 -0.1850 -0.7430
  250MOL0     C33637   1.968  10.638  11.743 -0.0891 -0.4987 -0.2894
  250MOL0     C33638   1.979  10.670  11.594  0.2635  0.5994 -0.2106
  250MOL0     O33639   2.008  10.808  11.568 -0.4763 -0.0098 -0.1443
  250MOL0     C33640   2.138  10.849  11.597  0.9962 -0.5099  0.4370
  250MOL0     C33641   2.251  10.775  11.580 -0.3163  0.0544 -0.5940
  250MOL0     C33642   2.379  10.816  11.607  0.4712 -0.7637 -0.9372
  250MOL0     C33643   2.407  10.951  11.652  0.8477  0.1428  0.7166
  250MOL0     C33644   2.544  11.002  11.687 -0.3656  0.1686 -0.2953
  250MOL0     O33645   2.649  10.906  11.694 -0.0253 -0.0028 -0.7603
  250MOL0     C33646   2.771  10.944  11.753  0.2416 -0.6392  0.3175
  250MOL0     C33647   2.800  10.919  11.877 -0.5164 -0.3016 -0.4203
  250MOL0     C33648   2.931  10.939  11.918 -0.5480 -0.0999 -0.4598
  250MOL0     C33649   3.034  10.982  11.836  0.3110  0.4147  0.3830
  250MOL0     O33650   3.161  10.977  11.883  0.2931  0.7378 -0.0342
  250MOL0     C33651   3.266  11.002  11.795  0.2539 -0.4644  0.7017
  250MOL0     C33652   3.396  10.999  11.878  0.5054 -0.2341  0.2649
  250MOL0     C33653   3.518  11.049  11.807  0.3271 -1.1830 -0.1745
  250MOL0     C33654   3.657  11.036  11.879  0.2725 -0.4227  0.4371
  250MOL0     C33655   3.725  11.178  11.872  0.4592 -0.3639  0.4612
  250MOL0     C33656   3.878  11.162  11.901 -0.0207  0.9332  1.0274
  250MOL0     C33657   3.944  11.293  11.907 -0.0604 -0.3689  0.5641
  250MOL0     C33658   3.870  11.398  11.991 -0.0815 -0.2168 -0.2027
  250MOL0    Cl33659   3.994  11.516  12.023 -0.6778 -0.2621  0.0618
  250MOL0     C33660   2.995  11.015  11.704 -0.1497 -1.0659 -0.1300
  250MOL0     C33661   2.866  10.992  11.662  0.3343 -0.2761 -0.0497
  250MOL0     O33662   2.565  11.123  11.706  0.2723 -0.6178  0.3698
  250MOL0     C33663   2.290  11.024  11.667 -0.9295 -0.2138 -0.1974
  250MOL0     C33664   2.161  10.977  11.640  0.0905  0.4741 -0.2621
  250MOL0     N33665   1.701  10.498  11.918  0.2516  0.3526 -0.6386
  250MOL0     N33666   1.682  10.380  11.978 -0.5813  0.3400  0.6727
  250MOL0     C33667   1.217   9.770  11.361  0.5851 -0.8222 -0.1358
  250MOL0     C33668   1.139   9.786  11.255 -0.2400 -0.7436  0.7327
  250MOL0     C33669   0.769   9.934  11.046  0.2421  0.2507  0.0610
  250MOL0     C33670   0.807   9.944  10.914  0.1639 -0.2260 -0.8570
  250MOL0     C33671   0.724   9.968  10.800 -0.8569  1.0205 -0.5607
  250MOL0     C33672   0.593   9.991  10.828  0.0996  0.4548  0.3640
  250MOL0     O33673   0.492  10.013  10.739  0.2515 -0.2730  0.0178
  250MOL0     C33674   0.526  10.041  10.606 -0.3070  0.3601 -0.4468
  250MOL0     C33675   0.402  10.058  10.510  0.3132 -0.6281  0.7579
  250MOL0     C33676   0.420  10.061  10.361 -0.2291 -0.2823 -0.0239
  250MOL0     C33677   0.286  10.077  10.290  0.5577 -0.1493  0.9285
  250MOL0     C33678   0.215   9.957  10.274  0.5811  0.4142 -0.7623
  250MOL0     C33679   0.146   9.867  10.224  1.2510  0.1075 -1.1432
  250MOL0     C33680   0.552  10.007  10.960  0.6032 -0.1451  0.1890
  250MOL0     C33681   0.630   9.973  11.069 -0.3249 -0.2033  0.5076
  250MOL0     C33682   0.570   9.999  11.200 -0.0038 -0.7293 -0.4997
  250MOL0     H33683   1.132  10.125  11.225 -0.4216 -0.9768 -1.1983
  250MOL0     H33684   1.297  10.100  11.426 -1.3354 -1.0468  1.8866
  250MOL0     H33685   1.450  10.043  11.540 -0.0213 -1.4270 -1.9455
  250MOL0     H33686   1.322   9.993  11.652 -0.7092 -0.6221 -0.4429
  250MOL0     H33687   1.615   9.899  11.617 -0.5373  2.8665 -2.4094
  250MOL0     H33688   1.496   9.814  11.715 -1.3726 -0.8367 -2.0374
  250MOL0     H33689   1.461  10.027  11.858 -0.7032  0.9803 -1.2228
  250MOL0     H33690   1.600  10.093  11.766  1.3345 -1.6756 -2.6482
  250MOL0     H33691   1.606   9.832  11.938  0.4865  1.9224  5.4228
  250MOL0     H33692   1.743   9.898  11.840  0.3121 -1.2143  0.7047
  250MOL0     H33693   1.599  10.059  12.053 -1.6364 -1.6961  0.2113
  250MOL0     H33694   1.692   9.932  12.115  0.7800 -0.0509  0.1915
  250MOL0     H33695   1.881  10.008  11.950  1.9733  1.1975  1.2596
  250MOL0     H33696   1.795  10.156  11.922  0.3483  0.3128  1.0036
  250MOL0     H33697   1.960  10.178  12.108 -0.5424  0.0501  1.1654
  250MOL0     H33698   1.880  10.045  12.198 -1.8733 -1.1726 -1.4199
  250MOL0     H33699   1.666  10.222  12.195  0.7519  1.7786  3.6954
  250MOL0     H33700   1.810  10.286  12.271  0.9395 -2.8297  1.1102
  250MOL0     H33701   1.917  10.504  12.162  2.3619 -1.2291 -1.9104
  250MOL0     H33702   1.752  10.769  11.987  0.2686 -0.3045  1.0623
  250MOL0     H33703   1.928  10.747  11.998  0.1560  0.0987 -0.4482
  250MOL0     H33704   1.759  10.682  11.754 -0.7199  0.0535 -0.5718
  250MOL0     H33705   1.858  10.830  11.781 -0.6996  0.4489  2.2883
  250MOL0     H33706   1.957  10.531  11.763  1.4157 -0.1744  2.7082
  250MOL0     H33707   2.064  10.666  11.786 -2.0630  2.8266  2.4766
  250MOL0     H33708   1.892  10.649  11.532  2.4707 -0.3777 -3.2488
  250MOL0     H33709   2.044  10.597  11.545  0.5401  0.4232  0.4074
  250MOL0     H33710   2.238  10.670  11.554  1.9361 -1.1694  2.5725
  250MOL0     H33711   2.464  10.749  11.603  1.3510  0.1765  0.6886
  250MOL0     H33712   2.738  10.887  11.960  0.9072  0.4690  0.9985
  250MOL0     H33713   2.959  10.889  12.011 -0.1846 -2.0663 -1.5592
  250MOL0     H33714   3.264  10.924  11.719 -1.8156  0.8069 -0.6655
  250MOL0     H33715   3.259  11.104  11.755  1.4805 -0.2616  0.9594
  250MOL0     H33716   3.395  11.074  11.959  1.1110  0.8520 -0.7010
  250MOL0     H33717   3.406  10.903  11.928  1.4937  0.8687  2.3270
  250MOL0     H33718   3.520  10.994  11.712 -2.4543 -2.1930  0.2461
  250MOL0     H33719   3.495  11.154  11.786 -1.8372 -1.2022  1.7543
  250MOL0     H33720   3.722  10.968  11.821 -1.0414 -1.7113  0.4286
  250MOL0     H33721   3.649  11.001  11.982  0.5654  1.7694  1.2410
  250MOL0     H33722   3.665  11.237  11.943  0.4763 -0.9429  0.9619
  250MOL0     H33723   3.713  11.226  11.774 -0.8705 -2.5248 -0.4921
  250MOL0     H33724   3.898  11.103  11.991  1.3352  1.2040  0.9243
  250MOL0     H33725   3.923  11.095  11.827 -1.4196 -0.7426  1.6130
  250MOL0     H33726   3.962  11.323  11.804  0.1509  4.5428  1.7727
  250MOL0     H33727   4.047  11.289  11.944  0.3547  0.4484 -0.4723
  250MOL0     H33728   3.781  11.429  11.934  1.1151  3.2821 -0.3669
  250MOL0     H33729   3.844  11.365  12.092 -2.1149  1.6240 -0.0346
  250MOL0     H33730   3.072  11.040  11.631 -0.6328 -1.2186 -0.6957
  250MOL0     H33731   2.836  10.996  11.557  0.5104  0.6278 -0.0686
  250MOL0     H33732   2.312  11.121  11.711 -2.4649 -0.1145  0.4397
  250MOL0     H33733   2.071  11.035  11.658 -1.2559 -0.5445 -3.1266
  250MOL0     H33734   1.230   9.666  11.390  1.6003  0.1839  3.5597
  250MOL0     H33735   1.090   9.713  11.192 -1.3782  0.5925  0.0119
  250MOL0     H33736   0.916   9.934  10.914  0.0669 -2.9231  2.7553
  250MOL0     H33737   0.782   9.960  10.709  0.8056 -0.8319  0.5840
  250MOL0     H33738   0.588   9.956  10.576  1.5115  0.1579  3.2842
  250MOL0     H33739   0.588  10.130  10.595 -0.0284  0.1877 -0.2888
  250MOL0     H33740   0.347  10.149  10.537  1.8212  0.1254  1.3505
  250MOL0     H33741   0.325   9.985  10.536 -0.7656 -1.4672 -3.9166
  250MOL0     H33742   0.464   9.969  10.320 -2.0857 -0.9835 -0.5309
  250MOL0     H33743   0.479  10.148  10.331 -1.5291  0.4760 -0.4587
  250MOL0     H33744   0.234  10.166  10.328  1.0566  0.4574  0.2381
  250MOL0     H33745   0.298  10.108  10.185  1.4772 -0.1842  1.0169
  250MOL0     H33746   0.080   9.794  10.181  0.1392  0.7547 -0.5885
  250MOL0     H33747   0.450  10.043  10.971  0.2703 -1.0655  0.2315
  250MOL0     H33748   0.589   9.919  11.273 -1.6898  1.1743  2.2158
  250MOL0     H33749   0.602  10.099  11.230 -2.2496 -0.7578  2.5167
  250MOL0     H33750   0.463  10.003  11.177 -0.2479 -1.8677  0.3264
  251MOL0     O33751   9.998   4.288   6.735 -0.0501 -0.0952 -0.2005
  251MOL0     C33752   9.925   4.357   6.671  0.7564  0.4224  0.3752
  251MOL0     O33753   9.965   4.429   6.565  0.3504 -0.3495 -0.3567
  251MOL0     C33754  10.092   4.431   6.527 -0.2677 -0.3274  0.0835
  251MOL0     C33755  10.194   4.480   6.617 -0.6912 -0.0782  1.0970
  251MOL0     C33756  10.322   4.485   6.572 -0.5421  0.6219 -0.1761
  251MOL0     C33757  10.361   4.443   6.436  0.2167  0.1611  0.8359
  251MOL0     O33758  10.486   4.454   6.379  0.5195 -1.0063  0.2529
  251MOL0     C33759  10.605   4.443   6.460  0.7034  0.0600  1.0646
  251MOL0     C33760  10.738   4.450   6.386  0.3847 -0.1245  0.0306
  251MOL0     C33761  10.778   4.592   6.338 -0.6956 -0.6791  0.0209
  251MOL0     C33762  10.870   4.649   6.450 -0.1399  0.1069  0.3067
  251MOL0     C33763  10.938   4.780   6.397 -0.0543  0.0594  0.5259
  251MOL0     C33764  10.878   4.911   6.451 -0.2826  0.6069 -0.0181
  251MOL0     C33765  10.904   4.938   6.593 -0.0011  0.3346  0.3027
  251MOL0     C33766  10.808   5.052   6.637 -1.1229 -0.0349 -0.2821
  251MOL0     N33767  10.851   5.178   6.569 -0.6519 -0.0485  0.4989
  251MOL0     C33768  10.976   5.240   6.571 -0.0775  0.3040  0.4758
  251MOL0     C33769  10.982   5.315   6.457 -0.1512 -0.0022  0.6333
  251MOL0     C33770  11.107   5.391   6.413 -0.4068  0.0383 -0.4096
  251MOL0     C33771  11.083   5.492   6.299 -0.1085 -0.2050 -0.1520
  251MOL0     C33772  11.172   5.467   6.180  0.0815  0.6910 -0.2081
  251MOL0     C33773  11.321   5.508   6.193  0.1909 -0.3374 -0.6938
  251MOL0     O33774  11.403   5.470   6.082 -0.1261 -0.6758 -0.0835
  251MOL0     C33775  11.487   5.562   6.032  0.2512  0.2321  0.1684
  251MOL0     C33776  11.607   5.516   5.974 -0.0354 -0.0127  0.1421
  251MOL0     C33777  11.695   5.601   5.906  0.4846 -0.4326 -0.3482
  251MOL0     C33778  11.677   5.740   5.924 -0.6453 -0.3559 -0.1414
  251MOL0     C33779  11.781   5.827   5.875 -0.5599 -0.8107 -0.0407
  251MOL0     O33780  11.875   5.769   5.798 -0.6245 -0.1001 -0.4201
  251MOL0     C33781  11.985   5.827   5.743  0.1779 -0.1282 -0.0923
  251MOL0     C33782  12.057   5.748   5.651 -0.3000  0.3131 -0.3797
  251MOL0     C33783  12.174   5.789   5.584  0.5319 -0.1182  0.6442
  251MOL0     C33784  12.235   5.904   5.635 -0.0315 -0.3633  0.3358
  251MOL0     O33785  12.357   5.924   5.594 -0.6715 -0.1170  0.0736
  251MOL0     C33786  12.439   6.014   5.661 -0.3529  0.1784  0.0465
  251MOL0     C33787  12.579   6.035   5.597 -1.0238 -0.5252  0.1240
  251MOL0     C33788  12.640   6.173   5.644 -0.7199 -0.0671  0.4133
  251MOL0     C33789  12.777   6.199   5.575 -0.2965  0.0081 -0.2261
  251MOL0     C33790  12.771   6.201   5.423 -0.6511  0.0118  0.1699
  251MOL0     C33791  12.907   6.229   5.357 -0.9634 -0.9738 -0.1316
  251MOL0     C33792  12.885   6.316   5.239 -0.1613  0.5580 -0.7991
  251MOL0     C33793  13.019   6.348   5.165  0.7825  1.5197 -0.0187
  251MOL0    Cl33794  13.120   6.464   5.257 -0.3197 -0.1648 -0.0876
  251MOL0     C33795  12.161   5.985   5.726  0.0914  0.4225 -0.4516
  251MOL0     C33796  12.032   5.949   5.766 -0.0242 -0.5872 -0.2987
  251MOL0     O33797  11.775   5.949   5.905 -0.4152 -0.1325 -0.4640
  251MOL0     C33798  11.555   5.789   5.979  0.3693  0.5548  0.3244
  251MOL0     C33799  11.462   5.697   6.033  0.3919  0.6311 -0.0143
  251MOL0     N33800  10.868   5.294   6.385 -0.2387 -0.1464 -0.4773
  251MOL0     N33801  10.789   5.220   6.457 -0.9093  0.0316 -0.9100
  251MOL0     C33802  10.260   4.394   6.352  0.5480  0.9941 -0.8637
  251MOL0     C33803  10.125   4.392   6.395  0.4346  1.1524  0.5479
  251MOL0     C33804   9.781   4.340   6.706 -0.4322 -0.3775  0.8693
  251MOL0     C33805   9.751   4.285   6.830 -0.3921  0.8114  0.3645
  251MOL0     C33806   9.614   4.252   6.867 -0.3052 -1.3364  0.5422
  251MOL0     C33807   9.510   4.281   6.774  1.0926  0.2807 -0.7545
  251MOL0     O33808   9.376   4.248   6.793 -0.2723  0.7969  0.6275
  251MOL0     C33809   9.327   4.237   6.925  0.7878 -0.5978 -0.0099
  251MOL0     C33810   9.181   4.223   6.920  0.7170  0.7056 -0.7586
  251MOL0     C33811   9.109   4.365   6.908 -1.1477  0.4318 -0.1241
  251MOL0     C33812   8.972   4.362   6.850 -0.2138 -0.5905  0.2147
  251MOL0     C33813   8.874   4.287   6.924 -0.0120  0.5232  0.5902
  251MOL0     C33814   8.795   4.225   6.989  0.0581 -0.2877  0.3962
  251MOL0     C33815   9.544   4.338   6.661 -0.2465 -0.2002 -0.4239
  251MOL0     C33816   9.674   4.374   6.622  0.9128  0.8822 -0.5400
  251MOL0     C33817   9.690   4.437   6.483  1.0390  0.2993 -0.2938
  251MOL0     H33818  10.173   4.523   6.715 -0.7871 -0.2187  1.1364
  251MOL0     H33819  10.395   4.523   6.643  0.6665 -1.6109 -0.1462
  251MOL0     H33820  10.609   4.533   6.523 -1.2652  1.7800 -1.0573
  251MOL0     H33821  10.607   4.344   6.507 -2.0205 -1.4009 -1.5335
  251MOL0     H33822  10.716   4.392   6.296 -0.2609  0.2391 -0.0497
  251MOL0     H33823  10.819   4.400   6.439  2.2042  1.6471 -0.9072
  251MOL0     H33824  10.693   4.658   6.322 -0.9543 -1.3512 -1.6608
  251MOL0     H33825  10.820   4.582   6.237  2.3504  0.5873  1.0289
  251MOL0     H33826  10.819   4.654   6.547  0.2798  1.3165  0.4735
  251MOL0     H33827  10.946   4.572   6.467 -0.1726 -0.1057 -0.4856
  251MOL0     H33828  11.044   4.790   6.422 -0.0962  0.3412  0.6052
  251MOL0     H33829  10.925   4.780   6.289 -1.4886  1.8866  0.6382
  251MOL0     H33830  10.914   4.998   6.396 -0.9505  0.7865 -0.1681
  251MOL0     H33831  10.770   4.910   6.434  0.0092  0.8354 -2.1210
  251MOL0     H33832  11.010   4.954   6.610  0.1424  1.1264 -1.2138
  251MOL0     H33833  10.875   4.852   6.654 -0.5374  0.3232  0.0364
  251MOL0     H33834  10.705   5.021   6.621 -0.1215 -3.3762 -0.8767
  251MOL0     H33835  10.811   5.069   6.745 -2.0145  0.0064 -0.2535
  251MOL0     H33836  11.058   5.216   6.637 -0.8416  0.5493  1.5439
  251MOL0     H33837  11.146   5.437   6.504 -3.2942 -2.2849  2.2789
  251MOL0     H33838  11.171   5.309   6.379 -0.0001  0.4115 -0.5367
  251MOL0     H33839  10.976   5.487   6.274  0.0106 -1.8020 -0.4697
  251MOL0     H33840  11.110   5.588   6.343 -0.1550  0.4716 -1.5565
  251MOL0     H33841  11.124   5.517   6.095 -3.5343 -0.1884  1.1203
  251MOL0     H33842  11.166   5.360   6.157  1.0492  0.7458 -0.7711
  251MOL0     H33843  11.361   5.476   6.290 -2.9639  0.1360  0.9219
  251MOL0     H33844  11.318   5.616   6.213  0.5162 -0.3349 -0.6457
  251MOL0     H33845  11.619   5.408   5.976 -1.3303 -0.1656  1.2746
  251MOL0     H33846  11.770   5.546   5.849 -0.0609 -0.2269 -1.2864
  251MOL0     H33847  12.034   5.642   5.641  1.7125 -0.1044 -0.9538
  251MOL0     H33848  12.225   5.714   5.525 -1.4654  0.7178 -2.4150
  251MOL0     H33849  12.391   6.112   5.671 -2.1646 -0.8651  2.8499
  251MOL0     H33850  12.466   5.977   5.761  1.5163 -0.0572 -0.5175
  251MOL0     H33851  12.641   5.947   5.617  1.0317  0.7862 -0.1440
  251MOL0     H33852  12.558   6.044   5.490 -0.5491 -1.3013 -0.0424
  251MOL0     H33853  12.575   6.261   5.635  0.3265  0.6852 -0.0480
  251MOL0     H33854  12.669   6.163   5.749 -1.6360  0.8018  0.7739
  251MOL0     H33855  12.849   6.120   5.598  0.1696  0.5871  0.3744
  251MOL0     H33856  12.831   6.290   5.603  0.7835 -0.3136 -1.1921
  251MOL0     H33857  12.695   6.268   5.384 -0.1530 -0.1672 -1.1485
  251MOL0     H33858  12.764   6.094   5.401  1.4962 -0.8296  2.9591
  251MOL0     H33859  12.972   6.281   5.429  0.6276 -0.2410 -2.0016
  251MOL0     H33860  12.946   6.132   5.325  1.9305 -0.6453  2.0369
  251MOL0     H33861  12.837   6.411   5.263 -1.7595  0.5491 -3.4800
  251MOL0     H33862  12.825   6.249   5.177  0.9306 -2.8541  1.5907
  251MOL0     H33863  13.079   6.257   5.154  1.5363  1.6962  2.1731
  251MOL0     H33864  12.997   6.389   5.066 -2.3566  2.4688  0.9755
  251MOL0     H33865  12.185   6.084   5.762 -1.7513  0.0174  2.2663
  251MOL0     H33866  11.980   6.033   5.811  0.9076 -0.5755  0.7885
  251MOL0     H33867  11.541   5.894   6.003 -2.0265  0.2478  0.5487
  251MOL0     H33868  11.375   5.747   6.073 -0.2601 -0.8472  0.4995
  251MOL0     H33869  10.280   4.373   6.247  0.2054 -1.8521 -0.4155
  251MOL0     H33870  10.063   4.378   6.306  3.6849 -2.3018 -1.4717
  251MOL0     H33871   9.832   4.261   6.898  0.9013 -0.1548 -1.4533
  251MOL0     H33872   9.588   4.221   6.968 -0.7354 -0.5841  0.6720
  251MOL0     H33873   9.354   4.324   6.986 -1.7539 -0.5185  1.1406
  251MOL0     H33874   9.386   4.154   6.964  2.7222  1.6253  2.1969
  251MOL0     H33875   9.140   4.173   7.008  0.7037  0.1012 -1.1046
  251MOL0     H33876   9.154   4.167   6.831  1.9099 -2.5725  0.7930
  251MOL0     H33877   9.167   4.429   6.841  1.4965 -0.5204  1.1048
  251MOL0     H33878   9.110   4.405   7.010 -1.6885 -0.0934  0.0957
  251MOL0     H33879   8.929   4.462   6.848  0.8425 -0.1204  0.6552
  251MOL0     H33880   8.978   4.322   6.748  0.7939 -1.4738  0.6017
  251MOL0     H33881   8.731   4.183   7.063 -0.6947  0.6508  0.3018
  251MOL0     H33882   9.471   4.365   6.586  1.7233 -1.3868 -2.9403
  251MOL0     H33883   9.744   4.532   6.472 -2.1647  1.9429 -5.8070
  251MOL0     H33884   9.739   4.367   6.415  1.4613  4.1963 -4.4567
  251MOL0     H33885   9.593   4.472   6.448  0.9285  0.6755  0.3751
  252MOL0     O33886   8.206   2.207   6.424 -0.1835 -0.0328  0.3441
  252MOL0     C33887   8.245   2.322   6.452 -0.2720 -0.3431  0.5106
  252MOL0     O33888   8.166   2.439   6.457  0.2623  0.1035  0.0870
  252MOL0     C33889   8.031   2.414   6.456  1.1223  0.2559 -1.0179
  252MOL0     C33890   7.942   2.508   6.395  0.3847 -0.1665 -0.6093
  252MOL0     C33891   7.809   2.487   6.376 -0.2979 -0.6385  0.4171
  252MOL0     C33892   7.741   2.384   6.445 -0.2963 -0.0763  0.2338
  252MOL0     O33893   7.611   2.387   6.438 -0.4551  0.5295  0.9722
  252MOL0     C33894   7.524   2.380   6.552  0.0918 -0.1145 -0.2445
  252MOL0     C33895   7.383   2.316   6.514  0.1074  0.3262 -0.1605
  252MOL0     C33896   7.317   2.391   6.389  0.3743  0.1164 -0.2063
  252MOL0     C33897   7.269   2.533   6.427  0.0250 -0.1989  0.7574
  252MOL0     C33898   7.208   2.603   6.310  0.4787 -0.6550 -0.7925
  252MOL0     C33899   7.088   2.536   6.246  0.8878  0.2561  0.2575
  252MOL0     C33900   6.956   2.549   6.324  0.9295  0.7831 -0.5966
  252MOL0     C33901   6.846   2.548   6.220  0.0512 -0.5278 -0.7164
  252MOL0     N33902   6.716   2.585   6.275  0.6865 -0.2885  0.5420
  252MOL0     C33903   6.591   2.525   6.229 -0.9485  0.4828  0.2159
  252MOL0     C33904   6.495   2.597   6.288 -0.7637 -0.1048 -0.2742
  252MOL0     C33905   6.350   2.586   6.283 -0.7855 -0.1469 -0.0213
  252MOL0     C33906   6.283   2.596   6.151 -0.2390  0.4569 -0.2383
  252MOL0     C33907   6.283   2.738   6.085 -0.8605 -0.3849 -0.8825
  252MOL0     C33908   6.410   2.780   6.026 -0.5003 -0.0260  1.1119
  252MOL0     O33909   6.484   2.672   5.958  0.0724 -0.2107  0.3283
  252MOL0     C33910   6.616   2.690   5.911  0.2474  0.2463 -1.0049
  252MOL0     C33911   6.686   2.598   5.851  0.8217  0.6921 -0.0578
  252MOL0     C33912   6.818   2.609   5.793  0.2386  0.5515 -0.0282
  252MOL0     C33913   6.896   2.727   5.821 -0.4606  0.7585  1.0936
  252MOL0     C33914   7.045   2.736   5.795  0.5049  0.7308 -0.0117
  252MOL0     O33915   7.119   2.847   5.834  0.0699  0.4960  0.3489
  252MOL0     C33916   7.257   2.837   5.813 -0.4271 -0.3475 -0.0490
  252MOL0     C33917   7.336   2.837   5.926 -0.4084 -0.9334 -0.3378
  252MOL0     C33918   7.480   2.831   5.906  0.1827 -0.8769 -0.1234
  252MOL0     C33919   7.531   2.835   5.775  0.1948 -0.5710 -0.2565
  252MOL0     O33920   7.659   2.845   5.762  0.0287 -0.6483 -0.7469
  252MOL0     C33921   7.726   2.853   5.642 -0.9197 -0.7289 -0.3926
  252MOL0     C33922   7.868   2.886   5.683 -0.7740  0.2576 -0.4814
  252MOL0     C33923   7.974   2.921   5.566 -0.2604 -0.2394  0.0363
  252MOL0     C33924   8.109   2.947   5.642 -0.5425 -0.0781  0.3967
  252MOL0     C33925   8.222   3.006   5.561 -0.5980 -0.0281 -0.6114
  252MOL0     C33926   8.350   2.995   5.641 -0.5055 -0.1395 -0.8372
  252MOL0     C33927   8.461   3.091   5.575 -0.4492 -0.6711  0.6644
  252MOL0     C33928   8.604   3.076   5.623 -0.1346  0.1627  0.4341
  252MOL0    Cl33929   8.582   3.139   5.790  0.1751 -0.0294 -0.0295
  252MOL0     C33930   7.448   2.827   5.667  0.3020 -0.2005 -0.1083
  252MOL0     C33931   7.309   2.834   5.685 -0.2306 -0.2220 -1.0251
  252MOL0     O33932   7.087   2.646   5.727 -0.0466  0.3366  0.5159
  252MOL0     C33933   6.820   2.832   5.877 -0.0046 -0.4491 -0.3622
  252MOL0     C33934   6.686   2.808   5.924 -0.1879  0.0840  0.2184
  252MOL0     N33935   6.552   2.711   6.347 -1.1250 -0.4279 -0.6684
  252MOL0     N33936   6.685   2.696   6.342  0.3695  0.5825  0.6831
  252MOL0     C33937   7.816   2.285   6.516 -0.2987 -0.7800  0.2528
  252MOL0     C33938   7.960   2.304   6.516  0.0455  0.1297 -1.0444
  252MOL0     C33939   8.392   2.353   6.460 -0.2666  0.0780 -0.4980
  252MOL0     C33940   8.426   2.483   6.488  0.8153 -0.3674  0.5280
  252MOL0     C33941   8.554   2.536   6.496  0.2871  0.2626  0.2631
  252MOL0     C33942   8.666   2.439   6.500  1.0689  0.0861 -0.7016
  252MOL0     O33943   8.790   2.498   6.501 -0.0640  0.8057  0.0165
  252MOL0     C33944   8.910   2.426   6.521 -0.4541 -0.2087 -0.4874
  252MOL0     C33945   8.921   2.399   6.673  0.2493 -0.0831  0.4247
  252MOL0     C33946   9.021   2.296   6.692 -0.1215 -0.1583  0.2565
  252MOL0     C33947   9.053   2.288   6.845  0.0460  0.6738  0.0681
  252MOL0     C33948   9.188   2.224   6.869 -0.3298  0.0710  0.2332
  252MOL0     C33949   9.293   2.175   6.910 -0.3208  0.7324 -0.0721
  252MOL0     C33950   8.630   2.302   6.476 -0.5270 -0.5051 -0.4608
  252MOL0     C33951   8.497   2.257   6.461  0.4669  0.3642 -0.4811
  252MOL0     C33952   8.493   2.101   6.456  0.3538 -0.7403  0.1064
  252MOL0     H33953   7.997   2.594   6.360  1.6011 -0.3483  0.7267
  252MOL0     H33954   7.763   2.558   6.308 -0.3566  0.7633  1.8697
  252MOL0     H33955   7.564   2.323   6.636 -0.5678  0.5343  0.5370
  252MOL0     H33956   7.512   2.484   6.585 -2.5290 -1.3845  3.4383
  252MOL0     H33957   7.317   2.321   6.601  1.4397 -0.0375  0.9086
  252MOL0     H33958   7.398   2.211   6.488 -2.4125 -0.3107  0.6360
  252MOL0     H33959   7.236   2.329   6.348 -0.4938  0.4344  0.9715
  252MOL0     H33960   7.391   2.404   6.309 -0.8764 -0.0526 -1.4242
  252MOL0     H33961   7.192   2.540   6.503  0.3998  1.0273  1.0586
  252MOL0     H33962   7.351   2.602   6.449 -3.2770  4.2656  0.4951
  252MOL0     H33963   7.181   2.707   6.332  4.6584  0.3973  0.2405
  252MOL0     H33964   7.287   2.617   6.235  0.7693 -2.6682 -0.9208
  252MOL0     H33965   7.076   2.579   6.146  3.3066 -0.4512 -0.4072
  252MOL0     H33966   7.103   2.429   6.230 -3.2446 -0.7345  1.6174
  252MOL0     H33967   6.941   2.644   6.376 -0.6293 -0.8127  2.0579
  252MOL0     H33968   6.923   2.468   6.389  0.6762  0.5866 -0.9670
  252MOL0     H33969   6.879   2.632   6.158 -0.3646 -0.3869 -0.7489
  252MOL0     H33970   6.845   2.459   6.157  2.8248 -2.0449  1.1528
  252MOL0     H33971   6.580   2.437   6.166  4.8004  0.2417 -1.0676
  252MOL0     H33972   6.316   2.495   6.333  0.5614  0.8378  2.9161
  252MOL0     H33973   6.310   2.666   6.346  0.3640  1.0785 -0.7931
  252MOL0     H33974   6.329   2.519   6.089  0.4361 -0.5720  1.4688
  252MOL0     H33975   6.176   2.571   6.156  0.0011 -0.5208  0.1121
  252MOL0     H33976   6.267   2.807   6.168 -0.5163 -0.4208 -0.7854
  252MOL0     H33977   6.201   2.747   6.013  0.1414  1.3301 -1.8628
  252MOL0     H33978   6.484   2.814   6.100  0.3844  0.3968  0.0535
  252MOL0     H33979   6.394   2.867   5.961  0.0876  0.4578  1.5958
  252MOL0     H33980   6.641   2.502   5.829  2.9415 -0.1082 -1.2008
  252MOL0     H33981   6.866   2.531   5.735  0.6168  0.0080  0.9785
  252MOL0     H33982   7.295   2.820   6.025 -2.3302  0.6066 -0.8149
  252MOL0     H33983   7.547   2.825   5.991 -0.1526 -0.1689  0.1964
  252MOL0     H33984   7.713   2.753   5.599 -0.0574 -1.3594  0.7652
  252MOL0     H33985   7.688   2.933   5.577  1.8203 -0.1123 -1.3577
  252MOL0     H33986   7.869   2.965   5.759  1.8338  0.0585 -0.2295
  252MOL0     H33987   7.906   2.796   5.733 -0.5630  0.1872 -0.7688
  252MOL0     H33988   7.987   2.848   5.486 -2.1588 -0.2321 -0.3317
  252MOL0     H33989   7.944   3.013   5.516  1.2502  0.9582  1.2268
  252MOL0     H33990   8.146   2.856   5.689  1.0257  0.2322 -0.2057
  252MOL0     H33991   8.098   3.030   5.712 -1.4930  0.5061 -0.4165
  252MOL0     H33992   8.194   3.106   5.528 -2.2028 -0.6231 -1.1491
  252MOL0     H33993   8.226   2.953   5.466  1.9598 -0.7128 -0.1776
  252MOL0     H33994   8.329   3.014   5.747 -0.5418 -0.7603 -0.7284
  252MOL0     H33995   8.382   2.891   5.630  1.6850  0.4756 -0.6771
  252MOL0     H33996   8.420   3.191   5.593 -3.7439 -1.5409 -1.1517
  252MOL0     H33997   8.458   3.069   5.468 -0.8017 -1.5934  0.8575
  252MOL0     H33998   8.636   2.972   5.631  1.4944  0.6563  0.5542
  252MOL0     H33999   8.674   3.125   5.556 -2.1552  2.2710 -0.3096
  252MOL0     H34000   7.490   2.805   5.569 -0.2202  0.4841 -0.4908
  252MOL0     H34001   7.242   2.830   5.600  1.5468  0.9502 -2.5543
  252MOL0     H34002   6.877   2.924   5.880  1.2699 -1.1277 -2.0057
  252MOL0     H34003   6.635   2.894   5.966 -0.5693 -0.1105  0.1509
  252MOL0     H34004   7.771   2.201   6.567 -1.1238  1.3417  3.3088
  252MOL0     H34005   8.013   2.222   6.564  0.0003  1.4812  1.5338
  252MOL0     H34006   8.353   2.564   6.482 -0.3188 -1.4581 -1.3116
  252MOL0     H34007   8.586   2.640   6.495  0.2054  0.2984  0.8396
  252MOL0     H34008   8.989   2.485   6.472 -0.3572 -0.5201 -0.7090
  252MOL0     H34009   8.908   2.334   6.463  2.0968 -0.9110  0.3960
  252MOL0     H34010   8.821   2.363   6.698 -1.1063  0.8996 -2.9913
  252MOL0     H34011   8.945   2.484   6.738  0.5568  1.8264 -2.0476
  252MOL0     H34012   9.104   2.322   6.627  0.0671  1.5850  1.1356
  252MOL0     H34013   8.971   2.204   6.660 -1.2595  0.3648  0.4525
  252MOL0     H34014   9.055   2.393   6.877  2.5849  1.6400 -2.8253
  252MOL0     H34015   8.971   2.238   6.898 -0.9827  2.1853 -0.0248
  252MOL0     H34016   9.377   2.130   6.958 -0.0859  1.3641  0.1243
  252MOL0     H34017   8.711   2.230   6.481 -0.5499 -0.4760  0.6502
  252MOL0     H34018   8.404   2.052   6.415  2.4519 -2.3553 -2.9599
  252MOL0     H34019   8.580   2.061   6.403  0.7887 -1.0105  1.0023
  252MOL0     H34020   8.491   2.069   6.561  2.3470  1.3196  0.8373
  253MOL0     O34021   6.472   6.455   8.413 -0.2316  0.0844 -0.2989
  253MOL0     C34022   6.427   6.466   8.298 -0.1885 -0.0152 -0.1706
  253MOL0     O34023   6.498   6.449   8.187  0.6891 -0.2052 -0.3382
  253MOL0     C34024   6.625   6.412   8.199 -0.2481 -0.3063 -0.1061
  253MOL0     C34025   6.721   6.515   8.197  0.9206 -0.6910  0.1867
  253MOL0     C34026   6.854   6.491   8.204 -0.7608  0.0715  0.0420
  253MOL0     C34027   6.901   6.356   8.216 -0.6082 -0.3183 -0.0314
  253MOL0     O34028   7.036   6.331   8.229 -0.1819 -0.0330  0.4578
  253MOL0     C34029   7.076   6.198   8.220  0.5641  0.4115  0.2617
  253MOL0     C34030   7.223   6.190   8.235  0.2895  0.6399  0.6298
  253MOL0     C34031   7.286   6.049   8.234  0.7644 -0.3141 -0.3002
  253MOL0     C34032   7.205   5.948   8.328  0.1462 -0.4347 -0.6602
  253MOL0     C34033   7.305   5.829   8.367  0.2985 -0.3604 -0.1058
  253MOL0     C34034   7.373   5.755   8.245 -0.5967  0.3477  0.5224
  253MOL0     C34035   7.419   5.618   8.287  0.7410 -0.5239  0.0864
  253MOL0     C34036   7.503   5.525   8.193 -0.2776 -0.6814 -0.5288
  253MOL0     N34037   7.646   5.569   8.183  0.2318 -0.3348 -0.1545
  253MOL0     C34038   7.751   5.479   8.163 -0.7872 -0.4351  0.4799
  253MOL0     C34039   7.859   5.555   8.134  0.1158 -1.5138 -0.1258
  253MOL0     C34040   7.989   5.501   8.112 -0.6154  0.4313  0.2610
  253MOL0     C34041   8.069   5.508   8.250  0.4881 -0.3523 -0.6493
  253MOL0     C34042   8.091   5.658   8.301  0.7218 -0.0359  0.0202
  253MOL0     C34043   8.203   5.661   8.406  0.1112  0.4413  0.4407
  253MOL0     O34044   8.328   5.613   8.353  0.6230 -0.0103 -0.3711
  253MOL0     C34045   8.408   5.549   8.444 -0.2775 -0.5119 -0.8514
  253MOL0     C34046   8.409   5.583   8.581  0.6270 -0.0869 -0.3940
  253MOL0     C34047   8.485   5.510   8.672  0.2043 -0.3798  0.7240
  253MOL0     C34048   8.572   5.412   8.626  0.2188 -0.1809  0.6701
  253MOL0     C34049   8.658   5.353   8.722  0.3360  0.2270 -0.3989
  253MOL0     O34050   8.629   5.354   8.856 -0.2512  0.2611 -0.0035
  253MOL0     C34051   8.727   5.312   8.950 -1.0708  0.1508  0.1181
  253MOL0     C34052   8.858   5.345   8.932  0.3738  0.7899 -0.3580
  253MOL0     C34053   8.958   5.300   9.015  0.1782  0.6558 -0.7156
  253MOL0     C34054   8.927   5.238   9.137 -0.2264  0.8595 -0.4636
  253MOL0     O34055   9.030   5.211   9.225  0.0994  0.2367 -0.5564
  253MOL0     C34056   9.009   5.225   9.365  0.0583 -0.0077  0.4286
  253MOL0     C34057   9.111   5.319   9.427 -0.6198  0.1855 -0.4312
  253MOL0     C34058   9.255   5.259   9.422 -0.1756  0.1587 -0.2338
  253MOL0     C34059   9.351   5.374   9.462 -0.1763 -0.4945 -0.1757
  253MOL0     C34060   9.493   5.331   9.483 -0.7658 -0.7317 -0.0417
  253MOL0     C34061   9.579   5.451   9.526 -0.3394 -0.4900 -0.0899
  253MOL0     C34062   9.723   5.404   9.557  0.6275  0.5604 -0.4346
  253MOL0     C34063   9.759   5.365   9.703  0.2562  0.3966  0.7531
  253MOL0    Cl34064   9.714   5.186   9.723 -0.4019  0.2656  0.1968
  253MOL0     C34065   8.790   5.203   9.161 -0.8205  0.6920  0.2763
  253MOL0     C34066   8.691   5.236   9.063  0.0634 -0.4004 -0.8199
  253MOL0     O34067   8.751   5.287   8.669 -0.1303  0.2723 -0.2083
  253MOL0     C34068   8.577   5.382   8.487 -0.8198  0.4056  0.2702
  253MOL0     C34069   8.493   5.447   8.402  0.0822 -0.4509 -0.4335
  253MOL0     N34070   7.817   5.689   8.127 -0.5419  0.6466 -0.6611
  253MOL0     N34071   7.690   5.691   8.154 -1.1745 -0.5680 -0.0960
  253MOL0     C34072   6.801   6.254   8.214  0.1140 -0.0586 -0.2654
  253MOL0     C34073   6.669   6.279   8.194 -0.9898  0.7997  0.3967
  253MOL0     C34074   6.287   6.509   8.288  0.0457 -0.8041  0.0297
  253MOL0     C34075   6.261   6.601   8.187  0.6842 -0.2948  0.8571
  253MOL0     C34076   6.146   6.671   8.183 -0.4568  0.4858 -0.1802
  253MOL0     C34077   6.045   6.632   8.269 -0.2571 -0.1887  0.5222
  253MOL0     O34078   5.935   6.709   8.270  0.4771 -0.5933  0.1480
  253MOL0     C34079   5.799   6.659   8.296 -0.8110  0.3332  0.3622
  253MOL0     C34080   5.781   6.671   8.445 -0.5960  0.1203 -0.0672
  253MOL0     C34081   5.642   6.627   8.497  0.0477 -0.2996  0.1535
  253MOL0     C34082   5.618   6.475   8.466 -0.2511 -0.4305  0.1647
  253MOL0     C34083   5.715   6.388   8.543 -0.0509 -0.1626  0.0398
  253MOL0     C34084   5.791   6.324   8.615  0.6894  0.2624  0.2169
  253MOL0     C34085   6.064   6.521   8.354 -0.5927  0.0792  0.5972
  253MOL0     C34086   6.185   6.465   8.374  0.3878 -0.4406 -0.4876
  253MOL0     C34087   6.200   6.358   8.478  0.5661  0.1552 -0.1967
  253MOL0     H34088   6.685   6.613   8.168  0.0667 -1.1195 -0.2356
  253MOL0     H34089   6.921   6.575   8.191 -1.2620  0.0714 -3.8365
  253MOL0     H34090   7.022   6.142   8.298 -3.3501  4.1500  0.5981
  253MOL0     H34091   7.056   6.152   8.122 -0.5130  1.3896 -0.0013
  253MOL0     H34092   7.251   6.229   8.334 -2.8144  0.4927  1.6788
  253MOL0     H34093   7.267   6.244   8.150 -2.4579 -0.6734 -1.7944
  253MOL0     H34094   7.390   6.064   8.264  0.5478 -0.2956  0.4693
  253MOL0     H34095   7.275   6.006   8.134 -5.0241 -2.4238  0.8262
  253MOL0     H34096   7.177   6.002   8.418  0.9394 -0.6466 -0.2835
  253MOL0     H34097   7.113   5.912   8.281 -1.6574  1.8191  0.9085
  253MOL0     H34098   7.381   5.863   8.438  0.5387 -1.4870  0.1970
  253MOL0     H34099   7.237   5.760   8.419 -0.1849  0.3969  0.2946
  253MOL0     H34100   7.307   5.744   8.158  2.1696 -2.0993 -1.4963
  253MOL0     H34101   7.454   5.823   8.218 -2.7991  3.0426  0.2870
  253MOL0     H34102   7.329   5.568   8.324 -0.4143  1.8570  0.6671
  253MOL0     H34103   7.475   5.630   8.380  2.6494  2.7008 -1.3178
  253MOL0     H34104   7.501   5.421   8.228  1.3641 -0.8917 -0.9850
  253MOL0     H34105   7.457   5.527   8.093  0.7183  2.2335 -1.0225
  253MOL0     H34106   7.762   5.371   8.164  2.7012 -0.2302 -0.9535
  253MOL0     H34107   7.983   5.399   8.073 -0.9655  1.7964 -3.7607
  253MOL0     H34108   8.043   5.561   8.038  0.1507  0.3230  0.7214
  253MOL0     H34109   8.011   5.445   8.318  1.1703 -1.0841 -0.7325
  253MOL0     H34110   8.166   5.463   8.228  1.4140  1.5997 -0.7791
  253MOL0     H34111   8.000   5.697   8.348  0.1858 -1.0485 -0.1426
  253MOL0     H34112   8.114   5.717   8.212 -2.2263 -2.0551 -2.2859
  253MOL0     H34113   8.171   5.617   8.501 -0.9111 -0.6386 -0.3824
  253MOL0     H34114   8.221   5.766   8.429 -2.0002  0.5758  1.7901
  253MOL0     H34115   8.358   5.668   8.625 -0.7077 -1.1634  0.2356
  253MOL0     H34116   8.484   5.542   8.776 -1.5207  2.6316 -0.0739
  253MOL0     H34117   8.888   5.408   8.849  1.9821  1.1587  0.4535
  253MOL0     H34118   9.060   5.326   8.993  0.1229  0.8868 -0.6953
  253MOL0     H34119   8.918   5.284   9.377 -0.2498  0.3199 -2.6126
  253MOL0     H34120   8.997   5.128   9.414 -0.5088  0.8752  2.1123
  253MOL0     H34121   9.113   5.415   9.374 -0.9783 -0.1425 -1.0423
  253MOL0     H34122   9.082   5.335   9.531 -1.0139 -0.4494 -0.4379
  253MOL0     H34123   9.252   5.182   9.499  0.0292 -2.2949 -2.5440
  253MOL0     H34124   9.284   5.209   9.329  1.1320 -0.0327  0.2569
  253MOL0     H34125   9.307   5.412   9.555  0.8473 -0.8620  0.4871
  253MOL0     H34126   9.358   5.457   9.391  1.5664 -1.0768 -0.7324
  253MOL0     H34127   9.542   5.287   9.395  0.8628 -0.8209  0.8720
  253MOL0     H34128   9.497   5.249   9.555  3.5435  0.6514  1.5982
  253MOL0     H34129   9.582   5.516   9.438 -0.8516  0.7932  0.8202
  253MOL0     H34130   9.533   5.491   9.616  2.1089 -1.9835  1.9673
  253MOL0     H34131   9.793   5.484   9.532 -0.0189  1.1926 -0.2236
  253MOL0     H34132   9.741   5.312   9.500 -3.2684 -0.8368  0.2999
  253MOL0     H34133   9.863   5.391   9.726  0.9908  2.6527 -3.8781
  253MOL0     H34134   9.701   5.419   9.779  0.9281  0.2654  1.3702
  253MOL0     H34135   8.780   5.139   9.248 -2.5647  1.3290  0.5907
  253MOL0     H34136   8.587   5.209   9.078 -0.0181 -0.5530 -1.6403
  253MOL0     H34137   8.655   5.325   8.436 -1.9051  0.0511 -1.0508
  253MOL0     H34138   8.483   5.421   8.297 -2.5522  1.2790 -0.6970
  253MOL0     H34139   6.823   6.151   8.242 -1.9819 -0.2377  0.9653
  253MOL0     H34140   6.599   6.199   8.173 -0.5945 -0.0266  2.0859
  253MOL0     H34141   6.332   6.638   8.114 -1.5713  1.2632 -0.6917
  253MOL0     H34142   6.130   6.751   8.112  2.1673  0.1066 -1.2894
  253MOL0     H34143   5.801   6.555   8.262 -1.6640 -0.1761  1.7689
  253MOL0     H34144   5.738   6.720   8.229  0.3079  2.8540  1.5045
  253MOL0     H34145   5.783   6.778   8.467  1.9417  0.2111 -0.4965
  253MOL0     H34146   5.853   6.618   8.508 -2.0086  0.3234  1.8127
  253MOL0     H34147   5.571   6.686   8.437  2.2878  0.3996 -1.9404
  253MOL0     H34148   5.631   6.655   8.602 -1.4652 -0.8569  0.1687
  253MOL0     H34149   5.514   6.443   8.473  0.3540 -2.1314  3.6995
  253MOL0     H34150   5.629   6.460   8.358 -0.5179  1.4280 -0.1526
  253MOL0     H34151   5.858   6.264   8.674  1.5601  2.6644  1.8269
  253MOL0     H34152   5.981   6.485   8.413 -0.9674 -1.7472 -0.9620
  253MOL0     H34153   6.262   6.399   8.558  1.5773 -1.1837 -0.2609
  253MOL0     H34154   6.106   6.317   8.515  1.6234 -2.3649 -0.1208
  253MOL0     H34155   6.249   6.281   8.418 -0.1153 -0.1485 -0.3830
  254MOL0     O34156   3.285   4.385  10.152  0.0568  0.3075 -0.3147
  254MOL0     C34157   3.190   4.402  10.073 -0.8147 -0.4540 -0.1647
  254MOL0     O34158   3.194   4.362   9.938 -0.2524 -0.3303  0.1929
  254MOL0     C34159   3.266   4.255   9.921  0.4088  0.3954  1.5232
  254MOL0     C34160   3.211   4.122   9.959 -0.3578  0.5377 -0.4505
  254MOL0     C34161   3.275   4.001   9.932 -0.7510  0.0294  1.3503
  254MOL0     C34162   3.391   4.001   9.854 -0.6049  0.7979  0.1155
  254MOL0     O34163   3.451   3.879   9.826  0.0729  0.3526  0.0419
  254MOL0     C34164   3.441   3.761   9.910 -0.7524 -0.5235 -0.0533
  254MOL0     C34165   3.588   3.714   9.949  0.1758  0.1294 -0.6633
  254MOL0     C34166   3.677   3.694   9.829 -0.3067 -0.4794  0.2150
  254MOL0     C34167   3.819   3.663   9.859 -0.3138  0.5212 -0.4979
  254MOL0     C34168   3.896   3.764   9.941  0.0627 -0.7535 -0.1612
  254MOL0     C34169   3.897   3.902   9.878 -0.0956 -0.4567  0.6845
  254MOL0     C34170   4.008   3.910   9.775 -0.8381  0.1516 -0.3691
  254MOL0     C34171   4.012   4.056   9.722  0.2530 -1.0584  0.7598
  254MOL0     N34172   4.085   4.146   9.816  0.0871 -0.4035 -0.1850
  254MOL0     C34173   4.224   4.166   9.817  0.4442 -0.6446  0.9900
  254MOL0     C34174   4.262   4.242   9.923  0.2885 -0.2150 -0.8044
  254MOL0     C34175   4.401   4.295   9.944 -0.8457  0.2729 -0.7885
  254MOL0     C34176   4.421   4.378  10.068 -0.5295  0.6773  0.2806
  254MOL0     C34177   4.332   4.508  10.072  0.2096  0.1845 -0.6661
  254MOL0     C34178   4.415   4.637  10.081  0.6436  0.7816  0.2449
  254MOL0     O34179   4.483   4.630  10.206  0.4070 -0.2121  0.3694
  254MOL0     C34180   4.591   4.710  10.219  0.6738  0.3598 -0.0250
  254MOL0     C34181   4.622   4.814  10.137  1.0666 -0.3526 -0.0108
  254MOL0     C34182   4.753   4.859  10.133  0.4029 -0.4143  0.8549
  254MOL0     C34183   4.856   4.806  10.210 -0.7632  0.0992 -0.0086
  254MOL0     C34184   4.997   4.863  10.187 -0.3048 -1.0777 -0.9156
  254MOL0     O34185   5.097   4.788  10.251  0.7229 -0.8845 -1.0568
  254MOL0     C34186   5.226   4.819  10.224  0.0619 -0.3658 -0.5125
  254MOL0     C34187   5.287   4.941  10.231  1.0290 -0.3811  0.4836
  254MOL0     C34188   5.414   4.971  10.182  0.1533  0.7798 -0.0176
  254MOL0     C34189   5.495   4.860  10.149 -0.1331 -0.0428 -0.1466
  254MOL0     O34190   5.619   4.883  10.092 -0.6078 -0.1732  0.0126
  254MOL0     C34191   5.720   4.802  10.144 -0.1916 -0.0822 -0.5732
  254MOL0     C34192   5.850   4.886  10.122  0.7408 -0.1864 -0.1392
  254MOL0     C34193   5.971   4.795  10.164  0.5078 -1.2789  0.4433
  254MOL0     C34194   6.099   4.852  10.116 -1.0919  0.8912 -0.1179
  254MOL0     C34195   6.227   4.778  10.168  0.5494 -0.9570 -0.6498
  254MOL0     C34196   6.347   4.820  10.090  0.1531 -0.0998  0.1770
  254MOL0     C34197   6.464   4.750  10.156 -0.1094  0.7110  0.0793
  254MOL0     C34198   6.577   4.758  10.053  0.5020 -0.9066  0.5029
  254MOL0    Cl34199   6.616   4.927  10.014  0.0812  0.1962  0.2010
  254MOL0     C34200   5.449   4.731  10.172  0.9429  0.7073  0.1183
  254MOL0     C34201   5.313   4.715  10.201 -0.2525  0.5214  0.3627
  254MOL0     O34202   5.014   4.960  10.116 -0.0104 -0.3124 -0.2570
  254MOL0     C34203   4.809   4.719  10.310 -0.5335  0.2509 -0.2259
  254MOL0     C34204   4.680   4.670  10.312 -0.1313 -0.6948 -0.3558
  254MOL0     N34205   4.135   4.278   9.977  0.2362  0.7815 -0.1514
  254MOL0     N34206   4.028   4.232   9.912 -0.2522  0.5051 -0.0379
  254MOL0     C34207   3.445   4.124   9.808 -0.2998  1.1071 -0.1081
  254MOL0     C34208   3.382   4.247   9.843 -0.1119  0.3590 -0.3283
  254MOL0     C34209   3.068   4.463  10.117  0.3886  0.5278  0.4699
  254MOL0     C34210   2.947   4.409  10.060 -0.2566 -0.0647  0.0438
  254MOL0     C34211   2.821   4.445  10.106 -0.2148  0.8878  0.5647
  254MOL0     C34212   2.802   4.533  10.209  0.3644 -0.9555 -0.8892
  254MOL0     O34213   2.669   4.566  10.249 -0.0271  0.6822  0.4330
  254MOL0     C34214   2.646   4.611  10.389  0.5131  0.2987  0.4182
  254MOL0     C34215   2.491   4.613  10.383  0.5664  0.6713  0.4695
  254MOL0     C34216   2.432   4.665  10.516  1.0359  0.0778  0.5750
  254MOL0     C34217   2.437   4.569  10.630 -0.5847 -0.1048 -0.2121
  254MOL0     C34218   2.370   4.440  10.605 -0.6879 -0.7138 -0.9131
  254MOL0     C34219   2.308   4.341  10.582  0.7780 -0.0456 -0.4033
  254MOL0     C34220   2.917   4.580  10.282 -1.0896 -0.9218 -0.5066
  254MOL0     C34221   3.046   4.544  10.234  0.7520 -0.2546  0.5139
  254MOL0     C34222   3.158   4.602  10.322  0.6318  0.5208 -0.0225
  254MOL0     H34223   3.111   4.121  10.002 -0.5864 -1.5455 -0.8866
  254MOL0     H34224   3.237   3.908   9.973 -0.5311 -0.5437  0.2960
  254MOL0     H34225   3.393   3.776  10.007  2.9138  3.1469  1.5508
  254MOL0     H34226   3.398   3.684   9.846 -0.6436 -1.0587  0.5053
  254MOL0     H34227   3.589   3.617  10.000  3.7618 -1.2747 -3.0421
  254MOL0     H34228   3.638   3.781  10.019  1.3542  0.1235 -1.4799
  254MOL0     H34229   3.673   3.778   9.758  0.0645 -0.0591  0.6885
  254MOL0     H34230   3.632   3.617   9.765 -2.2819  1.6415 -1.1231
  254MOL0     H34231   3.827   3.568   9.913 -0.3283  0.8795  0.1491
  254MOL0     H34232   3.870   3.652   9.763 -1.3332 -0.6696 -0.9276
  254MOL0     H34233   3.858   3.780  10.042  2.3381 -0.3326  0.6971
  254MOL0     H34234   3.996   3.724   9.958 -0.0407  0.4287  4.2834
  254MOL0     H34235   3.797   3.932   9.844  0.3787  2.9750  1.8948
  254MOL0     H34236   3.912   3.972   9.960 -0.0176  0.2898  0.0492
  254MOL0     H34237   3.984   3.851   9.686  3.5830 -2.4183 -0.1364
  254MOL0     H34238   4.100   3.878   9.825 -2.4809 -1.8807  1.5566
  254MOL0     H34239   4.057   4.064   9.622  0.4709  2.1610  1.0060
  254MOL0     H34240   3.910   4.096   9.717  1.0812  1.1315 -0.4813
  254MOL0     H34241   4.290   4.126   9.740 -1.1508 -3.0168  0.7483
  254MOL0     H34242   4.469   4.211   9.925 -1.8449 -0.7322 -0.0125
  254MOL0     H34243   4.419   4.368   9.865  0.4194  0.9795  0.1196
  254MOL0     H34244   4.393   4.324  10.158  1.2155  2.4025  1.9601
  254MOL0     H34245   4.524   4.408  10.089 -0.6358  2.3858 -1.3113
  254MOL0     H34246   4.276   4.510  10.166  1.2135  2.5404 -0.0445
  254MOL0     H34247   4.257   4.514   9.993  0.4871  0.3008 -0.9249
  254MOL0     H34248   4.348   4.723  10.074  0.3601  0.6107  0.7610
  254MOL0     H34249   4.476   4.623   9.992 -0.2440 -0.1929 -0.2301
  254MOL0     H34250   4.540   4.858  10.080  1.1867 -2.6928 -2.1791
  254MOL0     H34251   4.774   4.939  10.062 -2.4920 -1.8029 -1.8368
  254MOL0     H34252   5.226   5.020  10.275 -1.0753 -1.8446  0.3334
  254MOL0     H34253   5.452   5.072  10.189 -0.6507  1.0025  1.4384
  254MOL0     H34254   5.712   4.789  10.252  0.9086 -3.1821 -0.7626
  254MOL0     H34255   5.738   4.705  10.096  1.9977 -0.0752  0.1433
  254MOL0     H34256   5.841   4.929  10.022 -1.8226  0.0781  0.1347
  254MOL0     H34257   5.849   4.964  10.198  2.1085  1.1771 -1.4510
  254MOL0     H34258   5.973   4.787  10.273 -3.8535 -3.2595  0.5904
  254MOL0     H34259   5.949   4.694  10.130 -0.1075 -0.8322 -0.5409
  254MOL0     H34260   6.118   4.952  10.158 -1.7772  1.7790 -1.8134
  254MOL0     H34261   6.105   4.848  10.007 -0.6945 -1.3493 -0.0594
  254MOL0     H34262   6.215   4.671  10.151  1.3158 -1.0259 -0.7542
  254MOL0     H34263   6.251   4.801  10.272  2.6277 -0.6884 -1.1423
  254MOL0     H34264   6.334   4.790   9.986  0.3505  0.1311  0.0867
  254MOL0     H34265   6.367   4.926  10.107  1.1828 -0.5691  2.1718
  254MOL0     H34266   6.449   4.642  10.171  0.0533  0.7799  0.7789
  254MOL0     H34267   6.488   4.803  10.248 -0.0335  2.2868 -0.8146
  254MOL0     H34268   6.666   4.714  10.099  0.9436  0.3428  0.8867
  254MOL0     H34269   6.570   4.694   9.964 -1.6301 -0.9326  0.6536
  254MOL0     H34270   5.510   4.644  10.154  1.5000  1.3015 -0.9727
  254MOL0     H34271   5.275   4.614  10.210  0.3749  0.3836  1.7123
  254MOL0     H34272   4.877   4.670  10.380 -3.3939 -0.2326  2.4153
  254MOL0     H34273   4.674   4.588  10.384  1.7659 -1.3299 -0.8664
  254MOL0     H34274   3.533   4.121   9.746 -0.9708  2.1838 -1.1699
  254MOL0     H34275   3.432   4.334   9.802  0.1031  1.2110  1.6587
  254MOL0     H34276   2.967   4.335   9.982  0.0802  1.0047 -0.9170
  254MOL0     H34277   2.736   4.404  10.052  2.3444 -0.3838 -2.8688
  254MOL0     H34278   2.696   4.705  10.413  3.2665 -0.6158 -1.1969
  254MOL0     H34279   2.674   4.537  10.465 -0.8166  0.9391  1.5769
  254MOL0     H34280   2.448   4.517  10.355 -0.5671  0.4836  2.5976
  254MOL0     H34281   2.463   4.696  10.317 -2.7079  1.1064  2.1905
  254MOL0     H34282   2.327   4.690  10.499  1.4612  2.0146  0.5873
  254MOL0     H34283   2.481   4.758  10.547  0.6768  0.8960 -1.2099
  254MOL0     H34284   2.543   4.552  10.652 -0.4955 -3.0338 -2.3175
  254MOL0     H34285   2.400   4.616  10.722  1.0424  1.3696 -0.2683
  254MOL0     H34286   2.250   4.254  10.558  0.6725  0.3062 -1.4835
  254MOL0     H34287   2.907   4.637  10.374 -0.6881 -0.0987 -0.9700
  254MOL0     H34288   3.226   4.663  10.261 -0.1544  0.2875 -1.1805
  254MOL0     H34289   3.122   4.649  10.414  0.2722  0.6049 -0.2027
  254MOL0     H34290   3.213   4.516  10.361  1.2037  0.8317 -0.1329
  255MOL0     O34291   8.685   8.422   1.756  0.5957 -0.1322  0.0130
  255MOL0     C34292   8.648   8.401   1.639  0.2008 -0.2341 -0.4798
  255MOL0     O34293   8.723   8.425   1.524 -0.0176 -0.0565 -0.7596
  255MOL0     C34294   8.846   8.494   1.552  0.4897 -0.0578 -0.4127
  255MOL0     C34295   8.849   8.633   1.568  0.8803 -0.0960  0.4269
  255MOL0     C34296   8.969   8.696   1.606 -0.2279  0.4161 -0.8403
  255MOL0     C34297   9.088   8.614   1.631 -0.3402 -0.4502  0.3789
  255MOL0     O34298   9.200   8.665   1.694 -0.5496  0.5702 -0.5146
  255MOL0     C34299   9.169   8.757   1.800  0.0094 -0.9375 -0.3813
  255MOL0     C34300   9.271   8.748   1.908 -0.3566 -0.3432  0.1590
  255MOL0     C34301   9.243   8.832   2.034  1.1834  0.2158  0.3063
  255MOL0     C34302   9.155   8.752   2.127 -0.4248 -0.1229  1.3699
  255MOL0     C34303   9.079   8.834   2.228  0.8406  0.7061 -0.7183
  255MOL0     C34304   9.163   8.886   2.354 -0.0567  0.1677  0.0161
  255MOL0     C34305   9.056   8.954   2.445  0.2303  0.1959  0.2476
  255MOL0     C34306   9.118   9.053   2.537 -0.7217 -0.3906  0.2111
  255MOL0     N34307   9.027   9.055   2.651 -1.1882 -0.1709  0.6619
  255MOL0     C34308   8.894   9.095   2.657  0.0590  0.3556  0.2790
  255MOL0     C34309   8.835   9.044   2.772  0.1544 -0.5488 -0.7365
  255MOL0     C34310   8.697   9.057   2.837  0.1613  0.1294 -0.0684
  255MOL0     C34311   8.596   9.023   2.726 -0.1325 -0.1012 -0.6381
  255MOL0     C34312   8.629   8.908   2.634  0.2517  0.6590  0.3656
  255MOL0     C34313   8.607   8.782   2.704  0.5261  0.9676 -0.2256
  255MOL0     O34314   8.623   8.663   2.630  0.2536  0.1316  0.0082
  255MOL0     C34315   8.750   8.620   2.584  0.3394 -0.4437 -0.6145
  255MOL0     C34316   8.756   8.505   2.501 -0.6557 -0.2997 -0.4504
  255MOL0     C34317   8.875   8.438   2.469 -0.1917  0.2711  0.1957
  255MOL0     C34318   8.999   8.483   2.519  0.5321  1.0030  0.1918
  255MOL0     C34319   9.123   8.410   2.504 -0.5697  0.1551  1.2507
  255MOL0     O34320   9.224   8.496   2.475 -0.4669  0.5149  0.2987
  255MOL0     C34321   9.345   8.451   2.506 -0.3505  0.4010  0.4144
  255MOL0     C34322   9.393   8.465   2.636 -0.3615 -0.2344  0.7273
  255MOL0     C34323   9.524   8.428   2.669 -0.6994 -0.5588  0.0418
  255MOL0     C34324   9.613   8.371   2.575 -0.0026  1.4233 -1.0559
  255MOL0     O34325   9.746   8.336   2.589  0.1756  0.6042  0.1799
  255MOL0     C34326   9.806   8.339   2.723 -0.5353 -0.2326  0.0569
  255MOL0     C34327   9.949   8.383   2.697 -0.2578  0.4584 -0.2427
  255MOL0     C34328  10.025   8.386   2.832 -0.9525 -1.1808  0.3163
  255MOL0     C34329  10.173   8.357   2.807 -0.0984  0.0760 -0.0388
  255MOL0     C34330  10.257   8.363   2.936 -0.2230 -0.0064  0.6001
  255MOL0     C34331  10.404   8.335   2.915 -0.2300 -0.2535  1.0262
  255MOL0     C34332  10.485   8.339   3.047 -0.1776  0.1711 -0.0432
  255MOL0     C34333  10.632   8.321   3.034  0.7635 -0.0358 -0.5243
  255MOL0    Cl34334  10.727   8.292   3.181 -0.1949 -0.6919 -0.0724
  255MOL0     C34335   9.565   8.358   2.440 -0.1124  0.6128  0.2213
  255MOL0     C34336   9.433   8.393   2.410  0.4308  0.2157 -0.1268
  255MOL0     O34337   9.125   8.295   2.543 -0.3780  0.2634 -0.3531
  255MOL0     C34338   8.993   8.594   2.597 -0.2370 -0.6232 -0.0675
  255MOL0     C34339   8.875   8.663   2.629  0.2602 -0.1394 -0.6859
  255MOL0     N34340   8.933   8.971   2.830  0.3619 -0.0199 -0.0694
  255MOL0     N34341   9.049   8.980   2.761 -0.3006  0.4112 -0.4181
  255MOL0     C34342   9.077   8.474   1.621 -0.4187 -0.5502  0.4844
  255MOL0     C34343   8.955   8.414   1.591  0.0120 -1.1692 -0.1285
  255MOL0     C34344   8.510   8.348   1.622 -0.7308 -0.1925 -0.5634
  255MOL0     C34345   8.484   8.273   1.509  1.2558 -1.0717 -0.6845
  255MOL0     C34346   8.357   8.223   1.476 -0.0573  0.1150  0.2471
  255MOL0     C34347   8.254   8.247   1.564 -0.1015 -0.1695  0.4819
  255MOL0     O34348   8.127   8.191   1.534 -0.0731 -0.2791 -0.4471
  255MOL0     C34349   8.091   8.052   1.571  0.3074  0.0055 -0.6786
  255MOL0     C34350   8.074   8.034   1.726 -0.0352  0.2150  0.6534
  255MOL0     C34351   7.950   8.094   1.799  0.4192  0.0713 -0.8440
  255MOL0     C34352   7.948   8.063   1.944 -0.2709 -0.1973  0.0032
  255MOL0     C34353   7.896   8.170   2.024  0.4879 -0.1515 -0.5016
  255MOL0     C34354   7.824   8.246   2.094 -0.2716  0.2834 -0.0209
  255MOL0     C34355   8.278   8.313   1.684  1.0652 -0.8592 -0.4855
  255MOL0     C34356   8.402   8.375   1.711 -0.7120 -0.5344  0.7903
  255MOL0     C34357   8.411   8.470   1.827 -0.7095  0.3171  0.1844
  255MOL0     H34358   8.767   8.700   1.542 -0.6443 -1.3406  1.7979
  255MOL0     H34359   8.972   8.805   1.610  2.2741  0.4089 -0.5379
  255MOL0     H34360   9.170   8.857   1.756 -1.2276 -0.8021 -0.1360
  255MOL0     H34361   9.067   8.737   1.834 -0.0639 -1.7557 -1.0422
  255MOL0     H34362   9.367   8.783   1.869 -0.3513 -1.2848 -0.7190
  255MOL0     H34363   9.283   8.645   1.941 -0.3193 -0.1922  0.6223
  255MOL0     H34364   9.187   8.920   2.003  0.3481 -0.0665  1.0026
  255MOL0     H34365   9.337   8.868   2.078 -1.2431  5.1604  2.1466
  255MOL0     H34366   9.080   8.698   2.069  0.5539  1.3660 -1.4717
  255MOL0     H34367   9.220   8.680   2.177 -0.3642  0.1531  1.6906
  255MOL0     H34368   9.035   8.924   2.185  1.0771  0.8720 -0.6158
  255MOL0     H34369   8.994   8.778   2.266  0.1359  1.6734 -0.8534
  255MOL0     H34370   9.213   8.801   2.402 -0.5877  0.4054  1.0124
  255MOL0     H34371   9.237   8.958   2.316 -2.3891  1.2131 -2.9252
  255MOL0     H34372   8.998   8.872   2.488 -0.5734 -1.2165 -3.1776
  255MOL0     H34373   8.980   9.007   2.386  0.6961 -1.8543 -2.4159
  255MOL0     H34374   9.214   9.012   2.570  0.7136  1.1107 -1.8156
  255MOL0     H34375   9.126   9.151   2.488  1.8301 -0.6121  0.0482
  255MOL0     H34376   8.850   9.172   2.594  2.7108  0.9262 -1.0241
  255MOL0     H34377   8.684   8.977   2.912 -1.3741 -2.6615 -3.0377
  255MOL0     H34378   8.683   9.160   2.871  1.3747  1.2045 -2.5781
  255MOL0     H34379   8.503   9.001   2.780  1.9001 -1.4101  2.6431
  255MOL0     H34380   8.586   9.117   2.671 -0.8052  0.3317  0.2046
  255MOL0     H34381   8.732   8.921   2.599  0.1745  0.6937  0.1503
  255MOL0     H34382   8.553   8.924   2.557  2.4789  3.1250 -1.5108
  255MOL0     H34383   8.503   8.777   2.739  1.2172 -1.7114  1.7521
  255MOL0     H34384   8.670   8.780   2.793  3.5882 -0.1124 -2.2804
  255MOL0     H34385   8.654   8.471   2.481  0.5925 -3.2880 -2.6047
  255MOL0     H34386   8.866   8.345   2.414  0.7427  0.2631  0.0495
  255MOL0     H34387   9.328   8.492   2.718 -0.3611 -1.7465  1.2609
  255MOL0     H34388   9.542   8.441   2.776  1.0644  3.5168 -0.5579
  255MOL0     H34389   9.756   8.410   2.789  1.0343  1.7797 -0.7894
  255MOL0     H34390   9.810   8.245   2.778 -1.1025  0.8288  2.0114
  255MOL0     H34391   9.980   8.298   2.636 -0.9373 -1.4161  1.9182
  255MOL0     H34392   9.955   8.483   2.652 -2.1426  0.2315 -1.1278
  255MOL0     H34393  10.009   8.486   2.872 -2.8672 -1.4162  0.2167
  255MOL0     H34394   9.990   8.315   2.908  0.7508 -2.7046 -0.2467
  255MOL0     H34395  10.207   8.431   2.734 -1.1430 -0.1484 -0.7905
  255MOL0     H34396  10.176   8.258   2.762 -0.9148  0.4719 -1.0155
  255MOL0     H34397  10.215   8.297   3.013  0.4661  0.0326  1.0187
  255MOL0     H34398  10.241   8.467   2.967  0.1576 -0.1423  1.2897
  255MOL0     H34399  10.434   8.242   2.867 -1.0245  0.2054 -0.3955
  255MOL0     H34400  10.450   8.413   2.854 -1.9539 -2.2168 -3.1288
  255MOL0     H34401  10.451   8.265   3.119 -1.9006 -0.4477 -1.4259
  255MOL0     H34402  10.467   8.439   3.089  0.6799  0.4108 -0.2294
  255MOL0     H34403  10.652   8.238   2.965  0.0311  3.3352 -5.2535
  255MOL0     H34404  10.665   8.410   2.980 -0.2108  1.6954  1.6103
  255MOL0     H34405   9.622   8.315   2.359 -2.5450 -2.4188 -0.0451
  255MOL0     H34406   9.402   8.381   2.306  3.8441  1.0140 -1.3483
  255MOL0     H34407   9.084   8.610   2.653 -1.0476 -1.2126  1.4925
  255MOL0     H34408   8.889   8.748   2.695 -0.8379 -0.4441 -0.0269
  255MOL0     H34409   9.171   8.421   1.635  1.5022  3.0029  2.2437
  255MOL0     H34410   8.943   8.307   1.600 -2.1023 -0.9279  0.6059
  255MOL0     H34411   8.567   8.265   1.440  1.5014  3.8060 -1.2882
  255MOL0     H34412   8.330   8.168   1.387 -0.5723  1.5494 -0.5296
  255MOL0     H34413   8.164   7.980   1.534 -1.2392 -1.9110 -0.1604
  255MOL0     H34414   7.993   8.027   1.531  1.3018 -2.7179 -1.6522
  255MOL0     H34415   8.166   8.056   1.782  0.4915  1.1645 -0.5434
  255MOL0     H34416   8.064   7.927   1.747 -3.5983  0.0274 -1.2676
  255MOL0     H34417   7.861   8.061   1.745 -0.6685  3.7800 -1.6194
  255MOL0     H34418   7.958   8.202   1.779 -0.4697  0.4562  0.7554
  255MOL0     H34419   7.884   7.975   1.953 -0.7968  0.2534  0.8040
  255MOL0     H34420   8.049   8.029   1.970 -1.2277 -0.2920  4.2514
  255MOL0     H34421   7.756   8.299   2.158 -0.3899 -1.1990  1.1148
  255MOL0     H34422   8.198   8.321   1.757 -0.1875 -1.8058 -1.7036
  255MOL0     H34423   8.319   8.525   1.848  0.5706  3.1712 -1.1154
  255MOL0     H34424   8.427   8.414   1.919 -1.7255 -0.3659 -0.0384
  255MOL0     H34425   8.482   8.553   1.831 -0.0776 -0.2554  3.5852
  256MOL0     O34426   3.171   1.907   8.442  0.2191  0.7884 -0.1447
  256MOL0     C34427   3.197   1.936   8.556 -0.6519 -0.3618 -0.2609
  256MOL0     O34428   3.321   1.988   8.602  0.0190 -0.1144 -0.0166
  256MOL0     C34429   3.423   2.010   8.510  0.3505 -0.0920  0.3227
  256MOL0     C34430   3.407   2.119   8.423 -0.0098 -0.5145  0.4036
  256MOL0     C34431   3.499   2.134   8.320 -0.2475  0.0717  0.2332
  256MOL0     C34432   3.616   2.051   8.316 -0.3051 -1.5143 -0.1827
  256MOL0     O34433   3.717   2.081   8.235 -0.1438 -0.0054 -0.0129
  256MOL0     C34434   3.772   2.216   8.250 -0.4167  0.0633 -0.3470
  256MOL0     C34435   3.830   2.257   8.383  0.1194 -1.0126  0.0460
  256MOL0     C34436   3.959   2.168   8.418  0.2515 -0.4719  0.1384
  256MOL0     C34437   4.043   2.209   8.542 -0.3196  0.2043 -0.9287
  256MOL0     C34438   4.189   2.176   8.523 -0.0389 -1.0210 -0.8319
  256MOL0     C34439   4.263   2.227   8.647 -0.1703  0.0898  0.0005
  256MOL0     C34440   4.304   2.372   8.640 -0.1067  1.0341 -0.3779
  256MOL0     C34441   4.424   2.399   8.546  0.3970 -0.1249  0.4309
  256MOL0     N34442   4.471   2.544   8.537 -0.1535  0.2420 -0.0498
  256MOL0     C34443   4.497   2.634   8.650 -0.0839 -0.2182  0.0864
  256MOL0     C34444   4.527   2.745   8.592  0.2949  0.4494  0.3063
  256MOL0     C34445   4.561   2.873   8.656 -0.2082  0.0329  0.6371
  256MOL0     C34446   4.691   2.882   8.736  1.0380  0.0565 -0.2782
  256MOL0     C34447   4.809   2.877   8.632 -0.1444 -0.6010 -0.7199
  256MOL0     C34448   4.849   3.018   8.599  0.2400 -0.7177 -0.3354
  256MOL0     O34449   4.900   3.081   8.714 -0.1765 -0.5556 -0.7105
  256MOL0     C34450   5.038   3.080   8.736  0.6090 -0.0302 -0.4332
  256MOL0     C34451   5.093   3.172   8.823  0.5507  0.6796 -0.2468
  256MOL0     C34452   5.236   3.178   8.842 -0.1229  0.1221  0.6342
  256MOL0     C34453   5.321   3.107   8.758 -0.1618  0.6074  0.0026
  256MOL0     C34454   5.464   3.119   8.761  0.5504 -0.4294  0.0215
  256MOL0     O34455   5.541   3.008   8.744  0.1275  0.6315 -0.0680
  256MOL0     C34456   5.678   3.011   8.736  0.2125 -0.1220 -0.7567
  256MOL0     C34457   5.748   2.980   8.849  1.1571 -0.0546 -0.2901
  256MOL0     C34458   5.884   2.976   8.852  0.1326  1.0919 -0.3310
  256MOL0     C34459   5.944   3.010   8.736 -1.1213 -0.2564 -0.0290
  256MOL0     O34460   6.080   3.004   8.732 -0.2330  0.9784  0.3098
  256MOL0     C34461   6.143   2.899   8.797 -0.4711  0.8870 -0.5998
  256MOL0     C34462   6.277   2.893   8.729  0.3422  0.2367 -0.1409
  256MOL0     C34463   6.371   2.785   8.784  0.3056  0.2844 -0.1837
  256MOL0     C34464   6.314   2.644   8.810  0.7044  1.0873 -0.4871
  256MOL0     C34465   6.402   2.539   8.869  1.0543  0.0034 -0.5616
  256MOL0     C34466   6.503   2.474   8.772 -0.4664 -0.6204  0.1516
  256MOL0     C34467   6.611   2.401   8.856  0.6864  0.4383  1.3690
  256MOL0     C34468   6.712   2.340   8.761  1.8106  0.5903 -0.5270
  256MOL0    Cl34469   6.815   2.237   8.855 -0.0974 -0.8790 -0.1616
  256MOL0     C34470   5.873   3.037   8.622 -0.0842 -0.1457 -0.0228
  256MOL0     C34471   5.736   3.030   8.619  0.0680  0.4474 -0.4920
  256MOL0     O34472   5.507   3.237   8.785 -0.3213 -0.1520 -0.2583
  256MOL0     C34473   5.262   3.003   8.677 -0.4959  0.2907 -0.6703
  256MOL0     C34474   5.124   2.993   8.672 -0.6763  0.0824 -0.0686
  256MOL0     N34475   4.532   2.729   8.455  0.7987  0.0422  0.0240
  256MOL0     N34476   4.495   2.608   8.421 -0.5401  0.3823  0.2159
  256MOL0     C34477   3.632   1.952   8.407  0.9543  0.0264 -0.9986
  256MOL0     C34478   3.539   1.927   8.500  0.2301 -0.3388  0.4398
  256MOL0     C34479   3.088   1.929   8.660 -0.3848 -0.5993  0.4691
  256MOL0     C34480   3.129   1.897   8.796 -0.7162  0.3499 -0.9392
  256MOL0     C34481   3.032   1.866   8.901 -0.6725 -0.9662 -0.0098
  256MOL0     C34482   2.896   1.882   8.864 -0.7882 -0.2109  0.3596
  256MOL0     O34483   2.803   1.855   8.960 -0.8430  0.4976 -0.7783
  256MOL0     C34484   2.672   1.876   8.923 -0.6118  0.1536 -0.1446
  256MOL0     C34485   2.581   1.845   9.037  0.3055  0.9111  0.1576
  256MOL0     C34486   2.424   1.853   9.013 -0.1493 -0.1906  0.3016
  256MOL0     C34487   2.339   1.793   9.121 -0.1333  0.3283  0.2031
  256MOL0     C34488   2.200   1.783   9.071  0.1339  0.0836 -0.1803
  256MOL0     C34489   2.077   1.778   9.043 -0.2471 -0.0870  0.3996
  256MOL0     C34490   2.861   1.925   8.738  0.3800  0.3026  0.0920
  256MOL0     C34491   2.953   1.943   8.633  0.3258 -0.1890  0.1335
  256MOL0     C34492   2.897   1.988   8.498  0.0145 -0.2236  0.6147
  256MOL0     H34493   3.318   2.182   8.423  0.4999  0.2286 -0.3200
  256MOL0     H34494   3.490   2.226   8.264 -0.7279  1.3405  2.3032
  256MOL0     H34495   3.852   2.234   8.177  0.2991  2.5267  0.9443
  256MOL0     H34496   3.704   2.297   8.221  0.5593  1.9437  2.2546
  256MOL0     H34497   3.749   2.254   8.458 -1.9176  1.2304 -1.8997
  256MOL0     H34498   3.867   2.357   8.363 -0.5684 -0.6954  0.3195
  256MOL0     H34499   4.020   2.175   8.328 -0.5546  0.9748 -0.3145
  256MOL0     H34500   3.922   2.066   8.438  0.4991 -0.8746 -1.3546
  256MOL0     H34501   4.027   2.316   8.556 -0.5160 -0.0117  0.6087
  256MOL0     H34502   4.008   2.158   8.632  1.5421  0.6897  0.1062
  256MOL0     H34503   4.209   2.068   8.525 -0.9471 -1.2008  0.6389
  256MOL0     H34504   4.233   2.222   8.435 -1.5550 -0.4116 -1.2946
  256MOL0     H34505   4.196   2.210   8.732 -3.9313 -0.3962 -2.8007
  256MOL0     H34506   4.356   2.173   8.669 -0.6772 -0.7694  0.0549
  256MOL0     H34507   4.331   2.405   8.740 -1.3413  1.2932 -0.1134
  256MOL0     H34508   4.212   2.425   8.615 -0.7264  1.7984  3.0987
  256MOL0     H34509   4.517   2.349   8.576 -0.8913 -0.5235  4.4567
  256MOL0     H34510   4.389   2.371   8.446 -3.5136  0.2631  1.5121
  256MOL0     H34511   4.491   2.620   8.758  0.5191 -1.8977 -0.0691
  256MOL0     H34512   4.557   2.955   8.583 -0.1841 -0.4783  0.0536
  256MOL0     H34513   4.467   2.887   8.710 -1.1602 -3.1256  0.0355
  256MOL0     H34514   4.694   2.979   8.786  1.3968 -0.3800  0.5688
  256MOL0     H34515   4.689   2.805   8.814  0.4200  0.1685 -0.1825
  256MOL0     H34516   4.784   2.847   8.530  4.0678 -0.7277 -1.8919
  256MOL0     H34517   4.897   2.821   8.666 -0.7130  0.4810  3.0163
  256MOL0     H34518   4.770   3.075   8.549  0.2349  1.4595  1.9948
  256MOL0     H34519   4.928   3.005   8.525  3.2691 -2.6094  2.9112
  256MOL0     H34520   5.023   3.237   8.876 -1.6718  0.0124 -2.1841
  256MOL0     H34521   5.284   3.251   8.906  1.4232  1.7638 -2.2081
  256MOL0     H34522   5.692   2.959   8.939  0.0626 -0.8305 -1.1332
  256MOL0     H34523   5.935   2.952   8.945 -3.1123 -2.1169  0.8739
  256MOL0     H34524   6.163   2.918   8.903  1.5920 -0.1667 -0.7453
  256MOL0     H34525   6.099   2.799   8.801  1.4523  0.0341  0.4833
  256MOL0     H34526   6.263   2.891   8.620 -2.8293 -1.2336  0.1652
  256MOL0     H34527   6.327   2.987   8.752  1.1338 -0.2385  0.1023
  256MOL0     H34528   6.463   2.783   8.724  0.6086  1.0085  0.2495
  256MOL0     H34529   6.400   2.824   8.882 -5.4144  1.7655  1.2934
  256MOL0     H34530   6.271   2.612   8.714  0.0835 -0.7608  0.3617
  256MOL0     H34531   6.227   2.661   8.874  0.6080  2.3005 -0.9023
  256MOL0     H34532   6.338   2.452   8.887  3.3543 -2.0725 -1.8203
  256MOL0     H34533   6.452   2.577   8.959  1.0711 -2.1463  0.3992
  256MOL0     H34534   6.457   2.408   8.698 -2.4276  1.9574 -1.0728
  256MOL0     H34535   6.549   2.553   8.712  1.4051 -2.8509 -1.5183
  256MOL0     H34536   6.557   2.321   8.907  0.0211 -1.7385 -2.3779
  256MOL0     H34537   6.658   2.479   8.917 -0.3828  0.9459  1.5684
  256MOL0     H34538   6.654   2.281   8.689  1.0685 -0.9211  1.2150
  256MOL0     H34539   6.772   2.421   8.718 -0.1543  3.1502  1.2200
  256MOL0     H34540   5.934   3.067   8.537  1.4527  0.5091  1.2590
  256MOL0     H34541   5.680   3.037   8.526  0.3831  0.1153 -0.7065
  256MOL0     H34542   5.325   2.930   8.626  1.0565  1.9834 -1.3006
  256MOL0     H34543   5.083   2.906   8.621 -0.4577  0.0788 -0.2382
  256MOL0     H34544   3.720   1.889   8.401  0.6713 -0.3303 -1.5538
  256MOL0     H34545   3.532   1.854   8.580 -1.0407  2.4786  3.1126
  256MOL0     H34546   3.235   1.883   8.817 -0.4572  1.4009 -1.4703
  256MOL0     H34547   3.064   1.844   9.002  1.5931  1.9426  0.0163
  256MOL0     H34548   2.648   1.811   8.838 -0.8202  1.7996 -1.4039
  256MOL0     H34549   2.655   1.976   8.884 -0.5134 -0.2815 -1.3444
  256MOL0     H34550   2.609   1.911   9.120  1.7004 -1.1924  1.4505
  256MOL0     H34551   2.600   1.745   9.077  2.1108  2.2543  2.9581
  256MOL0     H34552   2.391   1.814   8.916 -2.8275 -1.7333  1.7238
  256MOL0     H34553   2.398   1.959   9.002  1.7945  0.4054  0.9343
  256MOL0     H34554   2.383   1.700   9.157  2.1517  1.5698  0.8526
  256MOL0     H34555   2.337   1.864   9.205 -0.5815  1.3991 -0.6907
  256MOL0     H34556   1.972   1.799   9.038 -0.0790  0.7469 -4.1425
  256MOL0     H34557   2.759   1.930   8.702  0.4116 -0.8570 -0.1864
  256MOL0     H34558   2.788   1.994   8.505 -0.1137  1.1659 -1.7720
  256MOL0     H34559   2.947   2.079   8.464  1.8519 -1.4638 -0.1596
  256MOL0     H34560   2.911   1.913   8.420  1.4986 -2.4131  2.8036
  257MOL0     O34561   9.977   8.560   3.817 -0.4375 -0.1769 -0.0597
  257MOL0     C34562  10.010   8.679   3.806  0.2344 -0.3938 -0.1153
  257MOL0     O34563  10.119   8.735   3.864  0.0672 -0.3048 -0.1453
  257MOL0     C34564  10.170   8.670   3.977 -0.7658 -0.2490 -0.0403
  257MOL0     C34565  10.246   8.551   3.952 -0.8268 -0.1401  0.4198
  257MOL0     C34566  10.317   8.488   4.059  0.6149  0.4559 -0.3432
  257MOL0     C34567  10.323   8.537   4.187  0.0919 -0.3205 -0.4692
  257MOL0     O34568  10.370   8.478   4.305 -0.4681 -0.8293 -0.3392
  257MOL0     C34569  10.462   8.363   4.292  0.0060  0.0079 -0.0686
  257MOL0     C34570  10.555   8.370   4.417  0.4898 -0.6539 -0.0230
  257MOL0     C34571  10.648   8.497   4.428  0.1750 -0.8551 -0.5565
  257MOL0     C34572  10.772   8.484   4.347 -0.5967  0.2661  0.8844
  257MOL0     C34573  10.864   8.607   4.369  0.0098  0.2823  1.1578
  257MOL0     C34574  10.808   8.741   4.315 -0.7967  0.3213 -0.7951
  257MOL0     C34575  10.762   8.743   4.170  0.3507  0.5253 -0.3521
  257MOL0     C34576  10.743   8.892   4.138 -0.1939  0.3573  0.3327
  257MOL0     N34577  10.714   8.911   3.991 -0.9322 -0.1979 -0.4110
  257MOL0     C34578  10.594   8.884   3.925  0.7142 -0.2420 -0.2449
  257MOL0     C34579  10.615   8.895   3.793  0.8160  0.1243 -0.1955
  257MOL0     C34580  10.507   8.876   3.693 -1.4546 -0.4109 -0.0262
  257MOL0     C34581  10.425   9.010   3.667 -0.1528 -0.1296 -1.5392
  257MOL0     C34582  10.334   8.998   3.538  0.1211  0.4463 -0.6647
  257MOL0     C34583  10.244   9.117   3.506  0.0450  0.2971  0.4198
  257MOL0     O34584  10.188   9.148   3.638 -0.1761 -0.5775  0.3893
  257MOL0     C34585  10.158   9.283   3.653 -0.3955  0.3969 -0.3598
  257MOL0     C34586  10.110   9.308   3.785  0.4543  0.1325  0.2003
  257MOL0     C34587  10.088   9.438   3.827  0.2826  0.3650 -0.7430
  257MOL0     C34588  10.091   9.549   3.735 -0.2291 -0.0690  0.1081
  257MOL0     C34589  10.072   9.685   3.778 -0.0262  0.4515  0.6917
  257MOL0     O34590  10.089   9.705   3.904 -0.5594  0.0649 -0.1911
  257MOL0     C34591  10.092   9.838   3.955  0.4502  0.1784 -0.6566
  257MOL0     C34592   9.998   9.934   3.923 -0.1022 -0.8230 -0.1635
  257MOL0     C34593  10.016  10.064   3.966  0.8989  0.1554  0.4319
  257MOL0     C34594  10.136  10.115   4.009 -0.6556  0.4385  0.1614
  257MOL0     O34595  10.147  10.247   4.026 -0.8600  0.1757  0.5356
  257MOL0     C34596  10.264  10.316   3.970 -0.3240  0.9914 -0.0108
  257MOL0     C34597  10.267  10.302   3.817 -0.9264  0.5533 -0.1133
  257MOL0     C34598  10.135  10.357   3.761  0.4906 -0.3969  0.2063
  257MOL0     C34599  10.150  10.355   3.604 -0.4035 -0.2551  0.0377
  257MOL0     C34600  10.038  10.422   3.516  0.3406  0.4951 -0.7733
  257MOL0     C34601   9.905  10.351   3.503  0.1614 -0.4734 -0.0327
  257MOL0     C34602   9.817  10.432   3.406 -1.1967 -0.1096 -0.1954
  257MOL0     C34603   9.746  10.558   3.469 -0.4613 -0.4208 -0.3530
  257MOL0    Cl34604   9.856  10.697   3.495  0.0682 -0.2964 -0.1194
  257MOL0     C34605  10.237  10.022   4.041 -0.3233 -0.4398 -0.6685
  257MOL0     C34606  10.210   9.884   4.010 -0.5707 -0.0249  0.0135
  257MOL0     O34607  10.062   9.770   3.692  0.3902  0.1459  0.0544
  257MOL0     C34608  10.133   9.521   3.604 -0.8064 -0.2467 -0.3763
  257MOL0     C34609  10.161   9.390   3.563  0.7369  0.3336  0.0559
  257MOL0     N34610  10.745   8.924   3.776 -0.4413 -0.0036  0.1298
  257MOL0     N34611  10.800   8.952   3.896  1.1173  0.3049  0.3401
  257MOL0     C34612  10.257   8.659   4.205  0.3322  0.7189 -0.3689
  257MOL0     C34613  10.181   8.725   4.105  0.6092  0.4513  0.6887
  257MOL0     C34614   9.938   8.775   3.729  0.6610  0.0023 -0.0292
  257MOL0     C34615   9.935   8.903   3.771 -0.1076 -0.2288  0.4645
  257MOL0     C34616   9.862   9.008   3.712  0.0875  0.4778  0.2526
  257MOL0     C34617   9.779   8.981   3.606 -0.0967 -0.1142  0.6424
  257MOL0     O34618   9.687   9.070   3.549 -0.4544 -0.4669 -0.2778
  257MOL0     C34619   9.724   9.209   3.520 -0.6800 -0.7682  0.2961
  257MOL0     C34620   9.660   9.287   3.638 -0.0913  0.5086 -0.8977
  257MOL0     C34621   9.612   9.429   3.613 -0.0060  0.5487 -0.0979
  257MOL0     C34622   9.727   9.524   3.597  0.9522  0.7513  0.7617
  257MOL0     C34623   9.777   9.528   3.461 -0.6136 -0.1172  0.4136
  257MOL0     C34624   9.822   9.538   3.352  0.0999  0.3137 -0.7167
  257MOL0     C34625   9.777   8.853   3.561  0.0480  0.2966 -1.1168
  257MOL0     C34626   9.849   8.748   3.621  0.7477 -0.3782  0.9119
  257MOL0     C34627   9.844   8.611   3.552 -0.3728  0.0798 -0.1631
  257MOL0     H34628  10.256   8.505   3.855 -0.6116  0.6611  0.0514
  257MOL0     H34629  10.367   8.396   4.031 -0.7968 -0.4037 -0.1032
  257MOL0     H34630  10.411   8.267   4.286  0.6363 -0.4118  1.0216
  257MOL0     H34631  10.512   8.378   4.196  0.3717  0.0093  0.1186
  257MOL0     H34632  10.623   8.285   4.425 -0.6027 -1.4082  2.0533
  257MOL0     H34633  10.486   8.365   4.502  0.2818  0.4034 -0.1121
  257MOL0     H34634  10.676   8.502   4.534 -0.0442  2.4385 -0.5451
  257MOL0     H34635  10.590   8.589   4.419  3.1049  1.2725  0.5287
  257MOL0     H34636  10.829   8.395   4.376  1.4011  1.7146  1.6113
  257MOL0     H34637  10.738   8.480   4.243 -0.6956 -0.1346  0.9304
  257MOL0     H34638  10.876   8.615   4.478 -0.3089  3.7837  1.0367
  257MOL0     H34639  10.963   8.597   4.324  0.9617  0.6757  3.0619
  257MOL0     H34640  10.730   8.773   4.384 -1.0933 -1.9925  0.0355
  257MOL0     H34641  10.893   8.809   4.323  1.1247 -2.1133  1.1800
  257MOL0     H34642  10.663   8.695   4.166  0.9352 -0.8494  0.7704
  257MOL0     H34643  10.827   8.690   4.100  0.1911 -0.5782  0.3163
  257MOL0     H34644  10.665   8.940   4.199  2.3189  1.6782  2.7605
  257MOL0     H34645  10.839   8.938   4.166 -1.6245  2.1299  2.7753
  257MOL0     H34646  10.499   8.863   3.975  1.5011 -2.3197  0.4885
  257MOL0     H34647  10.557   8.833   3.605  0.8020  0.6702  0.6502
  257MOL0     H34648  10.431   8.805   3.727 -1.5546 -1.3317 -2.0178
  257MOL0     H34649  10.363   9.029   3.756  0.4547  0.6639 -1.2661
  257MOL0     H34650  10.498   9.091   3.660 -0.0043 -0.1892 -0.8013
  257MOL0     H34651  10.262   8.917   3.555 -1.3732  1.9334  0.3536
  257MOL0     H34652  10.399   8.971   3.454 -0.6805 -0.4734 -0.9999
  257MOL0     H34653  10.166   9.085   3.437 -0.4519 -1.7636  1.8451
  257MOL0     H34654  10.302   9.196   3.458 -0.1431 -0.0768 -0.4338
  257MOL0     H34655  10.105   9.219   3.847  0.9493 -2.7145 -3.4700
  257MOL0     H34656  10.059   9.454   3.931 -1.4604 -1.6922 -0.8588
  257MOL0     H34657   9.906   9.904   3.874 -0.2475 -0.7467  0.0627
  257MOL0     H34658   9.929  10.127   3.949  0.2410 -0.7167  0.4734
  257MOL0     H34659  10.241  10.421   3.992  2.5506  1.0851  3.4072
  257MOL0     H34660  10.355  10.283   4.021  0.7630  1.9903 -1.2157
  257MOL0     H34661  10.351  10.352   3.769 -2.3336  0.9985 -2.2293
  257MOL0     H34662  10.277  10.195   3.797  3.5907  0.3864  1.7398
  257MOL0     H34663  10.057  10.294   3.805  0.3605 -0.5276 -0.2090
  257MOL0     H34664  10.114  10.460   3.792 -0.1072 -0.3174 -0.4298
  257MOL0     H34665  10.170  10.249   3.585  3.6260  0.2122  0.8617
  257MOL0     H34666  10.241  10.407   3.574  0.5831 -1.0118  1.5741
  257MOL0     H34667  10.081  10.447   3.419  0.1659  0.8156 -0.7698
  257MOL0     H34668  10.015  10.519   3.562  0.6851  0.2573 -0.0816
  257MOL0     H34669   9.906  10.246   3.472 -1.6217 -0.6617  0.4259
  257MOL0     H34670   9.871  10.350   3.607 -2.5299  0.4727 -0.8043
  257MOL0     H34671   9.729  10.379   3.369  0.2774 -1.9202 -1.2837
  257MOL0     H34672   9.880  10.464   3.322 -1.6002  0.2565 -0.3571
  257MOL0     H34673   9.666  10.585   3.400 -0.4090 -1.7951 -0.9773
  257MOL0     H34674   9.696  10.530   3.562  0.5148 -2.0791 -0.2727
  257MOL0     H34675  10.340  10.044   4.066  0.1018 -4.6046  2.1670
  257MOL0     H34676  10.285   9.806   4.019 -1.0842 -0.7045 -1.2504
  257MOL0     H34677  10.140   9.595   3.525 -1.3199  1.4942  1.1654
  257MOL0     H34678  10.177   9.375   3.457  0.3557 -0.4282  0.1033
  257MOL0     H34679  10.263   8.696   4.307  0.5502 -1.4232  0.4452
  257MOL0     H34680  10.134   8.817   4.137 -0.3871 -0.5216  2.1294
  257MOL0     H34681   9.980   8.943   3.861 -1.0151  0.2465  0.7097
  257MOL0     H34682   9.863   9.110   3.749  1.5602  0.3026  0.7703
  257MOL0     H34683   9.684   9.243   3.424 -2.8858  1.3499  1.8306
  257MOL0     H34684   9.833   9.215   3.523 -0.6148  0.1988 -2.2038
  257MOL0     H34685   9.728   9.284   3.723  0.7953  1.3607 -1.5570
  257MOL0     H34686   9.570   9.231   3.668 -1.1650  1.4544 -2.1889
  257MOL0     H34687   9.564   9.465   3.704 -0.0158 -0.8950  0.4915
  257MOL0     H34688   9.546   9.430   3.525 -3.0125 -1.4398  1.9518
  257MOL0     H34689   9.693   9.625   3.621  2.0812  1.3232  0.0736
  257MOL0     H34690   9.808   9.498   3.666  1.1758  0.7899  0.5178
  257MOL0     H34691   9.868   9.540   3.255 -1.7194  1.1150 -1.6082
  257MOL0     H34692   9.711   8.822   3.481 -1.3799 -1.2919  0.5847
  257MOL0     H34693   9.840   8.530   3.627  3.5572  1.8980  2.3983
  257MOL0     H34694   9.760   8.606   3.483 -2.2110  1.7072  1.8459
  257MOL0     H34695   9.935   8.601   3.492 -1.8509  0.0371 -2.5261
  258MOL0     O34696   4.227   7.390   6.925  0.5344  0.0788 -1.1231
  258MOL0     C34697   4.128   7.344   6.867  0.6332 -0.5333  0.9860
  258MOL0     O34698   4.126   7.233   6.783 -0.5647  0.6550 -0.3024
  258MOL0     C34699   4.253   7.191   6.754  0.2233  0.6151  0.1751
  258MOL0     C34700   4.319   7.098   6.829 -0.3354 -0.9788  0.7173
  258MOL0     C34701   4.448   7.057   6.802  0.1476  0.4455 -0.0237
  258MOL0     C34702   4.510   7.113   6.694 -0.0158  0.5773  0.0454
  258MOL0     O34703   4.636   7.069   6.671 -0.5583  0.5511 -0.3074
  258MOL0     C34704   4.691   7.127   6.552  0.0100  0.0869 -0.1009
  258MOL0     C34705   4.836   7.066   6.555 -0.1290 -0.7573  0.4917
  258MOL0     C34706   4.904   7.112   6.420 -0.2368  0.5314 -0.3018
  258MOL0     C34707   5.055   7.080   6.398 -0.0461 -0.5875 -0.1903
  258MOL0     C34708   5.119   7.164   6.285 -0.3940 -0.6675 -0.5145
  258MOL0     C34709   5.273   7.151   6.263  0.6938  0.9716  0.4809
  258MOL0     C34710   5.304   7.204   6.126  0.0849  0.8175  0.5869
  258MOL0     C34711   5.456   7.233   6.107 -0.0221  0.4069  0.5322
  258MOL0     N34712   5.479   7.325   5.998  0.5474  0.0213  0.2463
  258MOL0     C34713   5.527   7.452   6.022  0.1869  0.2235 -0.6066
  258MOL0     C34714   5.596   7.485   5.907  0.7223  0.4755 -0.6935
  258MOL0     C34715   5.670   7.614   5.874 -1.4120  0.9627 -0.1956
  258MOL0     C34716   5.819   7.580   5.841  0.1946 -0.1729 -0.1407
  258MOL0     C34717   5.922   7.650   5.938  0.3052 -0.0320  0.5665
  258MOL0     C34718   6.071   7.613   5.907  0.0381 -0.3657  1.0770
  258MOL0     O34719   6.091   7.474   5.879  0.6548  0.6881 -0.4994
  258MOL0     C34720   6.206   7.427   5.830 -0.2423  0.6216 -0.4163
  258MOL0     C34721   6.213   7.291   5.820 -0.2311  0.3051  0.3834
  258MOL0     C34722   6.330   7.225   5.786 -0.4465 -0.7166  0.4379
  258MOL0     C34723   6.448   7.299   5.765  0.4273  0.4171  0.6297
  258MOL0     C34724   6.575   7.233   5.716 -0.5909 -0.1128 -0.3374
  258MOL0     O34725   6.582   7.095   5.729 -0.0844  0.2360 -0.5700
  258MOL0     C34726   6.677   7.019   5.668 -1.3307 -0.3536 -0.1479
  258MOL0     C34727   6.693   6.892   5.719 -0.5253  0.1035  0.7535
  258MOL0     C34728   6.792   6.801   5.668  0.1755 -0.4189 -0.6349
  258MOL0     C34729   6.884   6.843   5.567 -1.0965  0.7880 -0.2030
  258MOL0     O34730   6.991   6.766   5.508 -0.0107 -0.5626  0.7160
  258MOL0     C34731   7.016   6.632   5.560 -0.5545 -0.2627 -0.5975
  258MOL0     C34732   7.080   6.616   5.701 -0.0504 -0.2089 -0.3710
  258MOL0     C34733   7.228   6.579   5.697 -1.0762  0.1152  1.3955
  258MOL0     C34734   7.323   6.682   5.630  0.5441 -0.7891  0.1431
  258MOL0     C34735   7.471   6.653   5.641 -0.2764 -0.4959  0.2653
  258MOL0     C34736   7.548   6.782   5.595 -0.3243  0.9966  0.8345
  258MOL0     C34737   7.698   6.774   5.573  1.3412 -0.0800  0.9524
  258MOL0     C34738   7.744   6.903   5.511 -0.6176  0.2478  1.1269
  258MOL0    Cl34739   7.925   6.912   5.486 -0.4501  0.2142 -0.1063
  258MOL0     C34740   6.879   6.971   5.519  0.0334 -0.4958  0.6076
  258MOL0     C34741   6.776   7.059   5.566  0.1291 -0.3211  0.2848
  258MOL0     O34742   6.666   7.306   5.678 -0.1283 -0.3496  0.0610
  258MOL0     C34743   6.449   7.434   5.783 -0.6651 -0.6688  0.4331
  258MOL0     C34744   6.326   7.498   5.814  0.2198  0.6382 -0.5474
  258MOL0     N34745   5.560   7.400   5.815  0.2044  0.5056  0.2600
  258MOL0     N34746   5.512   7.298   5.867 -0.4676 -0.0750  0.4601
  258MOL0     C34747   4.444   7.212   6.611  0.6870 -0.2533 -0.5129
  258MOL0     C34748   4.317   7.252   6.648  0.1180 -0.5854 -0.2147
  258MOL0     C34749   3.998   7.420   6.880 -0.6450 -0.2702 -0.3095
  258MOL0     C34750   3.949   7.489   6.995  0.1447 -0.8120  0.2839
  258MOL0     C34751   3.822   7.550   7.004 -0.3803  0.1285 -0.6147
  258MOL0     C34752   3.736   7.543   6.894 -0.2719  0.2827 -0.2771
  258MOL0     O34753   3.613   7.604   6.878 -0.3007 -0.2660  0.3175
  258MOL0     C34754   3.565   7.686   6.984 -0.6997 -0.6338  0.4014
  258MOL0     C34755   3.647   7.820   6.981  0.9540  0.7724  0.0017
  258MOL0     C34756   3.640   7.902   7.106 -0.0862 -0.7053 -1.1044
  258MOL0     C34757   3.520   7.997   7.125 -0.4563  0.1785 -0.8269
  258MOL0     C34758   3.389   7.933   7.168 -0.5871  1.0948  1.0461
  258MOL0     C34759   3.292   7.860   7.184 -0.0945 -0.2656  0.7111
  258MOL0     C34760   3.772   7.457   6.787 -0.3143 -0.4250  0.7722
  258MOL0     C34761   3.903   7.403   6.775 -0.8168 -0.8204 -0.0974
  258MOL0     C34762   3.912   7.339   6.636 -0.5008  0.6444 -0.4290
  258MOL0     H34763   4.279   7.045   6.916  1.2022 -1.6802  1.0181
  258MOL0     H34764   4.497   6.981   6.862 -0.6610 -1.0267 -1.1600
  258MOL0     H34765   4.639   7.089   6.463  0.0680  0.7821 -0.4333
  258MOL0     H34766   4.699   7.236   6.550 -1.2416  0.2517  1.9385
  258MOL0     H34767   4.845   6.958   6.569  4.0735 -0.9181 -1.7663
  258MOL0     H34768   4.885   7.102   6.647  0.1037 -0.9813  0.4571
  258MOL0     H34769   4.881   7.219   6.411 -1.9042  0.3042  0.8215
  258MOL0     H34770   4.860   7.059   6.335 -0.6769  0.0736  0.2010
  258MOL0     H34771   5.112   7.110   6.486 -0.4070 -1.7557  0.4646
  258MOL0     H34772   5.075   6.975   6.375 -0.4468 -0.6438 -0.2833
  258MOL0     H34773   5.064   7.130   6.197 -0.1324 -2.8755  0.0928
  258MOL0     H34774   5.091   7.268   6.302 -1.7913 -1.0823 -0.1085
  258MOL0     H34775   5.324   7.209   6.340  2.4254 -0.6465  0.6150
  258MOL0     H34776   5.292   7.043   6.269 -2.0728 -0.1772 -4.6200
  258MOL0     H34777   5.246   7.296   6.111 -3.3364 -1.4210 -1.2254
  258MOL0     H34778   5.262   7.121   6.069 -2.2165 -0.5014  3.8977
  258MOL0     H34779   5.485   7.277   6.203  1.9387  0.3899 -0.0172
  258MOL0     H34780   5.517   7.144   6.087 -1.2963 -0.3330 -0.2619
  258MOL0     H34781   5.538   7.509   6.114  0.4021  1.2375 -1.2453
  258MOL0     H34782   5.628   7.654   5.781  1.5041 -1.5648 -2.8502
  258MOL0     H34783   5.667   7.683   5.959  3.1563 -1.2813  2.1833
  258MOL0     H34784   5.839   7.472   5.835 -1.6860 -0.5864  0.4186
  258MOL0     H34785   5.843   7.617   5.741  3.8352 -1.8849 -0.0813
  258MOL0     H34786   5.908   7.605   6.036  2.1405 -0.4476  0.6841
  258MOL0     H34787   5.908   7.759   5.945 -0.9035 -0.0586 -1.0313
  258MOL0     H34788   6.135   7.655   5.985  0.2950  3.4386 -0.9205
  258MOL0     H34789   6.091   7.664   5.812 -2.6131 -1.9387 -0.4693
  258MOL0     H34790   6.122   7.237   5.846  0.9990 -2.3508 -0.5422
  258MOL0     H34791   6.329   7.117   5.789  0.6838 -0.8192 -1.4421
  258MOL0     H34792   6.637   6.871   5.809  0.7973 -1.3746  1.2874
  258MOL0     H34793   6.792   6.700   5.706  3.2014 -0.7617 -1.2295
  258MOL0     H34794   6.917   6.587   5.572 -2.4113  3.6361  0.2942
  258MOL0     H34795   7.070   6.571   5.487 -0.8179  0.6224 -1.5569
  258MOL0     H34796   7.078   6.715   5.747  2.5942  0.2077 -0.9863
  258MOL0     H34797   7.021   6.539   5.752 -2.5062 -0.4254 -3.2480
  258MOL0     H34798   7.270   6.552   5.795 -0.6791  0.2129  1.2539
  258MOL0     H34799   7.247   6.489   5.638  3.5058  1.3961  0.5585
  258MOL0     H34800   7.294   6.775   5.680  1.8087 -0.6851  0.7409
  258MOL0     H34801   7.292   6.688   5.526 -0.8717  0.7535  0.6012
  258MOL0     H34802   7.502   6.572   5.574 -1.1790 -1.1484  0.6382
  258MOL0     H34803   7.491   6.621   5.743  3.7476 -2.6478 -0.9471
  258MOL0     H34804   7.508   6.814   5.499  1.4913  0.9726  0.0314
  258MOL0     H34805   7.522   6.863   5.664 -0.3681  0.8210  1.0277
  258MOL0     H34806   7.729   6.682   5.523  0.6956 -0.6333  1.5479
  258MOL0     H34807   7.736   6.774   5.676  0.3551  0.9492  1.3386
  258MOL0     H34808   7.690   6.907   5.416  0.6167 -1.3230  0.2961
  258MOL0     H34809   7.712   6.986   5.574 -2.4930  1.3358 -1.1344
  258MOL0     H34810   6.948   7.006   5.444  0.8099 -2.6561  0.2272
  258MOL0     H34811   6.780   7.158   5.522  0.0632  0.0186  1.0416
  258MOL0     H34812   6.543   7.486   5.769  0.1328 -1.8432  1.2915
  258MOL0     H34813   6.330   7.606   5.821  0.0451  0.5787  0.7300
  258MOL0     H34814   4.490   7.263   6.528 -0.4471  2.8755  0.6338
  258MOL0     H34815   4.274   7.333   6.591 -0.0704 -1.8755 -1.9943
  258MOL0     H34816   4.008   7.496   7.085  1.4323  1.4412 -0.6580
  258MOL0     H34817   3.792   7.599   7.096 -1.3908 -0.6226 -0.5253
  258MOL0     H34818   3.568   7.640   7.083  0.5366 -0.3753  0.4971
  258MOL0     H34819   3.463   7.721   6.968  0.4215  3.2235  0.7707
  258MOL0     H34820   3.603   7.882   6.902 -0.5421  0.7150  0.7548
  258MOL0     H34821   3.752   7.800   6.958  0.7473  0.6812 -0.8864
  258MOL0     H34822   3.727   7.968   7.113  1.1624 -2.4978  3.5876
  258MOL0     H34823   3.639   7.829   7.187 -0.9225  1.2779  0.7930
  258MOL0     H34824   3.544   8.069   7.204 -0.3095 -0.9420  0.1762
  258MOL0     H34825   3.509   8.060   7.036  0.1282  1.3321 -0.1122
  258MOL0     H34826   3.210   7.795   7.202 -1.0688 -0.5872 -3.7934
  258MOL0     H34827   3.702   7.459   6.704 -0.4261 -3.0989  0.7155
  258MOL0     H34828   3.880   7.234   6.642  1.7090 -0.1270 -1.2081
  258MOL0     H34829   3.857   7.386   6.554 -1.7441  1.0884  0.6253
  258MOL0     H34830   4.013   7.349   6.598  0.0554  0.8211  1.0161
  259MOL0     O34831   7.410   2.232   0.017  0.0696  0.1488  0.8840
  259MOL0     C34832   7.417   2.154  -0.087 -0.4301 -0.5041 -0.3063
  259MOL0     O34833   7.509   2.051  -0.108  0.0853  0.2614 -0.4591
  259MOL0     C34834   7.603   2.039  -0.010 -0.6710 -0.8282 -0.3386
  259MOL0     C34835   7.570   1.969   0.102  0.4184  0.3450  0.0587
  259MOL0     C34836   7.673   1.950   0.194  0.2853  0.4051 -0.6666
  259MOL0     C34837   7.798   2.011   0.174  0.9407 -0.4201 -0.0046
  259MOL0     O34838   7.890   1.984   0.275 -0.6808 -0.1449 -0.0804
  259MOL0     C34839   8.017   1.915   0.248 -0.2411 -0.7808  0.4951
  259MOL0     C34840   8.092   1.892   0.378  1.0832  0.8526 -1.0731
  259MOL0     C34841   8.238   1.843   0.355 -0.1667  0.9816 -0.7604
  259MOL0     C34842   8.320   1.914   0.453  0.7221  0.1315  0.1110
  259MOL0     C34843   8.470   1.854   0.438  0.4793  0.1947 -0.7141
  259MOL0     C34844   8.558   1.925   0.538  0.5534  0.1960  0.4005
  259MOL0     C34845   8.694   1.849   0.559  1.0559 -1.0303  0.1326
  259MOL0     C34846   8.797   1.942   0.624 -0.4943  0.8552 -0.1334
  259MOL0     N34847   8.936   1.879   0.603  1.0092 -0.1646 -0.6269
  259MOL0     C34848   9.003   1.765   0.646  0.4135 -0.1938  0.7717
  259MOL0     C34849   9.126   1.768   0.594 -0.8198  0.8001 -0.5122
  259MOL0     C34850   9.223   1.657   0.621  0.3161 -0.7434 -0.5440
  259MOL0     C34851   9.363   1.709   0.652 -0.4686  0.7909  0.0291
  259MOL0     C34852   9.437   1.744   0.528  0.1553  0.4077  0.0869
  259MOL0     C34853   9.583   1.780   0.553 -0.1035 -0.1121 -0.3542
  259MOL0     O34854   9.605   1.904   0.623  0.2110 -0.2100  0.3474
  259MOL0     C34855   9.734   1.961   0.609 -0.5827 -1.4606  0.3999
  259MOL0     C34856   9.756   2.059   0.506 -0.1081  1.1606  0.0719
  259MOL0     C34857   9.886   2.118   0.504 -0.5690  0.4847  0.2191
  259MOL0     C34858   9.985   2.084   0.597  0.2479  0.4100  0.3527
  259MOL0     C34859  10.121   2.156   0.594  0.5806  0.2253 -0.2600
  259MOL0     O34860  10.171   2.180   0.719  0.3275 -0.3689 -0.4526
  259MOL0     C34861  10.295   2.246   0.728  0.6049  0.1094 -0.2987
  259MOL0     C34862  10.417   2.195   0.664  0.5767 -0.4961  0.5679
  259MOL0     C34863  10.534   2.268   0.683  0.3073  0.4062 -0.4230
  259MOL0     C34864  10.529   2.387   0.754  0.1364 -1.3961 -0.5784
  259MOL0     O34865  10.646   2.456   0.753  0.2760  0.6431 -1.0456
  259MOL0     C34866  10.664   2.570   0.849  0.4375 -0.9337 -0.4227
  259MOL0     C34867  10.810   2.609   0.866 -0.6667  0.3879 -0.5781
  259MOL0     C34868  10.894   2.643   0.745 -0.1407  0.3069 -0.1365
  259MOL0     C34869  10.860   2.779   0.680  0.4481  0.2586  0.3204
  259MOL0     C34870  10.976   2.824   0.600 -0.7043  0.8080 -0.0183
  259MOL0     C34871  11.020   2.718   0.491  0.6554  0.4150 -0.2281
  259MOL0     C34872  11.155   2.760   0.436  0.6896 -0.2848  0.1028
  259MOL0     C34873  11.151   2.875   0.329  0.1430 -0.6858 -0.5830
  259MOL0    Cl34874  11.315   2.899   0.256  0.2362 -0.2475 -0.1008
  259MOL0     C34875  10.411   2.438   0.812  0.5577  0.1598 -0.6700
  259MOL0     C34876  10.295   2.360   0.801 -0.3017 -0.1209 -0.4401
  259MOL0     O34877  10.172   2.184   0.489 -0.3455  0.4755  0.0970
  259MOL0     C34878   9.954   1.990   0.698 -0.1856  0.5502  0.3006
  259MOL0     C34879   9.829   1.933   0.704 -0.4549 -0.1563  0.3931
  259MOL0     N34880   9.150   1.892   0.533  0.2787 -0.0654  0.3860
  259MOL0     N34881   9.034   1.946   0.546 -0.4162 -0.1488  0.6771
  259MOL0     C34882   7.829   2.087   0.062  0.7575  0.1021 -1.3082
  259MOL0     C34883   7.736   2.089  -0.033  0.4996  0.4365 -0.0996
  259MOL0     C34884   7.322   2.184  -0.200 -0.0791 -0.1814 -0.1267
  259MOL0     C34885   7.210   2.271  -0.169  0.9129  1.0682 -0.7577
  259MOL0     C34886   7.118   2.295  -0.273  0.4430 -0.3017  0.5958
  259MOL0     C34887   7.137   2.252  -0.405 -0.2955 -0.4825 -0.1236
  259MOL0     O34888   7.051   2.281  -0.506  0.2093 -0.5872  0.3764
  259MOL0     C34889   7.069   2.267  -0.647 -0.9385 -0.2492 -0.1334
  259MOL0     C34890   6.986   2.162  -0.725 -0.3535 -0.0783  0.1834
  259MOL0     C34891   6.852   2.203  -0.770  0.3291  0.7591  0.6952
  259MOL0     C34892   6.859   2.280  -0.904  0.8431 -0.2075 -0.1177
  259MOL0     C34893   6.885   2.179  -1.010  0.9602 -0.0655 -0.3003
  259MOL0     C34894   6.913   2.112  -1.106 -1.3100 -0.4393 -0.9808
  259MOL0     C34895   7.245   2.174  -0.435  0.0889  0.0961  0.2653
  259MOL0     C34896   7.337   2.137  -0.333 -1.0768 -0.2020 -0.1521
  259MOL0     C34897   7.452   2.045  -0.388 -0.3871  0.0049 -0.9095
  259MOL0     H34898   7.473   1.943   0.143  1.3570 -0.5905  1.8430
  259MOL0     H34899   7.667   1.885   0.281 -1.0950  0.9494 -0.3274
  259MOL0     H34900   7.994   1.820   0.199  1.6943 -0.5723 -0.9398
  259MOL0     H34901   8.071   1.984   0.183 -1.6037 -1.1236 -1.0965
  259MOL0     H34902   8.045   1.818   0.444  4.3385  0.6529  1.3110
  259MOL0     H34903   8.086   1.988   0.431 -1.6679  0.7512 -1.0488
  259MOL0     H34904   8.272   1.867   0.254  0.1441 -0.1547 -0.9366
  259MOL0     H34905   8.250   1.735   0.372  1.3918  1.1887 -0.4404
  259MOL0     H34906   8.316   2.023   0.437 -1.9599  0.1389  0.3762
  259MOL0     H34907   8.279   1.901   0.554  0.9842 -2.8352 -0.0819
  259MOL0     H34908   8.479   1.747   0.453  0.5810  0.4182  1.0266
  259MOL0     H34909   8.510   1.858   0.337 -1.1808 -0.7398 -1.4576
  259MOL0     H34910   8.573   2.033   0.533  2.0040 -0.0177 -0.3605
  259MOL0     H34911   8.510   1.921   0.637  0.0645  0.7823  0.1955
  259MOL0     H34912   8.723   1.801   0.465  1.5070  0.5837 -0.5843
  259MOL0     H34913   8.676   1.765   0.627 -0.7486 -0.1755  0.7734
  259MOL0     H34914   8.797   2.047   0.595  2.8505  0.2537 -3.1234
  259MOL0     H34915   8.786   1.938   0.733  1.1364  2.1252  0.1163
  259MOL0     H34916   8.965   1.684   0.708  1.1144 -2.6570 -1.8092
  259MOL0     H34917   9.194   1.599   0.709 -1.6723  1.1331  0.1173
  259MOL0     H34918   9.212   1.585   0.540 -1.2260  0.0953 -1.1252
  259MOL0     H34919   9.349   1.798   0.714 -2.8508  0.7038 -0.3147
  259MOL0     H34920   9.414   1.631   0.710 -2.2186 -0.1867  0.3242
  259MOL0     H34921   9.384   1.829   0.482  1.3533  1.7209  1.0606
  259MOL0     H34922   9.430   1.657   0.462 -0.8456 -0.6768  1.5594
  259MOL0     H34923   9.639   1.786   0.459  1.5377  1.4957  0.6633
  259MOL0     H34924   9.626   1.702   0.618  0.1501  0.5129  0.2409
  259MOL0     H34925   9.679   2.077   0.431  1.6665 -0.6722 -2.3594
  259MOL0     H34926   9.919   2.190   0.430 -1.9861 -0.4735 -1.4010
  259MOL0     H34927  10.412   2.111   0.595 -2.6039 -0.6739  0.8331
  259MOL0     H34928  10.632   2.239   0.645  0.0336 -1.2916  0.0699
  259MOL0     H34929  10.612   2.655   0.805 -1.3009 -0.1018  2.9156
  259MOL0     H34930  10.609   2.550   0.941  0.3021 -3.0168 -0.9000
  259MOL0     H34931  10.819   2.690   0.939  2.6466  0.5980 -1.0592
  259MOL0     H34932  10.862   2.530   0.921  1.5394  0.4208 -2.4443
  259MOL0     H34933  10.999   2.639   0.776  0.0729 -1.8026 -0.9436
  259MOL0     H34934  10.874   2.560   0.676  2.4869 -0.8276  0.3299
  259MOL0     H34935  10.832   2.851   0.757 -1.3421 -1.5399  1.4815
  259MOL0     H34936  10.780   2.762   0.607  1.7632 -0.3500 -1.0232
  259MOL0     H34937  11.062   2.843   0.666 -0.0599 -0.5140 -0.4552
  259MOL0     H34938  10.945   2.915   0.548 -2.0348  0.5775  0.3490
  259MOL0     H34939  11.025   2.620   0.540 -1.8441  0.9561  1.3131
  259MOL0     H34940  10.947   2.707   0.410  0.5815  1.0938 -0.2593
  259MOL0     H34941  11.203   2.672   0.393  5.1062  1.0946  1.6300
  259MOL0     H34942  11.226   2.787   0.515  1.3361  1.4570 -1.0420
  259MOL0     H34943  11.089   2.842   0.245 -0.5315 -0.9035 -0.0098
  259MOL0     H34944  11.109   2.967   0.371 -2.1987 -2.1533  0.5170
  259MOL0     H34945  10.407   2.539   0.852  3.1109  0.7708 -1.7496
  259MOL0     H34946  10.201   2.386   0.849  0.0418 -0.8907  0.6974
  259MOL0     H34947  10.031   1.966   0.770  0.4258 -0.4628 -0.6638
  259MOL0     H34948   9.801   1.856   0.776  0.1852 -1.0561 -0.2939
  259MOL0     H34949   7.925   2.136   0.052  2.7733 -2.2486  3.2991
  259MOL0     H34950   7.747   2.137  -0.130 -1.2312 -1.9940 -1.5919
  259MOL0     H34951   7.192   2.313  -0.070  2.1434 -0.2476  0.0590
  259MOL0     H34952   7.036   2.365  -0.256 -0.6954 -0.7193 -2.5619
  259MOL0     H34953   7.173   2.255  -0.678 -0.8796 -0.3438  0.0991
  259MOL0     H34954   7.039   2.363  -0.689 -1.2354 -0.7418 -1.0694
  259MOL0     H34955   6.984   2.071  -0.664 -1.3367 -2.0996 -2.6496
  259MOL0     H34956   7.044   2.125  -0.810  2.9847  0.9331  1.8821
  259MOL0     H34957   6.806   2.263  -0.692 -0.2625  0.3736  0.6505
  259MOL0     H34958   6.793   2.113  -0.792  3.0193 -1.4584  2.0265
  259MOL0     H34959   6.768   2.334  -0.933  0.1624 -0.5925  1.2606
  259MOL0     H34960   6.938   2.357  -0.903 -0.3317  1.0352  0.6107
  259MOL0     H34961   6.928   2.052  -1.193  3.5038 -0.1635 -0.6205
  259MOL0     H34962   7.261   2.139  -0.536 -1.4124  0.0983  0.0090
  259MOL0     H34963   7.448   1.940  -0.358 -0.8489  0.2105 -0.2201
  259MOL0     H34964   7.440   2.038  -0.497 -3.3992 -0.0320 -0.6531
  259MOL0     H34965   7.546   2.093  -0.359 -0.2611 -0.8273  0.1087
  260MOL0     O34966   8.331   7.307   5.766 -0.9917  0.2501 -0.2157
  260MOL0     C34967   8.242   7.234   5.723 -0.1513 -0.8925 -0.5381
  260MOL0     O34968   8.247   7.104   5.694  0.0514  1.3469 -0.2655
  260MOL0     C34969   8.352   7.028   5.744  0.2774  0.0998 -0.3683
  260MOL0     C34970   8.396   7.027   5.877  0.7820  0.0264 -0.3942
  260MOL0     C34971   8.496   6.938   5.916  0.2190  0.7219  0.0206
  260MOL0     C34972   8.556   6.855   5.818  0.0979 -0.1974 -0.6357
  260MOL0     O34973   8.659   6.771   5.846  0.3615  0.5887  0.0973
  260MOL0     C34974   8.724   6.765   5.968 -0.0407 -0.3701 -0.0202
  260MOL0     C34975   8.826   6.655   5.967 -0.2630  0.1004  0.2309
  260MOL0     C34976   8.768   6.514   5.959  0.2816  0.2077 -0.6241
  260MOL0     C34977   8.888   6.414   5.946  0.3845 -0.1140 -0.1900
  260MOL0     C34978   8.857   6.267   5.917 -0.3697  0.9552 -0.4677
  260MOL0     C34979   8.792   6.249   5.769  0.3536 -0.4081 -0.9380
  260MOL0     C34980   8.790   6.089   5.740  0.4390 -0.2336 -0.8055
  260MOL0     C34981   8.697   6.060   5.626  0.0053 -0.7762  0.8289
  260MOL0     N34982   8.720   5.925   5.568  0.0545 -0.5243  0.4248
  260MOL0     C34983   8.642   5.819   5.577 -1.1369  0.6012 -0.7430
  260MOL0     C34984   8.711   5.712   5.522 -1.0806 -0.4066 -0.7366
  260MOL0     C34985   8.656   5.568   5.510  0.5726 -0.4846  1.1989
  260MOL0     C34986   8.719   5.466   5.608  0.6695  0.4956  0.1741
  260MOL0     C34987   8.862   5.428   5.576  0.2096  0.0736 -0.7304
  260MOL0     C34988   8.900   5.323   5.671 -0.2695  0.2902  0.6117
  260MOL0     O34989   8.819   5.207   5.650  0.2723  1.0046  0.1210
  260MOL0     C34990   8.886   5.091   5.630  0.2388  0.0427  0.3739
  260MOL0     C34991   8.965   5.085   5.515 -0.9379  0.0846 -0.2764
  260MOL0     C34992   9.051   4.980   5.494 -0.1613  0.1297 -0.5336
  260MOL0     C34993   9.048   4.863   5.578  1.0478  0.4350  0.7517
  260MOL0     C34994   9.126   4.742   5.547  0.2201 -1.4971 -0.4719
  260MOL0     O34995   9.164   4.726   5.424 -0.1576 -0.3130 -0.3840
  260MOL0     C34996   9.253   4.628   5.391 -0.2873  0.3132  0.3790
  260MOL0     C34997   9.373   4.678   5.325  0.3036  0.4108 -1.1245
  260MOL0     C34998   9.466   4.589   5.278  0.1005  0.2193  0.4163
  260MOL0     C34999   9.448   4.447   5.293 -0.0539 -0.6788  0.1929
  260MOL0     O35000   9.545   4.364   5.253  0.1312  0.4757  0.3473
  260MOL0     C35001   9.602   4.376   5.122 -0.3779  0.2763 -0.5696
  260MOL0     C35002   9.592   4.250   5.036  0.3474 -0.1835 -0.3179
  260MOL0     C35003   9.654   4.122   5.095  0.2319 -1.0345  0.1950
  260MOL0     C35004   9.706   4.024   4.985  0.2166  0.0784  0.7912
  260MOL0     C35005   9.793   3.910   5.055  0.4379 -0.7697 -0.5971
  260MOL0     C35006   9.864   3.829   4.954 -1.0428  0.4963 -1.1818
  260MOL0     C35007   9.935   3.715   5.032  0.4778 -0.0778 -0.0691
  260MOL0     C35008  10.007   3.610   4.956 -0.5119  0.2087  0.5144
  260MOL0    Cl35009  10.102   3.682   4.815  0.0053  0.3050  0.1663
  260MOL0     C35010   9.339   4.399   5.368  0.1709  0.3979  0.3284
  260MOL0     C35011   9.243   4.491   5.416  0.4036 -1.0562 -0.3713
  260MOL0     O35012   9.155   4.668   5.645 -0.0082 -0.1257  0.2659
  260MOL0     C35013   8.960   4.866   5.688 -0.1747  0.7774  0.4679
  260MOL0     C35014   8.881   4.983   5.713 -0.2087  0.5594 -1.0565
  260MOL0     N35015   8.834   5.759   5.489 -0.9011  0.1857  0.4493
  260MOL0     N35016   8.841   5.881   5.527 -0.0842 -0.7108  0.1079
  260MOL0     C35017   8.513   6.864   5.685  0.3334  0.3128  0.3625
  260MOL0     C35018   8.414   6.949   5.645 -0.1950  0.3418  0.0296
  260MOL0     C35019   8.115   7.300   5.668  0.0153 -0.4586  0.7596
  260MOL0     C35020   8.066   7.253   5.542  0.5662  0.2702  0.7616
  260MOL0     C35021   7.966   7.319   5.467  0.5818 -0.2278  0.5024
  260MOL0     C35022   7.895   7.425   5.526  0.0889 -0.0336  0.1026
  260MOL0     O35023   7.794   7.488   5.448  0.2228  0.1227  0.3151
  260MOL0     C35024   7.749   7.620   5.492 -0.6097 -0.1406  0.6351
  260MOL0     C35025   7.693   7.690   5.372  0.2757 -0.3094  0.1852
  260MOL0     C35026   7.606   7.602   5.273 -0.2980 -0.5137  0.0173
  260MOL0     C35027   7.503   7.698   5.202  0.6159  1.1035  0.0401
  260MOL0     C35028   7.564   7.802   5.115  0.1539 -0.1694  0.7012
  260MOL0     C35029   7.614   7.894   5.054  0.5588  0.7917  0.7777
  260MOL0     C35030   7.941   7.469   5.655 -0.3569  0.1936 -0.1125
  260MOL0     C35031   8.048   7.413   5.725  0.3761  0.3258  0.4609
  260MOL0     C35032   8.088   7.475   5.854 -0.0041  0.4765  0.1056
  260MOL0     H35033   8.343   7.081   5.955  0.3466 -1.3155  0.2651
  260MOL0     H35034   8.517   6.928   6.022 -0.2710 -0.6279  0.0092
  260MOL0     H35035   8.785   6.855   5.978  0.5131 -0.4638 -2.1633
  260MOL0     H35036   8.645   6.747   6.042 -0.3828 -1.2621 -0.5786
  260MOL0     H35037   8.891   6.666   6.055 -1.6651  2.2666  1.0475
  260MOL0     H35038   8.888   6.676   5.879 -0.0355 -1.4290 -0.0122
  260MOL0     H35039   8.689   6.500   5.885  1.5134  3.0250 -2.6669
  260MOL0     H35040   8.718   6.486   6.052  0.9431  1.7559  0.2493
  260MOL0     H35041   8.944   6.453   5.860 -2.2539  2.5744 -0.8754
  260MOL0     H35042   8.951   6.412   6.035 -0.7386  1.1719  0.6773
  260MOL0     H35043   8.953   6.216   5.905 -0.8232  0.3700 -1.7109
  260MOL0     H35044   8.793   6.227   5.997 -1.8913  4.2157  0.1147
  260MOL0     H35045   8.690   6.289   5.779  1.4210  2.6346 -1.0561
  260MOL0     H35046   8.846   6.303   5.691  2.4377 -0.2361  0.5411
  260MOL0     H35047   8.741   6.028   5.816 -0.9369  2.4426  0.6204
  260MOL0     H35048   8.889   6.050   5.717  0.1413 -0.8301 -1.0945
  260MOL0     H35049   8.595   6.063   5.664 -0.0399  1.1700  0.6612
  260MOL0     H35050   8.715   6.137   5.549 -0.6549 -1.1947  0.2450
  260MOL0     H35051   8.542   5.800   5.615 -1.0692  0.2116 -0.7533
  260MOL0     H35052   8.547   5.561   5.521  0.0857  2.1825 -0.7850
  260MOL0     H35053   8.685   5.528   5.412  2.3877  1.9044  0.6750
  260MOL0     H35054   8.722   5.505   5.710  0.9976  0.7318  0.0752
  260MOL0     H35055   8.649   5.382   5.603  0.2669  0.8977 -1.2327
  260MOL0     H35056   8.929   5.512   5.594  0.5645  0.2528 -2.7240
  260MOL0     H35057   8.872   5.398   5.472 -1.9950 -1.6005 -0.5440
  260MOL0     H35058   8.880   5.371   5.767 -2.2560  2.6857 -0.8785
  260MOL0     H35059   9.008   5.309   5.660 -0.4305 -2.0508  1.3745
  260MOL0     H35060   8.966   5.163   5.440 -4.1417 -2.3469 -3.1339
  260MOL0     H35061   9.125   4.991   5.415  1.1300  0.5977  0.6895
  260MOL0     H35062   9.384   4.786   5.318  2.2643  0.2185 -1.6800
  260MOL0     H35063   9.566   4.624   5.254  1.0915 -1.5065  1.7502
  260MOL0     H35064   9.556   4.455   5.063  0.1624  0.4138 -0.8113
  260MOL0     H35065   9.707   4.402   5.137 -0.0108 -0.9874 -0.7920
  260MOL0     H35066   9.486   4.233   5.014  0.5385  0.9284 -2.2576
  260MOL0     H35067   9.637   4.275   4.940 -0.0219 -3.5408 -1.4825
  260MOL0     H35068   9.739   4.160   5.153  0.9768  2.7942 -2.9750
  260MOL0     H35069   9.574   4.068   5.146 -0.0112 -1.3171 -0.4899
  260MOL0     H35070   9.763   4.091   4.919  2.1733  0.0418  2.3440
  260MOL0     H35071   9.626   3.979   4.926  0.0417 -0.4351  1.4125
  260MOL0     H35072   9.717   3.852   5.107 -0.6401  3.1881  2.8152
  260MOL0     H35073   9.863   3.953   5.126 -1.4339 -1.7280  1.9702
  260MOL0     H35074   9.801   3.780   4.880  0.3307 -1.0398 -1.3940
  260MOL0     H35075   9.934   3.897   4.905  2.1045  0.5499  2.8795
  260MOL0     H35076   9.858   3.654   5.081 -0.8221  0.7462 -0.9995
  260MOL0     H35077   9.999   3.754   5.112 -2.6531 -0.3997  2.8463
  260MOL0     H35078  10.066   3.558   5.032  1.8678  2.2391  0.1825
  260MOL0     H35079   9.940   3.532   4.916 -0.7424  0.1755  0.9652
  260MOL0     H35080   9.344   4.291   5.378  1.3534  0.1679 -1.9938
  260MOL0     H35081   9.154   4.451   5.465  1.4449  0.2713  2.9314
  260MOL0     H35082   8.956   4.781   5.756 -0.3566  0.8717  0.5753
  260MOL0     H35083   8.817   4.989   5.801 -0.7671  0.7911 -1.4745
  260MOL0     H35084   8.571   6.802   5.618 -0.5494 -0.9329  0.7232
  260MOL0     H35085   8.379   6.954   5.542  1.1126 -1.4851 -0.5568
  260MOL0     H35086   8.112   7.167   5.494  2.9101  1.2556  1.1147
  260MOL0     H35087   7.936   7.284   5.368  0.8257 -0.2778  0.4465
  260MOL0     H35088   7.837   7.678   5.524 -1.3142  0.8601  0.8133
  260MOL0     H35089   7.670   7.602   5.566 -0.0759 -0.0018  1.2472
  260MOL0     H35090   7.777   7.745   5.328 -0.3630  1.7861  1.4659
  260MOL0     H35091   7.637   7.774   5.414  0.8866  0.3933 -0.3718
  260MOL0     H35092   7.552   7.529   5.333  1.1169 -0.2181  1.7443
  260MOL0     H35093   7.670   7.549   5.201 -0.6715 -0.1785 -0.5691
  260MOL0     H35094   7.441   7.635   5.137  1.5621 -1.1905  1.2481
  260MOL0     H35095   7.436   7.737   5.279  3.2260  1.6304  2.1944
  260MOL0     H35096   7.659   7.984   5.018  1.4270  0.7693  1.7690
  260MOL0     H35097   7.883   7.551   5.695 -1.5770  0.3451 -2.0738
  260MOL0     H35098   8.195   7.466   5.876  0.1079  0.4138 -0.4406
  260MOL0     H35099   8.068   7.583   5.854  0.6586  0.6102  0.5245
  260MOL0     H35100   8.048   7.423   5.941  1.7317 -1.7156 -0.3103
  261MOL0     O35101  10.277   7.892   6.208  0.0481  0.3738 -0.0878
  261MOL0     C35102  10.169   7.903   6.265  0.1496  0.0819 -0.0621
  261MOL0     O35103  10.157   7.961   6.389 -0.0273  0.5432 -0.4896
  261MOL0     C35104  10.268   7.956   6.476 -0.2438  0.6914  0.2858
  261MOL0     C35105  10.295   8.066   6.558  0.1946  0.1375  0.2208
  261MOL0     C35106  10.405   8.070   6.645 -0.7694  0.1176  0.3597
  261MOL0     C35107  10.500   7.957   6.639 -0.0742  0.8266 -1.0194
  261MOL0     O35108  10.609   7.949   6.717  0.4821 -0.4355 -0.4053
  261MOL0     C35109  10.729   7.896   6.662  0.2723 -0.1461  0.3746
  261MOL0     C35110  10.847   7.965   6.729 -0.0082  0.1164  0.5964
  261MOL0     C35111  10.979   7.900   6.676 -0.2261 -0.9808  0.2761
  261MOL0     C35112  11.108   7.958   6.739  0.0032  0.0639 -0.3872
  261MOL0     C35113  11.216   7.854   6.716  0.3136 -0.0151 -0.1979
  261MOL0     C35114  11.343   7.892   6.796 -0.8227  0.1995 -0.0835
  261MOL0     C35115  11.448   7.792   6.757 -0.0416 -0.4917 -1.1407
  261MOL0     C35116  11.584   7.811   6.827  0.5642 -0.1984 -0.6350
  261MOL0     N35117  11.661   7.935   6.797  0.1260 -0.5387 -1.1838
  261MOL0     C35118  11.766   7.981   6.872 -0.1914  0.1076  0.7883
  261MOL0     C35119  11.805   8.097   6.801  0.1255  0.5629 -0.1304
  261MOL0     C35120  11.934   8.173   6.828  0.4088  0.4736 -0.2512
  261MOL0     C35121  11.906   8.282   6.929  0.6396 -0.6008 -0.1574
  261MOL0     C35122  12.036   8.365   6.933 -0.0840 -0.0572 -0.1400
  261MOL0     C35123  12.023   8.461   7.049  0.6893 -0.1299 -0.3949
  261MOL0     O35124  12.136   8.539   7.061 -0.4335 -0.4892 -0.0387
  261MOL0     C35125  12.258   8.476   7.092  0.5282  0.7925  0.5811
  261MOL0     C35126  12.284   8.337   7.128 -0.2400  0.3447 -0.5723
  261MOL0     C35127  12.420   8.295   7.140  0.3377 -0.2625  0.7387
  261MOL0     C35128  12.528   8.384   7.119  0.1756 -0.1629  1.5980
  261MOL0     C35129  12.663   8.345   7.147  0.0030  0.3711 -0.2327
  261MOL0     O35130  12.742   8.446   7.173 -0.2161  0.3580  0.1486
  261MOL0     C35131  12.873   8.436   7.211 -0.1247 -0.2057  0.4610
  261MOL0     C35132  12.926   8.546   7.283  0.4920  0.5900 -0.8753
  261MOL0     C35133  13.050   8.545   7.337  0.7849 -0.9288 -0.3673
  261MOL0     C35134  13.130   8.431   7.324 -0.0590 -0.5946  0.0890
  261MOL0     O35135  13.247   8.427   7.389 -0.0560  0.8402  0.1037
  261MOL0     C35136  13.241   8.448   7.531 -0.2255 -1.0265 -0.5241
  261MOL0     C35137  13.385   8.463   7.591  0.2837 -0.4299 -0.4318
  261MOL0     C35138  13.392   8.497   7.743  0.1321  0.8319 -1.1859
  261MOL0     C35139  13.534   8.554   7.761  0.4156 -1.5551 -0.6355
  261MOL0     C35140  13.587   8.560   7.903 -0.1297 -0.3733  0.1836
  261MOL0     C35141  13.734   8.570   7.904 -0.3146  0.4125 -0.0022
  261MOL0     C35142  13.797   8.611   8.034 -0.7884  0.1479  0.4435
  261MOL0     C35143  13.941   8.574   8.052  0.1164 -0.3388  1.1526
  261MOL0    Cl35144  13.991   8.400   8.057  0.4951 -0.2789 -0.2146
  261MOL0     C35145  13.089   8.315   7.255  0.7755 -0.4220  0.2345
  261MOL0     C35146  12.963   8.328   7.189 -0.1175  0.6007 -0.5045
  261MOL0     O35147  12.684   8.230   7.162 -0.1958  0.6170 -0.1266
  261MOL0     C35148  12.500   8.510   7.087  0.5477 -0.5549 -1.0053
  261MOL0     C35149  12.368   8.558   7.077  0.5864 -0.5884  0.5067
  261MOL0     N35150  11.717   8.122   6.700 -1.1000  1.2181  0.2391
  261MOL0     N35151  11.635   8.024   6.700 -0.9996 -0.6278  0.8825
  261MOL0     C35152  10.462   7.841   6.567  0.5270 -0.2213 -0.3237
  261MOL0     C35153  10.347   7.835   6.488  0.3818  0.0884 -0.6193
  261MOL0     C35154  10.047   7.867   6.184 -0.7160 -0.3087 -0.6870
  261MOL0     C35155   9.936   7.942   6.207 -0.0497 -0.1670  0.0136
  261MOL0     C35156   9.825   7.930   6.126  1.1977 -0.1765 -0.3158
  261MOL0     C35157   9.818   7.839   6.022  1.1115  0.2976  0.1405
  261MOL0     O35158   9.702   7.819   5.950  0.7641  0.1124  0.2329
  261MOL0     C35159   9.682   7.681   5.896  0.1966  0.2034 -0.3692
  261MOL0     C35160   9.542   7.660   5.840 -0.7448 -0.2594 -0.1809
  261MOL0     C35161   9.505   7.760   5.720 -0.5456 -0.7504  0.4842
  261MOL0     C35162   9.357   7.770   5.665  0.4641  0.8523 -0.6913
  261MOL0     C35163   9.309   7.636   5.638 -0.0908  0.2427  0.3734
  261MOL0     C35164   9.245   7.541   5.604  0.1223  0.7417 -0.1446
  261MOL0     C35165   9.932   7.767   5.994  0.6082 -0.1982  0.1163
  261MOL0     C35166  10.050   7.780   6.074  0.5471  1.3476 -0.6887
  261MOL0     C35167  10.184   7.698   6.037  0.8855 -0.0456  0.1156
  261MOL0     H35168  10.225   8.149   6.554 -0.5450 -0.5290 -1.5512
  261MOL0     H35169  10.430   8.150   6.713  1.3167 -0.8926  0.8454
  261MOL0     H35170  10.730   7.788   6.681  1.6429 -0.2510 -0.2315
  261MOL0     H35171  10.719   7.913   6.554  1.9253  0.6069  0.3112
  261MOL0     H35172  10.844   7.956   6.838 -2.6745  1.5188  0.7117
  261MOL0     H35173  10.833   8.069   6.697 -2.2407  0.0184  1.1120
  261MOL0     H35174  10.980   7.913   6.568 -3.3054 -0.7377  0.1963
  261MOL0     H35175  10.968   7.793   6.699 -0.6746 -0.6546  1.7060
  261MOL0     H35176  11.143   8.056   6.706  0.9199  0.2478  1.0365
  261MOL0     H35177  11.104   7.958   6.849  1.5279 -0.5255 -0.3100
  261MOL0     H35178  11.179   7.756   6.749 -1.2993 -0.1387 -2.1455
  261MOL0     H35179  11.235   7.852   6.608  0.8429  2.9174 -0.2427
  261MOL0     H35180  11.388   7.990   6.774  2.1891 -0.8080  1.0637
  261MOL0     H35181  11.319   7.897   6.903  0.8917  1.6668  0.2859
  261MOL0     H35182  11.466   7.792   6.649  1.6084 -1.9968 -0.9089
  261MOL0     H35183  11.410   7.695   6.789  2.8060 -1.0722  0.8360
  261MOL0     H35184  11.566   7.819   6.935  0.7110 -1.5471 -0.4829
  261MOL0     H35185  11.648   7.724   6.807 -0.4009 -0.7909 -1.1966
  261MOL0     H35186  11.821   7.953   6.961 -0.7714  4.8407  2.9507
  261MOL0     H35187  12.009   8.097   6.852  1.1887 -0.3629 -4.5549
  261MOL0     H35188  11.962   8.220   6.733 -1.2148 -0.9378 -1.4967
  261MOL0     H35189  11.820   8.342   6.897  1.8825  1.0925 -0.4641
  261MOL0     H35190  11.878   8.239   7.025 -0.0034 -2.1015 -0.9775
  261MOL0     H35191  12.067   8.424   6.847  0.8867 -0.8195 -0.3294
  261MOL0     H35192  12.113   8.288   6.938 -0.1047 -0.0518  0.3168
  261MOL0     H35193  12.004   8.403   7.140  1.1784 -0.3682 -0.4380
  261MOL0     H35194  11.938   8.527   7.031  0.7384  0.6294  1.8624
  261MOL0     H35195  12.201   8.268   7.137 -1.7650  2.1596  0.0857
  261MOL0     H35196  12.435   8.187   7.133  0.0448 -0.1935 -3.2651
  261MOL0     H35197  12.851   8.623   7.295 -2.6853 -2.5392  1.8111
  261MOL0     H35198  13.081   8.633   7.394  0.6783  0.2220 -2.0204
  261MOL0     H35199  13.196   8.544   7.557  0.4509 -0.4504 -1.4151
  261MOL0     H35200  13.182   8.370   7.579 -1.1804  1.3711  2.4990
  261MOL0     H35201  13.439   8.369   7.575  1.7437  0.1365  0.8404
  261MOL0     H35202  13.439   8.535   7.528  2.7973  0.4765  2.4878
  261MOL0     H35203  13.322   8.577   7.771 -0.3966  0.1591 -0.5548
  261MOL0     H35204  13.384   8.410   7.809  0.0958 -0.3277 -2.6638
  261MOL0     H35205  13.525   8.659   7.730  0.0944 -1.0490  1.0669
  261MOL0     H35206  13.602   8.503   7.692 -0.0023 -1.4034 -1.1681
  261MOL0     H35207  13.566   8.467   7.958  1.0738 -0.0329  1.2622
  261MOL0     H35208  13.537   8.643   7.954 -0.9916 -0.4980 -0.4305
  261MOL0     H35209  13.771   8.470   7.882  1.8146  1.3321 -0.8693
  261MOL0     H35210  13.767   8.631   7.819 -0.5911 -0.6140 -0.8728
  261MOL0     H35211  13.738   8.584   8.122 -0.4288  1.7078  1.2153
  261MOL0     H35212  13.801   8.721   8.031  1.5162  0.0987  0.0358
  261MOL0     H35213  13.989   8.628   7.970 -2.5748  0.1887 -0.1665
  261MOL0     H35214  13.980   8.620   8.143 -1.6104 -1.0647  2.3113
  261MOL0     H35215  13.145   8.222   7.256  2.3244  0.4880  0.1771
  261MOL0     H35216  12.934   8.236   7.140 -0.4265  1.0447 -1.1749
  261MOL0     H35217  12.580   8.584   7.079  0.8151 -0.8665 -1.2683
  261MOL0     H35218  12.348   8.656   7.037 -2.6638 -1.0513  0.7723
  261MOL0     H35219  10.516   7.748   6.567 -1.2225 -1.2942 -1.3919
  261MOL0     H35220  10.339   7.747   6.425 -2.8621  0.4024 -0.8264
  261MOL0     H35221   9.947   8.023   6.279 -0.7828  0.1442 -0.2141
  261MOL0     H35222   9.738   7.994   6.134 -0.2313 -1.7563 -2.1989
  261MOL0     H35223   9.694   7.612   5.981  1.3505  0.0860 -0.6033
  261MOL0     H35224   9.753   7.655   5.816 -0.6260  2.3210 -1.8813
  261MOL0     H35225   9.477   7.700   5.918 -0.6534 -1.9139  0.7773
  261MOL0     H35226   9.512   7.560   5.810 -2.6362  0.4545 -0.8505
  261MOL0     H35227   9.566   7.730   5.634 -2.6984  0.5344 -1.6183
  261MOL0     H35228   9.526   7.860   5.758 -0.4901 -1.6534  2.9678
  261MOL0     H35229   9.294   7.809   5.745 -0.9616 -0.9910 -0.8323
  261MOL0     H35230   9.350   7.826   5.571 -1.6279 -1.1164 -1.8216
  261MOL0     H35231   9.187   7.451   5.594  3.3796 -1.5779  0.4766
  261MOL0     H35232   9.935   7.701   5.908 -2.5323  1.4628 -1.4057
  261MOL0     H35233  10.163   7.603   5.988  2.5571  1.1526 -3.2462
  261MOL0     H35234  10.244   7.759   5.969  0.1357 -0.7409 -1.2061
  261MOL0     H35235  10.245   7.667   6.123  0.8177 -0.2350  0.0955
  262MOL0     O35236   4.873   6.531  11.067  0.3830 -0.4538  0.1629
  262MOL0     C35237   4.826   6.640  11.044  0.0882 -0.2357 -0.0092
  262MOL0     O35238   4.891   6.734  10.971  0.3888  0.3294 -0.0465
  262MOL0     C35239   5.028   6.733  10.970  0.3984 -0.1470 -0.3699
  262MOL0     C35240   5.094   6.760  10.847 -0.3706  0.0452  0.7248
  262MOL0     C35241   5.237   6.763  10.843 -0.2277 -0.2810  0.9922
  262MOL0     C35242   5.305   6.725  10.960  0.9024  0.1495 -0.0572
  262MOL0     O35243   5.439   6.719  10.946  0.2145 -0.5248  0.6116
  262MOL0     C35244   5.519   6.638  11.034  0.5296  0.3346 -0.4992
  262MOL0     C35245   5.564   6.725  11.157 -0.1801 -0.1652  0.0275
  262MOL0     C35246   5.698   6.804  11.140 -0.3909  0.9244 -0.3826
  262MOL0     C35247   5.733   6.886  11.266  0.0232 -0.0196 -0.9301
  262MOL0     C35248   5.840   6.989  11.220 -0.0984  0.6631  1.0872
  262MOL0     C35249   5.977   6.943  11.196 -0.5381  0.7360 -0.2884
  262MOL0     C35250   6.025   6.827  11.293 -0.7024 -0.1833  0.9375
  262MOL0     C35251   6.174   6.795  11.278 -0.0997  0.2042 -0.0282
  262MOL0     N35252   6.253   6.892  11.355 -0.1520  0.6895 -0.5234
  262MOL0     C35253   6.316   6.996  11.293  0.8519  0.5279  0.6176
  262MOL0     C35254   6.379   7.065  11.385  0.3263 -0.1341 -0.3977
  262MOL0     C35255   6.439   7.202  11.378 -1.1170  0.3940  0.6563
  262MOL0     C35256   6.497   7.255  11.518  0.8160  0.2197  0.0438
  262MOL0     C35257   6.584   7.381  11.497 -0.2733  0.5722  0.7203
  262MOL0     C35258   6.725   7.339  11.467  0.2926 -0.1956  1.2117
  262MOL0     O35259   6.798   7.453  11.433  0.5710 -0.5333  0.0676
  262MOL0     C35260   6.922   7.434  11.385 -0.0240  0.2889 -0.0337
  262MOL0     C35261   6.983   7.310  11.369 -0.3425 -0.2855  0.5683
  262MOL0     C35262   7.109   7.310  11.329 -0.3849  0.5187 -0.6412
  262MOL0     C35263   7.187   7.425  11.310  0.2787  0.5128 -0.8174
  262MOL0     C35264   7.341   7.417  11.282 -0.5840  0.1260  0.8196
  262MOL0     O35265   7.392   7.532  11.240 -0.5007  0.9295 -0.6818
  262MOL0     C35266   7.530   7.537  11.223  0.4207  0.3343  0.1399
  262MOL0     C35267   7.610   7.607  11.315 -0.1805 -0.2189  0.0460
  262MOL0     C35268   7.750   7.631  11.285  0.9041 -0.5586 -0.3565
  262MOL0     C35269   7.813   7.578  11.172 -0.4293  0.7805  0.2296
  262MOL0     O35270   7.950   7.603  11.162  0.2804 -0.3114  0.0808
  262MOL0     C35271   8.043   7.535  11.075 -0.6441  0.9720 -1.1501
  262MOL0     C35272   8.176   7.600  11.072 -0.5399 -0.6770 -0.3189
  262MOL0     C35273   8.249   7.615  11.205 -0.4178 -0.1752  0.1590
  262MOL0     C35274   8.344   7.740  11.194  0.8729  1.4412 -0.2822
  262MOL0     C35275   8.466   7.720  11.277  0.3217  0.4527 -0.5781
  262MOL0     C35276   8.576   7.823  11.251  0.4803  0.1650 -0.4974
  262MOL0     C35277   8.548   7.958  11.328  0.0716 -0.1384  0.1994
  262MOL0     C35278   8.671   8.047  11.341  0.0945  1.2747 -0.6424
  262MOL0    Cl35279   8.778   7.971  11.475 -0.4710 -0.2704 -0.0579
  262MOL0     C35280   7.735   7.508  11.084  0.1549  0.8891  1.0589
  262MOL0     C35281   7.593   7.496  11.101  0.2984  0.7366 -0.0808
  262MOL0     O35282   7.408   7.318  11.316  0.3152 -0.1086 -0.3049
  262MOL0     C35283   7.125   7.546  11.331 -0.4514 -0.6591 -0.3213
  262MOL0     C35284   6.996   7.553  11.367  0.1603  0.5824  0.4948
  262MOL0     N35285   6.355   7.006  11.507  0.1301 -0.4893  0.0902
  262MOL0     N35286   6.279   6.903  11.489 -0.0215 -0.8060  0.1817
  262MOL0     C35287   5.236   6.692  11.077  0.7025  0.4338 -0.5791
  262MOL0     C35288   5.101   6.700  11.081  0.2648  0.6160 -0.8818
  262MOL0     C35289   4.688   6.671  11.080 -1.0104  0.1567  0.2218
  262MOL0     C35290   4.613   6.574  11.155  0.1122 -0.1818 -0.0466
  262MOL0     C35291   4.476   6.595  11.177  0.0020 -0.4681 -0.3699
  262MOL0     C35292   4.405   6.717  11.132  0.5360 -0.2080  0.1429
  262MOL0     O35293   4.269   6.748  11.153 -0.5076  0.6144 -0.4990
  262MOL0     C35294   4.199   6.674  11.248 -0.1228 -0.4857  0.2821
  262MOL0     C35295   4.049   6.715  11.255 -0.5463 -0.3745  0.4424
  262MOL0     C35296   3.986   6.706  11.106 -0.7817 -0.1928 -0.4479
  262MOL0     C35297   3.840   6.745  11.117  0.4479 -0.1479  0.4064
  262MOL0     C35298   3.775   6.737  10.989 -0.3413  0.1646  0.0984
  262MOL0     C35299   3.722   6.733  10.882 -0.0537 -0.4850  0.1377
  262MOL0     C35300   4.486   6.812  11.069 -0.3597  0.0676  0.5280
  262MOL0     C35301   4.618   6.790  11.035 -1.2211 -0.5108  0.3432
  262MOL0     C35302   4.681   6.912  10.973 -0.3421 -0.0844  0.5874
  262MOL0     H35303   5.041   6.792  10.758  1.9031 -0.5482 -0.9204
  262MOL0     H35304   5.295   6.789  10.755  3.1401 -2.5213  2.3222
  262MOL0     H35305   5.465   6.549  11.067 -1.0965  1.8025  1.0218
  262MOL0     H35306   5.608   6.596  10.987 -1.8442 -1.0074 -4.2469
  262MOL0     H35307   5.588   6.650  11.234 -3.7762 -2.3791 -0.7615
  262MOL0     H35308   5.474   6.782  11.184  0.0738 -0.1866  0.9771
  262MOL0     H35309   5.682   6.878  11.061  0.1322  0.8482 -0.5644
  262MOL0     H35310   5.774   6.732  11.106 -0.0961 -0.2016  2.4077
  262MOL0     H35311   5.638   6.914  11.314 -0.7493 -4.5635  0.7638
  262MOL0     H35312   5.772   6.825  11.349 -1.3833  3.6711  2.8189
  262MOL0     H35313   5.817   7.060  11.140  0.4308  0.8503  1.0946
  262MOL0     H35314   5.843   7.046  11.314 -0.4391 -0.6052  1.8895
  262MOL0     H35315   6.001   6.923  11.091 -1.2701 -0.8041 -0.1948
  262MOL0     H35316   6.035   7.030  11.229 -0.5690  0.5966  0.1422
  262MOL0     H35317   5.965   6.738  11.271 -0.6878  0.1060 -0.3773
  262MOL0     H35318   6.003   6.848  11.398  1.0268  2.1075  0.9231
  262MOL0     H35319   6.182   6.697  11.324 -1.7646 -1.2187 -2.5558
  262MOL0     H35320   6.208   6.785  11.174 -1.0509  0.0321 -0.3356
  262MOL0     H35321   6.326   7.021  11.188  1.7262 -4.0736 -0.6354
  262MOL0     H35322   6.513   7.204  11.297 -1.8069  0.5796  0.0164
  262MOL0     H35323   6.360   7.271  11.347  0.9028  2.5220 -0.0948
  262MOL0     H35324   6.418   7.262  11.593 -2.3741 -0.7894 -2.9486
  262MOL0     H35325   6.558   7.185  11.575 -0.1904  2.3203  4.0741
  262MOL0     H35326   6.581   7.433  11.594 -2.5945  0.6002  0.6742
  262MOL0     H35327   6.544   7.443  11.417  0.5575  0.2721  0.0615
  262MOL0     H35328   6.724   7.290  11.369  1.8859  3.0492 -0.5897
  262MOL0     H35329   6.772   7.269  11.536 -0.1481 -0.3862  1.3250
  262MOL0     H35330   6.934   7.213  11.367 -1.5158  0.2455  1.7354
  262MOL0     H35331   7.155   7.211  11.329 -2.2771 -0.5009  2.2236
  262MOL0     H35332   7.571   7.630  11.414  0.3442 -0.7631  0.3845
  262MOL0     H35333   7.805   7.692  11.356 -1.0925  0.9168  0.0316
  262MOL0     H35334   8.056   7.435  11.118  1.5098  2.1995  1.3798
  262MOL0     H35335   8.009   7.525  10.971  0.6613 -0.2213 -1.4955
  262MOL0     H35336   8.246   7.538  11.015  2.4343  0.7297  1.5111
  262MOL0     H35337   8.163   7.698  11.025  1.4398 -0.8585 -1.3705
  262MOL0     H35338   8.180   7.644  11.284 -0.2761  3.2337 -0.8423
  262MOL0     H35339   8.297   7.519  11.230 -0.3796 -0.1524  0.1729
  262MOL0     H35340   8.287   7.830  11.221  0.8492  1.6833 -1.1307
  262MOL0     H35341   8.371   7.745  11.089  2.2488 -0.4353 -0.0755
  262MOL0     H35342   8.508   7.622  11.251  1.6999  0.7299  0.4259
  262MOL0     H35343   8.441   7.710  11.383 -2.1867 -1.9965 -1.2982
  262MOL0     H35344   8.665   7.776  11.295  0.8319  1.0974 -0.1889
  262MOL0     H35345   8.590   7.840  11.144  1.5523  2.9949 -0.0025
  262MOL0     H35346   8.513   7.931  11.428  0.2518  3.1292  1.2547
  262MOL0     H35347   8.466   8.010  11.277 -0.6869  1.3765  2.7498
  262MOL0     H35348   8.730   8.046  11.249  0.1309 -1.7638 -0.7105
  262MOL0     H35349   8.633   8.148  11.361 -0.9379  0.8715 -0.4924
  262MOL0     H35350   7.768   7.473  10.987 -1.0628  0.2360  0.8701
  262MOL0     H35351   7.537   7.447  11.022 -2.0640  3.8596 -0.5753
  262MOL0     H35352   7.179   7.640  11.325 -0.1695 -0.5767  2.5551
  262MOL0     H35353   6.945   7.649  11.371  0.3337  0.6416  1.9524
  262MOL0     H35354   5.292   6.665  11.166 -0.7648 -0.4338  0.1202
  262MOL0     H35355   5.064   6.687  11.182 -1.1533  0.8327 -1.3554
  262MOL0     H35356   4.656   6.478  11.184 -0.3110 -0.1912  0.5805
  262MOL0     H35357   4.423   6.517  11.231 -0.0109 -0.6006 -0.5699
  262MOL0     H35358   4.240   6.691  11.348 -1.3015 -1.3573  0.9391
  262MOL0     H35359   4.197   6.567  11.229  1.3252 -0.3949 -0.4730
  262MOL0     H35360   4.028   6.813  11.298 -0.7043 -1.2941  2.5725
  262MOL0     H35361   4.003   6.645  11.325 -1.9347 -0.2304 -0.2875
  262MOL0     H35362   4.011   6.608  11.064 -0.6355  0.5202 -2.0772
  262MOL0     H35363   4.026   6.779  11.036 -1.2328  1.6287  1.1071
  262MOL0     H35364   3.784   6.674  11.180  2.2225 -1.2744  0.7785
  262MOL0     H35365   3.819   6.839  11.168 -0.0734 -1.7111  3.2953
  262MOL0     H35366   3.676   6.735  10.785 -3.6376  0.7955  1.6879
  262MOL0     H35367   4.441   6.905  11.036  0.2019  0.6601  1.3910
  262MOL0     H35368   4.750   6.957  11.045 -2.0018  3.1544  0.3007
  262MOL0     H35369   4.724   6.882  10.877 -2.3033 -1.0129 -0.0540
  262MOL0     H35370   4.617   6.999  10.957  2.4083  2.1270  0.7605
  263MOL0     O35371   1.710   8.010   0.220  0.6224 -0.5007  0.0080
  263MOL0     C35372   1.715   7.904   0.284 -0.1223 -0.1111  0.0441
  263MOL0     O35373   1.802   7.883   0.390 -0.5681  0.4946  0.3379
  263MOL0     C35374   1.847   7.995   0.449 -0.4221  0.2813  0.5561
  263MOL0     C35375   1.986   8.035   0.436 -0.0936  0.4933 -0.2359
  263MOL0     C35376   2.042   8.130   0.523  0.6031  0.3846  0.3684
  263MOL0     C35377   1.953   8.206   0.609 -0.6257 -0.5168 -0.2653
  263MOL0     O35378   1.999   8.305   0.689  0.5092  0.4064 -0.3879
  263MOL0     C35379   2.133   8.350   0.680 -0.4615 -1.7152 -0.1323
  263MOL0     C35380   2.148   8.478   0.765 -0.3919 -0.6449 -0.0940
  263MOL0     C35381   2.301   8.520   0.773  0.3207  0.4415  0.4419
  263MOL0     C35382   2.319   8.602   0.903  0.9693  0.8221  0.1148
  263MOL0     C35383   2.472   8.639   0.896  1.1131  0.6919 -0.8180
  263MOL0     C35384   2.498   8.759   0.993 -0.0062  0.5439  0.7407
  263MOL0     C35385   2.633   8.822   0.980 -0.1884  0.3959 -0.2233
  263MOL0     C35386   2.737   8.708   1.024 -0.4441  0.2092 -0.0909
  263MOL0     N35387   2.874   8.745   0.973  0.1469  0.2013 -0.1279
  263MOL0     C35388   2.973   8.657   0.941 -0.0891  0.7266 -0.0668
  263MOL0     C35389   3.080   8.743   0.928 -0.8360  1.0399  0.2938
  263MOL0     C35390   3.212   8.711   0.873  0.8614  1.1248  0.9809
  263MOL0     C35391   3.311   8.674   0.973  0.0761  0.4345  0.0469
  263MOL0     C35392   3.441   8.612   0.916  0.7824 -0.1601 -0.2736
  263MOL0     C35393   3.514   8.694   0.815 -0.9102 -1.0752  0.3200
  263MOL0     O35394   3.587   8.798   0.880 -0.0393 -0.1062 -0.7068
  263MOL0     C35395   3.722   8.790   0.878 -0.7114  0.4011  0.2085
  263MOL0     C35396   3.791   8.675   0.919  0.2494 -0.3111  0.2137
  263MOL0     C35397   3.933   8.674   0.931  1.0370  0.2209  0.3363
  263MOL0     C35398   4.009   8.784   0.895 -0.5976 -0.0619 -0.7399
  263MOL0     C35399   4.159   8.790   0.896 -0.0301  0.8578 -0.3487
  263MOL0     O35400   4.223   8.894   0.844  0.3139  0.6283  0.2387
  263MOL0     C35401   4.358   8.886   0.840  0.2134 -0.1930 -0.7974
  263MOL0     C35402   4.448   8.853   0.946  0.0712  0.1887  0.2684
  263MOL0     C35403   4.586   8.865   0.933  0.1104  0.3592  0.1665
  263MOL0     C35404   4.634   8.913   0.809 -0.5061  0.2119 -0.2834
  263MOL0     O35405   4.764   8.947   0.789 -0.2000 -0.5476 -0.7933
  263MOL0     C35406   4.858   8.911   0.895  0.2123 -0.5573 -0.0168
  263MOL0     C35407   5.003   8.924   0.849  0.1120  1.2601  1.6344
  263MOL0     C35408   5.034   8.903   0.701 -0.4900 -0.2999  0.4978
  263MOL0     C35409   5.180   8.949   0.659  0.2928  0.6073  0.8527
  263MOL0     C35410   5.227   8.889   0.522 -0.2929  0.4674  0.4530
  263MOL0     C35411   5.370   8.933   0.490 -0.3778 -0.4394 -0.1085
  263MOL0     C35412   5.397   8.907   0.341 -0.2306 -0.6616  0.9194
  263MOL0     C35413   5.529   8.971   0.288  0.7997 -0.3282  0.8053
  263MOL0    Cl35414   5.659   8.878   0.364 -0.0006 -0.1875  0.2321
  263MOL0     C35415   4.549   8.940   0.705  0.0091  0.3319 -0.1096
  263MOL0     C35416   4.409   8.932   0.720 -0.2970  0.2564 -0.4893
  263MOL0     O35417   4.216   8.700   0.962 -0.0869 -0.2513  0.2281
  263MOL0     C35418   3.936   8.902   0.844  0.0874 -0.4663  0.2454
  263MOL0     C35419   3.795   8.899   0.839 -0.5432 -0.2658 -0.2045
  263MOL0     N35420   3.044   8.869   0.964 -0.0128 -1.2319  0.3662
  263MOL0     N35421   2.922   8.869   0.995  0.0908 -0.5131  0.2012
  263MOL0     C35422   1.822   8.166   0.622  0.6264  1.2556 -0.2381
  263MOL0     C35423   1.775   8.058   0.543 -0.4613 -0.0677  0.1071
  263MOL0     C35424   1.625   7.790   0.252 -0.0398 -0.0348 -0.4788
  263MOL0     C35425   1.641   7.666   0.320  0.5519 -1.0995 -0.2368
  263MOL0     C35426   1.542   7.565   0.302 -0.5119  0.1528  0.2460
  263MOL0     C35427   1.436   7.589   0.219  0.6243 -0.1390  0.4923
  263MOL0     O35428   1.342   7.496   0.200 -0.5625  0.4610 -0.5041
  263MOL0     C35429   1.261   7.472   0.314 -0.5897  0.4000 -0.5107
  263MOL0     C35430   1.152   7.566   0.333  0.0220 -0.7390  0.0841
  263MOL0     C35431   1.037   7.557   0.226  0.0233 -0.0266  0.2928
  263MOL0     C35432   0.918   7.644   0.265  0.0049  0.8456  0.4677
  263MOL0     C35433   0.792   7.604   0.196  0.4890  0.2940 -0.0526
  263MOL0     C35434   0.708   7.557   0.124  0.8891 -0.4953  0.5349
  263MOL0     C35435   1.414   7.711   0.162 -0.2565  0.3576  0.8168
  263MOL0     C35436   1.504   7.809   0.169  0.0821  0.3675 -0.8583
  263MOL0     C35437   1.454   7.933   0.102 -0.6895  0.3694  0.0159
  263MOL0     H35438   2.041   8.000   0.349 -2.7593 -1.7501 -1.1373
  263MOL0     H35439   2.147   8.155   0.533  1.1137 -1.0118 -1.1534
  263MOL0     H35440   2.213   8.282   0.713  0.1261 -1.2167 -0.5112
  263MOL0     H35441   2.152   8.372   0.575  1.3511 -2.1704  0.0691
  263MOL0     H35442   2.119   8.459   0.868  1.8435  1.7895  1.1042
  263MOL0     H35443   2.083   8.561   0.735  2.0620  1.9081  1.1406
  263MOL0     H35444   2.333   8.576   0.685 -0.5296 -1.7002 -1.3348
  263MOL0     H35445   2.368   8.433   0.783 -1.4237 -1.1627 -1.0800
  263MOL0     H35446   2.262   8.695   0.898  1.5969  1.2264  0.3236
  263MOL0     H35447   2.288   8.556   0.997  0.4989 -0.5011 -0.6752
  263MOL0     H35448   2.520   8.544   0.923 -1.5911 -0.4179  0.5606
  263MOL0     H35449   2.502   8.672   0.797  0.0431 -1.5385 -1.9695
  263MOL0     H35450   2.415   8.830   0.981 -1.7609 -1.2449  1.6827
  263MOL0     H35451   2.486   8.724   1.096 -0.6177  1.9690  1.1846
  263MOL0     H35452   2.640   8.913   1.040  1.4971  1.5616 -2.0856
  263MOL0     H35453   2.655   8.847   0.877  0.2289 -2.5354 -0.9469
  263MOL0     H35454   2.729   8.714   1.133 -0.0753  0.5864 -0.0823
  263MOL0     H35455   2.724   8.608   0.982  0.7327  0.5109 -1.2324
  263MOL0     H35456   2.968   8.550   0.923 -1.9908  0.6818  0.4671
  263MOL0     H35457   3.207   8.626   0.805  0.3938  1.0582  1.0935
  263MOL0     H35458   3.255   8.795   0.817  2.2009 -1.2026 -1.6972
  263MOL0     H35459   3.343   8.761   1.032  3.2954 -0.6086  0.0597
  263MOL0     H35460   3.264   8.613   1.051  1.6995  2.1733  2.5542
  263MOL0     H35461   3.423   8.515   0.868  1.0905 -0.2704 -0.1680
  263MOL0     H35462   3.513   8.602   0.998 -0.6249 -1.7971  0.8275
  263MOL0     H35463   3.441   8.738   0.747 -0.6626  0.9389  1.2868
  263MOL0     H35464   3.584   8.640   0.750 -0.4541 -1.8772  1.4425
  263MOL0     H35465   3.739   8.587   0.955  1.8925 -0.5536  2.1963
  263MOL0     H35466   3.986   8.584   0.960  1.6673  1.1471  2.1816
  263MOL0     H35467   4.403   8.818   1.038 -1.3674 -1.1235 -0.8622
  263MOL0     H35468   4.648   8.848   1.020  0.7688  0.1609 -0.3317
  263MOL0     H35469   4.844   8.954   0.995 -1.7318  1.3327 -1.0366
  263MOL0     H35470   4.851   8.804   0.917  0.2456 -0.2044  1.9389
  263MOL0     H35471   5.034   9.026   0.871 -0.7386  2.1186 -0.7774
  263MOL0     H35472   5.066   8.857   0.909  1.5863  0.2269 -0.8869
  263MOL0     H35473   5.031   8.796   0.681  1.5087 -0.9803  3.2332
  263MOL0     H35474   4.958   8.942   0.632  0.8981 -0.9684 -1.5006
  263MOL0     H35475   5.257   8.915   0.730  4.2482 -0.4254 -3.4416
  263MOL0     H35476   5.192   9.058   0.658 -0.0647  0.6519 -0.1662
  263MOL0     H35477   5.163   8.932   0.444 -1.4447 -2.8713 -0.6305
  263MOL0     H35478   5.214   8.780   0.527 -3.1535  0.7018  0.1059
  263MOL0     H35479   5.372   9.037   0.523  2.7328 -0.5097  0.2924
  263MOL0     H35480   5.431   8.865   0.551 -1.5298 -2.1611 -0.7989
  263MOL0     H35481   5.320   8.955   0.280  0.3918  1.2971  1.6160
  263MOL0     H35482   5.393   8.800   0.316  1.7133 -0.3627 -1.0384
  263MOL0     H35483   5.545   8.944   0.183  1.1196  1.7802  0.2813
  263MOL0     H35484   5.542   9.079   0.298 -0.4751 -0.0125 -0.5484
  263MOL0     H35485   4.589   8.980   0.612 -1.4514 -0.5551 -1.1741
  263MOL0     H35486   4.334   8.955   0.645 -2.4806 -1.9061  0.8891
  263MOL0     H35487   3.990   8.991   0.814 -1.7295  0.2394 -1.1482
  263MOL0     H35488   3.729   8.979   0.804  1.0037  2.8712  3.4104
  263MOL0     H35489   1.752   8.203   0.696  0.9422  0.9107  0.2366
  263MOL0     H35490   1.670   8.034   0.554 -1.0355  2.7811  2.1206
  263MOL0     H35491   1.722   7.647   0.390 -0.8928  2.3948  2.7754
  263MOL0     H35492   1.559   7.473   0.358  1.2372 -0.8263 -1.7531
  263MOL0     H35493   1.314   7.464   0.410 -0.8066 -0.5869 -0.4578
  263MOL0     H35494   1.213   7.378   0.286 -1.3512  0.3716  0.7843
  263MOL0     H35495   1.186   7.668   0.353  3.1418 -1.5834 -0.3594
  263MOL0     H35496   1.102   7.529   0.424 -3.5518 -0.6024 -1.6372
  263MOL0     H35497   0.998   7.455   0.232  0.0762 -0.0010  1.2428
  263MOL0     H35498   1.079   7.563   0.126 -0.5349 -3.9772 -0.3301
  263MOL0     H35499   0.897   7.636   0.372  0.3199 -2.5266  0.4042
  263MOL0     H35500   0.951   7.747   0.250  1.8503  0.2577  0.2611
  263MOL0     H35501   0.635   7.499   0.070  1.1039  0.0900 -0.3994
  263MOL0     H35502   1.325   7.717   0.101  0.1422 -2.7532 -0.2646
  263MOL0     H35503   1.354   7.922   0.061  0.6499 -1.2563 -3.1634
  263MOL0     H35504   1.456   8.007   0.183  0.5655  1.5353 -1.0314
  263MOL0     H35505   1.516   7.965   0.018  1.3816  1.3275  1.8067
  264MOL0     O35506   1.492   4.305   6.445  0.7125 -0.3746 -0.6104
  264MOL0     C35507   1.472   4.421   6.480  0.0485  0.2217  0.9169
  264MOL0     O35508   1.567   4.516   6.492  0.0238  0.1331  0.8819
  264MOL0     C35509   1.687   4.496   6.439 -0.1838  0.0307 -0.1556
  264MOL0     C35510   1.732   4.543   6.314  0.6149  0.3457  0.2160
  264MOL0     C35511   1.855   4.506   6.267 -0.8233 -0.0091  0.2532
  264MOL0     C35512   1.946   4.434   6.348 -0.5026 -0.0433  0.0488
  264MOL0     O35513   2.070   4.398   6.302 -0.1163  0.2630  0.6384
  264MOL0     C35514   2.135   4.504   6.227 -0.3816  0.1633 -0.5212
  264MOL0     C35515   2.285   4.488   6.235 -0.6526 -0.5721  0.7524
  264MOL0     C35516   2.330   4.366   6.144  0.4840  0.2815 -1.0049
  264MOL0     C35517   2.481   4.370   6.145  0.1678  1.5436 -0.1516
  264MOL0     C35518   2.555   4.238   6.103  0.1951  0.3013  0.4200
  264MOL0     C35519   2.700   4.250   6.139 -1.2812  0.1397  0.3664
  264MOL0     C35520   2.773   4.122   6.101  0.0927  0.1582  0.4914
  264MOL0     C35521   2.925   4.163   6.111  0.6763 -0.2214  0.1820
  264MOL0     N35522   3.000   4.054   6.059  0.0472  0.6203 -0.8042
  264MOL0     C35523   3.065   4.061   5.946 -0.1251  0.6763  1.3229
  264MOL0     C35524   3.134   3.933   5.934  0.5365 -0.1261 -0.4590
  264MOL0     C35525   3.204   3.895   5.810 -0.2060  0.7957 -0.2087
  264MOL0     C35526   3.358   3.889   5.818 -0.6173  1.0446  1.0413
  264MOL0     C35527   3.413   3.830   5.950 -0.1317  0.3402  0.0564
  264MOL0     C35528   3.559   3.782   5.926 -0.4623  0.8264 -0.1676
  264MOL0     O35529   3.649   3.898   5.919  0.6563 -0.0997  0.5382
  264MOL0     C35530   3.783   3.869   5.895  0.6470  0.6204  0.4018
  264MOL0     C35531   3.832   3.754   5.831 -0.0747 -0.0043 -0.2917
  264MOL0     C35532   3.963   3.748   5.791  0.0172  0.2909  0.2562
  264MOL0     C35533   4.050   3.855   5.816 -0.3693  0.5252  0.1056
  264MOL0     C35534   4.187   3.855   5.772  0.5331  0.3720  0.3886
  264MOL0     O35535   4.233   3.733   5.741 -0.4435 -0.1665  0.2949
  264MOL0     C35536   4.356   3.717   5.682 -0.1086  0.4191 -0.6090
  264MOL0     C35537   4.468   3.745   5.751 -0.5982 -0.2777  0.0406
  264MOL0     C35538   4.599   3.727   5.694 -0.9576 -0.6735  0.1578
  264MOL0     C35539   4.609   3.659   5.567  0.4197  0.2516  0.0487
  264MOL0     O35540   4.731   3.615   5.524 -0.1710  0.2409 -0.2556
  264MOL0     C35541   4.754   3.566   5.392  0.3112  0.3398  0.8186
  264MOL0     C35542   4.900   3.522   5.374  0.3213 -0.2775  0.3927
  264MOL0     C35543   4.923   3.455   5.233  0.2478  0.3219 -0.5750
  264MOL0     C35544   5.071   3.468   5.210 -0.9658 -0.3356 -0.1450
  264MOL0     C35545   5.135   3.391   5.104 -0.6156  0.3169  0.2230
  264MOL0     C35546   5.070   3.415   4.973  0.2450  0.6153  0.0480
  264MOL0     C35547   5.067   3.570   4.933  0.4535  0.6949  1.0726
  264MOL0     C35548   4.994   3.570   4.797  0.4238 -1.1287  0.8150
  264MOL0    Cl35549   5.024   3.735   4.739  0.1660  0.0817 -0.1804
  264MOL0     C35550   4.484   3.641   5.496 -0.9669  0.3833  0.0575
  264MOL0     C35551   4.365   3.664   5.553  0.5239  0.2737 -0.4505
  264MOL0     O35552   4.249   3.959   5.756  0.5108  0.3157 -0.4699
  264MOL0     C35553   3.998   3.978   5.868 -0.3732  0.1885 -0.0347
  264MOL0     C35554   3.866   3.980   5.916 -0.3337 -1.0119  1.0938
  264MOL0     N35555   3.097   3.857   6.041  0.1251  0.8687  0.2866
  264MOL0     N35556   3.032   3.934   6.121  0.3742  0.4994 -0.2026
  264MOL0     C35557   1.908   4.397   6.477 -1.6176  0.6674  0.2368
  264MOL0     C35558   1.775   4.423   6.519 -0.6221  0.1840 -0.1371
  264MOL0     C35559   1.333   4.452   6.505  0.6309 -0.0729  1.2644
  264MOL0     C35560   1.314   4.560   6.594  0.8893  0.3165  0.0948
  264MOL0     C35561   1.182   4.603   6.638  1.1005 -0.2969  0.5848
  264MOL0     C35562   1.068   4.540   6.589 -0.4665  0.1148 -0.2515
  264MOL0     O35563   0.950   4.599   6.625  0.0499  0.6230  0.2398
  264MOL0     C35564   0.879   4.538   6.739  0.6893  0.6898  0.2020
  264MOL0     C35565   0.748   4.474   6.682 -0.0749 -0.2121 -0.4128
  264MOL0     C35566   0.676   4.433   6.820  0.9958 -0.7663 -0.1413
  264MOL0     C35567   0.560   4.339   6.778 -0.1904 -0.4330 -0.0067
  264MOL0     C35568   0.509   4.250   6.883  0.0873  0.5963  0.3445
  264MOL0     C35569   0.473   4.199   6.982  0.0589 -0.5181  0.3765
  264MOL0     C35570   1.084   4.443   6.493 -0.4891  0.3761 -0.2448
  264MOL0     C35571   1.209   4.400   6.450 -0.7539  0.2832  0.4015
  264MOL0     C35572   1.221   4.296   6.337  0.2785 -0.3139 -0.8765
  264MOL0     H35573   1.667   4.613   6.265 -0.0597 -0.6452 -0.3394
  264MOL0     H35574   1.883   4.537   6.167 -0.1798  0.3833  0.5488
  264MOL0     H35575   2.112   4.502   6.120  0.9311  0.5048 -0.8347
  264MOL0     H35576   2.115   4.604   6.265  0.2877  0.2202 -0.3125
  264MOL0     H35577   2.332   4.484   6.334  3.1746 -1.3922 -0.9203
  264MOL0     H35578   2.324   4.581   6.193  0.8973 -2.0518 -1.2910
  264MOL0     H35579   2.283   4.370   6.046 -1.0996 -2.9330 -0.5328
  264MOL0     H35580   2.286   4.276   6.189 -1.2033  0.8986 -1.3557
  264MOL0     H35581   2.520   4.447   6.078  2.6357  2.0128  1.6564
  264MOL0     H35582   2.512   4.393   6.247  0.0706  0.4745  0.1308
  264MOL0     H35583   2.515   4.153   6.159  0.6505  0.4729  1.0112
  264MOL0     H35584   2.536   4.211   5.999 -1.4757 -2.7017  1.3984
  264MOL0     H35585   2.745   4.335   6.088  0.8863  0.7494  3.0574
  264MOL0     H35586   2.707   4.262   6.247  0.2773  0.4982  0.2554
  264MOL0     H35587   2.750   4.086   6.000  2.0255 -0.4169  0.1960
  264MOL0     H35588   2.754   4.039   6.169 -0.4321  0.2330  0.4362
  264MOL0     H35589   2.946   4.248   6.045 -2.7582 -0.0545 -0.9124
  264MOL0     H35590   2.951   4.196   6.212 -3.0483  3.6403  0.1653
  264MOL0     H35591   3.076   4.144   5.876  2.9767 -0.6201  0.0517
  264MOL0     H35592   3.168   3.793   5.796 -2.7415  1.3773  1.5019
  264MOL0     H35593   3.172   3.950   5.721  1.3353  0.7395 -0.8374
  264MOL0     H35594   3.402   3.845   5.728 -1.1066  1.7837  0.4227
  264MOL0     H35595   3.400   3.990   5.810  0.5098  0.4227 -2.1616
  264MOL0     H35596   3.347   3.750   5.987 -0.4438  1.4668  2.1412
  264MOL0     H35597   3.408   3.915   6.019  0.5268  0.7786 -0.4267
  264MOL0     H35598   3.569   3.721   5.836  1.7021 -0.9894  1.1772
  264MOL0     H35599   3.583   3.708   6.002  1.9715  1.5985 -0.0975
  264MOL0     H35600   3.776   3.667   5.797  1.0760 -0.9251  0.0932
  264MOL0     H35601   3.992   3.653   5.746 -1.1051 -0.3499  0.8287
  264MOL0     H35602   4.455   3.798   5.845 -5.3977 -0.9144  0.0110
  264MOL0     H35603   4.689   3.743   5.752 -0.4827 -3.3841  0.3190
  264MOL0     H35604   4.713   3.466   5.379  3.6766 -0.8603 -2.4061
  264MOL0     H35605   4.711   3.630   5.314  0.0335 -0.0403  0.6543
  264MOL0     H35606   4.950   3.619   5.371 -0.7719  0.3940  2.0751
  264MOL0     H35607   4.938   3.460   5.456 -1.1818 -2.4187 -0.4202
  264MOL0     H35608   4.891   3.351   5.238  3.7407 -0.9832 -2.1880
  264MOL0     H35609   4.875   3.508   5.149  0.4148  3.9298  1.3809
  264MOL0     H35610   5.111   3.433   5.306 -2.4978 -2.7005 -0.2824
  264MOL0     H35611   5.098   3.573   5.196  0.8664 -0.9317 -1.4158
  264MOL0     H35612   5.119   3.283   5.114  2.7727 -0.6707 -3.1428
  264MOL0     H35613   5.240   3.418   5.095 -0.6158 -0.2880 -2.3920
  264MOL0     H35614   5.132   3.373   4.893 -1.0783 -0.2004 -0.5885
  264MOL0     H35615   4.965   3.384   4.974  0.3456  0.2744  0.3146
  264MOL0     H35616   5.168   3.610   4.922 -0.4646  2.4105 -2.7562
  264MOL0     H35617   5.012   3.640   4.997 -2.9062  0.2999 -1.1071
  264MOL0     H35618   5.026   3.492   4.728 -1.0688  0.0694 -1.3557
  264MOL0     H35619   4.888   3.546   4.809  0.3838 -1.9263 -0.8323
  264MOL0     H35620   4.473   3.599   5.397  1.4788 -0.3053  0.0149
  264MOL0     H35621   4.276   3.631   5.501  0.7199 -0.4881 -0.3051
  264MOL0     H35622   4.075   4.054   5.877  0.1383  0.0095 -2.3984
  264MOL0     H35623   3.832   4.073   5.961  0.8561  0.5643 -1.0695
  264MOL0     H35624   1.975   4.339   6.540 -4.2406 -2.8047  0.1609
  264MOL0     H35625   1.749   4.394   6.620  2.4484 -0.7370  0.4815
  264MOL0     H35626   1.402   4.615   6.627  2.4077 -0.2830 -2.6442
  264MOL0     H35627   1.177   4.693   6.698  2.7850 -0.3893  0.9255
  264MOL0     H35628   0.861   4.607   6.822  0.8353 -0.8502  1.5835
  264MOL0     H35629   0.940   4.457   6.781 -0.1853  0.0779  0.3240
  264MOL0     H35630   0.762   4.385   6.620 -0.8828 -2.3196  2.2340
  264MOL0     H35631   0.687   4.547   6.627  0.8936 -1.3680 -3.2479
  264MOL0     H35632   0.638   4.521   6.872  2.0122  0.8880 -2.0484
  264MOL0     H35633   0.744   4.367   6.875  3.3001  0.9340 -0.8204
  264MOL0     H35634   0.480   4.402   6.738  1.2764  0.4826 -1.6379
  264MOL0     H35635   0.599   4.274   6.700  0.0243 -1.4380  0.9149
  264MOL0     H35636   0.435   4.176   7.080 -3.4101  0.8897 -0.5053
  264MOL0     H35637   0.991   4.405   6.450 -0.5351 -1.2675  1.1764
  264MOL0     H35638   1.302   4.326   6.270  0.4121 -1.3827 -1.2103
  264MOL0     H35639   1.259   4.201   6.375  3.7914  2.1722  2.6558
  264MOL0     H35640   1.129   4.273   6.283 -0.1450 -2.3626  0.5911
  265MOL0     O35641   8.359   2.798   6.502  0.8876  0.3884 -0.6932
  265MOL0     C35642   8.361   2.921   6.507  0.5970  1.6669 -0.2158
  265MOL0     O35643   8.470   2.987   6.540  0.1594 -0.4121 -0.1521
  265MOL0     C35644   8.599   2.942   6.531  0.3504 -0.1824  0.3081
  265MOL0     C35645   8.688   2.983   6.628  0.5587 -0.1830  0.1489
  265MOL0     C35646   8.826   2.959   6.629 -0.3959 -0.5430 -0.1279
  265MOL0     C35647   8.870   2.880   6.514 -0.0062  0.5203  0.1615
  265MOL0     O35648   9.004   2.848   6.499 -0.0370  0.6505  0.6041
  265MOL0     C35649   9.068   2.811   6.619 -0.5722  0.2004  0.6563
  265MOL0     C35650   9.215   2.773   6.591  0.5873 -0.0206 -0.5537
  265MOL0     C35651   9.223   2.636   6.528  0.1954 -0.1703 -0.1704
  265MOL0     C35652   9.370   2.584   6.531 -0.1046 -0.2897 -0.0555
  265MOL0     C35653   9.371   2.446   6.487 -0.3607  0.0434 -0.0086
  265MOL0     C35654   9.511   2.389   6.471 -0.6120  0.1485  0.6122
  265MOL0     C35655   9.585   2.372   6.604  1.0562  0.3138  0.3818
  265MOL0     C35656   9.711   2.284   6.586  0.3729 -0.6095 -0.2535
  265MOL0     N35657   9.823   2.379   6.555  0.0953 -0.0252 -0.1318
  265MOL0     C35658   9.876   2.472   6.645 -0.0596  0.4950 -0.4695
  265MOL0     C35659   9.937   2.562   6.566 -0.1442  0.2549  0.4334
  265MOL0     C35660  10.012   2.682   6.628 -0.3719 -0.5479  0.0406
  265MOL0     C35661  10.163   2.678   6.638 -0.0346 -0.2429  0.1692
  265MOL0     C35662  10.223   2.645   6.498  0.0639 -0.7444  0.9658
  265MOL0     C35663  10.376   2.672   6.503 -0.0905  0.5219 -0.1003
  265MOL0     O35664  10.415   2.792   6.437  0.2481 -0.2670 -0.2311
  265MOL0     C35665  10.538   2.790   6.375 -0.4142  0.4101  0.1995
  265MOL0     C35666  10.560   2.875   6.272  0.4128  0.2824  0.3352
  265MOL0     C35667  10.681   2.885   6.206  0.0879 -0.6474 -0.5166
  265MOL0     C35668  10.801   2.825   6.266 -0.1680  0.5608  0.2455
  265MOL0     C35669  10.937   2.859   6.211 -0.3324 -0.2104 -0.4009
  265MOL0     O35670  11.038   2.804   6.281 -0.1529 -0.8338 -0.2060
  265MOL0     C35671  11.167   2.812   6.234  0.6056  0.3198 -0.6173
  265MOL0     C35672  11.264   2.818   6.335  0.0493  0.4195 -0.0497
  265MOL0     C35673  11.398   2.827   6.307  0.4042  0.0550 -0.1956
  265MOL0     C35674  11.442   2.843   6.181  0.2226 -0.4032  0.3412
  265MOL0     O35675  11.579   2.860   6.161  0.2113  0.4420 -0.0737
  265MOL0     C35676  11.635   2.884   6.026  0.7613  0.2701  0.1276
  265MOL0     C35677  11.779   2.883   6.044 -0.0123  0.1612  0.2257
  265MOL0     C35678  11.836   2.739   6.072 -0.0070 -0.1258  0.1200
  265MOL0     C35679  11.984   2.745   6.127  0.4528 -0.2618  0.3870
  265MOL0     C35680  12.051   2.606   6.124  0.0079  0.2580  0.2038
  265MOL0     C35681  12.192   2.609   6.190 -0.4353  1.5073 -0.3008
  265MOL0     C35682  12.287   2.492   6.201  0.1033 -0.0097 -0.5808
  265MOL0     C35683  12.317   2.430   6.073  0.3782  0.3629  0.8919
  265MOL0    Cl35684  12.182   2.323   6.015  0.2409 -0.1419 -0.8089
  265MOL0     C35685  11.349   2.839   6.076  0.2103 -0.3351 -0.2216
  265MOL0     C35686  11.210   2.823   6.106  0.2561  0.2857  0.3419
  265MOL0     O35687  10.943   2.939   6.117  0.0965  0.3054  0.3841
  265MOL0     C35688  10.774   2.734   6.365 -0.6745  0.2052 -0.6198
  265MOL0     C35689  10.645   2.721   6.423 -0.0531  0.2121 -0.8877
  265MOL0     N35690   9.941   2.518   6.434  1.0018  0.4877 -0.5361
  265MOL0     N35691   9.866   2.408   6.428  0.6873 -0.8228 -0.3957
  265MOL0     C35692   8.788   2.844   6.409  0.1149 -1.2357  0.5829
  265MOL0     C35693   8.652   2.878   6.415  0.3397 -0.0156  0.3747
  265MOL0     C35694   8.230   2.990   6.512  0.1132 -0.6478  0.0633
  265MOL0     C35695   8.239   3.134   6.525 -0.1424 -1.0278  0.0443
  265MOL0     C35696   8.128   3.217   6.546 -0.1719  0.3905  0.7094
  265MOL0     C35697   8.003   3.159   6.548  0.0585  0.2976  0.1507
  265MOL0     O35698   7.881   3.221   6.583  0.3902 -0.0505 -0.2068
  265MOL0     C35699   7.884   3.364   6.583  1.1238  0.5724 -1.0133
  265MOL0     C35700   7.743   3.428   6.616 -0.5444  0.5552  0.2720
  265MOL0     C35701   7.747   3.578   6.568 -1.0117 -0.2874 -0.4314
  265MOL0     C35702   7.605   3.645   6.562  0.0592  0.2489 -0.6381
  265MOL0     C35703   7.520   3.588   6.453  0.2862 -0.0027 -0.0571
  265MOL0     C35704   7.441   3.541   6.377  0.1234 -0.0711  0.3850
  265MOL0     C35705   7.993   3.021   6.535  0.3533 -0.1985  0.2614
  265MOL0     C35706   8.102   2.939   6.507  0.5279  1.0794  0.1074
  265MOL0     C35707   8.062   2.797   6.507  0.4908  0.1184  0.4799
  265MOL0     H35708   8.636   3.033   6.709 -0.9508 -2.1157  0.4307
  265MOL0     H35709   8.878   2.982   6.722 -2.7141  0.1161  1.0997
  265MOL0     H35710   9.079   2.895   6.689  0.8984  1.5362 -1.0834
  265MOL0     H35711   9.018   2.731   6.674 -1.8292 -0.3453 -1.1653
  265MOL0     H35712   9.258   2.765   6.691 -1.8705 -0.3870  0.5537
  265MOL0     H35713   9.266   2.842   6.523  0.3251  1.7459  0.9848
  265MOL0     H35714   9.177   2.640   6.429 -0.0774  3.9215 -0.0436
  265MOL0     H35715   9.161   2.568   6.588 -1.8817  0.7134 -1.2144
  265MOL0     H35716   9.429   2.645   6.462  0.1380 -1.5703 -1.0050
  265MOL0     H35717   9.411   2.594   6.632 -0.6185 -0.7322  0.2058
  265MOL0     H35718   9.311   2.385   6.555 -0.5785  1.2892  0.9626
  265MOL0     H35719   9.320   2.448   6.390  2.3479  0.0027 -1.5382
  265MOL0     H35720   9.489   2.290   6.430 -0.8663 -0.1734  1.4912
  265MOL0     H35721   9.567   2.461   6.410  1.4683 -0.6947  1.4574
  265MOL0     H35722   9.527   2.303   6.666 -0.9375  0.5245 -1.1320
  265MOL0     H35723   9.599   2.473   6.643 -1.2098  2.1306 -3.0081
  265MOL0     H35724   9.747   2.224   6.671  1.5040  1.8407  1.1073
  265MOL0     H35725   9.695   2.212   6.505 -0.6075  0.2256 -0.8119
  265MOL0     H35726   9.866   2.466   6.753 -1.5955 -0.3192 -0.6194
  265MOL0     H35727   9.992   2.759   6.553 -0.9113 -3.2330 -2.8110
  265MOL0     H35728   9.972   2.703   6.727  2.5834 -1.3269  1.5013
  265MOL0     H35729  10.192   2.781   6.661 -2.0678  0.3019  0.4943
  265MOL0     H35730  10.191   2.607   6.717 -1.3513  0.4611  1.3072
  265MOL0     H35731  10.175   2.716   6.429 -1.0867 -2.3455  0.0526
  265MOL0     H35732  10.199   2.544   6.465 -1.2239  0.7639 -3.4874
  265MOL0     H35733  10.426   2.586   6.457  2.1390  2.2709 -1.1130
  265MOL0     H35734  10.416   2.665   6.604  0.6959 -1.8108 -0.4998
  265MOL0     H35735  10.475   2.938   6.248  0.2438  1.6692  3.9619
  265MOL0     H35736  10.673   2.939   6.112 -4.1121  3.0171  1.5309
  265MOL0     H35737  11.238   2.807   6.440 -0.0639  1.1600  0.0017
  265MOL0     H35738  11.465   2.808   6.390  0.1503 -0.9900 -0.2155
  265MOL0     H35739  11.609   2.809   5.950 -0.1357  1.2415 -0.5475
  265MOL0     H35740  11.609   2.983   5.988  4.1827  1.4614  0.6229
  265MOL0     H35741  11.803   2.925   5.946 -1.9944  2.5829  0.6482
  265MOL0     H35742  11.828   2.947   6.118  0.7905  0.4822 -0.5714
  265MOL0     H35743  11.765   2.699   6.145 -2.7620  3.0321 -0.5517
  265MOL0     H35744  11.829   2.686   5.977  1.4518 -0.4246  0.1533
  265MOL0     H35745  11.974   2.787   6.228  0.7640  2.4650 -0.6167
  265MOL0     H35746  12.041   2.805   6.055 -1.3016 -1.1221 -1.8177
  265MOL0     H35747  12.045   2.576   6.019  0.9043  2.1482 -0.4474
  265MOL0     H35748  11.991   2.532   6.177  0.9210 -1.8691 -1.5672
  265MOL0     H35749  12.240   2.683   6.125  0.9211 -0.8371 -2.1710
  265MOL0     H35750  12.177   2.644   6.293  1.2665 -2.7300  1.6260
  265MOL0     H35751  12.241   2.423   6.273 -0.1622  2.6587  1.9992
  265MOL0     H35752  12.375   2.523   6.258 -1.1908 -0.8842  2.1257
  265MOL0     H35753  12.348   2.504   5.998  2.8227 -1.0658  0.3819
  265MOL0     H35754  12.407   2.367   6.072 -0.2669 -0.6282 -1.4605
  265MOL0     H35755  11.374   2.857   5.972 -0.8938  0.0619 -0.4303
  265MOL0     H35756  11.146   2.820   6.018  1.5966  0.5939 -0.6798
  265MOL0     H35757  10.860   2.691   6.416 -0.7540  0.5480 -0.1920
  265MOL0     H35758  10.641   2.669   6.518  0.8222 -1.2754 -1.6279
  265MOL0     H35759   8.840   2.805   6.322  2.0496 -2.3648  2.1749
  265MOL0     H35760   8.586   2.851   6.333  0.9035  4.3625 -1.8383
  265MOL0     H35761   8.337   3.180   6.519 -0.4503 -0.3859 -0.1839
  265MOL0     H35762   8.142   3.323   6.564  0.8522  0.6058 -1.1824
  265MOL0     H35763   7.910   3.391   6.480 -0.8931  2.8675 -1.0123
  265MOL0     H35764   7.950   3.405   6.660 -0.3786  3.6362 -1.1949
  265MOL0     H35765   7.748   3.425   6.725 -0.1132  1.5430  0.2870
  265MOL0     H35766   7.663   3.370   6.569 -0.1915  0.7682 -0.6206
  265MOL0     H35767   7.790   3.589   6.468  0.0983  0.6893  0.1294
  265MOL0     H35768   7.797   3.636   6.647 -0.4267 -1.8866  0.4215
  265MOL0     H35769   7.553   3.626   6.656 -0.8228  1.1034 -0.9460
  265MOL0     H35770   7.610   3.754   6.555 -1.6920  0.6132  2.1420
  265MOL0     H35771   7.367   3.511   6.305  0.5392 -3.5233  1.2482
  265MOL0     H35772   7.891   2.983   6.530 -0.0349  0.9259 -0.9621
  265MOL0     H35773   8.059   2.771   6.614  1.3467  0.9244  0.7107
  265MOL0     H35774   7.968   2.790   6.451  0.2499 -0.0053  0.8956
  265MOL0     H35775   8.135   2.741   6.448 -0.8818  0.2025 -1.3730
  266MOL0     O35776   3.633   8.580   7.269 -0.7666 -0.0906  0.1900
  266MOL0     C35777   3.599   8.477   7.320 -0.1976  0.4598 -0.1607
  266MOL0     O35778   3.566   8.365   7.251 -0.2039  0.2425  0.3331
  266MOL0     C35779   3.605   8.358   7.123  0.8454 -0.1661  0.7778
  266MOL0     C35780   3.517   8.345   7.020 -0.1203  0.2678  1.1671
  266MOL0     C35781   3.554   8.323   6.893  0.6996  0.1446 -0.1191
  266MOL0     C35782   3.685   8.306   6.859 -0.3518 -0.2268 -0.0989
  266MOL0     O35783   3.732   8.288   6.731 -0.9519  0.7614  0.0740
  266MOL0     C35784   3.658   8.209   6.638 -1.0380  0.1638 -0.2229
  266MOL0     C35785   3.765   8.140   6.541  0.9665  0.7839 -0.8030
  266MOL0     C35786   3.872   8.060   6.623 -0.4671  0.1360  0.6972
  266MOL0     C35787   3.837   7.921   6.683  0.2431 -0.8621 -0.5664
  266MOL0     C35788   3.945   7.855   6.768  0.3797  0.7721 -0.3025
  266MOL0     C35789   4.084   7.860   6.695  0.3643  0.1762 -0.4411
  266MOL0     C35790   4.172   7.755   6.763  0.3375 -0.5174 -0.0753
  266MOL0     C35791   4.309   7.783   6.714 -0.1019 -0.0803  0.5215
  266MOL0     N35792   4.400   7.705   6.807 -0.2947 -0.4408  0.4207
  266MOL0     C35793   4.418   7.571   6.798  0.8825 -0.0274 -0.3258
  266MOL0     C35794   4.516   7.537   6.886 -0.6091 -0.8803  1.0032
  266MOL0     C35795   4.579   7.416   6.930 -0.5675  1.1967  0.3877
  266MOL0     C35796   4.695   7.387   6.835  0.3145  0.2241 -0.4893
  266MOL0     C35797   4.828   7.449   6.882  0.5130 -1.2818  0.2205
  266MOL0     C35798   4.931   7.436   6.770 -0.0783  0.3771  0.6131
  266MOL0     O35799   5.035   7.525   6.794 -1.0453 -0.5990  0.7975
  266MOL0     C35800   5.141   7.537   6.705 -0.2526 -0.2389 -0.5895
  266MOL0     C35801   5.147   7.472   6.584  0.3791  0.4410 -0.3079
  266MOL0     C35802   5.251   7.477   6.505  0.0566  0.6705 -0.6158
  266MOL0     C35803   5.371   7.540   6.544  0.2603 -0.0371  0.2000
  266MOL0     C35804   5.490   7.532   6.449  0.6587 -0.6850  0.3487
  266MOL0     O35805   5.604   7.593   6.491  0.8148 -0.4620  0.2047
  266MOL0     C35806   5.725   7.582   6.425 -0.4998 -0.1739  0.5088
  266MOL0     C35807   5.809   7.693   6.452 -0.1733 -0.3662  0.3105
  266MOL0     C35808   5.926   7.703   6.377 -0.5122  0.3912  0.1600
  266MOL0     C35809   5.976   7.596   6.296  0.8484 -0.2132  0.1713
  266MOL0     O35810   6.101   7.600   6.234  0.3083  0.3215  0.3180
  266MOL0     C35811   6.192   7.696   6.274 -0.5989 -0.1582 -0.1636
  266MOL0     C35812   6.327   7.658   6.226  0.3302 -0.4398  0.2193
  266MOL0     C35813   6.446   7.744   6.267  0.4145 -0.2470 -0.0894
  266MOL0     C35814   6.572   7.740   6.178  0.1663  0.1594 -0.5454
  266MOL0     C35815   6.616   7.587   6.147 -0.3389 -0.9337  0.1316
  266MOL0     C35816   6.768   7.576   6.128 -0.6437  0.1196  0.4634
  266MOL0     C35817   6.821   7.625   5.988  0.9293  0.0298  0.1630
  266MOL0     C35818   6.954   7.561   5.932  0.5798 -0.1594  0.5685
  266MOL0    Cl35819   7.070   7.584   6.064 -0.2603 -0.4614  0.3305
  266MOL0     C35820   5.888   7.486   6.274 -0.0902 -0.0440 -0.2671
  266MOL0     C35821   5.767   7.483   6.339  0.0776  0.2216 -1.0122
  266MOL0     O35822   5.471   7.471   6.343 -0.8016 -0.1722  0.3079
  266MOL0     C35823   5.372   7.614   6.657  1.1308 -0.3959 -0.2358
  266MOL0     C35824   5.252   7.612   6.739 -0.1371 -0.3505 -0.2313
  266MOL0     N35825   4.563   7.661   6.930  0.7620  0.6213 -0.7014
  266MOL0     N35826   4.489   7.757   6.886 -0.1691 -0.0229  0.0589
  266MOL0     C35827   3.782   8.321   6.958  0.3756  0.4411  0.4156
  266MOL0     C35828   3.746   8.351   7.093  0.1256  0.0672 -0.2126
  266MOL0     C35829   3.578   8.481   7.469  0.5222  0.8897  0.3826
  266MOL0     C35830   3.489   8.381   7.518  0.4946 -0.5214  0.7288
  266MOL0     C35831   3.439   8.382   7.648 -0.3032 -0.5606 -1.2772
  266MOL0     C35832   3.495   8.477   7.738 -0.1154 -0.5366 -1.4516
  266MOL0     O35833   3.445   8.472   7.867  0.8305  0.2888 -0.1526
  266MOL0     C35834   3.496   8.566   7.970 -0.2032 -0.0380  0.3996
  266MOL0     C35835   3.454   8.524   8.111 -1.1357  0.7152 -0.5875
  266MOL0     C35836   3.537   8.413   8.178  0.7757 -0.6160  0.2762
  266MOL0     C35837   3.497   8.405   8.330 -0.2947  0.1620  0.6858
  266MOL0     C35838   3.363   8.354   8.354  0.3979  0.0851  0.4450
  266MOL0     C35839   3.249   8.308   8.366  0.0176  0.4928 -0.4843
  266MOL0     C35840   3.587   8.577   7.689 -0.3121  0.3916 -0.0321
  266MOL0     C35841   3.634   8.568   7.561  0.1064 -0.1482  0.0632
  266MOL0     C35842   3.709   8.695   7.520 -0.4343 -0.3074 -0.5667
  266MOL0     H35843   3.412   8.366   7.035 -0.4644 -0.5907  0.0400
  266MOL0     H35844   3.467   8.319   6.828  1.3185  2.0926 -1.1335
  266MOL0     H35845   3.608   8.130   6.695 -0.7151  0.1967  0.1146
  266MOL0     H35846   3.583   8.264   6.582  0.2715  2.7800  0.4288
  266MOL0     H35847   3.825   8.213   6.487  0.7747  0.2931 -1.6944
  266MOL0     H35848   3.714   8.068   6.476 -1.5042  0.4455  1.3370
  266MOL0     H35849   3.921   8.131   6.691  0.1895  0.7572 -0.3984
  266MOL0     H35850   3.947   8.028   6.551 -3.8615 -2.6166 -1.9447
  266MOL0     H35851   3.759   7.947   6.756  0.8306 -0.6386 -0.0166
  266MOL0     H35852   3.819   7.855   6.598  0.3337  2.0948 -3.0388
  266MOL0     H35853   3.948   7.905   6.865  0.5371  1.2711 -0.5611
  266MOL0     H35854   3.918   7.751   6.788  0.2570  0.5936 -1.3195
  266MOL0     H35855   4.077   7.834   6.589 -0.5743  1.8559 -0.8339
  266MOL0     H35856   4.131   7.958   6.707  2.8061 -0.9681  0.1165
  266MOL0     H35857   4.125   7.658   6.739 -0.8310  0.3202 -1.3277
  266MOL0     H35858   4.163   7.763   6.872  0.5259  0.0492 -0.1008
  266MOL0     H35859   4.325   7.742   6.614 -2.5347  0.7883 -0.2719
  266MOL0     H35860   4.336   7.890   6.717  0.7456 -0.2965  1.5598
  266MOL0     H35861   4.350   7.505   6.747  1.0913  0.6637 -1.5362
  266MOL0     H35862   4.598   7.430   7.037 -1.3175  1.1995  0.5257
  266MOL0     H35863   4.506   7.335   6.920  0.9249 -0.0610 -0.8510
  266MOL0     H35864   4.705   7.279   6.823 -0.7856 -0.1493  1.4582
  266MOL0     H35865   4.674   7.429   6.737 -2.4144 -0.9083 -0.4807
  266MOL0     H35866   4.851   7.410   6.982  0.9795 -1.9594 -0.1417
  266MOL0     H35867   4.817   7.557   6.887 -2.4714 -1.1646 -3.9133
  266MOL0     H35868   4.886   7.442   6.670  1.0437  1.2153  0.1337
  266MOL0     H35869   4.958   7.331   6.767 -0.4440  0.2983 -1.7681
  266MOL0     H35870   5.066   7.406   6.553  0.2240 -1.0468  2.9325
  266MOL0     H35871   5.249   7.422   6.412 -0.9391 -4.6825  2.2022
  266MOL0     H35872   5.770   7.769   6.519 -0.8860 -0.5839  0.1539
  266MOL0     H35873   5.988   7.791   6.390 -0.4198  0.3246  0.1652
  266MOL0     H35874   6.164   7.797   6.242 -1.8177 -0.1160  0.9568
  266MOL0     H35875   6.192   7.709   6.383 -1.5898  1.9524 -0.3619
  266MOL0     H35876   6.342   7.557   6.264  3.5605 -0.9073 -1.9032
  266MOL0     H35877   6.320   7.664   6.117 -2.1160  0.7964  0.3680
  266MOL0     H35878   6.403   7.844   6.276 -2.0031 -1.3716  2.3185
  266MOL0     H35879   6.480   7.708   6.365 -1.6111 -1.1989  0.3163
  266MOL0     H35880   6.650   7.795   6.231  1.3458 -0.4010 -1.6351
  266MOL0     H35881   6.563   7.800   6.086 -2.2795 -1.1700 -1.2408
  266MOL0     H35882   6.562   7.551   6.059 -1.8568  1.0018  0.1967
  266MOL0     H35883   6.582   7.526   6.231  0.5900 -0.1743  1.0812
  266MOL0     H35884   6.819   7.626   6.210  0.6270 -1.7476  0.8911
  266MOL0     H35885   6.805   7.473   6.125 -0.5591  0.1028 -3.8799
  266MOL0     H35886   6.843   7.732   5.988  1.9784 -0.1784  0.4430
  266MOL0     H35887   6.740   7.610   5.916  0.3228  0.6927  0.6865
  266MOL0     H35888   6.944   7.456   5.900 -1.5607  1.0813 -3.6369
  266MOL0     H35889   6.977   7.622   5.844 -0.7363  2.4124  1.8908
  266MOL0     H35890   5.907   7.392   6.223 -1.1329 -2.3015  3.1137
  266MOL0     H35891   5.697   7.400   6.329 -2.1823  2.1607 -2.0702
  266MOL0     H35892   5.456   7.680   6.678  0.4014  0.9347 -1.3254
  266MOL0     H35893   5.246   7.661   6.836 -0.3139  0.1627 -0.4950
  266MOL0     H35894   3.888   8.301   6.940  1.8003  1.6911  5.6506
  266MOL0     H35895   3.822   8.365   7.169  1.9814 -1.1231 -1.7457
  266MOL0     H35896   3.459   8.310   7.442  0.9963  0.4480 -0.3997
  266MOL0     H35897   3.368   8.309   7.684 -0.7782 -0.3609 -1.8009
  266MOL0     H35898   3.475   8.669   7.938  3.6662  0.2498 -1.8767
  266MOL0     H35899   3.604   8.553   7.960  0.2386  1.5180  2.3617
  266MOL0     H35900   3.346   8.508   8.120 -0.6641 -2.0237  2.0380
  266MOL0     H35901   3.475   8.615   8.167 -0.1286 -1.6000  3.2040
  266MOL0     H35902   3.639   8.453   8.183 -0.5428  3.2174  0.0290
  266MOL0     H35903   3.545   8.318   8.125 -1.5007 -2.2943  2.7045
  266MOL0     H35904   3.568   8.345   8.387  0.3320 -0.4084 -0.6359
  266MOL0     H35905   3.492   8.499   8.384  1.3381  0.5686  0.1865
  266MOL0     H35906   3.156   8.260   8.390  0.0007  0.8003  0.0943
  266MOL0     H35907   3.613   8.652   7.763 -1.8422 -1.7261  2.8664
  266MOL0     H35908   3.782   8.683   7.440 -1.9920  1.1233 -2.2920
  266MOL0     H35909   3.647   8.784   7.507  2.0489  1.9666  1.8351
  266MOL0     H35910   3.769   8.720   7.609  2.8052  0.6364 -2.8394
  267MOL0     O35911   6.029   6.514   9.374  0.2382 -0.0201 -0.1764
  267MOL0     C35912   5.973   6.617   9.346  0.1721 -0.2044 -0.3729
  267MOL0     O35913   6.040   6.740   9.316 -0.0286 -0.4126 -0.2275
  267MOL0     C35914   6.173   6.740   9.337 -0.2849 -0.0541  0.0033
  267MOL0     C35915   6.230   6.843   9.416  0.1225 -0.2139  0.0703
  267MOL0     C35916   6.365   6.859   9.443  0.3324 -0.1348  0.2634
  267MOL0     C35917   6.458   6.773   9.385 -0.5054  0.3406  0.6927
  267MOL0     O35918   6.584   6.781   9.433 -0.0555 -0.8907 -0.2177
  267MOL0     C35919   6.693   6.730   9.361  0.1656  1.3595  0.7624
  267MOL0     C35920   6.816   6.783   9.431 -0.1008  0.3145  0.2476
  267MOL0     C35921   6.940   6.715   9.368 -0.4607 -1.1704 -0.0569
  267MOL0     C35922   7.067   6.759   9.450  0.1636  0.6677  0.0576
  267MOL0     C35923   7.193   6.693   9.396 -0.0699 -0.0418  0.0613
  267MOL0     C35924   7.304   6.723   9.499 -1.5337  1.0577  0.8513
  267MOL0     C35925   7.444   6.673   9.456 -1.1653  0.4641 -0.1306
  267MOL0     C35926   7.546   6.716   9.569  0.1767  0.3505  0.5150
  267MOL0     N35927   7.682   6.672   9.537  0.7050 -0.0262 -0.4792
  267MOL0     C35928   7.765   6.714   9.428 -0.5506 -0.1034 -0.1174
  267MOL0     C35929   7.892   6.685   9.463 -0.1751  0.7550 -0.9318
  267MOL0     C35930   8.024   6.697   9.387 -0.0510  0.1175  0.0878
  267MOL0     C35931   8.120   6.792   9.457 -0.7373  0.2767  0.5762
  267MOL0     C35932   8.183   6.726   9.586  0.0283 -0.1123 -0.2029
  267MOL0     C35933   8.312   6.788   9.629 -0.5644  0.7056  0.3431
  267MOL0     O35934   8.286   6.903   9.709  0.1919  1.1320 -0.6064
  267MOL0     C35935   8.392   6.966   9.773 -0.1312  0.0329  0.2944
  267MOL0     C35936   8.525   6.925   9.760  0.3980  0.0943 -0.3630
  267MOL0     C35937   8.632   6.994   9.823 -0.7290  1.0890  0.4235
  267MOL0     C35938   8.613   7.103   9.910 -0.7082  0.4460 -0.1019
  267MOL0     C35939   8.726   7.170   9.968 -1.1617  0.0979  0.3313
  267MOL0     O35940   8.856   7.143   9.920  0.4554 -0.3726 -0.0230
  267MOL0     C35941   8.961   7.238   9.942  0.0955  0.4511  0.0600
  267MOL0     C35942   9.074   7.195  10.019  0.9076  0.2708  0.3861
  267MOL0     C35943   9.184   7.275  10.039 -0.3306 -0.2977  0.1279
  267MOL0     C35944   9.188   7.396   9.973 -0.7164  0.0520 -0.1216
  267MOL0     O35945   9.301   7.478  10.000  0.0799 -0.5005  0.4247
  267MOL0     C35946   9.280   7.543  10.132 -0.8527  0.8167  0.2029
  267MOL0     C35947   9.400   7.633  10.174 -0.0490 -0.4589 -0.2664
  267MOL0     C35948   9.365   7.722  10.298 -0.4413 -0.2233  0.0837
  267MOL0     C35949   9.493   7.772  10.360 -0.7104  0.6882 -0.1660
  267MOL0     C35950   9.533   7.906  10.302 -0.1719  0.0913  0.1076
  267MOL0     C35951   9.672   7.934  10.345 -0.8446 -0.0161 -1.1472
  267MOL0     C35952   9.717   8.073  10.290 -0.7982  0.0905  0.0486
  267MOL0     C35953   9.665   8.190  10.370  0.3102  0.9288 -0.1943
  267MOL0    Cl35954   9.765   8.331  10.326 -0.1058  0.5471 -0.6143
  267MOL0     C35955   9.071   7.452   9.911  0.0764  0.9872  0.7138
  267MOL0     C35956   8.965   7.365   9.885  0.5918  0.1102 -0.2521
  267MOL0     O35957   8.698   7.257  10.052  0.2825 -0.2200 -0.9060
  267MOL0     C35958   8.481   7.144   9.934 -0.5679 -0.3716 -0.1489
  267MOL0     C35959   8.379   7.074   9.867  0.2810  0.0643  0.7187
  267MOL0     N35960   7.886   6.643   9.600  0.0331  0.1079  0.2586
  267MOL0     N35961   7.764   6.632   9.639  0.2597  0.2067  0.3821
  267MOL0     C35962   6.410   6.670   9.302  0.2110  0.2471 -0.8397
  267MOL0     C35963   6.269   6.657   9.273  0.3156  0.1578 -0.4969
  267MOL0     C35964   5.832   6.599   9.334  0.6141 -0.6545  0.3049
  267MOL0     C35965   5.767   6.496   9.407  0.0865 -0.2081  0.8552
  267MOL0     C35966   5.628   6.491   9.415  0.1330  0.5817  0.1809
  267MOL0     C35967   5.547   6.569   9.344 -0.6512  0.0771  0.7078
  267MOL0     O35968   5.416   6.552   9.349  0.5544  0.1458 -0.3911
  267MOL0     C35969   5.337   6.478   9.251 -0.2679 -0.0109 -0.4800
  267MOL0     C35970   5.268   6.357   9.316  0.7809  0.2701 -0.3575
  267MOL0     C35971   5.156   6.405   9.396  0.4611  0.8482 -0.0110
  267MOL0     C35972   5.099   6.295   9.487 -0.0899 -0.2149  0.2435
  267MOL0     C35973   5.080   6.161   9.432  0.6262 -0.0348 -0.8841
  267MOL0     C35974   5.081   6.062   9.361  0.1860 -0.0420 -0.0171
  267MOL0     C35975   5.601   6.664   9.258 -0.2400  1.0350 -0.8960
  267MOL0     C35976   5.741   6.686   9.260  1.2560  0.9139 -0.4626
  267MOL0     C35977   5.790   6.807   9.198  0.0842  0.1050 -0.1178
  267MOL0     H35978   6.157   6.912   9.457  2.3946  0.5874  3.1861
  267MOL0     H35979   6.400   6.939   9.508  0.8271 -0.9773  1.0745
  267MOL0     H35980   6.689   6.622   9.375 -0.0702  1.3447  0.5927
  267MOL0     H35981   6.693   6.757   9.255  2.2120 -2.2094 -0.3378
  267MOL0     H35982   6.806   6.765   9.538  0.6072 -1.6248  0.0333
  267MOL0     H35983   6.831   6.890   9.415  2.2160 -0.1744 -1.3099
  267MOL0     H35984   6.954   6.738   9.262  1.4819 -0.9838  0.1979
  267MOL0     H35985   6.932   6.607   9.373  0.2124 -1.1707  1.6167
  267MOL0     H35986   7.086   6.866   9.447  0.2751  0.6365 -0.3421
  267MOL0     H35987   7.053   6.730   9.555 -0.9831 -1.4448 -0.6293
  267MOL0     H35988   7.165   6.588   9.381  1.7216 -0.5662  0.1502
  267MOL0     H35989   7.222   6.744   9.304 -1.5075  0.6554 -0.0305
  267MOL0     H35990   7.312   6.828   9.529  0.2305  1.0397  0.5304
  267MOL0     H35991   7.270   6.666   9.586  2.0459 -1.7543  0.6433
  267MOL0     H35992   7.472   6.724   9.363 -2.5093  0.4411 -0.5689
  267MOL0     H35993   7.438   6.564   9.445  2.0268  0.1873 -0.0758
  267MOL0     H35994   7.545   6.825   9.578  1.7284  0.5846 -1.4903
  267MOL0     H35995   7.508   6.678   9.664  2.8803  1.6333  2.2355
  267MOL0     H35996   7.743   6.748   9.327  0.4777 -0.3015 -0.4165
  267MOL0     H35997   8.073   6.599   9.384 -2.7671 -1.3153 -1.2768
  267MOL0     H35998   7.996   6.730   9.287 -5.8519  1.0560  1.6806
  267MOL0     H35999   8.195   6.811   9.380 -1.0831 -0.0748  0.1497
  267MOL0     H36000   8.074   6.889   9.481  0.1518  1.0044 -0.5531
  267MOL0     H36001   8.202   6.621   9.561 -1.8338 -0.0752 -2.0845
  267MOL0     H36002   8.111   6.724   9.668 -0.3794  1.5316 -0.4880
  267MOL0     H36003   8.392   6.800   9.555  0.9669 -1.7136  1.4836
  267MOL0     H36004   8.355   6.712   9.695  0.3067 -3.0620 -3.9763
  267MOL0     H36005   8.545   6.834   9.706  0.7508 -1.0111  1.5413
  267MOL0     H36006   8.734   6.961   9.805 -1.1795 -0.7418  1.0169
  267MOL0     H36007   9.066   7.092  10.053  0.6203 -0.2588 -1.2015
  267MOL0     H36008   9.276   7.245  10.087  1.5341  3.1434 -0.8942
  267MOL0     H36009   9.190   7.603  10.116 -1.5116 -0.6882 -2.2357
  267MOL0     H36010   9.269   7.460  10.203  0.3209 -1.1474 -1.7611
  267MOL0     H36011   9.489   7.573  10.196  1.5828  2.4258  1.5034
  267MOL0     H36012   9.418   7.700  10.089 -1.1800 -0.9555 -0.9132
  267MOL0     H36013   9.300   7.801  10.259 -0.7916 -1.9301 -3.1417
  267MOL0     H36014   9.311   7.655  10.366  0.1133 -1.0869 -0.3128
  267MOL0     H36015   9.568   7.693  10.361 -1.4064 -0.0949  3.2005
  267MOL0     H36016   9.472   7.785  10.467 -2.2530  0.3884 -0.4098
  267MOL0     H36017   9.471   7.987  10.344  0.0271 -0.2820  1.1564
  267MOL0     H36018   9.522   7.904  10.193 -3.5782 -5.0862  0.2028
  267MOL0     H36019   9.695   7.937  10.452  0.3899  0.7816 -1.4137
  267MOL0     H36020   9.744   7.863  10.304  1.1255  0.6638  0.9530
  267MOL0     H36021   9.686   8.074  10.186  3.1453 -0.5678 -1.2928
  267MOL0     H36022   9.827   8.075  10.290 -0.8002  0.3326  0.5388
  267MOL0     H36023   9.561   8.215  10.347  0.3640  2.3563  0.9843
  267MOL0     H36024   9.678   8.165  10.476  3.0293 -0.0791 -0.6652
  267MOL0     H36025   9.076   7.554   9.875  1.8225  0.7077  0.0495
  267MOL0     H36026   8.864   7.386   9.850 -1.9705 -2.2660  4.6843
  267MOL0     H36027   8.458   7.228   9.998  1.5885  0.3412 -0.2230
  267MOL0     H36028   8.274   7.099   9.877  0.2881  1.0886 -1.3497
  267MOL0     H36029   6.467   6.584   9.268 -0.8418  0.1923 -2.5856
  267MOL0     H36030   6.243   6.581   9.201  2.2980 -2.1293  1.0252
  267MOL0     H36031   5.821   6.418   9.460  1.4616 -0.1075 -0.3385
  267MOL0     H36032   5.588   6.406   9.471  1.0776  0.2127  0.3186
  267MOL0     H36033   5.401   6.429   9.178  0.6241  0.3259  0.0652
  267MOL0     H36034   5.282   6.558   9.202 -0.5568  0.5980  0.7805
  267MOL0     H36035   5.326   6.308   9.396 -1.4177 -0.4769  0.8561
  267MOL0     H36036   5.239   6.280   9.243  0.4362 -0.9816  1.0353
  267MOL0     H36037   5.069   6.426   9.333  0.7128  4.2161  0.5785
  267MOL0     H36038   5.177   6.502   9.440  2.5774  1.6579 -2.4798
  267MOL0     H36039   5.160   6.277   9.576 -2.2924  4.1722  2.9827
  267MOL0     H36040   5.006   6.323   9.537  1.0813  1.8530  1.3872
  267MOL0     H36041   5.080   5.965   9.316  1.1281 -1.9892  3.7572
  267MOL0     H36042   5.531   6.728   9.204 -1.5518  2.4057  2.1398
  267MOL0     H36043   5.817   6.882   9.274  1.5709  3.1550 -3.3547
  267MOL0     H36044   5.877   6.786   9.136 -0.8867 -1.8207 -0.8974
  267MOL0     H36045   5.711   6.845   9.133 -0.6988 -2.1163 -0.5302
  268MOL0     O36046   4.792   6.812   9.689  0.0188 -0.3867  0.1102
  268MOL0     C36047   4.697   6.778   9.755 -0.9147 -0.1335 -0.1720
  268MOL0     O36048   4.690   6.776   9.890 -0.0041  0.0686  0.4044
  268MOL0     C36049   4.793   6.801   9.972 -0.2239 -0.8539 -0.3652
  268MOL0     C36050   4.743   6.835  10.104 -0.1349  0.5092  0.2599
  268MOL0     C36051   4.830   6.836  10.206 -0.3471 -0.5516 -0.6164
  268MOL0     C36052   4.967   6.819  10.181  0.9037  0.1635 -0.4707
  268MOL0     O36053   5.042   6.796  10.297  0.4543 -0.3667  0.1114
  268MOL0     C36054   5.179   6.832  10.293 -0.4250 -0.3134  0.3213
  268MOL0     C36055   5.226   6.850  10.446 -0.1556  0.6852 -0.5685
  268MOL0     C36056   5.366   6.898  10.473 -0.5582  0.0575 -0.3913
  268MOL0     C36057   5.480   6.819  10.404  1.0271  0.9854 -0.3793
  268MOL0     C36058   5.603   6.881  10.470 -0.1640 -0.0744  0.1964
  268MOL0     C36059   5.714   6.774  10.460  0.2020 -0.5765 -0.4807
  268MOL0     C36060   5.841   6.836  10.519 -0.5181 -0.7751 -0.1735
  268MOL0     C36061   5.937   6.729  10.555  0.3503  0.2053  0.4305
  268MOL0     N36062   6.072   6.789  10.572  0.2936 -0.2655  0.5352
  268MOL0     C36063   6.138   6.794  10.686 -0.0358  0.5593  0.0469
  268MOL0     C36064   6.266   6.847  10.657  0.4620 -0.3596  0.3832
  268MOL0     C36065   6.389   6.861  10.743  1.0360 -0.6300  0.6727
  268MOL0     C36066   6.435   7.001  10.783 -0.5157  0.5879  0.8228
  268MOL0     C36067   6.360   7.049  10.907  0.1060  0.2046 -0.2508
  268MOL0     C36068   6.428   7.175  10.987 -0.6278  1.0553  0.6485
  268MOL0     O36069   6.565   7.141  11.019  0.0751  0.4407 -0.7881
  268MOL0     C36070   6.668   7.216  10.969 -0.1356 -0.1377 -0.4400
  268MOL0     C36071   6.780   7.228  11.048 -0.2022 -0.5171  0.4462
  268MOL0     C36072   6.879   7.309  11.003 -0.2736  0.6129  0.3087
  268MOL0     C36073   6.862   7.380  10.882  0.0733  0.1043  0.2344
  268MOL0     C36074   6.965   7.474  10.838 -0.0656  0.1170  0.0345
  268MOL0     O36075   7.091   7.468  10.904 -0.2539 -0.0882  0.2044
  268MOL0     C36076   7.199   7.544  10.872 -0.1515 -0.1570 -0.5524
  268MOL0     C36077   7.252   7.556  10.744  0.7584 -0.5497  0.3089
  268MOL0     C36078   7.366   7.634  10.720 -0.9635  0.5626  0.9691
  268MOL0     C36079   7.432   7.703  10.830  0.5244  0.4896  0.0507
  268MOL0     O36080   7.555   7.764  10.827  0.2426  0.6933 -0.0541
  268MOL0     C36081   7.642   7.771  10.707 -0.5056  0.5681 -1.0570
  268MOL0     C36082   7.752   7.862  10.748  0.1567 -0.1236 -0.4227
  268MOL0     C36083   7.859   7.805  10.841 -0.3476  0.3332  0.1834
  268MOL0     C36084   7.963   7.907  10.884 -0.2482  0.3003  0.1670
  268MOL0     C36085   7.972   7.938  11.027  0.2551 -0.2738  0.3672
  268MOL0     C36086   7.846   7.987  11.092  0.2968  0.5133  0.1243
  268MOL0     C36087   7.847   7.983  11.236 -0.3065  0.0411 -0.7408
  268MOL0     C36088   7.708   7.974  11.298  0.3248  0.3592  0.5049
  268MOL0    Cl36089   7.714   7.979  11.477 -0.5038 -0.1090  0.2520
  268MOL0     C36090   7.378   7.685  10.960  0.6591 -1.1140  0.9904
  268MOL0     C36091   7.267   7.606  10.979 -0.2095  0.2692 -0.4535
  268MOL0     O36092   6.940   7.562  10.754 -0.0612 -0.7362 -0.2943
  268MOL0     C36093   6.750   7.369  10.804 -0.0296  0.6927  0.5332
  268MOL0     C36094   6.661   7.274  10.848  0.7127  0.0600  0.4499
  268MOL0     N36095   6.267   6.861  10.521  0.4618 -0.6090  0.0967
  268MOL0     N36096   6.152   6.834  10.472 -0.2616  0.1620  0.2883
  268MOL0     C36097   5.020   6.818  10.051 -0.0932  0.8307 -0.0726
  268MOL0     C36098   4.932   6.815   9.941 -0.6843  0.2918 -0.0956
  268MOL0     C36099   4.570   6.739   9.695  0.2612 -0.9453 -0.8446
  268MOL0     C36100   4.454   6.736   9.768  0.4700  1.1551 -0.6575
  268MOL0     C36101   4.335   6.712   9.708 -0.2981 -0.2320  0.2242
  268MOL0     C36102   4.325   6.674   9.574  0.1484  0.5135 -0.0769
  268MOL0     O36103   4.204   6.653   9.502 -0.5539  0.0385  0.4556
  268MOL0     C36104   4.082   6.644   9.574  0.5625 -0.0510 -0.3134
  268MOL0     C36105   3.960   6.618   9.491 -0.0041 -0.1520 -0.4627
  268MOL0     C36106   3.837   6.645   9.575 -0.4885  0.3260  0.9606
  268MOL0     C36107   3.700   6.605   9.513 -0.2350 -0.1764  0.8645
  268MOL0     C36108   3.593   6.608   9.608  0.1607  0.5484 -0.5268
  268MOL0     C36109   3.503   6.594   9.698 -0.0888 -0.6014  0.8651
  268MOL0     C36110   4.442   6.671   9.498 -0.3085 -0.5013 -0.3299
  268MOL0     C36111   4.559   6.711   9.561  0.1495  0.4522  0.1207
  268MOL0     C36112   4.674   6.694   9.469  0.1056  0.1761 -0.3161
  268MOL0     H36113   4.634   6.828  10.101 -0.1575  1.2101 -0.6604
  268MOL0     H36114   4.798   6.831  10.309  0.4482  0.7145 -0.2847
  268MOL0     H36115   5.241   6.758  10.242 -0.2585  0.7138 -0.9994
  268MOL0     H36116   5.193   6.930  10.248  2.2739  1.7966  4.9809
  268MOL0     H36117   5.222   6.752  10.494  0.4834  1.6634  1.6400
  268MOL0     H36118   5.156   6.915  10.499 -0.3082 -0.3408  0.5360
  268MOL0     H36119   5.384   6.897  10.580  0.5338 -1.5473 -0.5445
  268MOL0     H36120   5.375   7.002  10.440  3.8853  0.0309  0.1112
  268MOL0     H36121   5.468   6.711  10.418 -2.0444  0.7056 -3.7812
  268MOL0     H36122   5.477   6.821  10.295 -1.9406 -2.7786 -0.5825
  268MOL0     H36123   5.637   6.970  10.415 -2.4286  1.2771  0.8529
  268MOL0     H36124   5.597   6.906  10.576  5.8428 -0.2216  0.9139
  268MOL0     H36125   5.679   6.702  10.535  1.2249  0.5572  1.1529
  268MOL0     H36126   5.732   6.735  10.360  3.0187 -0.3774 -0.1234
  268MOL0     H36127   5.827   6.909  10.599  1.0290 -1.4353  0.7341
  268MOL0     H36128   5.896   6.889  10.441  1.1722 -2.6766 -0.3587
  268MOL0     H36129   5.903   6.673  10.643 -0.3262 -1.7268 -0.9746
  268MOL0     H36130   5.946   6.665  10.467  4.5988 -2.6051  2.5946
  268MOL0     H36131   6.096   6.768  10.783 -1.6426  1.1185 -0.4725
  268MOL0     H36132   6.363   6.807  10.834  1.1679  2.2222  2.5444
  268MOL0     H36133   6.474   6.805  10.703  0.6164 -1.6045  1.1075
  268MOL0     H36134   6.538   6.984  10.815 -1.0749 -2.7581  1.1917
  268MOL0     H36135   6.442   7.060  10.691  5.9628 -0.5371  0.0795
  268MOL0     H36136   6.361   6.969  10.982  3.1267  1.7935  1.6219
  268MOL0     H36137   6.253   7.064  10.890 -0.6212 -2.8129  1.0121
  268MOL0     H36138   6.373   7.183  11.080 -1.6957 -1.3477  0.3047
  268MOL0     H36139   6.422   7.262  10.921 -3.1001  1.2093  0.9954
  268MOL0     H36140   6.783   7.178  11.145 -3.1940 -0.6891  0.5518
  268MOL0     H36141   6.970   7.335  11.056 -1.7160  1.2341  2.6474
  268MOL0     H36142   7.199   7.511  10.660 -0.4212  1.1741  0.0765
  268MOL0     H36143   7.416   7.652  10.625  0.8083 -3.3174  0.9742
  268MOL0     H36144   7.695   7.680  10.678  4.6546  2.9456 -0.3037
  268MOL0     H36145   7.590   7.812  10.619  1.4207 -0.3378 -2.7067
  268MOL0     H36146   7.800   7.920  10.669 -0.5305 -0.7759 -1.3388
  268MOL0     H36147   7.716   7.937  10.819  0.8576 -0.3863  0.2381
  268MOL0     H36148   7.813   7.753  10.926 -0.4421 -0.1556 -0.1662
  268MOL0     H36149   7.913   7.728  10.785  0.6476  1.3626 -0.3237
  268MOL0     H36150   7.939   7.998  10.827 -0.2736  0.1562 -0.0514
  268MOL0     H36151   8.062   7.879  10.847 -1.2339  0.1964 -2.6458
  268MOL0     H36152   8.057   8.003  11.053 -0.5401  0.1271  2.1540
  268MOL0     H36153   7.994   7.844  11.077  4.0066 -1.5140 -3.1236
  268MOL0     H36154   7.820   8.090  11.066 -1.5933  0.8750  2.9672
  268MOL0     H36155   7.756   7.930  11.062  1.8913 -1.9257 -0.3691
  268MOL0     H36156   7.895   8.072  11.278 -1.8652  0.0359  1.1739
  268MOL0     H36157   7.902   7.896  11.274 -1.0823  0.1527  0.7284
  268MOL0     H36158   7.651   8.061  11.263  0.2176  0.9509  2.0667
  268MOL0     H36159   7.658   7.880  11.273 -0.0686 -0.1274  2.8518
  268MOL0     H36160   7.426   7.723  11.050  2.2454 -0.2795 -0.1634
  268MOL0     H36161   7.222   7.596  11.077  1.3035  0.5776  0.3006
  268MOL0     H36162   6.737   7.435  10.719  4.0177  1.7901  0.5722
  268MOL0     H36163   6.571   7.255  10.790  0.6543 -0.1670  0.6147
  268MOL0     H36164   5.124   6.793  10.032 -0.3760  1.4596 -3.0453
  268MOL0     H36165   4.971   6.801   9.841 -0.3781 -0.0326  0.0689
  268MOL0     H36166   4.468   6.725   9.876 -0.5421 -0.0163 -0.6215
  268MOL0     H36167   4.248   6.730   9.770 -0.7675  1.1611 -0.8043
  268MOL0     H36168   4.070   6.741   9.623 -1.2152  0.3893 -1.5462
  268MOL0     H36169   4.083   6.567   9.651 -3.8537 -0.9836 -0.9673
  268MOL0     H36170   3.977   6.513   9.465 -1.2036 -0.8225  1.2595
  268MOL0     H36171   3.958   6.685   9.404 -0.6980 -0.6374 -0.8282
  268MOL0     H36172   3.827   6.746   9.617 -1.2985  1.1962 -1.2023
  268MOL0     H36173   3.842   6.578   9.661 -0.9298 -1.9443 -0.7053
  268MOL0     H36174   3.672   6.664   9.426  0.1420 -1.2737 -0.0285
  268MOL0     H36175   3.702   6.502   9.474  1.7141 -0.0732  0.5804
  268MOL0     H36176   3.424   6.594   9.770 -2.9316 -0.0831 -1.9958
  268MOL0     H36177   4.427   6.660   9.391  0.8752 -2.0007 -0.3701
  268MOL0     H36178   4.733   6.605   9.494  0.2330 -0.2499 -1.9727
  268MOL0     H36179   4.644   6.668   9.367  3.2308 -1.7779 -0.8813
  268MOL0     H36180   4.726   6.789   9.465  0.8980 -0.1891  0.9158
  269MOL0     O36181   2.510   8.560   6.765  0.0090  0.1913 -0.3303
  269MOL0     C36182   2.501   8.524   6.650  0.4558  0.6977  1.1825
  269MOL0     O36183   2.576   8.566   6.542  0.3541  0.6610 -0.2739
  269MOL0     C36184   2.683   8.649   6.574  0.4249 -0.7820 -0.2148
  269MOL0     C36185   2.806   8.585   6.594 -0.6986 -0.0773  0.8683
  269MOL0     C36186   2.917   8.663   6.631  0.5576 -0.2450 -0.1059
  269MOL0     C36187   2.907   8.805   6.632 -0.5781  0.1910 -0.8727
  269MOL0     O36188   3.008   8.889   6.662 -1.1874 -0.2862  0.1994
  269MOL0     C36189   3.147   8.822   6.659  0.2923 -0.3403  0.2641
  269MOL0     C36190   3.256   8.939   6.685  0.3194  0.2246 -0.0298
  269MOL0     C36191   3.376   8.882   6.764 -0.0641 -0.7574 -0.1335
  269MOL0     C36192   3.453   8.758   6.707  0.0933  0.0738 -0.1065
  269MOL0     C36193   3.572   8.718   6.796  0.7112 -0.3300  0.7273
  269MOL0     C36194   3.700   8.810   6.789 -0.6276 -0.5317  0.5896
  269MOL0     C36195   3.786   8.794   6.911  0.3817  0.6248 -0.0173
  269MOL0     C36196   3.854   8.660   6.943  0.1194  1.2534 -0.2898
  269MOL0     N36197   3.960   8.621   6.841  0.2898 -0.0250  1.0061
  269MOL0     C36198   3.943   8.534   6.733 -0.3046 -0.0302  0.4797
  269MOL0     C36199   4.068   8.527   6.688 -0.6735  0.7428  0.5913
  269MOL0     C36200   4.112   8.461   6.556  0.5586 -0.0033 -0.3641
  269MOL0     C36201   4.255   8.418   6.558 -0.5421  0.6157 -0.2297
  269MOL0     C36202   4.266   8.280   6.615  0.2112 -0.2326 -0.6582
  269MOL0     C36203   4.363   8.186   6.569 -1.0173 -0.1093 -0.3374
  269MOL0     O36204   4.323   8.124   6.443 -0.1406 -0.6164 -0.6883
  269MOL0     C36205   4.434   8.103   6.361  0.2176 -0.9631 -0.3809
  269MOL0     C36206   4.459   8.187   6.258 -0.1834 -0.1116  0.2385
  269MOL0     C36207   4.569   8.162   6.177 -0.8037  0.4066 -0.2374
  269MOL0     C36208   4.670   8.065   6.217 -0.6552 -0.3587 -0.0461
  269MOL0     C36209   4.799   8.068   6.145  0.6385 -0.2077 -0.0679
  269MOL0     O36210   4.815   8.142   6.026  0.4331 -0.1996  0.3784
  269MOL0     C36211   4.914   8.120   5.936  1.0178  0.6061 -0.1902
  269MOL0     C36212   5.037   8.089   5.968 -0.1251 -0.4657 -0.0728
  269MOL0     C36213   5.134   8.064   5.874  0.5708  0.4124 -1.3419
  269MOL0     C36214   5.098   8.053   5.740  0.3400  0.3045  0.2924
  269MOL0     O36215   5.194   8.012   5.646 -0.4977  0.1638  0.2569
  269MOL0     C36216   5.308   7.943   5.697 -0.2526  0.6822  0.6890
  269MOL0     C36217   5.387   7.914   5.569 -0.1301 -1.1925  0.2144
  269MOL0     C36218   5.496   7.802   5.586  0.1618 -0.3532 -0.9512
  269MOL0     C36219   5.609   7.830   5.479  0.0521 -1.4458  0.4428
  269MOL0     C36220   5.716   7.920   5.560 -0.0600  0.5637  0.5720
  269MOL0     C36221   5.805   7.980   5.451  0.1114  0.4884  0.1121
  269MOL0     C36222   5.884   8.106   5.510 -0.3043 -0.9457  0.0059
  269MOL0     C36223   5.990   8.150   5.410  0.1450  0.2282 -0.2203
  269MOL0    Cl36224   6.141   8.049   5.435  0.4316 -0.2558  0.0065
  269MOL0     C36225   4.967   8.075   5.699  0.2377 -0.1736 -0.5925
  269MOL0     C36226   4.870   8.104   5.798 -0.8504 -0.4995  0.2227
  269MOL0     O36227   4.868   7.976   6.190 -0.4036  0.0441 -0.2615
  269MOL0     C36228   4.643   7.980   6.321 -0.2517 -1.3006 -0.2330
  269MOL0     C36229   4.526   7.997   6.387  1.0151  0.2490  0.9897
  269MOL0     N36230   4.157   8.596   6.768  0.1834  0.2481  0.1610
  269MOL0     N36231   4.085   8.655   6.859 -0.5573  0.5402  0.0687
  269MOL0     C36232   2.789   8.864   6.601 -0.3358  0.4984 -0.4866
  269MOL0     C36233   2.676   8.788   6.572  0.3188  0.0671  0.5456
  269MOL0     C36234   2.397   8.423   6.618  0.0946  0.3835 -0.5240
  269MOL0     C36235   2.399   8.365   6.493 -0.3325  0.7961  0.3367
  269MOL0     C36236   2.304   8.272   6.453  0.6965 -0.1067  0.7268
  269MOL0     C36237   2.192   8.245   6.528  0.1464 -0.6353  0.2332
  269MOL0     O36238   2.090   8.171   6.470  0.1419  0.2105  0.5565
  269MOL0     C36239   1.976   8.147   6.554  0.6267  0.0675 -0.3647
  269MOL0     C36240   1.868   8.066   6.477  0.8889  0.0108 -0.6244
  269MOL0     C36241   1.777   7.984   6.571 -0.5190 -0.3051  0.1235
  269MOL0     C36242   1.683   7.877   6.494  0.4948 -0.7282 -0.9380
  269MOL0     C36243   1.611   7.798   6.598  0.3422 -0.0753  0.3222
  269MOL0     C36244   1.545   7.737   6.682  0.8724  0.2829  0.2635
  269MOL0     C36245   2.194   8.303   6.661  0.2249 -0.2457  0.5986
  269MOL0     C36246   2.295   8.380   6.709  0.1891  0.0709 -0.7232
  269MOL0     C36247   2.279   8.438   6.855 -0.2838 -0.0923  0.7975
  269MOL0     H36248   2.807   8.477   6.583 -3.5974 -0.1161  0.3472
  269MOL0     H36249   3.013   8.622   6.664 -1.4072 -2.5238  3.5646
  269MOL0     H36250   3.165   8.754   6.742  0.3843 -0.1540  0.3982
  269MOL0     H36251   3.170   8.767   6.567  2.6959  1.7587 -0.4994
  269MOL0     H36252   3.216   9.017   6.751  3.5640  1.4493  0.6933
  269MOL0     H36253   3.283   8.975   6.586 -3.5452  0.3687 -1.1972
  269MOL0     H36254   3.325   8.858   6.858 -2.9601  0.6753 -1.1978
  269MOL0     H36255   3.451   8.958   6.790  1.9584 -2.4693 -0.7146
  269MOL0     H36256   3.394   8.666   6.709  3.8089 -2.6040 -0.6425
  269MOL0     H36257   3.481   8.769   6.601 -0.2157 -0.4798 -0.2464
  269MOL0     H36258   3.541   8.726   6.900 -2.2473  3.6944 -0.2373
  269MOL0     H36259   3.598   8.614   6.773  1.4082 -0.0276  0.0626
  269MOL0     H36260   3.752   8.790   6.695 -1.8612  0.4766 -0.3460
  269MOL0     H36261   3.664   8.913   6.796  0.4082 -0.1117 -0.0196
  269MOL0     H36262   3.729   8.815   7.002 -0.6440  0.2984 -0.5692
  269MOL0     H36263   3.853   8.881   6.914  0.0078  0.9275 -0.3372
  269MOL0     H36264   3.906   8.664   7.039  1.5185 -2.5899 -0.6917
  269MOL0     H36265   3.773   8.587   6.950 -1.2610  2.6382 -1.2258
  269MOL0     H36266   3.857   8.484   6.689  0.1617  0.8354 -1.5559
  269MOL0     H36267   4.047   8.377   6.529  0.0831 -0.0834  0.9414
  269MOL0     H36268   4.120   8.540   6.482  1.6473 -0.0453 -0.3085
  269MOL0     H36269   4.300   8.393   6.462  2.8031 -0.7788  1.5399
  269MOL0     H36270   4.316   8.498   6.601 -0.7198  1.7692 -2.0167
  269MOL0     H36271   4.171   8.232   6.589  1.4744 -1.3033 -3.6953
  269MOL0     H36272   4.272   8.293   6.723  1.6090  1.3513 -0.8948
  269MOL0     H36273   4.382   8.112   6.646  0.7070  0.0850 -0.5202
  269MOL0     H36274   4.463   8.231   6.560 -0.7661 -0.5222  0.3544
  269MOL0     H36275   4.391   8.262   6.220 -1.2347 -1.5889 -0.9598
  269MOL0     H36276   4.586   8.225   6.090 -1.9349 -0.4994 -1.1528
  269MOL0     H36277   5.069   8.077   6.071  0.4078  0.6202 -0.0907
  269MOL0     H36278   5.239   8.062   5.902  0.7581 -0.8389 -2.0294
  269MOL0     H36279   5.378   8.007   5.752  0.4788  2.2002 -1.8354
  269MOL0     H36280   5.284   7.846   5.742  0.8720  0.1856  0.2444
  269MOL0     H36281   5.310   7.903   5.492 -2.8746  0.4588  2.4974
  269MOL0     H36282   5.435   8.010   5.547 -0.9747 -0.9715 -0.7356
  269MOL0     H36283   5.553   7.801   5.679  1.3972 -0.0413 -1.6892
  269MOL0     H36284   5.449   7.703   5.573 -0.4398 -0.7005  2.6617
  269MOL0     H36285   5.563   7.881   5.395  0.2571 -1.8477  0.0828
  269MOL0     H36286   5.660   7.739   5.445  0.1867 -0.8429 -1.0375
  269MOL0     H36287   5.776   7.860   5.629  0.2857  1.4223  1.0234
  269MOL0     H36288   5.675   8.008   5.610  0.6771  1.4361 -0.3485
  269MOL0     H36289   5.880   7.911   5.412  1.8303  0.9925  2.3254
  269MOL0     H36290   5.746   8.007   5.363 -0.3716 -0.2135  0.2028
  269MOL0     H36291   5.918   8.083   5.611 -0.3867  0.0482  0.2800
  269MOL0     H36292   5.817   8.193   5.518  0.6870  0.2525 -3.3545
  269MOL0     H36293   5.961   8.153   5.304  1.2642  0.9265 -0.5181
  269MOL0     H36294   6.018   8.250   5.443 -0.6285 -0.0726  1.4071
  269MOL0     H36295   4.939   8.056   5.595  0.3819  1.3836 -0.9349
  269MOL0     H36296   4.765   8.102   5.771 -0.8574 -2.6832  0.1869
  269MOL0     H36297   4.708   7.899   6.350  0.4722 -0.6356  0.0451
  269MOL0     H36298   4.503   7.920   6.460  1.7177 -2.9584 -1.8796
  269MOL0     H36299   2.784   8.973   6.599  1.6298  0.6189 -1.0482
  269MOL0     H36300   2.584   8.842   6.553 -0.1205 -0.2528  1.6873
  269MOL0     H36301   2.481   8.379   6.423  1.1123  0.6096  1.9121
  269MOL0     H36302   2.301   8.221   6.357 -2.1623 -1.8976  1.6217
  269MOL0     H36303   1.933   8.242   6.587  1.2409  0.0192  0.6355
  269MOL0     H36304   2.001   8.100   6.650  0.6608 -0.6084 -0.7008
  269MOL0     H36305   1.918   7.994   6.413  3.2833 -0.6823  1.8358
  269MOL0     H36306   1.814   8.132   6.409  1.7296 -0.5618 -1.8623
  269MOL0     H36307   1.716   8.062   6.617  1.6703  2.9249 -2.0305
  269MOL0     H36308   1.840   7.939   6.648 -0.8517  0.3025  0.7620
  269MOL0     H36309   1.609   7.928   6.433  1.1533 -0.4346 -1.4993
  269MOL0     H36310   1.739   7.805   6.434  1.3121 -1.3946  0.5439
  269MOL0     H36311   1.484   7.685   6.753 -1.8793  1.7332 -0.8843
  269MOL0     H36312   2.109   8.288   6.726  0.9718 -0.8244  1.4630
  269MOL0     H36313   2.361   8.418   6.924 -1.5020 -3.0842  1.5530
  269MOL0     H36314   2.268   8.544   6.830  1.4518 -0.0371  0.1204
  269MOL0     H36315   2.178   8.411   6.890 -1.2670 -1.2699 -2.5287
  270MOL0     O36316   2.000   9.487   6.062  0.2147 -0.7737 -0.6448
  270MOL0     C36317   1.961   9.570   5.974 -0.7624 -0.6904  0.0941
  270MOL0     O36318   2.014   9.700   5.948 -0.0932  0.3205 -0.9290
  270MOL0     C36319   2.081   9.758   6.050 -0.8795  0.0998 -0.0701
  270MOL0     C36320   2.198   9.819   6.013 -0.2794 -1.1430 -0.1362
  270MOL0     C36321   2.283   9.879   6.114 -0.1314  0.7207  0.6803
  270MOL0     C36322   2.253   9.870   6.249 -0.5111  0.7886  0.2865
  270MOL0     O36323   2.331   9.922   6.347 -0.3565  0.5898  0.0507
  270MOL0     C36324   2.459   9.972   6.322  0.1058 -0.0742 -0.1159
  270MOL0     C36325   2.487  10.044   6.451 -0.5251  0.7911  0.0316
  270MOL0     C36326   2.622  10.107   6.465 -0.1086 -0.7858  0.3322
  270MOL0     C36327   2.629  10.141   6.612 -0.0443 -0.2519  0.4702
  270MOL0     C36328   2.773  10.206   6.630  0.1682 -0.2914  0.1510
  270MOL0     C36329   2.789  10.343   6.557 -0.2793 -0.0372  0.7752
  270MOL0     C36330   2.888  10.441   6.628 -0.3953  0.7785 -0.0399
  270MOL0     C36331   3.029  10.382   6.644  0.1010 -0.2737  1.3729
  270MOL0     N36332   3.111  10.465   6.726  0.3902 -1.1625 -0.5178
  270MOL0     C36333   3.186  10.575   6.684 -0.7934 -1.0685  0.5197
  270MOL0     C36334   3.242  10.616   6.794  0.2685 -0.0845 -0.0065
  270MOL0     C36335   3.344  10.727   6.795 -0.2851  0.5340 -0.0302
  270MOL0     C36336   3.481  10.680   6.769  0.4606 -0.5985 -0.2439
  270MOL0     C36337   3.512  10.619   6.627  0.4995 -0.0799 -0.7183
  270MOL0     C36338   3.649  10.657   6.562  0.6927 -0.5775 -0.4385
  270MOL0     O36339   3.742  10.580   6.635  0.1193  0.3133  0.2455
  270MOL0     C36340   3.873  10.609   6.599 -0.0327 -0.5429  0.5883
  270MOL0     C36341   3.971  10.602   6.691  0.1388 -0.3008 -0.3854
  270MOL0     C36342   4.104  10.623   6.664  0.1882 -0.0032  0.4634
  270MOL0     C36343   4.146  10.648   6.532  0.3691 -0.7379  0.3871
  270MOL0     C36344   4.286  10.675   6.493  1.0935  0.3767  0.0256
  270MOL0     O36345   4.370  10.739   6.584  0.0054 -0.3315  0.1706
  270MOL0     C36346   4.502  10.702   6.566  0.0949  0.5526 -0.2228
  270MOL0     C36347   4.586  10.788   6.496 -0.6182 -0.2758 -0.4770
  270MOL0     C36348   4.727  10.759   6.481  0.8209 -0.2746 -0.4032
  270MOL0     C36349   4.778  10.651   6.548  0.5789  0.1224 -0.5294
  270MOL0     O36350   4.916  10.649   6.545  0.2939 -0.5361 -0.2400
  270MOL0     C36351   4.978  10.526   6.574  0.3096 -0.8942  0.5688
  270MOL0     C36352   5.122  10.519   6.518  0.9540 -0.7132  0.2010
  270MOL0     C36353   5.221  10.609   6.590  0.1280 -0.2769 -0.0524
  270MOL0     C36354   5.204  10.620   6.739  0.2085  0.0560 -0.1812
  270MOL0     C36355   5.327  10.679   6.809  0.5837  0.9132 -0.1528
  270MOL0     C36356   5.357  10.823   6.764  0.0264  0.4203  0.0725
  270MOL0     C36357   5.481  10.866   6.838 -0.4225 -0.4915 -0.1061
  270MOL0     C36358   5.536  10.986   6.771 -0.6006  0.5205 -0.5433
  270MOL0    Cl36359   5.433  11.118   6.836 -0.3880  0.1648 -0.2585
  270MOL0     C36360   4.695  10.575   6.633  0.2601 -0.0079 -1.3909
  270MOL0     C36361   4.555  10.594   6.635  0.6668 -0.7037  0.1618
  270MOL0     O36362   4.321  10.629   6.386  0.7575 -0.1548 -0.5274
  270MOL0     C36363   4.045  10.651   6.433 -0.4304  0.0276 -0.0352
  270MOL0     C36364   3.908  10.631   6.467  0.8378 -0.0868 -1.2126
  270MOL0     N36365   3.187  10.552   6.902 -0.0524 -0.3748 -0.3012
  270MOL0     N36366   3.103  10.462   6.861  0.1412 -0.1456 -0.0578
  270MOL0     C36367   2.124   9.826   6.283 -0.5773  0.3603  0.3591
  270MOL0     C36368   2.045   9.764   6.186  0.6198 -0.6493 -0.8500
  270MOL0     C36369   1.829   9.529   5.927  0.6512  0.3674  1.1199
  270MOL0     C36370   1.815   9.407   5.851 -0.4854  0.8786 -0.0160
  270MOL0     C36371   1.703   9.369   5.790 -0.4261 -0.1396  0.0653
  270MOL0     C36372   1.586   9.451   5.783 -0.0328  0.5308 -0.5650
  270MOL0     O36373   1.467   9.410   5.716  1.4387 -0.2861 -0.5287
  270MOL0     C36374   1.438   9.269   5.726 -0.0999  0.0792  0.0421
  270MOL0     C36375   1.289   9.249   5.765  0.1270  0.5291 -0.4103
  270MOL0     C36376   1.188   9.322   5.670  0.5609 -0.1549  0.7939
  270MOL0     C36377   1.146   9.248   5.534 -0.1558 -0.2655 -0.5663
  270MOL0     C36378   1.076   9.122   5.556 -1.1121  0.3561 -0.0600
  270MOL0     C36379   1.038   9.007   5.579  1.3788 -0.6403 -0.2395
  270MOL0     C36380   1.604   9.577   5.845 -0.7426 -0.1269  0.7676
  270MOL0     C36381   1.721   9.620   5.911 -0.7964 -0.4844 -0.5666
  270MOL0     C36382   1.724   9.755   5.970 -0.6751  0.4033 -1.0192
  270MOL0     H36383   2.225   9.802   5.910  0.5392 -5.9510  0.6205
  270MOL0     H36384   2.369   9.925   6.066 -0.1140 -1.2483 -1.3843
  270MOL0     H36385   2.535   9.894   6.314  1.4244  1.2103 -0.5955
  270MOL0     H36386   2.458  10.052   6.247 -3.4607  3.7890  3.5067
  270MOL0     H36387   2.467   9.965   6.525  1.4156  0.0378 -0.1849
  270MOL0     H36388   2.405  10.116   6.457 -0.2848  1.6006 -3.9078
  270MOL0     H36389   2.624  10.201   6.409 -0.3971 -0.7682  0.3513
  270MOL0     H36390   2.709  10.049   6.433  0.6265  1.4254 -2.1258
  270MOL0     H36391   2.548  10.209   6.639  1.3777  1.2785  0.9864
  270MOL0     H36392   2.613  10.056   6.680  0.5320  0.4186  1.4567
  270MOL0     H36393   2.776  10.229   6.737  0.6189 -0.6494  0.2217
  270MOL0     H36394   2.854  10.133   6.619 -0.7499 -1.4942  1.0002
  270MOL0     H36395   2.832  10.346   6.456  1.1609  0.1606  1.3693
  270MOL0     H36396   2.690  10.389   6.546 -0.6358 -0.8504  0.5258
  270MOL0     H36397   2.854  10.452   6.731 -0.8617  1.0739 -0.2192
  270MOL0     H36398   2.892  10.537   6.574 -0.0943 -0.1459 -1.7554
  270MOL0     H36399   3.017  10.288   6.698 -0.9918 -1.8609 -1.4423
  270MOL0     H36400   3.072  10.372   6.544  0.2647  0.2101  1.3928
  270MOL0     H36401   3.202  10.606   6.581  0.3456 -3.5860 -0.1472
  270MOL0     H36402   3.312  10.808   6.729  0.6201  0.4136 -0.6365
  270MOL0     H36403   3.343  10.773   6.894 -0.7717 -3.5183  2.0275
  270MOL0     H36404   3.550  10.763   6.783  1.6033 -1.6057  0.3323
  270MOL0     H36405   3.507  10.600   6.839  1.8292 -0.8270 -0.9663
  270MOL0     H36406   3.433  10.641   6.555 -1.2797 -2.9389  0.2033
  270MOL0     H36407   3.502  10.512   6.646  3.7823 -0.4747 -0.5433
  270MOL0     H36408   3.669  10.765   6.569  2.7352 -1.0010  1.4827
  270MOL0     H36409   3.647  10.627   6.457  0.9277 -1.3935 -0.2138
  270MOL0     H36410   3.949  10.564   6.791 -0.6629 -0.5473 -0.6448
  270MOL0     H36411   4.178  10.613   6.743  2.3357 -0.9468 -1.5472
  270MOL0     H36412   4.540  10.881   6.467  3.0004  2.0021  0.4774
  270MOL0     H36413   4.790  10.825   6.423 -0.5320  0.1605 -1.4220
  270MOL0     H36414   4.976  10.499   6.680 -0.3014 -1.4667  0.4205
  270MOL0     H36415   4.916  10.445   6.535  2.4885 -1.6824 -1.4733
  270MOL0     H36416   5.161  10.418   6.535  2.1296 -0.1156  1.2016
  270MOL0     H36417   5.113  10.535   6.410  0.8880 -0.6988  0.2086
  270MOL0     H36418   5.323  10.573   6.574  0.1050 -0.1277 -0.5400
  270MOL0     H36419   5.226  10.714   6.559  2.0993  0.0614  1.2137
  270MOL0     H36420   5.197  10.520   6.782  0.7585  0.2907  0.4827
  270MOL0     H36421   5.114  10.672   6.775 -0.7590 -1.5269 -0.2041
  270MOL0     H36422   5.412  10.615   6.785  2.5626  3.7854 -1.3717
  270MOL0     H36423   5.302  10.679   6.916 -0.5377  0.2388 -0.3973
  270MOL0     H36424   5.379  10.819   6.657  1.4738  0.5394  0.3378
  270MOL0     H36425   5.267  10.877   6.793  0.1812  0.2054  0.9642
  270MOL0     H36426   5.559  10.790   6.830  2.1795  2.1002 -1.1055
  270MOL0     H36427   5.446  10.880   6.941 -0.3839 -1.4240  0.0426
  270MOL0     H36428   5.643  10.995   6.792 -0.4103  0.4828 -1.4556
  270MOL0     H36429   5.519  10.968   6.664 -3.6134 -1.2094  0.0875
  270MOL0     H36430   4.744  10.508   6.703 -0.7642  2.6289  2.2226
  270MOL0     H36431   4.492  10.528   6.694  0.3456 -0.2173  0.3679
  270MOL0     H36432   4.067  10.679   6.330 -1.2184  0.1702 -0.1702
  270MOL0     H36433   3.848  10.641   6.377 -0.6413  3.0819 -0.0392
  270MOL0     H36434   2.100   9.821   6.388  1.7248 -0.6184  0.9104
  270MOL0     H36435   1.956   9.709   6.214  0.2702  0.4528  0.3112
  270MOL0     H36436   1.901   9.341   5.858 -0.8070  0.3918 -0.5733
  270MOL0     H36437   1.709   9.268   5.749 -0.8852  0.2734 -1.0488
  270MOL0     H36438   1.502   9.225   5.804 -0.4303  1.1481  0.9447
  270MOL0     H36439   1.469   9.224   5.631 -0.6874  0.9629 -0.5846
  270MOL0     H36440   1.270   9.284   5.866 -0.7724  0.2902 -0.4912
  270MOL0     H36441   1.275   9.141   5.775 -0.4619  0.7885  2.1876
  270MOL0     H36442   1.227   9.422   5.648 -2.4452  1.5059  2.4681
  270MOL0     H36443   1.088   9.332   5.712 -0.3989 -1.8797 -0.9102
  270MOL0     H36444   1.074   9.317   5.489 -0.8237 -1.7993 -1.9538
  270MOL0     H36445   1.235   9.242   5.471 -0.5638  1.5502 -1.3839
  270MOL0     H36446   0.994   8.916   5.614  3.9358 -0.3182  4.7680
  270MOL0     H36447   1.520   9.641   5.823  0.3933  0.9198 -0.7412
  270MOL0     H36448   1.634   9.785   6.026 -0.9302  2.2350 -2.3059
  270MOL0     H36449   1.805   9.765   6.043 -0.0479  1.6704 -1.8444
  270MOL0     H36450   1.742   9.835   5.898 -1.2217  1.8715  0.4067
  271MOL0     O36451   3.140   7.027   6.899 -0.7015  0.6364 -0.4535
  271MOL0     C36452   3.089   7.011   7.008 -0.0229  0.1518  0.3478
  271MOL0     O36453   3.142   6.942   7.109  0.4602  1.1237  0.4346
  271MOL0     C36454   3.257   6.866   7.094 -0.3406 -0.1385 -0.0170
  271MOL0     C36455   3.368   6.885   7.182  0.8925  0.2289  0.0855
  271MOL0     C36456   3.485   6.808   7.179 -0.1920 -0.1400  0.0712
  271MOL0     C36457   3.493   6.710   7.075 -0.1097  0.2981  0.1677
  271MOL0     O36458   3.603   6.623   7.060  0.4769 -0.1164  0.0883
  271MOL0     C36459   3.725   6.693   7.050  0.4261 -0.3876  0.2488
  271MOL0     C36460   3.835   6.607   6.999  0.5348  0.1532 -0.2377
  271MOL0     C36461   3.966   6.682   6.976 -0.2667  0.2560 -0.5705
  271MOL0     C36462   4.059   6.599   6.883 -0.2894  0.3151 -0.5644
  271MOL0     C36463   4.192   6.666   6.859  0.3564 -0.3101  0.7160
  271MOL0     C36464   4.277   6.594   6.756  0.4753  0.0399 -0.9265
  271MOL0     C36465   4.398   6.680   6.732  0.1580  0.6934 -0.0816
  271MOL0     C36466   4.529   6.597   6.742  0.1014 -0.4885  0.1116
  271MOL0     N36467   4.556   6.564   6.880  0.1778  0.5759 -0.5507
  271MOL0     C36468   4.647   6.626   6.955 -0.6894 -0.4712  0.4938
  271MOL0     C36469   4.700   6.529   7.034  0.2005 -0.6869 -0.4074
  271MOL0     C36470   4.815   6.552   7.123 -0.2875 -0.5267 -1.0004
  271MOL0     C36471   4.774   6.657   7.236 -0.1512 -0.0834 -0.8484
  271MOL0     C36472   4.875   6.644   7.355 -0.0228  0.4505  0.3910
  271MOL0     C36473   4.895   6.777   7.433  0.1343 -0.2686 -0.7502
  271MOL0     O36474   4.971   6.869   7.347  0.1154  0.2243  0.1554
  271MOL0     C36475   5.105   6.873   7.341 -0.1915  0.0554  0.2958
  271MOL0     C36476   5.192   6.791   7.420 -0.3623  0.2861  0.6112
  271MOL0     C36477   5.327   6.807   7.419  0.3228  0.1561 -0.4175
  271MOL0     C36478   5.392   6.899   7.330  0.2987  0.4425 -0.4962
  271MOL0     C36479   5.535   6.929   7.339 -0.5071  0.4427 -0.3001
  271MOL0     O36480   5.582   7.033   7.272  0.0855  0.1357  0.4895
  271MOL0     C36481   5.717   7.072   7.295 -0.2311  0.4626  0.5234
  271MOL0     C36482   5.827   6.984   7.291 -0.6918  0.1873  0.7037
  271MOL0     C36483   5.962   7.023   7.299 -1.1303  0.7065 -0.3568
  271MOL0     C36484   5.990   7.156   7.323 -0.6505 -0.2046  0.0032
  271MOL0     O36485   6.119   7.196   7.331 -0.0797 -0.1673  0.4421
  271MOL0     C36486   6.154   7.339   7.325 -0.3487  0.5373 -0.9730
  271MOL0     C36487   6.130   7.407   7.194 -0.2684 -0.1855  0.2098
  271MOL0     C36488   6.119   7.559   7.216 -0.4603 -0.3024 -0.9679
  271MOL0     C36489   6.100   7.625   7.080 -0.4042 -0.8730 -0.1907
  271MOL0     C36490   6.225   7.666   7.000 -0.7505 -0.8021  1.2305
  271MOL0     C36491   6.342   7.729   7.075 -0.0008  0.4725  0.2237
  271MOL0     C36492   6.469   7.776   6.997 -0.4914 -0.1331 -0.5520
  271MOL0     C36493   6.538   7.663   6.925  0.1396  0.3070  0.5512
  271MOL0    Cl36494   6.685   7.705   6.827  0.0061  0.1118  0.1765
  271MOL0     C36495   5.882   7.249   7.349 -1.0027  0.6203  0.1335
  271MOL0     C36496   5.749   7.203   7.335 -0.0010 -0.1384  1.1876
  271MOL0     O36497   5.599   6.854   7.416 -0.9511  0.5009 -0.1529
  271MOL0     C36498   5.313   6.970   7.247  0.3304 -0.1978  0.4113
  271MOL0     C36499   5.167   6.962   7.250 -0.0352 -0.3900 -0.0442
  271MOL0     N36500   4.635   6.412   7.009  0.2956 -0.0897 -0.6266
  271MOL0     N36501   4.540   6.437   6.919  0.4059 -0.1286 -0.8745
  271MOL0     C36502   3.383   6.681   6.992  0.1738  0.4539 -0.0337
  271MOL0     C36503   3.258   6.758   7.002  0.7456 -0.5258  0.5657
  271MOL0     C36504   2.965   7.088   7.046 -0.0903  0.1676 -1.1297
  271MOL0     C36505   2.939   7.116   7.181  0.1949  0.6056  0.6651
  271MOL0     C36506   2.824   7.168   7.226  0.1554 -0.2622  0.2107
  271MOL0     C36507   2.724   7.204   7.140  0.1258  0.8941 -0.2898
  271MOL0     O36508   2.607   7.232   7.199 -0.5834  0.4451  0.2587
  271MOL0     C36509   2.494   7.180   7.118 -0.0696 -0.1916  1.3663
  271MOL0     C36510   2.371   7.208   7.209 -0.3639  0.2704  0.7829
  271MOL0     C36511   2.285   7.329   7.177 -0.2427  0.3081 -0.5704
  271MOL0     C36512   2.363   7.460   7.219 -0.1214  1.3363 -0.4376
  271MOL0     C36513   2.261   7.569   7.202  0.1309 -0.1422  0.3709
  271MOL0     C36514   2.172   7.649   7.173 -0.0090  0.2392  0.3621
  271MOL0     C36515   2.753   7.199   7.005 -0.4245 -0.1568 -0.3138
  271MOL0     C36516   2.870   7.145   6.955 -0.3648  0.6097  0.3406
  271MOL0     C36517   2.886   7.165   6.806  0.3964  0.1578 -0.3780
  271MOL0     H36518   3.357   6.966   7.253  3.9216  0.0690  0.8705
  271MOL0     H36519   3.558   6.820   7.257 -0.3061 -0.6706  0.2601
  271MOL0     H36520   3.721   6.773   6.975  1.2578 -2.5477 -2.2761
  271MOL0     H36521   3.746   6.732   7.150  0.2673 -2.9410  1.3637
  271MOL0     H36522   3.805   6.556   6.907  0.1341 -2.4005  1.2118
  271MOL0     H36523   3.848   6.529   7.075 -3.3031 -2.1770 -1.7090
  271MOL0     H36524   4.013   6.692   7.075 -1.2119  1.6338 -0.2314
  271MOL0     H36525   3.958   6.780   6.930 -0.5598  0.4035 -0.2087
  271MOL0     H36526   4.075   6.505   6.935  1.1336  1.1692  0.6146
  271MOL0     H36527   4.005   6.579   6.790  0.4752 -2.0481 -0.5570
  271MOL0     H36528   4.157   6.763   6.825  2.2492  0.6099  1.2735
  271MOL0     H36529   4.250   6.678   6.950  1.3013  1.5844 -0.0792
  271MOL0     H36530   4.308   6.499   6.801  1.9084 -0.0020 -1.9410
  271MOL0     H36531   4.214   6.575   6.669 -1.5048 -0.0071  0.4520
  271MOL0     H36532   4.404   6.758   6.808 -1.2697  0.5163  0.2449
  271MOL0     H36533   4.391   6.711   6.627 -0.5946 -0.8885 -0.5305
  271MOL0     H36534   4.521   6.505   6.684  0.8723 -0.8458  0.5598
  271MOL0     H36535   4.609   6.656   6.698  1.3293 -0.5153  2.1790
  271MOL0     H36536   4.670   6.731   6.964  0.2810 -0.7646  1.6415
  271MOL0     H36537   4.845   6.463   7.179  0.7371  1.1126  1.2467
  271MOL0     H36538   4.898   6.596   7.067 -0.9946  1.1670 -0.8019
  271MOL0     H36539   4.796   6.754   7.190  0.7671  0.1251 -0.0055
  271MOL0     H36540   4.671   6.661   7.272 -0.0746  5.9009 -0.3259
  271MOL0     H36541   4.965   6.587   7.331 -0.9995 -2.3565  2.8807
  271MOL0     H36542   4.816   6.583   7.424 -1.3374 -0.7949 -1.6949
  271MOL0     H36543   4.945   6.750   7.527 -0.1923 -0.2601 -0.5728
  271MOL0     H36544   4.803   6.824   7.468  0.3615 -1.6670  1.9584
  271MOL0     H36545   5.155   6.730   7.502 -1.0429 -1.2064 -0.7538
  271MOL0     H36546   5.384   6.757   7.497 -0.2054 -1.0567 -0.7778
  271MOL0     H36547   5.801   6.884   7.256  1.0365 -1.3726  3.5236
  271MOL0     H36548   6.034   6.943   7.285 -0.0073  1.5484  0.4939
  271MOL0     H36549   6.123   7.392   7.415  0.2353  2.1363 -1.6621
  271MOL0     H36550   6.262   7.338   7.340 -0.6547  0.3331  1.7713
  271MOL0     H36551   6.208   7.387   7.120 -0.5250 -1.3241  0.2266
  271MOL0     H36552   6.037   7.377   7.146  1.4640 -0.3184 -3.3640
  271MOL0     H36553   6.031   7.582   7.277  0.1256  1.7933 -0.8061
  271MOL0     H36554   6.199   7.617   7.264  0.9017 -0.7137 -2.6591
  271MOL0     H36555   6.032   7.711   7.089  3.5903  2.6138 -0.4243
  271MOL0     H36556   6.048   7.557   7.012  2.4080 -2.4326 -0.9244
  271MOL0     H36557   6.188   7.724   6.915 -3.2523  0.1199  2.8568
  271MOL0     H36558   6.273   7.583   6.945 -0.1494  0.9757 -1.0984
  271MOL0     H36559   6.300   7.814   7.131 -2.0739  0.5478 -1.3135
  271MOL0     H36560   6.382   7.662   7.151  0.3093  1.2599  0.7736
  271MOL0     H36561   6.541   7.816   7.070 -2.4704  0.0630  1.4003
  271MOL0     H36562   6.437   7.853   6.926 -0.6099  0.5797  0.2514
  271MOL0     H36563   6.558   7.583   6.997 -2.3859 -2.2842 -1.3843
  271MOL0     H36564   6.463   7.624   6.855  1.9596 -1.7662 -0.3789
  271MOL0     H36565   5.897   7.355   7.368  0.9024  0.5133 -0.5465
  271MOL0     H36566   5.666   7.274   7.335  1.7759  2.0723  0.8365
  271MOL0     H36567   5.339   7.052   7.182  0.2990 -1.3451 -1.1157
  271MOL0     H36568   5.106   7.025   7.187  2.1116  0.6110 -1.2092
  271MOL0     H36569   3.397   6.596   6.925 -0.0531 -0.7659  1.4098
  271MOL0     H36570   3.179   6.736   6.931  2.0529 -3.4178 -0.1487
  271MOL0     H36571   3.009   7.078   7.254 -0.6626 -2.6659 -0.0641
  271MOL0     H36572   2.814   7.173   7.334  0.8312  0.6760  0.2499
  271MOL0     H36573   2.505   7.076   7.089  1.1725 -0.4326  2.5483
  271MOL0     H36574   2.473   7.244   7.032  4.5629 -1.6644 -1.1956
  271MOL0     H36575   2.399   7.207   7.314  1.1216  0.5061  0.4013
  271MOL0     H36576   2.301   7.124   7.207 -2.3194  1.7129  2.9057
  271MOL0     H36577   2.187   7.332   7.227  0.4517 -0.7589  0.9437
  271MOL0     H36578   2.269   7.352   7.072  1.3076  4.4639 -0.0888
  271MOL0     H36579   2.394   7.452   7.323  1.9594  0.4389 -1.0739
  271MOL0     H36580   2.450   7.476   7.155  1.8718  0.8140  1.9666
  271MOL0     H36581   2.104   7.728   7.148  0.0733  0.3745  0.5591
  271MOL0     H36582   2.677   7.244   6.942  0.2286  4.4497  1.8155
  271MOL0     H36583   2.808   7.098   6.767  1.6071 -2.0962  0.8282
  271MOL0     H36584   2.872   7.271   6.786 -0.2173  0.3872  1.1736
  271MOL0     H36585   2.983   7.141   6.761  0.9130 -1.5153  1.4661
  272MOL0     O36586  10.475   4.794   8.716 -1.0882 -0.1585 -0.8787
  272MOL0     C36587  10.467   4.888   8.639  0.3964 -0.2417  0.1556
  272MOL0     O36588  10.573   4.960   8.596  0.2287 -0.9168  0.0021
  272MOL0     C36589  10.694   4.927   8.647  0.0650  0.8577 -0.5382
  272MOL0     C36590  10.803   4.908   8.566  0.5750 -0.0800  0.1214
  272MOL0     C36591  10.927   4.878   8.626  0.2869 -0.0039 -0.1767
  272MOL0     C36592  10.951   4.882   8.763 -1.5140 -0.8145 -0.0498
  272MOL0     O36593  11.082   4.884   8.817  0.0180 -1.4740 -0.5053
  272MOL0     C36594  11.193   4.809   8.757  0.2499 -0.1442  0.3504
  272MOL0     C36595  11.279   4.761   8.878 -0.5055  0.3269 -0.1205
  272MOL0     C36596  11.425   4.772   8.828 -0.3201 -0.1926 -0.5090
  272MOL0     C36597  11.473   4.917   8.853  0.4087 -0.8352 -0.1856
  272MOL0     C36598  11.623   4.926   8.822 -0.4209  0.1644 -0.5039
  272MOL0     C36599  11.676   4.853   8.698 -0.0574  0.2619  0.1522
  272MOL0     C36600  11.824   4.873   8.668  0.6393  0.3740 -0.7628
  272MOL0     C36601  11.857   4.779   8.555 -0.8049  0.2567  0.1172
  272MOL0     N36602  12.001   4.777   8.548  0.7115 -0.0779 -0.2744
  272MOL0     C36603  12.065   4.655   8.546  0.3359  0.1879  0.0089
  272MOL0     C36604  12.195   4.683   8.528  0.2348 -0.8658 -1.0093
  272MOL0     C36605  12.305   4.585   8.511  0.3291 -0.0271  0.2341
  272MOL0     C36606  12.272   4.492   8.388  0.3506 -0.3287  0.1998
  272MOL0     C36607  12.365   4.365   8.379 -0.7570  0.2069  0.0458
  272MOL0     C36608  12.515   4.395   8.348 -0.4295 -0.5380 -0.1394
  272MOL0     O36609  12.593   4.286   8.309 -0.0791 -0.2471 -0.2135
  272MOL0     C36610  12.732   4.298   8.285 -0.0694  0.1889  0.0461
  272MOL0     C36611  12.792   4.180   8.250  0.3166  0.2435 -0.3373
  272MOL0     C36612  12.936   4.174   8.229 -0.8151 -0.2032  0.0886
  272MOL0     C36613  13.008   4.292   8.220  0.0308  0.1389  0.8858
  272MOL0     C36614  13.153   4.285   8.205  0.0499 -0.5354 -0.7894
  272MOL0     O36615  13.222   4.169   8.236  0.6820 -0.0649  0.1432
  272MOL0     C36616  13.357   4.171   8.216  1.1842  0.4414  0.2173
  272MOL0     C36617  13.416   4.167   8.084  0.5082 -0.4687 -0.9977
  272MOL0     C36618  13.552   4.162   8.076  0.2893  0.3753 -0.0774
  272MOL0     C36619  13.630   4.158   8.190 -0.2619  0.0698  0.0444
  272MOL0     O36620  13.756   4.125   8.166  0.2372  0.1576 -0.0107
  272MOL0     C36621  13.865   4.204   8.215 -1.0394  0.0057  0.1933
  272MOL0     C36622  13.937   4.274   8.101  0.8185 -0.8293  0.2810
  272MOL0     C36623  14.065   4.347   8.154 -0.0852 -0.4418 -0.2040
  272MOL0     C36624  14.173   4.256   8.211  0.4907  0.5808  0.5311
  272MOL0     C36625  14.301   4.337   8.233 -0.0324 -0.5879  0.1133
  272MOL0     C36626  14.420   4.233   8.258  1.0066 -0.9319  0.3046
  272MOL0     C36627  14.551   4.311   8.265  0.8307 -0.2483  0.3036
  272MOL0     C36628  14.660   4.231   8.324 -0.2954 -0.3247  0.3387
  272MOL0    Cl36629  14.808   4.328   8.340  0.1168  0.3066 -0.0370
  272MOL0     C36630  13.577   4.161   8.316 -0.6059 -1.0222 -0.1237
  272MOL0     C36631  13.435   4.177   8.330 -0.0425  0.0456  0.4179
  272MOL0     O36632  13.204   4.387   8.162 -0.2375  0.4682 -0.2544
  272MOL0     C36633  12.942   4.410   8.251  0.4092 -0.1642  0.4395
  272MOL0     C36634  12.808   4.417   8.280  0.1574 -1.0603  0.3976
  272MOL0     N36635  12.211   4.820   8.521  0.0830 -0.3834 -0.5674
  272MOL0     N36636  12.091   4.871   8.517 -0.1381 -0.0848 -0.1464
  272MOL0     C36637  10.841   4.897   8.848 -0.6708 -0.1768  0.2276
  272MOL0     C36638  10.712   4.922   8.792 -0.6005 -0.3679 -0.1978
  272MOL0     C36639  10.329   4.937   8.607  0.7356 -0.0603 -0.9762
  272MOL0     C36640  10.318   5.019   8.493  0.6734 -0.4090  0.4044
  272MOL0     C36641  10.191   5.070   8.444 -0.9789 -0.8924  0.1571
  272MOL0     C36642  10.077   5.042   8.507  0.5011 -0.0983  0.0772
  272MOL0     O36643   9.954   5.087   8.456 -0.5261  0.5624 -0.2475
  272MOL0     C36644   9.835   5.082   8.538  0.4284  0.8924  0.4821
  272MOL0     C36645   9.711   5.143   8.459  0.3191  0.7996 -0.0742
  272MOL0     C36646   9.672   5.051   8.344  0.0274  0.1807  0.7558
  272MOL0     C36647   9.536   4.990   8.367 -0.5204 -0.4083  0.9690
  272MOL0     C36648   9.442   5.105   8.341 -0.4579  0.4517 -0.9234
  272MOL0     C36649   9.359   5.188   8.331 -0.2793  0.3835  0.7003
  272MOL0     C36650  10.087   4.958   8.626  0.5820 -0.3391 -0.8017
  272MOL0     C36651  10.208   4.904   8.668  0.4818 -0.1952 -0.4287
  272MOL0     C36652  10.202   4.797   8.773  0.7784 -0.4829  0.0523
  272MOL0     H36653  10.795   4.895   8.458  4.3177 -2.6317 -0.0682
  272MOL0     H36654  11.011   4.849   8.564 -0.1921 -2.6875  0.3135
  272MOL0     H36655  11.142   4.724   8.710 -2.3164  1.5657 -0.1744
  272MOL0     H36656  11.249   4.859   8.678  0.9611  0.6925  1.3603
  272MOL0     H36657  11.259   4.656   8.902  1.6629 -0.2457 -0.6219
  272MOL0     H36658  11.259   4.830   8.961  0.0741  0.7184 -0.3025
  272MOL0     H36659  11.428   4.756   8.720  1.2482  2.4932 -0.9714
  272MOL0     H36660  11.491   4.698   8.873 -0.1359 -1.8032 -3.2221
  272MOL0     H36661  11.423   4.992   8.791  0.2446 -0.4685  0.3779
  272MOL0     H36662  11.467   4.945   8.959  0.9720  2.4514 -0.9397
  272MOL0     H36663  11.644   5.033   8.816 -0.1554  0.2036  0.7909
  272MOL0     H36664  11.679   4.886   8.906  0.3022 -0.7762 -1.4135
  272MOL0     H36665  11.651   4.747   8.706 -0.6797  0.4979  1.5808
  272MOL0     H36666  11.615   4.886   8.613 -0.0954 -0.7568 -0.2326
  272MOL0     H36667  11.876   4.845   8.760 -1.8420 -1.4725  0.1614
  272MOL0     H36668  11.846   4.977   8.640  1.1838  0.3944 -0.2895
  272MOL0     H36669  11.812   4.680   8.566 -1.6518  0.7854  1.7214
  272MOL0     H36670  11.803   4.825   8.471 -1.6506  1.0754  1.0768
  272MOL0     H36671  12.017   4.560   8.567  2.2358 -1.4374 -2.4649
  272MOL0     H36672  12.397   4.638   8.486 -0.7521  1.0021 -1.7983
  272MOL0     H36673  12.309   4.518   8.598  2.4144  1.4175  1.3313
  272MOL0     H36674  12.170   4.452   8.400 -0.2647  0.1649 -2.5713
  272MOL0     H36675  12.257   4.545   8.294  0.2288  0.0957  0.4572
  272MOL0     H36676  12.334   4.305   8.293 -1.3252  1.2763 -0.5120
  272MOL0     H36677  12.369   4.307   8.471 -0.9333 -1.9690 -1.2633
  272MOL0     H36678  12.562   4.451   8.429 -0.6908 -1.3593  0.5888
  272MOL0     H36679  12.511   4.461   8.260  1.7400  0.2787  0.3306
  272MOL0     H36680  12.731   4.090   8.245  1.6141 -0.9167  2.4354
  272MOL0     H36681  12.982   4.078   8.209  0.4529 -0.0885  2.2414
  272MOL0     H36682  13.346   4.182   8.003 -0.0932  1.0778 -0.2410
  272MOL0     H36683  13.606   4.155   7.982  0.2693 -0.3487 -0.0379
  272MOL0     H36684  13.835   4.280   8.289  0.7918  1.8423 -0.8668
  272MOL0     H36685  13.937   4.139   8.264 -2.0584 -0.6824  0.8298
  272MOL0     H36686  13.955   4.219   8.008  3.8757  2.4211 -1.2682
  272MOL0     H36687  13.877   4.359   8.068  0.6682 -0.6900  0.8957
  272MOL0     H36688  14.103   4.403   8.068  0.4375  0.2592  0.4685
  272MOL0     H36689  14.034   4.423   8.226 -1.9739 -0.5999 -0.7977
  272MOL0     H36690  14.178   4.181   8.132 -2.3841  0.0648  0.7325
  272MOL0     H36691  14.138   4.210   8.304  1.8583 -2.8425 -0.5102
  272MOL0     H36692  14.279   4.404   8.317  0.7924  1.4339 -1.1886
  272MOL0     H36693  14.314   4.400   8.145  0.6189 -1.1784 -0.2251
  272MOL0     H36694  14.403   4.178   8.351 -1.5734  0.3843  0.7115
  272MOL0     H36695  14.416   4.165   8.172  1.3846  0.1752 -0.6058
  272MOL0     H36696  14.527   4.395   8.331  0.6252  0.3978 -0.5735
  272MOL0     H36697  14.584   4.347   8.167 -0.6563 -1.8166 -0.8291
  272MOL0     H36698  14.629   4.201   8.424  2.0395 -0.3021  1.1409
  272MOL0     H36699  14.691   4.141   8.271  0.8212 -0.2921  0.9024
  272MOL0     H36700  13.639   4.153   8.404 -0.6897 -1.2147 -0.0824
  272MOL0     H36701  13.390   4.182   8.429  6.3814  0.9641  3.8209
  272MOL0     H36702  12.995   4.504   8.238  1.5620 -0.9613 -1.0324
  272MOL0     H36703  12.756   4.511   8.298  0.5377 -0.4675 -1.4386
  272MOL0     H36704  10.854   4.876   8.954  2.4495  1.5476  0.3128
  272MOL0     H36705  10.626   4.923   8.858  0.0206 -1.8322  0.6886
  272MOL0     H36706  10.396   5.049   8.423 -0.9035 -0.5161 -1.5110
  272MOL0     H36707  10.199   5.125   8.350  1.6105 -0.0283  0.7930
  272MOL0     H36708   9.863   5.143   8.624  0.1069  3.0973 -0.8845
  272MOL0     H36709   9.805   4.980   8.564  1.2941  0.1848 -1.1530
  272MOL0     H36710   9.737   5.242   8.419  0.9378  0.4757 -0.4924
  272MOL0     H36711   9.624   5.154   8.524 -0.3747 -2.3213 -0.3020
  272MOL0     H36712   9.738   4.964   8.335  1.9070  1.6867 -0.6321
  272MOL0     H36713   9.673   5.090   8.243 -0.0248 -2.2660 -0.2690
  272MOL0     H36714   9.516   4.908   8.298 -0.5231 -1.1347  1.8133
  272MOL0     H36715   9.522   4.953   8.469 -1.3047  4.4781  2.9257
  272MOL0     H36716   9.274   5.254   8.326  0.5440  1.3637 -1.7416
  272MOL0     H36717   9.999   4.920   8.677  1.8673 -0.9727  1.0276
  272MOL0     H36718  10.107   4.798   8.827  0.4671  4.0037 -0.2480
  272MOL0     H36719  10.210   4.695   8.734 -0.8732 -1.8723  2.9845
  272MOL0     H36720  10.277   4.830   8.845 -0.7707  3.1456  0.2078
  273MOL0     O36721   1.632   6.935   2.259 -0.4289  0.0811 -0.1988
  273MOL0     C36722   1.566   7.031   2.289 -0.9851 -0.1060  0.0418
  273MOL0     O36723   1.603   7.138   2.370  0.5973 -0.1624 -0.1208
  273MOL0     C36724   1.739   7.150   2.385 -0.6867  0.2355 -0.4901
  273MOL0     C36725   1.804   7.082   2.486 -0.2210  0.2474 -0.0346
  273MOL0     C36726   1.945   7.084   2.495  0.6565 -1.0063 -0.0549
  273MOL0     C36727   2.016   7.167   2.403  0.5171 -0.0111 -0.9121
  273MOL0     O36728   2.149   7.160   2.410  0.1812  0.4011  0.7190
  273MOL0     C36729   2.227   7.256   2.334 -1.2878 -0.4018 -0.5877
  273MOL0     C36730   2.381   7.245   2.374 -0.1347  0.6838  0.4160
  273MOL0     C36731   2.448   7.126   2.322  0.1945  0.0296  0.4948
  273MOL0     C36732   2.517   7.130   2.185  0.3454  0.0417  0.1159
  273MOL0     C36733   2.606   7.013   2.152  0.4089 -0.2216  0.6225
  273MOL0     C36734   2.661   7.019   2.007 -0.2885  0.4034  0.2083
  273MOL0     C36735   2.736   6.888   1.983  0.0157  0.4552  0.5239
  273MOL0     C36736   2.875   6.862   2.063 -0.2195  0.5639  0.2721
  273MOL0     N36737   2.936   6.734   2.046  0.4451 -0.0856 -0.3638
  273MOL0     C36738   3.057   6.719   1.977  0.0366  0.1479 -0.0665
  273MOL0     C36739   3.066   6.585   1.952  0.8172  0.1272  0.2711
  273MOL0     C36740   3.172   6.527   1.849  0.1063 -0.1465  0.4377
  273MOL0     C36741   3.316   6.563   1.883  0.6599 -0.4031 -0.4020
  273MOL0     C36742   3.406   6.554   1.760  0.0656 -0.2795 -0.1908
  273MOL0     C36743   3.430   6.414   1.723 -0.0244  0.3998  0.0284
  273MOL0     O36744   3.485   6.401   1.593  0.1822  0.4495  0.8230
  273MOL0     C36745   3.623   6.377   1.595  0.1466  0.1866 -0.1795
  273MOL0     C36746   3.716   6.463   1.654  0.5743 -1.3673  0.4359
  273MOL0     C36747   3.847   6.424   1.676 -0.3623 -0.3501 -0.2515
  273MOL0     C36748   3.886   6.293   1.637  0.5895  0.2603 -0.8119
  273MOL0     C36749   4.021   6.233   1.662  0.1830  0.2991  0.0039
  273MOL0     O36750   4.040   6.112   1.599  0.1939 -0.1684 -0.1929
  273MOL0     C36751   4.158   6.044   1.621 -0.5822 -0.4255  0.4709
  273MOL0     C36752   4.219   5.977   1.516  0.5304 -0.2422  0.5630
  273MOL0     C36753   4.333   5.903   1.522 -0.6039 -0.0457 -0.4404
  273MOL0     C36754   4.398   5.892   1.644  0.1961  0.2064 -0.8265
  273MOL0     O36755   4.503   5.809   1.632  0.7922 -0.0037 -0.0333
  273MOL0     C36756   4.590   5.789   1.747  0.6610 -0.1574  0.7686
  273MOL0     C36757   4.708   5.698   1.698  0.0038  0.7415  0.4215
  273MOL0     C36758   4.666   5.555   1.655  0.1305 -0.5024  0.5569
  273MOL0     C36759   4.778   5.479   1.596 -0.3081  0.8728 -0.0129
  273MOL0     C36760   4.727   5.354   1.525 -0.1307 -0.7425  0.0821
  273MOL0     C36761   4.811   5.339   1.399  0.2331  0.2572 -0.4152
  273MOL0     C36762   4.805   5.197   1.359  0.2064 -0.1048 -0.0919
  273MOL0     C36763   4.847   5.158   1.217 -0.7552 -0.9960  0.2394
  273MOL0    Cl36764   5.017   5.229   1.159 -0.0738  0.2659 -0.5131
  273MOL0     C36765   4.343   5.963   1.753 -0.3556  0.2220 -0.0220
  273MOL0     C36766   4.219   6.029   1.741  0.2529  0.5062 -0.7945
  273MOL0     O36767   4.104   6.300   1.713 -0.2420 -0.5920 -0.7881
  273MOL0     C36768   3.788   6.215   1.573  0.2266 -0.3747 -0.4739
  273MOL0     C36769   3.661   6.253   1.554  0.3647 -0.1925  0.2629
  273MOL0     N36770   2.950   6.524   1.999  0.7528  0.6999 -0.0784
  273MOL0     N36771   2.871   6.614   2.065 -0.7551  0.3857  0.6596
  273MOL0     C36772   1.944   7.242   2.307 -0.5190  0.0649  0.1558
  273MOL0     C36773   1.807   7.233   2.298 -0.4690  0.2197 -0.3089
  273MOL0     C36774   1.426   7.021   2.250  0.2701  0.2396  0.1606
  273MOL0     C36775   1.317   7.047   2.342 -0.1110 -0.8306 -1.1058
  273MOL0     C36776   1.186   7.035   2.313  0.4120 -0.4838  0.3671
  273MOL0     C36777   1.145   6.968   2.192 -0.1843  0.0154 -0.4441
  273MOL0     O36778   1.017   6.952   2.151 -0.4249 -0.8407 -0.4580
  273MOL0     C36779   0.908   6.987   2.234  1.1926  0.1758 -1.0623
  273MOL0     C36780   0.883   6.870   2.326  0.1316 -0.2407  0.1564
  273MOL0     C36781   0.742   6.894   2.389  0.5619  0.5748  1.2290
  273MOL0     C36782   0.614   6.844   2.313 -1.3064 -0.8138 -0.4690
  273MOL0     C36783   0.497   6.837   2.404  0.0396  0.5211  0.0852
  273MOL0     C36784   0.403   6.832   2.484 -1.3082 -0.0482  0.1468
  273MOL0     C36785   1.249   6.932   2.097  1.3878 -0.0386 -0.9910
  273MOL0     C36786   1.380   6.974   2.125 -0.3028  0.8637 -0.1662
  273MOL0     C36787   1.462   6.933   2.010 -1.0196 -0.0732 -0.7919
  273MOL0     H36788   1.745   7.015   2.547 -0.3233 -0.4128 -0.8353
  273MOL0     H36789   1.994   7.019   2.567  0.8776 -2.3618 -1.3805
  273MOL0     H36790   2.222   7.258   2.225  0.9939 -0.8730 -0.7409
  273MOL0     H36791   2.205   7.356   2.374 -1.9666 -0.7215 -0.1330
  273MOL0     H36792   2.378   7.246   2.483 -0.1795  0.0320  0.4279
  273MOL0     H36793   2.442   7.326   2.334 -0.1607  0.2012 -0.6505
  273MOL0     H36794   2.381   7.040   2.324  1.6659 -1.1497  0.7337
  273MOL0     H36795   2.537   7.104   2.382  0.4751  0.5931  0.2955
  273MOL0     H36796   2.440   7.128   2.107  0.6700 -0.3432 -0.1911
  273MOL0     H36797   2.564   7.228   2.170 -1.7724  0.7110 -3.2846
  273MOL0     H36798   2.692   7.008   2.218  1.3583 -0.3200 -0.5824
  273MOL0     H36799   2.540   6.926   2.153  1.9457 -1.4958 -1.4032
  273MOL0     H36800   2.582   7.009   1.932  0.7683 -2.1785 -0.6868
  273MOL0     H36801   2.725   7.107   1.994  0.4994 -0.2097 -0.2233
  273MOL0     H36802   2.771   6.894   1.880 -0.3580 -0.6245  0.3253
  273MOL0     H36803   2.674   6.801   2.005 -1.0087  0.9441 -0.3427
  273MOL0     H36804   2.945   6.945   2.045  1.4489 -0.5744  1.2716
  273MOL0     H36805   2.850   6.882   2.168  0.0972  2.4454  0.0294
  273MOL0     H36806   3.129   6.794   1.945  1.6257 -1.4818 -0.4900
  273MOL0     H36807   3.149   6.421   1.855  0.6912 -0.2822  0.2605
  273MOL0     H36808   3.140   6.559   1.749  3.1794 -1.4764 -1.0855
  273MOL0     H36809   3.315   6.669   1.909 -0.1978 -0.4019 -0.4218
  273MOL0     H36810   3.340   6.497   1.967 -0.4778 -0.0048  0.2500
  273MOL0     H36811   3.500   6.596   1.794 -0.7462  0.9966  0.5397
  273MOL0     H36812   3.361   6.604   1.674  1.1053 -0.6345 -0.9566
  273MOL0     H36813   3.340   6.352   1.717  1.6657 -2.1502 -1.1294
  273MOL0     H36814   3.485   6.354   1.797 -2.8706 -2.2207  0.2380
  273MOL0     H36815   3.678   6.562   1.678  2.8303 -0.5486  0.8520
  273MOL0     H36816   3.917   6.493   1.721 -0.2472 -0.8138  0.2968
  273MOL0     H36817   4.176   5.991   1.417  0.7338 -0.4265  0.4493
  273MOL0     H36818   4.380   5.861   1.433 -0.4599  1.5370 -1.1560
  273MOL0     H36819   4.625   5.886   1.784  0.4483 -0.1978  1.0843
  273MOL0     H36820   4.549   5.752   1.841  1.1546  2.6235  2.2114
  273MOL0     H36821   4.765   5.739   1.614 -0.7878  0.8518 -0.0676
  273MOL0     H36822   4.780   5.691   1.780 -1.1425  1.0218  1.4735
  273MOL0     H36823   4.619   5.503   1.739  0.2923 -1.6361 -0.0371
  273MOL0     H36824   4.588   5.566   1.579  0.6433  1.1519  0.2427
  273MOL0     H36825   4.862   5.453   1.660 -1.0151 -0.1011  0.5455
  273MOL0     H36826   4.808   5.547   1.516 -0.9766 -0.5557 -1.5403
  273MOL0     H36827   4.621   5.358   1.496 -0.2464 -2.3588  0.1716
  273MOL0     H36828   4.730   5.275   1.600  3.3555  2.7569  4.1552
  273MOL0     H36829   4.770   5.406   1.323  0.5019 -0.2147 -0.9885
  273MOL0     H36830   4.913   5.378   1.407 -0.4473  2.1770 -0.6580
  273MOL0     H36831   4.700   5.165   1.366  0.8658 -2.6407 -0.6331
  273MOL0     H36832   4.859   5.149   1.440 -1.8418  0.4861  1.7160
  273MOL0     H36833   4.851   5.049   1.206  2.4562 -1.0882  1.1694
  273MOL0     H36834   4.766   5.192   1.152  0.9253 -1.5297 -2.2442
  273MOL0     H36835   4.379   5.955   1.855 -1.1733 -3.3529  0.1249
  273MOL0     H36836   4.166   6.082   1.820 -1.6567 -0.2640 -1.4793
  273MOL0     H36837   3.810   6.112   1.546  1.0607 -0.5944  0.9750
  273MOL0     H36838   3.586   6.191   1.506  0.5273 -0.6960  0.6515
  273MOL0     H36839   2.008   7.296   2.238  0.2986 -1.8288 -0.6559
  273MOL0     H36840   1.757   7.286   2.218 -1.6570 -1.3851 -0.6747
  273MOL0     H36841   1.340   7.077   2.444  0.2934 -2.9076 -0.5405
  273MOL0     H36842   1.102   7.071   2.373 -0.4864 -2.7188  0.5304
  273MOL0     H36843   0.827   7.001   2.162  1.8525 -0.3726 -1.9257
  273MOL0     H36844   0.912   7.084   2.284  2.8088  0.8359 -2.3751
  273MOL0     H36845   0.964   6.877   2.399  0.5748  1.5238 -0.4678
  273MOL0     H36846   0.891   6.778   2.267 -0.9935  0.8269 -1.7418
  273MOL0     H36847   0.724   6.993   2.432 -4.6084  0.6411 -0.3423
  273MOL0     H36848   0.742   6.825   2.474  3.0859  0.2892  1.0618
  273MOL0     H36849   0.591   6.914   2.232  1.8282  1.5793  0.4940
  273MOL0     H36850   0.632   6.740   2.287 -0.4818 -1.0495  0.9745
  273MOL0     H36851   0.322   6.836   2.554 -1.9181 -2.3165 -0.3336
  273MOL0     H36852   1.202   6.889   2.009  1.5255 -1.9912 -0.1629
  273MOL0     H36853   1.570   6.936   2.030 -1.4302 -0.4500  1.9273
  273MOL0     H36854   1.428   6.835   1.976 -0.6099 -0.3705 -0.3544
  273MOL0     H36855   1.446   7.010   1.934 -0.7196  1.6437  0.8141
  274MOL0     O36856   6.665   7.834   2.940 -0.3325 -0.2654 -0.1668
  274MOL0     C36857   6.661   7.743   3.027 -0.7690  0.4041  0.6019
  274MOL0     O36858   6.772   7.687   3.079  1.0139 -0.1611  0.0444
  274MOL0     C36859   6.900   7.733   3.061  0.6507  0.2008 -0.3789
  274MOL0     C36860   6.958   7.699   2.942  0.7460 -0.8105  0.1302
  274MOL0     C36861   7.088   7.732   2.917 -0.2196 -0.2228 -1.2066
  274MOL0     C36862   7.156   7.812   3.010 -0.7521 -0.3176  0.5119
  274MOL0     O36863   7.284   7.848   2.984 -0.2676 -0.2165 -0.1120
  274MOL0     C36864   7.303   7.990   2.989  0.2085 -0.1311 -0.5532
  274MOL0     C36865   7.429   8.038   2.904  0.6051 -0.0643  1.0083
  274MOL0     C36866   7.561   7.988   2.959 -0.2003  0.0338  0.0545
  274MOL0     C36867   7.676   8.013   2.858  0.0711  0.7382  0.2102
  274MOL0     C36868   7.816   8.002   2.912 -0.2148 -0.1160 -0.9837
  274MOL0     C36869   7.903   8.072   2.809 -0.0476  0.2660 -1.1955
  274MOL0     C36870   8.058   8.079   2.835  0.8556  0.4475 -0.2167
  274MOL0     C36871   8.135   8.123   2.717 -0.5197  0.1214  0.2380
  274MOL0     N36872   8.283   8.097   2.738  0.2746 -0.8007  0.6491
  274MOL0     C36873   8.363   8.075   2.627  0.2565  0.7666 -0.4705
  274MOL0     C36874   8.482   8.043   2.682  0.7718 -0.5712 -0.6515
  274MOL0     C36875   8.603   8.017   2.602  0.1970 -0.0764  0.0382
  274MOL0     C36876   8.725   8.109   2.634 -1.0866 -0.4361 -0.6642
  274MOL0     C36877   8.799   8.087   2.769 -0.8200  0.7967  0.2194
  274MOL0     C36878   8.944   8.139   2.767 -0.2839  0.1413 -0.2128
  274MOL0     O36879   8.993   8.103   2.903  0.1077  0.5574  0.3225
  274MOL0     C36880   9.126   8.127   2.935  0.1990  0.2178 -0.0940
  274MOL0     C36881   9.168   8.105   3.071  0.2757 -0.8570 -0.3484
  274MOL0     C36882   9.299   8.130   3.115  1.1826  0.1258 -0.3003
  274MOL0     C36883   9.393   8.164   3.014  0.2282 -0.3383  0.2046
  274MOL0     C36884   9.531   8.204   3.056 -0.5794 -0.5103  0.5202
  274MOL0     O36885   9.576   8.150   3.172  0.1878  0.7152  0.7073
  274MOL0     C36886   9.699   8.179   3.214 -0.7167  0.3414  0.5982
  274MOL0     C36887   9.817   8.113   3.157 -0.3835 -0.8715 -0.3174
  274MOL0     C36888   9.944   8.139   3.206 -0.2193 -0.0472  0.4726
  274MOL0     C36889   9.966   8.253   3.289  0.4049 -0.6239 -0.1295
  274MOL0     O36890  10.083   8.293   3.343  0.0925  0.3135  1.1919
  274MOL0     C36891  10.196   8.202   3.369 -0.0837  0.6358 -0.3803
  274MOL0     C36892  10.296   8.262   3.465 -0.0510  0.2580  0.3740
  274MOL0     C36893  10.411   8.160   3.484 -0.8553 -0.8996 -0.9595
  274MOL0     C36894  10.521   8.210   3.573 -0.0556  0.3591  1.3172
  274MOL0     C36895  10.610   8.336   3.518 -0.0071 -0.0777 -0.0963
  274MOL0     C36896  10.739   8.361   3.600  1.3701  0.2593  0.2711
  274MOL0     C36897  10.716   8.391   3.751  0.2842  0.3453 -0.1621
  274MOL0     C36898  10.654   8.526   3.782  0.7919 -0.0592  0.1454
  274MOL0    Cl36899  10.579   8.526   3.940  0.3735  0.1452  0.1368
  274MOL0     C36900   9.855   8.325   3.343 -0.3060  0.5162 -0.3150
  274MOL0     C36901   9.724   8.288   3.307  0.2606  0.5989 -0.1597
  274MOL0     O36902   9.603   8.275   2.975  0.3074  0.1735  1.0702
  274MOL0     C36903   9.360   8.189   2.882  0.1935  0.2570 -0.6729
  274MOL0     C36904   9.225   8.173   2.851  0.5210 -0.5975 -0.3858
  274MOL0     N36905   8.471   8.043   2.817 -0.0009  0.3114 -0.3837
  274MOL0     N36906   8.356   8.071   2.850  0.9197  0.1271 -0.2763
  274MOL0     C36907   7.096   7.855   3.137 -0.3790 -0.3692 -0.3019
  274MOL0     C36908   6.970   7.808   3.158  0.1786 -0.3774  0.4066
  274MOL0     C36909   6.534   7.686   3.078  0.2236  0.0766 -0.9267
  274MOL0     C36910   6.535   7.624   3.199 -0.2086 -0.2214 -0.3857
  274MOL0     C36911   6.418   7.571   3.257  0.2570  0.5171  0.3313
  274MOL0     C36912   6.296   7.564   3.179  0.0616  0.2619 -0.1916
  274MOL0     O36913   6.190   7.510   3.243  1.2777 -0.6162  0.4822
  274MOL0     C36914   6.061   7.540   3.191  0.7012  0.1186 -0.0101
  274MOL0     C36915   5.954   7.473   3.270  0.3830 -0.7062  0.2301
  274MOL0     C36916   5.966   7.314   3.264  0.5452 -0.0836 -0.6395
  274MOL0     C36917   5.865   7.260   3.369 -0.6765 -0.7382  0.1858
  274MOL0     C36918   5.727   7.258   3.327  0.3920 -0.1342  0.1994
  274MOL0     C36919   5.615   7.238   3.288 -0.2427  0.3547 -0.8889
  274MOL0     C36920   6.288   7.632   3.049  0.5054  1.4076  0.0383
  274MOL0     C36921   6.411   7.679   2.999 -0.8284 -0.7378  0.3374
  274MOL0     C36922   6.397   7.735   2.862  0.6761  0.8687  0.7331
  274MOL0     H36923   6.903   7.653   2.861 -0.4308 -0.5353  0.7486
  274MOL0     H36924   7.150   7.703   2.832  0.0126 -1.0519 -0.7723
  274MOL0     H36925   7.214   8.037   2.946  1.1905 -0.7317 -3.5097
  274MOL0     H36926   7.324   8.014   3.093  0.8760 -0.9501 -0.4927
  274MOL0     H36927   7.423   8.147   2.889  0.2666 -0.2611 -0.5268
  274MOL0     H36928   7.424   8.008   2.799  0.6477 -0.0974  1.0157
  274MOL0     H36929   7.574   7.880   2.967  2.6200  0.2706 -0.0163
  274MOL0     H36930   7.577   8.034   3.058  0.0295  1.1049 -0.4689
  274MOL0     H36931   7.674   7.948   2.770 -1.0294 -0.2351  0.9139
  274MOL0     H36932   7.667   8.114   2.817  0.4317  0.8571  0.4205
  274MOL0     H36933   7.821   8.050   3.011 -2.8081 -3.8270  1.1748
  274MOL0     H36934   7.846   7.897   2.920  3.3148  0.8306  0.4496
  274MOL0     H36935   7.889   8.019   2.714 -1.4248 -1.4375 -0.0747
  274MOL0     H36936   7.870   8.176   2.809 -2.4327 -0.4014  1.1811
  274MOL0     H36937   8.105   7.989   2.875  0.6237  0.8279  0.9554
  274MOL0     H36938   8.071   8.157   2.911 -3.8852  2.1696 -0.8594
  274MOL0     H36939   8.105   8.065   2.630  1.8506  0.6415 -1.0005
  274MOL0     H36940   8.106   8.228   2.700  0.2234  0.4923  1.1527
  274MOL0     H36941   8.332   8.093   2.525 -2.9008  4.2478  0.8741
  274MOL0     H36942   8.624   7.910   2.602  1.2395  0.0966 -1.3687
  274MOL0     H36943   8.576   8.032   2.497  2.5023  0.9322 -0.4661
  274MOL0     H36944   8.791   8.114   2.547 -0.5585  2.5436 -0.1976
  274MOL0     H36945   8.700   8.215   2.622  0.5563 -0.0969 -1.3087
  274MOL0     H36946   8.801   7.978   2.776 -0.2649  0.7751 -0.2114
  274MOL0     H36947   8.738   8.129   2.850 -0.5284  1.2194  0.2258
  274MOL0     H36948   8.958   8.246   2.751  0.4977 -0.0056 -0.5624
  274MOL0     H36949   9.009   8.086   2.697  1.2402  1.0313  0.4952
  274MOL0     H36950   9.092   8.068   3.140  1.0671  1.1184  1.7182
  274MOL0     H36951   9.327   8.110   3.218  0.4895  0.8954  0.0428
  274MOL0     H36952   9.804   8.036   3.082  0.3538 -0.3586 -0.9881
  274MOL0     H36953  10.037   8.097   3.168 -0.0430  1.4944 -0.9473
  274MOL0     H36954  10.161   8.116   3.426  0.0277 -0.4517 -1.8935
  274MOL0     H36955  10.245   8.167   3.277 -0.7578  1.0678 -0.9219
  274MOL0     H36956  10.353   8.348   3.429 -0.2476  0.2631  0.0706
  274MOL0     H36957  10.254   8.287   3.563  1.1434 -2.3759  1.6580
  274MOL0     H36958  10.369   8.070   3.529  0.1076 -1.2889 -0.8222
  274MOL0     H36959  10.462   8.140   3.389  0.8035 -0.8795 -0.0999
  274MOL0     H36960  10.584   8.124   3.595 -1.5441 -1.0845  0.1823
  274MOL0     H36961  10.461   8.243   3.658 -3.2625  1.2512 -1.0974
  274MOL0     H36962  10.540   8.420   3.512  0.3062  0.2142  0.3159
  274MOL0     H36963  10.640   8.318   3.415  2.6439 -3.1903  1.0292
  274MOL0     H36964  10.782   8.260   3.601 -1.1753 -0.9386  1.8439
  274MOL0     H36965  10.803   8.442   3.566  1.7788  0.2717  1.0532
  274MOL0     H36966  10.812   8.391   3.802  0.2169 -1.1312  0.0122
  274MOL0     H36967  10.658   8.308   3.792  0.4542  0.5713  0.5616
  274MOL0     H36968  10.728   8.606   3.772 -0.2985  1.0627  0.8048
  274MOL0     H36969  10.578   8.536   3.704  1.5237 -0.4090 -0.6381
  274MOL0     H36970   9.882   8.402   3.415 -0.1726 -0.0717  0.2675
  274MOL0     H36971   9.639   8.340   3.349  1.1589  1.7256  0.3276
  274MOL0     H36972   9.436   8.218   2.810 -1.3634  2.3787 -1.5785
  274MOL0     H36973   9.193   8.200   2.751 -0.9989  0.7321  0.4184
  274MOL0     H36974   7.153   7.900   3.218  1.1049 -1.8537 -0.4624
  274MOL0     H36975   6.914   7.828   3.248  0.4627 -2.4012  1.0847
  274MOL0     H36976   6.635   7.613   3.239 -0.3959 -1.4435 -0.2054
  274MOL0     H36977   6.425   7.508   3.346  0.5337 -3.0680 -2.0229
  274MOL0     H36978   6.048   7.510   3.087 -0.7699  0.0790  0.1635
  274MOL0     H36979   6.049   7.649   3.186  2.1951  0.2738 -0.7092
  274MOL0     H36980   5.858   7.505   3.228  1.0430  0.2879 -0.5674
  274MOL0     H36981   5.959   7.508   3.373  4.1208  1.5364 -0.5353
  274MOL0     H36982   6.065   7.281   3.297  0.7267  1.7590  0.8584
  274MOL0     H36983   5.936   7.280   3.164 -2.6594 -2.5410  0.9612
  274MOL0     H36984   5.896   7.161   3.403 -0.2127 -0.4129  0.7187
  274MOL0     H36985   5.867   7.326   3.457  2.3622  0.3806 -0.5999
  274MOL0     H36986   5.519   7.226   3.240 -0.3174 -1.5788 -0.3363
  274MOL0     H36987   6.194   7.638   2.996 -2.6039  1.1308  4.9192
  274MOL0     H36988   6.321   7.685   2.801 -1.3187  4.3430  0.0590
  274MOL0     H36989   6.378   7.843   2.859 -2.0326  0.4492 -0.8073
  274MOL0     H36990   6.489   7.717   2.805  2.0818  0.5621  2.9728
  275MOL0     O36991   8.063   4.219   4.403  0.2401  0.4240 -0.2572
  275MOL0     C36992   8.097   4.163   4.295  0.2873 -0.6109  0.1125
  275MOL0     O36993   8.021   4.076   4.221 -0.1235  0.7029  0.2674
  275MOL0     C36994   7.890   4.057   4.255 -0.3297 -0.4539  0.3076
  275MOL0     C36995   7.842   3.927   4.246 -0.2736 -0.6504  0.2468
  275MOL0     C36996   7.709   3.893   4.280 -0.4621  0.2437 -0.5261
  275MOL0     C36997   7.628   3.985   4.333  0.5023 -0.9898 -1.3617
  275MOL0     O36998   7.491   3.951   4.363 -0.2614  0.0712  0.3139
  275MOL0     C36999   7.405   3.878   4.284 -0.0094 -0.4073 -0.0531
  275MOL0     C37000   7.269   3.952   4.289 -0.6304 -0.0950  1.4386
  275MOL0     C37001   7.196   3.919   4.417  0.0336  0.6100 -0.4634
  275MOL0     C37002   7.104   3.783   4.410  0.6081  0.0027  0.0268
  275MOL0     C37003   7.032   3.769   4.548 -0.3899  0.0681  1.0117
  275MOL0     C37004   6.952   3.638   4.537  0.2009 -0.1124 -0.4111
  275MOL0     C37005   6.931   3.568   4.672  0.6120  0.9376 -0.0244
  275MOL0     C37006   6.844   3.448   4.658  0.1534  0.3646 -0.5310
  275MOL0     N37007   6.894   3.348   4.566  0.5484  0.0511 -0.2809
  275MOL0     C37008   7.022   3.307   4.572 -0.4263 -0.7472  0.1680
  275MOL0     C37009   7.025   3.200   4.488  0.3032 -1.0177  0.1226
  275MOL0     C37010   7.135   3.101   4.466 -0.4420 -0.4699  0.7691
  275MOL0     C37011   7.261   3.191   4.425 -0.7336 -0.7413  0.2686
  275MOL0     C37012   7.239   3.273   4.299 -0.3814 -0.5852 -0.4222
  275MOL0     C37013   7.362   3.355   4.265 -0.0449 -0.1777  0.2445
  275MOL0     O37014   7.378   3.455   4.361 -0.5131  0.4332 -0.0614
  275MOL0     C37015   7.508   3.504   4.389 -0.6734 -0.0686  0.3329
  275MOL0     C37016   7.535   3.561   4.516 -0.3211 -0.1519 -0.0587
  275MOL0     C37017   7.665   3.611   4.536  0.2805  0.0238 -0.3278
  275MOL0     C37018   7.764   3.598   4.436  0.8785 -0.7684 -0.1130
  275MOL0     C37019   7.890   3.666   4.463 -0.3034  0.5863 -0.7003
  275MOL0     O37020   7.980   3.656   4.361 -0.7200 -0.8072 -0.3301
  275MOL0     C37021   8.112   3.705   4.375  0.1654 -0.5704  0.8860
  275MOL0     C37022   8.163   3.811   4.458 -0.2461  0.2073 -0.9206
  275MOL0     C37023   8.300   3.852   4.452  0.6934  0.0322 -0.4463
  275MOL0     C37024   8.390   3.784   4.364 -0.4223 -0.4160  0.3891
  275MOL0     O37025   8.519   3.816   4.353 -0.4766 -0.7987 -0.7467
  275MOL0     C37026   8.570   3.922   4.433 -0.6770  0.8210 -0.2488
  275MOL0     C37027   8.725   3.940   4.404  0.9740 -1.1870  0.0130
  275MOL0     C37028   8.776   3.965   4.265 -1.2107 -0.1543 -0.1860
  275MOL0     C37029   8.923   3.983   4.270  0.2427 -0.2152 -0.1882
  275MOL0     C37030   8.985   4.025   4.137  0.0753  0.3356  0.3687
  275MOL0     C37031   9.119   4.097   4.161  0.5096 -0.2163  0.4425
  275MOL0     C37032   9.147   4.188   4.044  0.0030 -0.4536 -0.0020
  275MOL0     C37033   9.294   4.229   4.051  0.9633  0.1545 -0.1403
  275MOL0    Cl37034   9.388   4.096   3.976  0.3089 -0.3167 -0.0259
  275MOL0     C37035   8.342   3.678   4.293 -0.5253 -0.3011  0.1968
  275MOL0     C37036   8.208   3.632   4.310 -0.1279 -0.2888  0.4372
  275MOL0     O37037   7.911   3.709   4.575 -0.0314 -0.0840 -0.6589
  275MOL0     C37038   7.733   3.545   4.309  0.0960  0.2874 -0.4637
  275MOL0     C37039   7.603   3.494   4.287  0.4303 -0.5157 -0.4708
  275MOL0     N37040   6.894   3.186   4.437  0.4083 -0.0502  1.2934
  275MOL0     N37041   6.813   3.274   4.492 -0.6826 -0.0112 -0.4920
  275MOL0     C37042   7.666   4.123   4.347 -0.6015  1.5430 -0.8874
  275MOL0     C37043   7.803   4.155   4.311  0.3226 -0.0234 -0.4727
  275MOL0     C37044   8.231   4.191   4.245  0.2131  0.2440  0.3011
  275MOL0     C37045   8.249   4.184   4.107 -1.1334 -0.4625  0.9785
  275MOL0     C37046   8.372   4.228   4.062  0.4621  0.2178 -0.0690
  275MOL0     C37047   8.484   4.257   4.137 -0.0209  0.4601  0.4928
  275MOL0     O37048   8.614   4.311   4.104  0.4553  0.5180  0.6568
  275MOL0     C37049   8.645   4.318   3.963  0.6787 -0.0332  0.2500
  275MOL0     C37050   8.723   4.440   3.924  0.4492 -0.6757 -0.1684
  275MOL0     C37051   8.868   4.434   3.980  0.9241  0.0960  0.5412
  275MOL0     C37052   8.945   4.567   3.980 -0.6178  0.4618 -0.5871
  275MOL0     C37053   9.092   4.569   3.981  0.3316 -0.6282  0.9645
  275MOL0     C37054   9.211   4.576   3.982  0.8192 -0.6626 -0.5472
  275MOL0     C37055   8.460   4.257   4.276  0.4369  0.4860 -0.4973
  275MOL0     C37056   8.335   4.228   4.336  0.1435  0.1335  0.1061
  275MOL0     C37057   8.317   4.250   4.484 -0.0495  0.1429 -0.8148
  275MOL0     H37058   7.915   3.860   4.202 -1.5807 -1.0984 -1.3328
  275MOL0     H37059   7.669   3.793   4.263  1.7868 -0.7703 -0.1398
  275MOL0     H37060   7.436   3.874   4.180  0.8999 -0.8595  0.2250
  275MOL0     H37061   7.397   3.774   4.316  0.7114 -0.9014 -1.4358
  275MOL0     H37062   7.209   3.919   4.203 -0.2315 -0.7651  1.4143
  275MOL0     H37063   7.278   4.060   4.274 -2.8771 -0.1648 -1.5146
  275MOL0     H37064   7.124   4.002   4.419 -2.5521 -1.5415  0.1624
  275MOL0     H37065   7.264   3.929   4.502  2.4164  0.5952 -2.2348
  275MOL0     H37066   7.028   3.783   4.331  1.8396  1.0153 -1.2236
  275MOL0     H37067   7.166   3.702   4.372  1.5821 -0.6536  2.8298
  275MOL0     H37068   7.108   3.760   4.626  0.0382  1.6553  0.8220
  275MOL0     H37069   6.971   3.859   4.567  1.4586  2.0235 -1.6530
  275MOL0     H37070   6.857   3.669   4.494  0.1493  1.1938  0.5925
  275MOL0     H37071   7.005   3.562   4.479  1.1512  0.8365 -0.8325
  275MOL0     H37072   6.887   3.634   4.747  2.8750 -1.1955  3.4986
  275MOL0     H37073   7.030   3.540   4.708  1.7037  3.5474 -0.7631
  275MOL0     H37074   6.847   3.402   4.757 -0.0338  1.2344 -0.1114
  275MOL0     H37075   6.739   3.474   4.644 -0.5997  0.6810  4.0485
  275MOL0     H37076   7.111   3.360   4.606 -1.7698  1.1912  0.8843
  275MOL0     H37077   7.144   3.053   4.564 -0.3701  0.2602  1.1318
  275MOL0     H37078   7.115   3.026   4.390  3.1811 -1.0257  0.1982
  275MOL0     H37079   7.279   3.254   4.513  2.3120 -2.8022  1.2927
  275MOL0     H37080   7.346   3.127   4.399  1.2711  1.5617  0.7423
  275MOL0     H37081   7.156   3.344   4.293 -2.3171 -2.8206 -1.6644
  275MOL0     H37082   7.229   3.202   4.216 -0.4306 -0.0566 -0.8700
  275MOL0     H37083   7.351   3.421   4.178 -1.2792 -0.4090  0.2011
  275MOL0     H37084   7.453   3.296   4.260  0.2531  0.3191 -0.3265
  275MOL0     H37085   7.458   3.567   4.592  0.0341 -3.1671  0.6587
  275MOL0     H37086   7.702   3.651   4.630  0.6273 -2.4375  0.6500
  275MOL0     H37087   8.095   3.854   4.531  0.3960  0.0236 -0.2089
  275MOL0     H37088   8.325   3.932   4.522  1.1885 -1.8219  1.5845
  275MOL0     H37089   8.509   4.009   4.408 -1.3169  0.6732  0.7164
  275MOL0     H37090   8.559   3.900   4.540  0.8650  0.0400 -0.2090
  275MOL0     H37091   8.763   4.019   4.470 -0.5126 -1.3997  1.1957
  275MOL0     H37092   8.778   3.854   4.446  1.4321 -0.4791  0.9196
  275MOL0     H37093   8.746   3.885   4.197  0.1520  0.7135 -1.8891
  275MOL0     H37094   8.723   4.059   4.246 -1.9211  0.1609  2.7710
  275MOL0     H37095   8.966   3.888   4.302  5.3524  1.1649 -1.9992
  275MOL0     H37096   8.951   4.062   4.340  1.3373  0.5947 -1.4734
  275MOL0     H37097   8.918   4.099   4.092 -1.2327 -0.1493  1.4603
  275MOL0     H37098   8.991   3.942   4.066 -0.8638  0.2532  0.3778
  275MOL0     H37099   9.104   4.174   4.237 -1.0487  0.1537 -0.2025
  275MOL0     H37100   9.192   4.020   4.186  0.6182  0.2215  1.5136
  275MOL0     H37101   9.096   4.283   4.058  2.4180  0.5028  3.5920
  275MOL0     H37102   9.128   4.133   3.951  0.3165  0.2855 -0.5109
  275MOL0     H37103   9.317   4.324   4.002  2.0510  0.4349  0.8599
  275MOL0     H37104   9.326   4.221   4.156  2.1385 -1.3688 -0.5829
  275MOL0     H37105   8.412   3.624   4.229  0.0198 -0.1274  0.6364
  275MOL0     H37106   8.176   3.555   4.240  2.1332 -0.4174 -0.5496
  275MOL0     H37107   7.800   3.559   4.224  2.6319  2.8384  1.7478
  275MOL0     H37108   7.571   3.464   4.187  0.7004  2.2206 -1.4858
  275MOL0     H37109   7.599   4.193   4.396 -2.0459 -1.7018  2.2145
  275MOL0     H37110   7.833   4.260   4.317  0.8065 -0.0620 -1.8859
  275MOL0     H37111   8.175   4.157   4.031  0.8305 -0.5872 -0.9840
  275MOL0     H37112   8.378   4.221   3.954 -0.8268 -0.7416 -0.1097
  275MOL0     H37113   8.554   4.306   3.902  0.5050 -1.6284  0.7799
  275MOL0     H37114   8.703   4.233   3.926 -0.7421 -0.0565 -2.1248
  275MOL0     H37115   8.679   4.527   3.972 -0.7356 -2.9412  3.2077
  275MOL0     H37116   8.719   4.457   3.816  0.1968  0.0341 -0.0495
  275MOL0     H37117   8.917   4.362   3.914 -0.6636  2.1028 -3.1458
  275MOL0     H37118   8.878   4.394   4.082 -1.4657 -2.7591 -0.1980
  275MOL0     H37119   8.922   4.620   3.887  1.9777 -1.7998 -2.7037
  275MOL0     H37120   8.897   4.625   4.059  2.6335  1.3055  0.9200
  275MOL0     H37121   9.316   4.591   3.974  0.4524  1.6014 -2.3871
  275MOL0     H37122   8.528   4.290   4.354  0.1979  1.1761 -0.5703
  275MOL0     H37123   8.251   4.333   4.511 -0.2583  0.2284 -1.5611
  275MOL0     H37124   8.287   4.155   4.529 -1.6478  0.9923  0.0027
  275MOL0     H37125   8.414   4.283   4.522  0.9399  0.7727 -3.6672
  276MOL0     O37126   1.904  10.076   1.633 -0.3489  0.3119 -0.4028
  276MOL0     C37127   1.925  10.014   1.738 -0.1120  0.8972  0.4074
  276MOL0     O37128   2.047   9.976   1.781  0.1613  0.1431  0.2545
  276MOL0     C37129   2.166  10.013   1.724 -0.2149  0.9242  0.3630
  276MOL0     C37130   2.261   9.907   1.710 -0.2225  0.2399  0.0466
  276MOL0     C37131   2.392   9.947   1.668 -0.0108 -0.2741 -0.3483
  276MOL0     C37132   2.420  10.083   1.642  1.3058  0.3505  0.0600
  276MOL0     O37133   2.550  10.126   1.618  0.4866 -0.8973  0.2987
  276MOL0     C37134   2.663  10.057   1.675 -0.2505 -0.4302 -0.5007
  276MOL0     C37135   2.788  10.138   1.653 -0.7729  0.0742  0.4074
  276MOL0     C37136   2.849  10.114   1.511 -0.2432 -0.1944  0.5774
  276MOL0     C37137   2.971  10.208   1.494 -0.7945 -0.0447  0.1456
  276MOL0     C37138   3.048  10.186   1.368 -0.0859  0.0646  0.1791
  276MOL0     C37139   3.171  10.266   1.351 -0.1271 -0.0445  0.4659
  276MOL0     C37140   3.262  10.253   1.468 -0.9830  0.1859  0.6444
  276MOL0     C37141   3.410  10.287   1.408 -0.4966 -0.3483  1.0545
  276MOL0     N37142   3.517  10.234   1.497 -0.1832 -0.5171  0.5773
  276MOL0     C37143   3.525  10.112   1.565  0.8513 -0.7235 -0.1314
  276MOL0     C37144   3.609  10.142   1.669 -0.2531  0.0621 -0.7598
  276MOL0     C37145   3.646  10.044   1.780  0.3950  0.2131  0.2572
  276MOL0     C37146   3.742   9.941   1.719  0.2818 -0.3999  0.6218
  276MOL0     C37147   3.888   9.977   1.759  0.8266 -0.3250  0.8219
  276MOL0     C37148   3.990   9.861   1.735 -0.7753  0.1376  0.6937
  276MOL0     O37149   4.111   9.920   1.767  0.4885 -0.2554  0.6323
  276MOL0     C37150   4.228   9.852   1.790  0.0779 -0.4060 -0.0146
  276MOL0     C37151   4.338   9.919   1.846 -0.4671 -0.1819 -0.2783
  276MOL0     C37152   4.445   9.839   1.881  0.0410  0.1221  0.0567
  276MOL0     C37153   4.457   9.702   1.859 -1.3298  1.0110 -0.4332
  276MOL0     C37154   4.578   9.625   1.906 -0.3841 -0.1106 -0.4301
  276MOL0     O37155   4.694   9.701   1.929 -0.0971 -0.4804  0.6558
  276MOL0     C37156   4.803   9.633   1.979 -0.6621  0.6440 -0.6172
  276MOL0     C37157   4.903   9.587   1.900  0.7610 -1.1885  0.3519
  276MOL0     C37158   5.014   9.523   1.950 -0.1374  0.2862 -0.0460
  276MOL0     C37159   5.014   9.504   2.088 -0.7657 -0.1293  0.4414
  276MOL0     O37160   5.133   9.440   2.128  0.0214 -0.0411 -0.1679
  276MOL0     C37161   5.173   9.433   2.266  0.1184  0.1970 -0.2406
  276MOL0     C37162   5.216   9.562   2.333  0.2617  0.4469 -0.0443
  276MOL0     C37163   5.344   9.608   2.275  0.2444  0.0371 -0.1679
  276MOL0     C37164   5.465   9.525   2.330 -0.0333 -0.2364  0.7804
  276MOL0     C37165   5.591   9.616   2.322 -0.5289  0.2388 -0.2838
  276MOL0     C37166   5.717   9.537   2.315  0.0935 -0.0880 -0.8499
  276MOL0     C37167   5.839   9.631   2.345  0.4923  0.8734  0.5547
  276MOL0     C37168   5.965   9.572   2.301 -0.3440 -0.0807  0.0328
  276MOL0    Cl37169   6.046   9.482   2.439  0.1845 -0.2803 -0.0001
  276MOL0     C37170   4.913   9.544   2.172 -0.3984 -0.6348  0.0703
  276MOL0     C37171   4.803   9.606   2.120  0.2432 -0.0486 -0.5520
  276MOL0     O37172   4.566   9.504   1.933  0.0245  0.1400 -0.0909
  276MOL0     C37173   4.358   9.648   1.779 -0.4472 -0.5801 -0.3151
  276MOL0     C37174   4.240   9.719   1.748  0.1983  0.4696  0.3162
  276MOL0     N37175   3.646  10.275   1.662  1.0587  0.4659 -0.6743
  276MOL0     N37176   3.588  10.328   1.560 -0.5997  0.7161 -0.4998
  276MOL0     C37177   2.325  10.184   1.647 -0.4433 -0.3471 -0.7831
  276MOL0     C37178   2.195  10.144   1.702  0.1055 -0.0506  0.6462
  276MOL0     C37179   1.813   9.964   1.827 -0.2926  0.3063  0.3414
  276MOL0     C37180   1.832   9.832   1.882 -0.3970  0.7445 -0.0400
  276MOL0     C37181   1.728   9.774   1.955  0.1388  0.2051 -0.0433
  276MOL0     C37182   1.612   9.844   1.978 -0.2243  0.8491 -0.1799
  276MOL0     O37183   1.520   9.785   2.061  0.6334  0.0962 -0.1126
  276MOL0     C37184   1.410   9.853   2.118 -0.4761 -0.9764 -0.6016
  276MOL0     C37185   1.341   9.786   2.238 -1.1771 -0.0717 -1.1128
  276MOL0     C37186   1.425   9.816   2.363  0.4176 -0.4566  0.4980
  276MOL0     C37187   1.375   9.730   2.476 -0.1426  0.4198  0.3950
  276MOL0     C37188   1.229   9.739   2.503  0.0788 -0.3090  0.6339
  276MOL0     C37189   1.115   9.736   2.543 -0.0536 -0.5042  0.1481
  276MOL0     C37190   1.593   9.977   1.916  0.4765  0.2263 -0.1615
  276MOL0     C37191   1.693  10.037   1.842  0.3804  0.4554  0.2941
  276MOL0     C37192   1.669  10.166   1.771 -0.5338  0.5012 -0.0425
  276MOL0     H37193   2.221   9.811   1.740 -2.8218  2.0092  2.8348
  276MOL0     H37194   2.476   9.878   1.672 -1.5359 -2.3311 -1.8705
  276MOL0     H37195   2.646  10.046   1.783 -0.1472 -1.7400 -0.6100
  276MOL0     H37196   2.671   9.956   1.635  0.2837 -0.8196  0.5491
  276MOL0     H37197   2.859  10.099   1.727  1.5106 -0.2764 -1.8200
  276MOL0     H37198   2.767  10.245   1.664 -0.7221  0.2148 -0.7345
  276MOL0     H37199   2.786  10.129   1.423 -0.6860 -0.5324  0.8322
  276MOL0     H37200   2.885  10.011   1.512 -1.2966 -0.6011 -0.4932
  276MOL0     H37201   2.934  10.310   1.488  0.1552  0.2988  0.0686
  276MOL0     H37202   3.039  10.196   1.579  0.3315 -0.6172 -0.8100
  276MOL0     H37203   3.070  10.080   1.361  3.0540  0.4605  2.1086
  276MOL0     H37204   2.983  10.223   1.288  0.0692  0.4992  0.2475
  276MOL0     H37205   3.229  10.217   1.271  0.3344 -3.0707  2.4820
  276MOL0     H37206   3.156  10.371   1.325 -0.5449 -0.3911 -0.7741
  276MOL0     H37207   3.255  10.150   1.505  3.6113 -0.5506  0.0333
  276MOL0     H37208   3.242  10.323   1.549  1.2940  1.2034  0.4126
  276MOL0     H37209   3.427  10.250   1.307  0.0658  0.3186  0.8965
  276MOL0     H37210   3.410  10.396   1.398 -2.7048 -0.5139 -2.1388
  276MOL0     H37211   3.473  10.018   1.555  0.3380 -0.4010 -0.5737
  276MOL0     H37212   3.685  10.096   1.868  0.1045  1.4680 -0.3357
  276MOL0     H37213   3.558   9.992   1.818  1.4215 -0.5527  1.6651
  276MOL0     H37214   3.714   9.848   1.769  0.3582 -0.7986 -0.0664
  276MOL0     H37215   3.738   9.926   1.611  1.3051  0.1970  0.4840
  276MOL0     H37216   3.889  10.017   1.861  0.7817 -0.5423  0.9065
  276MOL0     H37217   3.922  10.052   1.687 -0.0142 -0.2647  0.4728
  276MOL0     H37218   3.989   9.828   1.631 -1.3882  0.7072  0.5107
  276MOL0     H37219   3.964   9.778   1.800  1.4437 -1.1354  0.0607
  276MOL0     H37220   4.338  10.026   1.860  0.1833 -0.2055 -0.0592
  276MOL0     H37221   4.513   9.902   1.938 -0.5565 -1.3145  2.5442
  276MOL0     H37222   4.905   9.611   1.794  2.8789 -0.4134  0.5294
  276MOL0     H37223   5.088   9.474   1.888  1.1743  1.0376  0.8765
  276MOL0     H37224   5.083   9.408   2.323 -0.6262  3.4061  0.1340
  276MOL0     H37225   5.258   9.364   2.270 -1.6157 -2.1442 -1.3079
  276MOL0     H37226   5.140   9.640   2.344 -3.1972 -2.6161 -0.2423
  276MOL0     H37227   5.230   9.534   2.438  1.5333  2.2988  0.3353
  276MOL0     H37228   5.331   9.609   2.167 -5.9484 -1.3851  0.2172
  276MOL0     H37229   5.362   9.708   2.316  1.7371  0.2317 -1.2211
  276MOL0     H37230   5.471   9.436   2.268  0.2796 -1.7412  2.8474
  276MOL0     H37231   5.443   9.480   2.428  1.5534 -2.3203  0.2492
  276MOL0     H37232   5.602   9.661   2.421  3.3498 -0.9947  0.0252
  276MOL0     H37233   5.589   9.690   2.241  1.6458 -1.7222 -2.2699
  276MOL0     H37234   5.699   9.458   2.389 -1.4344  1.0699  0.0796
  276MOL0     H37235   5.727   9.489   2.217  0.5891  0.2122 -0.9489
  276MOL0     H37236   5.842   9.651   2.453 -1.1162  1.6299  0.4857
  276MOL0     H37237   5.817   9.719   2.283  1.9524  3.3376  3.2828
  276MOL0     H37238   5.944   9.506   2.216 -0.6226 -0.1373  0.1430
  276MOL0     H37239   6.036   9.647   2.265 -0.7874 -0.3142 -1.3989
  276MOL0     H37240   4.924   9.534   2.280 -2.8053  2.1678  0.7067
  276MOL0     H37241   4.728   9.645   2.188  0.2335 -0.1418 -0.5103
  276MOL0     H37242   4.347   9.541   1.763 -3.0603 -0.5852  0.8713
  276MOL0     H37243   4.158   9.669   1.698  0.2469 -0.9656  1.6041
  276MOL0     H37244   2.352  10.288   1.631 -1.0869  0.1999  1.3381
  276MOL0     H37245   2.115  10.216   1.717  1.4850  1.8231 -0.5044
  276MOL0     H37246   1.924   9.784   1.849  1.0235  1.7989  2.1070
  276MOL0     H37247   1.734   9.674   1.996  0.4978  0.1074 -0.3366
  276MOL0     H37248   1.336   9.881   2.043  1.0358  2.3772 -1.0342
  276MOL0     H37249   1.453   9.949   2.146  0.3625 -1.5854  0.2702
  276MOL0     H37250   1.333   9.680   2.214  0.6660 -0.5454  0.1436
  276MOL0     H37251   1.237   9.817   2.251 -1.2542 -0.9675  0.6116
  276MOL0     H37252   1.416   9.921   2.393 -1.3778  0.1929 -2.0400
  276MOL0     H37253   1.531   9.806   2.335  0.1151 -0.9168 -0.5118
  276MOL0     H37254   1.398   9.625   2.454 -0.6767 -0.2593  2.8298
  276MOL0     H37255   1.439   9.756   2.561  0.6732 -1.1865  0.3132
  276MOL0     H37256   1.013   9.741   2.576  0.4737  1.6110  1.6916
  276MOL0     H37257   1.498  10.029   1.917  0.5842  0.4276  0.7925
  276MOL0     H37258   1.589  10.158   1.696 -0.4977 -2.0579  0.1043
  276MOL0     H37259   1.629  10.242   1.838 -0.7143 -0.0912  0.5408
  276MOL0     H37260   1.750  10.210   1.712 -0.5850 -0.5096 -0.9135
  277MOL0     O37261   2.735   2.527   6.556 -0.8709 -0.2540  0.7659
  277MOL0     C37262   2.639   2.584   6.604 -0.1534  0.0112  0.0688
  277MOL0     O37263   2.637   2.698   6.685 -0.1450 -0.7438 -0.1864
  277MOL0     C37264   2.748   2.783   6.683 -0.0701  0.2358  0.3359
  277MOL0     C37265   2.817   2.813   6.565 -0.8290  0.3559  0.2218
  277MOL0     C37266   2.933   2.886   6.561 -1.0728 -0.9323 -0.1428
  277MOL0     C37267   2.971   2.952   6.674 -1.1423  1.0169  0.2432
  277MOL0     O37268   3.075   3.042   6.692 -0.2127 -0.8681 -0.2489
  277MOL0     C37269   3.162   3.082   6.581  0.1674 -0.8201 -0.3177
  277MOL0     C37270   3.226   3.213   6.621 -0.3044 -0.7607  0.3173
  277MOL0     C37271   3.339   3.207   6.721 -0.0534  0.0372 -0.0717
  277MOL0     C37272   3.388   3.342   6.756  0.0500  0.3929 -0.4462
  277MOL0     C37273   3.508   3.336   6.847 -0.2674  0.1370  0.6325
  277MOL0     C37274   3.562   3.472   6.893  0.1019 -0.1034 -0.6247
  277MOL0     C37275   3.705   3.451   6.933  0.1876 -0.8826  0.0539
  277MOL0     C37276   3.780   3.580   6.977  1.6111  0.0946 -0.1180
  277MOL0     N37277   3.917   3.545   7.027  0.3633 -0.4746  0.2104
  277MOL0     C37278   3.954   3.529   7.153  0.2404 -1.4646 -0.7768
  277MOL0     C37279   4.086   3.498   7.146 -0.7201  0.4468 -1.2021
  277MOL0     C37280   4.165   3.496   7.272  0.5034  0.5096  1.0458
  277MOL0     C37281   4.284   3.402   7.250 -0.2013  0.7732 -0.9671
  277MOL0     C37282   4.348   3.358   7.390 -0.3051  0.1008  0.1549
  277MOL0     C37283   4.475   3.267   7.378 -0.3480 -0.2019  1.0557
  277MOL0     O37284   4.545   3.270   7.502  0.1546 -0.0746  0.0946
  277MOL0     C37285   4.642   3.365   7.531 -0.7852 -0.2615  0.1164
  277MOL0     C37286   4.692   3.370   7.660  0.7174 -0.1153 -0.7408
  277MOL0     C37287   4.789   3.461   7.705 -0.6480  0.2665  0.3467
  277MOL0     C37288   4.851   3.557   7.617  0.7749  0.2565  0.5263
  277MOL0     C37289   4.949   3.650   7.670 -0.6857  0.7809 -0.5573
  277MOL0     O37290   5.017   3.729   7.588 -0.0747  0.3027  0.4281
  277MOL0     C37291   5.122   3.802   7.644  1.0019  0.0982  0.5244
  277MOL0     C37292   5.103   3.940   7.653  0.4811 -0.0701 -0.1068
  277MOL0     C37293   5.196   4.017   7.716  0.3701 -0.0309 -0.3765
  277MOL0     C37294   5.309   3.961   7.779 -0.9190 -0.5054 -0.0667
  277MOL0     O37295   5.390   4.047   7.853 -0.4272 -0.1863  0.2999
  277MOL0     C37296   5.467   3.978   7.950 -0.1375  0.0982 -0.1973
  277MOL0     C37297   5.530   4.082   8.044 -0.7916 -0.2705  0.3091
  277MOL0     C37298   5.560   4.024   8.182 -0.3064 -0.0640  0.2848
  277MOL0     C37299   5.560   4.138   8.280 -0.8434 -0.3888 -0.8997
  277MOL0     C37300   5.689   4.219   8.287  0.8729 -0.4708 -0.3153
  277MOL0     C37301   5.805   4.137   8.349 -0.5071  0.3046  0.0980
  277MOL0     C37302   5.924   4.213   8.411  0.4846  0.4124  0.8710
  277MOL0     C37303   5.873   4.334   8.492 -0.6686  0.5092 -0.6473
  277MOL0    Cl37304   6.019   4.424   8.551 -0.5584 -0.0196  0.1416
  277MOL0     C37305   5.336   3.828   7.762 -0.1122 -0.4752  0.3086
  277MOL0     C37306   5.240   3.746   7.696  0.6703 -0.4683 -0.7797
  277MOL0     O37307   4.967   3.652   7.795  0.1582 -0.1573 -0.0274
  277MOL0     C37308   4.798   3.563   7.490 -0.7885  1.1998 -0.3899
  277MOL0     C37309   4.691   3.469   7.450 -0.1351  0.2255 -0.2992
  277MOL0     N37310   4.118   3.479   7.012  0.7482  0.2211  0.0733
  277MOL0     N37311   4.018   3.515   6.946  1.0507 -0.0506 -0.2563
  277MOL0     C37312   2.895   2.940   6.789  0.7928 -0.5534  0.3649
  277MOL0     C37313   2.789   2.847   6.798 -0.0689  0.0125  0.2277
  277MOL0     C37314   2.508   2.527   6.583  0.3225  0.1184  0.2827
  277MOL0     C37315   2.405   2.560   6.677 -0.1577 -0.0904  1.1057
  277MOL0     C37316   2.272   2.507   6.656 -0.0035 -0.6456 -0.2910
  277MOL0     C37317   2.252   2.415   6.562 -0.3847 -1.0486  0.7531
  277MOL0     O37318   2.131   2.347   6.547  0.2505  0.2510  0.2404
  277MOL0     C37319   2.062   2.315   6.661  0.2285  0.1217  0.2063
  277MOL0     C37320   1.929   2.239   6.626 -0.3351  0.1307  0.1650
  277MOL0     C37321   1.821   2.321   6.568  0.3060  0.1495 -0.2093
  277MOL0     C37322   1.872   2.403   6.446 -0.1789 -0.2721 -0.0021
  277MOL0     C37323   1.775   2.497   6.393 -0.3817  0.0443  0.1233
  277MOL0     C37324   1.700   2.570   6.334  0.3990 -0.3357  0.0387
  277MOL0     C37325   2.349   2.385   6.470 -0.2261  0.0217  0.5260
  277MOL0     C37326   2.470   2.451   6.470 -0.3443 -0.3271  0.6787
  277MOL0     C37327   2.549   2.441   6.343  0.5945 -0.0171 -0.7737
  277MOL0     H37328   2.786   2.760   6.475 -1.1656 -0.3359  0.7319
  277MOL0     H37329   2.984   2.902   6.467 -0.9946 -1.6576 -0.2332
  277MOL0     H37330   3.231   3.003   6.550 -0.8536 -2.0427  0.4379
  277MOL0     H37331   3.092   3.107   6.501 -0.4644  0.0833  0.4952
  277MOL0     H37332   3.142   3.266   6.666 -0.8362 -1.8568  0.6290
  277MOL0     H37333   3.263   3.264   6.531  0.8758 -1.2801  0.4906
  277MOL0     H37334   3.422   3.147   6.681  0.3250 -0.2059  1.0411
  277MOL0     H37335   3.293   3.165   6.811 -3.3341  4.2897  0.5252
  277MOL0     H37336   3.405   3.400   6.664 -1.7224  1.4309 -0.1629
  277MOL0     H37337   3.306   3.399   6.800 -0.0801 -0.1318 -0.0122
  277MOL0     H37338   3.489   3.272   6.934 -0.9429  2.3382  2.1782
  277MOL0     H37339   3.592   3.285   6.798 -1.2179 -0.8338 -0.0223
  277MOL0     H37340   3.561   3.546   6.813  2.1383  0.8262  0.1338
  277MOL0     H37341   3.501   3.498   6.980 -0.9218 -2.0956 -0.6952
  277MOL0     H37342   3.759   3.411   6.847 -0.5085 -3.8337  0.8584
  277MOL0     H37343   3.690   3.382   7.017  0.0376  1.0026  1.6504
  277MOL0     H37344   3.783   3.654   6.897  2.4335  1.9359  1.5381
  277MOL0     H37345   3.718   3.618   7.058 -1.7068 -0.6931 -2.1167
  277MOL0     H37346   3.895   3.548   7.242  2.1546  2.5934 -0.1318
  277MOL0     H37347   4.206   3.595   7.296 -0.0868  0.7848  0.9273
  277MOL0     H37348   4.104   3.474   7.360 -0.1422 -0.1438  0.4460
  277MOL0     H37349   4.250   3.310   7.201 -0.9714 -1.0626  2.6800
  277MOL0     H37350   4.354   3.459   7.188  0.5755  0.3986 -0.4546
  277MOL0     H37351   4.274   3.304   7.449 -0.1192  0.1400  0.4290
  277MOL0     H37352   4.377   3.442   7.455  1.8048 -0.2710 -0.2265
  277MOL0     H37353   4.540   3.306   7.299 -1.7645 -0.4520 -0.2871
  277MOL0     H37354   4.440   3.167   7.350 -1.2951  0.3155  0.2922
  277MOL0     H37355   4.643   3.307   7.734  2.0188  0.5295  0.7165
  277MOL0     H37356   4.828   3.454   7.806  0.3189 -0.9384 -0.0870
  277MOL0     H37357   5.014   3.981   7.606 -1.2263 -1.7801  1.4128
  277MOL0     H37358   5.182   4.124   7.717  3.4464  0.4701  1.5898
  277MOL0     H37359   5.402   3.914   8.011 -0.4422  0.1801 -0.4326
  277MOL0     H37360   5.554   3.926   7.908  0.1484 -1.3228  1.9954
  277MOL0     H37361   5.620   4.121   7.996  0.7678 -4.7185 -0.8823
  277MOL0     H37362   5.460   4.165   8.061 -1.8329 -0.7791 -1.3029
  277MOL0     H37363   5.479   3.955   8.209  0.6761 -1.8823 -1.1490
  277MOL0     H37364   5.652   3.964   8.187 -0.0512  0.2653 -0.4097
  277MOL0     H37365   5.538   4.104   8.381  0.8374  3.4125  0.9673
  277MOL0     H37366   5.486   4.215   8.256  0.7350  1.1007 -1.2413
  277MOL0     H37367   5.660   4.308   8.344  0.0135 -0.6018 -0.5335
  277MOL0     H37368   5.717   4.239   8.184  0.0604  1.2018 -0.2439
  277MOL0     H37369   5.750   4.080   8.425 -0.0131 -2.9909 -1.8168
  277MOL0     H37370   5.853   4.067   8.281 -2.0293  0.6010 -1.3302
  277MOL0     H37371   5.973   4.260   8.326 -2.1281  2.0594  0.1246
  277MOL0     H37372   5.992   4.150   8.468 -0.1920 -1.7770 -0.6038
  277MOL0     H37373   5.821   4.415   8.438 -0.0184  1.0948 -0.4156
  277MOL0     H37374   5.816   4.293   8.575  2.1409  0.6922  1.5186
  277MOL0     H37375   5.426   3.782   7.802 -0.4370 -1.1271  0.3026
  277MOL0     H37376   5.260   3.640   7.693  3.3808 -0.0346 -0.8328
  277MOL0     H37377   4.836   3.635   7.418  0.5317 -1.2477 -2.2889
  277MOL0     H37378   4.649   3.482   7.351 -3.5281  0.7098  1.0471
  277MOL0     H37379   2.925   3.000   6.874 -0.4908  1.5825 -0.6144
  277MOL0     H37380   2.725   2.846   6.885 -2.5289  1.1023 -1.4646
  277MOL0     H37381   2.426   2.620   6.766  4.1731 -2.1111  1.6946
  277MOL0     H37382   2.206   2.517   6.742  1.2665 -3.0203  1.0796
  277MOL0     H37383   2.040   2.409   6.713 -0.1152  0.9179 -1.3056
  277MOL0     H37384   2.126   2.250   6.721  0.0821 -1.0225 -0.8429
  277MOL0     H37385   1.884   2.182   6.707  2.1544 -2.8418 -0.3486
  277MOL0     H37386   1.953   2.169   6.545 -1.8826  1.4165 -1.5058
  277MOL0     H37387   1.785   2.386   6.648  1.4320  0.0631  0.3963
  277MOL0     H37388   1.738   2.258   6.534 -0.1934  1.0986 -0.7934
  277MOL0     H37389   1.955   2.467   6.476 -0.0436 -0.6720  0.4930
  277MOL0     H37390   1.898   2.339   6.361  0.6418  1.6039 -1.2391
  277MOL0     H37391   1.631   2.622   6.270 -0.6556  0.6664  1.9062
  277MOL0     H37392   2.311   2.319   6.393 -0.6311 -0.5219  1.1834
  277MOL0     H37393   2.484   2.424   6.256  0.2600 -1.8703 -0.2248
  277MOL0     H37394   2.603   2.535   6.331 -0.8974  1.6284  3.6017
  277MOL0     H37395   2.619   2.357   6.350  0.8282  0.1132 -1.4654
  278MOL0     O37396   7.369   1.873  10.707 -0.1859  0.2032  0.1360
  278MOL0     C37397   7.340   1.765  10.661  0.2057 -0.3699 -0.9943
  278MOL0     O37398   7.377   1.647  10.718  0.1216  0.0753 -1.3509
  278MOL0     C37399   7.465   1.652  10.818  0.2587  0.4721  0.7310
  278MOL0     C37400   7.590   1.684  10.779 -0.3027  0.3688 -0.0468
  278MOL0     C37401   7.694   1.707  10.874 -0.1884 -0.3166  0.2687
  278MOL0     C37402   7.666   1.681  11.011  1.5835 -0.2535 -0.9135
  278MOL0     O37403   7.759   1.670  11.112 -0.2625 -0.2632  0.2649
  278MOL0     C37404   7.892   1.723  11.088 -0.5561  0.5073  0.1452
  278MOL0     C37405   7.953   1.744  11.222 -0.1242  0.1697  0.3167
  278MOL0     C37406   8.103   1.777  11.213  0.3661  0.6458 -0.1724
  278MOL0     C37407   8.184   1.647  11.172  0.1517  0.6500 -0.3978
  278MOL0     C37408   8.335   1.677  11.204  0.3499 -0.0822  0.2868
  278MOL0     C37409   8.402   1.544  11.186  0.2047 -0.0200  0.0456
  278MOL0     C37410   8.544   1.538  11.239 -0.0353 -0.1646 -0.1103
  278MOL0     C37411   8.647   1.634  11.166  0.2259 -0.4110 -0.2289
  278MOL0     N37412   8.774   1.618  11.242 -0.5554 -0.6342 -0.2071
  278MOL0     C37413   8.823   1.696  11.346  0.4111  0.2203 -0.5158
  278MOL0     C37414   8.942   1.637  11.379  0.0687 -0.2276  0.5337
  278MOL0     C37415   9.046   1.711  11.469  0.5518  0.4940 -0.4475
  278MOL0     C37416   9.124   1.810  11.396 -0.1872 -0.8934 -0.1919
  278MOL0     C37417   9.271   1.778  11.402 -0.0352  0.7959  0.4916
  278MOL0     C37418   9.294   1.653  11.313 -0.4166 -0.7193  0.6517
  278MOL0     O37419   9.434   1.650  11.263  0.0585  0.1774  0.3084
  278MOL0     C37420   9.542   1.660  11.338  0.7474 -0.6743  0.0477
  278MOL0     C37421   9.647   1.754  11.309  0.6612  0.1773 -0.1018
  278MOL0     C37422   9.755   1.763  11.396 -0.5108  0.6233 -0.1529
  278MOL0     C37423   9.765   1.685  11.511  0.5007  0.2584 -0.2574
  278MOL0     C37424   9.895   1.684  11.579  0.5962  0.8785  0.0029
  278MOL0     O37425   9.985   1.770  11.544  0.1982  0.6132  1.1402
  278MOL0     C37426  10.091   1.806  11.631  0.1870  0.2064  0.4637
  278MOL0     C37427  10.073   1.823  11.772 -0.0209 -0.3706 -0.1739
  278MOL0     C37428  10.187   1.837  11.856 -0.5662 -0.6686  0.0786
  278MOL0     C37429  10.317   1.844  11.797  0.5764  0.1439  0.1222
  278MOL0     O37430  10.433   1.842  11.873  0.1660  0.3483 -0.7671
  278MOL0     C37431  10.428   1.821  12.012  0.1613 -0.6675 -0.8348
  278MOL0     C37432  10.566   1.865  12.060 -0.8516 -0.3076 -0.0448
  278MOL0     C37433  10.577   1.863  12.218 -0.1352  0.2463  0.5910
  278MOL0     C37434  10.714   1.906  12.265 -0.1452 -0.0887  0.2063
  278MOL0     C37435  10.748   2.048  12.219  0.3103  0.0990 -0.6166
  278MOL0     C37436  10.881   2.090  12.275 -0.1433 -0.5065  0.2160
  278MOL0     C37437  10.913   2.232  12.217 -0.4161  0.3482  0.3242
  278MOL0     C37438  11.062   2.252  12.239  0.7197  0.8857 -0.2787
  278MOL0    Cl37439  11.167   2.161  12.128 -0.1243 -0.0839 -0.0549
  278MOL0     C37440  10.330   1.850  11.660  0.8811  0.3264  0.5375
  278MOL0     C37441  10.222   1.817  11.577  0.5508  0.1372 -0.1582
  278MOL0     O37442   9.903   1.605  11.669  0.7120 -0.2924 -0.1818
  278MOL0     C37443   9.659   1.607  11.544 -0.5262  0.7112 -0.3489
  278MOL0     C37444   9.551   1.593  11.459  0.6133 -0.1054 -0.2817
  278MOL0     N37445   8.968   1.533  11.296  0.1606  0.2995  0.0738
  278MOL0     N37446   8.862   1.515  11.220 -0.7371 -0.6380 -0.3992
  278MOL0     C37447   7.531   1.657  11.042 -0.1402 -0.3527  0.3429
  278MOL0     C37448   7.434   1.634  10.951  0.1622  0.6329  0.0775
  278MOL0     C37449   7.249   1.768  10.547 -0.1715  0.4919 -0.8316
  278MOL0     C37450   7.148   1.675  10.549 -0.0254 -0.1801 -0.1809
  278MOL0     C37451   7.056   1.672  10.451  0.7633 -0.6035  0.4494
  278MOL0     C37452   7.060   1.766  10.342 -0.2289  1.4773  0.5171
  278MOL0     O37453   6.961   1.775  10.244 -0.4335 -0.0335  0.1083
  278MOL0     C37454   6.847   1.686  10.229 -0.4578 -0.0048  0.8418
  278MOL0     C37455   6.754   1.744  10.131  0.2196  0.5776  0.8866
  278MOL0     C37456   6.623   1.657  10.143  1.1574 -0.9361  0.3616
  278MOL0     C37457   6.510   1.730  10.068  0.5344 -0.5606 -0.5470
  278MOL0     C37458   6.386   1.646  10.070 -0.3277  0.6179  0.0960
  278MOL0     C37459   6.285   1.576  10.057  0.4516  0.3186  1.1169
  278MOL0     C37460   7.158   1.861  10.342  0.6789  0.7432 -0.2891
  278MOL0     C37461   7.256   1.868  10.447  0.3691 -0.9362 -0.1147
  278MOL0     C37462   7.351   1.982  10.431  0.1520  0.4431 -0.9980
  278MOL0     H37463   7.601   1.699  10.672  1.9525  1.3727  0.2734
  278MOL0     H37464   7.794   1.728  10.838 -1.2689 -1.8587 -4.3853
  278MOL0     H37465   7.948   1.653  11.025 -3.8740 -0.4848 -1.9116
  278MOL0     H37466   7.884   1.821  11.040 -0.7414  0.6966  0.5637
  278MOL0     H37467   7.940   1.657  11.287 -0.8254  0.0413  0.0092
  278MOL0     H37468   7.897   1.822  11.274 -1.1770 -1.9489  2.5531
  278MOL0     H37469   8.131   1.813  11.312 -0.6310 -0.1290  0.3996
  278MOL0     H37470   8.115   1.866  11.150 -2.3077  0.9481 -0.3754
  278MOL0     H37471   8.144   1.557  11.220  0.4761 -0.0992 -1.4941
  278MOL0     H37472   8.173   1.628  11.064 -0.4501  0.1120 -0.2472
  278MOL0     H37473   8.377   1.748  11.132  3.3395 -1.2421  0.7308
  278MOL0     H37474   8.349   1.709  11.307 -1.9455 -1.9953  1.3098
  278MOL0     H37475   8.344   1.464  11.234 -1.7135 -0.1369 -2.2773
  278MOL0     H37476   8.404   1.521  11.079  0.3237 -3.4882  0.6718
  278MOL0     H37477   8.580   1.435  11.236 -1.5476 -0.7990  1.7918
  278MOL0     H37478   8.541   1.580  11.340 -1.6989 -0.2302 -0.0977
  278MOL0     H37479   8.661   1.596  11.065  1.1896  1.6068 -0.9210
  278MOL0     H37480   8.618   1.740  11.165 -1.2528 -0.7865 -1.8206
  278MOL0     H37481   8.773   1.778  11.397  1.1152 -0.6541  1.6483
  278MOL0     H37482   8.996   1.761  11.553  1.9468 -0.2167  0.8772
  278MOL0     H37483   9.113   1.640  11.519  0.9590  0.8587 -0.4698
  278MOL0     H37484   9.093   1.815  11.292 -2.8925  1.9600  0.5978
  278MOL0     H37485   9.124   1.909  11.442 -3.1210 -0.9021 -0.0018
  278MOL0     H37486   9.300   1.764  11.506  0.1488  1.7248  0.5783
  278MOL0     H37487   9.321   1.864  11.356 -0.4706  0.3413 -0.8855
  278MOL0     H37488   9.233   1.655  11.222  1.5657  3.7227 -0.8858
  278MOL0     H37489   9.273   1.562  11.369  1.9078 -1.9137 -0.2671
  278MOL0     H37490   9.652   1.832  11.234 -0.3555 -1.0938 -1.5380
  278MOL0     H37491   9.836   1.833  11.380  0.3514 -0.4754 -0.6876
  278MOL0     H37492   9.983   1.807  11.831  0.8048 -1.6106  0.8135
  278MOL0     H37493  10.175   1.825  11.963 -1.9572  0.4804  0.0740
  278MOL0     H37494  10.370   1.898  12.063  1.5636 -0.3950  0.4147
  278MOL0     H37495  10.405   1.720  12.047  0.5523  0.1079  1.8431
  278MOL0     H37496  10.640   1.801  12.012 -0.4896  0.1947 -0.1650
  278MOL0     H37497  10.595   1.964  12.023  1.4078 -0.3292  1.4881
  278MOL0     H37498  10.503   1.931  12.261 -1.0336 -1.7740  2.4454
  278MOL0     H37499  10.572   1.757  12.243  2.6578 -0.5299 -1.6689
  278MOL0     H37500  10.787   1.835  12.223 -1.8570 -1.0739 -1.2398
  278MOL0     H37501  10.714   1.904  12.374 -0.0130  0.3726  0.2157
  278MOL0     H37502  10.679   2.119  12.263 -0.7405 -0.5301 -1.2127
  278MOL0     H37503  10.748   2.054  12.109 -0.9702  0.1863 -0.6223
  278MOL0     H37504  10.886   2.109  12.383 -0.3196 -1.8869  0.4769
  278MOL0     H37505  10.954   2.014  12.246  0.5022  0.2383 -0.1367
  278MOL0     H37506  10.859   2.311  12.270  1.6619  2.9762 -1.2110
  278MOL0     H37507  10.891   2.248  12.111 -2.0968  2.4460  0.9204
  278MOL0     H37508  11.087   2.358  12.238 -0.5781  1.3480  2.9949
  278MOL0     H37509  11.092   2.207  12.335  3.3857 -0.5220 -1.6485
  278MOL0     H37510  10.431   1.856  11.621  0.4598 -1.3692 -0.9359
  278MOL0     H37511  10.234   1.800  11.471 -2.1273 -0.7003 -0.3970
  278MOL0     H37512   9.670   1.538  11.627  0.2193 -0.1752 -1.1600
  278MOL0     H37513   9.468   1.526  11.481  0.7594 -0.6665 -1.3725
  278MOL0     H37514   7.500   1.651  11.146  0.3688 -1.3394  0.4503
  278MOL0     H37515   7.336   1.609  10.992  1.8724 -3.0102  2.4482
  278MOL0     H37516   7.150   1.593  10.620  0.6802  0.0016  0.0115
  278MOL0     H37517   6.975   1.601  10.464  1.1430 -1.2501 -0.5595
  278MOL0     H37518   6.797   1.670  10.325 -0.4986  0.7861  0.9584
  278MOL0     H37519   6.883   1.589  10.192  1.1873  1.5148 -1.8585
  278MOL0     H37520   6.800   1.740  10.032 -3.2292 -2.5008 -0.8141
  278MOL0     H37521   6.737   1.842  10.177 -2.1301 -0.2193  1.8329
  278MOL0     H37522   6.598   1.646  10.248  1.0481  0.6667  0.5315
  278MOL0     H37523   6.645   1.558  10.102  2.6298  0.3834 -2.3613
  278MOL0     H37524   6.482   1.820  10.122 -0.5701  0.3328 -2.5010
  278MOL0     H37525   6.539   1.753   9.965  0.5605 -1.7647 -0.8217
  278MOL0     H37526   6.199   1.515  10.042 -0.0951  1.2627  0.2468
  278MOL0     H37527   7.141   1.940  10.269 -2.6245  0.3401 -0.1168
  278MOL0     H37528   7.453   1.942  10.432  0.7664  1.9368  0.2932
  278MOL0     H37529   7.325   2.025  10.335 -3.0536 -3.3177 -2.0630
  278MOL0     H37530   7.328   2.045  10.518 -1.2394 -0.1878 -0.8918
  279MOL0     O37531   5.097   7.623  10.945 -0.7247  0.1994 -0.3269
  279MOL0     C37532   5.057   7.610  10.824 -0.5133 -0.1125  0.1257
  279MOL0     O37533   5.140   7.617  10.713  0.2288  0.1336  0.3605
  279MOL0     C37534   5.273   7.642  10.731 -0.0100 -0.5735 -0.4266
  279MOL0     C37535   5.322   7.715  10.620  0.9139  0.2397 -0.4416
  279MOL0     C37536   5.460   7.744  10.604 -0.0098  0.2391  0.2315
  279MOL0     C37537   5.553   7.676  10.694  0.6823 -0.1939 -0.2513
  279MOL0     O37538   5.688   7.685  10.689  0.2960 -1.1382 -0.7466
  279MOL0     C37539   5.750   7.719  10.568 -0.4773  0.3291  0.4207
  279MOL0     C37540   5.897   7.693  10.585 -0.0215  0.1215  0.4191
  279MOL0     C37541   5.981   7.733  10.470 -0.3892  0.3005  0.2040
  279MOL0     C37542   6.119   7.670  10.458 -0.7092 -0.8512 -0.0471
  279MOL0     C37543   6.206   7.747  10.365  0.1049 -0.6802  0.0781
  279MOL0     C37544   6.354   7.687  10.359 -0.9705 -0.3880  0.9066
  279MOL0     C37545   6.450   7.770  10.272  0.4528  0.0955  0.3673
  279MOL0     C37546   6.589   7.718  10.261  0.1142  0.2990  0.5431
  279MOL0     N37547   6.676   7.814  10.197  0.0783 -0.1975  0.4378
  279MOL0     C37548   6.702   7.934  10.252  0.2082  0.0939 -0.0870
  279MOL0     C37549   6.813   7.975  10.193 -0.3788 -0.6135 -0.0710
  279MOL0     C37550   6.891   8.090  10.247  1.5659 -0.3727 -0.0815
  279MOL0     C37551   7.003   8.125  10.166 -0.2974 -0.7839  0.2454
  279MOL0     C37552   7.072   8.247  10.210  0.5389  0.4068  0.6347
  279MOL0     C37553   7.222   8.252  10.160 -0.0237  0.3865 -0.6576
  279MOL0     O37554   7.263   8.390  10.163  0.2126 -0.0109  0.2056
  279MOL0     C37555   7.393   8.419  10.201  0.2150  0.4781 -0.3724
  279MOL0     C37556   7.495   8.339  10.241 -0.8893 -0.5988  0.1299
  279MOL0     C37557   7.622   8.395  10.274 -0.5362 -0.5168  0.3620
  279MOL0     C37558   7.650   8.528  10.256 -0.2878  0.1581  0.6631
  279MOL0     C37559   7.790   8.578  10.261 -0.1613 -0.4280  0.4147
  279MOL0     O37560   7.892   8.493  10.218  0.0264  0.2167 -0.8293
  279MOL0     C37561   8.018   8.540  10.231  0.2761 -0.3968 -0.3221
  279MOL0     C37562   8.101   8.442  10.275 -0.1245 -0.4695  0.6980
  279MOL0     C37563   8.233   8.471  10.311  0.3136  0.3828 -0.0396
  279MOL0     C37564   8.270   8.605  10.304 -0.3730  0.4809 -0.0493
  279MOL0     O37565   8.398   8.620  10.349  0.6569 -0.3672  0.0291
  279MOL0     C37566   8.423   8.754  10.405  1.2482  1.0444  0.0379
  279MOL0     C37567   8.546   8.758  10.494 -0.1477 -0.1340  1.3003
  279MOL0     C37568   8.676   8.698  10.431 -0.3501 -0.3604 -0.3326
  279MOL0     C37569   8.806   8.732  10.509 -0.0036 -0.5670 -0.4367
  279MOL0     C37570   8.873   8.872  10.476 -1.3135 -0.2132  0.0416
  279MOL0     C37571   8.985   8.904  10.576 -0.0358  0.6018 -0.3761
  279MOL0     C37572   9.108   8.825  10.558  0.6383 -0.3618  0.5143
  279MOL0     C37573   9.221   8.911  10.622 -0.6652 -0.1839 -0.2102
  279MOL0    Cl37574   9.267   9.045  10.511 -0.4522 -0.2244 -0.1330
  279MOL0     C37575   8.185   8.702  10.243 -0.7825  0.0516 -0.3304
  279MOL0     C37576   8.065   8.663  10.202 -0.7803 -0.3158 -0.3718
  279MOL0     O37577   7.797   8.695  10.297  0.3343  0.5823 -0.3107
  279MOL0     C37578   7.551   8.606  10.198 -0.2702 -0.5218  0.5644
  279MOL0     C37579   7.425   8.557  10.180  0.0297  0.0346 -0.0475
  279MOL0     N37580   6.867   7.884  10.109  0.5525 -0.4155 -0.6178
  279MOL0     N37581   6.782   7.786  10.109 -0.2751  0.3960  1.0403
  279MOL0     C37582   5.498   7.610  10.808 -0.2642 -0.3240 -0.8738
  279MOL0     C37583   5.358   7.594  10.828 -0.0405 -0.3684  0.4202
  279MOL0     C37584   4.912   7.584  10.801  0.9351 -0.2910 -0.2559
  279MOL0     C37585   4.870   7.531  10.675  0.1433  0.3841 -0.0424
  279MOL0     C37586   4.737   7.485  10.645 -0.7270 -0.0030  0.1553
  279MOL0     C37587   4.642   7.507  10.742 -0.1341 -0.9393  0.3897
  279MOL0     O37588   4.508   7.481  10.718 -1.0480  0.2463  0.2868
  279MOL0     C37589   4.469   7.411  10.601  0.1566 -0.2831  0.8617
  279MOL0     C37590   4.434   7.503  10.480  0.0460 -0.1534 -0.6777
  279MOL0     C37591   4.386   7.650  10.529 -0.0179  0.1785  0.5526
  279MOL0     C37592   4.255   7.665  10.603  0.0237  0.7420 -0.3394
  279MOL0     C37593   4.139   7.593  10.537 -0.3300 -0.0945  0.1308
  279MOL0     C37594   4.045   7.542  10.492  0.4358 -0.4542  0.3132
  279MOL0     C37595   4.667   7.564  10.868  0.6688  0.1232  0.2915
  279MOL0     C37596   4.802   7.596  10.898  0.0295  0.3544  0.9017
  279MOL0     C37597   4.817   7.654  11.029 -0.9175  0.1806 -0.1575
  279MOL0     H37598   5.252   7.751  10.545 -1.6412 -2.8802  0.2352
  279MOL0     H37599   5.513   7.805  10.531  3.4541 -1.3441  1.1727
  279MOL0     H37600   5.709   7.653  10.491 -1.1964 -0.2755  1.2931
  279MOL0     H37601   5.743   7.824  10.538  0.5584  0.2362 -0.1759
  279MOL0     H37602   5.912   7.585  10.599 -0.5741 -0.4970 -2.9343
  279MOL0     H37603   5.930   7.757  10.668  3.0625 -1.8467  0.8983
  279MOL0     H37604   5.978   7.842  10.461  0.9983  0.1784 -3.3783
  279MOL0     H37605   5.930   7.699  10.379 -0.7762 -1.3410  1.0034
  279MOL0     H37606   6.164   7.665  10.557  0.6794 -3.2574 -0.7196
  279MOL0     H37607   6.100   7.567  10.427  1.8701 -1.4747  0.2448
  279MOL0     H37608   6.160   7.768  10.268 -1.2371  2.4242  1.2738
  279MOL0     H37609   6.211   7.846  10.410 -1.0388  0.0654 -1.3540
  279MOL0     H37610   6.391   7.665  10.459  1.1287 -0.7388  0.0972
  279MOL0     H37611   6.343   7.586  10.318  0.5233 -0.3341  0.3062
  279MOL0     H37612   6.457   7.870  10.316 -0.1806  0.1269  0.4015
  279MOL0     H37613   6.404   7.770  10.173 -0.8372  3.5619  0.8418
  279MOL0     H37614   6.625   7.717  10.364 -2.3334  1.2776  1.4994
  279MOL0     H37615   6.603   7.618  10.218  1.1513 -1.0502  3.7423
  279MOL0     H37616   6.643   7.979  10.331 -1.2942  1.2298 -1.7710
  279MOL0     H37617   6.828   8.180  10.251  1.1109 -0.7111  0.5029
  279MOL0     H37618   6.915   8.071  10.352 -1.3667 -1.5721  0.4556
  279MOL0     H37619   7.082   8.054  10.193  2.3089  2.7488  2.9337
  279MOL0     H37620   6.979   8.124  10.059  4.6079  2.8682 -1.2609
  279MOL0     H37621   7.075   8.247  10.319 -1.0139 -2.1532  0.7679
  279MOL0     H37622   7.019   8.332  10.166  1.3902  0.0274 -1.2126
  279MOL0     H37623   7.220   8.216  10.057  0.5713  4.1712 -2.1453
  279MOL0     H37624   7.273   8.186  10.231 -3.0723  0.3817  1.7593
  279MOL0     H37625   7.487   8.231  10.237 -2.4425 -0.5471  1.2230
  279MOL0     H37626   7.698   8.328  10.312  1.4200 -0.7149 -3.3649
  279MOL0     H37627   8.069   8.341  10.302 -1.2283 -0.1092  0.7917
  279MOL0     H37628   8.300   8.396  10.352 -0.8708  0.3154  1.9038
  279MOL0     H37629   8.439   8.825  10.322  1.0042 -0.6286 -1.4974
  279MOL0     H37630   8.343   8.798  10.465  2.6735  2.8289  0.7179
  279MOL0     H37631   8.574   8.857  10.530  0.1575  0.1680  0.2776
  279MOL0     H37632   8.523   8.698  10.582 -3.7691  0.8845  1.1846
  279MOL0     H37633   8.667   8.590  10.416 -4.6733 -0.2734  0.3612
  279MOL0     H37634   8.687   8.747  10.334  2.2942  0.8903  0.5050
  279MOL0     H37635   8.881   8.653  10.497  0.2168 -0.3128 -0.7630
  279MOL0     H37636   8.775   8.722  10.613  0.5060 -0.8375 -0.3071
  279MOL0     H37637   8.801   8.955  10.477  0.6039  1.5622  1.8337
  279MOL0     H37638   8.917   8.877  10.377 -1.1411  0.3623  0.1424
  279MOL0     H37639   9.010   9.010  10.561  0.6579  0.6670  1.0699
  279MOL0     H37640   8.946   8.894  10.678  1.0856  0.6372  0.0682
  279MOL0     H37641   9.134   8.823  10.451  2.3929  1.5424  0.8456
  279MOL0     H37642   9.100   8.727  10.606 -2.9045  0.1692  1.2266
  279MOL0     H37643   9.181   8.953  10.715  1.6086 -0.5083  0.9864
  279MOL0     H37644   9.308   8.848  10.640  0.2025  1.0526  0.0614
  279MOL0     H37645   8.224   8.803  10.237  0.3095 -0.2501  1.0953
  279MOL0     H37646   8.002   8.749  10.177  1.8988  1.5174 -1.3298
  279MOL0     H37647   7.586   8.705  10.170  1.3743 -1.2683 -0.0965
  279MOL0     H37648   7.356   8.625  10.134 -0.0186 -0.8221 -1.2788
  279MOL0     H37649   5.567   7.566  10.879  1.8946  0.4998 -2.3506
  279MOL0     H37650   5.302   7.535  10.900 -2.1021 -0.9685 -1.5684
  279MOL0     H37651   4.956   7.497  10.616  1.6481 -2.3392  3.3609
  279MOL0     H37652   4.713   7.435  10.551 -0.6701 -1.4649  0.8856
  279MOL0     H37653   4.374   7.363  10.628  1.0256 -2.9758 -0.5136
  279MOL0     H37654   4.535   7.333  10.563 -3.3184 -2.6488 -0.9343
  279MOL0     H37655   4.347   7.450  10.439 -1.5165  2.7518 -1.3726
  279MOL0     H37656   4.511   7.521  10.404 -0.1923 -2.7364 -1.6373
  279MOL0     H37657   4.390   7.716  10.442  1.2959 -1.9089 -1.0784
  279MOL0     H37658   4.462   7.691  10.597 -1.0196  1.5642  0.8780
  279MOL0     H37659   4.258   7.622  10.703 -1.2279  2.9228  0.7021
  279MOL0     H37660   4.238   7.772  10.614  3.4678  1.1920  2.4398
  279MOL0     H37661   3.967   7.473  10.467 -0.7880  1.2716 -0.8182
  279MOL0     H37662   4.589   7.596  10.936  1.3554 -1.7775  2.0906
  279MOL0     H37663   4.877   7.745  11.022  0.0000 -0.4500 -0.7901
  279MOL0     H37664   4.726   7.700  11.069 -1.1550 -0.1457 -0.3176
  279MOL0     H37665   4.875   7.589  11.095  0.7582  0.7286 -1.0324
  280MOL0     O37666   4.797   3.480   9.530 -0.0894 -0.3771  0.3001
  280MOL0     C37667   4.912   3.444   9.562  0.4584  0.1692  0.2981
  280MOL0     O37668   4.946   3.399   9.685  0.2649 -0.0582 -0.1281
  280MOL0     C37669   4.861   3.434   9.788  0.7054 -0.7471 -0.5433
  280MOL0     C37670   4.798   3.558   9.805 -0.3081 -0.4137  0.1574
  280MOL0     C37671   4.721   3.578   9.921 -0.4203  0.4676  0.1520
  280MOL0     C37672   4.693   3.481  10.020  0.0010  0.2069  0.9531
  280MOL0     O37673   4.627   3.516  10.137  0.1811 -0.6732  0.6596
  280MOL0     C37674   4.695   3.508  10.261 -0.1684  0.3699 -0.0607
  280MOL0     C37675   4.611   3.592  10.357  0.0243  0.0813  0.0876
  280MOL0     C37676   4.647   3.612  10.503 -0.2395  0.4349  0.4299
  280MOL0     C37677   4.646   3.477  10.571  0.2098 -0.0712 -0.1619
  280MOL0     C37678   4.698   3.486  10.717  0.3094  0.1993 -0.4133
  280MOL0     C37679   4.574   3.514  10.808  0.0482  0.3775  0.4497
  280MOL0     C37680   4.615   3.536  10.955 -0.8355  0.1751 -0.8446
  280MOL0     C37681   4.489   3.535  11.047  0.5610  0.6555 -0.5287
  280MOL0     N37682   4.417   3.405  11.033 -0.9457 -0.3876  0.0381
  280MOL0     C37683   4.482   3.284  11.057  1.2684  0.2282  0.8997
  280MOL0     C37684   4.395   3.192  11.016  0.3609  0.5062  0.8241
  280MOL0     C37685   4.417   3.044  11.039 -0.2674 -1.1123  0.1780
  280MOL0     C37686   4.532   2.995  11.118 -0.4300 -0.7052 -0.9486
  280MOL0     C37687   4.569   2.842  11.108  0.7630 -0.4690 -0.4366
  280MOL0     C37688   4.668   2.790  11.217 -0.0876 -0.4682 -1.1199
  280MOL0     O37689   4.795   2.828  11.169 -0.5410  1.0064 -0.1199
  280MOL0     C37690   4.908   2.790  11.241  0.0991  0.4625 -0.5245
  280MOL0     C37691   5.031   2.787  11.176  0.5553 -0.4916 -0.8050
  280MOL0     C37692   5.141   2.747  11.240 -0.3223 -0.3680  0.0582
  280MOL0     C37693   5.140   2.722  11.381 -0.3112 -0.4757  0.7281
  280MOL0     C37694   5.264   2.706  11.447  0.7358  0.5949 -0.1768
  280MOL0     O37695   5.376   2.712  11.367 -0.7328  0.1265 -0.6090
  280MOL0     C37696   5.505   2.688  11.422 -0.0098 -0.4857  0.7994
  280MOL0     C37697   5.549   2.764  11.535  0.4264  0.3808 -0.9758
  280MOL0     C37698   5.676   2.761  11.578  0.0494  0.2930  0.0376
  280MOL0     C37699   5.768   2.684  11.504  0.7157  0.2573 -0.2553
  280MOL0     O37700   5.896   2.688  11.559 -1.1460  0.5371  0.9026
  280MOL0     C37701   5.995   2.599  11.501  0.0963 -0.1635 -0.8866
  280MOL0     C37702   5.982   2.465  11.564  0.1183  0.2751 -0.4169
  280MOL0     C37703   6.107   2.376  11.555 -0.4866 -0.3790 -0.0161
  280MOL0     C37704   6.206   2.418  11.666 -0.7374 -0.3106 -0.3471
  280MOL0     C37705   6.318   2.311  11.669 -0.3113  0.2991 -0.6990
  280MOL0     C37706   6.451   2.371  11.661  1.0314 -0.1054  0.0863
  280MOL0     C37707   6.568   2.265  11.679 -0.3125 -0.2910 -0.3083
  280MOL0     C37708   6.711   2.313  11.660  0.1484 -0.3483  0.2634
  280MOL0    Cl37709   6.754   2.455  11.753  0.6482 -0.3497 -0.3467
  280MOL0     C37710   5.723   2.597  11.395 -0.5762  0.1057  0.1211
  280MOL0     C37711   5.595   2.611  11.348 -0.1982 -0.8596  0.1459
  280MOL0     O37712   5.259   2.702  11.571  0.4907  0.9258  0.1599
  280MOL0     C37713   5.016   2.726  11.451 -1.0531  0.1970  0.0395
  280MOL0     C37714   4.904   2.755  11.379 -0.2288  0.0800 -0.2824
  280MOL0     N37715   4.286   3.259  10.966 -0.0999 -0.4027 -0.5354
  280MOL0     N37716   4.298   3.383  10.978  0.3558  0.3904  1.1333
  280MOL0     C37717   4.758   3.353   9.995  0.1027  0.7981  0.0796
  280MOL0     C37718   4.843   3.341   9.890  1.0397 -0.1449  0.8585
  280MOL0     C37719   5.013   3.435   9.458 -0.2368  0.0259  0.3902
  280MOL0     C37720   4.975   3.394   9.331 -0.1498  0.7280 -0.1421
  280MOL0     C37721   5.069   3.387   9.228 -0.2756 -0.0129  0.7752
  280MOL0     C37722   5.204   3.408   9.249  0.5700  0.2930  0.7901
  280MOL0     O37723   5.275   3.384   9.133 -0.7616 -0.0659  0.1185
  280MOL0     C37724   5.418   3.420   9.135  0.3913  0.0267  0.4506
  280MOL0     C37725   5.518   3.343   9.216 -1.0373 -0.7845 -0.3258
  280MOL0     C37726   5.537   3.198   9.176 -0.1032  0.6013  0.2320
  280MOL0     C37727   5.649   3.127   9.256  0.3941 -0.6330 -0.1744
  280MOL0     C37728   5.780   3.147   9.202 -0.7950  0.4755 -0.2296
  280MOL0     C37729   5.900   3.151   9.171 -0.5314 -0.8096  0.2553
  280MOL0     C37730   5.243   3.462   9.368  0.2871 -0.3539  0.1767
  280MOL0     C37731   5.155   3.471   9.474  0.9666 -1.5904  0.0852
  280MOL0     C37732   5.202   3.535   9.599  0.2356  0.1807 -0.0666
  280MOL0     H37733   4.812   3.638   9.732  1.8974 -1.2967 -0.4529
  280MOL0     H37734   4.696   3.682   9.936 -0.2933  0.6878 -1.0260
  280MOL0     H37735   4.706   3.406  10.297  1.3514  0.6138  0.2205
  280MOL0     H37736   4.797   3.547  10.257 -0.7117  2.1335  1.7386
  280MOL0     H37737   4.510   3.550  10.348  0.8758 -2.0203 -0.1709
  280MOL0     H37738   4.605   3.693  10.315 -1.4463  0.2886  0.7336
  280MOL0     H37739   4.571   3.674  10.551 -2.1035 -0.8532 -0.7361
  280MOL0     H37740   4.744   3.659  10.523  0.0495  0.2229 -0.4330
  280MOL0     H37741   4.550   3.424  10.573  1.4522 -2.7277 -2.7130
  280MOL0     H37742   4.712   3.400  10.530  1.6253  1.7060 -1.3851
  280MOL0     H37743   4.755   3.399  10.751 -2.9090 -1.9379 -0.1154
  280MOL0     H37744   4.753   3.581  10.713  0.8244 -0.1104 -0.9165
  280MOL0     H37745   4.532   3.608  10.768 -0.5486  0.3758  1.0545
  280MOL0     H37746   4.511   3.425  10.795  1.6930 -1.1113  2.1765
  280MOL0     H37747   4.666   3.631  10.966  0.8123 -0.6325 -1.1741
  280MOL0     H37748   4.676   3.451  10.987 -3.0399 -2.6386 -3.4487
  280MOL0     H37749   4.506   3.550  11.154  0.9573 -2.1399 -0.1410
  280MOL0     H37750   4.424   3.619  11.018 -0.6844  1.1058  3.0106
  280MOL0     H37751   4.582   3.273  11.099  0.8200 -1.0773  1.6865
  280MOL0     H37752   4.324   3.000  11.075 -0.7936 -2.5440 -2.6652
  280MOL0     H37753   4.430   3.008  10.936 -1.0793  0.7271 -0.6260
  280MOL0     H37754   4.623   3.049  11.091 -0.7930  1.0478  1.0573
  280MOL0     H37755   4.507   3.023  11.221 -1.5033  0.5463 -1.5158
  280MOL0     H37756   4.618   2.819  11.013  2.7808 -0.8005  0.6351
  280MOL0     H37757   4.475   2.788  11.124  0.1290  1.1473  1.8807
  280MOL0     H37758   4.660   2.684  11.241  1.1624 -0.0398  1.5591
  280MOL0     H37759   4.662   2.846  11.311  0.0234 -1.1890 -0.6756
  280MOL0     H37760   5.019   2.828  11.076 -2.5210  1.3533  0.1653
  280MOL0     H37761   5.233   2.743  11.183 -0.1889 -1.0301  0.3064
  280MOL0     H37762   5.474   2.819  11.592  0.6598  0.0305 -0.3336
  280MOL0     H37763   5.718   2.809  11.665 -1.3053 -0.8772  1.3820
  280MOL0     H37764   5.987   2.603  11.392 -2.7576 -0.1789 -0.7432
  280MOL0     H37765   6.090   2.646  11.528  0.5326 -0.1429 -2.3721
  280MOL0     H37766   5.960   2.470  11.671  1.1539 -0.0937 -0.1742
  280MOL0     H37767   5.900   2.404  11.525  2.7798 -1.7691 -3.3381
  280MOL0     H37768   6.079   2.271  11.569  1.1344 -0.6557  1.5243
  280MOL0     H37769   6.164   2.386  11.463 -0.0713 -0.9919  0.1655
  280MOL0     H37770   6.154   2.432  11.761 -1.7170 -2.3632 -0.5300
  280MOL0     H37771   6.249   2.514  11.637 -2.0342 -0.2514 -2.2722
  280MOL0     H37772   6.310   2.236  11.590 -1.6327  0.2199 -0.5196
  280MOL0     H37773   6.312   2.259  11.766  1.6391 -3.8042 -2.5515
  280MOL0     H37774   6.462   2.429  11.569  0.9901  0.3227  0.3468
  280MOL0     H37775   6.449   2.445  11.742 -2.2604  0.2164 -0.1286
  280MOL0     H37776   6.543   2.182  11.613  0.1760 -0.5553 -0.1647
  280MOL0     H37777   6.568   2.213  11.776  2.2056 -0.3446 -0.2882
  280MOL0     H37778   6.787   2.236  11.681 -1.9725 -2.7192 -0.2167
  280MOL0     H37779   6.726   2.337  11.554 -2.7682 -1.3250 -0.4522
  280MOL0     H37780   5.793   2.543  11.332  1.7278  1.7936  1.0731
  280MOL0     H37781   5.549   2.570  11.258  1.4921  2.5942 -2.4945
  280MOL0     H37782   5.020   2.721  11.559  0.7601  3.5911  0.2682
  280MOL0     H37783   4.807   2.768  11.426 -0.5346  0.6936 -1.0721
  280MOL0     H37784   4.739   3.275  10.068 -2.1252  2.0607  0.9422
  280MOL0     H37785   4.891   3.245   9.873 -0.0300 -0.6543  0.6332
  280MOL0     H37786   4.869   3.381   9.310 -0.1895 -0.0798  0.5109
  280MOL0     H37787   5.043   3.350   9.129  1.1302 -1.8834  1.0616
  280MOL0     H37788   5.423   3.528   9.156  1.5878  0.2048 -0.5861
  280MOL0     H37789   5.445   3.407   9.030  1.5789  0.8446  0.6332
  280MOL0     H37790   5.484   3.352   9.319 -1.1767 -0.4313 -0.4000
  280MOL0     H37791   5.617   3.388   9.211 -0.7348 -1.4918 -3.5893
  280MOL0     H37792   5.561   3.205   9.070 -1.1345  3.5516  0.1177
  280MOL0     H37793   5.451   3.130   9.189  2.1229 -2.8936 -1.6744
  280MOL0     H37794   5.653   3.165   9.359  2.5460  1.5717 -0.9816
  280MOL0     H37795   5.630   3.019   9.259  2.0642 -0.9771 -0.9284
  280MOL0     H37796   6.001   3.144   9.138 -0.4045 -2.0030  0.8647
  280MOL0     H37797   5.348   3.484   9.383 -0.2705  1.6689  1.5957
  280MOL0     H37798   5.148   3.627   9.624 -2.1344 -1.0425 -0.3665
  280MOL0     H37799   5.175   3.468   9.681 -0.3848 -0.8394 -1.0755
  280MOL0     H37800   5.309   3.544   9.615 -0.2284  2.0434  2.6637
  281MOL0     O37801   3.138   8.290   0.324 -1.0222 -0.0056  0.0573
  281MOL0     C37802   3.069   8.315   0.416  0.0825  0.4487 -0.4662
  281MOL0     O37803   3.104   8.384   0.527  0.3760  0.1397 -0.8674
  281MOL0     C37804   3.226   8.442   0.515 -0.0550 -0.2854 -0.1532
  281MOL0     C37805   3.343   8.362   0.524  0.7730 -0.4074 -0.1985
  281MOL0     C37806   3.461   8.416   0.513 -0.1852  0.1525  0.7901
  281MOL0     C37807   3.483   8.549   0.502  0.4157  0.0475  0.3007
  281MOL0     O37808   3.613   8.588   0.487 -0.7047  0.0532  0.1229
  281MOL0     C37809   3.638   8.724   0.445  0.7163 -0.6066 -0.0297
  281MOL0     C37810   3.782   8.745   0.419  0.8737 -0.3742  0.4286
  281MOL0     C37811   3.863   8.728   0.548 -0.5175  0.0537  0.2845
  281MOL0     C37812   4.008   8.682   0.517 -0.2833  0.3539  0.0645
  281MOL0     C37813   4.089   8.775   0.418 -0.1744  0.1879 -0.1799
  281MOL0     C37814   4.226   8.716   0.386  0.2880  0.5399  0.0974
  281MOL0     C37815   4.309   8.798   0.288 -0.9182  0.4136  0.2441
  281MOL0     C37816   4.288   8.757   0.142  1.0356 -0.4531  0.2444
  281MOL0     N37817   4.339   8.868   0.065 -0.1306  0.1450 -0.1961
  281MOL0     C37818   4.451   8.869  -0.011  0.2058  0.6999 -0.8185
  281MOL0     C37819   4.468   8.997  -0.054  0.9635 -0.1375 -0.4494
  281MOL0     C37820   4.563   9.033  -0.161  0.8759 -0.1506  0.1248
  281MOL0     C37821   4.667   9.127  -0.112  0.5071 -0.5847 -1.0469
  281MOL0     C37822   4.788   9.058  -0.057 -0.6024  0.2683 -0.5554
  281MOL0     C37823   4.841   8.928  -0.120 -0.2151 -0.3876 -0.0501
  281MOL0     O37824   4.855   8.923  -0.262  0.4938 -0.0855 -0.2771
  281MOL0     C37825   4.945   9.000  -0.330 -0.9379  0.3754 -0.3111
  281MOL0     C37826   4.931   9.020  -0.471  0.6664 -0.0613 -0.4324
  281MOL0     C37827   5.026   9.070  -0.561  0.3463 -0.2760  0.1268
  281MOL0     C37828   5.149   9.116  -0.506  0.5140 -0.4746 -0.8232
  281MOL0     C37829   5.249   9.191  -0.586  0.3894  0.3560  0.3446
  281MOL0     O37830   5.347   9.256  -0.519 -0.6800 -0.1655 -0.7323
  281MOL0     C37831   5.424   9.344  -0.588  0.3181 -0.8264  0.2829
  281MOL0     C37832   5.371   9.429  -0.686 -0.0935 -0.1471 -0.7093
  281MOL0     C37833   5.465   9.490  -0.771 -0.3006 -0.4051  0.3156
  281MOL0     C37834   5.605   9.474  -0.750 -1.0073 -0.3607  0.3654
  281MOL0     O37835   5.691   9.524  -0.846  0.2340  0.1790  0.2176
  281MOL0     C37836   5.834   9.516  -0.845  0.2783  0.1687  0.9364
  281MOL0     C37837   5.899   9.620  -0.934  0.1127 -0.1708 -0.5098
  281MOL0     C37838   5.867   9.594  -1.083  0.3280 -0.0271 -1.6810
  281MOL0     C37839   5.923   9.704  -1.173  0.3066 -0.0534  0.2323
  281MOL0     C37840   5.849   9.842  -1.153  0.1493  1.0902 -0.0451
  281MOL0     C37841   5.883   9.939  -1.272  0.4384 -0.8076 -0.3890
  281MOL0     C37842   5.757  10.020  -1.313  0.4646 -0.7217  0.0092
  281MOL0     C37843   5.725  10.127  -1.207  0.6358  0.9380  0.4326
  281MOL0    Cl37844   5.560  10.184  -1.245 -0.2423 -0.2964 -0.0941
  281MOL0     C37845   5.653   9.397  -0.641  0.5162 -0.3338  0.0361
  281MOL0     C37846   5.559   9.334  -0.564  0.6340  0.2169 -1.2946
  281MOL0     O37847   5.250   9.174  -0.708  0.5964 -0.1526 -0.4292
  281MOL0     C37848   5.171   9.109  -0.366  0.2262  0.2716 -0.2684
  281MOL0     C37849   5.066   9.057  -0.285 -0.7953  0.4833  0.2313
  281MOL0     N37850   4.348   9.065  -0.022  0.4242  0.0667  0.1832
  281MOL0     N37851   4.273   8.982   0.045 -0.0453 -0.1824  0.4146
  281MOL0     C37852   3.370   8.635   0.483  0.6847  0.5603 -0.3043
  281MOL0     C37853   3.237   8.579   0.502  0.0507  0.4169  0.8919
  281MOL0     C37854   2.931   8.270   0.393  0.1643  0.9102 -0.9049
  281MOL0     C37855   2.906   8.163   0.301 -0.5964 -0.0158  0.0395
  281MOL0     C37856   2.780   8.120   0.272  0.0485  0.1415 -0.2488
  281MOL0     C37857   2.666   8.172   0.339  0.3138 -0.5052  0.0885
  281MOL0     O37858   2.535   8.132   0.327  0.1776 -0.5207 -0.4950
  281MOL0     C37859   2.513   8.001   0.271  0.4729 -0.2016  0.5879
  281MOL0     C37860   2.364   7.997   0.236 -0.3715 -0.6271 -0.1303
  281MOL0     C37861   2.305   7.870   0.179  1.1584 -0.3680  0.8319
  281MOL0     C37862   2.325   7.746   0.263 -0.3002 -0.2618  0.1620
  281MOL0     C37863   2.261   7.761   0.398 -0.1277  0.4728  0.1679
  281MOL0     C37864   2.204   7.763   0.512 -0.6223 -0.5431 -0.2675
  281MOL0     C37865   2.689   8.261   0.437 -0.4074  0.5424 -0.5516
  281MOL0     C37866   2.820   8.311   0.467  0.6567 -0.1957 -0.1143
  281MOL0     C37867   2.830   8.418   0.571  0.5561  1.1001 -0.1519
  281MOL0     H37868   3.336   8.254   0.532  2.9628 -0.5007  1.6539
  281MOL0     H37869   3.541   8.343   0.520 -1.2532 -1.4837 -2.3183
  281MOL0     H37870   3.587   8.733   0.349  2.5614 -0.7296 -1.0675
  281MOL0     H37871   3.606   8.799   0.518 -1.1256 -2.2195  0.9124
  281MOL0     H37872   3.789   8.850   0.388 -2.2185  0.5341  2.3819
  281MOL0     H37873   3.822   8.679   0.341  0.7927  0.7103 -0.5567
  281MOL0     H37874   3.820   8.655   0.616  3.6739 -2.4975  0.5696
  281MOL0     H37875   3.869   8.827   0.595  1.4058  0.5651 -0.9056
  281MOL0     H37876   4.060   8.669   0.613  2.1997  2.1398 -0.9205
  281MOL0     H37877   4.001   8.585   0.467 -1.3319 -0.0241  0.9115
  281MOL0     H37878   4.031   8.795   0.328 -3.2524  4.5145  2.3951
  281MOL0     H37879   4.091   8.874   0.465  0.8362  0.2139 -0.2599
  281MOL0     H37880   4.280   8.739   0.478 -2.9415  2.3190  1.7277
  281MOL0     H37881   4.217   8.607   0.376  0.2742  0.5736 -0.2699
  281MOL0     H37882   4.416   8.792   0.310 -0.2656 -1.8078 -2.8441
  281MOL0     H37883   4.291   8.904   0.306  0.4071  0.4911  1.2213
  281MOL0     H37884   4.343   8.667   0.115  0.1800 -0.7122 -0.6829
  281MOL0     H37885   4.183   8.747   0.111  1.3218  0.4653 -1.1240
  281MOL0     H37886   4.505   8.778  -0.037 -1.3060 -0.8930  1.1799
  281MOL0     H37887   4.602   8.942  -0.208 -0.7662 -0.5508 -0.5495
  281MOL0     H37888   4.510   9.096  -0.233  0.5309 -1.0219 -0.4045
  281MOL0     H37889   4.705   9.188  -0.194  2.6565  0.9019  0.9205
  281MOL0     H37890   4.622   9.195  -0.039  1.1105 -0.9763 -0.2979
  281MOL0     H37891   4.762   9.031   0.046 -0.2675 -0.4739 -0.6535
  281MOL0     H37892   4.875   9.124  -0.051  1.0311 -1.7568 -0.6421
  281MOL0     H37893   4.769   8.847  -0.107 -0.5993  0.1195  1.0700
  281MOL0     H37894   4.937   8.899  -0.078  0.9228 -1.5353 -3.1589
  281MOL0     H37895   4.839   8.992  -0.521  0.9344  0.2249 -1.0861
  281MOL0     H37896   5.011   9.078  -0.669  0.7416 -0.5287  0.0493
  281MOL0     H37897   5.265   9.438  -0.706  0.4525  0.9677 -3.5631
  281MOL0     H37898   5.449   9.556  -0.856  2.6961 -0.3275 -0.3203
  281MOL0     H37899   5.873   9.529  -0.744 -1.0463  0.2902  1.4474
  281MOL0     H37900   5.859   9.413  -0.871 -1.4783 -0.5670  1.9763
  281MOL0     H37901   5.857   9.718  -0.913 -1.1122 -0.6486 -0.6697
  281MOL0     H37902   6.008   9.625  -0.921  0.5746  0.2484 -3.7610
  281MOL0     H37903   5.911   9.494  -1.097 -0.8027 -0.5025 -1.9475
  281MOL0     H37904   5.759   9.588  -1.099 -0.3405  1.0188  1.6768
  281MOL0     H37905   5.891   9.660  -1.268 -0.7149 -1.2736  1.1059
  281MOL0     H37906   6.031   9.717  -1.163  0.7039 -1.8585 -1.1943
  281MOL0     H37907   5.882   9.883  -1.057  2.9211  0.4200 -0.6007
  281MOL0     H37908   5.743   9.825  -1.136  0.8048 -1.3269  2.1337
  281MOL0     H37909   5.964  10.011  -1.252  1.1775 -1.9274  0.7995
  281MOL0     H37910   5.920   9.873  -1.351 -1.8977 -2.3064 -0.3074
  281MOL0     H37911   5.676   9.947  -1.324 -0.3468  0.4453 -2.5134
  281MOL0     H37912   5.764  10.073  -1.408  1.5918  0.9081  0.9463
  281MOL0     H37913   5.716  10.085  -1.106  4.2534 -0.5597  0.2874
  281MOL0     H37914   5.795  10.212  -1.202 -0.8453  2.1376  3.1737
  281MOL0     H37915   5.759   9.381  -0.624  1.3847  4.0619 -0.0633
  281MOL0     H37916   5.597   9.273  -0.482 -0.9549 -1.5719 -1.8046
  281MOL0     H37917   5.260   9.134  -0.309 -1.0275 -0.0606  1.9385
  281MOL0     H37918   5.089   9.040  -0.181  1.3878  2.3104  0.1261
  281MOL0     H37919   3.385   8.739   0.457 -0.3593  0.9608  0.5933
  281MOL0     H37920   3.149   8.641   0.512 -1.0158 -0.4313 -2.0227
  281MOL0     H37921   2.980   8.095   0.260  0.8823  0.2195  2.1159
  281MOL0     H37922   2.777   8.042   0.197  0.7628  0.5879 -0.7469
  281MOL0     H37923   2.529   7.924   0.346 -4.6801  0.0528  2.3505
  281MOL0     H37924   2.580   7.983   0.186 -0.9628  1.1083 -0.8926
  281MOL0     H37925   2.351   8.081   0.168  0.5572  0.0426  0.4954
  281MOL0     H37926   2.329   8.026   0.336  0.6554  0.8325 -0.1624
  281MOL0     H37927   2.347   7.864   0.078  0.0915  2.6513  0.0989
  281MOL0     H37928   2.198   7.885   0.160  0.6774 -4.7465 -0.9846
  281MOL0     H37929   2.286   7.663   0.204  0.6693 -1.3262  0.9870
  281MOL0     H37930   2.431   7.726   0.277  0.0137  2.1349  1.9515
  281MOL0     H37931   2.157   7.780   0.607  0.2445 -1.6455  0.3841
  281MOL0     H37932   2.608   8.298   0.499 -0.9771  0.2662 -1.1329
  281MOL0     H37933   2.875   8.373   0.660 -0.2234 -1.2926 -0.8879
  281MOL0     H37934   2.888   8.504   0.538  0.1318  0.5131 -2.6111
  281MOL0     H37935   2.727   8.451   0.588 -0.1901 -1.3040  0.4130
  282MOL0     O37936   3.777   9.024   9.519 -0.1246  0.4647 -0.5302
  282MOL0     C37937   3.758   8.917   9.589  0.1481  0.0766  0.6283
  282MOL0     O37938   3.850   8.846   9.652 -1.0532 -0.5868 -0.6880
  282MOL0     C37939   3.975   8.897   9.697  0.8916  0.4635  0.3981
  282MOL0     C37940   4.033   9.021   9.656  0.1094  0.0141  0.2681
  282MOL0     C37941   4.166   9.056   9.697 -0.5936 -0.2843  0.4066
  282MOL0     C37942   4.245   8.973   9.770  1.3792 -0.0402  0.4025
  282MOL0     O37943   4.369   9.010   9.795  0.4409 -0.8127  0.7849
  282MOL0     C37944   4.466   8.916   9.760 -0.5326  1.0247 -0.0592
  282MOL0     C37945   4.596   8.978   9.815  0.2331  0.2884 -0.7178
  282MOL0     C37946   4.671   9.068   9.728 -0.3959 -0.0932  0.1461
  282MOL0     C37947   4.778   9.155   9.796 -0.7034 -0.2139  0.3530
  282MOL0     C37948   4.817   9.273   9.706  0.3115 -0.3055 -0.3671
  282MOL0     C37949   4.900   9.389   9.769  0.1393 -0.5201 -0.6124
  282MOL0     C37950   5.016   9.340   9.848  0.1562  0.3256  0.3474
  282MOL0     C37951   5.106   9.443   9.907  0.6166  0.3319  0.8935
  282MOL0     N37952   5.046   9.533  10.002 -0.1206 -0.2624 -0.4720
  282MOL0     C37953   5.040   9.512  10.143 -0.0518 -1.2637  0.0567
  282MOL0     C37954   4.968   9.620  10.177  0.3774  0.7613  0.3952
  282MOL0     C37955   4.951   9.667  10.320 -0.4211 -0.2251  0.8231
  282MOL0     C37956   5.084   9.720  10.369  0.0955  0.4209 -0.0277
  282MOL0     C37957   5.066   9.770  10.513 -0.4866  0.1298 -0.6527
  282MOL0     C37958   5.198   9.834  10.568 -0.1583 -0.0081 -0.4012
  282MOL0     O37959   5.230   9.952  10.492 -0.1736 -0.9726  0.1714
  282MOL0     C37960   5.357  10.007  10.509  0.9965 -0.3462  0.5536
  282MOL0     C37961   5.460   9.954  10.589  0.5546  0.1679 -0.0584
  282MOL0     C37962   5.582  10.018  10.588 -0.8275  0.0790 -0.2474
  282MOL0     C37963   5.605  10.140  10.521  0.1566 -0.5414 -0.4800
  282MOL0     C37964   5.731  10.213  10.524 -0.0225  0.2568 -0.6893
  282MOL0     O37965   5.733  10.340  10.476  0.2696  0.6560 -0.3323
  282MOL0     C37966   5.855  10.407  10.484 -0.0153 -0.0855  0.7962
  282MOL0     C37967   5.896  10.478  10.369 -0.7303  0.2384 -0.2865
  282MOL0     C37968   6.004  10.572  10.371  0.1027 -0.1492 -0.3976
  282MOL0     C37969   6.073  10.596  10.492  0.3510  0.0819 -1.0354
  282MOL0     O37970   6.171  10.685  10.481 -0.0267  0.2420  0.4872
  282MOL0     C37971   6.251  10.712  10.599 -0.5660 -0.3495 -0.5600
  282MOL0     C37972   6.369  10.796  10.547 -0.2649  0.0188  0.1437
  282MOL0     C37973   6.457  10.710  10.447 -0.9258  0.4354 -0.1336
  282MOL0     C37974   6.572  10.787  10.388 -0.2907  0.3244 -0.3800
  282MOL0     C37975   6.617  10.733  10.253  0.0494  0.3628 -0.1386
  282MOL0     C37976   6.724  10.822  10.181  0.4335 -0.0839 -0.3409
  282MOL0     C37977   6.853  10.834  10.261 -0.2667 -0.0248  0.8663
  282MOL0     C37978   6.963  10.922  10.188 -0.0670 -0.2572 -0.1678
  282MOL0    Cl37979   7.114  10.855  10.248 -0.0425  0.0696 -0.2400
  282MOL0     C37980   6.033  10.518  10.603 -0.0679  0.1095 -0.4361
  282MOL0     C37981   5.935  10.423  10.599  0.4301 -0.2565 -0.2292
  282MOL0     O37982   5.831  10.158  10.561 -0.0415  0.6511 -0.2725
  282MOL0     C37983   5.502  10.195  10.438 -0.0546  0.4019 -0.1920
  282MOL0     C37984   5.378  10.122  10.436 -0.3499 -0.4586  0.1533
  282MOL0     N37985   4.938   9.705  10.070 -0.2549  0.7882 -0.6622
  282MOL0     N37986   4.986   9.650   9.969 -0.7905 -0.0554 -0.2010
  282MOL0     C37987   4.178   8.857   9.824  0.1773  0.0357 -0.2622
  282MOL0     C37988   4.041   8.829   9.793 -0.5624  0.3704  0.1799
  282MOL0     C37989   3.619   8.854   9.599 -0.5654  0.5269  0.6787
  282MOL0     C37990   3.605   8.746   9.687 -0.8089  1.2673 -1.0104
  282MOL0     C37991   3.481   8.676   9.695  0.7955 -0.7019  0.5432
  282MOL0     C37992   3.368   8.719   9.623 -0.6355  0.8867  0.2120
  282MOL0     O37993   3.257   8.642   9.633 -0.1251 -0.4097 -0.5073
  282MOL0     C37994   3.204   8.642   9.765  0.3309  0.1626 -0.3872
  282MOL0     C37995   3.049   8.631   9.752  0.2846 -0.3619  0.4130
  282MOL0     C37996   3.008   8.769   9.720  0.0515 -0.6325  0.6104
  282MOL0     C37997   2.863   8.800   9.685  0.2541 -0.0544  0.9003
  282MOL0     C37998   2.778   8.799   9.800 -0.4870  1.4132  0.2522
  282MOL0     C37999   2.711   8.808   9.902 -0.0128 -0.6210 -0.7447
  282MOL0     C38000   3.382   8.824   9.527 -0.4711 -0.0910 -0.0543
  282MOL0     C38001   3.504   8.905   9.527  0.0527  0.5664 -0.6300
  282MOL0     C38002   3.485   9.033   9.444 -0.4444 -0.4538 -0.2360
  282MOL0     H38003   3.973   9.092   9.600 -0.9706  1.8117  3.4249
  282MOL0     H38004   4.216   9.151   9.678  2.9645 -1.9271  0.7332
  282MOL0     H38005   4.453   8.811   9.787  0.0793  0.5674 -1.4578
  282MOL0     H38006   4.470   8.908   9.651 -0.1364  0.8828 -0.0350
  282MOL0     H38007   4.659   8.891   9.834  0.4679  0.6730  0.3597
  282MOL0     H38008   4.562   9.033   9.904 -0.9618  0.5124 -1.2969
  282MOL0     H38009   4.601   9.136   9.678 -0.3177  1.7025  2.3242
  282MOL0     H38010   4.725   9.005   9.656 -1.1415 -1.0360  0.4006
  282MOL0     H38011   4.760   9.196   9.895 -0.7043  2.2476 -0.5883
  282MOL0     H38012   4.859   9.084   9.811  1.2037  1.4690 -1.3862
  282MOL0     H38013   4.873   9.243   9.617  0.7490  0.3994 -0.3382
  282MOL0     H38014   4.725   9.321   9.671 -1.7678 -1.2803  3.2504
  282MOL0     H38015   4.932   9.455   9.689 -2.9946  1.1952 -0.5874
  282MOL0     H38016   4.837   9.445   9.838  2.6749 -0.9540  2.2770
  282MOL0     H38017   5.073   9.267   9.790  1.5171 -0.7398  2.8512
  282MOL0     H38018   4.968   9.291   9.933 -2.4733  1.3648 -0.4470
  282MOL0     H38019   5.186   9.391   9.962  1.5051 -0.1648 -0.7982
  282MOL0     H38020   5.165   9.500   9.835 -0.6280  2.8042  1.7105
  282MOL0     H38021   5.091   9.440  10.206  0.3641 -0.5382  0.5690
  282MOL0     H38022   4.871   9.740  10.332 -1.5015 -1.4648  1.4969
  282MOL0     H38023   4.924   9.581  10.383  0.9724 -1.9793 -0.8462
  282MOL0     H38024   5.156   9.637  10.368 -0.5976 -0.2285  1.6730
  282MOL0     H38025   5.115   9.805  10.307  2.8864  0.9372  1.8795
  282MOL0     H38026   5.045   9.690  10.585  0.6260  0.4594  0.0501
  282MOL0     H38027   4.981   9.839  10.519 -0.2694  0.2900  1.0481
  282MOL0     H38028   5.276   9.758  10.563 -0.6524 -0.5477 -0.0809
  282MOL0     H38029   5.177   9.857  10.673 -1.0256  2.8650 -1.1269
  282MOL0     H38030   5.452   9.865  10.650  2.0894  0.5295  0.7190
  282MOL0     H38031   5.666   9.969  10.637 -0.6977  1.5334  1.0418
  282MOL0     H38032   5.840  10.459  10.278 -0.9637 -1.8150  0.2232
  282MOL0     H38033   6.041  10.628  10.286  1.8838  2.9317  2.1828
  282MOL0     H38034   6.195  10.779  10.665  0.9337  1.8552 -1.4114
  282MOL0     H38035   6.285  10.621  10.649  2.2123  1.5579  1.3013
  282MOL0     H38036   6.323  10.870  10.481  0.6537 -0.9533 -1.6609
  282MOL0     H38037   6.414  10.835  10.638 -2.5823 -0.6049  1.6495
  282MOL0     H38038   6.492  10.620  10.498  1.1691  1.8002  0.9923
  282MOL0     H38039   6.392  10.671  10.368  0.3828 -0.5740 -0.7336
  282MOL0     H38040   6.659  10.778  10.455 -0.9428 -0.0966  0.4278
  282MOL0     H38041   6.541  10.891  10.377  2.4115  1.1737 -0.7443
  282MOL0     H38042   6.526  10.722  10.194 -0.2836  1.4481  0.1493
  282MOL0     H38043   6.661  10.635  10.270 -0.4608 -0.0849 -1.3182
  282MOL0     H38044   6.758  10.771  10.091  0.3752 -3.2950  1.3115
  282MOL0     H38045   6.679  10.919  10.157 -0.5274 -0.7861 -1.4648
  282MOL0     H38046   6.881  10.730  10.276 -0.4415 -0.0174  1.2635
  282MOL0     H38047   6.832  10.878  10.359 -0.7562  2.6363 -0.3463
  282MOL0     H38048   6.942  10.933  10.082 -2.2392  1.1446  0.3315
  282MOL0     H38049   6.951  11.027  10.218  1.6360 -0.1641  0.3477
  282MOL0     H38050   6.077  10.532  10.701 -4.6479  2.7877  1.5945
  282MOL0     H38051   5.910  10.362  10.685 -3.6616 -1.9233 -2.3409
  282MOL0     H38052   5.512  10.286  10.380  0.2197 -1.3470 -3.0526
  282MOL0     H38053   5.303  10.169  10.374 -0.3450  0.4429  0.8216
  282MOL0     H38054   4.222   8.782   9.888 -0.5270  1.1971  1.6737
  282MOL0     H38055   3.985   8.750   9.843  0.6604  0.4831  1.8567
  282MOL0     H38056   3.684   8.719   9.756 -3.1898 -0.8736  1.0561
  282MOL0     H38057   3.469   8.591   9.763  2.5265 -1.6122 -0.2323
  282MOL0     H38058   3.233   8.723   9.833  1.5394 -0.3698 -0.2338
  282MOL0     H38059   3.234   8.542   9.799 -0.0570 -0.5386 -1.9957
  282MOL0     H38060   3.011   8.590   9.846  1.0773 -0.8221  0.5448
  282MOL0     H38061   3.011   8.576   9.665 -2.3693 -2.1414  2.5402
  282MOL0     H38062   3.051   8.792   9.622 -0.5914  1.3350  0.7553
  282MOL0     H38063   3.043   8.842   9.794  1.0268 -0.8554  0.3871
  282MOL0     H38064   2.855   8.894   9.631 -0.9173 -0.6364  0.0008
  282MOL0     H38065   2.828   8.731   9.607  0.7021  1.3117 -0.5636
  282MOL0     H38066   2.666   8.812   9.999 -0.6227  2.4993 -1.0695
  282MOL0     H38067   3.289   8.842   9.475 -1.4031  1.1373  1.9365
  282MOL0     H38068   3.381   9.033   9.410 -1.1422 -3.0219  1.6119
  282MOL0     H38069   3.502   9.127   9.498 -2.8435  0.5644 -1.1224
  282MOL0     H38070   3.552   9.029   9.357 -1.3402  1.8597 -1.1204
  283MOL0     O38071   5.978   6.346   1.619  0.0943 -0.5545  0.5573
  283MOL0     C38072   5.890   6.340   1.532 -0.0756 -1.4030  0.3965
  283MOL0     O38073   5.913   6.303   1.397 -0.3136  0.1904  0.2452
  283MOL0     C38074   6.047   6.305   1.361 -0.2459  0.5253 -0.0438
  283MOL0     C38075   6.107   6.424   1.330 -0.2034 -0.3674  0.1606
  283MOL0     C38076   6.240   6.425   1.300  0.5481 -0.5808 -0.1955
  283MOL0     C38077   6.309   6.306   1.275 -0.4411  0.3173  0.5327
  283MOL0     O38078   6.437   6.318   1.230 -0.8234  0.0553  0.3594
  283MOL0     C38079   6.497   6.219   1.137  1.2751  0.2162  0.5784
  283MOL0     C38080   6.648   6.205   1.181  1.2193 -0.1204  0.2941
  283MOL0     C38081   6.736   6.325   1.147 -0.0541  0.0973  0.2437
  283MOL0     C38082   6.888   6.290   1.113  0.5865  0.2042 -0.0583
  283MOL0     C38083   6.959   6.415   1.094 -0.2597 -1.0356  0.8775
  283MOL0     C38084   7.106   6.406   1.145 -0.2683  0.0767 -0.1239
  283MOL0     C38085   7.198   6.526   1.114 -0.0575  0.6500 -0.6612
  283MOL0     C38086   7.331   6.504   1.179 -0.5820  0.1629 -0.1274
  283MOL0     N38087   7.397   6.383   1.126 -0.4899 -0.2861  0.3662
  283MOL0     C38088   7.473   6.379   1.005 -0.1996  0.3295 -0.2959
  283MOL0     C38089   7.541   6.259   1.021 -0.0686 -0.8758 -0.1135
  283MOL0     C38090   7.657   6.222   0.927  0.7657  0.1266  0.0410
  283MOL0     C38091   7.791   6.249   1.008  0.8556 -0.8449  0.1380
  283MOL0     C38092   7.829   6.398   1.030 -1.0145  0.3574 -0.2156
  283MOL0     C38093   7.853   6.480   0.899  0.2316  0.2676 -0.2945
  283MOL0     O38094   7.921   6.396   0.797 -0.5655  0.1384  0.5580
  283MOL0     C38095   8.056   6.386   0.802 -0.5398  0.7435  0.0865
  283MOL0     C38096   8.133   6.504   0.823  0.6339 -0.1772  0.2802
  283MOL0     C38097   8.271   6.501   0.801 -0.2989  0.0188 -0.4441
  283MOL0     C38098   8.344   6.381   0.791  0.4062 -0.3280  0.5570
  283MOL0     C38099   8.492   6.376   0.782  0.7625 -0.9343 -0.0090
  283MOL0     O38100   8.560   6.491   0.815 -0.0331  0.7697  0.3296
  283MOL0     C38101   8.693   6.481   0.843 -0.6679  0.1463 -0.2196
  283MOL0     C38102   8.746   6.388   0.935 -0.3151 -0.0045 -0.5020
  283MOL0     C38103   8.890   6.392   0.972 -0.0709  1.5008  0.4126
  283MOL0     C38104   8.977   6.478   0.899 -0.4497 -0.3816  0.1098
  283MOL0     O38105   9.112   6.493   0.910  0.2275 -0.1931 -0.8458
  283MOL0     C38106   9.175   6.413   1.018  0.1222 -0.2851 -0.8866
  283MOL0     C38107   9.320   6.464   1.026 -1.0132  0.2567  0.7134
  283MOL0     C38108   9.421   6.341   1.043 -0.0448  1.0366  0.8331
  283MOL0     C38109   9.569   6.392   1.039 -0.1927 -0.3727  0.3994
  283MOL0     C38110   9.678   6.284   1.071 -0.4943  0.6611 -0.3088
  283MOL0     C38111   9.819   6.309   1.014  0.5143  0.3589 -0.0084
  283MOL0     C38112   9.917   6.195   1.042  0.0901  0.0429  0.1302
  283MOL0     C38113   9.872   6.049   1.021 -0.3080 -0.1721 -0.3417
  283MOL0    Cl38114  10.021   5.939   0.995  0.2014  0.0433  0.0750
  283MOL0     C38115   8.918   6.556   0.800 -0.3724 -0.3764 -0.7672
  283MOL0     C38116   8.777   6.563   0.774 -0.1466 -0.5662 -0.1150
  283MOL0     O38117   8.540   6.277   0.749 -0.2585  0.9045  0.1231
  283MOL0     C38118   8.262   6.262   0.795 -0.5986  0.0078  0.0143
  283MOL0     C38119   8.127   6.260   0.791  0.3459 -0.0400 -0.0087
  283MOL0     N38120   7.500   6.199   1.131 -0.7793  0.5952  0.9408
  283MOL0     N38121   7.412   6.266   1.198 -0.4164  0.6281 -0.0816
  283MOL0     C38122   6.243   6.184   1.301  0.5748  0.0430  0.1251
  283MOL0     C38123   6.108   6.186   1.342 -0.0477  0.5841 -0.5143
  283MOL0     C38124   5.748   6.374   1.562 -0.3624 -0.2141  0.2257
  283MOL0     C38125   5.646   6.346   1.471  0.1303 -0.1822  0.9286
  283MOL0     C38126   5.510   6.354   1.495  0.2228 -0.4849 -0.0541
  283MOL0     C38127   5.463   6.407   1.617  0.4131  0.6396  0.7691
  283MOL0     O38128   5.334   6.447   1.639  0.1993  0.2538  0.3720
  283MOL0     C38129   5.247   6.453   1.524  0.2006 -0.3400  0.1010
  283MOL0     C38130   5.120   6.512   1.567  1.2276  0.1727  0.0555
  283MOL0     C38131   5.087   6.477   1.716  0.7628 -1.4763 -0.5024
  283MOL0     C38132   4.952   6.551   1.753 -0.5327 -0.1222  0.4246
  283MOL0     C38133   4.908   6.515   1.884  0.0768  0.9021  0.0496
  283MOL0     C38134   4.881   6.469   1.994  0.3755 -0.2798 -0.9031
  283MOL0     C38135   5.555   6.449   1.709 -0.1893 -0.2584 -0.8913
  283MOL0     C38136   5.693   6.428   1.683  0.2126 -0.2630 -0.2556
  283MOL0     C38137   5.795   6.460   1.799 -0.4169 -0.0551 -0.2197
  283MOL0     H38138   6.049   6.516   1.336 -2.0644 -1.6115  2.3238
  283MOL0     H38139   6.289   6.516   1.267  0.1236 -0.4736 -0.5312
  283MOL0     H38140   6.450   6.121   1.153  4.3463 -1.5918 -0.7543
  283MOL0     H38141   6.479   6.247   1.033 -0.5770 -0.1335  0.7592
  283MOL0     H38142   6.699   6.125   1.126  0.5573 -0.9532  0.8731
  283MOL0     H38143   6.654   6.188   1.289  0.4473  1.2856  0.5811
  283MOL0     H38144   6.745   6.379   1.241  1.3467 -0.5038  0.4879
  283MOL0     H38145   6.690   6.393   1.074 -0.2360 -1.8410 -1.5667
  283MOL0     H38146   6.939   6.227   1.186 -0.1001 -2.0531 -1.4215
  283MOL0     H38147   6.896   6.232   1.020 -0.7152  1.7232 -1.1748
  283MOL0     H38148   6.947   6.431   0.986  0.2273 -1.8310  0.7037
  283MOL0     H38149   6.899   6.489   1.148  0.6999 -0.0337  0.6256
  283MOL0     H38150   7.092   6.397   1.253 -1.4226  0.1231 -0.2564
  283MOL0     H38151   7.154   6.313   1.115  0.1706 -1.0613  3.5814
  283MOL0     H38152   7.144   6.610   1.159 -2.4583 -1.6324  1.0679
  283MOL0     H38153   7.204   6.544   1.006 -2.7715  0.8934 -0.8404
  283MOL0     H38154   7.390   6.593   1.157  0.5865 -0.2164  1.2879
  283MOL0     H38155   7.331   6.497   1.288  0.9698 -0.7795 -0.1540
  283MOL0     H38156   7.495   6.451   0.926  2.0563 -1.6191 -1.6030
  283MOL0     H38157   7.658   6.114   0.909 -0.8686 -0.7343  4.1112
  283MOL0     H38158   7.652   6.284   0.837 -0.0552  1.4040  0.9386
  283MOL0     H38159   7.796   6.195   1.102  0.1305  1.0840  1.3490
  283MOL0     H38160   7.875   6.215   0.945  2.0576  1.3288  0.4494
  283MOL0     H38161   7.916   6.409   1.094 -0.7822  0.7801 -0.5939
  283MOL0     H38162   7.754   6.445   1.094  0.7583  0.1133  2.1884
  283MOL0     H38163   7.900   6.576   0.923  0.1750  0.6284 -1.5635
  283MOL0     H38164   7.756   6.513   0.861  0.6375  3.4258  1.1119
  283MOL0     H38165   8.077   6.596   0.815  0.1011 -0.6487 -2.3975
  283MOL0     H38166   8.313   6.600   0.818 -1.8887  0.2352  3.0474
  283MOL0     H38167   8.683   6.319   0.990 -0.5667  0.6432  0.0426
  283MOL0     H38168   8.936   6.343   1.057  0.6717  1.3851 -0.0503
  283MOL0     H38169   9.131   6.425   1.117  0.6033  0.8170 -0.7933
  283MOL0     H38170   9.170   6.306   0.995 -0.5830 -0.5632  0.4636
  283MOL0     H38171   9.342   6.530   0.941 -0.0084 -0.9344  0.0186
  283MOL0     H38172   9.326   6.522   1.119  0.8508  1.5799 -0.1636
  283MOL0     H38173   9.388   6.304   1.141 -1.6825  3.0269  1.1039
  283MOL0     H38174   9.405   6.263   0.968 -3.6466  1.4112  1.0437
  283MOL0     H38175   9.589   6.472   1.111  0.5961  2.4274 -2.6973
  283MOL0     H38176   9.596   6.428   0.939 -3.6039  2.4332  0.2908
  283MOL0     H38177   9.640   6.189   1.031 -0.0436  0.5013 -0.3669
  283MOL0     H38178   9.682   6.264   1.179  0.7130 -1.4981 -0.7059
  283MOL0     H38179   9.813   6.324   0.906  0.7482  1.3242  0.1008
  283MOL0     H38180   9.862   6.401   1.057 -0.2383  3.5381 -5.2411
  283MOL0     H38181   9.960   6.206   1.142 -2.4172  2.5541  1.0671
  283MOL0     H38182  10.002   6.209   0.976 -1.2504  0.3762 -1.5831
  283MOL0     H38183   9.824   6.004   1.108  3.1019 -2.0410  0.7377
  283MOL0     H38184   9.820   6.041   0.925  2.0088  0.2108 -1.7198
  283MOL0     H38185   8.968   6.632   0.741  1.1596 -1.3361 -0.7655
  283MOL0     H38186   8.729   6.629   0.704 -0.8455  1.3595  2.0357
  283MOL0     H38187   8.316   6.169   0.802  0.8199  0.7697 -0.3748
  283MOL0     H38188   8.061   6.175   0.781 -0.9456  0.6672  1.9317
  283MOL0     H38189   6.279   6.085   1.273  2.1283  0.7479 -0.5148
  283MOL0     H38190   6.062   6.089   1.355  1.3818  0.0300  0.8358
  283MOL0     H38191   5.673   6.316   1.371  0.6094  1.5640  0.4973
  283MOL0     H38192   5.438   6.321   1.422 -2.2251  1.3470  1.3765
  283MOL0     H38193   5.227   6.350   1.494 -0.0893 -0.7296  1.5659
  283MOL0     H38194   5.276   6.527   1.449 -2.7069  2.2975  1.3363
  283MOL0     H38195   5.034   6.468   1.514 -0.3868 -0.1848  2.7509
  283MOL0     H38196   5.126   6.620   1.554  2.4817  0.2001  0.7293
  283MOL0     H38197   5.163   6.506   1.789 -1.0082  1.3353  0.3972
  283MOL0     H38198   5.080   6.368   1.723  1.1759 -1.5039 -0.5314
  283MOL0     H38199   4.957   6.660   1.750 -3.2878  0.0697 -0.0630
  283MOL0     H38200   4.879   6.520   1.677 -1.7247  0.4784  1.2797
  283MOL0     H38201   4.866   6.436   2.095  0.1099 -1.3824 -1.2812
  283MOL0     H38202   5.523   6.467   1.811  1.6733 -1.8945  0.0536
  283MOL0     H38203   5.863   6.380   1.829  1.9345  1.8578 -0.1521
  283MOL0     H38204   5.857   6.541   1.759 -1.1566  0.2644 -0.7395
  283MOL0     H38205   5.740   6.489   1.889 -0.2869  1.3199 -0.5612
  284MOL0     O38206   8.093   2.397   5.978 -0.3039 -0.0254  0.0717
  284MOL0     C38207   8.026   2.494   6.013  0.0767 -0.2652  0.5129
  284MOL0     O38208   8.084   2.615   6.036  0.4505  0.2737  0.5114
  284MOL0     C38209   8.214   2.625   6.022 -1.3982 -0.1839 -0.5100
  284MOL0     C38210   8.276   2.668   5.905  0.1787  0.3513 -0.5880
  284MOL0     C38211   8.412   2.705   5.911 -0.3180 -0.1086 -0.0808
  284MOL0     C38212   8.501   2.694   6.023  0.0329 -0.8869  0.4658
  284MOL0     O38213   8.636   2.729   6.024 -0.2204  0.0885  0.5121
  284MOL0     C38214   8.678   2.808   5.911 -0.5963 -0.3744 -0.2711
  284MOL0     C38215   8.815   2.861   5.927 -0.2799 -1.0618  0.2245
  284MOL0     C38216   8.926   2.754   5.964 -0.1064 -0.0770  0.3880
  284MOL0     C38217   9.067   2.774   5.908 -0.0699  0.2572  0.5795
  284MOL0     C38218   9.121   2.905   5.959  0.4800  0.7770 -0.0008
  284MOL0     C38219   9.275   2.922   5.939 -1.0029  0.4084 -0.1681
  284MOL0     C38220   9.370   2.828   6.024  0.3529 -0.2888 -0.1419
  284MOL0     C38221   9.353   2.820   6.177  0.1824 -0.6508 -1.5787
  284MOL0     N38222   9.409   2.939   6.249 -0.3557 -0.4115  0.5061
  284MOL0     C38223   9.344   3.054   6.291 -0.0877  0.8298  0.4477
  284MOL0     C38224   9.433   3.112   6.368 -0.0637 -0.4528 -0.2181
  284MOL0     C38225   9.421   3.247   6.436  0.4318  0.4383 -1.5037
  284MOL0     C38226   9.275   3.298   6.450 -0.1838  0.4573  0.5196
  284MOL0     C38227   9.206   3.227   6.569 -0.4362 -0.2839 -0.3392
  284MOL0     C38228   9.058   3.244   6.556 -0.5075  0.1264  0.6146
  284MOL0     O38229   9.039   3.387   6.562 -0.4247 -0.0902  0.0567
  284MOL0     C38230   8.902   3.433   6.581 -0.0268  0.1745  0.5743
  284MOL0     C38231   8.789   3.349   6.578 -0.2995  0.0791  0.0120
  284MOL0     C38232   8.664   3.401   6.591  0.7751  0.2944 -0.9040
  284MOL0     C38233   8.646   3.538   6.587  0.6947  0.0968 -0.2638
  284MOL0     C38234   8.512   3.589   6.590  0.6266  0.1266  0.7298
  284MOL0     O38235   8.492   3.709   6.530 -0.3551 -0.4715  0.4503
  284MOL0     C38236   8.373   3.773   6.539 -0.3537  0.2507  0.1078
  284MOL0     C38237   8.240   3.722   6.553 -0.4128  0.5624 -1.0229
  284MOL0     C38238   8.135   3.803   6.571 -0.1259 -0.0033 -0.6600
  284MOL0     C38239   8.137   3.939   6.558 -0.3960  0.2110 -1.0318
  284MOL0     O38240   8.025   4.020   6.591 -0.1938 -0.5826  0.4923
  284MOL0     C38241   7.901   3.973   6.636  0.5220 -0.9323 -0.3621
  284MOL0     C38242   7.819   4.102   6.656  0.6774  0.0483 -0.5173
  284MOL0     C38243   7.674   4.080   6.695 -0.0225 -0.3294  0.3598
  284MOL0     C38244   7.586   4.199   6.677  0.3155 -0.8800  0.5371
  284MOL0     C38245   7.611   4.304   6.792 -0.5716  0.3331 -0.5576
  284MOL0     C38246   7.523   4.428   6.784 -0.3686  0.8906 -0.4888
  284MOL0     C38247   7.511   4.493   6.646 -0.9856  0.0391  0.0127
  284MOL0     C38248   7.420   4.620   6.633 -0.3381  0.2989  0.8757
  284MOL0    Cl38249   7.246   4.556   6.648 -0.4754  0.0286 -0.1752
  284MOL0     C38250   8.269   3.998   6.536  0.1953 -0.5123  0.0753
  284MOL0     C38251   8.389   3.917   6.522 -0.9256 -0.0655  0.7955
  284MOL0     O38252   8.430   3.522   6.643  0.0623  0.1723  0.7560
  284MOL0     C38253   8.754   3.624   6.575 -0.1274 -0.7805  0.6202
  284MOL0     C38254   8.886   3.574   6.579  0.0247 -0.5462 -0.3668
  284MOL0     N38255   9.546   3.046   6.366 -1.0109  0.1868 -0.5369
  284MOL0     N38256   9.538   2.948   6.290 -0.3837  0.1141  0.3301
  284MOL0     C38257   8.436   2.649   6.132  0.3925 -0.2858 -0.0638
  284MOL0     C38258   8.301   2.619   6.138  0.0092 -0.5597  0.4616
  284MOL0     C38259   7.884   2.467   6.048  0.2807  0.1387 -0.6779
  284MOL0     C38260   7.790   2.559   6.002  0.1438 -0.7842  0.4353
  284MOL0     C38261   7.655   2.538   6.008 -0.0773  0.3315  0.3016
  284MOL0     C38262   7.605   2.417   6.055  0.2713  1.0054  0.1022
  284MOL0     O38263   7.474   2.384   6.065  0.2346 -0.4038 -0.7476
  284MOL0     C38264   7.432   2.257   6.020  0.5619  0.0381  0.8286
  284MOL0     C38265   7.457   2.228   5.872 -0.0122  0.0473 -0.6631
  284MOL0     C38266   7.449   2.350   5.780 -0.5263  0.1414 -0.0597
  284MOL0     C38267   7.317   2.427   5.766 -0.2094  0.1219 -0.0958
  284MOL0     C38268   7.215   2.362   5.680 -0.7388 -0.3939 -0.3153
  284MOL0     C38269   7.123   2.311   5.619 -1.0084  0.8429 -0.1756
  284MOL0     C38270   7.700   2.317   6.094 -0.8572 -0.1010  0.0387
  284MOL0     C38271   7.840   2.343   6.094  1.0273 -0.3982 -0.5227
  284MOL0     C38272   7.929   2.230   6.122  0.1284  0.1201 -0.2794
  284MOL0     H38273   8.216   2.677   5.816  0.2143 -0.3158 -0.6815
  284MOL0     H38274   8.450   2.746   5.818  0.6247  1.0954  0.8023
  284MOL0     H38275   8.677   2.740   5.825  0.6379 -0.9397  0.1465
  284MOL0     H38276   8.608   2.890   5.894 -0.2712 -0.2373 -0.9956
  284MOL0     H38277   8.806   2.939   6.003 -0.7585  0.3751 -1.2527
  284MOL0     H38278   8.851   2.906   5.834 -0.1064 -2.1307 -0.2414
  284MOL0     H38279   8.883   2.656   5.940 -1.4369  0.7655 -0.8559
  284MOL0     H38280   8.936   2.753   6.073  1.3831  5.1868  0.5692
  284MOL0     H38281   9.122   2.686   5.943  0.1144 -0.3049 -1.0338
  284MOL0     H38282   9.074   2.774   5.799  2.0650 -1.0599  0.6602
  284MOL0     H38283   9.067   2.981   5.901  1.6121  0.8241 -1.0502
  284MOL0     H38284   9.097   2.914   6.065 -0.9848  2.6254 -0.4346
  284MOL0     H38285   9.298   2.895   5.835  0.7870  1.1523 -0.0001
  284MOL0     H38286   9.302   3.027   5.954 -6.4515  2.1637 -0.4193
  284MOL0     H38287   9.476   2.844   6.001  0.8300 -2.6651  0.1981
  284MOL0     H38288   9.354   2.725   5.990  1.5422 -0.1824 -1.0862
  284MOL0     H38289   9.250   2.808   6.211  0.7640 -1.3727  0.0206
  284MOL0     H38290   9.403   2.731   6.216  1.8793  1.4947  1.5460
  284MOL0     H38291   9.241   3.082   6.269 -0.4909  0.2662  1.5576
  284MOL0     H38292   9.462   3.231   6.536  1.3189  0.8558 -1.7941
  284MOL0     H38293   9.476   3.328   6.387  1.7296  1.4010  1.3219
  284MOL0     H38294   9.289   3.406   6.463 -1.5166  0.7961 -0.5653
  284MOL0     H38295   9.221   3.271   6.359 -0.0397 -1.9198  1.0850
  284MOL0     H38296   9.250   3.260   6.664  0.9574  0.5711 -1.2428
  284MOL0     H38297   9.226   3.120   6.559 -0.3686 -0.4636  1.3724
  284MOL0     H38298   9.012   3.192   6.640  2.0744  1.4322  2.9664
  284MOL0     H38299   9.022   3.219   6.455 -1.0271  2.1420  0.2469
  284MOL0     H38300   8.796   3.242   6.564 -0.8700  0.4986 -5.3550
  284MOL0     H38301   8.582   3.330   6.586  0.0955  0.9387  0.6178
  284MOL0     H38302   8.234   3.614   6.563  0.0485  0.5232 -1.1442
  284MOL0     H38303   8.038   3.758   6.591  0.1824 -0.7736 -0.8811
  284MOL0     H38304   7.860   3.913   6.556  1.6520  0.4621 -2.0646
  284MOL0     H38305   7.904   3.919   6.732 -1.1425 -0.7098 -0.1548
  284MOL0     H38306   7.859   4.158   6.741 -1.4085 -1.0507  1.2651
  284MOL0     H38307   7.817   4.151   6.558  0.0287 -3.4501 -2.4345
  284MOL0     H38308   7.620   4.004   6.637  0.2540  0.3826 -0.8626
  284MOL0     H38309   7.663   4.043   6.798 -0.1334  0.9751  0.8339
  284MOL0     H38310   7.487   4.153   6.684  1.2989 -3.0932  0.9429
  284MOL0     H38311   7.598   4.243   6.578 -2.6682  0.1816  0.5393
  284MOL0     H38312   7.713   4.344   6.787 -1.0658  1.4668 -2.1249
  284MOL0     H38313   7.608   4.265   6.894  2.1988  2.4443  0.4815
  284MOL0     H38314   7.422   4.397   6.814 -0.2118  0.9466  0.1100
  284MOL0     H38315   7.551   4.509   6.853 -0.0780 -0.8352  1.5126
  284MOL0     H38316   7.479   4.414   6.578  1.6086 -0.2369 -1.0268
  284MOL0     H38317   7.613   4.522   6.616 -0.9244 -0.9558 -0.7639
  284MOL0     H38318   7.431   4.694   6.712 -0.8612 -0.0609  1.2947
  284MOL0     H38319   7.416   4.664   6.533  1.5251 -0.3722  0.4558
  284MOL0     H38320   8.269   4.107   6.540  1.1238 -0.4660 -0.7941
  284MOL0     H38321   8.475   3.978   6.498 -1.7074  0.7766  0.0707
  284MOL0     H38322   8.741   3.731   6.566  1.4138 -0.6472 -0.2925
  284MOL0     H38323   8.968   3.645   6.580  0.2956 -0.8343  1.5453
  284MOL0     H38324   8.483   2.649   6.230  0.1540 -1.7217  0.0761
  284MOL0     H38325   8.265   2.578   6.232  1.7930 -1.9365  0.6038
  284MOL0     H38326   7.825   2.649   5.952 -0.3511  0.2538  1.8760
  284MOL0     H38327   7.588   2.605   5.956 -0.8017 -1.6317 -1.4531
  284MOL0     H38328   7.323   2.250   6.029 -0.1819  1.4667 -4.0266
  284MOL0     H38329   7.476   2.181   6.086  1.0089 -0.4790 -0.0450
  284MOL0     H38330   7.389   2.150   5.837 -0.1964 -0.3222  0.4684
  284MOL0     H38331   7.555   2.181   5.863 -0.1782 -0.4529  0.0366
  284MOL0     H38332   7.469   2.316   5.678  1.0385 -0.6508  0.4833
  284MOL0     H38333   7.531   2.414   5.813  1.3128 -2.1251 -0.0415
  284MOL0     H38334   7.272   2.431   5.866 -1.0954 -0.8924 -0.4307
  284MOL0     H38335   7.335   2.526   5.722  0.8439 -0.3074 -0.6605
  284MOL0     H38336   7.041   2.255   5.578  0.1983  0.2691 -1.8819
  284MOL0     H38337   7.670   2.223   6.139  0.1334 -0.2392  0.4376
  284MOL0     H38338   7.979   2.197   6.030 -1.1365  2.6985 -2.0260
  284MOL0     H38339   8.019   2.265   6.175 -1.1059  3.1460  0.0333
  284MOL0     H38340   7.881   2.148   6.176  1.9811  0.3128  1.8169
  285MOL0     O38341   4.708   9.262  10.735  0.1442 -0.1480 -0.2600
  285MOL0     C38342   4.618   9.286  10.657  0.1702 -0.6355 -0.3504
  285MOL0     O38343   4.628   9.291  10.526 -0.4257 -0.1101 -0.4962
  285MOL0     C38344   4.750   9.282  10.447 -0.0567 -0.3121  0.1412
  285MOL0     C38345   4.725   9.259  10.311 -0.1656 -0.6819  0.4027
  285MOL0     C38346   4.827   9.246  10.217  0.7081  0.2802 -0.8294
  285MOL0     C38347   4.962   9.233  10.264 -1.4538 -0.4369  0.0096
  285MOL0     O38348   5.068   9.211  10.174  0.1045  0.3405 -0.1251
  285MOL0     C38349   5.187   9.162  10.240  0.4394  0.5590  0.3865
  285MOL0     C38350   5.281   9.124  10.128  0.1248  0.3206 -0.3906
  285MOL0     C38351   5.378   9.010  10.154  0.0493  0.3965  0.4103
  285MOL0     C38352   5.448   8.974  10.027 -0.6108  0.7058 -0.6981
  285MOL0     C38353   5.572   8.887  10.071  0.9822 -0.4423 -0.4045
  285MOL0     C38354   5.670   8.857   9.956 -0.8685 -0.1517 -0.3154
  285MOL0     C38355   5.727   8.983   9.891  0.7263  1.4171 -0.2660
  285MOL0     C38356   5.844   8.949   9.801 -0.1583  0.2583  0.8949
  285MOL0     N38357   5.868   9.063   9.713  0.1427 -0.4744  0.1593
  285MOL0     C38358   5.971   9.145   9.745 -0.3683  0.3911 -0.1722
  285MOL0     C38359   5.975   9.232   9.642  0.5005 -0.4205  0.6216
  285MOL0     C38360   6.048   9.362   9.645  0.5413 -0.5838 -0.2768
  285MOL0     C38361   6.161   9.353   9.541  0.3326  0.9140  0.3857
  285MOL0     C38362   6.237   9.488   9.542  0.6890 -0.9691 -0.3040
  285MOL0     C38363   6.357   9.483   9.460  0.2255  0.2191  0.0794
  285MOL0     O38364   6.422   9.610   9.467 -0.0940 -0.2627 -0.5602
  285MOL0     C38365   6.557   9.617   9.448  0.2784  0.0870  0.2482
  285MOL0     C38366   6.627   9.716   9.502 -0.3781 -0.4474  0.1399
  285MOL0     C38367   6.769   9.713   9.498  1.0286 -0.5843 -0.1148
  285MOL0     C38368   6.840   9.611   9.436  0.9107 -0.3633 -0.6556
  285MOL0     C38369   6.986   9.604   9.444 -0.3445 -0.2886  0.5211
  285MOL0     O38370   7.037   9.494   9.389  0.2644 -0.1672  0.3283
  285MOL0     C38371   7.177   9.498   9.374  0.7505 -0.5962  0.3523
  285MOL0     C38372   7.271   9.431   9.447  0.7477 -0.6839 -0.2344
  285MOL0     C38373   7.410   9.452   9.423 -0.3906 -1.0275  0.1156
  285MOL0     C38374   7.458   9.530   9.316  0.0866 -0.1614 -0.3036
  285MOL0     O38375   7.584   9.545   9.272 -0.9220 -0.6356  0.3039
  285MOL0     C38376   7.703   9.500   9.341  0.3768 -0.7482  0.1094
  285MOL0     C38377   7.808   9.604   9.307  0.4349  0.2953 -0.1097
  285MOL0     C38378   7.939   9.578   9.382  0.2287  0.4953 -0.8248
  285MOL0     C38379   8.062   9.657   9.324 -0.0698 -0.2782  0.2049
  285MOL0     C38380   8.193   9.623   9.393  0.1003  0.4920 -0.5113
  285MOL0     C38381   8.314   9.715   9.369  0.1194 -0.7148 -0.3474
  285MOL0     C38382   8.443   9.683   9.447 -0.0683 -1.1261  0.3047
  285MOL0     C38383   8.567   9.744   9.391 -0.7877  0.4919 -0.0051
  285MOL0    Cl38384   8.698   9.695   9.498 -0.0754 -0.0262  0.4660
  285MOL0     C38385   7.357   9.589   9.238 -0.1584  0.7327  0.3434
  285MOL0     C38386   7.218   9.578   9.265 -0.2017 -0.5748  0.1554
  285MOL0     O38387   7.051   9.703   9.484  0.4935  0.0680 -0.4611
  285MOL0     C38388   6.760   9.518   9.368  0.3195 -0.1651 -0.1163
  285MOL0     C38389   6.625   9.514   9.379  0.9124 -0.0763 -0.3234
  285MOL0     N38390   5.889   9.182   9.547 -0.2625 -0.2617  0.2841
  285MOL0     N38391   5.817   9.089   9.592  0.4469 -0.9461 -0.6408
  285MOL0     C38392   4.988   9.252  10.406  0.0946  0.5981 -0.3508
  285MOL0     C38393   4.879   9.274  10.491 -0.8422 -0.6985  0.2998
  285MOL0     C38394   4.477   9.310  10.715  0.3886  0.9829 -0.6317
  285MOL0     C38395   4.370   9.288  10.624  0.2699 -0.1851  0.2008
  285MOL0     C38396   4.243   9.311  10.662 -0.1881  0.2669  0.3979
  285MOL0     C38397   4.212   9.336  10.797  0.8289 -0.1592  0.1197
  285MOL0     O38398   4.086   9.359  10.833  0.4498  0.4045 -0.4158
  285MOL0     C38399   4.017   9.445  10.746 -0.1379  0.2243 -0.0086
  285MOL0     C38400   3.952   9.545  10.823  0.4736 -0.8911  0.1443
  285MOL0     C38401   3.848   9.485  10.917  0.4188  0.0128  0.4692
  285MOL0     C38402   3.784   9.595  11.007 -0.0987 -1.1845 -1.1422
  285MOL0     C38403   3.730   9.538  11.135 -0.6060 -0.1743  1.4795
  285MOL0     C38404   3.680   9.467  11.221 -0.0231 -0.7400  0.5471
  285MOL0     C38405   4.315   9.350  10.891  0.4703  0.7694 -0.6784
  285MOL0     C38406   4.450   9.336  10.849  0.3793  0.0645  0.8917
  285MOL0     C38407   4.564   9.385  10.945  0.3337  1.2298  0.7949
  285MOL0     H38408   4.622   9.274  10.280  0.2242 -2.0710 -1.7589
  285MOL0     H38409   4.801   9.217  10.116 -2.0560 -0.7856  0.0809
  285MOL0     H38410   5.235   9.240  10.300  2.0175 -1.0571  1.3336
  285MOL0     H38411   5.172   9.074  10.303  1.4098 -0.2154 -0.4273
  285MOL0     H38412   5.334   9.210  10.085  0.4089  0.1809 -0.3229
  285MOL0     H38413   5.221   9.090  10.043  0.4998 -0.0268 -0.5239
  285MOL0     H38414   5.329   8.916  10.182  3.6444 -2.0934 -0.8547
  285MOL0     H38415   5.451   9.049  10.226  2.0341 -3.3420  0.7159
  285MOL0     H38416   5.392   8.912   9.957 -0.5906 -2.6239  1.9679
  285MOL0     H38417   5.485   9.063   9.974 -0.9631  0.3459 -1.5552
  285MOL0     H38418   5.623   8.941  10.151  1.5718  0.1792 -1.1905
  285MOL0     H38419   5.535   8.792  10.113 -0.1339 -0.1106 -0.5978
  285MOL0     H38420   5.755   8.794   9.987 -1.5517 -1.3222 -0.7368
  285MOL0     H38421   5.617   8.802   9.877  1.4136  0.1684 -2.2091
  285MOL0     H38422   5.761   9.056   9.965 -3.0443 -0.0903  3.3514
  285MOL0     H38423   5.641   9.018   9.833 -0.7782  1.3074  1.7790
  285MOL0     H38424   5.933   8.922   9.859 -0.4416 -0.6097  0.9331
  285MOL0     H38425   5.821   8.865   9.735 -0.5305  2.0799 -1.4122
  285MOL0     H38426   6.025   9.150   9.839 -0.1471 -0.4541 -0.2435
  285MOL0     H38427   5.982   9.445   9.619  0.6309 -0.1781  0.7453
  285MOL0     H38428   6.079   9.386   9.747 -2.3551  2.8799 -0.0269
  285MOL0     H38429   6.232   9.273   9.563 -2.2520 -0.9739  2.4560
  285MOL0     H38430   6.116   9.321   9.446  2.0907 -1.2094  0.1731
  285MOL0     H38431   6.267   9.512   9.644 -1.0479 -0.1479  0.0443
  285MOL0     H38432   6.172   9.566   9.501 -0.5863 -1.6779  0.2946
  285MOL0     H38433   6.335   9.455   9.356 -3.3514 -2.2976  1.3223
  285MOL0     H38434   6.418   9.400   9.494 -0.9817 -0.9054 -0.4050
  285MOL0     H38435   6.579   9.800   9.551  2.4263  1.1466  0.3771
  285MOL0     H38436   6.816   9.798   9.547 -3.3569  1.5620  0.9205
  285MOL0     H38437   7.249   9.367   9.533 -0.5523  0.2772  0.1727
  285MOL0     H38438   7.480   9.388   9.478  3.5273 -0.4076 -3.5672
  285MOL0     H38439   7.694   9.501   9.450 -0.8007  0.4995  0.0214
  285MOL0     H38440   7.720   9.400   9.302 -0.9063 -0.5261 -1.1022
  285MOL0     H38441   7.827   9.599   9.200  3.0618 -4.2842  0.3465
  285MOL0     H38442   7.765   9.700   9.338 -3.0077 -2.0432  3.2186
  285MOL0     H38443   7.917   9.613   9.483  0.3003  0.7519 -0.8967
  285MOL0     H38444   7.954   9.469   9.385 -0.9555  0.3374 -0.2223
  285MOL0     H38445   8.036   9.762   9.334 -2.6271 -0.8235  0.0020
  285MOL0     H38446   8.073   9.621   9.221 -0.9314  0.9662 -0.3404
  285MOL0     H38447   8.216   9.520   9.367  1.4449  1.0115 -1.5174
  285MOL0     H38448   8.171   9.622   9.500  1.7956 -0.2392 -0.1440
  285MOL0     H38449   8.330   9.720   9.260  1.1499  1.1976 -0.1503
  285MOL0     H38450   8.282   9.817   9.392  0.7907 -0.2655 -1.3136
  285MOL0     H38451   8.454   9.574   9.439  1.7239 -1.2547  3.0471
  285MOL0     H38452   8.427   9.708   9.552  0.3112 -2.5594  0.7353
  285MOL0     H38453   8.580   9.715   9.286 -3.3318  3.3486 -1.2641
  285MOL0     H38454   8.558   9.853   9.385 -0.2089  0.4732 -1.8299
  285MOL0     H38455   7.389   9.654   9.157  0.2481  2.0552  1.5255
  285MOL0     H38456   7.143   9.633   9.208  0.5656  1.7126  1.2410
  285MOL0     H38457   6.802   9.440   9.306  2.0904 -0.2064  1.0520
  285MOL0     H38458   6.579   9.441   9.313 -0.1515 -1.3261  1.7240
  285MOL0     H38459   5.086   9.250  10.451  1.3926 -0.5540 -2.9984
  285MOL0     H38460   4.909   9.289  10.594 -0.0219  0.2442 -0.0604
  285MOL0     H38461   4.398   9.261  10.522  1.0246  1.3080 -0.0155
  285MOL0     H38462   4.168   9.289  10.586  1.7032 -1.4040 -1.1106
  285MOL0     H38463   3.957   9.398  10.668  1.5399  1.4791 -2.1609
  285MOL0     H38464   4.083   9.499  10.678 -1.9736  4.0049  0.9166
  285MOL0     H38465   3.899   9.617  10.759 -0.4050 -0.9233  0.8044
  285MOL0     H38466   4.026   9.602  10.879  0.4943 -1.3290  0.5687
  285MOL0     H38467   3.903   9.420  10.986  2.0704 -1.1250 -1.7959
  285MOL0     H38468   3.777   9.419  10.866  0.3811  0.0908  0.4186
  285MOL0     H38469   3.853   9.673  11.038 -1.3177  0.7165 -2.9448
  285MOL0     H38470   3.704   9.642  10.948  0.2822 -0.2738 -0.9377
  285MOL0     H38471   3.632   9.416  11.303  1.0618  0.6680  2.1296
  285MOL0     H38472   4.290   9.381  10.992  2.5363 -1.1769  0.5367
  285MOL0     H38473   4.518   9.432  11.032 -4.7624 -1.3371 -0.0968
  285MOL0     H38474   4.609   9.294  10.986  0.3023  1.1156  0.5784
  285MOL0     H38475   4.645   9.443  10.901  0.6397  1.7223  1.9867
  286MOL0     O38476   1.256   4.116   0.267  0.7562  1.0272  0.2384
  286MOL0     C38477   1.149   4.152   0.327  0.0567 -0.0757  0.4161
  286MOL0     O38478   1.128   4.146   0.464 -0.2543 -0.3150  0.3599
  286MOL0     C38479   1.238   4.110   0.538  0.6150 -0.1641  0.1248
  286MOL0     C38480   1.349   4.187   0.553  0.2902 -0.3091  0.5237
  286MOL0     C38481   1.463   4.133   0.614  0.3573 -0.3013 -0.1562
  286MOL0     C38482   1.467   3.996   0.664  0.5799 -0.6199  0.2276
  286MOL0     O38483   1.578   3.945   0.727  0.3689  0.2925  1.0519
  286MOL0     C38484   1.566   3.906   0.871 -0.9077  0.1008  0.6364
  286MOL0     C38485   1.652   3.789   0.881 -0.8590 -0.2905  0.5257
  286MOL0     C38486   1.803   3.820   0.834 -0.4611  0.1373  0.8864
  286MOL0     C38487   1.875   3.694   0.791  0.1207 -0.4430 -0.9374
  286MOL0     C38488   2.027   3.722   0.775  0.0623  0.0220 -0.0106
  286MOL0     C38489   2.068   3.816   0.659 -0.0364  0.5755  0.6230
  286MOL0     C38490   2.223   3.839   0.659  0.0023 -0.6362  0.1543
  286MOL0     C38491   2.253   3.951   0.563  0.1491 -0.0927  0.0920
  286MOL0     N38492   2.204   3.921   0.425 -0.4116  0.4020  0.3478
  286MOL0     C38493   2.295   3.909   0.323  0.5533 -0.5213 -0.2890
  286MOL0     C38494   2.226   3.932   0.211  0.0367 -0.6555 -0.0482
  286MOL0     C38495   2.289   3.932   0.071  0.9657  0.4983  0.6735
  286MOL0     C38496   2.380   4.043   0.041  0.0623  0.0474 -0.6639
  286MOL0     C38497   2.432   4.045  -0.108 -0.2551 -0.8171  0.0108
  286MOL0     C38498   2.537   4.150  -0.124  1.0111  1.1208  0.1885
  286MOL0     O38499   2.562   4.151  -0.263 -0.3300 -0.0935 -0.3574
  286MOL0     C38500   2.641   4.245  -0.319  0.1856 -0.3610 -1.5183
  286MOL0     C38501   2.624   4.269  -0.453  0.4627 -0.4757 -0.4665
  286MOL0     C38502   2.688   4.377  -0.516 -0.1940 -0.5430  0.0995
  286MOL0     C38503   2.786   4.455  -0.453  1.2470 -0.2649  0.3020
  286MOL0     C38504   2.846   4.567  -0.521  0.0065  0.2316 -0.4865
  286MOL0     O38505   2.939   4.635  -0.452  0.3454 -0.8701  0.3937
  286MOL0     C38506   3.002   4.734  -0.521 -0.1614 -0.2403 -0.5604
  286MOL0     C38507   3.069   4.717  -0.646 -0.0589 -0.7815 -0.7267
  286MOL0     C38508   3.129   4.838  -0.706 -0.3561  0.5467 -0.0107
  286MOL0     C38509   3.143   4.956  -0.649 -0.4868  0.4899 -0.7049
  286MOL0     O38510   3.195   5.057  -0.734 -0.2803  0.6058 -0.3793
  286MOL0     C38511   3.203   5.191  -0.685 -0.4108 -0.4071 -0.2663
  286MOL0     C38512   3.304   5.256  -0.771  0.5649  0.2444  0.1054
  286MOL0     C38513   3.315   5.410  -0.749  0.3824 -0.1011  0.4206
  286MOL0     C38514   3.461   5.462  -0.786  1.0565 -0.2284 -0.5470
  286MOL0     C38515   3.517   5.565  -0.689 -0.2782  0.8093  0.4853
  286MOL0     C38516   3.465   5.704  -0.729  0.0123  0.0330  0.9941
  286MOL0     C38517   3.520   5.822  -0.641  0.6033 -0.4010  0.5254
  286MOL0     C38518   3.504   5.956  -0.706  0.5475 -0.0686 -1.0190
  286MOL0    Cl38519   3.610   5.984  -0.856  0.1945  0.1473 -0.3583
  286MOL0     C38520   3.094   4.969  -0.517  0.0727 -0.0347  0.0120
  286MOL0     C38521   3.016   4.860  -0.460 -0.5049 -0.0942  0.3497
  286MOL0     O38522   2.791   4.599  -0.626 -0.5293 -0.0400 -0.2164
  286MOL0     C38523   2.804   4.427  -0.317 -0.4893  0.8651 -0.4088
  286MOL0     C38524   2.730   4.325  -0.248 -0.1994  0.7103 -0.1932
  286MOL0     N38525   2.089   3.956   0.246  0.1856  0.8088  0.1073
  286MOL0     N38526   2.078   3.950   0.372 -0.4061 -0.1841 -0.5391
  286MOL0     C38527   1.354   3.921   0.633 -0.5291 -0.3712 -0.4740
  286MOL0     C38528   1.241   3.982   0.586 -0.1218  0.3319  0.2315
  286MOL0     C38529   1.024   4.191   0.252 -0.8067 -0.2456 -0.9583
  286MOL0     C38530   0.901   4.185   0.323 -0.0249 -0.9319  0.0684
  286MOL0     C38531   0.787   4.217   0.264 -0.7450 -0.6676  1.3824
  286MOL0     C38532   0.785   4.279   0.137  1.2480  0.7673  1.1465
  286MOL0     O38533   0.669   4.317   0.077  0.7339  0.3054  0.5641
  286MOL0     C38534   0.666   4.436  -0.005  0.4389 -0.3657 -0.0691
  286MOL0     C38535   0.532   4.495  -0.033  0.1871  0.3329  0.1761
  286MOL0     C38536   0.430   4.385  -0.060  0.4503 -0.5107 -0.1290
  286MOL0     C38537   0.371   4.327   0.077  0.1289 -1.2038  0.2340
  286MOL0     C38538   0.249   4.253   0.056  0.3961 -0.2787  0.2083
  286MOL0     C38539   0.135   4.204   0.031  0.1633  0.1430 -0.3736
  286MOL0     C38540   0.907   4.286   0.069 -0.1612 -0.4317 -0.7757
  286MOL0     C38541   1.027   4.231   0.121  0.0868 -0.3522  0.2196
  286MOL0     C38542   1.147   4.224   0.027  0.6005 -0.7128 -1.3056
  286MOL0     H38543   1.353   4.288   0.514 -1.2696  0.0703  1.2710
  286MOL0     H38544   1.564   4.172   0.626  0.7204 -0.1794 -2.8887
  286MOL0     H38545   1.608   3.987   0.932  0.3301  1.5601 -1.9696
  286MOL0     H38546   1.462   3.893   0.902 -0.0687  0.4599  3.9279
  286MOL0     H38547   1.600   3.712   0.823  0.2462 -1.2810  0.8177
  286MOL0     H38548   1.651   3.758   0.986 -1.1330 -3.9273 -0.4112
  286MOL0     H38549   1.848   3.866   0.923  0.4793  2.2385 -0.5780
  286MOL0     H38550   1.804   3.900   0.759 -0.7423  0.7580  1.5265
  286MOL0     H38551   1.852   3.617   0.865  0.5610 -0.2502 -0.5951
  286MOL0     H38552   1.831   3.654   0.699 -0.9326 -0.5999 -0.3792
  286MOL0     H38553   2.057   3.775   0.867  2.6435  2.5669 -2.1226
  286MOL0     H38554   2.089   3.632   0.773  0.5463  0.3642 -1.6911
  286MOL0     H38555   2.044   3.761   0.568  3.2218 -0.7520  0.4139
  286MOL0     H38556   1.999   3.900   0.653 -2.4580 -1.3942 -0.7548
  286MOL0     H38557   2.279   3.755   0.618  2.9682  0.3695  1.8619
  286MOL0     H38558   2.251   3.851   0.764  2.0578  1.4414 -0.5396
  286MOL0     H38559   2.207   4.044   0.599  0.4842 -0.3813  1.3284
  286MOL0     H38560   2.360   3.970   0.559  0.5440 -2.0535  0.5579
  286MOL0     H38561   2.400   3.882   0.326 -0.0429 -2.9949  1.7750
  286MOL0     H38562   2.342   3.839   0.048  0.0946 -0.1169  1.0678
  286MOL0     H38563   2.211   3.930  -0.007  3.1819 -1.4202 -1.6706
  286MOL0     H38564   2.318   4.131   0.062  1.8952  1.9614 -2.6736
  286MOL0     H38565   2.462   4.032   0.112 -0.6175 -1.5014 -0.0719
  286MOL0     H38566   2.352   4.068  -0.179  0.6834 -0.2598 -0.8941
  286MOL0     H38567   2.488   3.957  -0.141  2.2059  1.4486 -2.3258
  286MOL0     H38568   2.634   4.123  -0.080  1.0621 -0.3265 -0.7077
  286MOL0     H38569   2.501   4.248  -0.092 -1.5218  0.1601  0.4775
  286MOL0     H38570   2.549   4.206  -0.499  0.4997 -0.5925 -0.3656
  286MOL0     H38571   2.679   4.397  -0.622  2.3264  1.5744  0.1789
  286MOL0     H38572   3.076   4.624  -0.702  1.2394 -1.5213  0.6131
  286MOL0     H38573   3.165   4.828  -0.809  1.1332  0.8038  0.4516
  286MOL0     H38574   3.103   5.234  -0.695  0.3601  1.1636 -1.6727
  286MOL0     H38575   3.237   5.187  -0.581 -1.7871 -1.9007  0.1750
  286MOL0     H38576   3.398   5.210  -0.739  0.2286 -0.6993 -0.2244
  286MOL0     H38577   3.272   5.247  -0.875 -0.8896  0.2211  0.5295
  286MOL0     H38578   3.245   5.464  -0.814 -1.4565 -1.5872  1.0743
  286MOL0     H38579   3.280   5.432  -0.648 -2.5919 -0.8886 -0.3463
  286MOL0     H38580   3.463   5.509  -0.885  1.9642  1.9062  0.4177
  286MOL0     H38581   3.529   5.376  -0.786  3.8375  1.8459 -1.1737
  286MOL0     H38582   3.626   5.569  -0.694 -0.1450  0.1108  2.2972
  286MOL0     H38583   3.489   5.539  -0.587  2.1870  0.3261  1.0913
  286MOL0     H38584   3.497   5.720  -0.832 -0.2946  1.3524  1.0850
  286MOL0     H38585   3.355   5.697  -0.730 -0.0239  0.5380  1.3391
  286MOL0     H38586   3.625   5.798  -0.624  0.5121 -0.8500  0.4688
  286MOL0     H38587   3.468   5.816  -0.545 -1.8142 -1.8202 -0.7816
  286MOL0     H38588   3.402   5.965  -0.745  0.8433  0.5954 -1.6687
  286MOL0     H38589   3.530   6.032  -0.631 -0.6514 -1.0953  0.5038
  286MOL0     H38590   3.109   5.063  -0.464  1.1278  0.2040 -0.6937
  286MOL0     H38591   2.975   4.857  -0.359 -0.6827  0.3470  0.2900
  286MOL0     H38592   2.873   4.491  -0.263 -1.8785  1.6094  0.5491
  286MOL0     H38593   2.756   4.316  -0.143  0.6754  1.4420 -0.3324
  286MOL0     H38594   1.353   3.814   0.647 -1.2390 -0.4229 -0.8689
  286MOL0     H38595   1.153   3.922   0.566  1.3806 -1.7559 -0.4407
  286MOL0     H38596   0.904   4.126   0.414 -3.0650 -0.0417  0.8584
  286MOL0     H38597   0.691   4.189   0.306 -1.6090  1.2374  0.7703
  286MOL0     H38598   0.714   4.406  -0.099 -0.9738 -2.2185 -0.2497
  286MOL0     H38599   0.731   4.513   0.040 -0.7539  0.3508  0.4738
  286MOL0     H38600   0.540   4.563  -0.118 -0.2275  1.9809  1.4038
  286MOL0     H38601   0.505   4.567   0.044  0.4906 -0.2925  0.8749
  286MOL0     H38602   0.474   4.304  -0.119  2.0707 -0.2053  0.6110
  286MOL0     H38603   0.350   4.424  -0.124  0.2168  1.1283  1.0983
  286MOL0     H38604   0.442   4.258   0.124 -1.8902 -5.3936 -2.3349
  286MOL0     H38605   0.354   4.415   0.141 -0.0347 -0.8227 -0.3289
  286MOL0     H38606   0.035   4.172   0.010  0.4657 -1.2951  0.2061
  286MOL0     H38607   0.908   4.314  -0.035 -1.6194  0.2949 -0.6243
  286MOL0     H38608   1.136   4.253  -0.078 -2.1022 -1.2321 -1.2216
  286MOL0     H38609   1.230   4.283   0.067 -1.5528  1.6460 -0.0589
  286MOL0     H38610   1.193   4.125   0.037  3.7903  0.6162 -1.3658
  287MOL0     O38611   6.161   1.342  11.144  0.2735  0.2630  0.9664
  287MOL0     C38612   6.159   1.456  11.183 -0.0951  0.0190  0.1099
  287MOL0     O38613   6.273   1.537  11.190  0.1298  0.6405  0.2394
  287MOL0     C38614   6.400   1.489  11.149  0.4572  0.0471 -0.4458
  287MOL0     C38615   6.423   1.439  11.017 -0.2305 -0.4434  0.7522
  287MOL0     C38616   6.558   1.400  10.976  0.1441 -0.6158  0.8232
  287MOL0     C38617   6.656   1.400  11.072 -0.0144  0.9796  0.4234
  287MOL0     O38618   6.783   1.349  11.037 -0.3464 -0.5002  0.1538
  287MOL0     C38619   6.893   1.343  11.123 -0.5176  0.2465 -0.5926
  287MOL0     C38620   6.992   1.242  11.074 -0.5538 -0.1154  0.3551
  287MOL0     C38621   6.935   1.101  11.037 -0.7262 -0.0489  0.0610
  287MOL0     C38622   7.030   0.979  11.026 -0.6299  0.5019 -0.9903
  287MOL0     C38623   6.955   0.850  10.973 -0.0593 -0.7562  0.2565
  287MOL0     C38624   7.052   0.732  10.966  0.3587 -0.4781 -1.2623
  287MOL0     C38625   7.146   0.745  10.851 -0.0224 -0.5139  0.7090
  287MOL0     C38626   7.077   0.749  10.715  0.3719  0.4734 -0.1792
  287MOL0     N38627   7.175   0.739  10.605 -0.2578  0.6368  0.0907
  287MOL0     C38628   7.185   0.624  10.538 -0.6164  0.1482  0.3037
  287MOL0     C38629   7.303   0.628  10.470  0.4099  0.4499 -0.2024
  287MOL0     C38630   7.344   0.506  10.400  0.5280 -0.3957  0.6297
  287MOL0     C38631   7.494   0.488  10.417 -0.1001  1.0755  0.0004
  287MOL0     C38632   7.518   0.348  10.361 -1.0266  0.1975 -0.6274
  287MOL0     C38633   7.671   0.305  10.362  0.0853  0.5778 -1.2573
  287MOL0     O38634   7.734   0.319  10.488 -0.1694  0.3103  0.0224
  287MOL0     C38635   7.870   0.333  10.483 -0.8339 -0.0638 -0.5823
  287MOL0     C38636   7.958   0.266  10.396  0.2147  0.3214 -0.6614
  287MOL0     C38637   8.092   0.291  10.394 -0.5886  0.1832 -0.0431
  287MOL0     C38638   8.145   0.385  10.492  0.6034  1.2738 -0.2236
  287MOL0     C38639   8.296   0.397  10.504  0.4038  0.5849 -0.2462
  287MOL0     O38640   8.378   0.298  10.456 -0.2197 -0.0296 -0.4466
  287MOL0     C38641   8.515   0.313  10.447  0.5860  0.3440  0.1088
  287MOL0     C38642   8.602   0.419  10.474 -0.4423  0.6211 -0.3374
  287MOL0     C38643   8.741   0.413  10.452  0.1815  0.9510 -0.1094
  287MOL0     C38644   8.794   0.300  10.388  0.2382  0.5501 -0.1322
  287MOL0     O38645   8.930   0.291  10.373 -0.2423  0.2021 -0.6880
  287MOL0     C38646   8.968   0.174  10.307 -0.3698  0.1844  0.5539
  287MOL0     C38647   9.106   0.196  10.245 -1.0573  0.3068 -0.4158
  287MOL0     C38648   9.205   0.234  10.350  0.1321  0.1760  0.5742
  287MOL0     C38649   9.344   0.182  10.323  0.6114  0.9058 -0.0440
  287MOL0     C38650   9.454   0.268  10.394 -0.2292  0.2736 -0.2455
  287MOL0     C38651   9.591   0.206  10.371 -0.4669 -0.1035 -0.2136
  287MOL0     C38652   9.713   0.268  10.449  1.0589  0.3085 -0.0919
  287MOL0     C38653   9.726   0.416  10.408 -0.5756 -0.4658  0.9757
  287MOL0    Cl38654   9.797   0.432  10.244 -0.6098 -0.5734  0.2188
  287MOL0     C38655   8.704   0.191  10.362 -0.4251 -0.5951  0.4107
  287MOL0     C38656   8.572   0.200  10.395 -0.0594  0.6792 -0.1633
  287MOL0     O38657   8.333   0.504  10.555 -0.1507  0.5636  0.4998
  287MOL0     C38658   8.062   0.458  10.574  0.7869 -0.3882  0.2799
  287MOL0     C38659   7.925   0.427  10.570  0.0469  0.6950 -0.0292
  287MOL0     N38660   7.357   0.758  10.496  0.0524  0.3367  1.1920
  287MOL0     N38661   7.281   0.818  10.579 -0.2437  0.4351 -0.5736
  287MOL0     C38662   6.636   1.443  11.199 -0.2286  0.7213 -0.8237
  287MOL0     C38663   6.510   1.487  11.239  0.9175  0.3383  0.3935
  287MOL0     C38664   6.030   1.527  11.198  0.2972  0.3115  0.3730
  287MOL0     C38665   6.025   1.660  11.164  0.4111 -0.0148 -0.2171
  287MOL0     C38666   5.913   1.728  11.173 -0.0190 -0.0867  0.0306
  287MOL0     C38667   5.791   1.670  11.220 -0.5333 -0.3552 -0.1598
  287MOL0     O38668   5.669   1.743  11.229 -0.0293  0.3529  0.2543
  287MOL0     C38669   5.552   1.670  11.272 -0.6936 -1.4749  0.8334
  287MOL0     C38670   5.568   1.684  11.419 -0.7077 -0.0203  0.2065
  287MOL0     C38671   5.478   1.582  11.495  0.0143 -0.3614 -0.2614
  287MOL0     C38672   5.506   1.572  11.650 -0.0223 -0.2660  0.0491
  287MOL0     C38673   5.648   1.561  11.682  0.4090  0.4240 -0.5212
  287MOL0     C38674   5.776   1.574  11.695 -0.3352  0.5518 -0.7720
  287MOL0     C38675   5.792   1.534  11.255  0.2118 -0.8323 -0.1202
  287MOL0     C38676   5.911   1.456  11.250  0.0103 -0.0120  0.3043
  287MOL0     C38677   5.912   1.308  11.284 -1.2365 -0.7202 -0.3114
  287MOL0     H38678   6.348   1.416  10.942  0.4351 -2.2134  0.5772
  287MOL0     H38679   6.583   1.370  10.875 -2.9432 -0.8929  0.0376
  287MOL0     H38680   6.943   1.440  11.115 -0.5219  0.2276 -0.8614
  287MOL0     H38681   6.866   1.332  11.228  0.3611  4.7758  0.3258
  287MOL0     H38682   7.079   1.236  11.140  0.1580  1.7294 -0.3451
  287MOL0     H38683   7.023   1.278  10.976  0.1940 -0.7042  0.3626
  287MOL0     H38684   6.876   1.093  10.945 -1.5985  0.1846  0.5851
  287MOL0     H38685   6.855   1.083  11.109 -0.1800  0.4756  0.8136
  287MOL0     H38686   7.122   1.009  10.974  0.9764 -1.3444  0.6294
  287MOL0     H38687   7.060   0.954  11.128 -1.0343  1.0048 -0.7485
  287MOL0     H38688   6.881   0.836  11.052 -0.9526 -0.7650 -0.5700
  287MOL0     H38689   6.901   0.862  10.879  1.0324 -2.2456 -0.6095
  287MOL0     H38690   7.109   0.725  11.059 -0.1988  0.8827 -0.7863
  287MOL0     H38691   6.994   0.640  10.955 -1.3016  0.3610 -0.0757
  287MOL0     H38692   7.199   0.650  10.851  1.5758  0.1889 -3.4480
  287MOL0     H38693   7.216   0.827  10.871 -0.2773 -0.8785  3.6379
  287MOL0     H38694   7.011   0.661  10.724 -0.2190  0.9266 -0.0275
  287MOL0     H38695   7.019   0.841  10.714  3.4063  2.5314 -0.4129
  287MOL0     H38696   7.105   0.550  10.543  0.2120 -0.8582 -0.8126
  287MOL0     H38697   7.291   0.418  10.438 -3.2453  0.2750 -2.5029
  287MOL0     H38698   7.327   0.506  10.292  0.8911 -0.6942  0.5695
  287MOL0     H38699   7.551   0.556  10.354  1.3309  1.2691  1.4597
  287MOL0     H38700   7.530   0.484  10.520 -0.6427 -1.1858  0.1690
  287MOL0     H38701   7.478   0.339  10.260 -0.2767 -2.1715 -0.7735
  287MOL0     H38702   7.472   0.275  10.429  1.0467 -0.2886  0.3391
  287MOL0     H38703   7.725   0.376  10.298  1.3523 -0.3386 -1.2408
  287MOL0     H38704   7.687   0.208  10.314  2.4155  0.4103 -0.2965
  287MOL0     H38705   7.927   0.175  10.345  0.0820 -1.8527  2.9195
  287MOL0     H38706   8.168   0.239  10.338  1.9613  0.2737  3.0200
  287MOL0     H38707   8.553   0.501  10.525 -2.1653 -2.1897  2.8829
  287MOL0     H38708   8.813   0.487  10.483 -0.5648  1.7410 -0.2082
  287MOL0     H38709   8.963   0.086  10.371  0.1963 -1.0094 -0.9903
  287MOL0     H38710   8.898   0.146  10.227  1.2071 -1.0690 -0.4337
  287MOL0     H38711   9.140   0.106  10.192  0.2023  1.3307 -1.4082
  287MOL0     H38712   9.095   0.269  10.164 -2.0188  3.3984  2.2878
  287MOL0     H38713   9.216   0.343  10.356  3.5718 -0.0032 -0.5098
  287MOL0     H38714   9.175   0.187  10.444  0.3079 -1.9291 -0.3707
  287MOL0     H38715   9.373   0.192  10.218  2.1134 -1.9388  0.0066
  287MOL0     H38716   9.349   0.078  10.357 -4.8717  0.0359 -0.9061
  287MOL0     H38717   9.445   0.261  10.503  1.8113 -0.5880 -0.0691
  287MOL0     H38718   9.448   0.376  10.379  1.8358  0.9428  2.8664
  287MOL0     H38719   9.590   0.099  10.392 -0.0886 -0.2589 -0.9416
  287MOL0     H38720   9.614   0.227  10.266  3.2284  1.4912  0.7629
  287MOL0     H38721   9.803   0.209  10.426 -1.5728 -2.8192 -3.5532
  287MOL0     H38722   9.697   0.275  10.557  1.6808  1.3191 -0.0512
  287MOL0     H38723   9.633   0.473  10.418 -0.9500 -0.9750  0.4788
  287MOL0     H38724   9.808   0.461  10.464  1.9179 -2.1495 -1.0789
  287MOL0     H38725   8.731   0.095  10.319  1.6172  0.2671 -0.3633
  287MOL0     H38726   8.507   0.116  10.378 -0.6331  1.4011 -1.6961
  287MOL0     H38727   8.103   0.530  10.644 -0.5557  1.7621 -1.0478
  287MOL0     H38728   7.854   0.470  10.639 -3.0884 -4.8707  0.8326
  287MOL0     H38729   6.718   1.451  11.270 -0.1600  0.0971 -0.8266
  287MOL0     H38730   6.511   1.519  11.342  2.2018  0.2951  0.4153
  287MOL0     H38731   6.112   1.713  11.127  1.3353 -0.5235  1.1128
  287MOL0     H38732   5.912   1.828  11.132 -2.0056 -1.3908 -3.5547
  287MOL0     H38733   5.543   1.573  11.223  1.8472 -0.2991 -2.3212
  287MOL0     H38734   5.456   1.713  11.241 -1.3275 -2.3547  1.5201
  287MOL0     H38735   5.545   1.788  11.447 -0.4256  0.6830 -2.0340
  287MOL0     H38736   5.674   1.670  11.444 -0.9343 -1.4506  0.4488
  287MOL0     H38737   5.490   1.477  11.465 -3.9308 -0.5251 -1.8391
  287MOL0     H38738   5.374   1.615  11.488 -0.0572  0.7177  3.4294
  287MOL0     H38739   5.467   1.664  11.696  2.4852  0.7909  0.2660
  287MOL0     H38740   5.441   1.499  11.699  0.4361  0.7540  2.3640
  287MOL0     H38741   5.879   1.601  11.706 -0.5564  0.9053  0.5513
  287MOL0     H38742   5.706   1.475  11.285 -2.8705  1.9166 -2.8612
  287MOL0     H38743   6.000   1.252  11.318 -2.0402 -2.9644 -1.7330
  287MOL0     H38744   5.846   1.300  11.370 -0.8303  0.0388  0.0882
  287MOL0     H38745   5.868   1.249  11.203  0.2722 -0.9496 -0.9955
  288MOL0     O38746   2.717  11.324   4.628 -0.3854  0.4174  0.3431
  288MOL0     C38747   2.794  11.248   4.581 -0.4086  0.6494 -0.2962
  288MOL0     O38748   2.880  11.269   4.473  0.7665  0.0610 -0.0545
  288MOL0     C38749   2.930  11.396   4.455  0.7702 -1.8167  0.3790
  288MOL0     C38750   2.998  11.466   4.553 -0.0561 -0.5170 -0.1824
  288MOL0     C38751   3.035  11.598   4.522 -0.0915  0.3604  0.1226
  288MOL0     C38752   3.011  11.662   4.393 -0.1802 -0.3795 -0.1179
  288MOL0     O38753   3.048  11.794   4.385  0.1873 -0.5814  0.2183
  288MOL0     C38754   3.174  11.809   4.314 -0.3297 -0.2063 -0.4539
  288MOL0     C38755   3.215  11.948   4.328  0.6079 -0.6373 -0.1409
  288MOL0     C38756   3.313  11.987   4.217 -0.5470  0.8148 -0.4120
  288MOL0     C38757   3.342  12.134   4.229 -0.1217 -0.3714  0.6073
  288MOL0     C38758   3.454  12.178   4.131  0.2145 -0.5914 -0.3998
  288MOL0     C38759   3.496  12.330   4.137 -0.1918 -0.2162  0.1867
  288MOL0     C38760   3.609  12.353   4.031 -0.5823 -0.2215  0.7549
  288MOL0     C38761   3.644  12.499   4.004 -0.6214 -0.0235  0.7158
  288MOL0     N38762   3.770  12.512   3.928  0.5653  0.0122 -0.3665
  288MOL0     C38763   3.811  12.410   3.842  0.3671 -1.2887 -0.3369
  288MOL0     C38764   3.934  12.442   3.815 -0.3665 -0.4699  0.3933
  288MOL0     C38765   4.022  12.370   3.715  1.1989 -0.4516  0.3613
  288MOL0     C38766   4.134  12.309   3.795  0.4352 -0.8421 -0.3450
  288MOL0     C38767   4.255  12.409   3.804 -0.1828 -0.3012  0.4093
  288MOL0     C38768   4.368  12.319   3.857  0.0799  0.3293  0.1668
  288MOL0     O38769   4.477  12.408   3.885  0.3802 -0.2814  0.7570
  288MOL0     C38770   4.605  12.360   3.891  0.3220 -0.0135  0.1354
  288MOL0     C38771   4.705  12.450   3.910  0.0588 -0.7320 -0.1674
  288MOL0     C38772   4.843  12.418   3.936 -0.0114 -0.0212  0.5304
  288MOL0     C38773   4.875  12.280   3.926 -0.4965  0.5578  0.8575
  288MOL0     C38774   5.018  12.228   3.921 -0.4635  0.7398 -0.1385
  288MOL0     O38775   5.117  12.320   3.947  0.4407 -0.2704 -0.4421
  288MOL0     C38776   5.252  12.291   3.912 -0.0874 -0.3457  0.0357
  288MOL0     C38777   5.347  12.317   4.015 -0.1002  0.1156  0.0185
  288MOL0     C38778   5.480  12.308   3.988 -0.7727 -0.3041 -0.0963
  288MOL0     C38779   5.527  12.268   3.867  0.2866 -0.1766  0.9956
  288MOL0     O38780   5.659  12.281   3.819  0.0766 -0.2755 -0.3063
  288MOL0     C38781   5.713  12.420   3.820  0.2672 -0.5691 -0.2137
  288MOL0     C38782   5.838  12.417   3.746 -0.0472  0.8785  0.6127
  288MOL0     C38783   5.800  12.423   3.597 -0.1360  0.7241  0.6634
  288MOL0     C38784   5.927  12.400   3.512 -0.1790  1.0042  0.4333
  288MOL0     C38785   6.044  12.495   3.543  0.4387  0.0417 -0.2930
  288MOL0     C38786   6.173  12.476   3.462 -0.1007  0.3978 -0.2782
  288MOL0     C38787   6.261  12.357   3.517  0.6615  0.7454 -1.3098
  288MOL0     C38788   6.410  12.358   3.525  0.6492  0.0063  0.4467
  288MOL0    Cl38789   6.457  12.441   3.373  0.2343  0.2172  0.1811
  288MOL0     C38790   5.438  12.240   3.765  0.5313 -0.2173 -0.3093
  288MOL0     C38791   5.302  12.246   3.790 -0.0836  0.1620  0.8738
  288MOL0     O38792   5.046  12.112   3.894  0.3634  0.1440  0.3564
  288MOL0     C38793   4.769  12.190   3.916 -0.2184  0.3365  0.2194
  288MOL0     C38794   4.632  12.225   3.901 -0.3650 -0.3211 -0.1723
  288MOL0     N38795   3.968  12.560   3.877  0.3259 -0.4541  0.1338
  288MOL0     N38796   3.865  12.607   3.951 -0.8158 -0.6875  0.0095
  288MOL0     C38797   2.935  11.596   4.302  0.3125 -0.0097  0.4401
  288MOL0     C38798   2.895  11.464   4.325 -0.1350  0.2513 -0.4099
  288MOL0     C38799   2.803  11.112   4.639  0.8203 -0.4024  0.6461
  288MOL0     C38800   2.927  11.045   4.647 -0.5991  0.1834  0.0446
  288MOL0     C38801   2.941  10.910   4.688  0.4244  0.0635  0.7316
  288MOL0     C38802   2.823  10.845   4.710 -0.7409 -0.1075  0.2714
  288MOL0     O38803   2.839  10.713   4.753  0.2796 -0.2012 -0.1964
  288MOL0     C38804   2.744  10.649   4.838 -0.4151 -0.8401  0.9025
  288MOL0     C38805   2.754  10.706   4.985  0.3955 -0.1487 -0.4965
  288MOL0     C38806   2.892  10.683   5.034 -1.2674 -0.0040 -1.2608
  288MOL0     C38807   2.903  10.727   5.184  0.4162 -0.8493  0.3309
  288MOL0     C38808   3.034  10.701   5.240 -0.3811 -0.1121 -0.3343
  288MOL0     C38809   3.138  10.673   5.295 -0.8831  1.0005  1.7584
  288MOL0     C38810   2.700  10.907   4.711 -0.0210 -0.1215  0.4816
  288MOL0     C38811   2.692  11.038   4.666  0.2611 -0.5489 -0.9561
  288MOL0     C38812   2.549  11.090   4.665 -0.4484 -0.2347 -0.5809
  288MOL0     H38813   3.015  11.423   4.651 -0.0987  1.9398  0.9729
  288MOL0     H38814   3.078  11.662   4.598 -0.2836  2.1300 -1.1985
  288MOL0     H38815   3.252  11.737   4.340 -1.2161 -1.4578 -1.1718
  288MOL0     H38816   3.149  11.790   4.209 -2.3201  0.1736 -0.0786
  288MOL0     H38817   3.242  11.970   4.432  0.2323  1.3691 -0.4242
  288MOL0     H38818   3.128  12.008   4.301  2.2211  1.3281 -1.3202
  288MOL0     H38819   3.272  11.959   4.120  0.3995 -0.3614 -0.4918
  288MOL0     H38820   3.405  11.933   4.237 -1.7334 -0.4171  2.2530
  288MOL0     H38821   3.249  12.186   4.203  0.0895 -0.9682 -1.6031
  288MOL0     H38822   3.366  12.147   4.335 -3.6187 -1.1395  1.6293
  288MOL0     H38823   3.539  12.108   4.137  0.3787 -0.3808 -0.2430
  288MOL0     H38824   3.422  12.154   4.030  2.9083  2.5270 -2.1756
  288MOL0     H38825   3.413  12.389   4.098 -1.4261 -2.0726 -0.0595
  288MOL0     H38826   3.516  12.368   4.238  1.1416 -2.5574  0.8754
  288MOL0     H38827   3.586  12.309   3.933 -0.9960 -0.2302  0.8535
  288MOL0     H38828   3.703  12.318   4.075 -0.4737 -0.5113  0.3016
  288MOL0     H38829   3.564  12.548   3.948  0.1354  1.3698  0.8066
  288MOL0     H38830   3.658  12.546   4.102 -0.6643  0.6055  0.4227
  288MOL0     H38831   3.774  12.315   3.804 -1.5788 -0.8427  0.3367
  288MOL0     H38832   3.962  12.292   3.666  0.4204 -0.3518  1.1266
  288MOL0     H38833   4.061  12.433   3.635 -0.1236 -1.4236 -1.1240
  288MOL0     H38834   4.108  12.290   3.900 -0.8497  2.1190 -0.0190
  288MOL0     H38835   4.166  12.214   3.752  1.5502 -0.5710 -0.1562
  288MOL0     H38836   4.240  12.485   3.881  0.8520 -1.5164  1.8563
  288MOL0     H38837   4.280  12.462   3.712  0.4904  0.6696  1.1326
  288MOL0     H38838   4.395  12.239   3.787  0.7131  0.3860  0.3362
  288MOL0     H38839   4.324  12.274   3.947 -4.5353 -0.9246 -2.4018
  288MOL0     H38840   4.672  12.551   3.929 -0.9382 -1.0143 -0.3588
  288MOL0     H38841   4.916  12.491   3.967  0.5636  0.0296 -0.8738
  288MOL0     H38842   5.304  12.348   4.109 -0.3540 -1.1154  0.3160
  288MOL0     H38843   5.556  12.319   4.066 -1.9917 -1.8221  1.3940
  288MOL0     H38844   5.656  12.498   3.769 -0.5646 -1.0460 -0.0259
  288MOL0     H38845   5.728  12.463   3.920  0.6926  1.9712 -1.3001
  288MOL0     H38846   5.890  12.510   3.772 -0.4282  1.8354 -1.7299
  288MOL0     H38847   5.902  12.331   3.766 -0.4242 -0.0513 -1.8486
  288MOL0     H38848   5.729  12.346   3.564 -0.4232  2.3005 -2.9500
  288MOL0     H38849   5.759  12.522   3.573 -0.5029  0.1604 -1.2585
  288MOL0     H38850   5.898  12.416   3.408  0.9234  0.8071  0.0813
  288MOL0     H38851   5.967  12.300   3.528  0.7604  0.7818 -2.6198
  288MOL0     H38852   6.068  12.501   3.650 -0.8772 -1.8261  0.1743
  288MOL0     H38853   6.016  12.594   3.506 -0.5392 -1.1697 -3.0886
  288MOL0     H38854   6.146  12.455   3.358 -1.3338  1.2538 -0.1449
  288MOL0     H38855   6.229  12.570   3.460 -1.0797  1.0579  1.1905
  288MOL0     H38856   6.224  12.265   3.470  0.2281 -1.1665  2.4194
  288MOL0     H38857   6.231  12.354   3.622  2.9328 -0.6103 -0.6398
  288MOL0     H38858   6.445  12.410   3.614  0.1364  0.7717  0.2085
  288MOL0     H38859   6.460  12.260   3.518  1.8296  0.6268 -0.1649
  288MOL0     H38860   5.472  12.210   3.667  1.1656 -1.0908  0.1584
  288MOL0     H38861   5.241  12.225   3.702  1.9760 -1.3152 -0.2751
  288MOL0     H38862   4.796  12.086   3.903 -1.1458  0.2621 -1.3596
  288MOL0     H38863   4.559  12.146   3.884  0.1341 -0.5656 -1.3052
  288MOL0     H38864   2.939  11.658   4.213  1.5851  0.0253  0.5050
  288MOL0     H38865   2.841  11.407   4.250  0.4571 -1.6246  0.5233
  288MOL0     H38866   3.016  11.098   4.615 -0.4162  0.1642  0.5274
  288MOL0     H38867   3.035  10.857   4.688  0.1375 -0.4599  1.0172
  288MOL0     H38868   2.754  10.540   4.840 -1.2450 -1.0197 -1.7334
  288MOL0     H38869   2.651  10.678   4.788  0.8162 -0.4264 -1.2371
  288MOL0     H38870   2.673  10.670   5.049  0.3695  0.0187 -0.4366
  288MOL0     H38871   2.736  10.813   4.991 -2.7944 -0.3576 -3.3073
  288MOL0     H38872   2.959  10.741   4.971  1.3303  0.5632  1.7512
  288MOL0     H38873   2.927  10.580   5.029 -0.9076  0.0529 -0.2271
  288MOL0     H38874   2.872  10.831   5.186  1.0242 -0.4711 -3.1555
  288MOL0     H38875   2.835  10.670   5.247 -2.5855  1.0649 -0.9569
  288MOL0     H38876   3.235  10.653   5.336 -0.4799  3.7050  2.3547
  288MOL0     H38877   2.606  10.853   4.719 -0.3290  0.4880  1.1188
  288MOL0     H38878   2.535  11.176   4.731 -2.0101  0.7661 -2.0947
  288MOL0     H38879   2.533  11.116   4.560  4.1478  1.3118 -1.1315
  288MOL0     H38880   2.472  11.018   4.692 -1.6722  1.0196 -0.5886
  289MOL0     O38881   3.501   7.862   3.952  0.9684 -0.3283  0.1011
  289MOL0     C38882   3.502   7.773   3.865 -0.8636 -0.2086 -0.1680
  289MOL0     O38883   3.394   7.705   3.808 -0.1171 -0.1158  0.1848
  289MOL0     C38884   3.277   7.766   3.818 -0.0549 -0.0674 -0.2010
  289MOL0     C38885   3.238   7.881   3.749  0.1043  0.1115 -0.7122
  289MOL0     C38886   3.121   7.955   3.770  0.2040 -0.0401 -0.3548
  289MOL0     C38887   3.025   7.890   3.850  1.2096  0.4525  0.1457
  289MOL0     O38888   2.906   7.948   3.868  0.0005 -0.1350  0.0539
  289MOL0     C38889   2.895   8.087   3.880  0.8392  0.5131 -0.5541
  289MOL0     C38890   2.746   8.123   3.910  1.0022 -0.5947  0.2821
  289MOL0     C38891   2.723   8.273   3.927 -0.4468 -0.5880 -0.2995
  289MOL0     C38892   2.567   8.313   3.916 -0.5791  0.9694  0.0642
  289MOL0     C38893   2.534   8.461   3.926  0.1471  0.3405 -0.3370
  289MOL0     C38894   2.515   8.494   4.076 -0.6937  0.5558  0.7751
  289MOL0     C38895   2.451   8.633   4.108  0.2898 -0.0274  0.3363
  289MOL0     C38896   2.429   8.657   4.257  0.3204  0.0583  0.6565
  289MOL0     N38897   2.449   8.797   4.289 -0.1441 -0.4336 -0.1214
  289MOL0     C38898   2.561   8.877   4.265  0.7752  0.0086 -0.0705
  289MOL0     C38899   2.513   8.999   4.305  0.5615  0.6255 -0.1134
  289MOL0     C38900   2.596   9.123   4.321 -0.2708 -0.2647  0.1501
  289MOL0     C38901   2.699   9.118   4.210  0.0028 -0.4662  0.8003
  289MOL0     C38902   2.638   9.118   4.062 -0.5088 -0.0063 -0.5154
  289MOL0     C38903   2.738   9.050   3.960 -0.3686 -0.3675  1.0430
  289MOL0     O38904   2.762   8.925   4.011 -0.2902  0.1517 -0.3972
  289MOL0     C38905   2.829   8.838   3.930 -0.2651 -0.7862 -0.3753
  289MOL0     C38906   2.864   8.722   3.994  0.8356 -0.5430 -0.7171
  289MOL0     C38907   2.927   8.618   3.926  0.4095  0.5142  0.0431
  289MOL0     C38908   2.975   8.633   3.794  0.5858 -0.9142  0.4031
  289MOL0     C38909   3.036   8.527   3.717  0.5120  1.0727  0.1842
  289MOL0     O38910   3.073   8.553   3.589 -0.1059  0.1031  1.0497
  289MOL0     C38911   3.103   8.460   3.485 -0.2558  0.2800  0.3737
  289MOL0     C38912   3.099   8.323   3.503 -0.5053 -0.0138  0.3687
  289MOL0     C38913   3.121   8.237   3.393  0.2074  0.3316 -0.1369
  289MOL0     C38914   3.150   8.288   3.264  0.7169 -0.0526 -0.2927
  289MOL0     O38915   3.167   8.188   3.165  0.5989 -0.2509 -0.7545
  289MOL0     C38916   3.255   8.221   3.058 -0.4999 -0.6181  0.5290
  289MOL0     C38917   3.284   8.101   2.957  0.3928  0.1636 -1.1700
  289MOL0     C38918   3.352   8.155   2.838 -0.4555  0.2383  0.0139
  289MOL0     C38919   3.416   8.039   2.760 -0.4722  0.0921 -0.4581
  289MOL0     C38920   3.506   8.086   2.647  0.3860  0.4009  0.0024
  289MOL0     C38921   3.619   8.193   2.679 -0.1338  0.0815  1.1535
  289MOL0     C38922   3.744   8.114   2.718  0.4676  0.4891  0.0887
  289MOL0     C38923   3.844   8.203   2.784  0.4324  0.3963  0.7737
  289MOL0    Cl38924   3.812   8.216   2.965  0.5150 -0.0779  0.3823
  289MOL0     C38925   3.161   8.429   3.243 -0.9334  0.2104 -0.7852
  289MOL0     C38926   3.138   8.506   3.353 -0.7223 -0.3162 -0.8421
  289MOL0     O38927   3.050   8.423   3.780 -0.9477  0.0582 -0.0240
  289MOL0     C38928   2.951   8.765   3.738  0.4343 -0.4102 -0.5806
  289MOL0     C38929   2.874   8.862   3.801  1.1699  0.3522 -0.5693
  289MOL0     N38930   2.374   8.992   4.333 -0.4821 -0.0370  0.0379
  289MOL0     N38931   2.338   8.873   4.324  0.2747  0.1086 -0.5031
  289MOL0     C38932   3.053   7.766   3.924 -0.6963  0.5573  0.1684
  289MOL0     C38933   3.182   7.713   3.907 -0.2284 -0.5546 -0.0938
  289MOL0     C38934   3.634   7.708   3.845 -0.6274 -0.4439 -1.3237
  289MOL0     C38935   3.642   7.567   3.848 -0.3912  0.6337 -0.0640
  289MOL0     C38936   3.767   7.503   3.825 -0.3067  0.7703  0.5055
  289MOL0     C38937   3.880   7.583   3.796 -0.3912  0.2315  0.4185
  289MOL0     O38938   3.995   7.513   3.766 -0.3081 -0.2370 -0.3309
  289MOL0     C38939   4.111   7.588   3.771 -0.7561 -0.2041 -0.5112
  289MOL0     C38940   4.236   7.505   3.747  0.4478  0.2461 -0.6213
  289MOL0     C38941   4.356   7.601   3.740 -0.2417 -0.3322 -0.4511
  289MOL0     C38942   4.482   7.541   3.675  0.5606 -0.1173 -0.1642
  289MOL0     C38943   4.528   7.411   3.731 -0.7368 -0.6770  0.4878
  289MOL0     C38944   4.561   7.308   3.780  0.2558 -0.3894 -0.5694
  289MOL0     C38945   3.865   7.725   3.802 -0.2413 -0.1692 -0.6863
  289MOL0     C38946   3.748   7.788   3.819  0.0129 -0.9338  0.5064
  289MOL0     C38947   3.750   7.947   3.812  0.0022 -0.0455 -0.0796
  289MOL0     H38948   3.306   7.929   3.680  1.7049 -1.7997 -0.5403
  289MOL0     H38949   3.104   8.055   3.734  1.0574 -1.1028 -4.1765
  289MOL0     H38950   2.955   8.114   3.967  0.6114  2.6793 -1.0329
  289MOL0     H38951   2.928   8.142   3.792 -2.7768 -0.6870 -2.8992
  289MOL0     H38952   2.708   8.075   4.001 -1.2307  2.7045  1.2595
  289MOL0     H38953   2.683   8.086   3.828  0.9665  0.8139 -0.3542
  289MOL0     H38954   2.781   8.335   3.858  0.4273  0.0775  0.9670
  289MOL0     H38955   2.751   8.302   4.029 -0.1613 -0.3019 -0.4535
  289MOL0     H38956   2.532   8.285   3.816  0.1756 -1.9496  0.5374
  289MOL0     H38957   2.506   8.255   3.985 -0.6197 -2.1748 -2.3654
  289MOL0     H38958   2.614   8.527   3.891 -1.3899  0.7912 -3.3298
  289MOL0     H38959   2.440   8.487   3.877 -0.1090 -0.0467 -0.0490
  289MOL0     H38960   2.461   8.411   4.122  2.3875 -0.8299  2.1420
  289MOL0     H38961   2.610   8.492   4.129  0.1433 -0.0549 -0.6746
  289MOL0     H38962   2.354   8.648   4.061  0.0110 -1.3977  0.4483
  289MOL0     H38963   2.528   8.706   4.079 -1.9105  1.4332 -2.1864
  289MOL0     H38964   2.323   8.644   4.280  0.2742 -1.6311 -0.3977
  289MOL0     H38965   2.487   8.587   4.319  1.0886 -1.0722 -1.2756
  289MOL0     H38966   2.659   8.841   4.235  1.2179  0.7493  0.4822
  289MOL0     H38967   2.527   9.205   4.300 -0.7932 -1.0264 -1.2345
  289MOL0     H38968   2.635   9.130   4.423 -3.8783  0.2744  1.6283
  289MOL0     H38969   2.744   9.217   4.220 -0.7386  0.0477 -0.5956
  289MOL0     H38970   2.772   9.039   4.227  2.8679  1.6845 -0.7720
  289MOL0     H38971   2.621   9.218   4.020 -1.3570 -0.6910 -1.8708
  289MOL0     H38972   2.538   9.074   4.059  0.0925 -1.4105 -0.6726
  289MOL0     H38973   2.826   9.115   3.955 -1.9763  1.9773  1.7451
  289MOL0     H38974   2.693   9.052   3.861  1.0399  1.6742  0.3673
  289MOL0     H38975   2.845   8.719   4.101  0.3653 -1.1255 -0.8066
  289MOL0     H38976   2.934   8.522   3.976  0.4920  0.6643  0.3218
  289MOL0     H38977   3.077   8.289   3.603  2.3899 -1.2776  0.6614
  289MOL0     H38978   3.115   8.129   3.394 -0.0507  0.3275  1.6902
  289MOL0     H38979   3.193   8.288   2.996  0.4542 -0.8809 -0.7625
  289MOL0     H38980   3.346   8.275   3.084  0.0199  0.1963 -2.5610
  289MOL0     H38981   3.345   8.021   2.999 -2.2126 -0.4137  1.9547
  289MOL0     H38982   3.188   8.063   2.921  1.0485 -1.0563 -1.6857
  289MOL0     H38983   3.285   8.215   2.775 -0.1408  0.3776 -0.1934
  289MOL0     H38984   3.418   8.238   2.863  0.2091 -1.1341  3.3207
  289MOL0     H38985   3.340   7.969   2.725  1.1049 -1.3134 -1.2189
  289MOL0     H38986   3.474   7.975   2.827 -0.4866 -0.9509 -1.4258
  289MOL0     H38987   3.440   8.114   2.564  0.4215 -1.4717 -0.7091
  289MOL0     H38988   3.557   8.004   2.596 -0.6430 -0.2604  0.0030
  289MOL0     H38989   3.635   8.235   2.579 -0.3986 -1.3834  0.4827
  289MOL0     H38990   3.600   8.272   2.753  1.4836  1.0905  0.5580
  289MOL0     H38991   3.780   8.050   2.637  0.1320 -0.1080  0.4052
  289MOL0     H38992   3.702   8.039   2.786 -0.0214 -0.9888 -1.7676
  289MOL0     H38993   3.946   8.165   2.770  0.5390 -1.3161  4.8524
  289MOL0     H38994   3.834   8.306   2.747  1.4673  0.7911  1.5333
  289MOL0     H38995   3.204   8.489   3.164  1.7050  1.7316  1.6218
  289MOL0     H38996   3.142   8.613   3.336  3.4694 -0.6109 -3.0195
  289MOL0     H38997   2.982   8.785   3.636  0.8445  0.2022 -0.3438
  289MOL0     H38998   2.845   8.950   3.744 -2.4328 -0.7711 -0.7584
  289MOL0     H38999   2.985   7.721   3.995  0.8126 -0.8744  0.7841
  289MOL0     H39000   3.214   7.616   3.944 -2.0839 -0.4231  2.0693
  289MOL0     H39001   3.556   7.503   3.865  0.0706 -0.3474 -1.2744
  289MOL0     H39002   3.771   7.395   3.814 -0.7774  0.6680  1.3041
  289MOL0     H39003   4.117   7.644   3.865  3.9321  0.5062 -0.9822
  289MOL0     H39004   4.107   7.665   3.693 -0.8365  0.6723  0.3347
  289MOL0     H39005   4.221   7.437   3.663  2.1715 -1.1949  0.1590
  289MOL0     H39006   4.239   7.443   3.837 -2.0617  1.8464  0.6841
  289MOL0     H39007   4.383   7.630   3.842  1.7921 -0.0728 -1.0154
  289MOL0     H39008   4.324   7.694   3.692 -1.2918 -1.7248 -2.5839
  289MOL0     H39009   4.455   7.519   3.571 -3.5595  0.4183  0.6188
  289MOL0     H39010   4.559   7.619   3.678 -0.8528  1.3147  0.3742
  289MOL0     H39011   4.604   7.219   3.822 -0.7860 -0.8304 -0.4140
  289MOL0     H39012   3.946   7.793   3.777  2.9511 -2.5879  2.2440
  289MOL0     H39013   3.653   7.965   3.764 -1.7777 -2.7356  2.1657
  289MOL0     H39014   3.756   7.985   3.914 -0.1848 -0.4067  0.0701
  289MOL0     H39015   3.826   7.996   3.751 -3.2010  1.5464 -3.2342
  290MOL0     O39016   1.978   6.419  10.646  0.6801  0.3102  0.1910
  290MOL0     C39017   1.934   6.362  10.748  0.3950 -0.0491 -0.0203
  290MOL0     O39018   1.802   6.345  10.775 -0.0320  0.8174  1.1911
  290MOL0     C39019   1.710   6.408  10.690  0.1041  0.1334 -1.1525
  290MOL0     C39020   1.721   6.435  10.555  0.3196  1.2374  0.4224
  290MOL0     C39021   1.617   6.499  10.497  0.1032 -0.3276  0.1573
  290MOL0     C39022   1.497   6.541  10.561  0.3634 -1.4392  0.7792
  290MOL0     O39023   1.403   6.608  10.488 -0.5394  0.6039  0.0066
  290MOL0     C39024   1.273   6.638  10.529  0.2534  0.1621 -0.0643
  290MOL0     C39025   1.177   6.522  10.565 -0.3501 -0.1018 -0.7532
  290MOL0     C39026   1.124   6.431  10.453  0.3774 -0.7076 -0.6517
  290MOL0     C39027   1.229   6.349  10.380  0.6219  0.1679  0.5008
  290MOL0     C39028   1.167   6.253  10.273 -0.0736  0.5251 -0.2461
  290MOL0     C39029   1.275   6.158  10.237 -0.3417 -0.1008 -0.0784
  290MOL0     C39030   1.244   6.086  10.097 -0.5088  0.2725  0.2084
  290MOL0     C39031   1.278   6.178   9.977  0.4012 -0.8398  0.2210
  290MOL0     N39032   1.253   6.125   9.844  0.4580  0.3386  0.3671
  290MOL0     C39033   1.335   6.037   9.784  0.4416  0.5716 -0.1521
  290MOL0     C39034   1.298   6.026   9.651  0.3373 -0.6023  0.2353
  290MOL0     C39035   1.383   5.963   9.547 -0.1681  0.1121  0.2916
  290MOL0     C39036   1.522   6.032   9.532 -0.0344  0.1192  0.1247
  290MOL0     C39037   1.631   5.994   9.627  0.2868  0.0813 -0.6904
  290MOL0     C39038   1.661   5.841   9.618  0.4373  0.0630  0.7776
  290MOL0     O39039   1.798   5.811   9.653 -0.3188  0.0247  0.1198
  290MOL0     C39040   1.822   5.685   9.715 -0.3880  0.5907  0.2808
  290MOL0     C39041   1.762   5.563   9.671  0.2011  0.4362  0.3376
  290MOL0     C39042   1.797   5.440   9.730 -0.8081  0.3625  0.4256
  290MOL0     C39043   1.900   5.427   9.830 -0.0357 -0.3659 -0.2452
  290MOL0     C39044   1.946   5.296   9.899  0.0923 -0.6315  0.1453
  290MOL0     O39045   1.870   5.191   9.860 -0.5813  1.4374 -0.5746
  290MOL0     C39046   1.911   5.065   9.899 -0.4989  0.6555  0.6663
  290MOL0     C39047   2.041   5.014   9.872 -0.0703  1.0707  0.0123
  290MOL0     C39048   2.083   4.882   9.907  0.2012 -0.1860 -0.8477
  290MOL0     C39049   1.988   4.796   9.964  0.3938 -0.3540 -0.8265
  290MOL0     O39050   2.016   4.675  10.025  0.1838 -0.2456 -0.5840
  290MOL0     C39051   2.133   4.675  10.106 -0.0712 -0.7615 -0.2531
  290MOL0     C39052   2.140   4.557  10.206  0.4446  0.4339  0.0764
  290MOL0     C39053   1.998   4.531  10.271 -0.1313 -0.5105 -0.1614
  290MOL0     C39054   2.015   4.439  10.395  0.0347 -0.4432 -0.2629
  290MOL0     C39055   1.885   4.428  10.475 -0.6168  0.2634  0.7778
  290MOL0     C39056   1.906   4.340  10.590 -0.2778  0.3512 -0.3142
  290MOL0     C39057   1.773   4.307  10.658  0.2247 -0.3266 -0.7907
  290MOL0     C39058   1.727   4.417  10.750 -0.1368 -0.2713 -0.5618
  290MOL0    Cl39059   1.584   4.365  10.850  0.2550  0.5613 -0.4289
  290MOL0     C39060   1.856   4.843   9.982  0.7692  0.5817  0.9326
  290MOL0     C39061   1.813   4.970   9.944 -0.8091 -0.1004 -0.5635
  290MOL0     O39062   2.039   5.290   9.978  0.2251 -0.2502  0.2875
  290MOL0     C39063   1.967   5.548   9.862 -0.1661  0.4935 -0.3959
  290MOL0     C39064   1.928   5.670   9.809 -0.4073 -0.6425  0.6465
  290MOL0     N39065   1.185   6.105   9.636  0.2263 -0.3008  0.2999
  290MOL0     N39066   1.153   6.158   9.753 -0.1917  1.1857  0.4161
  290MOL0     C39067   1.492   6.527  10.703 -0.0838 -0.2390 -0.0115
  290MOL0     C39068   1.597   6.453  10.766  0.6613 -0.2889 -0.0992
  290MOL0     C39069   2.034   6.324  10.854  0.5351 -0.1593  0.1026
  290MOL0     C39070   1.968   6.256  10.961 -0.4930 -0.5976 -0.0768
  290MOL0     C39071   2.045   6.203  11.068 -0.5497 -0.1122  0.0267
  290MOL0     C39072   2.187   6.210  11.055  0.5293  0.6765  0.2388
  290MOL0     O39073   2.262   6.147  11.153 -0.5644  0.4821 -0.1269
  290MOL0     C39074   2.202   6.079  11.269  0.2537 -0.2165 -0.0808
  290MOL0     C39075   2.153   6.185  11.374 -0.0136 -0.6179 -0.2907
  290MOL0     C39076   2.260   6.293  11.417 -0.1246 -1.1046  0.3023
  290MOL0     C39077   2.389   6.227  11.464  0.4229  0.4343 -0.4642
  290MOL0     C39078   2.358   6.132  11.574 -0.1506 -0.4074  0.0032
  290MOL0     C39079   2.302   6.063  11.648  0.2128 -0.2027 -0.0198
  290MOL0     C39080   2.258   6.272  10.960  0.4764 -0.0154  0.7671
  290MOL0     C39081   2.179   6.331  10.858  0.2899 -0.5259 -0.6301
  290MOL0     C39082   2.248   6.398  10.744 -0.4012 -0.4006 -0.5935
  290MOL0     H39083   1.805   6.401  10.495  0.2211  1.9738 -0.1421
  290MOL0     H39084   1.625   6.516  10.390 -1.2937 -0.9689 -0.0631
  290MOL0     H39085   1.276   6.714  10.608 -0.6505  2.8842 -2.4618
  290MOL0     H39086   1.229   6.699  10.450 -0.1587  0.3185  0.2847
  290MOL0     H39087   1.095   6.577  10.612  1.3667  2.1363 -0.1979
  290MOL0     H39088   1.215   6.460  10.647  3.4559  1.0206 -1.4987
  290MOL0     H39089   1.054   6.472  10.379 -1.3480 -2.8189 -0.3059
  290MOL0     H39090   1.062   6.354  10.500  2.5447 -0.9629  2.0241
  290MOL0     H39091   1.301   6.421  10.339  0.9623  0.6078  1.8346
  290MOL0     H39092   1.263   6.285  10.461 -2.4297 -1.4459  0.6762
  290MOL0     H39093   1.078   6.200  10.307  0.0940 -0.1569 -0.8613
  290MOL0     H39094   1.151   6.318  10.186  2.9416  3.0860  0.8762
  290MOL0     H39095   1.370   6.212  10.233 -0.8709  0.7988 -1.7231
  290MOL0     H39096   1.286   6.085  10.318  1.9087  1.6681  1.3057
  290MOL0     H39097   1.139   6.056  10.087  0.0612 -1.4745 -1.0088
  290MOL0     H39098   1.304   5.995  10.090 -2.0362 -0.8643  1.1427
  290MOL0     H39099   1.220   6.270   9.984  1.1074 -0.0886 -2.4771
  290MOL0     H39100   1.384   6.207   9.981 -0.2010  1.6135 -0.1138
  290MOL0     H39101   1.426   6.000   9.830 -0.0190 -0.9080 -0.3991
  290MOL0     H39102   1.388   5.854   9.561 -2.0808 -0.0986 -0.3815
  290MOL0     H39103   1.343   5.979   9.446  2.4280 -0.2762 -0.8853
  290MOL0     H39104   1.544   6.012   9.426 -2.4850  0.7928 -0.5698
  290MOL0     H39105   1.506   6.140   9.541  3.2932  0.7539 -0.3141
  290MOL0     H39106   1.612   6.043   9.723  0.8786  1.6875 -1.3664
  290MOL0     H39107   1.718   6.053   9.596 -0.3390  0.8783 -0.9330
  290MOL0     H39108   1.657   5.811   9.513 -0.4115 -0.8700  1.0617
  290MOL0     H39109   1.586   5.788   9.678 -0.2802  0.9717  0.7045
  290MOL0     H39110   1.697   5.560   9.584  0.7235 -1.8604 -0.0514
  290MOL0     H39111   1.763   5.343   9.694  0.5327  0.4394 -1.1192
  290MOL0     H39112   2.111   5.088   9.834 -0.6000  1.1601 -0.8418
  290MOL0     H39113   2.186   4.853   9.885  1.0023  2.7118 -1.3385
  290MOL0     H39114   2.230   4.685  10.058  1.3049 -1.3569  2.1911
  290MOL0     H39115   2.128   4.765  10.168  1.8083 -0.1681 -0.9082
  290MOL0     H39116   2.179   4.469  10.154 -1.1518  0.4476 -1.2115
  290MOL0     H39117   2.204   4.578  10.292 -2.7736  0.0433  2.7999
  290MOL0     H39118   1.948   4.622  10.305 -1.0378  0.3568 -3.3977
  290MOL0     H39119   1.929   4.482  10.202 -0.4976 -0.6979  0.3385
  290MOL0     H39120   2.085   4.484  10.466  0.6517  0.3419 -1.3400
  290MOL0     H39121   2.045   4.338  10.364 -3.3585 -2.4102  2.2348
  290MOL0     H39122   1.801   4.406  10.409 -0.0290  3.5732 -1.2981
  290MOL0     H39123   1.871   4.525  10.523  1.3115  0.5525  0.8591
  290MOL0     H39124   1.974   4.258  10.563 -0.0344 -0.0124  1.2704
  290MOL0     H39125   1.966   4.396  10.663 -0.5104  0.1520  0.0321
  290MOL0     H39126   1.781   4.221  10.725 -0.9091  1.5249  1.8614
  290MOL0     H39127   1.709   4.254  10.586  1.0250 -2.1017 -0.2632
  290MOL0     H39128   1.815   4.443  10.810  0.2078  0.3234 -1.2899
  290MOL0     H39129   1.699   4.516  10.711  1.1564  0.8762  1.2493
  290MOL0     H39130   1.775   4.783  10.020  0.2855  0.0956 -0.7965
  290MOL0     H39131   1.713   5.010   9.953 -0.6092  0.2820  0.0271
  290MOL0     H39132   2.045   5.545   9.938 -2.1167 -0.2740  1.6676
  290MOL0     H39133   1.984   5.757   9.843 -0.3142  0.5824 -2.2811
  290MOL0     H39134   1.402   6.556  10.755  0.5505  0.0310  0.9599
  290MOL0     H39135   1.601   6.429  10.872 -1.7383 -0.0882  0.0931
  290MOL0     H39136   1.860   6.251  10.970 -0.6121  0.8292 -0.4967
  290MOL0     H39137   1.989   6.145  11.141 -0.9726 -0.6149 -0.6927
  290MOL0     H39138   2.269   6.008  11.317  0.2386 -1.8117 -2.2298
  290MOL0     H39139   2.121   6.012  11.237  0.3632 -0.6173  0.4784
  290MOL0     H39140   2.130   6.130  11.466 -2.4785  0.0473 -0.4321
  290MOL0     H39141   2.065   6.236  11.334  0.6681  0.3332 -0.6146
  290MOL0     H39142   2.224   6.357  11.498 -0.0470  0.7748 -1.1121
  290MOL0     H39143   2.278   6.365  11.338  3.5395 -2.0881  0.0631
  290MOL0     H39144   2.425   6.168  11.378 -1.6492 -3.3893  1.0353
  290MOL0     H39145   2.457   6.308  11.488 -1.8240  2.4868 -0.6311
  290MOL0     H39146   2.245   5.992  11.704 -0.5350  0.1678 -0.2927
  290MOL0     H39147   2.364   6.289  10.975  0.1158  2.3766  1.0532
  290MOL0     H39148   2.345   6.351  10.723 -1.5048 -2.8327 -0.5681
  290MOL0     H39149   2.204   6.382  10.646  1.4364 -2.9149 -1.1129
  290MOL0     H39150   2.257   6.507  10.753 -0.7361 -0.4002 -0.2213
  291MOL0     O39151   8.545   6.944   4.986 -1.3102  0.5184 -0.4479
  291MOL0     C39152   8.474   6.871   5.059  0.5708  0.5403  0.5272
  291MOL0     O39153   8.515   6.754   5.121  0.2072 -1.3002  0.4454
  291MOL0     C39154   8.635   6.682   5.086  0.6683 -0.1510 -0.0284
  291MOL0     C39155   8.632   6.537   5.092 -0.6129 -0.6742  0.5703
  291MOL0     C39156   8.743   6.470   5.050  0.1806  0.1853 -0.2197
  291MOL0     C39157   8.847   6.532   4.996 -0.6690 -0.3247 -0.3940
  291MOL0     O39158   8.944   6.453   4.941 -0.3508  0.0435  0.6808
  291MOL0     C39159   9.065   6.506   4.878  0.1269  0.3151 -0.0912
  291MOL0     C39160   9.181   6.414   4.906 -0.3244 -0.3386  0.5846
  291MOL0     C39161   9.315   6.439   4.837 -0.0514  0.1763  0.5893
  291MOL0     C39162   9.304   6.407   4.684  0.1160  0.5887 -0.7536
  291MOL0     C39163   9.248   6.269   4.647 -0.0890 -0.3178 -0.2883
  291MOL0     C39164   9.304   6.146   4.718 -0.2431  0.2611 -0.7299
  291MOL0     C39165   9.451   6.139   4.696 -0.4852 -0.0477  0.1938
  291MOL0     C39166   9.514   6.026   4.781 -0.4741 -1.2791  0.1077
  291MOL0     N39167   9.536   6.051   4.924  0.6954 -0.7411  0.2287
  291MOL0     C39168   9.581   6.173   4.974  0.2123 -0.6346  0.2986
  291MOL0     C39169   9.568   6.156   5.110 -0.4380 -0.2157  0.1251
  291MOL0     C39170   9.602   6.256   5.215 -0.7591  0.3014 -0.1408
  291MOL0     C39171   9.747   6.281   5.241 -0.6733  0.4538  0.0003
  291MOL0     C39172   9.762   6.373   5.362  0.4353 -0.3071  0.3813
  291MOL0     C39173   9.903   6.400   5.391 -0.2709  0.1732  0.3487
  291MOL0     O39174   9.920   6.508   5.487  0.2867  0.6486 -0.4027
  291MOL0     C39175  10.044   6.511   5.548 -0.4752 -0.2985  0.6990
  291MOL0     C39176  10.106   6.637   5.548  1.1346 -0.8765 -0.3063
  291MOL0     C39177  10.222   6.664   5.620 -0.4570  0.9689  0.3440
  291MOL0     C39178  10.281   6.564   5.693 -0.0189 -0.6506 -0.1232
  291MOL0     C39179  10.413   6.598   5.764  0.0762 -0.6698 -0.1843
  291MOL0     O39180  10.479   6.489   5.820  0.0286 -0.1049 -0.1348
  291MOL0     C39181  10.596   6.509   5.882  0.0373 -0.1233 -0.3073
  291MOL0     C39182  10.716   6.548   5.816  0.0425 -0.4920  0.6148
  291MOL0     C39183  10.841   6.566   5.885 -0.4347 -0.4976  0.3299
  291MOL0     C39184  10.846   6.529   6.017 -0.0927 -0.1030 -0.1255
  291MOL0     O39185  10.953   6.522   6.100 -0.6503  0.1316 -0.1119
  291MOL0     C39186  11.088   6.542   6.044  0.0267 -0.7570  0.3007
  291MOL0     C39187  11.191   6.467   6.134 -0.3472 -0.3743  1.0181
  291MOL0     C39188  11.223   6.544   6.259  0.6138 -0.4124 -0.5861
  291MOL0     C39189  11.344   6.477   6.337 -0.4360 -0.3751  0.2549
  291MOL0     C39190  11.378   6.557   6.463 -0.2677 -0.9349 -0.0766
  291MOL0     C39191  11.499   6.652   6.438  0.1716 -0.1138 -0.1783
  291MOL0     C39192  11.572   6.695   6.567  0.7589  0.0835  0.0118
  291MOL0     C39193  11.683   6.791   6.541  0.8726 -0.0943  0.3173
  291MOL0    Cl39194  11.638   6.916   6.434  0.1548 -0.1250  0.3198
  291MOL0     C39195  10.732   6.483   6.079  0.7029 -0.6096 -0.7914
  291MOL0     C39196  10.605   6.472   6.015 -0.7937 -1.2575 -1.1692
  291MOL0     O39197  10.441   6.718   5.779  0.1432 -0.5625  0.2287
  291MOL0     C39198  10.217   6.434   5.694  0.3137 -0.6346 -0.4213
  291MOL0     C39199  10.105   6.409   5.621  0.5866 -0.6226 -1.0638
  291MOL0     N39200   9.518   6.027   5.131  0.3912 -0.4488 -0.7620
  291MOL0     N39201   9.492   5.964   5.022  0.6458  0.2583  0.7325
  291MOL0     C39202   8.852   6.675   4.997 -0.2111  0.0319  0.4334
  291MOL0     C39203   8.749   6.752   5.045 -0.4877  0.1542 -0.9175
  291MOL0     C39204   8.336   6.931   5.080 -0.0368  0.0167 -1.0087
  291MOL0     C39205   8.308   7.059   5.027 -0.0579 -0.6240 -0.2647
  291MOL0     C39206   8.188   7.113   5.040 -0.1852  0.4285  0.3890
  291MOL0     C39207   8.091   7.064   5.123 -0.4919 -0.0195  0.1732
  291MOL0     O39208   7.965   7.138   5.124 -0.1197 -0.2208  0.7111
  291MOL0     C39209   7.839   7.076   5.156 -0.7675 -0.8129 -0.3274
  291MOL0     C39210   7.732   7.187   5.156 -0.2185  0.3458 -0.0245
  291MOL0     C39211   7.597   7.133   5.202  0.0644  0.3291  0.3221
  291MOL0     C39212   7.506   7.220   5.291  0.1635  0.2056  0.3628
  291MOL0     C39213   7.396   7.135   5.338 -0.5117  0.9071  0.0400
  291MOL0     C39214   7.296   7.079   5.375 -0.6013 -0.0008 -0.0356
  291MOL0     C39215   8.118   6.943   5.186  0.6073 -1.1580 -0.2290
  291MOL0     C39216   8.237   6.871   5.165 -0.5667  0.4827  0.3844
  291MOL0     C39217   8.251   6.742   5.231 -0.4848 -0.7071 -0.8553
  291MOL0     H39218   8.543   6.492   5.133 -1.1429 -1.2928 -1.1648
  291MOL0     H39219   8.743   6.362   5.055 -0.9266  0.2484  2.1281
  291MOL0     H39220   9.042   6.516   4.771  0.5017 -0.5962 -0.2665
  291MOL0     H39221   9.091   6.607   4.912  0.3933  0.3035 -0.2586
  291MOL0     H39222   9.151   6.310   4.900  0.8306 -0.6780  0.3389
  291MOL0     H39223   9.202   6.428   5.013 -0.3309  0.7084  0.4598
  291MOL0     H39224   9.377   6.360   4.880 -1.6475 -0.5887  1.6059
  291MOL0     H39225   9.361   6.538   4.847  1.9897 -0.0840 -3.7376
  291MOL0     H39226   9.234   6.475   4.633  2.6560  1.0367 -4.0072
  291MOL0     H39227   9.404   6.416   4.640  0.7229 -0.4155  0.3768
  291MOL0     H39228   9.139   6.277   4.653 -0.0300 -0.5855  2.0419
  291MOL0     H39229   9.270   6.248   4.543 -3.3544  1.1470 -1.4177
  291MOL0     H39230   9.277   6.142   4.824  2.4262  1.4618  0.0666
  291MOL0     H39231   9.261   6.050   4.686 -1.1542  0.2869  0.3390
  291MOL0     H39232   9.506   6.232   4.715  0.4807 -0.7527  0.9687
  291MOL0     H39233   9.472   6.107   4.593  0.4052 -0.8469  0.6077
  291MOL0     H39234   9.453   5.936   4.774 -1.3635 -0.6438 -0.6352
  291MOL0     H39235   9.613   6.008   4.739 -0.0292  2.4225 -0.8586
  291MOL0     H39236   9.617   6.262   4.923  0.1990 -0.3214  0.8250
  291MOL0     H39237   9.552   6.345   5.175  1.9079  1.4937 -1.0819
  291MOL0     H39238   9.542   6.222   5.300 -1.4944 -2.6060 -1.6744
  291MOL0     H39239   9.800   6.188   5.264 -2.0207 -0.1551  0.8099
  291MOL0     H39240   9.784   6.343   5.160 -0.9707 -0.3739 -0.7883
  291MOL0     H39241   9.707   6.337   5.450 -0.5729  1.9089  0.7394
  291MOL0     H39242   9.718   6.466   5.325  0.9447 -1.2423 -2.8794
  291MOL0     H39243   9.952   6.435   5.300  1.7633  3.9836  2.5981
  291MOL0     H39244   9.946   6.305   5.423  2.8512  1.4054  0.2612
  291MOL0     H39245  10.071   6.717   5.484 -1.8188  0.0483  2.2214
  291MOL0     H39246  10.278   6.756   5.605 -0.2761  0.6871 -0.7968
  291MOL0     H39247  10.721   6.556   5.708  1.7593  3.3339  0.8107
  291MOL0     H39248  10.934   6.596   5.837 -1.3844  0.3042 -1.0959
  291MOL0     H39249  11.086   6.500   5.943 -2.3033 -0.5699  0.2070
  291MOL0     H39250  11.114   6.648   6.035  0.0838 -0.9158 -2.1919
  291MOL0     H39251  11.134   6.378   6.160 -0.2300 -0.9032 -0.4718
  291MOL0     H39252  11.276   6.434   6.074 -0.8308  0.3067 -0.0745
  291MOL0     H39253  11.244   6.650   6.243 -0.3362  0.0853  1.2206
  291MOL0     H39254  11.132   6.531   6.318  0.9910  2.1163  0.6840
  291MOL0     H39255  11.436   6.454   6.281  0.1887  0.9202  0.7089
  291MOL0     H39256  11.311   6.376   6.364 -3.8436  0.0241 -1.8893
  291MOL0     H39257  11.397   6.492   6.549  0.6520  0.5319  0.9018
  291MOL0     H39258  11.295   6.623   6.488  1.2585  1.7492 -1.5799
  291MOL0     H39259  11.573   6.600   6.377  0.4824 -0.8173  0.7741
  291MOL0     H39260  11.457   6.735   6.379  2.0775  2.2567  1.5775
  291MOL0     H39261  11.612   6.605   6.615 -1.2420 -0.5958  0.5060
  291MOL0     H39262  11.503   6.752   6.630 -0.6245  0.5466 -1.8223
  291MOL0     H39263  11.733   6.826   6.632  1.5078  2.4464 -0.9293
  291MOL0     H39264  11.760   6.731   6.491  3.1146  2.5572  0.3319
  291MOL0     H39265  10.730   6.453   6.183  1.4536 -1.2317 -0.9485
  291MOL0     H39266  10.527   6.424   6.074 -1.3000  2.0899  1.1440
  291MOL0     H39267  10.248   6.351   5.757 -2.0930 -2.0057 -0.8912
  291MOL0     H39268  10.059   6.312   5.637  2.8871 -1.4292  1.5580
  291MOL0     H39269   8.930   6.729   4.943  2.2237 -0.0790  3.5565
  291MOL0     H39270   8.774   6.855   5.024  2.6344 -0.4745 -0.8109
  291MOL0     H39271   8.382   7.108   4.965 -2.4374  1.8235 -1.3687
  291MOL0     H39272   8.166   7.194   4.971  3.7589  0.5061 -1.0210
  291MOL0     H39273   7.860   7.033   5.254  1.2910 -0.7538 -0.7035
  291MOL0     H39274   7.814   6.999   5.082  3.0261 -1.2281 -1.3845
  291MOL0     H39275   7.723   7.231   5.056  0.1856  0.9852  0.2117
  291MOL0     H39276   7.763   7.271   5.218  2.9145 -0.9730  0.4047
  291MOL0     H39277   7.611   7.040   5.258 -0.7803  0.0495  0.0790
  291MOL0     H39278   7.545   7.110   5.108 -2.4135 -0.2445  1.7590
  291MOL0     H39279   7.551   7.262   5.382 -0.3869  1.7473 -0.0519
  291MOL0     H39280   7.468   7.300   5.227 -0.1857 -2.4441 -3.0499
  291MOL0     H39281   7.208   7.025   5.402 -0.3054 -1.8630 -2.4493
  291MOL0     H39282   8.044   6.898   5.251 -1.8325  0.3602 -1.8072
  291MOL0     H39283   8.259   6.661   5.158 -1.7359 -0.5936 -1.1405
  291MOL0     H39284   8.341   6.736   5.293 -2.0686  0.1850  1.6947
  291MOL0     H39285   8.161   6.720   5.289 -2.4158 -2.8511 -4.3216
  292MOL0     O39286   6.562  10.833   7.847 -0.2379  0.2491  0.2026
  292MOL0     C39287   6.528  10.772   7.943 -0.1144 -0.3583 -0.1350
  292MOL0     O39288   6.567  10.798   8.073  0.8145 -0.6992  0.9207
  292MOL0     C39289   6.679  10.875   8.092 -0.5439 -0.4374 -0.3232
  292MOL0     C39290   6.686  10.983   8.173 -0.5955  0.5149 -0.7196
  292MOL0     C39291   6.805  11.053   8.200 -0.3269 -0.3730 -1.1128
  292MOL0     C39292   6.926  11.017   8.144 -0.1154 -0.1323  0.0317
  292MOL0     O39293   7.044  11.097   8.178  0.0887 -0.1939 -0.5513
  292MOL0     C39294   7.092  11.055   8.309 -0.5489  0.4243  0.2194
  292MOL0     C39295   7.212  11.127   8.374 -0.2980 -0.6481  0.2655
  292MOL0     C39296   7.212  11.274   8.372 -0.1592  0.2261  0.4797
  292MOL0     C39297   7.274  11.329   8.499 -0.0026 -0.7165 -0.0158
  292MOL0     C39298   7.238  11.481   8.539  0.3164  0.5804 -0.0851
  292MOL0     C39299   7.346  11.581   8.481  0.3372  0.3468  0.2341
  292MOL0     C39300   7.494  11.570   8.528  0.9884  0.2341  0.5830
  292MOL0     C39301   7.500  11.608   8.674 -0.4756 -0.6512 -0.4090
  292MOL0     N39302   7.637  11.644   8.709 -0.2196  0.1304 -0.5966
  292MOL0     C39303   7.741  11.555   8.741 -0.6601  0.5245  0.7875
  292MOL0     C39304   7.849  11.625   8.789  0.0665 -0.2066  0.4256
  292MOL0     C39305   7.986  11.562   8.822 -0.1105  0.1768  0.9612
  292MOL0     C39306   8.033  11.611   8.959  0.5111 -0.1721 -0.6552
  292MOL0     C39307   8.183  11.582   8.974  0.2216  0.4232 -0.0083
  292MOL0     C39308   8.241  11.621   9.115 -0.3269 -0.7977 -0.2957
  292MOL0     O39309   8.302  11.744   9.121 -0.1152 -0.1835  0.2044
  292MOL0     C39310   8.426  11.763   9.075 -0.0393  0.1911  1.0428
  292MOL0     C39311   8.476  11.892   9.087 -0.5075  0.0244  0.8030
  292MOL0     C39312   8.609  11.930   9.057 -0.1860  0.3977  0.4339
  292MOL0     C39313   8.692  11.829   9.005 -0.4040 -0.0394  0.1176
  292MOL0     C39314   8.833  11.867   8.969 -0.1610  0.0313 -0.4874
  292MOL0     O39315   8.867  12.003   8.942 -0.0526 -0.2382 -0.6842
  292MOL0     C39316   9.006  12.026   8.934  0.6669  0.5219  0.5727
  292MOL0     C39317   9.051  12.094   8.827  0.5038 -0.2797  0.7757
  292MOL0     C39318   9.194  12.124   8.821  0.0198  0.2588 -0.3940
  292MOL0     C39319   9.278  12.082   8.916  1.1281  0.4986 -0.0110
  292MOL0     O39320   9.403  12.134   8.915  0.4331 -0.2931 -0.1077
  292MOL0     C39321   9.495  12.088   9.019  0.2911 -0.3310 -0.0425
  292MOL0     C39322   9.604  12.194   9.012 -0.8927  0.4347 -0.7000
  292MOL0     C39323   9.741  12.133   9.029 -0.3347  0.7978  0.0069
  292MOL0     C39324   9.768  12.113   9.183  1.0886  0.4094  0.0649
  292MOL0     C39325   9.906  12.071   9.216  0.4266 -0.7641  0.4623
  292MOL0     C39326   9.966  11.954   9.132  0.2393 -0.7016 -0.8651
  292MOL0     C39327  10.086  11.893   9.198 -0.0147  0.3544  0.3310
  292MOL0     C39328  10.054  11.810   9.321  0.5156 -0.4321  0.3555
  292MOL0    Cl39329  10.194  11.708   9.363  0.2809 -0.5601  0.1258
  292MOL0     C39330   9.228  12.007   9.024 -0.7033  0.0122 -0.1948
  292MOL0     C39331   9.092  11.979   9.033  0.9977 -0.6353  0.3766
  292MOL0     O39332   8.913  11.769   8.960 -0.0886 -0.8359  0.4534
  292MOL0     C39333   8.650  11.698   8.989 -0.3619  0.2311 -0.1437
  292MOL0     C39334   8.513  11.668   9.011  0.3041 -0.0659  0.0365
  292MOL0     N39335   7.805  11.760   8.802 -0.2880  0.1392 -0.7597
  292MOL0     N39336   7.682  11.762   8.758  0.5864 -0.0041  0.4708
  292MOL0     C39337   6.921  10.912   8.055 -0.5686 -0.8075  0.3367
  292MOL0     C39338   6.799  10.845   8.029 -0.1900 -0.1246 -0.4904
  292MOL0     C39339   6.435  10.658   7.914 -0.8805  0.2761  0.1061
  292MOL0     C39340   6.337  10.637   8.009  0.3079 -0.2650  0.1590
  292MOL0     C39341   6.246  10.531   7.987  0.2206  0.3845 -0.6245
  292MOL0     C39342   6.249  10.446   7.875  0.0440  0.1080 -1.1993
  292MOL0     O39343   6.155  10.343   7.875  0.2883  0.1641 -0.2975
  292MOL0     C39344   6.138  10.278   7.745 -0.0159  0.1393  0.0403
  292MOL0     C39345   6.040  10.156   7.768  0.0417  0.0252  0.2100
  292MOL0     C39346   5.922  10.185   7.868 -0.5360 -0.4923  0.0748
  292MOL0     C39347   5.837  10.063   7.895  0.1752 -0.2750  0.2417
  292MOL0     C39348   5.875  10.003   8.027 -0.7575 -0.7899 -0.1422
  292MOL0     C39349   5.894   9.950   8.135 -0.6403  0.2086  0.3079
  292MOL0     C39350   6.352  10.466   7.779  0.2024  0.0734 -0.4882
  292MOL0     C39351   6.443  10.575   7.796 -0.1193  0.2528  0.6575
  292MOL0     C39352   6.553  10.598   7.694 -0.0489  0.1793 -0.2850
  292MOL0     H39353   6.596  11.028   8.215 -2.0944 -1.5381 -1.5362
  292MOL0     H39354   6.790  11.132   8.273  0.6980 -0.4090 -0.8464
  292MOL0     H39355   7.010  11.065   8.381 -1.2687 -0.3546 -0.4667
  292MOL0     H39356   7.127  10.952   8.298 -0.1131  0.7912 -2.3491
  292MOL0     H39357   7.303  11.092   8.324 -0.9783 -0.1347 -1.4002
  292MOL0     H39358   7.212  11.087   8.476  0.3352 -4.5174 -1.0939
  292MOL0     H39359   7.109  11.308   8.361 -0.1334 -0.1707 -1.3902
  292MOL0     H39360   7.258  11.307   8.279  0.3940 -2.4605 -0.2883
  292MOL0     H39361   7.249  11.274   8.590  3.9983 -2.0467  0.4652
  292MOL0     H39362   7.382  11.320   8.509  0.2379  3.0186  2.2196
  292MOL0     H39363   7.141  11.501   8.493  0.8495  2.1036 -0.6016
  292MOL0     H39364   7.225  11.503   8.646 -0.4899  2.9938 -0.6110
  292MOL0     H39365   7.367  11.547   8.379  2.1907  1.4037  0.1989
  292MOL0     H39366   7.308  11.683   8.487  1.6148  1.0398 -2.0563
  292MOL0     H39367   7.550  11.639   8.464  1.6157 -1.6067 -0.9487
  292MOL0     H39368   7.540  11.472   8.511  1.2027  0.2561  1.0180
  292MOL0     H39369   7.440  11.698   8.691  1.1180  0.0577  1.9863
  292MOL0     H39370   7.458  11.533   8.741  2.4477 -0.9200  1.2998
  292MOL0     H39371   7.739  11.450   8.716  2.9845  0.3771  0.4816
  292MOL0     H39372   7.978  11.453   8.818 -1.0689  0.2546  0.4650
  292MOL0     H39373   8.057  11.594   8.746 -0.4648  1.5660  1.1781
  292MOL0     H39374   8.004  11.715   8.980 -0.4888 -0.3910 -0.9039
  292MOL0     H39375   7.973  11.554   9.029 -0.3742  1.5882  0.0888
  292MOL0     H39376   8.239  11.638   8.898  1.9339 -0.7993  0.2967
  292MOL0     H39377   8.211  11.481   8.945  0.9352  0.6736 -0.2227
  292MOL0     H39378   8.302  11.540   9.156  0.0470 -0.8078 -0.8584
  292MOL0     H39379   8.154  11.627   9.181 -1.1509 -1.9143 -1.2331
  292MOL0     H39380   8.407  11.958   9.138 -2.1434 -2.2125  1.6671
  292MOL0     H39381   8.642  12.032   9.070 -2.8868  1.4323 -0.2631
  292MOL0     H39382   8.981  12.127   8.751  1.3266  0.3878  0.2937
  292MOL0     H39383   9.237  12.194   8.749  2.6158 -1.4506 -0.6510
  292MOL0     H39384   9.442  12.087   9.115 -4.1391 -1.4691 -2.2333
  292MOL0     H39385   9.534  11.989   8.997 -0.9736 -1.5297  2.5757
  292MOL0     H39386   9.603  12.236   8.911  0.1400  1.7021 -0.2091
  292MOL0     H39387   9.588  12.282   9.075 -0.5837  0.5341 -0.7618
  292MOL0     H39388   9.744  12.030   8.991 -1.5284 -0.9023  3.9758
  292MOL0     H39389   9.815  12.199   8.984 -3.0486  3.3152 -1.0547
  292MOL0     H39390   9.701  12.040   9.229 -2.2649  3.0438 -0.2961
  292MOL0     H39391   9.753  12.208   9.233 -1.2118  0.4056 -0.5147
  292MOL0     H39392   9.914  12.062   9.324 -2.0917 -1.6753  0.6513
  292MOL0     H39393   9.973  12.154   9.193 -1.4551  0.6787 -0.0973
  292MOL0     H39394   9.889  11.879   9.112 -0.4825 -0.0865 -0.4356
  292MOL0     H39395   9.994  11.992   9.033 -1.1237 -0.0541 -1.0144
  292MOL0     H39396  10.155  11.973   9.227 -1.4390  1.4745  0.7535
  292MOL0     H39397  10.139  11.827   9.129  0.6448  0.7598  0.4410
  292MOL0     H39398  10.027  11.882   9.399  1.1367  0.0134  0.1687
  292MOL0     H39399   9.967  11.745   9.304 -0.8347  1.2810  0.4583
  292MOL0     H39400   9.279  11.967   9.111 -2.3659  1.7945  1.7074
  292MOL0     H39401   9.053  11.944   9.128 -1.7121  0.2044 -0.3434
  292MOL0     H39402   8.717  11.617   8.963  3.1352  3.3993 -1.9781
  292MOL0     H39403   8.467  11.570   9.002 -3.7800  1.6042  0.6634
  292MOL0     H39404   7.005  10.903   7.987  0.8463  0.0851  1.9078
  292MOL0     H39405   6.791  10.766   7.955 -1.8779 -0.9821  0.5194
  292MOL0     H39406   6.333  10.675   8.110 -0.1022 -3.8047  1.6187
  292MOL0     H39407   6.191  10.506   8.077  0.2714  0.7120 -0.5000
  292MOL0     H39408   6.234  10.249   7.701  0.4964  1.2822  0.3831
  292MOL0     H39409   6.090  10.350   7.677  2.2181  1.9361  0.2610
  292MOL0     H39410   6.101  10.073   7.805 -1.7620 -2.2540 -1.6251
  292MOL0     H39411   6.004  10.125   7.670  0.2490 -0.6889  0.3563
  292MOL0     H39412   5.865  10.261   7.813  0.3333 -0.1307 -0.3386
  292MOL0     H39413   5.961  10.236   7.957 -2.2945  3.1900 -1.0438
  292MOL0     H39414   5.737  10.102   7.913 -0.5490 -1.1767 -1.6162
  292MOL0     H39415   5.827   9.988   7.816 -1.3554 -1.1919  1.2670
  292MOL0     H39416   5.923   9.907   8.228  2.8285  1.4502 -0.0358
  292MOL0     H39417   6.363  10.407   7.689  3.1662  0.2183 -0.3109
  292MOL0     H39418   6.513  10.684   7.640 -0.4732  0.3428  0.2854
  292MOL0     H39419   6.648  10.640   7.730 -1.1664  3.9578 -1.3616
  292MOL0     H39420   6.563  10.505   7.636 -2.3238  0.1524 -0.7106
  293MOL0     O39421   1.541   6.677   6.456  0.4658  0.0177  0.1438
  293MOL0     C39422   1.479   6.640   6.360 -1.1063  0.2411  0.7086
  293MOL0     O39423   1.510   6.669   6.234 -0.2831 -0.3019 -0.5443
  293MOL0     C39424   1.605   6.760   6.197 -0.1032 -1.0076  0.3954
  293MOL0     C39425   1.615   6.887   6.255  0.0541  0.9883  0.1752
  293MOL0     C39426   1.709   6.990   6.202  0.6604  0.5116 -0.6464
  293MOL0     C39427   1.794   6.960   6.103 -0.2023  0.1585 -0.7726
  293MOL0     O39428   1.876   7.056   6.048 -0.3402  0.0254 -0.0546
  293MOL0     C39429   1.970   7.012   5.949 -0.5094  0.3555  0.1822
  293MOL0     C39430   2.101   7.092   5.970 -0.1134  0.2147 -0.2175
  293MOL0     C39431   2.195   7.080   5.858 -0.1236  0.3911  0.3250
  293MOL0     C39432   2.319   7.159   5.892 -0.0438 -0.3062  0.1832
  293MOL0     C39433   2.414   7.176   5.778  0.2268 -0.2105  0.3951
  293MOL0     C39434   2.496   7.305   5.800 -0.1424 -0.7459  0.3323
  293MOL0     C39435   2.613   7.322   5.711  0.4882 -0.0856  0.6401
  293MOL0     C39436   2.699   7.445   5.751 -0.2189  0.3362 -0.1910
  293MOL0     N39437   2.816   7.468   5.665  0.5248  0.1009  0.3729
  293MOL0     C39438   2.932   7.515   5.718 -0.5259 -0.7369  0.9019
  293MOL0     C39439   3.004   7.557   5.615  0.5085  0.2115 -0.6407
  293MOL0     C39440   3.143   7.603   5.629  0.8706  0.3416 -0.5883
  293MOL0     C39441   3.165   7.728   5.706  0.3096 -0.4405  0.9638
  293MOL0     C39442   3.316   7.763   5.694  0.9696 -0.1317  0.0161
  293MOL0     C39443   3.350   7.873   5.797  0.1738 -0.0930  0.2979
  293MOL0     O39444   3.491   7.899   5.785  0.4984 -0.1261  0.7482
  293MOL0     C39445   3.552   7.965   5.684 -0.9784 -0.1291  0.8816
  293MOL0     C39446   3.502   8.014   5.566  0.0729 -0.3647 -0.3456
  293MOL0     C39447   3.583   8.062   5.470  0.6231  0.6114  0.0443
  293MOL0     C39448   3.727   8.068   5.497  1.3508 -0.4980  0.5463
  293MOL0     C39449   3.809   8.118   5.389 -0.4559  0.3425 -0.8812
  293MOL0     O39450   3.743   8.172   5.290 -0.0946 -0.6200  0.2580
  293MOL0     C39451   3.814   8.200   5.172 -0.2549 -0.3908 -0.3661
  293MOL0     C39452   3.772   8.316   5.102 -0.0340 -0.0559 -0.6904
  293MOL0     C39453   3.802   8.335   4.969 -0.3766 -0.8076  0.6166
  293MOL0     C39454   3.893   8.248   4.905 -1.4756 -0.1944 -0.3085
  293MOL0     O39455   3.943   8.265   4.776  0.3409  0.2965  0.3963
  293MOL0     C39456   3.943   8.391   4.705 -0.2611 -0.1708  0.4511
  293MOL0     C39457   4.043   8.396   4.589  0.5414  0.9305 -0.0046
  293MOL0     C39458   4.049   8.531   4.522  0.2090  0.4041 -0.5087
  293MOL0     C39459   3.912   8.567   4.470  0.5010 -0.6593 -0.9257
  293MOL0     C39460   3.923   8.684   4.370 -0.4294  0.0504  1.1293
  293MOL0     C39461   3.809   8.703   4.278  0.2045  0.4518 -0.4314
  293MOL0     C39462   3.679   8.725   4.357  0.8655  0.2702  0.7887
  293MOL0     C39463   3.561   8.744   4.263  1.0039 -0.1988  0.1540
  293MOL0    Cl39464   3.544   8.915   4.200 -0.1497 -0.0621 -0.2761
  293MOL0     C39465   3.937   8.134   4.969 -0.4342 -0.2345  0.2413
  293MOL0     C39466   3.892   8.105   5.102  0.0271  0.4691 -1.0220
  293MOL0     O39467   3.930   8.108   5.406 -0.6315 -0.0285  0.0505
  293MOL0     C39468   3.784   8.020   5.616 -0.2287 -0.3363 -0.6163
  293MOL0     C39469   3.689   7.969   5.711 -0.3063  0.3396  0.5440
  293MOL0     N39470   2.928   7.528   5.509 -0.5581 -0.0623 -0.2489
  293MOL0     N39471   2.817   7.480   5.534  0.6468 -0.4960 -0.1220
  293MOL0     C39472   1.786   6.822   6.048  0.2826 -0.0355  0.9319
  293MOL0     C39473   1.680   6.740   6.086 -0.6426 -0.3156  1.0991
  293MOL0     C39474   1.363   6.552   6.383  0.3503  0.6018  0.2118
  293MOL0     C39475   1.330   6.458   6.282 -0.6560  0.4071  0.5432
  293MOL0     C39476   1.211   6.391   6.288 -0.4690  0.0694 -0.3872
  293MOL0     C39477   1.121   6.400   6.393  0.5024  0.1183  0.2420
  293MOL0     O39478   1.003   6.328   6.380 -0.2044 -0.0977  0.7585
  293MOL0     C39479   0.884   6.355   6.462 -0.5444  1.2970  0.5866
  293MOL0     C39480   0.834   6.488   6.419  0.7530 -0.1080  0.0306
  293MOL0     C39481   0.726   6.544   6.517 -0.1960  0.2451  0.2749
  293MOL0     C39482   0.611   6.457   6.549  0.0450  1.6406 -0.0450
  293MOL0     C39483   0.513   6.446   6.443 -0.9034  0.2743  0.2725
  293MOL0     C39484   0.438   6.436   6.352  0.4275 -0.8349  0.4166
  293MOL0     C39485   1.163   6.468   6.504  0.6257 -0.7726  0.1985
  293MOL0     C39486   1.273   6.557   6.501 -0.6064  0.0759 -0.4113
  293MOL0     C39487   1.284   6.653   6.620  0.3256  0.4553  0.0113
  293MOL0     H39488   1.552   6.902   6.342 -1.0770 -3.7927  0.4546
  293MOL0     H39489   1.716   7.088   6.248  0.4061  0.1698  0.1373
  293MOL0     H39490   1.991   6.907   5.970 -3.4239 -0.2806  0.2654
  293MOL0     H39491   1.938   7.022   5.844 -0.4331  0.7130  0.1910
  293MOL0     H39492   2.143   7.069   6.068 -2.5733 -2.8913  0.2828
  293MOL0     H39493   2.067   7.196   5.966 -2.0799 -0.3785 -0.2376
  293MOL0     H39494   2.152   7.127   5.769  1.1820  0.5301 -0.2579
  293MOL0     H39495   2.213   6.973   5.850 -0.3305  0.3909 -0.2154
  293MOL0     H39496   2.281   7.258   5.919  0.8885 -0.0041  0.4135
  293MOL0     H39497   2.367   7.104   5.974  0.8541  0.0996 -0.0609
  293MOL0     H39498   2.481   7.090   5.771 -0.0835 -0.4163 -0.1176
  293MOL0     H39499   2.369   7.183   5.679  1.6561 -0.7703 -0.3304
  293MOL0     H39500   2.429   7.390   5.788 -0.5026 -0.8625  1.4414
  293MOL0     H39501   2.536   7.299   5.901  1.1245 -2.0063 -0.2036
  293MOL0     H39502   2.569   7.321   5.611 -1.7281  0.7256  1.5510
  293MOL0     H39503   2.667   7.226   5.714 -0.1767 -0.5026 -0.3518
  293MOL0     H39504   2.637   7.535   5.749  0.6723  0.9616 -1.4887
  293MOL0     H39505   2.737   7.443   5.853  3.4809 -0.8240 -1.4237
  293MOL0     H39506   2.966   7.522   5.822 -0.6571 -0.1303  0.9074
  293MOL0     H39507   3.201   7.525   5.678  0.2022 -0.6161 -1.2818
  293MOL0     H39508   3.186   7.602   5.529  2.5631  2.0740  0.0530
  293MOL0     H39509   3.113   7.807   5.652  4.7413  0.6241 -2.3365
  293MOL0     H39510   3.143   7.723   5.813  1.5420  1.8633  1.3903
  293MOL0     H39511   3.332   7.798   5.592 -1.9802  0.7104 -0.2330
  293MOL0     H39512   3.369   7.670   5.717  1.9042  0.7366  1.5662
  293MOL0     H39513   3.319   7.844   5.898 -0.9790  0.5748  0.1502
  293MOL0     H39514   3.301   7.967   5.768  1.3571 -0.3048 -2.7055
  293MOL0     H39515   3.398   8.039   5.553  0.2607  1.1849  0.8870
  293MOL0     H39516   3.534   8.086   5.376  0.9758  1.7832  0.1470
  293MOL0     H39517   3.694   8.370   5.156 -0.0763  0.2579 -1.0648
  293MOL0     H39518   3.785   8.430   4.919  1.7106 -1.4116 -1.4609
  293MOL0     H39519   3.842   8.401   4.666 -0.0876 -0.5573 -0.1109
  293MOL0     H39520   3.961   8.476   4.771  0.9830 -1.9328  2.5323
  293MOL0     H39521   4.142   8.355   4.615 -0.0358 -2.0145 -2.0135
  293MOL0     H39522   4.009   8.321   4.518  1.8006 -3.1002  3.2086
  293MOL0     H39523   4.082   8.608   4.593 -1.9399  0.9511 -0.0437
  293MOL0     H39524   4.127   8.523   4.445  0.8770 -3.0216  0.3609
  293MOL0     H39525   3.844   8.605   4.547  0.8492  2.4443 -2.0137
  293MOL0     H39526   3.865   8.477   4.430 -2.6693 -0.8535  2.5730
  293MOL0     H39527   4.006   8.654   4.305 -0.5979 -0.1303  0.9954
  293MOL0     H39528   3.959   8.776   4.415  1.3121 -0.0929  0.1332
  293MOL0     H39529   3.830   8.791   4.215 -2.2802 -0.2370 -2.3943
  293MOL0     H39530   3.804   8.622   4.205  0.5306  0.6041 -0.6272
  293MOL0     H39531   3.684   8.810   4.425  3.3651  0.1339  0.8685
  293MOL0     H39532   3.661   8.638   4.421  0.2945 -1.3781 -1.4608
  293MOL0     H39533   3.554   8.669   4.184 -2.1331  0.6942 -0.5615
  293MOL0     H39534   3.465   8.728   4.314  1.2662  1.1204  1.1403
  293MOL0     H39535   4.015   8.073   4.924  1.9586  1.2213  2.1094
  293MOL0     H39536   3.915   8.006   5.142  0.2428 -0.0381 -2.3347
  293MOL0     H39537   3.891   8.020   5.634 -0.4006 -1.9485  0.7010
  293MOL0     H39538   3.732   7.941   5.807  0.6608 -1.2944 -0.3066
  293MOL0     H39539   1.857   6.777   5.980  1.0367  0.6861  1.2203
  293MOL0     H39540   1.659   6.650   6.029 -0.2933  0.7235 -0.7291
  293MOL0     H39541   1.392   6.444   6.194  1.1303  1.8882  1.4961
  293MOL0     H39542   1.182   6.322   6.209 -0.3042 -2.2831  1.5028
  293MOL0     H39543   0.900   6.367   6.570 -1.6343 -3.3100  1.4513
  293MOL0     H39544   0.806   6.281   6.446  0.9696  0.0458 -1.6870
  293MOL0     H39545   0.774   6.478   6.328 -0.8932 -2.2054  1.2615
  293MOL0     H39546   0.920   6.553   6.398  1.9206 -2.3242 -2.5962
  293MOL0     H39547   0.697   6.639   6.472  2.4678 -0.3572 -3.1566
  293MOL0     H39548   0.773   6.567   6.613  1.0695  0.9680 -0.4945
  293MOL0     H39549   0.641   6.354   6.570 -1.2579  1.1495 -0.4532
  293MOL0     H39550   0.557   6.502   6.633 -2.7186  1.9997 -1.8928
  293MOL0     H39551   0.377   6.465   6.269  2.7630  0.7925 -0.8464
  293MOL0     H39552   1.095   6.473   6.589 -0.0859 -1.5016 -0.3142
  293MOL0     H39553   1.304   6.751   6.575  0.4810  0.3140 -0.2339
  293MOL0     H39554   1.201   6.663   6.690  0.9172 -0.3515  0.8440
  293MOL0     H39555   1.363   6.611   6.682 -2.2897 -3.7240  0.9083
  294MOL0     O39556   3.470   4.225   4.697 -0.6557  0.4382 -0.1863
  294MOL0     C39557   3.420   4.304   4.779  0.2198  0.9525  0.9303
  294MOL0     O39558   3.480   4.423   4.816  0.0632  0.4285  0.5300
  294MOL0     C39559   3.602   4.470   4.764 -0.5503  1.4513 -1.2288
  294MOL0     C39560   3.640   4.588   4.821 -0.6996 -0.6494  0.1255
  294MOL0     C39561   3.762   4.652   4.792  0.1127  0.3964  0.8850
  294MOL0     C39562   3.852   4.578   4.714  0.4567  0.8535  0.8609
  294MOL0     O39563   3.975   4.621   4.677  0.1501 -0.0416 -0.1586
  294MOL0     C39564   4.044   4.705   4.770 -0.1226 -0.1898 -0.1683
  294MOL0     C39565   4.192   4.708   4.724 -0.3553  0.0585 -1.0936
  294MOL0     C39566   4.265   4.791   4.832 -0.4709 -0.1275  0.4310
  294MOL0     C39567   4.418   4.789   4.802  0.2156  0.2814 -0.6623
  294MOL0     C39568   4.495   4.873   4.906 -0.4844 -0.0254  0.0760
  294MOL0     C39569   4.534   4.798   5.038 -0.7458  0.3073  0.8663
  294MOL0     C39570   4.542   4.903   5.159 -1.2951  0.2477 -0.5175
  294MOL0     C39571   4.646   5.006   5.145 -0.9327 -0.1556  0.4829
  294MOL0     N39572   4.777   4.951   5.110  0.3609  0.9147  0.2554
  294MOL0     C39573   4.836   4.937   4.985  0.0003  0.4144 -0.4388
  294MOL0     C39574   4.938   4.852   5.004  0.8079 -0.4974  1.1549
  294MOL0     C39575   5.024   4.795   4.896  0.3492  0.4943  0.0605
  294MOL0     C39576   5.166   4.819   4.934  0.3720 -0.0912  0.4833
  294MOL0     C39577   5.263   4.731   4.838  0.5908  0.0519 -0.0114
  294MOL0     C39578   5.320   4.610   4.917 -0.1741  0.5404 -0.1074
  294MOL0     O39579   5.430   4.651   5.009 -0.3646  0.4077  0.1394
  294MOL0     C39580   5.551   4.668   4.952 -0.3171  0.7820  0.3809
  294MOL0     C39581   5.660   4.690   5.038  0.7618  0.5180 -0.3828
  294MOL0     C39582   5.793   4.692   4.988 -0.0617 -0.1242 -0.3551
  294MOL0     C39583   5.820   4.685   4.853 -0.3451 -0.2831 -0.4408
  294MOL0     C39584   5.954   4.697   4.786  1.1546 -0.3781  0.0238
  294MOL0     O39585   6.068   4.660   4.851  0.3397  0.4479  0.0661
  294MOL0     C39586   6.191   4.700   4.803 -0.6986  1.2033  0.3518
  294MOL0     C39587   6.293   4.636   4.882 -0.6695 -0.0238 -0.1327
  294MOL0     C39588   6.427   4.659   4.858  0.5955  0.2030  0.2626
  294MOL0     C39589   6.468   4.745   4.754 -0.0426  0.3928  0.1224
  294MOL0     O39590   6.600   4.759   4.734  0.3987  0.3012  0.2708
  294MOL0     C39591   6.678   4.654   4.675  0.4691 -0.6242 -0.6186
  294MOL0     C39592   6.758   4.711   4.566 -0.6242 -0.3593  0.5429
  294MOL0     C39593   6.907   4.725   4.586 -0.2049  0.4684 -1.0955
  294MOL0     C39594   6.977   4.758   4.454 -0.0643 -0.0550 -0.3465
  294MOL0     C39595   7.121   4.778   4.477 -0.9216  0.6331  0.5073
  294MOL0     C39596   7.210   4.821   4.365  0.5022  0.1987  0.5434
  294MOL0     C39597   7.159   4.749   4.231 -0.8952 -0.3318  0.9361
  294MOL0     C39598   7.263   4.786   4.118  0.7212  0.2747 -0.8608
  294MOL0    Cl39599   7.270   4.959   4.084 -0.0429  0.2357  0.0150
  294MOL0     C39600   6.369   4.815   4.676  1.3490  1.3455  0.1058
  294MOL0     C39601   6.233   4.789   4.702  0.2403 -0.1941 -0.7360
  294MOL0     O39602   5.956   4.754   4.674 -0.1423 -0.8900 -0.2001
  294MOL0     C39603   5.706   4.665   4.769 -0.5200  0.0370 -1.6929
  294MOL0     C39604   5.584   4.655   4.817  0.8673 -0.0331  0.1546
  294MOL0     N39605   4.941   4.826   5.143 -0.2925  0.6429 -0.3241
  294MOL0     N39606   4.849   4.891   5.205  0.7662 -0.9143  0.2968
  294MOL0     C39607   3.815   4.459   4.658  1.0354  0.3304 -0.1538
  294MOL0     C39608   3.690   4.398   4.681  0.2383 -0.1671 -0.2768
  294MOL0     C39609   3.289   4.270   4.822  0.1650  0.1931 -0.4343
  294MOL0     C39610   3.264   4.263   4.967 -0.2174  0.6041  0.9813
  294MOL0     C39611   3.139   4.226   5.013  1.1118 -0.0645 -0.2761
  294MOL0     C39612   3.035   4.199   4.924  0.2027 -0.8669 -0.3985
  294MOL0     O39613   2.905   4.173   4.959  0.2589 -0.3199 -0.1769
  294MOL0     C39614   2.886   4.130   5.098  0.5841  0.4871 -0.0213
  294MOL0     C39615   2.952   4.002   5.127  0.0803 -0.7804 -0.6558
  294MOL0     C39616   2.907   3.947   5.254  0.3029  0.4461  0.0734
  294MOL0     C39617   2.918   4.039   5.371  0.8338 -0.1728  0.3487
  294MOL0     C39618   2.918   3.949   5.489 -1.1487 -0.4286  1.8254
  294MOL0     C39619   2.920   3.876   5.583  0.6123 -0.6272 -0.1639
  294MOL0     C39620   3.059   4.209   4.787 -0.0803  0.6172  0.1956
  294MOL0     C39621   3.184   4.240   4.737  1.1208 -1.1901 -0.1277
  294MOL0     C39622   3.207   4.260   4.588 -0.0123 -0.7105  0.1340
  294MOL0     H39623   3.569   4.645   4.881  2.0108  0.0323  2.9126
  294MOL0     H39624   3.785   4.749   4.834  2.5524  1.8972 -3.2729
  294MOL0     H39625   4.020   4.810   4.756  0.4691 -0.1764 -1.1972
  294MOL0     H39626   4.035   4.679   4.876 -0.2387  3.3735  0.8218
  294MOL0     H39627   4.205   4.759   4.628 -1.5256 -2.0804 -2.4812
  294MOL0     H39628   4.241   4.611   4.713 -1.5009 -0.8987  1.4938
  294MOL0     H39629   4.267   4.725   4.919 -0.6509 -2.8344 -1.4838
  294MOL0     H39630   4.222   4.889   4.856  0.0828  0.3983 -0.6423
  294MOL0     H39631   4.462   4.689   4.793 -2.0307 -0.7274 -1.3411
  294MOL0     H39632   4.424   4.840   4.705 -0.2566  1.0476 -0.2939
  294MOL0     H39633   4.584   4.919   4.860 -0.1907 -0.3492  0.3166
  294MOL0     H39634   4.419   4.944   4.941 -4.4327 -2.8754 -1.9268
  294MOL0     H39635   4.455   4.727   5.066  0.6422 -1.2470  1.0095
  294MOL0     H39636   4.629   4.744   5.035 -0.9367 -0.2174  2.8142
  294MOL0     H39637   4.569   4.840   5.244  0.7637  2.2537  0.4399
  294MOL0     H39638   4.443   4.942   5.182 -0.3276  3.7960 -1.7238
  294MOL0     H39639   4.619   5.074   5.064 -0.0538  1.9778  1.8980
  294MOL0     H39640   4.651   5.070   5.234 -3.8280  1.8594 -0.6168
  294MOL0     H39641   4.798   4.977   4.891 -0.0627  0.4339 -0.4046
  294MOL0     H39642   5.005   4.688   4.887  3.5952 -0.2229  0.4070
  294MOL0     H39643   5.004   4.844   4.800 -1.4737 -0.5623 -0.1235
  294MOL0     H39644   5.189   4.923   4.909  0.1194 -0.6925 -2.6686
  294MOL0     H39645   5.182   4.790   5.038 -1.5393 -1.7012  0.3651
  294MOL0     H39646   5.340   4.800   4.803  0.4744  1.5838  2.5279
  294MOL0     H39647   5.215   4.697   4.746 -1.6891  4.7404 -0.8697
  294MOL0     H39648   5.348   4.553   4.828 -0.5932 -0.9979  0.7073
  294MOL0     H39649   5.242   4.553   4.969 -0.6937  1.2320 -0.1238
  294MOL0     H39650   5.634   4.693   5.143 -2.1599 -2.0254 -0.8601
  294MOL0     H39651   5.880   4.693   5.053  0.9224  0.0153 -1.6483
  294MOL0     H39652   6.254   4.569   4.958 -3.7266  1.5704 -0.1296
  294MOL0     H39653   6.499   4.601   4.915 -0.6926 -1.4667  0.2805
  294MOL0     H39654   6.739   4.607   4.754 -0.4471 -1.4339 -0.3723
  294MOL0     H39655   6.624   4.570   4.629  2.4037 -1.9707 -0.5510
  294MOL0     H39656   6.751   4.636   4.487  0.2209  0.0822  0.0394
  294MOL0     H39657   6.710   4.802   4.529  0.9372  1.2857  2.3836
  294MOL0     H39658   6.932   4.797   4.665 -1.5316 -0.2521  0.0081
  294MOL0     H39659   6.959   4.634   4.618  0.1495  1.2685  0.7769
  294MOL0     H39660   6.924   4.836   4.399 -0.5058 -1.0915 -1.4383
  294MOL0     H39661   6.968   4.673   4.386 -3.2094 -0.6751  0.6489
  294MOL0     H39662   7.160   4.693   4.534  2.3242  1.3651 -0.4398
  294MOL0     H39663   7.133   4.868   4.538 -0.5064 -0.2284  1.7412
  294MOL0     H39664   7.198   4.929   4.353  4.4925  0.5903 -1.4908
  294MOL0     H39665   7.315   4.812   4.392  0.5521 -2.7529 -0.3479
  294MOL0     H39666   7.067   4.801   4.203  0.2432  2.4393  2.0131
  294MOL0     H39667   7.153   4.641   4.244  0.2529 -0.4515  0.5356
  294MOL0     H39668   7.361   4.748   4.149  1.5730  2.2332 -1.0249
  294MOL0     H39669   7.235   4.739   4.023 -0.0579 -0.7896 -0.1246
  294MOL0     H39670   6.398   4.880   4.594  1.2663  2.0024  0.5862
  294MOL0     H39671   6.160   4.851   4.650 -1.2746  0.3677  1.8706
  294MOL0     H39672   5.718   4.661   4.661 -3.4962  0.3707 -2.1102
  294MOL0     H39673   5.509   4.641   4.740 -1.2601  0.3806  2.0658
  294MOL0     H39674   3.878   4.398   4.594  2.3647  0.2468  1.1781
  294MOL0     H39675   3.671   4.309   4.623 -0.1721  0.1638 -0.6529
  294MOL0     H39676   3.341   4.265   5.044 -1.3056  1.3180  2.0917
  294MOL0     H39677   3.132   4.212   5.120 -2.7623 -0.2680 -0.4188
  294MOL0     H39678   2.778   4.114   5.103  0.6850 -0.9791 -1.7263
  294MOL0     H39679   2.928   4.203   5.169  2.8851 -1.2518  0.5223
  294MOL0     H39680   3.061   4.008   5.132  0.0009  0.4596  0.1193
  294MOL0     H39681   2.935   3.941   5.038 -0.7062 -1.8754  0.2143
  294MOL0     H39682   2.963   3.856   5.278 -0.7858 -0.4800 -0.7543
  294MOL0     H39683   2.804   3.914   5.240  0.0245  1.4347 -0.2829
  294MOL0     H39684   3.004   4.106   5.363  0.8852 -0.4215 -1.7199
  294MOL0     H39685   2.827   4.099   5.380  1.0516  0.4321 -1.2012
  294MOL0     H39686   2.913   3.817   5.672 -0.3706  0.6341  0.6309
  294MOL0     H39687   2.977   4.183   4.721  1.1470  1.3628 -1.7203
  294MOL0     H39688   3.275   4.343   4.570 -1.0820  0.1637  0.0663
  294MOL0     H39689   3.255   4.177   4.534  0.3579 -0.3803 -0.0467
  294MOL0     H39690   3.120   4.294   4.532  0.9014  0.3133 -0.7075
  295MOL0     O39691   9.147   3.058   6.970  0.2799  0.1906  1.0756
  295MOL0     C39692   9.115   3.176   6.984 -0.2434  0.0650 -0.2586
  295MOL0     O39693   9.204   3.266   7.044 -0.1402 -0.3818  0.0481
  295MOL0     C39694   9.334   3.255   7.099 -0.2132  0.5856 -0.1346
  295MOL0     C39695   9.420   3.363   7.077  0.0061  0.2067  0.4893
  295MOL0     C39696   9.559   3.364   7.108  0.3019  0.8295  0.2137
  295MOL0     C39697   9.616   3.237   7.147  1.1075  0.6776 -0.3745
  295MOL0     O39698   9.750   3.201   7.160  0.4964 -0.6481  0.6154
  295MOL0     C39699   9.839   3.294   7.099 -0.1930  0.0231 -0.5898
  295MOL0     C39700   9.981   3.242   7.102 -0.1725 -0.6425  0.0439
  295MOL0     C39701  10.031   3.251   7.242  0.3966  0.2356  0.0860
  295MOL0     C39702  10.178   3.234   7.254 -0.1472  0.3130  1.4414
  295MOL0     C39703  10.231   3.252   7.398 -0.2391  0.4848  0.6638
  295MOL0     C39704  10.388   3.248   7.393 -0.1027 -0.1198  0.2897
  295MOL0     C39705  10.460   3.246   7.520  1.0319  0.0802 -0.0264
  295MOL0     C39706  10.613   3.255   7.508 -0.0918 -0.4916 -0.2136
  295MOL0     N39707  10.673   3.258   7.647  0.4620  0.0195  0.0530
  295MOL0     C39708  10.703   3.151   7.727 -0.1513  0.1236 -1.0148
  295MOL0     C39709  10.726   3.193   7.853  0.6746 -0.0924 -0.4420
  295MOL0     C39710  10.733   3.117   7.986 -0.2595  0.2104  0.1115
  295MOL0     C39711  10.877   3.072   8.038  0.1061  0.0913  0.7048
  295MOL0     C39712  10.872   3.000   8.168 -0.3104 -0.5345 -0.3189
  295MOL0     C39713  11.017   2.984   8.223  0.1587 -0.5703  0.8257
  295MOL0     O39714  11.062   3.118   8.245  0.8128  0.1404 -0.3782
  295MOL0     C39715  11.198   3.135   8.238 -0.6186 -0.8396 -0.8990
  295MOL0     C39716  11.302   3.038   8.242 -0.4696  0.0981  0.1568
  295MOL0     C39717  11.440   3.065   8.224 -0.6098 -0.4125  1.1002
  295MOL0     C39718  11.473   3.199   8.201  0.2203 -0.3426  1.0139
  295MOL0     C39719  11.611   3.243   8.188 -0.7296 -0.3882 -0.7095
  295MOL0     O39720  11.649   3.372   8.218  0.8820  0.7499  0.3318
  295MOL0     C39721  11.777   3.410   8.181 -0.9228  0.1096  0.9710
  295MOL0     C39722  11.819   3.425   8.048 -0.2102 -0.1433  0.7239
  295MOL0     C39723  11.939   3.476   8.020 -0.3231 -0.3792 -0.2102
  295MOL0     C39724  12.023   3.526   8.114 -0.1007 -0.8067  0.1742
  295MOL0     O39725  12.139   3.586   8.090 -0.1225  0.1254  0.1832
  295MOL0     C39726  12.156   3.628   7.955 -0.2778  0.2089 -0.1552
  295MOL0     C39727  12.301   3.684   7.934  0.7522  1.0903  0.1755
  295MOL0     C39728  12.349   3.704   7.789  0.0704 -0.1602 -0.0504
  295MOL0     C39729  12.491   3.712   7.792 -0.6608 -0.4782  0.0175
  295MOL0     C39730  12.535   3.853   7.824 -0.0563  0.2272 -0.3164
  295MOL0     C39731  12.686   3.864   7.846 -0.1995  0.9224  0.3732
  295MOL0     C39732  12.729   3.993   7.919 -1.6329 -1.3514  0.7025
  295MOL0     C39733  12.770   4.082   7.802  0.3648 -0.5444  1.2692
  295MOL0    Cl39734  12.919   4.038   7.720 -0.2348  0.3714 -0.1185
  295MOL0     C39735  11.985   3.515   8.245  0.4968 -0.2612 -0.4294
  295MOL0     C39736  11.863   3.460   8.287 -0.2667 -0.0147  0.0934
  295MOL0     O39737  11.689   3.154   8.161  0.6657  0.7696 -0.4863
  295MOL0     C39738  11.374   3.297   8.192 -0.0828  0.2817 -0.0067
  295MOL0     C39739  11.244   3.266   8.212 -0.7182 -0.3609  1.3752
  295MOL0     N39740  10.697   3.325   7.848 -0.8142 -0.8129 -0.4843
  295MOL0     N39741  10.669   3.363   7.732  0.1429  0.0501  0.0916
  295MOL0     C39742   9.522   3.137   7.155  0.5976  0.9735 -0.4343
  295MOL0     C39743   9.388   3.142   7.146  0.1951 -0.4883 -0.4170
  295MOL0     C39744   8.966   3.201   6.967  0.7046 -0.1629  0.4854
  295MOL0     C39745   8.876   3.093   6.999  0.1957  0.0796 -1.1333
  295MOL0     C39746   8.739   3.116   6.982 -0.2387  0.0982 -0.0629
  295MOL0     C39747   8.694   3.236   6.952  0.4950 -0.3262 -0.7047
  295MOL0     O39748   8.556   3.240   6.954 -0.1539 -0.1710 -0.6740
  295MOL0     C39749   8.506   3.368   6.946  0.2812 -0.5706  0.1728
  295MOL0     C39750   8.367   3.364   6.997 -0.1901 -0.0629  0.5318
  295MOL0     C39751   8.299   3.492   6.966 -0.4778  0.2545  0.6747
  295MOL0     C39752   8.165   3.480   7.035 -0.1874  0.0662  0.8015
  295MOL0     C39753   8.072   3.600   7.006  0.1553 -0.3309 -0.1778
  295MOL0     C39754   7.989   3.690   6.995 -0.0935  0.4506 -0.4428
  295MOL0     C39755   8.782   3.343   6.919 -0.2734  0.0840  0.4318
  295MOL0     C39756   8.924   3.330   6.926  0.9748  0.2158 -0.5304
  295MOL0     C39757   9.011   3.450   6.887  0.7277  0.2433  1.0294
  295MOL0     H39758   9.370   3.448   7.031  0.5672 -0.6094 -1.7588
  295MOL0     H39759   9.623   3.448   7.084  3.4691 -2.0792 -2.6502
  295MOL0     H39760   9.817   3.312   6.993  0.0032 -0.6723 -0.7560
  295MOL0     H39761   9.835   3.387   7.156  0.4663 -1.2648  1.6602
  295MOL0     H39762  10.035   3.318   7.044  0.3248 -2.6128 -2.2467
  295MOL0     H39763  10.012   3.145   7.063  0.5452 -0.6387  0.5664
  295MOL0     H39764   9.980   3.180   7.307 -1.0122  0.4994 -0.6770
  295MOL0     H39765  10.011   3.354   7.275  0.5936  1.1901 -2.5004
  295MOL0     H39766  10.206   3.137   7.213 -2.6517  0.1008  0.0205
  295MOL0     H39767  10.227   3.315   7.200  1.1802  0.4745  2.8246
  295MOL0     H39768  10.210   3.356   7.425 -0.8718  1.3624 -2.6674
  295MOL0     H39769  10.183   3.187   7.472 -2.0371  0.4550 -0.4541
  295MOL0     H39770  10.414   3.152   7.348  0.4844  0.5268 -0.8017
  295MOL0     H39771  10.424   3.336   7.340 -0.7556  0.7273  1.2175
  295MOL0     H39772  10.416   3.164   7.578 -1.1755 -1.0957 -3.0583
  295MOL0     H39773  10.432   3.336   7.574  1.4967  0.6235 -0.6805
  295MOL0     H39774  10.656   3.181   7.441  2.4720  0.9055 -0.2339
  295MOL0     H39775  10.634   3.347   7.452 -1.9592 -1.0659 -1.9759
  295MOL0     H39776  10.690   3.049   7.692  0.6880 -0.2665 -0.2557
  295MOL0     H39777  10.693   3.189   8.057 -1.9501 -0.5458 -0.0275
  295MOL0     H39778  10.660   3.036   7.982  1.9189 -1.8068 -1.2499
  295MOL0     H39779  10.922   3.002   7.968  1.3018  1.5334 -0.0003
  295MOL0     H39780  10.936   3.163   8.053  1.7551 -1.1556  2.2262
  295MOL0     H39781  10.815   2.906   8.161 -1.3909  0.1465 -0.9034
  295MOL0     H39782  10.810   3.057   8.237  0.8265 -1.1445  1.2521
  295MOL0     H39783  11.072   2.930   8.146 -1.6509 -2.3661  0.7419
  295MOL0     H39784  11.016   2.923   8.313 -0.1994 -1.1747  0.4133
  295MOL0     H39785  11.273   2.935   8.262  0.4294  0.1190  1.7588
  295MOL0     H39786  11.515   2.986   8.225 -1.2326 -1.0185  0.8369
  295MOL0     H39787  11.758   3.386   7.967  1.7164  1.1093 -1.4687
  295MOL0     H39788  11.971   3.461   7.917 -1.1812 -0.4753 -0.4780
  295MOL0     H39789  12.163   3.548   7.882  3.6674  0.6328 -0.4312
  295MOL0     H39790  12.074   3.694   7.924  1.5020  2.3533 -0.5721
  295MOL0     H39791  12.321   3.772   7.997  2.0633 -1.4371  3.5666
  295MOL0     H39792  12.361   3.606   7.982 -2.4417 -0.8046  1.3680
  295MOL0     H39793  12.319   3.617   7.730 -2.6331 -1.2667  2.6620
  295MOL0     H39794  12.307   3.799   7.753 -1.3300 -0.2526  1.2460
  295MOL0     H39795  12.514   3.695   7.687 -4.1525 -2.8993 -0.5179
  295MOL0     H39796  12.540   3.636   7.854  4.1821  0.6584 -1.9150
  295MOL0     H39797  12.484   3.885   7.915  0.4262 -0.7383  0.3193
  295MOL0     H39798  12.502   3.911   7.737  2.5795  0.0692 -1.5199
  295MOL0     H39799  12.719   3.775   7.900  1.2668  1.0310 -0.2945
  295MOL0     H39800  12.734   3.855   7.749  0.8848  2.3117  0.7468
  295MOL0     H39801  12.812   3.981   7.988 -0.0650  0.3191 -0.7844
  295MOL0     H39802  12.649   4.037   7.980 -0.8413  1.2328  0.0029
  295MOL0     H39803  12.682   4.085   7.737  1.2146  2.7649  0.0905
  295MOL0     H39804  12.778   4.184   7.842 -1.0316  0.0798  0.0512
  295MOL0     H39805  12.054   3.560   8.316 -0.6615  1.4081 -0.3207
  295MOL0     H39806  11.826   3.446   8.388  1.0371 -0.0297  0.5864
  295MOL0     H39807  11.389   3.402   8.168 -0.2003 -0.3066 -3.0448
  295MOL0     H39808  11.170   3.346   8.206 -0.7111 -0.3725  1.1179
  295MOL0     H39809   9.564   3.038   7.172  0.3432  0.9466  0.0466
  295MOL0     H39810   9.317   3.062   7.165 -2.7608  2.2680  1.2268
  295MOL0     H39811   8.909   2.996   7.034  0.4873  0.2691 -0.8711
  295MOL0     H39812   8.664   3.047   7.018  0.7803  0.9333  4.1904
  295MOL0     H39813   8.501   3.400   6.841  0.1876  2.8197  1.1163
  295MOL0     H39814   8.565   3.442   7.000  1.5805 -1.7205  0.3765
  295MOL0     H39815   8.375   3.338   7.103  2.5780 -3.1475 -0.2491
  295MOL0     H39816   8.306   3.287   6.948 -1.9070  0.3387  1.9413
  295MOL0     H39817   8.279   3.505   6.859 -0.9865 -1.0229  0.5956
  295MOL0     H39818   8.346   3.578   7.014 -1.8619  0.3644  1.9278
  295MOL0     H39819   8.116   3.391   6.995 -0.3463 -0.8833  2.9478
  295MOL0     H39820   8.176   3.471   7.144 -0.4389  1.9048  1.0008
  295MOL0     H39821   7.908   3.758   7.013  0.1416  0.7803 -0.6051
  295MOL0     H39822   8.746   3.443   6.894 -0.2247  0.0943  0.4013
  295MOL0     H39823   9.092   3.423   6.819  1.1612  0.4386  1.4583
  295MOL0     H39824   8.950   3.523   6.834  0.9870 -1.7593 -2.2882
  295MOL0     H39825   9.067   3.489   6.973  5.3820 -1.1243 -1.0681
  296MOL0     O39826   6.796  10.058   0.285  0.2099 -0.3812  0.7171
  296MOL0     C39827   6.749   9.945   0.267 -1.3580 -0.4208 -0.4539
  296MOL0     O39828   6.822   9.831   0.248 -0.9350 -0.0535  0.2967
  296MOL0     C39829   6.958   9.831   0.258 -1.0442 -0.3558 -0.3175
  296MOL0     C39830   7.041   9.793   0.148 -0.5057 -1.0881 -0.8574
  296MOL0     C39831   7.178   9.780   0.168 -0.4076 -0.8722  0.1191
  296MOL0     C39832   7.234   9.802   0.292 -0.7458  0.8226 -0.5469
  296MOL0     O39833   7.359   9.760   0.315 -0.5256  0.3390  0.0235
  296MOL0     C39834   7.458   9.816   0.232  0.2636 -0.4489  0.3964
  296MOL0     C39835   7.583   9.722   0.245  0.1384  0.1778  0.2107
  296MOL0     C39836   7.656   9.741   0.374  0.6578 -0.1483  0.4711
  296MOL0     C39837   7.795   9.668   0.374  0.6470  0.1162  0.2377
  296MOL0     C39838   7.896   9.723   0.481 -1.9010  0.2537 -1.0094
  296MOL0     C39839   8.040   9.673   0.449  0.8828 -1.0028  0.1452
  296MOL0     C39840   8.125   9.669   0.577 -0.6839  1.3488 -0.6645
  296MOL0     C39841   8.198   9.799   0.611 -0.6156 -0.1649  0.2248
  296MOL0     N39842   8.285   9.781   0.725 -0.7490 -0.0341 -0.3350
  296MOL0     C39843   8.243   9.729   0.852 -0.8425  0.0123 -0.7072
  296MOL0     C39844   8.353   9.692   0.912 -0.9551 -0.3521  0.3833
  296MOL0     C39845   8.388   9.621   1.039  0.2215  0.7348 -0.6943
  296MOL0     C39846   8.304   9.490   1.068  0.3233 -0.5014  0.2646
  296MOL0     C39847   8.160   9.523   1.114 -0.1350  0.1670  0.3535
  296MOL0     C39848   8.047   9.443   1.032 -0.1080 -1.5366 -0.1899
  296MOL0     O39849   8.084   9.435   0.895 -0.4774  0.5358  0.0098
  296MOL0     C39850   7.989   9.390   0.803 -0.7285 -1.4557 -0.7969
  296MOL0     C39851   7.848   9.403   0.815  0.0174  0.3436  0.7916
  296MOL0     C39852   7.758   9.366   0.710 -0.4200 -0.0094  0.3472
  296MOL0     C39853   7.808   9.323   0.586  0.0644 -0.0108 -0.3739
  296MOL0     C39854   7.713   9.305   0.473  0.7439 -0.7872 -0.6954
  296MOL0     O39855   7.578   9.294   0.506 -0.1149  1.0451  0.2977
  296MOL0     C39856   7.490   9.267   0.400  0.0298  0.5717  0.6539
  296MOL0     C39857   7.408   9.366   0.345 -0.2595 -0.2858  0.3155
  296MOL0     C39858   7.307   9.342   0.252 -0.8191  0.4121  0.7911
  296MOL0     C39859   7.282   9.209   0.208  0.1929 -0.4017  0.5205
  296MOL0     O39860   7.168   9.201   0.125 -0.0275  0.0106 -0.8352
  296MOL0     C39861   7.140   9.076   0.066  0.0413  0.3260 -0.3437
  296MOL0     C39862   7.041   9.090  -0.055  0.3002 -0.4562  0.8474
  296MOL0     C39863   6.985   8.951  -0.102  0.1967  0.3782  0.3548
  296MOL0     C39864   6.857   8.974  -0.190 -0.2791  0.5133 -0.0143
  296MOL0     C39865   6.813   8.851  -0.271 -0.4472  0.4767 -0.2918
  296MOL0     C39866   6.699   8.858  -0.379  0.0337 -0.6840 -1.1267
  296MOL0     C39867   6.651   8.721  -0.432  0.5642 -0.2844 -0.0322
  296MOL0     C39868   6.763   8.635  -0.491 -0.0247  0.1593 -0.4472
  296MOL0    Cl39869   6.848   8.722  -0.623 -0.4297  0.0727 -0.2964
  296MOL0     C39870   7.369   9.110   0.264 -0.4002 -0.3835  0.6143
  296MOL0     C39871   7.471   9.136   0.355  0.3768 -0.4648 -0.3212
  296MOL0     O39872   7.761   9.283   0.364  0.9104  0.5479 -0.5549
  296MOL0     C39873   7.947   9.320   0.572 -1.2406  0.2812 -0.4116
  296MOL0     C39874   8.033   9.337   0.681  0.1423 -0.5863  1.3339
  296MOL0     N39875   8.469   9.736   0.830 -0.0475 -0.0688 -0.9501
  296MOL0     N39876   8.422   9.797   0.725  0.1336 -0.0448 -0.0700
  296MOL0     C39877   7.157   9.849   0.400  0.0245  0.4812  0.1298
  296MOL0     C39878   7.012   9.855   0.384  0.6164  0.8881 -0.5192
  296MOL0     C39879   6.601   9.929   0.271 -0.3162 -0.5918 -0.5161
  296MOL0     C39880   6.519  10.044   0.295 -0.7887  0.0837 -0.4187
  296MOL0     C39881   6.379  10.036   0.288 -0.4865  0.4647 -0.4923
  296MOL0     C39882   6.317   9.909   0.270 -0.9590 -0.5539 -0.8849
  296MOL0     O39883   6.183   9.901   0.257  0.2886  0.6464  0.0934
  296MOL0     C39884   6.106   9.805   0.340  0.2055  0.1338 -0.4473
  296MOL0     C39885   5.983   9.872   0.399 -0.0714 -0.3889 -0.2468
  296MOL0     C39886   6.028   9.962   0.514  0.3670 -1.0396  0.1248
  296MOL0     C39887   5.941  10.082   0.547  0.9057 -0.4358  0.3096
  296MOL0     C39888   6.006  10.152   0.655  0.2172  0.4560 -0.3927
  296MOL0     C39889   6.049  10.192   0.761 -0.2642  0.1638  0.0140
  296MOL0     C39890   6.392   9.792   0.262 -0.2977  0.2805  0.6651
  296MOL0     C39891   6.539   9.800   0.265 -0.5401  0.8856 -0.1465
  296MOL0     C39892   6.608   9.664   0.236 -0.0930  0.3714 -0.0579
  296MOL0     H39893   7.005   9.771   0.048 -1.2784 -0.9329 -0.6235
  296MOL0     H39894   7.231   9.740   0.082 -2.1813  0.2301 -1.5710
  296MOL0     H39895   7.421   9.816   0.129 -1.7459 -0.4180  1.0740
  296MOL0     H39896   7.483   9.915   0.271  0.2909 -0.9142  1.5990
  296MOL0     H39897   7.655   9.739   0.164 -2.1422 -1.2824 -2.2770
  296MOL0     H39898   7.554   9.618   0.232  0.4645  0.0108  0.7731
  296MOL0     H39899   7.604   9.697   0.460 -0.0993  2.0441  1.2172
  296MOL0     H39900   7.670   9.848   0.393 -0.6398  0.0835  0.1896
  296MOL0     H39901   7.761   9.566   0.392  1.0739 -0.3971 -1.6590
  296MOL0     H39902   7.843   9.685   0.277 -3.1761  1.9506 -1.5454
  296MOL0     H39903   7.912   9.830   0.467  0.3767 -0.0924 -1.4030
  296MOL0     H39904   7.872   9.701   0.585  0.5531  0.5129 -0.3265
  296MOL0     H39905   8.035   9.572   0.406 -0.3642  0.6978 -4.3652
  296MOL0     H39906   8.076   9.746   0.375 -1.3299  0.2088  0.1612
  296MOL0     H39907   8.197   9.587   0.567 -2.4390 -1.1751  4.1383
  296MOL0     H39908   8.064   9.630   0.659  0.6229  1.6623  0.4934
  296MOL0     H39909   8.265   9.822   0.528 -0.5580 -3.3059 -0.7267
  296MOL0     H39910   8.128   9.882   0.627  1.0447  1.2796  0.2435
  296MOL0     H39911   8.143   9.705   0.886 -0.6539 -2.3977 -1.6575
  296MOL0     H39912   8.491   9.587   1.035 -0.7957 -2.7997 -0.0878
  296MOL0     H39913   8.373   9.696   1.117 -0.5878  0.7390 -0.8370
  296MOL0     H39914   8.305   9.416   0.987 -0.3127 -3.3979  2.7167
  296MOL0     H39915   8.348   9.439   1.154 -2.1965  1.2706  2.7870
  296MOL0     H39916   8.134   9.626   1.089  0.7604  0.0132 -1.3755
  296MOL0     H39917   8.158   9.509   1.223  2.2926 -1.4384  0.2698
  296MOL0     H39918   7.948   9.490   1.044 -0.0291 -1.3977 -0.0777
  296MOL0     H39919   8.038   9.341   1.070 -2.4723 -2.8535 -3.7661
  296MOL0     H39920   7.800   9.445   0.903 -0.7204 -0.5593  0.8258
  296MOL0     H39921   7.652   9.354   0.732 -0.5808  1.4800  0.5270
  296MOL0     H39922   7.430   9.462   0.391  0.7390 -1.5721  2.6716
  296MOL0     H39923   7.254   9.415   0.192  0.7689 -0.9116 -2.4988
  296MOL0     H39924   7.226   9.014   0.041  0.2155 -0.5637  2.2053
  296MOL0     H39925   7.081   9.031   0.147  2.3796  0.1719  1.3449
  296MOL0     H39926   6.951   9.148  -0.034  0.9580  0.9011  0.0055
  296MOL0     H39927   7.091   9.150  -0.131  1.0627  2.3971  3.4320
  296MOL0     H39928   7.061   8.908  -0.167 -0.2344  1.8710 -1.2175
  296MOL0     H39929   6.964   8.886  -0.017  3.0288  1.7881  2.3085
  296MOL0     H39930   6.873   9.053  -0.264  1.2113  2.0959  1.8420
  296MOL0     H39931   6.770   9.007  -0.132 -0.8477 -2.4258  0.9608
  296MOL0     H39932   6.793   8.766  -0.205 -1.2741  0.2229 -0.8523
  296MOL0     H39933   6.896   8.814  -0.332 -1.6854  0.7752 -2.2408
  296MOL0     H39934   6.618   8.908  -0.325  3.1857  2.2378  1.2690
  296MOL0     H39935   6.740   8.927  -0.454  2.1065  0.4116  0.9003
  296MOL0     H39936   6.571   8.732  -0.506 -0.7239  0.8501  1.4612
  296MOL0     H39937   6.608   8.669  -0.346 -0.0347  0.7381  0.2873
  296MOL0     H39938   6.827   8.623  -0.403  0.8074  3.1603 -0.5296
  296MOL0     H39939   6.721   8.540  -0.524  0.5459 -0.6439  1.0177
  296MOL0     H39940   7.349   9.006   0.237  0.8217 -0.2332 -1.0309
  296MOL0     H39941   7.532   9.059   0.400  0.3139 -0.0225  0.5260
  296MOL0     H39942   7.993   9.290   0.478  0.2616 -0.7041  0.5935
  296MOL0     H39943   8.141   9.338   0.669  0.1157 -0.0541  1.0877
  296MOL0     H39944   7.194   9.857   0.502 -0.5976  0.3939  0.3712
  296MOL0     H39945   6.950   9.865   0.472 -1.0648 -5.2187 -0.5617
  296MOL0     H39946   6.567  10.140   0.307 -0.2324 -0.2224 -0.1444
  296MOL0     H39947   6.321  10.127   0.297 -0.1653  0.5904  0.4280
  296MOL0     H39948   6.156   9.741   0.413 -0.8090 -0.2745 -0.0839
  296MOL0     H39949   6.073   9.735   0.263  1.4186 -1.1298  0.1440
  296MOL0     H39950   5.911   9.801   0.441 -0.2243  0.3022  0.7023
  296MOL0     H39951   5.939   9.929   0.316  0.7656 -0.9191 -1.0640
  296MOL0     H39952   6.126  10.000   0.485 -1.2200  3.2580 -0.3340
  296MOL0     H39953   6.042   9.896   0.600 -3.4241 -0.8813  1.0318
  296MOL0     H39954   5.927  10.148   0.460  0.8858 -0.7452  0.0762
  296MOL0     H39955   5.840  10.048   0.572 -0.0649  0.9315 -1.4959
  296MOL0     H39956   6.088  10.222   0.856 -2.3907  0.0786  0.9796
  296MOL0     H39957   6.344   9.695   0.252 -2.0037  0.9699  1.7922
  296MOL0     H39958   6.681   9.646   0.316  0.5319  0.6626 -0.5567
  296MOL0     H39959   6.544   9.578   0.212 -0.8226  1.3920 -2.0187
  296MOL0     H39960   6.653   9.685   0.139  2.7854  1.2492  1.3666
  297MOL0     O39961   6.962   6.049  10.112  0.3492  0.1846  0.9176
  297MOL0     C39962   7.048   6.028  10.034 -0.3890  0.7773  0.4069
  297MOL0     O39963   7.175   6.070  10.050 -0.0773 -0.4474  0.2937
  297MOL0     C39964   7.218   6.142  10.152 -0.3010  0.0259  0.2644
  297MOL0     C39965   7.152   6.251  10.204  1.2116  0.2345 -0.6870
  297MOL0     C39966   7.211   6.341  10.289  0.1906  0.6243 -0.2869
  297MOL0     C39967   7.343   6.322  10.335  0.2520 -0.0278 -0.1806
  297MOL0     O39968   7.404   6.416  10.415 -0.1846  0.3369 -0.2332
  297MOL0     C39969   7.544   6.394  10.460  0.3642 -0.6642  0.1434
  297MOL0     C39970   7.585   6.522  10.531 -0.4754 -0.2380 -0.3522
  297MOL0     C39971   7.608   6.636  10.427 -0.7421  1.0077 -0.0221
  297MOL0     C39972   7.721   6.610  10.311 -0.2479  0.0489 -0.8154
  297MOL0     C39973   7.861   6.575  10.372 -0.2928 -0.1973  0.3732
  297MOL0     C39974   7.904   6.681  10.472 -0.1210 -0.1696  0.7048
  297MOL0     C39975   8.046   6.655  10.521  0.1567  0.1988  0.6057
  297MOL0     C39976   8.098   6.771  10.611 -0.1497  0.7774  0.0359
  297MOL0     N39977   8.238   6.754  10.641  0.4951  0.6867 -0.2086
  297MOL0     C39978   8.288   6.649  10.709  0.0355  1.0971 -0.3955
  297MOL0     C39979   8.419   6.674  10.721  0.0045 -0.9233  0.1020
  297MOL0     C39980   8.519   6.593  10.809 -0.9407 -0.7433  0.7549
  297MOL0     C39981   8.669   6.634  10.809  0.5268 -0.1978  0.5280
  297MOL0     C39982   8.728   6.601  10.673 -0.4081  0.6825  0.1671
  297MOL0     C39983   8.869   6.665  10.643 -0.1591  0.5366  0.5371
  297MOL0     O39984   8.954   6.641  10.753  0.0558  0.1627  0.7304
  297MOL0     C39985   9.079   6.701  10.765  0.4935  0.0254  0.1321
  297MOL0     C39986   9.159   6.661  10.866 -0.3777 -1.1031 -0.9612
  297MOL0     C39987   9.288   6.716  10.884  0.9372 -0.1433  0.4428
  297MOL0     C39988   9.329   6.817  10.795  0.6983  0.6481 -0.1040
  297MOL0     C39989   9.463   6.872  10.815 -0.0967  0.0552 -0.2368
  297MOL0     O39990   9.487   7.000  10.762  0.2419  0.3584  0.1987
  297MOL0     C39991   9.613   7.042  10.789  0.3721 -0.0004  0.0681
  297MOL0     C39992   9.644   7.082  10.920 -0.8632 -0.0262  0.2013
  297MOL0     C39993   9.747   7.173  10.935  0.6237  0.5365 -0.6316
  297MOL0     C39994   9.829   7.222  10.830 -0.6057 -0.4117  0.7996
  297MOL0     O39995   9.940   7.301  10.848 -0.2756 -0.1461  0.4454
  297MOL0     C39996   9.964   7.352  10.978  0.6843 -0.6646 -0.5983
  297MOL0     C39997  10.104   7.416  10.980  0.4322 -0.3877 -0.1487
  297MOL0     C39998  10.213   7.316  10.981 -0.1432 -0.3338  0.2236
  297MOL0     C39999  10.352   7.387  10.994  0.1005 -0.1827  1.0748
  297MOL0     C40000  10.439   7.282  11.064 -0.0839  0.1162  0.0991
  297MOL0     C40001  10.573   7.343  11.112  0.0163  0.3404  0.7260
  297MOL0     C40002  10.554   7.459  11.215  0.3538  0.1805 -0.1627
  297MOL0     C40003  10.467   7.424  11.339  0.2262  0.5490 -0.0334
  297MOL0    Cl40004  10.457   7.570  11.445  0.1960  0.1594  0.5588
  297MOL0     C40005   9.795   7.180  10.703  0.1723 -0.6119  0.7340
  297MOL0     C40006   9.688   7.080  10.678 -0.2946 -0.6033 -0.2137
  297MOL0     O40007   9.538   6.807  10.883 -0.5899 -0.1420 -0.1858
  297MOL0     C40008   9.243   6.853  10.687 -0.4758 -0.2283 -0.6069
  297MOL0     C40009   9.122   6.798  10.672 -0.5560  0.1371  0.2540
  297MOL0     N40010   8.453   6.782  10.643  0.0893 -0.9050 -0.3410
  297MOL0     N40011   8.340   6.842  10.619  0.5101  0.3200  0.3850
  297MOL0     C40012   7.411   6.212  10.280  0.0267 -0.9697 -0.1862
  297MOL0     C40013   7.352   6.122  10.191  0.5709  0.9163 -0.3884
  297MOL0     C40014   7.004   5.953   9.916  0.7818  1.3319  0.6227
  297MOL0     C40015   6.868   5.954   9.878 -0.2752  0.3441 -0.5627
  297MOL0     C40016   6.824   5.867   9.781 -0.8014 -0.2905  0.8791
  297MOL0     C40017   6.917   5.797   9.701 -0.0363 -0.5707 -0.4188
  297MOL0     O40018   6.886   5.721   9.588  0.6360  0.1501  0.2036
  297MOL0     C40019   6.760   5.654   9.576 -0.7010 -0.2591  0.1146
  297MOL0     C40020   6.754   5.570   9.452 -0.0559  0.5903 -0.0869
  297MOL0     C40021   6.647   5.454   9.470  0.1850 -0.2224  0.7351
  297MOL0     C40022   6.500   5.494   9.452 -0.5642  0.2802 -0.4171
  297MOL0     C40023   6.466   5.515   9.308  0.8900 -0.5667 -0.6005
  297MOL0     C40024   6.436   5.512   9.193  0.3300  0.3013  0.9773
  297MOL0     C40025   7.052   5.804   9.733 -0.1492 -0.0267  0.0182
  297MOL0     C40026   7.097   5.873   9.841 -0.1765 -0.0155 -0.0985
  297MOL0     C40027   7.244   5.864   9.867  0.0622  0.1447 -0.0542
  297MOL0     H40028   7.053   6.280  10.169  1.4416  1.8605 -0.0507
  297MOL0     H40029   7.166   6.433  10.325 -0.8535  0.0926 -0.2151
  297MOL0     H40030   7.562   6.305  10.521 -1.1427 -1.0425  0.0828
  297MOL0     H40031   7.609   6.378  10.374 -0.6542  1.5702 -1.1063
  297MOL0     H40032   7.678   6.497  10.583 -0.5455 -0.9474 -0.5602
  297MOL0     H40033   7.517   6.559  10.608 -0.8417  0.9847 -1.2325
  297MOL0     H40034   7.616   6.730  10.482 -4.0816  0.2150  2.1466
  297MOL0     H40035   7.511   6.634  10.375 -0.1921  1.2067 -1.0728
  297MOL0     H40036   7.684   6.526  10.252  0.5062 -1.2098  0.4355
  297MOL0     H40037   7.728   6.703  10.253 -1.0898 -1.2036 -3.0429
  297MOL0     H40038   7.847   6.475  10.414  0.7246 -0.2451  0.6075
  297MOL0     H40039   7.920   6.581  10.281 -0.5884  1.5801  0.2655
  297MOL0     H40040   7.898   6.778  10.423 -1.7325 -1.7237 -2.4342
  297MOL0     H40041   7.842   6.680  10.562 -2.2002  3.6010 -0.4693
  297MOL0     H40042   8.126   6.648  10.447  2.2255  3.3717  2.3315
  297MOL0     H40043   8.056   6.560  10.576  0.2873  0.3973  0.9277
  297MOL0     H40044   8.084   6.863  10.555 -1.7259 -1.1212 -3.0004
  297MOL0     H40045   8.042   6.763  10.705  0.8063  0.6660  0.6111
  297MOL0     H40046   8.246   6.567  10.767 -0.4803  1.0052 -0.8887
  297MOL0     H40047   8.484   6.597  10.913 -1.5512 -0.2317  0.5350
  297MOL0     H40048   8.506   6.489  10.778 -0.1330 -1.2362  1.9771
  297MOL0     H40049   8.675   6.742  10.827 -2.3944 -0.0747  1.3910
  297MOL0     H40050   8.724   6.579  10.885 -0.8021 -1.8489  0.3410
  297MOL0     H40051   8.672   6.620  10.581  0.4708 -1.1733 -0.7917
  297MOL0     H40052   8.740   6.493  10.677  0.0253  0.6170 -1.9712
  297MOL0     H40053   8.856   6.770  10.617  1.0276 -0.0591 -2.9679
  297MOL0     H40054   8.920   6.620  10.557  0.8085 -0.4996  1.6166
  297MOL0     H40055   9.118   6.585  10.932 -1.3227 -0.8482 -1.2387
  297MOL0     H40056   9.347   6.700  10.974  0.9749  0.3585  0.5077
  297MOL0     H40057   9.570   7.047  10.992  0.9044 -1.8333  1.2554
  297MOL0     H40058   9.775   7.221  11.028  0.2515  1.9792 -1.2371
  297MOL0     H40059   9.899   7.434  11.010  1.5794 -1.0416  2.5017
  297MOL0     H40060   9.966   7.275  11.056  2.0150  1.0347  1.1462
  297MOL0     H40061  10.112   7.478  10.890  1.4967 -0.3922 -0.0674
  297MOL0     H40062  10.117   7.487  11.062  0.7703  2.4914 -2.5209
  297MOL0     H40063  10.203   7.232  11.051  1.6684  0.2452  1.2563
  297MOL0     H40064  10.208   7.282  10.877  0.8816  0.5180 -0.1147
  297MOL0     H40065  10.339   7.485  11.041  0.3512  0.3347  0.0879
  297MOL0     H40066  10.395   7.404  10.895 -0.6053 -0.2315  0.7522
  297MOL0     H40067  10.455   7.202  10.992  1.7018  1.2821 -0.8709
  297MOL0     H40068  10.400   7.229  11.152  1.4010  0.1173  0.7800
  297MOL0     H40069  10.633   7.264  11.159  0.6601  0.8132  0.7000
  297MOL0     H40070  10.631   7.377  11.026 -1.6002  1.4677  0.0421
  297MOL0     H40071  10.519   7.542  11.154 -0.3816 -0.1559 -0.2133
  297MOL0     H40072  10.657   7.476  11.248  0.9959 -0.6662 -1.6460
  297MOL0     H40073  10.369   7.402  11.296  1.4034  0.9650 -3.1579
  297MOL0     H40074  10.513   7.338  11.390  1.9350  1.6735  0.4072
  297MOL0     H40075   9.843   7.225  10.617 -1.0736  0.4449  0.5527
  297MOL0     H40076   9.673   7.057  10.573  2.9873  1.7349 -1.3714
  297MOL0     H40077   9.276   6.943  10.635  1.8699  1.2162  3.0166
  297MOL0     H40078   9.064   6.842  10.591  1.3619 -0.8846 -1.7698
  297MOL0     H40079   7.511   6.192  10.316  0.1536 -0.3183 -0.1606
  297MOL0     H40080   7.405   6.041  10.143  0.5925 -2.0717  4.0482
  297MOL0     H40081   6.799   6.031   9.909 -2.4619 -1.8233  0.2531
  297MOL0     H40082   6.717   5.862   9.764 -1.1012  1.8382  1.8875
  297MOL0     H40083   6.680   5.728   9.571  1.3137  1.9311 -2.3991
  297MOL0     H40084   6.769   5.595   9.668  2.7038  1.3618  1.0245
  297MOL0     H40085   6.848   5.515   9.437 -0.9484 -1.1775  0.5451
  297MOL0     H40086   6.733   5.625   9.360  0.7107 -0.5017 -0.9448
  297MOL0     H40087   6.658   5.418   9.573  3.4557 -0.2396  0.4869
  297MOL0     H40088   6.673   5.364   9.412  1.4146 -2.4407  4.3473
  297MOL0     H40089   6.431   5.420   9.493  1.0479  0.7858  3.7157
  297MOL0     H40090   6.477   5.589   9.500 -1.3447 -1.0540  2.0065
  297MOL0     H40091   6.404   5.498   9.091  1.8339 -1.1577  0.6662
  297MOL0     H40092   7.110   5.739   9.667  1.4323  1.8209 -0.4853
  297MOL0     H40093   7.286   5.964   9.852 -0.4791  0.3570 -0.1601
  297MOL0     H40094   7.261   5.828   9.969  1.2035 -0.1306 -0.3254
  297MOL0     H40095   7.308   5.808   9.799  1.5059 -0.2465  1.5546
  298MOL0     O40096   9.553   1.717   5.438 -0.0663 -0.0185 -1.1577
  298MOL0     C40097   9.638   1.624   5.419  0.5169 -0.7513  0.8825
  298MOL0     O40098   9.761   1.643   5.359  0.4303  0.1920  0.1584
  298MOL0     C40099   9.810   1.767   5.380  0.0013  0.4257 -1.2766
  298MOL0     C40100   9.764   1.876   5.303 -1.5677 -0.7931 -0.0978
  298MOL0     C40101   9.818   2.009   5.326 -0.0623  0.1262 -0.3553
  298MOL0     C40102   9.904   2.025   5.441 -0.1819 -0.6986 -0.6419
  298MOL0     O40103   9.952   2.151   5.475  0.5075 -0.6814 -0.2986
  298MOL0     C40104   9.973   2.257   5.374  0.2004  0.0108 -0.4070
  298MOL0     C40105  10.084   2.346   5.423 -0.2764 -0.4909  0.2598
  298MOL0     C40106  10.232   2.302   5.403  0.4117  0.2107  0.0239
  298MOL0     C40107  10.257   2.186   5.498  0.6340 -0.7914  0.4693
  298MOL0     C40108  10.407   2.149   5.492 -0.5755 -0.4841 -0.0699
  298MOL0     C40109  10.436   2.065   5.614 -0.1423 -0.7083  0.3337
  298MOL0     C40110  10.458   2.147   5.741 -0.2407 -0.7437 -0.0867
  298MOL0     C40111  10.495   2.061   5.862  0.8195  0.0651 -0.0305
  298MOL0     N40112  10.602   1.974   5.832  0.2486 -0.1887 -0.2723
  298MOL0     C40113  10.735   2.010   5.807 -0.4501  0.0584 -0.5388
  298MOL0     C40114  10.800   1.886   5.791  1.2509  0.0355 -0.1370
  298MOL0     C40115  10.949   1.866   5.785 -0.5088  0.2683  0.8017
  298MOL0     C40116  11.010   1.937   5.667  0.8644  0.6083 -0.2733
  298MOL0     C40117  11.045   1.842   5.560 -0.6463 -0.5905  0.1110
  298MOL0     C40118  10.929   1.773   5.482  0.1223 -0.1457  1.4457
  298MOL0     O40119  10.852   1.876   5.409  0.0985  0.3483  0.0680
  298MOL0     C40120  10.754   1.823   5.330 -0.1635  0.0995  1.2453
  298MOL0     C40121  10.628   1.798   5.379 -0.1020  0.2729  0.0066
  298MOL0     C40122  10.517   1.762   5.302  0.1728  0.0547 -0.3441
  298MOL0     C40123  10.538   1.726   5.169  0.7939 -0.2409  0.2565
  298MOL0     C40124  10.412   1.693   5.085 -0.0509 -0.0686 -0.3579
  298MOL0     O40125  10.293   1.690   5.158  0.3321 -0.5364  0.0979
  298MOL0     C40126  10.176   1.650   5.104 -0.2685  0.2547 -0.5433
  298MOL0     C40127  10.129   1.684   4.975 -0.3831  0.5073  0.0330
  298MOL0     C40128  10.005   1.638   4.921  0.6497 -0.2088 -0.2658
  298MOL0     C40129   9.913   1.574   5.009 -0.5032  0.5608  0.9175
  298MOL0     O40130   9.796   1.531   4.951  0.4234 -0.0893 -0.3440
  298MOL0     C40131   9.685   1.517   5.040 -0.0465  0.2240 -0.9236
  298MOL0     C40132   9.560   1.505   4.955  0.1447  0.0843  0.2899
  298MOL0     C40133   9.447   1.465   5.048  0.3131  0.8199 -0.3565
  298MOL0     C40134   9.309   1.462   4.969 -0.2558 -0.1139 -0.2936
  298MOL0     C40135   9.197   1.457   5.078 -0.0020 -0.1195 -0.3018
  298MOL0     C40136   9.181   1.316   5.136 -0.8326  0.0760  0.2139
  298MOL0     C40137   9.057   1.306   5.219  0.8390  0.5238 -0.2580
  298MOL0     C40138   9.077   1.173   5.305  0.1762  0.0859 -0.6281
  298MOL0    Cl40139   9.054   1.028   5.214 -0.0863 -0.0212  0.0213
  298MOL0     C40140   9.961   1.535   5.132  0.1722 -0.0859 -0.6575
  298MOL0     C40141  10.086   1.576   5.180 -0.3773 -0.2624 -0.2992
  298MOL0     O40142  10.428   1.642   4.973  0.1986 -0.2206 -0.2491
  298MOL0     C40143  10.675   1.737   5.118  0.4130 -0.4067  0.2935
  298MOL0     C40144  10.780   1.788   5.195 -0.2432 -0.1285  0.0681
  298MOL0     N40145  10.706   1.787   5.791  0.7176  0.0240 -0.2456
  298MOL0     N40146  10.594   1.837   5.820 -1.0742 -0.3861 -0.3764
  298MOL0     C40147   9.931   1.921   5.522  0.3047 -0.0513 -0.0917
  298MOL0     C40148   9.884   1.791   5.492 -0.0883  0.2419 -0.9230
  298MOL0     C40149   9.603   1.485   5.459  0.8536 -0.1381 -0.1320
  298MOL0     C40150   9.674   1.378   5.408  0.1589  1.0354 -0.6904
  298MOL0     C40151   9.639   1.244   5.428 -0.1844  0.3525 -0.2773
  298MOL0     C40152   9.526   1.217   5.510 -0.3324 -0.5251  0.8686
  298MOL0     O40153   9.490   1.086   5.535  0.0195 -0.8048  0.1615
  298MOL0     C40154   9.552   0.984   5.464  0.2851 -0.1285  0.2042
  298MOL0     C40155   9.453   0.876   5.502 -0.4347  0.1014 -0.1117
  298MOL0     C40156   9.497   0.749   5.421  0.1944 -0.4567  0.2968
  298MOL0     C40157   9.619   0.682   5.493  0.1739 -0.9050  0.1734
  298MOL0     C40158   9.705   0.611   5.393  0.4892  0.2435  1.0691
  298MOL0     C40159   9.755   0.544   5.305  0.8087  0.0376  0.1113
  298MOL0     C40160   9.458   1.317   5.574  0.6763 -0.2253  0.1595
  298MOL0     C40161   9.488   1.453   5.547  0.4167  0.1509 -0.1863
  298MOL0     C40162   9.397   1.558   5.611 -0.1751 -0.8248 -0.5695
  298MOL0     H40163   9.714   1.859   5.208  1.1942 -1.7432 -1.4904
  298MOL0     H40164   9.779   2.093   5.270 -0.3931  1.4532  1.7632
  298MOL0     H40165   9.997   2.222   5.274  0.7040  2.3930 -1.1970
  298MOL0     H40166   9.878   2.312   5.372 -1.1305 -2.1588 -2.7066
  298MOL0     H40167  10.060   2.373   5.526  1.0780 -0.8614  0.6922
  298MOL0     H40168  10.081   2.432   5.355  0.6691 -1.8899 -1.6565
  298MOL0     H40169  10.299   2.385   5.426 -1.3397  2.0928 -1.2920
  298MOL0     H40170  10.256   2.267   5.302 -0.3868  0.7186 -0.3470
  298MOL0     H40171  10.230   2.227   5.595 -1.2570  0.9092 -0.6954
  298MOL0     H40172  10.195   2.100   5.472 -2.9023  2.2073 -1.9903
  298MOL0     H40173  10.411   2.083   5.405 -0.6411 -0.9906  0.3013
  298MOL0     H40174  10.481   2.228   5.476  0.6133 -1.5932 -0.2986
  298MOL0     H40175  10.352   2.001   5.641  0.3732 -1.6032 -0.1259
  298MOL0     H40176  10.521   2.000   5.592  0.1331 -0.1747 -0.2112
  298MOL0     H40177  10.363   2.199   5.762  0.2510 -0.4480  1.5492
  298MOL0     H40178  10.544   2.214   5.730 -1.0028  0.5359  1.3163
  298MOL0     H40179  10.525   2.131   5.940  0.4194  2.6075 -2.0015
  298MOL0     H40180  10.411   2.007   5.906  0.7081  0.7867  0.6702
  298MOL0     H40181  10.791   2.102   5.793  0.0893 -0.2709 -0.5771
  298MOL0     H40182  10.997   1.893   5.879 -1.4535  0.1327  1.3319
  298MOL0     H40183  10.966   1.760   5.763 -2.7844  0.0622 -0.3025
  298MOL0     H40184  10.943   2.011   5.624 -1.2088  0.2183  2.0254
  298MOL0     H40185  11.098   1.993   5.699  0.7103  2.7651 -3.2672
  298MOL0     H40186  11.101   1.763   5.611 -1.9714 -0.9438  1.0732
  298MOL0     H40187  11.115   1.897   5.497 -0.5174 -1.1026 -0.2039
  298MOL0     H40188  10.864   1.711   5.544  0.6029 -0.9767  1.1487
  298MOL0     H40189  10.983   1.713   5.408  2.0713  1.7301  1.2231
  298MOL0     H40190  10.620   1.836   5.481  3.5042  1.8083 -0.1349
  298MOL0     H40191  10.418   1.773   5.344  1.4616  1.3091  2.7190
  298MOL0     H40192  10.199   1.748   4.923 -1.9847  2.0865 -0.2728
  298MOL0     H40193   9.961   1.664   4.825 -0.4835  0.0329  0.2944
  298MOL0     H40194   9.688   1.431   5.107 -4.6032  0.3855 -0.1796
  298MOL0     H40195   9.691   1.599   5.113  3.1026  1.2632 -2.1469
  298MOL0     H40196   9.547   1.598   4.900  1.7196  0.3729  0.3413
  298MOL0     H40197   9.569   1.419   4.888 -1.9367  0.1001 -0.0522
  298MOL0     H40198   9.475   1.367   5.086  0.9062  0.0942 -2.5106
  298MOL0     H40199   9.429   1.536   5.130 -1.1440  0.7335 -0.5649
  298MOL0     H40200   9.302   1.372   4.909  0.6878 -0.7936  0.5773
  298MOL0     H40201   9.299   1.555   4.912 -1.1923  1.2943  1.9852
  298MOL0     H40202   9.099   1.468   5.029  0.8284  1.3184 -1.7120
  298MOL0     H40203   9.207   1.536   5.152 -4.8806  1.9140 -1.4254
  298MOL0     H40204   9.171   1.249   5.050 -0.2463 -1.8323  1.5453
  298MOL0     H40205   9.268   1.299   5.200 -0.7763  2.9269  1.0394
  298MOL0     H40206   8.970   1.295   5.152  0.4874 -0.8193  0.3807
  298MOL0     H40207   9.026   1.389   5.282 -0.8635 -1.0205  1.0591
  298MOL0     H40208   9.174   1.174   5.356  0.1894  1.2666 -0.6487
  298MOL0     H40209   9.004   1.181   5.386 -0.0717 -3.8958 -0.2508
  298MOL0     H40210   9.896   1.488   5.204  1.1401 -0.4610 -0.0060
  298MOL0     H40211  10.127   1.552   5.278  0.2962 -4.7122 -1.4820
  298MOL0     H40212  10.701   1.698   5.020  0.4331 -0.7578  0.4385
  298MOL0     H40213  10.875   1.809   5.146 -0.8584  1.3067 -0.5487
  298MOL0     H40214   9.991   1.937   5.611 -3.0018  1.0431  2.1265
  298MOL0     H40215   9.917   1.707   5.551  1.9381 -0.0367 -2.3575
  298MOL0     H40216   9.753   1.401   5.337  0.8337 -0.6060 -0.5237
  298MOL0     H40217   9.706   1.168   5.390  1.9075  1.0812  1.7377
  298MOL0     H40218   9.652   0.968   5.507  1.3573  2.1071 -1.2594
  298MOL0     H40219   9.560   0.998   5.355  0.7969 -1.2270  0.0825
  298MOL0     H40220   9.353   0.910   5.473  0.1632  2.1365  0.0533
  298MOL0     H40221   9.448   0.848   5.607 -2.7157 -2.8796 -0.9072
  298MOL0     H40222   9.524   0.781   5.320 -0.1720  0.8262  0.5808
  298MOL0     H40223   9.410   0.683   5.418  0.3929 -0.9048  2.5443
  298MOL0     H40224   9.677   0.751   5.555 -1.3808  0.5352  0.1227
  298MOL0     H40225   9.583   0.606   5.563 -1.3278 -0.7723 -0.4068
  298MOL0     H40226   9.818   0.509   5.225 -0.9490 -1.5661 -0.6317
  298MOL0     H40227   9.379   1.286   5.642  0.7051 -1.3456 -0.2970
  298MOL0     H40228   9.327   1.602   5.540 -1.0482  0.3787  0.9581
  298MOL0     H40229   9.334   1.529   5.695 -1.1463  1.0659 -0.5841
  298MOL0     H40230   9.471   1.630   5.648 -0.6516 -0.8373  0.4468
  299MOL0     O40231   5.913   6.064   4.138 -0.5170 -0.4611  0.3075
  299MOL0     C40232   5.909   6.138   4.238 -0.3027 -0.9196 -0.4356
  299MOL0     O40233   5.995   6.237   4.270  0.0693 -0.2031  0.5827
  299MOL0     C40234   6.099   6.257   4.177  0.3291 -0.6926 -0.4972
  299MOL0     C40235   6.110   6.380   4.117  0.3715 -0.5126 -0.3345
  299MOL0     C40236   6.218   6.415   4.032 -0.5516 -0.3144 -1.0944
  299MOL0     C40237   6.318   6.324   4.014  0.1380 -0.3365 -0.8528
  299MOL0     O40238   6.425   6.359   3.931  0.5907 -0.7311 -0.6924
  299MOL0     C40239   6.508   6.256   3.864  0.7180 -0.7522  0.3016
  299MOL0     C40240   6.596   6.300   3.753  0.1296  0.2259  1.5902
  299MOL0     C40241   6.704   6.398   3.800  0.0830  0.5975  0.6445
  299MOL0     C40242   6.821   6.325   3.881 -0.0516 -0.5867  0.4948
  299MOL0     C40243   6.933   6.421   3.903  0.4385  0.1111 -1.0723
  299MOL0     C40244   6.925   6.486   4.041  0.5213  0.1319  0.0762
  299MOL0     C40245   7.020   6.612   4.033 -0.5136  0.0395 -0.6298
  299MOL0     C40246   7.006   6.695   4.155 -0.3912  0.3638 -0.6345
  299MOL0     N40247   7.051   6.619   4.273  0.3924 -1.5319 -0.0155
  299MOL0     C40248   6.973   6.560   4.372 -0.4335 -0.0985  0.0705
  299MOL0     C40249   7.062   6.515   4.464 -0.2497 -0.1309  0.3410
  299MOL0     C40250   7.036   6.442   4.588 -0.1227 -0.0256  0.4968
  299MOL0     C40251   7.023   6.538   4.712  0.3074 -0.7131 -0.8733
  299MOL0     C40252   6.989   6.459   4.838  0.4125 -0.3988  0.6062
  299MOL0     C40253   7.102   6.416   4.925  0.4594  0.5676  0.3825
  299MOL0     O40254   7.218   6.496   4.909 -0.1299  0.1006 -0.1596
  299MOL0     C40255   7.328   6.430   4.859 -0.3383 -0.4562 -0.0013
  299MOL0     C40256   7.410   6.355   4.945 -0.0879  0.1782  0.5097
  299MOL0     C40257   7.531   6.301   4.896 -0.4782 -0.2157  0.1661
  299MOL0     C40258   7.564   6.300   4.762  0.1314 -0.7823 -0.1191
  299MOL0     C40259   7.683   6.239   4.715 -0.0231 -0.1981  0.1998
  299MOL0     O40260   7.725   6.263   4.582 -0.0306  0.1509 -0.0661
  299MOL0     C40261   7.807   6.169   4.519  0.6796 -0.0450  0.0988
  299MOL0     C40262   7.935   6.155   4.565  0.3417 -0.0364 -0.1511
  299MOL0     C40263   8.032   6.072   4.499  0.7475  0.5815 -1.0893
  299MOL0     C40264   8.001   6.019   4.382  0.1793  1.1294 -0.6697
  299MOL0     O40265   8.098   5.949   4.323  0.0368  0.2677  0.2080
  299MOL0     C40266   8.075   5.883   4.197  0.3583 -0.3630  0.6072
  299MOL0     C40267   8.197   5.802   4.158 -0.1897 -0.2117  0.1028
  299MOL0     C40268   8.222   5.770   4.007  0.6205  0.0195  0.1788
  299MOL0     C40269   8.088   5.737   3.925  0.5510 -0.2186 -0.2634
  299MOL0     C40270   8.109   5.705   3.783  0.0665 -1.2478  0.6082
  299MOL0     C40271   7.972   5.705   3.713 -0.2587  0.6690 -0.7432
  299MOL0     C40272   7.983   5.702   3.553  0.0443 -0.3437  0.4070
  299MOL0     C40273   7.851   5.690   3.479  0.3000  0.3490 -0.4853
  299MOL0    Cl40274   7.756   5.556   3.540 -0.0735 -1.0506  0.0763
  299MOL0     C40275   7.873   6.039   4.329 -0.4479  0.1494 -0.8688
  299MOL0     C40276   7.773   6.108   4.403 -0.0317 -1.1317  0.1008
  299MOL0     O40277   7.740   6.161   4.789 -0.3980  0.0148  0.4269
  299MOL0     C40278   7.475   6.363   4.672 -0.8321 -1.1255 -0.2984
  299MOL0     C40279   7.362   6.432   4.726 -0.3170  0.2343  1.1344
  299MOL0     N40280   7.190   6.534   4.421 -0.5812 -1.2924 -0.7270
  299MOL0     N40281   7.181   6.600   4.314 -0.3776 -0.6172  0.4610
  299MOL0     C40282   6.318   6.199   4.086  0.8055 -0.0938 -0.5797
  299MOL0     C40283   6.213   6.171   4.176 -0.6807  0.0064  0.5627
  299MOL0     C40284   5.808   6.111   4.351 -0.2382  0.0032 -0.0003
  299MOL0     C40285   5.712   6.210   4.377 -0.7407 -0.5528  0.7847
  299MOL0     C40286   5.614   6.198   4.474 -0.1876 -1.0645  0.0369
  299MOL0     C40287   5.596   6.078   4.536  0.2037 -0.5405 -0.1841
  299MOL0     O40288   5.489   6.075   4.614  0.3142  0.1615 -0.4455
  299MOL0     C40289   5.464   5.971   4.697  0.6060  1.0497  0.4209
  299MOL0     C40290   5.400   5.845   4.619  0.1835 -0.6907 -0.2941
  299MOL0     C40291   5.259   5.865   4.559 -0.7648 -0.4295  0.4575
  299MOL0     C40292   5.203   5.748   4.465  0.0692 -0.2551 -0.0254
  299MOL0     C40293   5.294   5.717   4.355  0.4460 -0.7667 -0.4666
  299MOL0     C40294   5.368   5.690   4.264 -0.0225  0.4689  0.7355
  299MOL0     C40295   5.689   5.969   4.508  0.0808  0.3289  0.5288
  299MOL0     C40296   5.792   5.985   4.419 -0.1224 -0.7774  0.0006
  299MOL0     C40297   5.882   5.871   4.401 -0.8558  0.4652  0.4152
  299MOL0     H40298   6.025   6.447   4.125  0.5592 -0.3114  0.0538
  299MOL0     H40299   6.232   6.506   3.974 -2.0485 -0.1783 -1.2915
  299MOL0     H40300   6.566   6.222   3.950 -0.8719 -0.6562  1.4457
  299MOL0     H40301   6.440   6.177   3.831 -1.1239  0.3767  1.2622
  299MOL0     H40302   6.518   6.351   3.695 -1.0844 -3.8868 -0.7579
  299MOL0     H40303   6.642   6.222   3.693 -2.1919  0.6439 -0.9333
  299MOL0     H40304   6.667   6.484   3.856  0.1199  0.5042  0.8116
  299MOL0     H40305   6.731   6.441   3.703 -0.9227 -2.9081 -1.3934
  299MOL0     H40306   6.787   6.285   3.976  0.5447 -0.3660  0.8050
  299MOL0     H40307   6.865   6.248   3.816 -0.9532 -1.9956  1.5197
  299MOL0     H40308   7.018   6.352   3.908  0.5235  0.3031  1.3739
  299MOL0     H40309   6.938   6.497   3.825  1.0684  2.3901  1.0407
  299MOL0     H40310   6.821   6.516   4.057 -0.7375 -4.0321  1.1278
  299MOL0     H40311   6.956   6.418   4.121  0.8077 -0.9082 -0.8839
  299MOL0     H40312   7.004   6.673   3.943 -4.0508  2.3693  1.3514
  299MOL0     H40313   7.124   6.576   4.035 -0.8742 -1.1176 -1.3880
  299MOL0     H40314   7.077   6.778   4.144 -1.6440  1.8579  1.6972
  299MOL0     H40315   6.908   6.736   4.180  0.3330  0.8481  1.6943
  299MOL0     H40316   6.865   6.563   4.377 -0.3698  0.5436  1.1245
  299MOL0     H40317   6.949   6.376   4.579  0.1451 -0.8437  2.9469
  299MOL0     H40318   7.120   6.372   4.599 -0.2778 -0.2365  0.3383
  299MOL0     H40319   7.115   6.598   4.721  0.0237 -0.4398  0.4883
  299MOL0     H40320   6.941   6.607   4.688  0.1497 -0.5422  0.1056
  299MOL0     H40321   6.940   6.367   4.803  0.6777  0.5775 -2.7544
  299MOL0     H40322   6.918   6.521   4.893 -0.8305 -0.4858 -0.8140
  299MOL0     H40323   7.125   6.311   4.910  1.3859  1.1475 -3.0727
  299MOL0     H40324   7.063   6.420   5.027 -2.2358 -0.9036 -0.4887
  299MOL0     H40325   7.387   6.341   5.050 -2.1397 -1.6427 -0.1064
  299MOL0     H40326   7.588   6.254   4.975 -0.5819 -0.1793  0.2632
  299MOL0     H40327   7.959   6.227   4.643  1.1718 -0.1348 -0.3065
  299MOL0     H40328   8.134   6.064   4.533  0.2351  2.2926  1.0907
  299MOL0     H40329   7.985   5.823   4.185  0.5789 -0.4521 -0.7043
  299MOL0     H40330   8.049   5.959   4.123 -0.5595 -0.8896  0.3741
  299MOL0     H40331   8.289   5.853   4.188  1.1946 -1.3097 -2.0300
  299MOL0     H40332   8.187   5.707   4.213 -0.8310 -0.0120  0.3411
  299MOL0     H40333   8.268   5.861   3.967  0.8434  0.4766  1.4483
  299MOL0     H40334   8.292   5.686   4.011 -0.7361 -1.1057  2.3719
  299MOL0     H40335   8.023   5.825   3.933  1.4723  0.3836  0.9039
  299MOL0     H40336   8.038   5.658   3.982 -3.6672  2.0552 -0.3437
  299MOL0     H40337   8.156   5.608   3.766  2.7367  0.1095 -0.3314
  299MOL0     H40338   8.176   5.772   3.728 -1.5242  0.5620  0.7868
  299MOL0     H40339   7.912   5.621   3.748 -0.1235 -0.1004 -2.2621
  299MOL0     H40340   7.910   5.793   3.732 -2.1481 -0.9260  0.9169
  299MOL0     H40341   8.043   5.613   3.533  3.3650  1.5297  1.2253
  299MOL0     H40342   8.038   5.793   3.526  2.4590 -1.5118  1.0965
  299MOL0     H40343   7.781   5.774   3.492  1.1500  1.0550 -0.3446
  299MOL0     H40344   7.868   5.675   3.372 -1.6521  0.7233 -0.8900
  299MOL0     H40345   7.840   6.006   4.231 -0.1640  0.7523 -1.1733
  299MOL0     H40346   7.673   6.123   4.363 -1.2146 -3.3662  2.0052
  299MOL0     H40347   7.488   6.354   4.565 -0.3849  2.7887 -0.7163
  299MOL0     H40348   7.300   6.473   4.646  1.0157 -1.4284 -0.8741
  299MOL0     H40349   6.403   6.131   4.082  1.5480  0.3121  3.8769
  299MOL0     H40350   6.217   6.076   4.227  0.5120  0.5826  1.5861
  299MOL0     H40351   5.709   6.301   4.318  2.3141 -2.7189 -3.1976
  299MOL0     H40352   5.550   6.286   4.481  0.5392 -0.5224 -0.0792
  299MOL0     H40353   5.394   5.995   4.778  2.3927  1.4144  1.9061
  299MOL0     H40354   5.554   5.931   4.745  0.6259  0.2409 -0.2710
  299MOL0     H40355   5.391   5.764   4.691  0.3336  0.0750  0.6061
  299MOL0     H40356   5.474   5.810   4.547 -0.5183  1.9733 -2.4710
  299MOL0     H40357   5.263   5.957   4.501 -2.6227  0.6037  1.8712
  299MOL0     H40358   5.192   5.888   4.642  0.4027  0.3766  1.1968
  299MOL0     H40359   5.193   5.661   4.530 -0.5585 -0.8017 -0.8261
  299MOL0     H40360   5.102   5.772   4.432 -0.7790  0.1431  2.6275
  299MOL0     H40361   5.439   5.645   4.198 -0.6450 -1.5498  1.3552
  299MOL0     H40362   5.678   5.872   4.556 -2.8622 -0.4435 -1.4549
  299MOL0     H40363   5.887   5.819   4.497  1.5748  0.1928  0.1845
  299MOL0     H40364   5.835   5.804   4.327  1.7186 -0.8582 -0.1381
  299MOL0     H40365   5.980   5.892   4.358 -0.3585 -3.0976 -0.4965
  300MOL0     O40366   1.941   8.847  10.344 -0.0633  0.0331 -0.5398
  300MOL0     C40367   1.827   8.893  10.337 -0.3208  1.1612  0.6229
  300MOL0     O40368   1.797   9.013  10.287  0.1414 -0.6594 -0.6168
  300MOL0     C40369   1.893   9.085  10.232 -0.0442  0.3281  0.6177
  300MOL0     C40370   1.960   9.179  10.309  0.0266 -0.3030 -0.0811
  300MOL0     C40371   2.071   9.255  10.264  0.1079  0.3209 -0.3948
  300MOL0     C40372   2.114   9.228  10.133 -0.1242 -0.2591 -0.5904
  300MOL0     O40373   2.223   9.290  10.078 -0.5129  0.5866 -0.5417
  300MOL0     C40374   2.283   9.403  10.145 -0.5715 -0.5806 -0.1935
  300MOL0     C40375   2.422   9.447  10.084  0.1154  0.5895 -0.1641
  300MOL0     C40376   2.527   9.331  10.085 -0.6704 -0.7756 -1.0391
  300MOL0     C40377   2.660   9.354  10.004  1.3321  0.2921  0.0558
  300MOL0     C40378   2.726   9.220   9.993  0.4508 -0.4920 -0.1236
  300MOL0     C40379   2.869   9.225   9.943 -0.9204 -0.0099 -0.5931
  300MOL0     C40380   2.880   9.236   9.790 -1.0417  0.0315 -0.0414
  300MOL0     C40381   3.012   9.171   9.751  0.0315  0.5618 -0.7467
  300MOL0     N40382   3.013   9.168   9.604  0.2601  0.0365 -0.1434
  300MOL0     C40383   2.968   9.262   9.516 -1.0869 -0.6999  0.1249
  300MOL0     C40384   3.037   9.234   9.401  0.7592  0.2813 -0.0119
  300MOL0     C40385   3.028   9.320   9.274 -0.2529  0.7751  0.2114
  300MOL0     C40386   3.157   9.413   9.257 -0.0400  0.0021 -0.3197
  300MOL0     C40387   3.291   9.335   9.247 -0.0017  0.3323 -0.4419
  300MOL0     C40388   3.407   9.431   9.213  0.3223 -0.4697  1.2418
  300MOL0     O40389   3.526   9.358   9.161  0.3786 -0.3746 -0.6055
  300MOL0     C40390   3.643   9.373   9.228 -0.7053  0.3271 -0.8941
  300MOL0     C40391   3.663   9.358   9.365 -0.0317  0.3238 -0.3208
  300MOL0     C40392   3.798   9.375   9.416  0.0910  0.2644  0.1765
  300MOL0     C40393   3.906   9.394   9.331 -0.2562  0.6412 -0.0131
  300MOL0     C40394   4.041   9.415   9.383  0.4510 -0.7995  0.1102
  300MOL0     O40395   4.057   9.440   9.513 -0.2029 -0.1072  0.3128
  300MOL0     C40396   4.186   9.451   9.557 -0.3579  0.6957  0.6929
  300MOL0     C40397   4.290   9.352   9.548  0.4344 -0.1705  0.9445
  300MOL0     C40398   4.409   9.355   9.627  0.7734 -0.1795  0.8069
  300MOL0     C40399   4.417   9.442   9.733  0.0860  0.7927  0.4758
  300MOL0     O40400   4.506   9.443   9.831 -0.5187 -0.3156 -0.3630
  300MOL0     C40401   4.490   9.334   9.920 -0.0359  0.5452 -0.3914
  300MOL0     C40402   4.375   9.345  10.016  0.1743  0.5658  0.6006
  300MOL0     C40403   4.351   9.213  10.081 -0.3568  0.6443 -0.7274
  300MOL0     C40404   4.257   9.238  10.195  0.0495 -0.1467  0.7375
  300MOL0     C40405   4.204   9.124  10.273 -0.1093  0.1770  0.0166
  300MOL0     C40406   4.123   9.009  10.215  0.3397 -0.3543 -0.0112
  300MOL0     C40407   4.007   9.049  10.116  0.1343  0.6038 -1.4909
  300MOL0     C40408   3.897   9.131  10.172 -0.6175  0.3706 -0.0373
  300MOL0    Cl40409   3.805   9.033  10.278 -0.2209  0.0430 -0.0562
  300MOL0     C40410   4.317   9.547   9.746 -0.0905  0.3821 -0.3016
  300MOL0     C40411   4.209   9.549   9.653 -0.0262 -0.2987  0.2397
  300MOL0     O40412   4.135   9.398   9.302 -0.5807 -0.0461  0.2038
  300MOL0     C40413   3.884   9.393   9.194  0.1716 -0.2352  0.5833
  300MOL0     C40414   3.755   9.388   9.142 -0.5105  0.2556  0.3156
  300MOL0     N40415   3.119   9.128   9.414 -0.2425  0.2407  0.6181
  300MOL0     N40416   3.099   9.085   9.536  0.7032 -0.3701  0.0479
  300MOL0     C40417   2.051   9.134  10.052  0.2530 -0.0800  0.3063
  300MOL0     C40418   1.947   9.061  10.097  1.0048  0.6473 -0.0279
  300MOL0     C40419   1.705   8.814  10.390  0.3675 -0.5580  0.4696
  300MOL0     C40420   1.579   8.883  10.412 -0.4399  0.4354 -0.4404
  300MOL0     C40421   1.466   8.818  10.463 -0.2130 -0.2421 -0.4507
  300MOL0     C40422   1.475   8.684  10.494 -0.0961 -0.4367  0.6119
  300MOL0     O40423   1.351   8.625  10.522  0.6348  0.0421 -0.2409
  300MOL0     C40424   1.336   8.587  10.658 -1.2271 -0.9777  0.1855
  300MOL0     C40425   1.199   8.627  10.708 -0.7823  0.3712  0.6794
  300MOL0     C40426   1.165   8.779  10.691 -0.5621 -0.5986  0.3277
  300MOL0     C40427   1.020   8.822  10.728 -0.0249  0.9311  0.1833
  300MOL0     C40428   0.922   8.776  10.631  0.2858 -0.0814 -0.2964
  300MOL0     C40429   0.838   8.754  10.536 -0.0764  0.1017 -0.4590
  300MOL0     C40430   1.596   8.616  10.479  0.9813  0.0928  0.1106
  300MOL0     C40431   1.703   8.672  10.414  0.1800 -0.9609  0.4638
  300MOL0     C40432   1.818   8.581  10.359  0.0814  0.6296 -0.1882
  300MOL0     H40433   1.929   9.181  10.413  1.3477  2.4528  0.3489
  300MOL0     H40434   2.114   9.324  10.336 -2.3774 -0.3148  1.8320
  300MOL0     H40435   2.208   9.481  10.133  2.0389  1.8785 -1.5667
  300MOL0     H40436   2.293   9.383  10.252 -0.8546  0.0006 -0.0573
  300MOL0     H40437   2.442   9.534  10.147 -1.3767  0.1999  0.9040
  300MOL0     H40438   2.417   9.467   9.977 -1.1408 -3.5332 -1.0631
  300MOL0     H40439   2.473   9.243  10.050 -4.0811 -0.1746  2.0955
  300MOL0     H40440   2.547   9.313  10.191 -0.6347 -1.9370 -1.2360
  300MOL0     H40441   2.630   9.401   9.909 -1.2115 -0.2271  0.5146
  300MOL0     H40442   2.735   9.415  10.055  1.3890  1.6662 -1.5450
  300MOL0     H40443   2.721   9.176  10.093 -2.9692 -0.4566 -0.1457
  300MOL0     H40444   2.661   9.161   9.927  1.1990 -5.2944  2.9489
  300MOL0     H40445   2.933   9.302   9.986 -0.2007 -0.3192 -1.0732
  300MOL0     H40446   2.916   9.132   9.978 -1.1737  0.3531  0.7627
  300MOL0     H40447   2.891   9.339   9.756 -0.3558 -0.2796 -0.8090
  300MOL0     H40448   2.798   9.184   9.739 -0.4056 -1.0225 -0.0377
  300MOL0     H40449   3.092   9.239   9.782 -1.9423  2.9149 -0.5338
  300MOL0     H40450   3.030   9.071   9.791 -1.9142  0.4641 -0.0193
  300MOL0     H40451   2.886   9.333   9.529 -0.0363  0.7143 -0.7550
  300MOL0     H40452   3.025   9.268   9.178  1.9020  2.3863 -0.8198
  300MOL0     H40453   2.939   9.383   9.275  1.0652  2.7588 -1.1010
  300MOL0     H40454   3.146   9.472   9.165  0.4626  0.4876 -0.0788
  300MOL0     H40455   3.172   9.488   9.336  1.8739 -0.0762 -0.5557
  300MOL0     H40456   3.280   9.249   9.179 -0.8279  1.0440 -1.2266
  300MOL0     H40457   3.311   9.297   9.347  0.9234 -0.6834 -0.9900
  300MOL0     H40458   3.414   9.500   9.297 -0.3831 -1.0737  1.8068
  300MOL0     H40459   3.374   9.494   9.130  0.9070  1.3167  2.3105
  300MOL0     H40460   3.577   9.341   9.428 -1.7480  1.2842 -2.2926
  300MOL0     H40461   3.808   9.375   9.524 -3.3172 -0.9402  0.6295
  300MOL0     H40462   4.266   9.275   9.476 -3.7754  2.5587 -0.9859
  300MOL0     H40463   4.464   9.262   9.613  0.2557 -0.4950  0.8290
  300MOL0     H40464   4.468   9.248   9.856 -0.4746  0.1887  0.2378
  300MOL0     H40465   4.583   9.312   9.973  0.0825 -1.6198 -1.4049
  300MOL0     H40466   4.395   9.424  10.089  0.4080  1.0310  0.0395
  300MOL0     H40467   4.293   9.377   9.951  2.0170  1.1701 -1.5662
  300MOL0     H40468   4.315   9.145  10.004  1.7500 -1.7899  0.3110
  300MOL0     H40469   4.443   9.175  10.125  0.8262  3.4412 -0.5747
  300MOL0     H40470   4.169   9.286  10.152  1.7111  1.3603 -1.2052
  300MOL0     H40471   4.289   9.317  10.263 -0.5556  0.6290  0.1363
  300MOL0     H40472   4.147   9.170  10.355 -2.7342 -1.1284 -0.9619
  300MOL0     H40473   4.294   9.085  10.323 -1.1848  0.6299  2.4621
  300MOL0     H40474   4.194   8.959  10.149  0.7535  1.3882 -0.9195
  300MOL0     H40475   4.095   8.941  10.297  0.7327  0.4322  0.7946
  300MOL0     H40476   3.966   8.959  10.070 -1.0029  0.5493 -0.4206
  300MOL0     H40477   4.046   9.108  10.033 -0.6982  2.0741 -0.8758
  300MOL0     H40478   3.945   9.204  10.238 -0.9664 -1.8129  2.8588
  300MOL0     H40479   3.849   9.191  10.094  0.7274  0.4400 -0.8570
  300MOL0     H40480   4.325   9.630   9.816  1.2653  0.1831 -0.2020
  300MOL0     H40481   4.141   9.634   9.655 -0.6575 -0.6949 -1.6032
  300MOL0     H40482   3.958   9.398   9.115  0.5445 -1.5851  0.8179
  300MOL0     H40483   3.735   9.390   9.035  0.9841  1.8329  0.0170
  300MOL0     H40484   2.083   9.120   9.949 -1.1042  0.5499 -0.2388
  300MOL0     H40485   1.909   8.977  10.040 -1.7922  1.8928 -0.1948
  300MOL0     H40486   1.567   8.986  10.380 -2.3108 -0.3443 -2.5851
  300MOL0     H40487   1.375   8.875  10.475  0.1803  0.1004  1.0855
  300MOL0     H40488   1.415   8.628  10.721  1.2516 -2.2827 -1.8687
  300MOL0     H40489   1.341   8.477  10.663 -0.2031 -0.9698 -0.3054
  300MOL0     H40490   1.179   8.590  10.809 -0.9430 -1.2136  0.0938
  300MOL0     H40491   1.130   8.569  10.645 -1.6569  0.9446  1.0805
  300MOL0     H40492   1.189   8.812  10.590 -1.3712 -2.5452 -0.5483
  300MOL0     H40493   1.228   8.828  10.767 -0.9545 -0.5869  0.6506
  300MOL0     H40494   0.995   8.785  10.828 -3.4553 -0.7435 -1.1162
  300MOL0     H40495   1.017   8.932  10.726  0.5153  0.9559  0.6398
  300MOL0     H40496   0.769   8.732  10.457  2.4906 -0.5349 -2.6695
  300MOL0     H40497   1.584   8.508  10.481 -0.3379  0.2312  2.1397
  300MOL0     H40498   1.772   8.483  10.338  1.8041  0.2980 -2.8323
  300MOL0     H40499   1.860   8.618  10.266  1.9916 -0.0777  0.3412
  300MOL0     H40500   1.893   8.567  10.438 -1.9182  0.9360  1.9003
  301MOL0     O40501   6.271   3.287  10.711  0.6278 -0.2700  0.6821
  301MOL0     C40502   6.215   3.202  10.778  0.3323  0.6545  0.5577
  301MOL0     O40503   6.261   3.075  10.817 -0.0175 -0.1133 -0.6102
  301MOL0     C40504   6.378   3.034  10.758  0.9622 -0.1059  0.5908
  301MOL0     C40505   6.378   2.973  10.630  0.3008 -0.3972  0.1724
  301MOL0     C40506   6.501   2.950  10.563 -0.3555 -0.2806 -0.6217
  301MOL0     C40507   6.617   3.006  10.614 -0.1005  0.5987  0.5835
  301MOL0     O40508   6.739   2.977  10.555 -0.2142 -0.0396  0.3714
  301MOL0     C40509   6.743   3.032  10.420  0.0886 -0.6310  0.5322
  301MOL0     C40510   6.714   3.187  10.402  0.8147 -1.0192  0.7765
  301MOL0     C40511   6.746   3.252  10.267  0.1851  0.1688 -0.2695
  301MOL0     C40512   6.893   3.277  10.258  0.3815  0.4088  0.2787
  301MOL0     C40513   6.930   3.378  10.143 -0.2532 -0.5469 -0.3483
  301MOL0     C40514   7.081   3.361  10.111  0.2202  0.0258 -0.8017
  301MOL0     C40515   7.121   3.459   9.998  0.4735  0.1927  0.3787
  301MOL0     C40516   7.140   3.608  10.035  0.7149  0.5595  0.1821
  301MOL0     N40517   7.244   3.668   9.955  0.1750 -0.7039 -1.0370
  301MOL0     C40518   7.228   3.724   9.830  0.1038 -0.0761  0.0639
  301MOL0     C40519   7.348   3.784   9.809 -0.7634  0.1680  0.5707
  301MOL0     C40520   7.373   3.875   9.689 -0.0761 -0.4597 -0.1533
  301MOL0     C40521   7.447   3.800   9.577  0.9175 -0.2038 -0.8570
  301MOL0     C40522   7.357   3.720   9.489 -0.3534 -0.3067  0.5579
  301MOL0     C40523   7.439   3.642   9.380  0.2727  0.5930  0.2023
  301MOL0     O40524   7.502   3.742   9.293  0.0526  0.3017  1.1931
  301MOL0     C40525   7.641   3.758   9.295 -0.1838  0.1721 -0.3955
  301MOL0     C40526   7.698   3.816   9.179 -1.6378  0.3243  0.3031
  301MOL0     C40527   7.829   3.841   9.167  0.6777  0.0815  0.0751
  301MOL0     C40528   7.913   3.789   9.259 -0.0183  0.3591 -0.5299
  301MOL0     C40529   8.064   3.823   9.249 -1.0395 -0.4297  0.7332
  301MOL0     O40530   8.109   3.877   9.130 -0.2951  0.3245 -0.0032
  301MOL0     C40531   8.239   3.901   9.100  0.5262 -0.1940 -0.3158
  301MOL0     C40532   8.271   3.948   8.976  0.2330  0.1430  0.2245
  301MOL0     C40533   8.397   3.962   8.918  0.9744 -0.1642 -0.2785
  301MOL0     C40534   8.509   3.952   9.004  0.1645  0.4174 -0.1785
  301MOL0     O40535   8.638   3.965   8.968 -0.4083  0.4770  0.0885
  301MOL0     C40536   8.662   4.061   8.870 -0.5933 -0.2747  0.3791
  301MOL0     C40537   8.814   4.081   8.841  0.1943  0.7601 -0.3779
  301MOL0     C40538   8.906   4.079   8.963 -0.0483 -0.7660 -0.6819
  301MOL0     C40539   9.047   4.127   8.940 -0.8375 -0.3360 -0.6257
  301MOL0     C40540   9.130   4.143   9.065 -0.6458  0.0537 -0.3400
  301MOL0     C40541   9.268   4.203   9.036  0.2347  0.0271  1.4209
  301MOL0     C40542   9.339   4.140   8.917 -0.3729  0.2605 -0.6219
  301MOL0     C40543   9.483   4.195   8.915 -0.2573  0.2660 -0.8916
  301MOL0    Cl40544   9.555   4.129   8.773  0.0899  0.2588  0.0099
  301MOL0     C40545   8.477   3.920   9.134 -0.1750 -0.1371  0.5073
  301MOL0     C40546   8.348   3.880   9.187  0.2974  0.6795 -0.7138
  301MOL0     O40547   8.134   3.808   9.350 -0.3421  0.0349 -0.4822
  301MOL0     C40548   7.861   3.729   9.375  0.1913 -0.4979  0.3495
  301MOL0     C40549   7.725   3.719   9.393  0.2579 -0.6125 -0.7183
  301MOL0     N40550   7.431   3.755   9.911  0.2419  0.0374  0.1529
  301MOL0     N40551   7.369   3.687  10.001  0.5444  0.4730  0.2879
  301MOL0     C40552   6.614   3.077  10.738 -0.0554  0.1379  0.8222
  301MOL0     C40553   6.495   3.089  10.808 -0.1143 -0.6760  0.3118
  301MOL0     C40554   6.070   3.234  10.816 -0.0455  0.0984  0.2562
  301MOL0     C40555   6.036   3.259  10.949  0.5052  0.1930  0.3939
  301MOL0     C40556   5.902   3.293  10.984 -1.0046 -0.6806 -0.0621
  301MOL0     C40557   5.796   3.290  10.892 -0.5047 -0.6661 -0.0237
  301MOL0     O40558   5.676   3.326  10.938 -0.2685 -0.1870 -0.9707
  301MOL0     C40559   5.585   3.396  10.846 -0.0792  0.3650 -0.2499
  301MOL0     C40560   5.456   3.410  10.927 -0.3858  0.3126 -0.5443
  301MOL0     C40561   5.356   3.485  10.833 -0.6790  0.3627  0.1302
  301MOL0     C40562   5.245   3.541  10.916 -1.8311  0.9962 -0.6758
  301MOL0     C40563   5.143   3.606  10.843  0.0942  0.7956  0.7795
  301MOL0     C40564   5.040   3.652  10.815  0.8326 -0.4560  0.4959
  301MOL0     C40565   5.835   3.280  10.762 -0.5526 -0.9778  1.1555
  301MOL0     C40566   5.966   3.255  10.716 -0.1984 -0.3182  0.0147
  301MOL0     C40567   6.000   3.239  10.573 -0.4034  0.7517 -0.4198
  301MOL0     H40568   6.288   2.932  10.585  0.8619 -1.8344  0.3010
  301MOL0     H40569   6.502   2.892  10.471  1.8364  0.4496 -1.1209
  301MOL0     H40570   6.848   3.015  10.396 -0.2786  0.3226 -2.0430
  301MOL0     H40571   6.693   2.972  10.343  4.0471 -2.3280 -0.9763
  301MOL0     H40572   6.770   3.239  10.481  0.5786 -0.2689  0.4554
  301MOL0     H40573   6.607   3.197  10.425  0.7121 -1.2906  0.4207
  301MOL0     H40574   6.692   3.347  10.258 -0.0597  0.1709  1.0167
  301MOL0     H40575   6.730   3.191  10.178  0.2984  0.3664 -0.4253
  301MOL0     H40576   6.934   3.319  10.351  1.5132  1.3004 -0.5829
  301MOL0     H40577   6.940   3.180  10.240  0.2708  0.2475  0.8289
  301MOL0     H40578   6.868   3.358  10.055  2.7686 -1.5479 -2.4257
  301MOL0     H40579   6.909   3.482  10.170 -3.2588 -1.8121  2.9711
  301MOL0     H40580   7.153   3.386  10.189  0.8676 -3.8952  0.0511
  301MOL0     H40581   7.099   3.262  10.068 -2.0618 -0.5184 -0.6861
  301MOL0     H40582   7.043   3.447   9.923 -0.2517 -2.0753  1.4152
  301MOL0     H40583   7.222   3.428   9.970 -0.5159 -2.6162 -0.3939
  301MOL0     H40584   7.049   3.659  10.005  3.2631  5.0223 -0.9127
  301MOL0     H40585   7.165   3.612  10.142 -0.8780  0.2212  0.5970
  301MOL0     H40586   7.140   3.705   9.770 -0.4764 -3.8521  1.7970
  301MOL0     H40587   7.272   3.910   9.664  0.1431  2.7818  2.8457
  301MOL0     H40588   7.436   3.955   9.728 -2.0960  0.8571  0.5841
  301MOL0     H40589   7.493   3.874   9.511  0.0031 -0.5259 -1.8841
  301MOL0     H40590   7.526   3.740   9.625 -0.2671 -0.8442  0.3548
  301MOL0     H40591   7.278   3.781   9.445 -1.0733  0.8917  3.3139
  301MOL0     H40592   7.298   3.654   9.554 -0.2739 -0.1351  0.8059
  301MOL0     H40593   7.369   3.578   9.326  0.6831 -0.3775  0.8004
  301MOL0     H40594   7.516   3.576   9.420  0.1251  0.7927  0.8336
  301MOL0     H40595   7.636   3.848   9.095 -2.2442 -0.0695  0.5917
  301MOL0     H40596   7.869   3.894   9.081  2.5985  1.4990  1.7337
  301MOL0     H40597   8.183   3.959   8.914  0.8270  2.1203 -0.3428
  301MOL0     H40598   8.418   3.997   8.818  1.1439 -1.3906 -0.6867
  301MOL0     H40599   8.617   4.032   8.775  0.3266  0.5196 -0.3212
  301MOL0     H40600   8.622   4.157   8.906 -1.8361 -0.7629  0.3567
  301MOL0     H40601   8.839   4.000   8.771 -1.0404 -0.4885  0.5715
  301MOL0     H40602   8.816   4.183   8.802 -0.2837  0.9997  0.2016
  301MOL0     H40603   8.863   4.143   9.040  1.8216 -1.3925  0.9697
  301MOL0     H40604   8.908   3.978   9.006 -2.3816  0.5235  2.8960
  301MOL0     H40605   9.046   4.218   8.880  1.6226  0.5603  0.5422
  301MOL0     H40606   9.101   4.049   8.885  0.8049 -1.7041  2.6301
  301MOL0     H40607   9.144   4.046   9.113 -1.1811  0.2400  0.2050
  301MOL0     H40608   9.083   4.201   9.145 -0.6573 -0.8015  0.2840
  301MOL0     H40609   9.251   4.310   9.019  2.0780 -0.1656 -2.9635
  301MOL0     H40610   9.338   4.200   9.121  0.9120  5.4014  1.4186
  301MOL0     H40611   9.303   4.168   8.817  1.9138 -0.0359 -1.5903
  301MOL0     H40612   9.345   4.031   8.909  0.8511  0.4518 -5.5440
  301MOL0     H40613   9.495   4.304   8.916 -0.8108  0.3313  0.3187
  301MOL0     H40614   9.538   4.157   9.002 -0.5505 -0.8281 -1.1729
  301MOL0     H40615   8.557   3.906   9.206  2.8587  0.5266 -2.4798
  301MOL0     H40616   8.346   3.840   9.287  0.3291 -0.2817 -1.0845
  301MOL0     H40617   7.925   3.707   9.460  2.0247 -2.3584 -1.4205
  301MOL0     H40618   7.695   3.683   9.491 -4.5354  0.9599 -1.3519
  301MOL0     H40619   6.704   3.131  10.766 -0.2561  0.1252  1.5118
  301MOL0     H40620   6.502   3.155  10.894  2.2676 -0.1946 -0.1731
  301MOL0     H40621   6.105   3.219  11.022  0.9857  0.1790 -0.0570
  301MOL0     H40622   5.881   3.307  11.090  2.3129 -2.8441  1.0494
  301MOL0     H40623   5.570   3.337  10.755 -0.8417 -0.9108  0.6875
  301MOL0     H40624   5.628   3.495  10.826  0.7468  0.0315 -0.1945
  301MOL0     H40625   5.473   3.470  11.018 -1.5121  1.0710 -0.8170
  301MOL0     H40626   5.414   3.314  10.957 -2.0440  0.9275 -0.7887
  301MOL0     H40627   5.320   3.411  10.761  0.6222 -2.5227  2.2509
  301MOL0     H40628   5.406   3.558  10.769  1.2718 -1.5325 -0.6201
  301MOL0     H40629   5.182   3.464  10.963  0.3197  0.7801  2.1326
  301MOL0     H40630   5.288   3.611  10.989  0.6030 -0.1726 -0.8831
  301MOL0     H40631   4.945   3.698  10.796 -0.8292 -2.8898  2.2408
  301MOL0     H40632   5.755   3.279  10.688  0.6309 -3.1414 -0.2030
  301MOL0     H40633   6.033   3.137  10.555 -0.6496  0.8931 -1.7485
  301MOL0     H40634   5.913   3.266  10.513 -1.2337  1.5514  1.0727
  301MOL0     H40635   6.085   3.304  10.548 -0.0626  0.4198 -0.1265
  302MOL0     O40636  10.560   7.236  10.412 -0.9156  1.3615 -0.3798
  302MOL0     C40637  10.528   7.267  10.298 -0.4814  0.3370 -0.6551
  302MOL0     O40638  10.547   7.396  10.248  0.4191  0.2235 -0.4341
  302MOL0     C40639  10.643   7.475  10.303  0.7077 -0.7247  0.5305
  302MOL0     C40640  10.601   7.589  10.372  0.5074 -0.2507 -0.1321
  302MOL0     C40641  10.698   7.669  10.436  0.2416 -0.2800 -0.2840
  302MOL0     C40642  10.831   7.631  10.445 -0.3521 -0.3554  0.2712
  302MOL0     O40643  10.939   7.708  10.495  0.0989  0.7281 -0.3397
  302MOL0     C40644  10.911   7.829  10.572  0.1813 -0.2728 -0.2374
  302MOL0     C40645  11.029   7.881  10.648  0.3455  0.2784 -0.1496
  302MOL0     C40646  11.055   7.798  10.779  0.4031  0.9680 -0.0141
  302MOL0     C40647  11.141   7.897  10.863  1.1259 -0.5481 -0.3194
  302MOL0     C40648  11.177   7.848  10.998 -0.2292  0.4149  0.0392
  302MOL0     C40649  11.312   7.762  10.993 -0.1145  0.0515  0.8308
  302MOL0     C40650  11.341   7.716  11.145  0.1983  0.4024  0.7821
  302MOL0     C40651  11.402   7.578  11.158  0.7563 -0.6175  0.8208
  302MOL0     N40652  11.549   7.578  11.178  0.5597 -0.1669  0.1513
  302MOL0     C40653  11.639   7.653  11.113  0.1548 -0.0245 -0.5918
  302MOL0     C40654  11.756   7.600  11.157  0.5951 -0.1970 -0.5759
  302MOL0     C40655  11.900   7.613  11.097 -0.4519 -0.4552 -0.1790
  302MOL0     C40656  11.917   7.527  10.971 -0.6153 -1.0912 -0.3754
  302MOL0     C40657  12.045   7.578  10.892  0.3003  0.1032  0.2658
  302MOL0     C40658  12.074   7.495  10.773 -0.7360  0.6532 -0.5076
  302MOL0     O40659  11.957   7.491  10.682 -0.2556  0.4869 -0.1121
  302MOL0     C40660  11.911   7.371  10.642  0.1663  0.1497  1.3398
  302MOL0     C40661  11.771   7.367  10.611  0.5669  0.0180  0.4625
  302MOL0     C40662  11.710   7.240  10.576  0.3783  0.2281 -1.1564
  302MOL0     C40663  11.801   7.135  10.539 -0.5706 -0.0280  0.6422
  302MOL0     C40664  11.742   7.019  10.479 -0.0131 -0.5991 -0.2344
  302MOL0     O40665  11.627   7.043  10.417 -0.2037 -0.6927  0.4071
  302MOL0     C40666  11.551   6.929  10.374  0.4259  0.2758  0.6788
  302MOL0     C40667  11.537   6.812  10.444 -0.3579 -0.4399 -0.3798
  302MOL0     C40668  11.447   6.708  10.403  0.0267 -0.0402  0.1996
  302MOL0     C40669  11.380   6.716  10.284  0.0717  0.1401 -1.2488
  302MOL0     O40670  11.296   6.614  10.258 -0.3964  0.4772 -0.7813
  302MOL0     C40671  11.248   6.582  10.127 -0.1770 -0.1533 -0.7891
  302MOL0     C40672  11.221   6.427  10.103  0.0421 -0.0909 -0.4056
  302MOL0     C40673  11.083   6.379  10.147 -0.2706 -0.2464 -0.2959
  302MOL0     C40674  11.050   6.238  10.096  0.5223  0.4810 -0.1209
  302MOL0     C40675  11.095   6.122  10.179 -0.5555  1.0136 -0.1995
  302MOL0     C40676  11.030   5.989  10.143 -1.1655 -0.0462  0.3910
  302MOL0     C40677  11.090   5.874  10.231 -0.4112 -1.1854 -0.5398
  302MOL0     C40678  11.060   5.739  10.169 -0.2911 -0.1016 -0.1229
  302MOL0    Cl40679  10.880   5.713  10.140  0.4388 -0.5340 -0.1021
  302MOL0     C40680  11.405   6.828  10.202  0.1532 -0.5766 -0.8052
  302MOL0     C40681  11.482   6.940  10.247  0.2104  0.5032 -0.1948
  302MOL0     O40682  11.799   6.913  10.495  0.3878  0.0684  0.4992
  302MOL0     C40683  11.934   7.141  10.569  0.6911 -0.0236 -0.3717
  302MOL0     C40684  11.986   7.260  10.617 -0.3591 -0.5115  0.5384
  302MOL0     N40685  11.729   7.501  11.251  0.4258  0.2656  0.5178
  302MOL0     N40686  11.600   7.487  11.267 -0.3061 -0.5121  0.0331
  302MOL0     C40687  10.872   7.521  10.369 -0.1008  0.8904 -0.7728
  302MOL0     C40688  10.783   7.444  10.303  0.5116  0.2910 -0.9606
  302MOL0     C40689  10.489   7.174  10.189  0.4038  0.1774  0.1403
  302MOL0     C40690  10.462   7.223  10.060 -0.5913  0.0344 -0.2922
  302MOL0     C40691  10.458   7.148   9.945  0.2392 -0.1435 -0.3411
  302MOL0     C40692  10.468   7.008   9.951  0.5770  0.3707  0.3636
  302MOL0     O40693  10.462   6.940   9.832  0.1472  0.3322  0.2447
  302MOL0     C40694  10.455   6.796   9.834  0.1915 -0.8423 -0.5361
  302MOL0     C40695  10.386   6.755   9.711  0.0933 -0.5266 -0.4411
  302MOL0     C40696  10.245   6.808   9.699  0.6233  0.3302  0.9274
  302MOL0     C40697  10.227   6.942   9.618 -0.1751 -0.3117  0.7100
  302MOL0     C40698  10.097   6.994   9.643  0.1839  0.2908  0.5889
  302MOL0     C40699   9.990   7.051   9.662  0.7090  0.4103  0.3314
  302MOL0     C40700  10.487   6.957  10.078  0.3753 -0.2469 -0.0153
  302MOL0     C40701  10.486   7.034  10.195  0.2244  0.5616 -0.4143
  302MOL0     C40702  10.475   6.946  10.317  0.1463  0.3094 -0.2216
  302MOL0     H40703  10.497   7.617  10.386 -0.0326 -0.9378 -2.3029
  302MOL0     H40704  10.650   7.746  10.496 -0.2044  0.2793 -1.3406
  302MOL0     H40705  10.881   7.907  10.502  3.0551  3.1672  1.9483
  302MOL0     H40706  10.835   7.808  10.648  1.6160 -0.6214  1.1716
  302MOL0     H40707  11.007   7.983  10.681 -1.2476  1.2875 -3.8453
  302MOL0     H40708  11.110   7.881  10.575  1.6906 -1.6453  1.2540
  302MOL0     H40709  11.107   7.707  10.748 -1.5582 -1.0825  2.2816
  302MOL0     H40710  10.960   7.771  10.825  1.0959  0.3413  1.0938
  302MOL0     H40711  11.230   7.929  10.809 -0.2742 -0.7774 -2.8953
  302MOL0     H40712  11.074   7.981  10.885 -1.6717 -2.0573 -2.4034
  302MOL0     H40713  11.185   7.938  11.060 -2.1467 -0.0249  1.0057
  302MOL0     H40714  11.105   7.778  11.042 -2.5196 -0.2185 -4.1960
  302MOL0     H40715  11.294   7.673  10.933  0.6506  0.1005  0.5214
  302MOL0     H40716  11.395   7.808  10.939 -0.9795  0.5218 -0.1207
  302MOL0     H40717  11.241   7.711  11.188 -1.2648  4.9105 -1.3956
  302MOL0     H40718  11.402   7.782  11.207 -0.6360  2.5946 -0.6075
  302MOL0     H40719  11.362   7.525  11.245 -2.5078  3.2781  1.9621
  302MOL0     H40720  11.361   7.512  11.081 -3.4416  0.5800  1.7717
  302MOL0     H40721  11.619   7.728  11.037 -0.2999  1.9745  1.3886
  302MOL0     H40722  11.917   7.716  11.066 -0.5812  0.7242  3.2366
  302MOL0     H40723  11.960   7.586  11.185 -0.0456 -0.0029 -0.3131
  302MOL0     H40724  11.927   7.422  11.002  1.3051  0.3466  4.9129
  302MOL0     H40725  11.824   7.536  10.914 -0.4735  1.1065 -0.3360
  302MOL0     H40726  12.132   7.588  10.957  2.5017 -1.0135 -2.3437
  302MOL0     H40727  12.025   7.677  10.849  0.2282  0.0711  0.2273
  302MOL0     H40728  12.104   7.398  10.815  1.8876  1.3759 -0.5679
  302MOL0     H40729  12.167   7.531  10.729 -2.2916  3.8644 -1.4340
  302MOL0     H40730  11.716   7.460  10.615 -0.1256 -0.2066 -1.9991
  302MOL0     H40731  11.602   7.244  10.569  0.4282  1.4063 -1.4759
  302MOL0     H40732  11.583   6.794  10.541  1.8201  2.7317 -0.6693
  302MOL0     H40733  11.447   6.629  10.477 -1.5406  0.1656  0.4495
  302MOL0     H40734  11.158   6.642  10.117 -0.7173 -0.9798 -1.0001
  302MOL0     H40735  11.319   6.615  10.050  1.3358  0.7448  0.9298
  302MOL0     H40736  11.247   6.403  10.000 -3.0138  1.2705 -1.6340
  302MOL0     H40737  11.291   6.381  10.173  0.9626 -0.2645 -1.4313
  302MOL0     H40738  11.070   6.380  10.255 -0.1842  1.0616 -0.2716
  302MOL0     H40739  11.009   6.444  10.099  3.0622  3.6335 -0.7481
  302MOL0     H40740  11.073   6.216   9.991  0.4126  1.3987 -0.3437
  302MOL0     H40741  10.941   6.225  10.095  0.7257 -2.1676  1.0308
  302MOL0     H40742  11.075   6.136  10.286 -0.2240 -0.3323  0.0546
  302MOL0     H40743  11.203   6.111  10.167 -0.4648 -0.6708  1.6652
  302MOL0     H40744  10.921   5.985  10.151 -1.0021 -0.7827  2.9031
  302MOL0     H40745  11.043   5.971  10.036 -2.2163 -0.3027  0.2974
  302MOL0     H40746  11.052   5.861  10.333  1.9125 -2.8426  0.1952
  302MOL0     H40747  11.198   5.884  10.245 -0.4510  1.6716 -1.5928
  302MOL0     H40748  11.110   5.743  10.072  0.8892  0.0766  0.4853
  302MOL0     H40749  11.097   5.661  10.236 -2.3567 -0.0111  1.2066
  302MOL0     H40750  11.346   6.850  10.114 -0.9840  1.6526  0.4310
  302MOL0     H40751  11.498   7.026  10.183 -0.6484 -0.1876 -1.3799
  302MOL0     H40752  12.000   7.056  10.555 -3.1136 -3.1552 -1.1640
  302MOL0     H40753  12.092   7.269  10.642 -0.4302  1.9834  0.1849
  302MOL0     H40754  10.979   7.505  10.368 -0.0865  0.8214  0.5383
  302MOL0     H40755  10.819   7.360  10.245  0.5846 -1.6657  1.7154
  302MOL0     H40756  10.440   7.327  10.037  0.1427  0.1719 -0.3777
  302MOL0     H40757  10.454   7.192   9.846 -0.0614 -1.7823 -1.0901
  302MOL0     H40758  10.407   6.755   9.923 -0.6511 -2.1396 -1.5523
  302MOL0     H40759  10.554   6.748   9.840 -0.2090 -1.6525 -0.2153
  302MOL0     H40760  10.392   6.646   9.712  0.9390 -0.4941  1.2588
  302MOL0     H40761  10.439   6.785   9.621 -0.0466 -2.4615 -1.2059
  302MOL0     H40762  10.207   6.819   9.801 -2.9232 -0.3138 -0.1680
  302MOL0     H40763  10.184   6.729   9.655  1.0579  0.1626  0.6211
  302MOL0     H40764  10.299   7.017   9.654 -1.6823  0.4021  2.3856
  302MOL0     H40765  10.250   6.925   9.512  1.5830  0.2101  0.9640
  302MOL0     H40766   9.892   7.089   9.682  0.9685  1.8691 -0.9863
  302MOL0     H40767  10.512   6.853  10.097  4.2554  0.2881 -1.3364
  302MOL0     H40768  10.434   6.847  10.295  2.0111 -1.2533  2.6167
  302MOL0     H40769  10.574   6.935  10.362  1.2592 -0.8852 -2.8209
  302MOL0     H40770  10.399   6.969  10.393  0.3915 -2.5443  1.0132
  303MOL0     O40771   0.871   4.242  10.630  1.0146  0.3445 -0.5122
  303MOL0     C40772   0.828   4.337  10.693  0.0399 -0.6335  0.5377
  303MOL0     O40773   0.873   4.374  10.819  0.4651 -0.5588  0.3438
  303MOL0     C40774   0.979   4.302  10.862  0.6674 -1.2463  0.5388
  303MOL0     C40775   1.102   4.357  10.842 -0.1480 -0.3851 -0.0761
  303MOL0     C40776   1.211   4.300  10.903  0.0851 -0.4614  0.2959
  303MOL0     C40777   1.202   4.186  10.980 -0.6863 -0.1396 -0.4331
  303MOL0     O40778   1.301   4.126  11.052 -0.1376 -0.4704 -0.1323
  303MOL0     C40779   1.399   4.210  11.117  0.4106 -0.4423 -0.3332
  303MOL0     C40780   1.462   4.131  11.236 -0.6984 -0.4602 -0.2756
  303MOL0     C40781   1.524   4.236  11.331 -1.1995 -0.5644 -0.0711
  303MOL0     C40782   1.598   4.168  11.441 -0.1487  0.5813  0.4906
  303MOL0     C40783   1.664   4.265  11.534  0.6467 -0.7131 -0.0027
  303MOL0     C40784   1.728   4.192  11.650 -0.6921 -0.1507 -0.6386
  303MOL0     C40785   1.791   4.279  11.751  0.3296  0.0935 -0.1466
  303MOL0     C40786   1.864   4.204  11.866  0.1606  0.0592  0.5731
  303MOL0     N40787   1.875   4.302  11.981 -0.5466  0.1535 -0.8176
  303MOL0     C40788   1.969   4.403  11.970  0.8904 -0.4805  1.5224
  303MOL0     C40789   1.963   4.474  12.090  0.0402  0.7825 -0.1309
  303MOL0     C40790   2.046   4.597  12.122  0.2853 -0.5049  0.5998
  303MOL0     C40791   2.194   4.567  12.098  0.4937 -0.3263  0.9548
  303MOL0     C40792   2.260   4.516  12.223 -0.1445 -0.6504 -0.1101
  303MOL0     C40793   2.413   4.514  12.217  0.0665 -0.1522 -0.1650
  303MOL0     O40794   2.448   4.487  12.355  0.5329  0.4968  0.0263
  303MOL0     C40795   2.575   4.459  12.378  0.1893  0.3795  0.5079
  303MOL0     C40796   2.595   4.408  12.507 -0.0239  0.4285 -0.7407
  303MOL0     C40797   2.721   4.362  12.551 -0.7245 -0.1483 -0.2839
  303MOL0     C40798   2.827   4.370  12.460 -0.1648 -0.1769  0.1126
  303MOL0     C40799   2.971   4.351  12.494  0.3908  0.6140  1.2632
  303MOL0     O40800   2.994   4.334  12.626 -0.0290 -0.4110  0.3369
  303MOL0     C40801   3.126   4.338  12.664 -0.5556 -0.4597  0.6600
  303MOL0     C40802   3.185   4.215  12.696 -0.0607 -0.1195  0.4652
  303MOL0     C40803   3.317   4.205  12.739  0.1955 -0.4235 -0.0361
  303MOL0     C40804   3.405   4.310  12.728 -0.3528  0.4871 -0.0913
  303MOL0     O40805   3.541   4.305  12.731  0.2844  0.2541  0.0144
  303MOL0     C40806   3.599   4.169  12.726  0.5297  0.0526 -0.8945
  303MOL0     C40807   3.749   4.177  12.734  0.0236  0.0994 -0.7286
  303MOL0     C40808   3.811   4.193  12.592  0.2103 -0.2642 -0.6984
  303MOL0     C40809   3.952   4.244  12.622 -0.1566  0.5706 -0.5091
  303MOL0     C40810   4.036   4.274  12.500 -0.5709 -0.0871  0.4939
  303MOL0     C40811   4.053   4.154  12.404 -0.2984  0.0136 -0.4939
  303MOL0     C40812   4.156   4.190  12.301 -0.6518 -0.0840  0.0503
  303MOL0     C40813   4.186   4.060  12.219  0.1952 -0.8626  0.6452
  303MOL0    Cl40814   4.059   4.049  12.085  0.0673  0.4789 -0.2949
  303MOL0     C40815   3.345   4.435  12.696  0.2695 -0.4568 -0.3355
  303MOL0     C40816   3.207   4.452  12.666 -0.5892  0.8761  0.9235
  303MOL0     O40817   3.055   4.345  12.408  0.8541 -0.4104  0.3218
  303MOL0     C40818   2.805   4.409  12.326 -0.1630 -0.5113  0.2285
  303MOL0     C40819   2.686   4.463  12.284  0.0978 -0.1450  0.3131
  303MOL0     N40820   1.863   4.426  12.166  0.2991 -0.1896  0.0475
  303MOL0     N40821   1.805   4.325  12.096  0.0203 -0.2968 -0.0374
  303MOL0     C40822   1.075   4.133  11.003  0.3183 -0.3279  0.4439
  303MOL0     C40823   0.959   4.194  10.945 -0.1413  0.3565  0.3978
  303MOL0     C40824   0.721   4.415  10.632 -0.1739  0.5971 -1.5548
  303MOL0     C40825   0.629   4.482  10.716 -0.5315  0.4882  0.1771
  303MOL0     C40826   0.519   4.540  10.656  0.6087 -0.0686  0.0024
  303MOL0     C40827   0.492   4.539  10.519 -0.2596 -0.2373  1.0902
  303MOL0     O40828   0.380   4.593  10.469  0.0585  0.2242 -0.3301
  303MOL0     C40829   0.333   4.580  10.334  0.8329  0.0894 -0.0274
  303MOL0     C40830   0.194   4.654  10.318  0.1371 -0.5452 -0.2923
  303MOL0     C40831   0.132   4.620  10.176  0.4574 -0.6517 -0.2221
  303MOL0     C40832   0.007   4.702  10.150 -0.0515 -0.9095 -0.2056
  303MOL0     C40833  -0.103   4.668  10.239  0.4526 -0.6985  0.0101
  303MOL0     C40834  -0.202   4.668  10.307 -0.0109 -0.2289  0.7537
  303MOL0     C40835   0.598   4.489  10.444  0.1028 -0.5436  0.0584
  303MOL0     C40836   0.706   4.428  10.498 -0.0995  1.0871  0.1538
  303MOL0     C40837   0.804   4.371  10.391  0.1655 -0.6334  0.5401
  303MOL0     H40838   1.121   4.452  10.794  2.3563 -0.5180  0.5188
  303MOL0     H40839   1.313   4.332  10.885  0.0693 -0.6740 -0.1963
  303MOL0     H40840   1.488   4.235  11.060  1.5157  0.4140  1.6574
  303MOL0     H40841   1.349   4.298  11.158 -0.2729 -0.5336 -0.9490
  303MOL0     H40842   1.540   4.067  11.193  1.3103  3.4682 -3.1377
  303MOL0     H40843   1.379   4.084  11.289 -0.7294 -0.4075 -0.2785
  303MOL0     H40844   1.446   4.291  11.383 -1.9359 -1.1778 -0.5054
  303MOL0     H40845   1.588   4.312  11.284 -1.6661  0.4645  0.9213
  303MOL0     H40846   1.517   4.112  11.489 -1.1465 -0.4449 -2.2321
  303MOL0     H40847   1.675   4.101  11.402 -1.8883 -2.3740  1.6973
  303MOL0     H40848   1.738   4.319  11.474 -1.0894 -0.6597 -2.2136
  303MOL0     H40849   1.586   4.333  11.567  2.3061  0.2918  2.1779
  303MOL0     H40850   1.660   4.123  11.701 -0.8606  2.2257  2.6579
  303MOL0     H40851   1.819   4.144  11.611  0.7154  2.0460 -0.2363
  303MOL0     H40852   1.708   4.336  11.795  2.0116  2.6505 -0.1218
  303MOL0     H40853   1.861   4.343  11.697  2.3025 -1.8956 -0.0626
  303MOL0     H40854   1.806   4.118  11.900  2.7149 -2.2179 -0.4590
  303MOL0     H40855   1.958   4.166  11.827 -0.1683  1.0000 -1.2783
  303MOL0     H40856   2.027   4.419  11.880 -0.7697  0.3131  0.5287
  303MOL0     H40857   2.012   4.678  12.057  2.9611  0.4137  0.2261
  303MOL0     H40858   2.009   4.626  12.221 -2.4165 -0.5259 -0.3201
  303MOL0     H40859   2.215   4.488  12.025  2.6944  1.6291 -0.7120
  303MOL0     H40860   2.247   4.656  12.062 -0.5244  0.4884  1.4355
  303MOL0     H40861   2.222   4.417  12.251 -2.8332  1.2325  3.8739
  303MOL0     H40862   2.229   4.584  12.303 -0.9012 -0.9730 -0.1149
  303MOL0     H40863   2.455   4.610  12.187  0.8634 -0.0349  1.2103
  303MOL0     H40864   2.446   4.433  12.152  4.3046  0.5289  0.7857
  303MOL0     H40865   2.504   4.398  12.565 -1.4219  0.5731 -2.8142
  303MOL0     H40866   2.745   4.340  12.655 -3.0422  0.3873  0.4130
  303MOL0     H40867   3.115   4.132  12.699 -1.5725  1.0662 -0.7333
  303MOL0     H40868   3.341   4.104  12.773  0.3618 -0.9443 -1.6009
  303MOL0     H40869   3.562   4.123  12.818 -0.0213 -0.7455 -1.4924
  303MOL0     H40870   3.576   4.100  12.644  1.0446 -0.5740 -0.5221
  303MOL0     H40871   3.780   4.258  12.802  1.6160  0.9899 -2.4388
  303MOL0     H40872   3.791   4.084  12.772  0.5300  0.5383 -0.1846
  303MOL0     H40873   3.803   4.102  12.533 -0.6280 -1.8642  1.6990
  303MOL0     H40874   3.756   4.267  12.533  0.0877  0.4036  0.2301
  303MOL0     H40875   4.001   4.172  12.688  0.3425  0.8611 -0.5626
  303MOL0     H40876   3.950   4.340  12.673  1.7248  0.7374 -0.6812
  303MOL0     H40877   4.131   4.319  12.532  0.2549 -2.6587  1.9455
  303MOL0     H40878   3.985   4.348  12.437  0.9535  0.3258 -0.3114
  303MOL0     H40879   4.098   4.069  12.457  1.0251  0.1965 -1.2759
  303MOL0     H40880   3.965   4.117  12.351 -1.4364 -0.0221  1.3321
  303MOL0     H40881   4.249   4.221  12.349 -0.2500 -1.4483  0.1805
  303MOL0     H40882   4.120   4.268  12.233  0.5405 -2.2546 -3.2781
  303MOL0     H40883   4.279   4.065  12.163  0.0765 -0.5974  0.4703
  303MOL0     H40884   4.200   3.973  12.284  2.1976  0.9923  2.8851
  303MOL0     H40885   3.407   4.524  12.692  0.1561 -0.3968 -0.9292
  303MOL0     H40886   3.156   4.546  12.649  2.0592  1.8159 -3.1115
  303MOL0     H40887   2.879   4.407  12.246 -0.2296  2.9778 -0.0941
  303MOL0     H40888   2.689   4.494  12.180  2.5817 -0.9446  0.0652
  303MOL0     H40889   1.051   4.058  11.079 -1.0679  1.3244  1.7201
  303MOL0     H40890   0.861   4.152  10.966 -0.5802  1.7605  1.2591
  303MOL0     H40891   0.637   4.486  10.824  3.0704  3.0500 -0.0146
  303MOL0     H40892   0.445   4.574  10.727  0.8151 -1.3861  0.8666
  303MOL0     H40893   0.308   4.474  10.322 -1.8140  0.4508  1.4673
  303MOL0     H40894   0.403   4.616  10.258 -1.5211  0.0589 -2.3537
  303MOL0     H40895   0.200   4.762  10.333 -0.8277 -0.4431 -0.5341
  303MOL0     H40896   0.120   4.611  10.387 -0.2301 -0.4331 -0.6124
  303MOL0     H40897   0.105   4.514  10.176  0.7269 -0.7448  1.4717
  303MOL0     H40898   0.202   4.638  10.094 -0.0782 -2.8216 -1.2282
  303MOL0     H40899   0.036   4.808  10.154  0.5243 -1.0803  0.3749
  303MOL0     H40900  -0.026   4.682  10.047  0.4205  2.0308 -1.0175
  303MOL0     H40901  -0.291   4.657  10.366 -1.9969  1.3864 -1.7499
  303MOL0     H40902   0.566   4.494  10.341 -2.9657 -2.1584  0.7948
  303MOL0     H40903   0.904   4.416  10.399  0.0549  0.2018 -1.9015
  303MOL0     H40904   0.818   4.263  10.404 -1.5001 -0.9806 -0.3503
  303MOL0     H40905   0.770   4.387  10.288 -0.1234 -1.9931  0.4085
  304MOL0     O40906   2.076   3.872   9.011 -0.5628 -0.7642  0.0861
  304MOL0     C40907   2.015   3.771   9.042 -0.4396 -0.2024 -0.0709
  304MOL0     O40908   2.046   3.639   9.001 -0.3043 -0.2519 -0.2877
  304MOL0     C40909   2.168   3.617   8.936 -0.8639 -0.0966  0.4094
  304MOL0     C40910   2.267   3.534   8.997  0.1435 -0.0571  0.8954
  304MOL0     C40911   2.391   3.514   8.936 -0.6790  0.7037 -0.7031
  304MOL0     C40912   2.418   3.571   8.810 -0.2399  0.7832 -0.2983
  304MOL0     O40913   2.539   3.545   8.749 -0.0650 -0.7180 -0.7629
  304MOL0     C40914   2.648   3.484   8.824  0.1766  0.0099  0.0106
  304MOL0     C40915   2.779   3.467   8.744 -0.0630 -0.0248 -0.0690
  304MOL0     C40916   2.863   3.582   8.687 -0.3235 -0.1502  0.3476
  304MOL0     C40917   2.871   3.692   8.784 -0.8405  1.0469  0.9547
  304MOL0     C40918   2.955   3.805   8.731  0.1395 -0.3890 -0.8419
  304MOL0     C40919   3.100   3.766   8.713 -0.3601 -0.0736  0.2457
  304MOL0     C40920   3.198   3.881   8.683  1.1282  0.2179 -0.6327
  304MOL0     C40921   3.155   3.956   8.556  0.0726 -0.8884  0.9560
  304MOL0     N40922   3.166   3.874   8.437  0.3696  0.0451 -0.5307
  304MOL0     C40923   3.068   3.863   8.344 -0.2547 -0.4987 -0.2309
  304MOL0     C40924   3.112   3.769   8.262 -0.2313 -0.1469 -0.1432
  304MOL0     C40925   3.033   3.693   8.162 -0.9285 -0.6700  1.1566
  304MOL0     C40926   2.931   3.594   8.230  0.2603 -0.1860 -0.4065
  304MOL0     C40927   2.938   3.451   8.169 -0.2131  0.1944  0.5477
  304MOL0     C40928   2.834   3.349   8.232  0.0038 -0.3403  0.0484
  304MOL0     O40929   2.698   3.376   8.197  0.3581 -0.5865  0.6123
  304MOL0     C40930   2.601   3.332   8.286 -0.1075  0.1361  0.3810
  304MOL0     C40931   2.624   3.248   8.395  0.0102 -0.6291  1.1578
  304MOL0     C40932   2.522   3.214   8.482  0.5722  0.1889  0.2217
  304MOL0     C40933   2.392   3.263   8.458 -0.8720  0.3733 -0.0811
  304MOL0     C40934   2.277   3.216   8.538 -0.8564 -0.8853 -0.3006
  304MOL0     O40935   2.148   3.224   8.486 -0.7679 -0.1204 -0.5073
  304MOL0     C40936   2.051   3.191   8.576  0.2913 -0.2788 -0.2256
  304MOL0     C40937   1.977   3.075   8.548 -0.0928 -0.4419  0.8511
  304MOL0     C40938   1.868   3.053   8.637 -0.3014 -0.1291 -0.9069
  304MOL0     C40939   1.850   3.123   8.754  0.1105 -1.2841 -0.1555
  304MOL0     O40940   1.753   3.091   8.842 -0.2518  0.5445 -0.0477
  304MOL0     C40941   1.619   3.082   8.783  0.1337 -0.6263 -0.7187
  304MOL0     C40942   1.543   2.990   8.884 -0.4224  0.3486  0.4670
  304MOL0     C40943   1.399   2.986   8.865  0.6853  0.5741  0.8193
  304MOL0     C40944   1.323   3.119   8.885 -0.1265 -0.0021  0.7043
  304MOL0     C40945   1.171   3.099   8.902  0.6295 -0.8434  0.0595
  304MOL0     C40946   1.097   3.235   8.898  0.3968  0.2628 -0.8561
  304MOL0     C40947   1.132   3.321   8.782 -0.0522  0.4590 -0.1651
  304MOL0     C40948   1.053   3.455   8.775  0.1662  0.0939  0.0385
  304MOL0    Cl40949   0.871   3.409   8.764 -0.0076 -0.4626 -0.1083
  304MOL0     C40950   1.918   3.245   8.770 -0.7379 -0.2984 -0.4272
  304MOL0     C40951   2.023   3.279   8.679  0.5236 -0.5292 -0.1166
  304MOL0     O40952   2.312   3.175   8.652  0.2760 -0.7832  0.2278
  304MOL0     C40953   2.365   3.346   8.348  0.2216  0.4527  0.7711
  304MOL0     C40954   2.466   3.375   8.263 -0.3595  0.5907 -0.3054
  304MOL0     N40955   3.240   3.725   8.306  0.5513 -0.3950  0.5466
  304MOL0     N40956   3.269   3.794   8.408 -0.0017 -0.1484  0.3003
  304MOL0     C40957   2.321   3.644   8.744  0.5208  0.5732 -0.1809
  304MOL0     C40958   2.197   3.671   8.809 -0.6113  0.1552 -0.3383
  304MOL0     C40959   1.904   3.772   9.145  0.4674  0.3383 -0.7662
  304MOL0     C40960   1.820   3.884   9.147  0.6118  0.5332  1.0623
  304MOL0     C40961   1.714   3.899   9.235  0.0436  0.1537 -0.2044
  304MOL0     C40962   1.685   3.802   9.326  0.3043  0.3799 -0.1984
  304MOL0     O40963   1.584   3.823   9.415 -0.5016 -0.9679  0.2663
  304MOL0     C40964   1.583   3.736   9.529  0.8846  0.6277  0.8918
  304MOL0     C40965   1.481   3.793   9.627  0.8729 -0.0830  0.0889
  304MOL0     C40966   1.341   3.771   9.576 -0.2483  0.4413 -0.2419
  304MOL0     C40967   1.240   3.839   9.668 -0.3101 -0.1648  0.5930
  304MOL0     C40968   1.223   3.774   9.795 -0.1238 -0.0434 -0.5596
  304MOL0     C40969   1.212   3.730   9.908  0.2520  0.2405  0.3852
  304MOL0     C40970   1.765   3.684   9.324  0.4707  0.2778  1.0565
  304MOL0     C40971   1.876   3.672   9.238 -0.9553 -0.6747 -0.4835
  304MOL0     C40972   1.948   3.545   9.251 -0.5614 -0.8532  0.2273
  304MOL0     H40973   2.249   3.498   9.098 -1.6053 -2.1355 -0.0704
  304MOL0     H40974   2.467   3.454   8.987 -0.9255 -0.3315 -1.5341
  304MOL0     H40975   2.664   3.550   8.909 -1.9786  1.4287 -0.5844
  304MOL0     H40976   2.627   3.384   8.863 -1.0146  0.7389  1.3054
  304MOL0     H40977   2.756   3.400   8.661 -3.7598 -0.1114  0.8526
  304MOL0     H40978   2.846   3.420   8.817  1.7460  2.0291 -0.3092
  304MOL0     H40979   2.813   3.620   8.597 -1.3062 -0.2408  0.8438
  304MOL0     H40980   2.961   3.548   8.651  0.4367  1.5213  0.7208
  304MOL0     H40981   2.771   3.728   8.808 -0.0684  3.3739  1.0061
  304MOL0     H40982   2.905   3.651   8.879 -0.4070 -0.4024  0.2136
  304MOL0     H40983   2.912   3.849   8.641  2.1209 -0.8534 -2.0745
  304MOL0     H40984   2.966   3.886   8.804 -1.4831 -0.0918 -0.8810
  304MOL0     H40985   3.132   3.696   8.791 -0.3159 -2.9629 -2.1689
  304MOL0     H40986   3.099   3.707   8.620  0.1485 -0.4651  0.4809
  304MOL0     H40987   3.301   3.846   8.674  1.4940  1.2682 -0.6087
  304MOL0     H40988   3.187   3.960   8.757 -0.4038 -0.4114 -0.1311
  304MOL0     H40989   3.054   3.999   8.558  0.3306 -0.2352  0.3993
  304MOL0     H40990   3.227   4.038   8.550  1.4849 -2.1080  0.7793
  304MOL0     H40991   2.964   3.895   8.344  0.2962  1.4218 -0.1427
  304MOL0     H40992   2.981   3.764   8.098  1.2465 -0.5753 -0.6328
  304MOL0     H40993   3.097   3.643   8.088  1.2545  1.1090  1.7271
  304MOL0     H40994   2.943   3.606   8.338 -1.7212  2.6378 -0.3800
  304MOL0     H40995   2.831   3.635   8.212  0.3857  0.3802  0.1596
  304MOL0     H40996   3.038   3.407   8.178 -0.3154 -1.0214 -2.7480
  304MOL0     H40997   2.920   3.454   8.061  0.2643  2.3357  0.4737
  304MOL0     H40998   2.857   3.364   8.337 -0.7951  0.7369  0.0899
  304MOL0     H40999   2.860   3.250   8.192  1.0258  0.7154 -2.1330
  304MOL0     H41000   2.727   3.220   8.412  1.5703  2.4857 -1.8385
  304MOL0     H41001   2.538   3.149   8.568 -1.0845  0.0314  0.4330
  304MOL0     H41002   1.993   3.036   8.448  0.0977  1.4287  0.1084
  304MOL0     H41003   1.813   2.963   8.614  0.5214 -0.5297 -1.3417
  304MOL0     H41004   1.570   3.180   8.782  0.3458 -0.4156  1.7537
  304MOL0     H41005   1.607   3.033   8.686  1.8368 -4.2476  0.6782
  304MOL0     H41006   1.594   2.896   8.861 -1.2130  0.5701 -2.4972
  304MOL0     H41007   1.567   3.018   8.988  3.4997 -1.8995  0.3612
  304MOL0     H41008   1.369   2.942   8.770  0.0341 -3.7617  2.7860
  304MOL0     H41009   1.359   2.913   8.936 -0.2016  0.6063  0.3607
  304MOL0     H41010   1.352   3.167   8.791  0.0146 -2.7537 -0.7585
  304MOL0     H41011   1.358   3.177   8.971 -0.3610  1.0968  0.0741
  304MOL0     H41012   1.143   3.058   9.000 -0.2272  0.6609  0.4745
  304MOL0     H41013   1.137   3.034   8.821  1.3679 -0.6453 -0.4125
  304MOL0     H41014   0.988   3.222   8.905  0.0479  2.0861 -2.2677
  304MOL0     H41015   1.124   3.287   8.990 -1.6233 -0.7675  0.4008
  304MOL0     H41016   1.124   3.257   8.693  0.6511 -1.6528  1.2178
  304MOL0     H41017   1.236   3.351   8.801  0.0917  1.5956 -2.3778
  304MOL0     H41018   1.083   3.518   8.859 -2.0533 -0.0887  1.0301
  304MOL0     H41019   1.083   3.517   8.690  0.4022  0.0592  0.0982
  304MOL0     H41020   1.940   3.298   8.863  0.8301  2.8477 -2.3871
  304MOL0     H41021   2.094   3.361   8.691 -0.3890  0.0030  2.1821
  304MOL0     H41022   2.267   3.383   8.321  0.8973  1.3216 -0.6525
  304MOL0     H41023   2.444   3.432   8.173 -0.6669  1.6411  0.4067
  304MOL0     H41024   2.333   3.685   8.644 -0.2705 -2.5377 -1.7002
  304MOL0     H41025   2.127   3.734   8.755  0.2083  1.0114 -0.4414
  304MOL0     H41026   1.850   3.963   9.078 -0.3453 -0.2397 -0.2743
  304MOL0     H41027   1.649   3.985   9.228  0.5264  0.3924 -2.1642
  304MOL0     H41028   1.678   3.732   9.583  0.2667  2.3963  2.2207
  304MOL0     H41029   1.543   3.638   9.501 -0.4833  1.7508 -1.3823
  304MOL0     H41030   1.494   3.898   9.655 -0.2847  0.1259 -0.1418
  304MOL0     H41031   1.490   3.745   9.725 -1.2737  0.9861  0.8537
  304MOL0     H41032   1.326   3.663   9.566 -1.2393  0.5742 -0.3407
  304MOL0     H41033   1.316   3.813   9.478 -1.7002 -1.9012 -0.9439
  304MOL0     H41034   1.274   3.940   9.691 -1.1679  0.3365 -0.2980
  304MOL0     H41035   1.142   3.855   9.624  1.4074  0.6859 -3.2926
  304MOL0     H41036   1.203   3.690  10.006 -0.6828 -0.9367 -0.1563
  304MOL0     H41037   1.746   3.602   9.392 -0.1452 -0.0143  0.5469
  304MOL0     H41038   1.920   3.492   9.343 -0.4633 -4.0489 -1.4290
  304MOL0     H41039   1.928   3.492   9.157  1.0782 -0.6898 -0.2397
  304MOL0     H41040   2.054   3.571   9.247 -0.3369 -1.5206  1.3620
  305MOL0     O41041   3.806   3.168   0.677  0.4008  0.2370 -0.3216
  305MOL0     C41042   3.754   3.277   0.696  0.6855 -0.5785  0.7779
  305MOL0     O41043   3.809   3.401   0.664  0.7507  0.4955  0.1404
  305MOL0     C41044   3.892   3.429   0.556 -0.8830  0.3852  0.9261
  305MOL0     C41045   3.915   3.338   0.457 -0.3508 -0.4940 -0.2452
  305MOL0     C41046   3.995   3.376   0.350  0.2157  0.4092 -0.0115
  305MOL0     C41047   4.035   3.502   0.329 -0.6427 -0.5844 -0.6207
  305MOL0     O41048   4.111   3.544   0.223  0.6780 -0.0289  0.0355
  305MOL0     C41049   4.149   3.451   0.121 -0.2613  0.3679 -0.7923
  305MOL0     C41050   4.220   3.530   0.008 -0.3609 -0.1054 -0.2185
  305MOL0     C41051   4.123   3.611  -0.070 -0.7476  0.3386 -0.0048
  305MOL0     C41052   4.037   3.530  -0.165  0.1790 -0.6596 -0.0508
  305MOL0     C41053   3.960   3.626  -0.256 -0.2042  0.0817 -1.2789
  305MOL0     C41054   3.898   3.574  -0.380 -0.6968 -0.1505  0.8798
  305MOL0     C41055   3.828   3.439  -0.362  0.0893 -1.1092 -0.5791
  305MOL0     C41056   3.786   3.387  -0.502 -0.7846  0.6160  0.1129
  305MOL0     N41057   3.893   3.390  -0.605  0.0669  0.6975  0.4061
  305MOL0     C41058   4.013   3.328  -0.579 -0.0360  0.8717  0.0266
  305MOL0     C41059   4.083   3.325  -0.692  0.2905 -0.5361 -0.9706
  305MOL0     C41060   4.216   3.272  -0.722  0.3392  0.1466 -0.4509
  305MOL0     C41061   4.215   3.122  -0.706 -0.2889 -0.8122  0.7934
  305MOL0     C41062   4.127   3.042  -0.798 -0.2860  0.5968 -0.0270
  305MOL0     C41063   4.157   3.061  -0.949  0.2351  0.0041  0.7388
  305MOL0     O41064   4.294   3.008  -0.964 -0.0801 -0.3656  0.1986
  305MOL0     C41065   4.330   3.017  -1.092 -0.8997 -0.0782 -0.0698
  305MOL0     C41066   4.298   2.911  -1.185 -0.5253  0.3244 -0.6543
  305MOL0     C41067   4.360   2.893  -1.307  0.1473 -0.1242 -0.7981
  305MOL0     C41068   4.455   2.990  -1.341 -0.0189  0.0029 -0.3854
  305MOL0     C41069   4.536   2.966  -1.457 -0.1110 -0.1348  0.4428
  305MOL0     O41070   4.627   3.061  -1.492  0.0000  0.5443 -0.3274
  305MOL0     C41071   4.712   3.029  -1.599  0.5399  0.2403 -0.5541
  305MOL0     C41072   4.687   3.104  -1.709 -0.2163 -0.0245  0.3341
  305MOL0     C41073   4.787   3.088  -1.810  0.3247 -0.7759 -0.0522
  305MOL0     C41074   4.885   2.990  -1.806  0.6251  0.4172  0.1565
  305MOL0     O41075   4.975   2.961  -1.909  0.5212 -0.1838 -0.1020
  305MOL0     C41076   5.043   3.057  -1.990  0.5570 -0.4287 -0.1035
  305MOL0     C41077   5.187   3.008  -2.008 -0.0691 -0.1170 -0.2624
  305MOL0     C41078   5.256   3.011  -1.871 -0.0204  0.2473 -0.2219
  305MOL0     C41079   5.297   3.155  -1.822  0.5929 -0.0437 -0.6907
  305MOL0     C41080   5.393   3.164  -1.699 -0.0942  0.2575  0.0717
  305MOL0     C41081   5.345   3.081  -1.579 -0.1744 -0.1143  0.1529
  305MOL0     C41082   5.210   3.141  -1.524 -0.0181  0.1057 -0.2187
  305MOL0     C41083   5.166   3.047  -1.418  0.4158 -0.0807 -0.1322
  305MOL0    Cl41084   5.281   3.049  -1.275  0.4589  0.1729  0.3521
  305MOL0     C41085   4.887   2.904  -1.698  0.1306  0.2335 -0.4425
  305MOL0     C41086   4.807   2.925  -1.588  0.4472 -0.5980  0.4848
  305MOL0     O41087   4.521   2.860  -1.515 -0.7362  0.1526  0.1029
  305MOL0     C41088   4.483   3.095  -1.257  1.2971 -0.4332 -0.2545
  305MOL0     C41089   4.421   3.113  -1.133 -0.1746  0.1744  0.6737
  305MOL0     N41090   4.002   3.379  -0.792  0.1350 -0.0632 -0.1751
  305MOL0     N41091   3.891   3.424  -0.739  0.2314 -0.6093 -0.0975
  305MOL0     C41092   4.025   3.597   0.438 -0.8097  0.2828  0.0249
  305MOL0     C41093   3.957   3.552   0.550  0.1406  0.2254  0.4204
  305MOL0     C41094   3.628   3.282   0.770  0.0318 -0.0299  0.2151
  305MOL0     C41095   3.570   3.406   0.771 -0.1085 -1.5844  0.4928
  305MOL0     C41096   3.459   3.436   0.851 -0.3143  0.1614 -0.0896
  305MOL0     C41097   3.409   3.340   0.941 -0.6872  0.7100  0.0328
  305MOL0     O41098   3.294   3.372   1.003  0.6750  0.3328 -0.4992
  305MOL0     C41099   3.251   3.277   1.104  0.8570 -0.5185  0.0507
  305MOL0     C41100   3.130   3.330   1.177  0.1350  0.0638  0.0449
  305MOL0     C41101   3.074   3.216   1.266 -0.1448 -0.1434 -1.5041
  305MOL0     C41102   2.959   3.259   1.358 -0.1301 -0.2115 -0.1104
  305MOL0     C41103   2.922   3.136   1.422  0.2321 -0.1097  0.0275
  305MOL0     C41104   2.900   3.031   1.470 -0.0163  0.0569 -0.8661
  305MOL0     C41105   3.471   3.216   0.936 -1.2140  0.0115 -0.5765
  305MOL0     C41106   3.571   3.179   0.850 -0.6474 -0.5028  0.2426
  305MOL0     C41107   3.633   3.038   0.856  0.0897  0.3563 -0.3590
  305MOL0     H41108   3.869   3.240   0.462 -0.4696 -0.4118  0.3504
  305MOL0     H41109   4.021   3.293   0.285  0.5894 -0.7704  1.5672
  305MOL0     H41110   4.220   3.380   0.164  2.1611  1.7570 -2.3042
  305MOL0     H41111   4.063   3.399   0.077  1.3057 -1.3202 -1.9704
  305MOL0     H41112   4.276   3.458  -0.052 -0.8511  0.0620 -0.8898
  305MOL0     H41113   4.279   3.605   0.062 -0.5258 -1.9441  2.7232
  305MOL0     H41114   4.181   3.683  -0.130  0.0144 -0.0470  0.2525
  305MOL0     H41115   4.062   3.675  -0.006 -2.4784  0.8312 -2.0440
  305MOL0     H41116   4.112   3.477  -0.225  1.4673 -0.5589  1.3962
  305MOL0     H41117   3.975   3.455  -0.115  1.8730 -2.5935 -0.7064
  305MOL0     H41118   3.874   3.662  -0.200 -0.4560 -0.4894 -1.2939
  305MOL0     H41119   4.020   3.712  -0.289 -0.6937  1.0951  0.3552
  305MOL0     H41120   3.823   3.647  -0.413  0.4009  0.3382 -0.6838
  305MOL0     H41121   3.974   3.575  -0.459 -1.5590  1.4873  0.0046
  305MOL0     H41122   3.735   3.449  -0.305  0.1419 -1.3173 -0.4545
  305MOL0     H41123   3.886   3.363  -0.309 -1.5337 -0.6787  1.9966
  305MOL0     H41124   3.730   3.293  -0.491 -2.6127  1.6159 -0.2177
  305MOL0     H41125   3.707   3.456  -0.532 -1.5246  0.3339  1.3464
  305MOL0     H41126   4.040   3.271  -0.492 -0.2660  0.1771 -0.3516
  305MOL0     H41127   4.245   3.302  -0.823  1.1532 -2.7143 -1.1711
  305MOL0     H41128   4.296   3.308  -0.658  0.8015 -0.3077 -0.7638
  305MOL0     H41129   4.316   3.084  -0.691 -0.8976 -1.4544  3.9676
  305MOL0     H41130   4.168   3.089  -0.612 -1.3618 -3.3282 -0.5127
  305MOL0     H41131   4.021   3.054  -0.774 -0.8880 -3.4989  0.0202
  305MOL0     H41132   4.141   2.935  -0.778  1.7110  0.5680 -1.2704
  305MOL0     H41133   4.141   3.168  -0.966  1.6346 -0.2664 -3.2959
  305MOL0     H41134   4.084   3.012  -1.015 -0.7080  1.9390  0.2581
  305MOL0     H41135   4.229   2.836  -1.148  0.4298  0.2520  1.1225
  305MOL0     H41136   4.346   2.800  -1.361  0.1570  0.8775 -2.6121
  305MOL0     H41137   4.611   3.180  -1.718 -0.7085 -0.5726 -0.2449
  305MOL0     H41138   4.768   3.146  -1.900  1.5972  2.8543  1.8368
  305MOL0     H41139   5.002   3.069  -2.091  0.4285  3.0438  0.2540
  305MOL0     H41140   5.034   3.154  -1.940  2.1680 -0.8815  1.1413
  305MOL0     H41141   5.190   2.906  -2.047 -0.8920 -0.0029 -0.6573
  305MOL0     H41142   5.231   3.079  -2.079 -0.4369  0.7541  0.3663
  305MOL0     H41143   5.207   2.949  -1.796 -0.6770 -0.0004 -0.8451
  305MOL0     H41144   5.351   2.960  -1.895  0.9815  2.5859 -1.5888
  305MOL0     H41145   5.207   3.209  -1.790  0.4856 -0.2991 -0.5593
  305MOL0     H41146   5.351   3.206  -1.902 -0.4980  2.3301  0.0033
  305MOL0     H41147   5.414   3.264  -1.661  1.5936  0.0714 -0.2998
  305MOL0     H41148   5.490   3.121  -1.725  0.6634 -1.0930  4.3392
  305MOL0     H41149   5.349   2.976  -1.607  0.0597  0.1801 -0.9551
  305MOL0     H41150   5.420   3.079  -1.500  1.1584 -1.2664 -1.0813
  305MOL0     H41151   5.131   3.148  -1.599 -0.2635  0.2054  0.0472
  305MOL0     H41152   5.215   3.243  -1.486  0.5323 -0.4551  1.3285
  305MOL0     H41153   5.062   3.060  -1.389  0.7261  0.4750  0.7749
  305MOL0     H41154   5.161   2.953  -1.473  0.3536  0.4611 -1.0748
  305MOL0     H41155   4.960   2.826  -1.676  1.8796  1.7327 -0.6873
  305MOL0     H41156   4.826   2.867  -1.498  2.5767 -0.9153 -0.1063
  305MOL0     H41157   4.547   3.178  -1.286 -0.0552 -0.3294 -3.3274
  305MOL0     H41158   4.451   3.194  -1.069  1.8550  0.1615 -0.2006
  305MOL0     H41159   4.066   3.697   0.440 -0.1550  0.2051 -3.7156
  305MOL0     H41160   3.950   3.623   0.631 -0.8873  0.0837  0.4693
  305MOL0     H41161   3.610   3.492   0.718  2.9645 -3.1704 -0.0050
  305MOL0     H41162   3.405   3.530   0.843  3.0559  2.3924  1.1656
  305MOL0     H41163   3.326   3.260   1.182 -0.3522  1.5115  1.7946
  305MOL0     H41164   3.223   3.186   1.050 -3.9100  1.4350 -1.2784
  305MOL0     H41165   3.057   3.362   1.102 -1.7706 -4.7045 -0.4874
  305MOL0     H41166   3.156   3.414   1.242 -2.8724  1.1894 -0.0497
  305MOL0     H41167   3.146   3.171   1.336 -2.2760 -0.4142  0.6649
  305MOL0     H41168   3.042   3.135   1.200  0.2864 -3.8556  2.3848
  305MOL0     H41169   2.979   3.338   1.431  2.0364 -0.0142 -0.8439
  305MOL0     H41170   2.876   3.287   1.293 -1.8593 -1.0667  1.6102
  305MOL0     H41171   2.878   2.932   1.505  0.2224  0.1402 -0.4858
  305MOL0     H41172   3.437   3.143   1.009 -0.9073 -3.7370 -3.8802
  305MOL0     H41173   3.569   2.974   0.917  1.4578 -0.3899  0.3423
  305MOL0     H41174   3.637   2.993   0.757  2.1461 -0.0515 -0.1250
  305MOL0     H41175   3.736   3.038   0.892 -0.1996 -1.6147  0.5960
  306MOL0     O41176   3.863   5.338   1.919  0.3244 -0.4057  0.5170
  306MOL0     C41177   3.909   5.266   1.828 -0.4041  0.9344  0.4307
  306MOL0     O41178   3.957   5.144   1.849 -0.1881 -0.2442 -0.7151
  306MOL0     C41179   3.991   5.110   1.978 -0.0704 -0.2311 -0.0191
  306MOL0     C41180   4.112   5.151   2.029 -0.7529  0.0855 -0.6988
  306MOL0     C41181   4.157   5.119   2.159  0.5943  0.0774  0.1786
  306MOL0     C41182   4.074   5.043   2.249 -0.0162  0.2298  0.4437
  306MOL0     O41183   4.110   5.037   2.385  0.4864 -0.3817  0.3492
  306MOL0     C41184   4.015   4.980   2.478 -0.6982 -0.0440 -0.7901
  306MOL0     C41185   4.069   5.031   2.610 -0.2758  0.0503 -0.3170
  306MOL0     C41186   4.187   4.943   2.660  0.0839  1.1893  0.3109
  306MOL0     C41187   4.313   5.028   2.680  0.2054  0.2083 -0.2185
  306MOL0     C41188   4.434   4.967   2.750  0.2720  1.0887 -0.0002
  306MOL0     C41189   4.563   5.050   2.737 -0.3878  1.1599  0.4853
  306MOL0     C41190   4.683   5.009   2.826  0.4664 -0.1843  1.0949
  306MOL0     C41191   4.817   5.083   2.802  0.1913  0.1837  0.3875
  306MOL0     N41192   4.928   5.045   2.891 -0.2602 -0.3388  0.5431
  306MOL0     C41193   4.999   4.925   2.888  0.1188  0.5451 -0.5932
  306MOL0     C41194   5.101   4.952   2.971 -0.3634  0.2630 -1.1678
  306MOL0     C41195   5.212   4.852   3.018  0.3285 -0.6093 -1.0830
  306MOL0     C41196   5.354   4.892   3.020 -0.5274 -0.3928  0.1976
  306MOL0     C41197   5.442   4.799   3.100 -0.3255  0.6862  0.3259
  306MOL0     C41198   5.586   4.854   3.089  0.7344 -1.3195 -0.3485
  306MOL0     O41199   5.672   4.768   3.165  0.4098  0.2752 -0.5290
  306MOL0     C41200   5.807   4.805   3.152  0.1665  0.0532  0.4456
  306MOL0     C41201   5.853   4.933   3.109  0.1936  0.0442 -0.4770
  306MOL0     C41202   5.994   4.959   3.090  0.4498  0.0453  0.2461
  306MOL0     C41203   6.090   4.860   3.113  0.4221  0.7727  0.2672
  306MOL0     C41204   6.237   4.888   3.115  0.2595 -0.6897  0.7936
  306MOL0     O41205   6.318   4.794   3.160 -0.9190 -0.3474 -0.0068
  306MOL0     C41206   6.451   4.821   3.174 -0.0773 -0.0937  0.6484
  306MOL0     C41207   6.506   4.925   3.252 -0.0991 -0.2721 -0.2988
  306MOL0     C41208   6.650   4.952   3.245 -0.0497  1.2735  0.1805
  306MOL0     C41209   6.730   4.862   3.166  0.2972  0.2942  0.1436
  306MOL0     O41210   6.867   4.863   3.149  0.5344  0.2887 -0.9792
  306MOL0     C41211   6.930   4.901   3.269 -0.4264 -0.7310 -0.1293
  306MOL0     C41212   7.075   4.896   3.227 -0.0845  0.3601  0.5734
  306MOL0     C41213   7.159   4.938   3.361  0.5343  1.2121  0.1903
  306MOL0     C41214   7.310   4.946   3.343 -0.1746  0.3546  0.8505
  306MOL0     C41215   7.380   4.805   3.354 -1.1174  0.0170  0.2336
  306MOL0     C41216   7.531   4.823   3.319 -0.0039  0.5933  0.5456
  306MOL0     C41217   7.615   4.699   3.348  0.9852  0.7663 -0.2397
  306MOL0     C41218   7.759   4.733   3.341 -0.9092  0.5012  0.3072
  306MOL0    Cl41219   7.813   4.767   3.170 -0.1620  0.4043  0.4081
  306MOL0     C41220   6.670   4.751   3.101  0.2714 -0.9467 -0.3589
  306MOL0     C41221   6.533   4.734   3.108  0.1787 -0.7192  0.2910
  306MOL0     O41222   6.275   4.992   3.065 -0.2767 -0.7382  0.5499
  306MOL0     C41223   6.045   4.731   3.140 -0.1664  0.7182 -0.2972
  306MOL0     C41224   5.908   4.708   3.168 -0.4879 -0.8132 -0.2102
  306MOL0     N41225   5.101   5.086   3.006 -0.6679 -0.5703  0.6217
  306MOL0     N41226   4.995   5.143   2.961  0.2431  0.5057 -0.5563
  306MOL0     C41227   3.951   4.994   2.185 -0.1648 -0.1671  0.1411
  306MOL0     C41228   3.918   5.019   2.050 -0.0792  0.2574 -0.9320
  306MOL0     C41229   3.911   5.305   1.687 -0.4823 -0.2248 -0.3836
  306MOL0     C41230   4.003   5.235   1.601 -0.3049  0.3148 -0.5362
  306MOL0     C41231   4.000   5.273   1.466 -0.3803  0.8243 -0.2317
  306MOL0     C41232   3.903   5.360   1.411 -1.0971  0.3970  0.6232
  306MOL0     O41233   3.906   5.382   1.273 -0.1979 -0.0944 -1.1599
  306MOL0     C41234   3.948   5.517   1.243  0.3006 -0.3551 -0.1778
  306MOL0     C41235   4.074   5.562   1.313 -0.0678 -0.8699  0.0353
  306MOL0     C41236   4.196   5.495   1.244  0.2928  0.5029 -0.0746
  306MOL0     C41237   4.324   5.500   1.327 -0.3265  0.2673  0.4599
  306MOL0     C41238   4.437   5.429   1.265  0.3277  0.8939  0.6330
  306MOL0     C41239   4.525   5.366   1.213 -0.0897  0.2012 -0.0385
  306MOL0     C41240   3.825   5.431   1.501 -0.0642  0.9364 -0.2860
  306MOL0     C41241   3.822   5.404   1.639  0.2703  0.5155  0.2060
  306MOL0     C41242   3.732   5.486   1.736 -0.1548 -0.5363 -0.0797
  306MOL0     H41243   4.169   5.225   1.974 -0.3914 -0.2921 -0.8410
  306MOL0     H41244   4.252   5.147   2.203 -0.0945  0.7044  1.3373
  306MOL0     H41245   3.914   5.020   2.468 -1.8909 -2.4286  0.8791
  306MOL0     H41246   4.002   4.873   2.460  2.7895 -0.3770 -2.0897
  306MOL0     H41247   3.990   5.022   2.685 -0.7739 -1.8882 -1.0288
  306MOL0     H41248   4.087   5.139   2.606  0.8870 -0.1326 -0.2137
  306MOL0     H41249   4.204   4.861   2.589 -0.2839  1.7284 -0.4040
  306MOL0     H41250   4.163   4.904   2.759  0.0483  2.4533  0.8102
  306MOL0     H41251   4.334   5.051   2.575 -1.5312 -2.3199 -1.2087
  306MOL0     H41252   4.283   5.115   2.739  0.7280  2.5690 -3.2019
  306MOL0     H41253   4.407   4.936   2.851 -0.6634  0.9787 -0.2736
  306MOL0     H41254   4.456   4.866   2.714 -1.8173  0.2967  0.8118
  306MOL0     H41255   4.591   5.051   2.631  1.1173  0.5652  0.8596
  306MOL0     H41256   4.535   5.153   2.761  0.1664  1.6086 -0.7038
  306MOL0     H41257   4.708   4.904   2.811 -0.9429 -0.2267 -1.6123
  306MOL0     H41258   4.643   5.019   2.928 -0.9395 -2.3074  0.8115
  306MOL0     H41259   4.840   5.051   2.700 -1.3571 -1.7025  0.5773
  306MOL0     H41260   4.795   5.191   2.803 -2.4181 -0.2696  0.1442
  306MOL0     H41261   4.972   4.830   2.841  0.0455  0.9593 -1.4068
  306MOL0     H41262   5.188   4.809   3.115  2.3020  0.5229 -0.0265
  306MOL0     H41263   5.205   4.762   2.957  3.3035 -2.3643  0.9246
  306MOL0     H41264   5.389   4.890   2.916  0.6192  0.0014  0.5558
  306MOL0     H41265   5.360   4.995   3.058  1.5042  0.5692 -2.3918
  306MOL0     H41266   5.430   4.694   3.071  3.1686  0.0022  0.8775
  306MOL0     H41267   5.403   4.810   3.201  0.7358 -0.7281  0.9328
  306MOL0     H41268   5.583   4.955   3.131  1.7064 -1.6153  0.4711
  306MOL0     H41269   5.619   4.864   2.985  0.9179 -0.9959 -0.2599
  306MOL0     H41270   5.778   5.011   3.108 -1.1679 -1.2021 -1.8100
  306MOL0     H41271   6.038   5.050   3.052 -1.4503  1.4457  1.2334
  306MOL0     H41272   6.434   4.991   3.298 -2.5076 -1.6287 -1.9106
  306MOL0     H41273   6.701   5.036   3.291 -1.5430  2.6466 -0.5802
  306MOL0     H41274   6.906   5.003   3.300  0.2714  0.2088 -2.4415
  306MOL0     H41275   6.900   4.829   3.345  0.0958 -0.4479  0.3472
  306MOL0     H41276   7.090   4.793   3.191 -1.9774  0.6772 -1.3148
  306MOL0     H41277   7.103   4.956   3.140 -0.4669  1.8397  1.4482
  306MOL0     H41278   7.124   5.034   3.400  2.0955  1.2265  1.6565
  306MOL0     H41279   7.138   4.880   3.451  1.1616  3.4132  1.8566
  306MOL0     H41280   7.352   5.008   3.422 -2.4044 -2.0810  4.1793
  306MOL0     H41281   7.326   4.993   3.245 -1.2485 -1.3349 -0.1680
  306MOL0     H41282   7.349   4.731   3.280 -1.7392  0.6166 -0.1166
  306MOL0     H41283   7.367   4.759   3.453 -0.1648 -0.6150  0.0777
  306MOL0     H41284   7.541   4.843   3.212 -0.2624  0.0142  0.4055
  306MOL0     H41285   7.562   4.911   3.376 -1.3525  1.4741 -0.0336
  306MOL0     H41286   7.580   4.625   3.276  1.1245 -1.5824  1.9824
  306MOL0     H41287   7.596   4.671   3.452 -1.5046  0.5598 -0.7048
  306MOL0     H41288   7.778   4.815   3.411 -1.5602  0.2888  0.7397
  306MOL0     H41289   7.819   4.651   3.382 -0.6428  0.2624 -0.5402
  306MOL0     H41290   6.740   4.694   3.041 -0.3132  0.0080 -2.0022
  306MOL0     H41291   6.499   4.650   3.048 -0.3016 -1.4164  1.5155
  306MOL0     H41292   6.121   4.655   3.148 -0.2081  0.7782  0.8936
  306MOL0     H41293   5.871   4.610   3.196  1.8158 -1.0566  2.4723
  306MOL0     H41294   3.882   4.936   2.245 -2.9019  0.9018 -1.7908
  306MOL0     H41295   3.830   4.985   1.997  1.2275 -1.3571 -2.1676
  306MOL0     H41296   4.079   5.164   1.634 -2.5247 -1.8567  0.2812
  306MOL0     H41297   4.065   5.224   1.394 -2.8116 -1.0839 -1.2909
  306MOL0     H41298   3.869   5.585   1.277  0.6396  1.6086 -2.9549
  306MOL0     H41299   3.953   5.536   1.135 -1.5086  3.0002  0.1890
  306MOL0     H41300   4.072   5.555   1.422 -1.1439  2.1422  0.3061
  306MOL0     H41301   4.081   5.670   1.293 -0.0170 -1.2217 -2.0784
  306MOL0     H41302   4.227   5.551   1.155  2.0486  2.2270  1.5274
  306MOL0     H41303   4.179   5.393   1.209  1.2633  1.1190 -2.5998
  306MOL0     H41304   4.350   5.601   1.361 -1.1370 -0.5028  3.7376
  306MOL0     H41305   4.308   5.445   1.420  1.6948 -0.9130  0.1628
  306MOL0     H41306   4.581   5.305   1.145 -1.5757 -3.4091  1.6696
  306MOL0     H41307   3.753   5.502   1.461 -1.4963 -1.1329 -1.5357
  306MOL0     H41308   3.659   5.433   1.799 -0.2448 -1.0072 -0.5737
  306MOL0     H41309   3.799   5.539   1.804  0.1606 -1.9739  0.7776
  306MOL0     H41310   3.671   5.552   1.674  0.4354  0.9592  0.8898
  307MOL0     O41311   2.687   2.053  10.244  1.1843  0.1653  0.3733
  307MOL0     C41312   2.616   2.148  10.281 -0.4849 -0.1256  0.2648
  307MOL0     O41313   2.634   2.279  10.234 -0.4072  0.3078  0.1545
  307MOL0     C41314   2.748   2.301  10.162  0.0491  0.1630 -0.7595
  307MOL0     C41315   2.739   2.329  10.024  0.4089  0.5168  0.0280
  307MOL0     C41316   2.851   2.350   9.947 -0.4961  0.5794  0.0797
  307MOL0     C41317   2.979   2.352  10.005 -0.7262  0.1288  0.7639
  307MOL0     O41318   3.082   2.384   9.920  0.7349  0.0876  0.5231
  307MOL0     C41319   3.220   2.366   9.968 -0.4179  0.1967  0.0776
  307MOL0     C41320   3.321   2.418   9.871 -0.3070  0.0902  0.0386
  307MOL0     C41321   3.452   2.336   9.894  0.1650  0.1468 -1.0831
  307MOL0     C41322   3.549   2.369   9.786  0.3208  0.0428  0.0871
  307MOL0     C41323   3.671   2.277   9.780 -0.6749 -0.8156  0.3972
  307MOL0     C41324   3.746   2.287   9.649 -0.3038  0.2454  0.3264
  307MOL0     C41325   3.837   2.409   9.630  0.1310  0.3303  0.3755
  307MOL0     C41326   3.918   2.389   9.503  0.2708 -0.6657  0.1847
  307MOL0     N41327   4.020   2.282   9.515 -0.1223 -0.0657  0.4249
  307MOL0     C41328   4.117   2.273   9.611  0.0664 -0.8093  1.2127
  307MOL0     C41329   4.169   2.149   9.594  0.1951 -0.7796  0.6675
  307MOL0     C41330   4.286   2.105   9.674  0.4302  0.4447  0.3462
  307MOL0     C41331   4.418   2.109   9.581 -0.5773 -0.5029 -0.4367
  307MOL0     C41332   4.530   2.031   9.659  0.0226  0.5114  0.0792
  307MOL0     C41333   4.665   2.100   9.672  0.6918 -0.1642 -0.4101
  307MOL0     O41334   4.660   2.196   9.782 -0.8570  0.2478  0.1267
  307MOL0     C41335   4.761   2.290   9.786  0.3324  1.2332  0.9517
  307MOL0     C41336   4.735   2.411   9.859  0.3624 -0.4361  0.2953
  307MOL0     C41337   4.831   2.517   9.864  1.0214 -0.3569  1.1746
  307MOL0     C41338   4.957   2.506   9.810  0.8862 -0.2433  0.6205
  307MOL0     C41339   5.065   2.601   9.829  0.3625 -0.3239  0.6978
  307MOL0     O41340   5.192   2.559   9.810  0.3340 -0.4890  0.4935
  307MOL0     C41341   5.294   2.639   9.860  0.4984 -0.4158  0.7036
  307MOL0     C41342   5.324   2.643   9.999  0.2934 -0.1700 -0.1935
  307MOL0     C41343   5.433   2.720  10.039 -0.8050  0.2034 -1.3235
  307MOL0     C41344   5.522   2.771   9.945 -0.3990  0.8347 -0.2287
  307MOL0     O41345   5.641   2.830   9.978  0.0469  0.7248 -0.6208
  307MOL0     C41346   5.640   2.944  10.066 -0.0777 -0.5781 -0.1576
  307MOL0     C41347   5.673   3.074  10.003  0.1505 -0.1880  0.3054
  307MOL0     C41348   5.819   3.101   9.968 -0.5501 -0.0264 -0.2363
  307MOL0     C41349   5.896   3.140  10.092  0.4587  0.4880  0.2829
  307MOL0     C41350   6.027   3.193  10.071  0.3287 -0.6474  0.0544
  307MOL0     C41351   6.110   3.201  10.202 -0.3818  0.1444 -0.8184
  307MOL0     C41352   6.267   3.213  10.175 -0.5471 -0.0841  0.2937
  307MOL0     C41353   6.330   3.084  10.148  0.4063  0.6333 -0.3124
  307MOL0    Cl41354   6.499   3.089  10.079  0.4889 -0.2336  0.0158
  307MOL0     C41355   5.491   2.771   9.809 -0.8256 -0.1264  0.5120
  307MOL0     C41356   5.381   2.701   9.767  0.2245 -0.4075  0.4456
  307MOL0     O41357   5.035   2.707   9.876  0.3403  0.2096  0.2007
  307MOL0     C41358   4.983   2.382   9.745  0.7453 -0.3348  0.0191
  307MOL0     C41359   4.890   2.271   9.724 -0.0006  0.2316 -0.4347
  307MOL0     N41360   4.122   2.096   9.474  0.2844 -1.0461 -0.7471
  307MOL0     N41361   4.031   2.176   9.437 -0.2662 -0.3337  0.3746
  307MOL0     C41362   2.996   2.317  10.138  0.4063 -0.6710 -0.1314
  307MOL0     C41363   2.879   2.294  10.223  0.0343  0.0817  0.2217
  307MOL0     C41364   2.512   2.138  10.381 -0.2624  1.2838 -0.4988
  307MOL0     C41365   2.433   2.246  10.417 -0.1925 -0.0064  0.7009
  307MOL0     C41366   2.324   2.234  10.504  0.7607 -0.7376  0.2717
  307MOL0     C41367   2.293   2.115  10.558  0.6914  0.0562 -1.0897
  307MOL0     O41368   2.166   2.116  10.604 -0.5692 -0.6171 -0.6313
  307MOL0     C41369   2.128   2.075  10.739  0.5050 -1.0482  1.0626
  307MOL0     C41370   2.004   2.164  10.786 -0.1838 -0.1419  0.2112
  307MOL0     C41371   1.936   2.096  10.906 -0.9708  0.8610 -0.1641
  307MOL0     C41372   1.798   2.156  10.930  0.3669 -0.3202  0.2852
  307MOL0     C41373   1.750   2.147  11.068 -0.2496 -0.9322 -0.8467
  307MOL0     C41374   1.695   2.146  11.175 -0.3401 -0.1621  0.1593
  307MOL0     C41375   2.362   1.997  10.533 -0.6108  0.3199  0.5627
  307MOL0     C41376   2.472   2.012  10.442 -0.6468  0.0906  0.0845
  307MOL0     C41377   2.541   1.881  10.406 -0.3332  0.1825 -0.5566
  307MOL0     H41378   2.643   2.338   9.974  0.8764  0.9075 -0.8352
  307MOL0     H41379   2.836   2.367   9.841 -1.2793 -0.0679  0.0773
  307MOL0     H41380   3.242   2.410  10.065  1.8208 -1.0004  0.1718
  307MOL0     H41381   3.247   2.260   9.963  2.3634  0.8871 -1.7660
  307MOL0     H41382   3.340   2.524   9.889 -1.5943  0.4017 -0.3482
  307MOL0     H41383   3.297   2.402   9.765  0.6302  1.0205 -0.3382
  307MOL0     H41384   3.436   2.227   9.892  1.8215 -0.2252  1.1717
  307MOL0     H41385   3.486   2.357   9.996  0.1498  0.4633 -1.1427
  307MOL0     H41386   3.491   2.373   9.693 -1.1124  3.6564  0.9520
  307MOL0     H41387   3.578   2.472   9.807  0.9643  0.3383 -1.9778
  307MOL0     H41388   3.743   2.303   9.858  1.6322  0.3588 -1.9465
  307MOL0     H41389   3.640   2.174   9.797 -1.5008 -0.6400 -0.0251
  307MOL0     H41390   3.796   2.191   9.642 -0.7477  0.0937 -1.0061
  307MOL0     H41391   3.670   2.284   9.570  2.1822 -1.7305 -2.1602
  307MOL0     H41392   3.909   2.414   9.711  1.6149 -0.3147 -0.8506
  307MOL0     H41393   3.774   2.498   9.617  1.3800  1.2882  0.7560
  307MOL0     H41394   3.849   2.374   9.420  0.1534  1.4721 -0.1677
  307MOL0     H41395   3.965   2.486   9.482  1.4723 -0.9478  1.4813
  307MOL0     H41396   4.136   2.349   9.687  0.3569  0.3865 -0.0171
  307MOL0     H41397   4.306   2.174   9.757 -0.4676  1.4277 -0.2298
  307MOL0     H41398   4.272   2.003   9.711 -1.0393  0.8448  0.9240
  307MOL0     H41399   4.394   2.060   9.486  3.2698  1.4580 -2.6922
  307MOL0     H41400   4.448   2.211   9.554 -2.2289  0.7778  2.1189
  307MOL0     H41401   4.537   1.939   9.600 -0.4901  0.2988  0.3356
  307MOL0     H41402   4.505   1.994   9.759  2.4231 -1.5207  0.0235
  307MOL0     H41403   4.672   2.162   9.582 -0.7666 -0.0699 -0.4802
  307MOL0     H41404   4.739   2.020   9.677 -1.7131 -2.5889 -1.0694
  307MOL0     H41405   4.650   2.420   9.925  2.3514 -1.1810  3.1323
  307MOL0     H41406   4.795   2.604   9.919 -1.9805 -2.2118  2.4363
  307MOL0     H41407   5.271   2.595  10.081  0.9960 -0.3455  0.1676
  307MOL0     H41408   5.452   2.733  10.145 -0.5436  0.6925 -1.4307
  307MOL0     H41409   5.542   2.938  10.113  0.5138  1.1406  1.3754
  307MOL0     H41410   5.714   2.920  10.142 -0.6816 -1.2959  0.2145
  307MOL0     H41411   5.607   3.077   9.916 -1.4656 -1.0394  1.4415
  307MOL0     H41412   5.635   3.148  10.074  0.5421 -2.1266  2.6541
  307MOL0     H41413   5.863   3.016   9.915  1.0340 -0.3943  1.5622
  307MOL0     H41414   5.835   3.180   9.893  2.9694 -1.1161 -0.7982
  307MOL0     H41415   5.889   3.046  10.147 -3.6925  0.1626 -0.5451
  307MOL0     H41416   5.834   3.209  10.149 -1.4092 -1.6190  0.9195
  307MOL0     H41417   6.018   3.288  10.018  0.7246 -1.0122 -0.6891
  307MOL0     H41418   6.082   3.126  10.004  1.0379 -0.0388  0.0165
  307MOL0     H41419   6.075   3.283  10.264  0.9196 -0.8297  1.2996
  307MOL0     H41420   6.102   3.104  10.253  4.6983  0.6700  1.5581
  307MOL0     H41421   6.318   3.269  10.254 -1.8779  2.4941 -0.5584
  307MOL0     H41422   6.296   3.272  10.087 -0.9727 -3.5622 -2.3619
  307MOL0     H41423   6.336   3.028  10.242  1.6129 -1.3484 -1.4939
  307MOL0     H41424   6.269   3.012  10.093 -0.0278 -0.4339  1.4645
  307MOL0     H41425   5.557   2.837   9.754  2.5360  0.2116  4.4216
  307MOL0     H41426   5.352   2.691   9.663 -0.0940 -1.4069  0.6225
  307MOL0     H41427   5.084   2.352   9.717  1.1752 -1.5641  2.5575
  307MOL0     H41428   4.918   2.173   9.689 -1.5886 -0.6297  0.5760
  307MOL0     H41429   3.098   2.318  10.176  0.3868  4.2696  0.4660
  307MOL0     H41430   2.889   2.283  10.330 -0.8474 -2.3526  0.1189
  307MOL0     H41431   2.448   2.337  10.359 -2.2066  0.0618  0.1898
  307MOL0     H41432   2.259   2.315  10.534 -0.2598 -1.3970 -0.0929
  307MOL0     H41433   2.218   2.075  10.802  1.0825  1.5249  0.3228
  307MOL0     H41434   2.097   1.970  10.736  1.3996 -1.3246  1.0850
  307MOL0     H41435   1.929   2.173  10.707  0.6749 -0.5264 -0.6675
  307MOL0     H41436   2.043   2.263  10.814 -0.4313  0.5027 -1.5848
  307MOL0     H41437   1.998   2.115  10.993 -1.4122 -1.5747  0.7771
  307MOL0     H41438   1.921   1.988  10.894  1.6998  0.3293  0.7793
  307MOL0     H41439   1.785   2.260  10.897  0.4917 -0.7002 -1.0003
  307MOL0     H41440   1.729   2.100  10.866  0.8676  1.1246 -1.6129
  307MOL0     H41441   1.669   2.144  11.279  0.7301  4.5917  0.7310
  307MOL0     H41442   2.333   1.902  10.577  1.6567 -0.0324  1.4826
  307MOL0     H41443   2.513   1.805  10.479  3.5656  0.6084  1.6605
  307MOL0     H41444   2.528   1.852  10.302  0.2840 -0.2992 -0.5047
  307MOL0     H41445   2.647   1.896  10.429 -0.0154  1.3797 -2.5922
  308MOL0     O41446   8.512   8.721   7.196  0.5242  0.0575  0.2943
  308MOL0     C41447   8.477   8.810   7.116  0.9067 -0.4980  0.0938
  308MOL0     O41448   8.541   8.927   7.105 -0.3185 -0.1619  0.1749
  308MOL0     C41449   8.659   8.947   7.178  0.1394  0.8052 -0.4016
  308MOL0     C41450   8.779   8.985   7.115 -0.7145 -0.2074 -0.5467
  308MOL0     C41451   8.894   9.013   7.190  0.2328 -0.6634 -1.2611
  308MOL0     C41452   8.903   8.997   7.329 -0.0804 -1.1489 -0.0868
  308MOL0     O41453   9.019   9.016   7.397  0.1767 -0.2562 -0.3625
  308MOL0     C41454   9.155   9.050   7.339  0.8707  0.2153  0.4089
  308MOL0     C41455   9.250   8.996   7.446 -0.0790  0.1706  0.6042
  308MOL0     C41456   9.392   9.013   7.390 -0.0706 -0.7978 -0.3633
  308MOL0     C41457   9.486   8.975   7.502  0.2009  0.1450  1.1304
  308MOL0     C41458   9.627   8.990   7.462 -0.5342 -0.5485  1.0819
  308MOL0     C41459   9.685   8.869   7.392 -0.0395  0.3262 -0.0867
  308MOL0     C41460   9.825   8.882   7.352  0.1753 -1.2199  0.0131
  308MOL0     C41461   9.871   8.789   7.247 -0.4880  0.7692  0.5104
  308MOL0     N41462   9.878   8.653   7.292 -0.4953  0.5338 -0.2302
  308MOL0     C41463   9.993   8.590   7.343  0.6317 -0.6790  0.6832
  308MOL0     C41464   9.946   8.465   7.378 -1.0488 -0.1312  0.2562
  308MOL0     C41465  10.026   8.359   7.436 -0.4660 -0.2183  0.1667
  308MOL0     C41466  10.118   8.286   7.338 -0.5911 -0.1659 -0.4430
  308MOL0     C41467  10.239   8.368   7.290  0.1626  0.0392  0.4647
  308MOL0     C41468  10.333   8.402   7.396  0.1315 -0.3728 -0.6144
  308MOL0     O41469  10.448   8.477   7.369  0.3386 -0.4026 -0.2706
  308MOL0     C41470  10.536   8.514   7.469 -0.4678  0.4690  0.3699
  308MOL0     C41471  10.580   8.423   7.566  0.0913 -0.1634  0.3109
  308MOL0     C41472  10.668   8.493   7.660 -0.3046 -0.0989  0.0124
  308MOL0     C41473  10.718   8.622   7.656  0.2896 -0.1404 -0.1536
  308MOL0     C41474  10.808   8.679   7.762  0.6475  0.3062  0.2466
  308MOL0     O41475  10.860   8.594   7.861  0.3072  0.3626  0.2289
  308MOL0     C41476  10.967   8.624   7.944  0.7392  0.1304 -0.3901
  308MOL0     C41477  11.051   8.732   7.941 -1.0170  1.0104  0.0959
  308MOL0     C41478  11.157   8.743   8.033  0.1210  0.1402 -0.1727
  308MOL0     C41479  11.174   8.647   8.137 -0.3027 -0.5937 -0.9008
  308MOL0     O41480  11.281   8.647   8.232 -0.3539 -0.3402  0.1828
  308MOL0     C41481  11.406   8.716   8.196  0.3437  0.6107 -0.3431
  308MOL0     C41482  11.489   8.705   8.328 -0.4864  0.2388  0.2595
  308MOL0     C41483  11.627   8.765   8.287 -0.4873  0.3002  0.5727
  308MOL0     C41484  11.713   8.776   8.407 -0.8504  0.4043  0.1206
  308MOL0     C41485  11.795   8.906   8.402 -0.5350 -0.5106 -0.2581
  308MOL0     C41486  11.888   8.913   8.533  0.6435  0.0116  0.2434
  308MOL0     C41487  12.012   8.994   8.531  0.0388 -0.0713 -0.1033
  308MOL0     C41488  12.084   8.965   8.657  0.0675  0.5915  0.0551
  308MOL0    Cl41489  12.183   9.109   8.699  0.2543 -0.1422 -0.2207
  308MOL0     C41490  11.087   8.542   8.140 -0.7107  0.4401  0.0704
  308MOL0     C41491  10.982   8.522   8.041 -0.2610 -0.1143 -0.3259
  308MOL0     O41492  10.846   8.795   7.744 -0.5749  0.2360 -0.4632
  308MOL0     C41493  10.675   8.698   7.555  0.4485  0.9126 -0.1728
  308MOL0     C41494  10.580   8.651   7.465  0.1670 -0.5074 -0.0051
  308MOL0     N41495   9.813   8.463   7.372  1.5316  0.3248 -0.4563
  308MOL0     N41496   9.774   8.574   7.325  0.7218 -0.5467 -0.3298
  308MOL0     C41497   8.789   8.961   7.390  1.0446 -0.8970 -0.0093
  308MOL0     C41498   8.673   8.931   7.316  0.6169  0.8946  0.0052
  308MOL0     C41499   8.335   8.815   7.056 -0.7590  0.3426  0.0329
  308MOL0     C41500   8.271   8.946   7.060  0.4599  0.1472  0.0860
  308MOL0     C41501   8.146   8.956   7.005 -0.5749  0.0690 -0.5932
  308MOL0     C41502   8.075   8.847   6.958  0.1362  0.1982 -0.2926
  308MOL0     O41503   7.944   8.880   6.926 -0.2367  0.0596 -0.5864
  308MOL0     C41504   7.854   8.784   6.871  0.5026  0.0755  0.6566
  308MOL0     C41505   7.711   8.848   6.883  0.4177 -0.3010 -0.3788
  308MOL0     C41506   7.683   8.930   6.754 -0.3214  0.3065 -0.6097
  308MOL0     C41507   7.532   8.983   6.750 -0.2980  0.2466  0.9299
  308MOL0     C41508   7.531   9.054   6.618  0.9307  0.2150 -0.5439
  308MOL0     C41509   7.535   9.113   6.508  0.0358 -0.5467 -0.4273
  308MOL0     C41510   8.127   8.722   6.967 -0.3826 -0.6978 -0.5598
  308MOL0     C41511   8.256   8.709   7.019  0.2178 -0.3968 -0.7981
  308MOL0     C41512   8.297   8.565   7.042 -0.2824  0.5383 -0.5624
  308MOL0     H41513   8.771   8.996   7.007 -2.5360 -2.2453 -0.6936
  308MOL0     H41514   8.983   9.045   7.136 -2.1496  2.2235 -3.7696
  308MOL0     H41515   9.175   9.001   7.243  0.8279  3.5582 -1.4876
  308MOL0     H41516   9.178   9.157   7.334  3.8700 -0.2473  2.2499
  308MOL0     H41517   9.232   8.894   7.482 -2.9606  0.6448  0.7388
  308MOL0     H41518   9.228   9.059   7.533 -0.3945  0.7339  0.1222
  308MOL0     H41519   9.411   9.117   7.360 -1.0592  0.2061  2.1513
  308MOL0     H41520   9.420   8.940   7.314  1.0404  0.4708 -1.2218
  308MOL0     H41521   9.476   9.051   7.581  0.8441 -0.1109  1.4667
  308MOL0     H41522   9.470   8.875   7.545 -2.5924 -0.5796 -1.3258
  308MOL0     H41523   9.631   9.076   7.395 -2.4518 -1.4211 -0.2511
  308MOL0     H41524   9.677   9.017   7.556 -0.4170  2.0512  0.3473
  308MOL0     H41525   9.671   8.778   7.451 -0.0960 -0.4196 -1.2191
  308MOL0     H41526   9.635   8.856   7.296  1.7280 -0.2810 -0.9806
  308MOL0     H41527   9.884   8.867   7.443 -3.2423 -1.2940  2.4359
  308MOL0     H41528   9.841   8.981   7.310 -2.1952 -1.7376 -2.3819
  308MOL0     H41529   9.823   8.787   7.148  0.6019 -1.7893 -0.0390
  308MOL0     H41530   9.972   8.827   7.230 -2.1265  4.6926 -2.0054
  308MOL0     H41531  10.090   8.638   7.355 -0.1539  1.3386 -0.4493
  308MOL0     H41532  10.074   8.410   7.520 -1.8901  0.9406  0.3136
  308MOL0     H41533   9.970   8.282   7.489  1.1656 -1.1716  0.5586
  308MOL0     H41534  10.164   8.199   7.384 -0.1425  0.5289  0.4573
  308MOL0     H41535  10.056   8.258   7.252 -2.2452 -3.1646  1.5503
  308MOL0     H41536  10.209   8.459   7.237 -0.9160 -0.9464 -0.6693
  308MOL0     H41537  10.294   8.315   7.211  1.2012 -0.9254  1.7880
  308MOL0     H41538  10.366   8.307   7.439 -0.6987 -1.1584 -1.6733
  308MOL0     H41539  10.281   8.469   7.465 -0.1284  1.2101 -2.2686
  308MOL0     H41540  10.544   8.321   7.577 -1.9458  0.3339 -1.2124
  308MOL0     H41541  10.691   8.428   7.744 -2.0792 -0.1336  0.5256
  308MOL0     H41542  11.039   8.807   7.863  0.0013  0.0720 -1.0055
  308MOL0     H41543  11.225   8.827   8.025 -0.6175  0.7117 -0.5054
  308MOL0     H41544  11.464   8.681   8.110  1.6460 -0.8522  1.0697
  308MOL0     H41545  11.395   8.824   8.182 -1.3847  0.5584  0.3089
  308MOL0     H41546  11.445   8.769   8.406 -0.1036  2.0854 -0.9798
  308MOL0     H41547  11.503   8.602   8.362  1.4475  0.8887  1.6137
  308MOL0     H41548  11.686   8.712   8.211  0.2211  1.9574 -0.0945
  308MOL0     H41549  11.614   8.859   8.232  1.3997 -0.1698 -0.7894
  308MOL0     H41550  11.784   8.692   8.403  1.3905  2.1586  0.6459
  308MOL0     H41551  11.657   8.770   8.501 -2.4894  0.1039 -0.8469
  308MOL0     H41552  11.725   8.990   8.412 -0.6584 -0.5839 -0.4831
  308MOL0     H41553  11.840   8.931   8.306  3.2123  2.9378  2.0695
  308MOL0     H41554  11.830   8.951   8.618 -1.8796 -0.1659 -1.3141
  308MOL0     H41555  11.914   8.810   8.556 -0.4888 -0.5771 -0.9855
  308MOL0     H41556  11.980   9.099   8.530  1.7493  0.4853  0.0689
  308MOL0     H41557  12.076   8.971   8.445 -1.8366  0.2855 -1.6764
  308MOL0     H41558  12.020   8.930   8.739 -2.1604 -2.8642 -2.8230
  308MOL0     H41559  12.145   8.876   8.640 -3.2115 -1.8623 -0.0119
  308MOL0     H41560  11.107   8.463   8.212 -1.1989  1.1415  0.9885
  308MOL0     H41561  10.917   8.436   8.045 -0.9952  0.3585 -1.7198
  308MOL0     H41562  10.721   8.795   7.543 -0.0142  1.1563 -0.0212
  308MOL0     H41563  10.525   8.714   7.397 -0.0405 -3.5876 -2.9730
  308MOL0     H41564   8.790   8.968   7.498 -0.4526  0.1283 -0.0384
  308MOL0     H41565   8.588   8.877   7.355  1.7554 -0.3404  0.8448
  308MOL0     H41566   8.311   9.035   7.107 -1.9107  0.1011  2.3891
  308MOL0     H41567   8.100   9.054   7.015 -1.7681 -0.5928  0.7986
  308MOL0     H41568   7.862   8.692   6.928 -0.0161 -0.4427 -0.0815
  308MOL0     H41569   7.869   8.761   6.765 -2.0260 -1.3720  0.5344
  308MOL0     H41570   7.719   8.916   6.969  1.1583  1.6270 -1.9109
  308MOL0     H41571   7.634   8.771   6.901 -1.1682  1.4110  0.5651
  308MOL0     H41572   7.704   8.860   6.673  1.0754 -1.5092  1.2274
  308MOL0     H41573   7.757   9.010   6.749 -1.1384  1.3741  2.2736
  308MOL0     H41574   7.461   8.902   6.766  0.4219 -1.5202 -3.4816
  308MOL0     H41575   7.508   9.054   6.830 -1.9203 -1.2924  1.8857
  308MOL0     H41576   7.542   9.148   6.407  0.4725  1.4874  0.2549
  308MOL0     H41577   8.065   8.639   6.935 -0.5892 -0.0715 -1.8521
  308MOL0     H41578   8.301   8.543   7.149 -1.0040 -0.8398 -0.7905
  308MOL0     H41579   8.224   8.502   6.990  0.7472 -1.2153  0.0395
  308MOL0     H41580   8.396   8.551   6.998  0.4814  1.2058  0.8933
  309MOL0     O41581   5.720  11.167   0.100  0.4085 -0.0713 -0.1432
  309MOL0     C41582   5.630  11.231   0.161 -0.6130  0.4859 -0.8118
  309MOL0     O41583   5.654  11.338   0.233  0.0117 -0.2388 -0.1254
  309MOL0     C41584   5.758  11.423   0.199 -0.1496 -0.5557  0.1683
  309MOL0     C41585   5.791  11.447   0.066 -0.9945 -0.2620 -0.4201
  309MOL0     C41586   5.896  11.544   0.038  0.4856  0.8244 -0.5281
  309MOL0     C41587   5.959  11.607   0.146 -0.5714 -1.1414  0.0098
  309MOL0     O41588   6.058  11.701   0.128 -0.1559 -0.5137 -0.4764
  309MOL0     C41589   6.173  11.680   0.046 -0.3065  0.4959 -0.4913
  309MOL0     C41590   6.305  11.762   0.079 -0.0872 -0.0861  0.4698
  309MOL0     C41591   6.398  11.689   0.176 -0.2990  0.0188  0.5876
  309MOL0     C41592   6.492  11.592   0.096 -0.2733  0.0607  0.4444
  309MOL0     C41593   6.561  11.500   0.199  0.4634 -0.4038  0.0371
  309MOL0     C41594   6.694  11.553   0.250 -0.2449 -0.0717 -0.9343
  309MOL0     C41595   6.773  11.449   0.337  0.2201  0.0927  0.8367
  309MOL0     C41596   6.922  11.483   0.314  0.0748 -0.5965 -0.6629
  309MOL0     N41597   6.998  11.370   0.369 -0.0184  0.5761  0.4914
  309MOL0     C41598   7.063  11.270   0.305 -0.0002  0.6905  0.2865
  309MOL0     C41599   7.114  11.190   0.395 -0.1174 -0.1561  0.1324
  309MOL0     C41600   7.194  11.066   0.363 -0.8378  0.4385  0.0261
  309MOL0     C41601   7.328  11.047   0.443 -0.4850  0.2014  0.9104
  309MOL0     C41602   7.418  11.165   0.415 -0.3738  0.3644  1.4394
  309MOL0     C41603   7.562  11.131   0.466  0.3829 -0.0794 -0.4585
  309MOL0     O41604   7.655  11.225   0.421  0.2557 -1.1159 -0.1189
  309MOL0     C41605   7.780  11.233   0.480 -0.0909  0.7999  0.4096
  309MOL0     C41606   7.848  11.347   0.458 -0.6892  0.1378  0.3543
  309MOL0     C41607   7.981  11.365   0.482  0.3357  0.1862 -0.3693
  309MOL0     C41608   8.042  11.272   0.563 -0.0720  0.6127 -0.3320
  309MOL0     C41609   8.178  11.285   0.600  0.1482  0.8724 -0.5376
  309MOL0     O41610   8.250  11.379   0.537 -0.2509 -0.0631 -0.6754
  309MOL0     C41611   8.376  11.395   0.585 -0.2738 -0.1355 -0.4187
  309MOL0     C41612   8.391  11.463   0.707 -0.7039  0.1146 -0.0721
  309MOL0     C41613   8.519  11.506   0.749 -0.8636  0.2309 -0.6954
  309MOL0     C41614   8.636  11.474   0.671 -1.0608 -1.4339  0.9213
  309MOL0     O41615   8.756  11.534   0.718  0.5184 -0.5799  0.0786
  309MOL0     C41616   8.883  11.532   0.649  0.5822 -0.2641  0.2394
  309MOL0     C41617   8.980  11.430   0.708 -0.2679 -0.1493  0.1573
  309MOL0     C41618   9.110  11.423   0.636  0.0825  0.3803  0.1372
  309MOL0     C41619   9.209  11.347   0.717 -0.1035  0.0522  0.0658
  309MOL0     C41620   9.351  11.352   0.656 -0.1104  0.2254  0.3833
  309MOL0     C41621   9.439  11.473   0.700  0.0009 -0.2429 -0.5665
  309MOL0     C41622   9.583  11.483   0.629 -0.1753 -0.2248  0.0858
  309MOL0     C41623   9.676  11.588   0.681 -0.3145 -0.1497 -1.0862
  309MOL0    Cl41624   9.810  11.599   0.563  0.2532 -0.9868 -0.5567
  309MOL0     C41625   8.615  11.415   0.549  0.8550 -0.4631  0.0873
  309MOL0     C41626   8.488  11.388   0.507  0.5270  0.4338  0.0979
  309MOL0     O41627   8.223  11.215   0.689  0.4703 -0.7602 -1.3742
  309MOL0     C41628   7.971  11.157   0.603 -0.1972 -0.1333 -0.0724
  309MOL0     C41629   7.841  11.134   0.560  1.3338  0.2265  0.3513
  309MOL0     N41630   7.079  11.234   0.515  0.2805  0.3068  0.9561
  309MOL0     N41631   7.007  11.340   0.499  0.5142 -0.7103  0.0323
  309MOL0     C41632   5.924  11.587   0.274  0.2594 -0.0252  0.2524
  309MOL0     C41633   5.817  11.505   0.300  0.7664 -0.2772  0.5182
  309MOL0     C41634   5.483  11.184   0.160  0.9073 -0.5643  0.5884
  309MOL0     C41635   5.446  11.089   0.065  0.4266 -0.5790  0.3871
  309MOL0     C41636   5.306  11.059   0.039  0.0609 -0.8923  0.2315
  309MOL0     C41637   5.211  11.109   0.124  0.3677  0.3456  0.1701
  309MOL0     O41638   5.072  11.092   0.103 -0.2856  0.6034 -0.3670
  309MOL0     C41639   5.028  10.985   0.021 -0.6291  0.0867 -0.1110
  309MOL0     C41640   4.876  10.977   0.035 -0.4803  0.3746  0.0910
  309MOL0     C41641   4.805  11.089  -0.042  0.6003  0.5696 -0.0006
  309MOL0     C41642   4.656  11.069  -0.032 -0.3025  0.2144 -0.7600
  309MOL0     C41643   4.578  11.124  -0.140 -0.1684  0.1148 -0.4419
  309MOL0     C41644   4.534  11.157  -0.244  0.2336 -0.5718  0.1884
  309MOL0     C41645   5.244  11.194   0.226 -0.2846  0.6747 -0.1449
  309MOL0     C41646   5.378  11.236   0.247  0.1269  0.0147  0.4085
  309MOL0     C41647   5.401  11.340   0.358  0.7987 -0.3827 -0.3567
  309MOL0     H41648   5.755  11.389  -0.018 -2.1354 -0.0413 -0.0956
  309MOL0     H41649   5.925  11.564  -0.065 -0.9313 -0.1456 -1.1639
  309MOL0     H41650   6.201  11.576   0.028 -2.9089 -0.0242 -2.1226
  309MOL0     H41651   6.132  11.713  -0.050 -0.2945 -0.1231 -0.7130
  309MOL0     H41652   6.285  11.865   0.110  0.0355  0.2304 -0.4561
  309MOL0     H41653   6.358  11.783  -0.014  2.7130  1.0880  2.2192
  309MOL0     H41654   6.340  11.634   0.251  1.4123  0.3151  2.2101
  309MOL0     H41655   6.459  11.764   0.227  0.7975 -0.9422  0.7402
  309MOL0     H41656   6.439  11.522   0.030 -0.0843  0.6241 -0.3310
  309MOL0     H41657   6.559  11.641   0.024 -0.1855 -2.3448 -1.2468
  309MOL0     H41658   6.491  11.474   0.278 -2.5415 -1.6635 -2.7802
  309MOL0     H41659   6.575  11.401   0.154 -3.4177 -2.2133  2.3384
  309MOL0     H41660   6.758  11.596   0.172 -0.4041  1.3602 -0.3208
  309MOL0     H41661   6.670  11.643   0.309  1.2439  1.3074 -2.3449
  309MOL0     H41662   6.767  11.350   0.291  1.2264  1.0884 -1.6114
  309MOL0     H41663   6.741  11.438   0.441 -3.0538 -1.5858 -0.2094
  309MOL0     H41664   6.952  11.499   0.210  0.3653 -0.7066 -0.5983
  309MOL0     H41665   6.950  11.575   0.366 -0.0035 -1.6849  1.4061
  309MOL0     H41666   7.084  11.264   0.198  0.8778 -2.0724  0.5324
  309MOL0     H41667   7.133  10.975   0.367 -2.0312  1.1685 -0.8303
  309MOL0     H41668   7.228  11.079   0.260  0.1975 -1.0784  0.1503
  309MOL0     H41669   7.310  11.052   0.551  2.1386  1.3540  1.3732
  309MOL0     H41670   7.377  10.955   0.413  1.5396  1.7481 -0.8497
  309MOL0     H41671   7.388  11.267   0.443  1.1294  2.2699 -2.9592
  309MOL0     H41672   7.437  11.159   0.308 -0.0323 -0.0581  1.5251
  309MOL0     H41673   7.599  11.033   0.434  0.8532 -0.3035  0.7120
  309MOL0     H41674   7.552  11.129   0.575 -0.4723 -0.5242 -0.5369
  309MOL0     H41675   7.799  11.419   0.394  0.5394  0.3054 -0.4409
  309MOL0     H41676   8.027  11.458   0.451  0.6093 -0.2732 -1.3921
  309MOL0     H41677   8.301  11.482   0.765 -0.3230  0.0365  0.5561
  309MOL0     H41678   8.537  11.560   0.842  1.5294 -0.9857 -0.3450
  309MOL0     H41679   8.871  11.513   0.542  3.8007 -3.2170  0.1897
  309MOL0     H41680   8.928  11.629   0.672  0.1380  0.2729 -1.0695
  309MOL0     H41681   8.998  11.465   0.810  2.0708  0.0495 -0.2550
  309MOL0     H41682   8.937  11.331   0.725 -1.4597  0.2335 -0.4598
  309MOL0     H41683   9.089  11.378   0.538 -1.6690 -0.1140  0.6921
  309MOL0     H41684   9.153  11.522   0.616  1.7344 -0.1826  0.7270
  309MOL0     H41685   9.169  11.245   0.724 -1.5383  0.7315  2.6021
  309MOL0     H41686   9.229  11.386   0.817  0.5951 -1.2575  0.4647
  309MOL0     H41687   9.352  11.363   0.547  0.7285 -0.5327  0.2972
  309MOL0     H41688   9.399  11.255   0.676  1.0578  0.6841 -0.0625
  309MOL0     H41689   9.387  11.562   0.664  0.1623 -0.7359 -2.1244
  309MOL0     H41690   9.456  11.473   0.808  0.3490 -1.6508 -0.6092
  309MOL0     H41691   9.554  11.495   0.523 -1.5923 -0.3273  0.4366
  309MOL0     H41692   9.636  11.387   0.630 -1.0604 -0.7796 -1.4362
  309MOL0     H41693   9.629  11.684   0.702 -0.9053 -0.9149  1.4901
  309MOL0     H41694   9.717  11.551   0.776  1.5174 -0.2527 -1.8649
  309MOL0     H41695   8.698  11.396   0.482  1.6798 -1.5630  1.3495
  309MOL0     H41696   8.488  11.361   0.401  1.8642  0.1279  0.1571
  309MOL0     H41697   8.011  11.082   0.670  0.1784  0.6761  0.6377
  309MOL0     H41698   7.779  11.047   0.580 -0.9929  1.4859 -0.9580
  309MOL0     H41699   5.961  11.645   0.358 -2.8888 -1.5252  2.8912
  309MOL0     H41700   5.780  11.490   0.401  0.0913  1.4045  0.5505
  309MOL0     H41701   5.525  11.044   0.004  1.8319 -1.7806  2.9319
  309MOL0     H41702   5.279  10.997  -0.046 -0.5131  2.0353 -1.8938
  309MOL0     H41703   5.065  10.892   0.065 -2.2379 -0.4253  0.2225
  309MOL0     H41704   5.073  10.987  -0.079  2.0526  0.6149  1.0198
  309MOL0     H41705   4.855  10.974   0.142  3.1473 -4.2414  1.0270
  309MOL0     H41706   4.839  10.887  -0.015  0.7114 -0.0095 -0.1352
  309MOL0     H41707   4.825  11.078  -0.149 -0.1050 -1.1963  0.0121
  309MOL0     H41708   4.829  11.187  -0.001 -1.8047  0.6971  1.2582
  309MOL0     H41709   4.620  10.967  -0.017 -2.2065  1.0009  0.3574
  309MOL0     H41710   4.636  11.111   0.067  0.6081 -0.6340 -0.1932
  309MOL0     H41711   4.500  11.180  -0.343 -1.7094 -1.4543  0.6085
  309MOL0     H41712   5.163  11.225   0.291 -2.0945  0.7951 -2.3450
  309MOL0     H41713   5.322  11.336   0.434  1.3375  2.2118  0.4771
  309MOL0     H41714   5.495  11.315   0.409  0.6897 -0.2985 -0.1101
  309MOL0     H41715   5.395  11.443   0.321 -0.2417 -0.4613 -0.4256
  310MOL0     O41716   0.312   9.916   3.069 -0.6107  0.0502  0.3454
  310MOL0     C41717   0.187   9.918   3.080  0.0690  0.1447  0.7644
  310MOL0     O41718   0.117  10.037   3.065 -0.2530  0.1455  0.0673
  310MOL0     C41719   0.181  10.155   3.036  0.1171  0.0432 -0.6499
  310MOL0     C41720   0.277  10.164   2.932  0.0862 -0.3340 -0.8088
  310MOL0     C41721   0.359  10.278   2.925 -0.3405 -0.1411  0.1676
  310MOL0     C41722   0.359  10.380   3.016  0.0224  0.2250 -0.2829
  310MOL0     O41723   0.445  10.488   3.021  0.3420  0.4426  0.6383
  310MOL0     C41724   0.575  10.445   2.987  0.0135 -0.1574 -1.8164
  310MOL0     C41725   0.674  10.543   3.049  0.1396  1.0139 -0.4420
  310MOL0     C41726   0.823  10.506   3.043  0.8251 -0.1971  0.4136
  310MOL0     C41727   0.866  10.438   2.911 -0.1885 -0.4306 -0.2644
  310MOL0     C41728   1.016  10.413   2.897 -0.3464 -0.0615  0.3151
  310MOL0     C41729   1.061  10.386   2.755 -0.2635  0.9391  0.9241
  310MOL0     C41730   1.215  10.374   2.740  0.7256  0.5297 -0.0786
  310MOL0     C41731   1.303  10.499   2.775  0.2351  0.4612  0.6200
  310MOL0     N41732   1.440  10.471   2.731  0.2327 -0.6311  0.2649
  310MOL0     C41733   1.532  10.397   2.805 -0.3851 -0.6995 -0.1904
  310MOL0     C41734   1.651  10.397   2.736  0.5328 -0.1031  0.4121
  310MOL0     C41735   1.787  10.331   2.775 -0.1508  0.3178  0.7095
  310MOL0     C41736   1.894  10.358   2.669  1.3660 -0.5685  0.2696
  310MOL0     C41737   2.036  10.315   2.717  0.6752 -0.2377  0.7477
  310MOL0     C41738   2.125  10.344   2.600 -0.0134 -0.3724 -0.4428
  310MOL0     O41739   2.256  10.334   2.660  0.7948 -0.2193  0.0755
  310MOL0     C41740   2.366  10.389   2.597  0.1807  0.0541  0.8249
  310MOL0     C41741   2.496  10.369   2.644  0.7759  0.0463  0.1950
  310MOL0     C41742   2.614  10.400   2.580  0.0297  0.0239 -0.0662
  310MOL0     C41743   2.608  10.475   2.469  0.2102 -0.7221  0.1438
  310MOL0     C41744   2.734  10.524   2.404 -0.0112  1.2908  0.8796
  310MOL0     O41745   2.850  10.489   2.465  0.1295 -0.1061  0.1395
  310MOL0     C41746   2.965  10.545   2.416  0.4243  1.0373 -0.0415
  310MOL0     C41747   2.981  10.678   2.370 -0.6064  0.0217 -0.1232
  310MOL0     C41748   3.113  10.718   2.319 -0.1847  0.5630 -0.3643
  310MOL0     C41749   3.218  10.626   2.316  0.3024  0.0669  1.2423
  310MOL0     O41750   3.343  10.652   2.266  0.2870 -0.1963  0.7455
  310MOL0     C41751   3.394  10.780   2.309 -0.6488  0.3422  0.2770
  310MOL0     C41752   3.551  10.766   2.291 -0.2152 -0.1101  0.1442
  310MOL0     C41753   3.618  10.900   2.304  1.3733  0.7656  0.2611
  310MOL0     C41754   3.776  10.896   2.312 -0.3506  0.1589 -0.6358
  310MOL0     C41755   3.837  10.854   2.449 -0.2002 -0.6476 -0.7747
  310MOL0     C41756   3.985  10.815   2.434  0.0462  0.4056 -0.1384
  310MOL0     C41757   4.072  10.923   2.374  0.0884 -0.7922 -0.0729
  310MOL0     C41758   4.215  10.909   2.437  0.0390  0.3180  0.2748
  310MOL0    Cl41759   4.279  10.750   2.388 -0.3061  0.3281 -0.3586
  310MOL0     C41760   3.200  10.500   2.365 -0.3513  0.2670  0.3117
  310MOL0     C41761   3.074  10.459   2.410 -0.1045  0.7708 -0.3050
  310MOL0     O41762   2.725  10.601   2.305 -0.1722 -0.4161  0.4946
  310MOL0     C41763   2.481  10.495   2.406 -0.7598 -0.2766  0.1050
  310MOL0     C41764   2.359  10.456   2.474  0.1672 -0.1618  0.0999
  310MOL0     N41765   1.624  10.477   2.624  0.4236 -0.0774 -0.2656
  310MOL0     N41766   1.499  10.517   2.620  0.5881  0.2917  0.1496
  310MOL0     C41767   0.255  10.372   3.112  0.1272 -0.9956 -0.3709
  310MOL0     C41768   0.165  10.262   3.118  0.8456  0.1057 -0.7113
  310MOL0     C41769   0.114   9.799   3.126  0.0103 -0.0764  0.2289
  310MOL0     C41770   0.008   9.819   3.221 -1.0423  0.7178  1.5081
  310MOL0     C41771  -0.065   9.708   3.269 -0.0624  0.0175 -0.9369
  310MOL0     C41772  -0.027   9.577   3.237 -0.5041  0.2157 -0.1266
  310MOL0     O41773  -0.105   9.470   3.278 -0.5328  0.3164  0.2437
  310MOL0     C41774  -0.038   9.346   3.318  0.1725  0.5960 -0.2266
  310MOL0     C41775  -0.142   9.264   3.406  0.2314 -0.2974 -0.1199
  310MOL0     C41776  -0.168   9.335   3.535  0.1726  0.5187  0.2303
  310MOL0     C41777  -0.052   9.306   3.628  0.0904  0.1673 -0.0113
  310MOL0     C41778  -0.073   9.382   3.740  0.1693  0.4897 -0.6041
  310MOL0     C41779  -0.093   9.458   3.830  0.3456 -0.0556  0.0317
  310MOL0     C41780   0.081   9.552   3.152  0.2728  0.2903  2.0502
  310MOL0     C41781   0.149   9.663   3.093  1.1929 -0.8070  0.2550
  310MOL0     C41782   0.263   9.626   3.003 -0.2510  0.3853  0.2702
  310MOL0     H41783   0.294  10.078   2.868  1.3978 -1.1589  0.5590
  310MOL0     H41784   0.440  10.291   2.854 -0.6794 -2.2324 -0.6816
  310MOL0     H41785   0.599  10.347   3.030  1.8166  0.2075 -1.9013
  310MOL0     H41786   0.593  10.446   2.879  0.6091  1.4458 -1.7226
  310MOL0     H41787   0.638  10.563   3.150  0.9201 -1.1233  0.2998
  310MOL0     H41788   0.661  10.636   2.992  0.2971  0.0858 -2.0616
  310MOL0     H41789   0.845  10.453   3.135 -3.3950  2.0544  3.0402
  310MOL0     H41790   0.867  10.606   3.050 -0.3161  0.3235  0.3763
  310MOL0     H41791   0.820  10.340   2.898  1.9112 -1.4940 -0.0915
  310MOL0     H41792   0.840  10.510   2.832 -0.5505  1.9734  1.9129
  310MOL0     H41793   1.055  10.512   2.925 -4.3941  2.2958 -1.5207
  310MOL0     H41794   1.044  10.331   2.964 -5.9488 -1.8564  0.9565
  310MOL0     H41795   1.030  10.284   2.731 -1.9086  1.4384  0.8689
  310MOL0     H41796   1.021  10.459   2.684  2.3830  2.1793  0.5637
  310MOL0     H41797   1.247  10.326   2.647 -0.1056 -1.6809  0.7080
  310MOL0     H41798   1.247  10.304   2.817  0.4175 -0.8406 -1.1597
  310MOL0     H41799   1.267  10.585   2.718 -0.0340 -1.3140 -2.1219
  310MOL0     H41800   1.282  10.520   2.880 -0.4099 -2.1473  1.0817
  310MOL0     H41801   1.522  10.335   2.893  2.6824  0.4272  1.1043
  310MOL0     H41802   1.817  10.349   2.879 -2.9205  0.0828  1.6164
  310MOL0     H41803   1.764  10.226   2.756 -0.3159  0.2338  1.3504
  310MOL0     H41804   1.860  10.309   2.577  1.1290  1.5826 -0.8472
  310MOL0     H41805   1.895  10.467   2.657 -0.0379 -0.5139  0.4313
  310MOL0     H41806   2.034  10.213   2.757 -0.1429 -0.4961  0.0789
  310MOL0     H41807   2.065  10.380   2.800 -1.6222 -1.3714  2.5690
  310MOL0     H41808   2.100  10.450   2.582  0.6050 -0.2765 -0.7424
  310MOL0     H41809   2.106  10.265   2.527  1.8545 -0.2174 -1.1432
  310MOL0     H41810   2.499  10.315   2.737 -1.7537 -1.2079 -0.3548
  310MOL0     H41811   2.712  10.387   2.625 -0.6345 -0.5926  1.2629
  310MOL0     H41812   2.896  10.745   2.377 -2.3942 -2.2478  1.0954
  310MOL0     H41813   3.136  10.820   2.289 -2.5558  1.0649 -0.6749
  310MOL0     H41814   3.352  10.863   2.251 -0.4936 -0.1545 -0.5692
  310MOL0     H41815   3.374  10.803   2.414  1.8775 -0.9512  1.1269
  310MOL0     H41816   3.601  10.702   2.365  2.8162 -0.5178 -2.0634
  310MOL0     H41817   3.583  10.713   2.201 -1.2544 -0.0692 -0.2592
  310MOL0     H41818   3.590  10.948   2.210 -0.7335 -2.6060 -1.0109
  310MOL0     H41819   3.571  10.952   2.388  0.0512  0.8191 -0.4812
  310MOL0     H41820   3.808  11.000   2.297  0.4282 -0.1023 -0.8286
  310MOL0     H41821   3.827  10.835   2.237  1.5685  0.3253  0.4650
  310MOL0     H41822   3.788  10.763   2.483  1.2756 -1.0751  0.3022
  310MOL0     H41823   3.825  10.927   2.529 -2.8018 -0.8129 -0.9360
  310MOL0     H41824   4.008  10.791   2.538 -0.2337 -3.7032 -0.8347
  310MOL0     H41825   3.995  10.717   2.387 -2.2246 -0.9047  1.8832
  310MOL0     H41826   4.048  11.024   2.409  1.8699 -0.3931  0.0875
  310MOL0     H41827   4.071  10.917   2.265  0.1940 -1.2925 -0.0490
  310MOL0     H41828   4.273  10.985   2.383  2.1719 -2.0198 -0.9601
  310MOL0     H41829   4.216  10.924   2.546 -0.7867 -0.0445  0.3376
  310MOL0     H41830   3.276  10.423   2.371 -0.4868  0.0778 -0.3324
  310MOL0     H41831   3.065  10.366   2.464  1.1422  0.5632 -0.4286
  310MOL0     H41832   2.486  10.552   2.315 -1.4328 -1.4410 -0.6872
  310MOL0     H41833   2.268  10.490   2.424  1.7055  3.2398 -0.7412
  310MOL0     H41834   0.244  10.448   3.189 -2.2071 -1.2318 -0.4022
  310MOL0     H41835   0.081  10.260   3.186 -0.4858  0.2540 -2.2699
  310MOL0     H41836  -0.002   9.923   3.249 -1.1571  2.8148 -4.8605
  310MOL0     H41837  -0.147   9.723   3.339  1.1074 -0.4771  0.6196
  310MOL0     H41838   0.054   9.366   3.374  1.3247 -4.4274  0.1526
  310MOL0     H41839  -0.015   9.283   3.232  0.5376  0.1290  0.2101
  310MOL0     H41840  -0.103   9.167   3.437 -2.4474 -0.1880  4.5449
  310MOL0     H41841  -0.234   9.257   3.347  1.5879 -1.8184 -2.1651
  310MOL0     H41842  -0.257   9.284   3.571  1.2973 -0.9601  1.0398
  310MOL0     H41843  -0.177   9.444   3.526 -0.7930  0.6511  2.2912
  310MOL0     H41844  -0.056   9.203   3.666 -4.1474  1.2143  3.0523
  310MOL0     H41845   0.046   9.326   3.582 -0.0658  0.1891 -0.3412
  310MOL0     H41846  -0.097   9.539   3.901  3.5794  1.5760 -1.3891
  310MOL0     H41847   0.104   9.452   3.116  1.3329  0.7997  1.2817
  310MOL0     H41848   0.245   9.531   2.951  0.9319  0.1234  0.3188
  310MOL0     H41849   0.274   9.705   2.928  2.2320  1.8459  2.0409
  310MOL0     H41850   0.351   9.607   3.064 -0.9155 -1.1744  0.7894
  311MOL0     O41851   6.613   5.290   8.370 -0.2760 -0.0299  0.5399
  311MOL0     C41852   6.660   5.175   8.384 -0.1456 -0.1490 -0.4124
  311MOL0     O41853   6.768   5.124   8.313 -0.2093  0.3988  0.1869
  311MOL0     C41854   6.856   5.183   8.227  0.5091  0.7691  0.2237
  311MOL0     C41855   6.888   5.318   8.242  0.0491  0.3691 -0.4315
  311MOL0     C41856   6.981   5.382   8.164 -0.6334 -0.8117  0.4831
  311MOL0     C41857   7.052   5.296   8.082 -1.4587 -0.1015 -0.2376
  311MOL0     O41858   7.154   5.366   8.025  1.0377  0.6647  0.5257
  311MOL0     C41859   7.184   5.319   7.886 -0.6518 -0.1367  0.3700
  311MOL0     C41860   7.317   5.232   7.886  0.8775 -0.1662  0.2797
  311MOL0     C41861   7.440   5.300   7.830 -0.3408 -0.4531  0.0195
  311MOL0     C41862   7.562   5.213   7.863  0.0376  0.2373  0.6064
  311MOL0     C41863   7.692   5.281   7.827  0.4663  0.0634  0.0935
  311MOL0     C41864   7.805   5.174   7.820  0.6019  0.6600 -0.7420
  311MOL0     C41865   7.938   5.234   7.775 -0.0296 -0.2126  0.3284
  311MOL0     C41866   8.060   5.140   7.797  0.1361 -0.2089 -0.0419
  311MOL0     N41867   8.189   5.191   7.765  0.3377 -1.1438 -0.4424
  311MOL0     C41868   8.226   5.254   7.647  0.5215 -0.3529  0.1815
  311MOL0     C41869   8.345   5.311   7.661 -0.6936  0.9559  0.0260
  311MOL0     C41870   8.427   5.384   7.560 -0.8483 -0.2737  0.5135
  311MOL0     C41871   8.489   5.516   7.611 -0.8097 -0.4874 -0.5430
  311MOL0     C41872   8.550   5.598   7.501 -0.4558  1.0776  0.5029
  311MOL0     C41873   8.686   5.540   7.450  0.1765 -0.9061  0.0253
  311MOL0     O41874   8.728   5.640   7.354  0.3064  0.2214 -0.3398
  311MOL0     C41875   8.866   5.634   7.324 -0.1094 -0.2337  0.0713
  311MOL0     C41876   8.920   5.732   7.233 -0.1351  0.2043 -0.1698
  311MOL0     C41877   9.046   5.720   7.183 -0.7822 -0.3243 -0.0260
  311MOL0     C41878   9.141   5.625   7.234  0.3240 -0.1063  0.2413
  311MOL0     C41879   9.286   5.629   7.199 -0.3285  0.2820 -0.8828
  311MOL0     O41880   9.360   5.528   7.248 -0.2084  0.0074 -0.3213
  311MOL0     C41881   9.478   5.517   7.182 -0.3163 -0.1120  0.2097
  311MOL0     C41882   9.490   5.448   7.055 -0.2927  0.6143 -0.1598
  311MOL0     C41883   9.616   5.419   7.003 -0.1204 -0.5516 -0.1108
  311MOL0     C41884   9.737   5.459   7.074 -0.0638 -0.5154  0.8866
  311MOL0     O41885   9.858   5.422   7.023  0.0808  0.4676 -0.2016
  311MOL0     C41886   9.955   5.510   6.968  0.0261  0.1427 -0.3141
  311MOL0     C41887   9.970   5.472   6.820 -0.4504  0.3062 -0.0016
  311MOL0     C41888  10.101   5.537   6.759 -0.6118  0.6549  0.2391
  311MOL0     C41889  10.230   5.489   6.827 -0.0276  0.1697  0.0909
  311MOL0     C41890  10.361   5.506   6.745  0.1466  0.1283 -0.1870
  311MOL0     C41891  10.485   5.471   6.822 -0.0012  0.1365  0.3313
  311MOL0     C41892  10.495   5.319   6.833 -0.6142  0.3411 -0.0061
  311MOL0     C41893  10.611   5.273   6.930  0.9420  0.0308  0.1382
  311MOL0    Cl41894  10.764   5.330   6.888 -0.2533 -0.2342  0.1201
  311MOL0     C41895   9.719   5.539   7.191  0.3693  0.2253 -0.3482
  311MOL0     C41896   9.591   5.567   7.246 -0.6188  1.0282  1.0215
  311MOL0     O41897   9.327   5.711   7.115  0.0895  0.6161 -0.9079
  311MOL0     C41898   9.092   5.527   7.322 -0.7204 -0.5921  0.5841
  311MOL0     C41899   8.956   5.532   7.362  0.4764  0.5677  0.5719
  311MOL0     N41900   8.383   5.289   7.789  0.2203  0.2213  0.8013
  311MOL0     N41901   8.292   5.222   7.850 -0.2953  0.3052  0.0204
  311MOL0     C41902   7.030   5.159   8.074 -0.0442 -1.1612  0.4881
  311MOL0     C41903   6.933   5.101   8.150 -0.4902  0.7500 -0.2180
  311MOL0     C41904   6.582   5.073   8.458  0.8043  0.7134 -0.3429
  311MOL0     C41905   6.612   4.938   8.452  0.0193 -0.0158 -1.0088
  311MOL0     C41906   6.556   4.838   8.527  0.8702 -0.0840 -0.2823
  311MOL0     C41907   6.452   4.858   8.609 -0.3493 -0.1244  0.8098
  311MOL0     O41908   6.381   4.763   8.679 -0.8868 -0.1942  0.3575
  311MOL0     C41909   6.434   4.627   8.681  0.1581  0.1547 -0.0014
  311MOL0     C41910   6.318   4.534   8.708 -0.0250  0.0178 -0.3297
  311MOL0     C41911   6.272   4.533   8.860 -0.2186 -0.1224 -0.1218
  311MOL0     C41912   6.230   4.666   8.921 -0.2421  0.1130 -1.0661
  311MOL0     C41913   6.176   4.655   9.059 -0.3402 -0.3413  0.0819
  311MOL0     C41914   6.137   4.664   9.168  0.2228 -0.2402  0.5845
  311MOL0     C41915   6.406   4.993   8.611 -0.0142 -0.2870  0.3649
  311MOL0     C41916   6.466   5.098   8.543 -0.1239  0.0264 -0.1726
  311MOL0     C41917   6.421   5.237   8.573  0.1898 -0.3352 -0.2932
  311MOL0     H41918   6.840   5.391   8.306  0.9936  1.3870 -0.8471
  311MOL0     H41919   6.987   5.490   8.170 -2.1773 -0.7080  0.5744
  311MOL0     H41920   7.099   5.272   7.837  0.7454 -1.6211 -0.7176
  311MOL0     H41921   7.202   5.408   7.825  0.3660  0.2334  1.1762
  311MOL0     H41922   7.301   5.136   7.836  0.2889 -0.3407  0.7913
  311MOL0     H41923   7.331   5.212   7.993 -1.4285 -4.4431  0.0321
  311MOL0     H41924   7.450   5.402   7.869 -1.1204 -0.6601  0.7823
  311MOL0     H41925   7.423   5.323   7.724 -0.5146  2.7937  0.6337
  311MOL0     H41926   7.557   5.192   7.970  0.3626  2.5496  1.1302
  311MOL0     H41927   7.559   5.116   7.811 -3.6817  0.4114  0.1955
  311MOL0     H41928   7.677   5.329   7.729  2.9298 -1.7217 -1.2592
  311MOL0     H41929   7.713   5.365   7.895  0.8511  1.0238 -1.1651
  311MOL0     H41930   7.816   5.126   7.918 -2.1776  2.5097  0.6172
  311MOL0     H41931   7.779   5.088   7.757 -4.0549  0.9901  0.3696
  311MOL0     H41932   7.958   5.327   7.829  1.1187  0.5753 -1.4063
  311MOL0     H41933   7.941   5.253   7.668  4.6470  1.9979  0.6242
  311MOL0     H41934   8.082   5.099   7.895  1.6483  1.3457  0.3167
  311MOL0     H41935   8.040   5.054   7.732 -0.8096  0.3212 -0.4806
  311MOL0     H41936   8.157   5.260   7.563  3.4545  2.4469 -2.3486
  311MOL0     H41937   8.507   5.322   7.518 -0.4618 -0.5300  1.5921
  311MOL0     H41938   8.359   5.412   7.479  0.3968  3.1639  0.4994
  311MOL0     H41939   8.409   5.579   7.652 -1.3904 -1.7745  0.3953
  311MOL0     H41940   8.565   5.504   7.688  1.3821 -0.2165 -2.5619
  311MOL0     H41941   8.571   5.697   7.543 -3.8767  2.5632 -0.8841
  311MOL0     H41942   8.484   5.618   7.415 -0.7193 -1.7997 -0.0505
  311MOL0     H41943   8.676   5.444   7.399  0.7854 -1.5602  1.0953
  311MOL0     H41944   8.748   5.526   7.539  1.6222  0.7322 -0.6582
  311MOL0     H41945   8.848   5.807   7.202  0.0271 -0.4557 -2.2953
  311MOL0     H41946   9.081   5.801   7.120 -1.2007  0.7122  1.0652
  311MOL0     H41947   9.403   5.410   7.002  0.6402  1.2098 -2.2257
  311MOL0     H41948   9.630   5.356   6.916  1.8029  0.5475 -0.6696
  311MOL0     H41949   9.914   5.611   6.984  0.6630  0.6010 -1.4497
  311MOL0     H41950  10.046   5.490   7.025  0.6709 -1.7669 -1.9139
  311MOL0     H41951   9.970   5.366   6.795 -2.4900 -0.0800  1.3219
  311MOL0     H41952   9.882   5.508   6.765  0.9616  0.8533 -2.0277
  311MOL0     H41953  10.092   5.503   6.655 -1.9558 -0.8729  0.8057
  311MOL0     H41954  10.091   5.645   6.772  0.8251  0.5572  2.7503
  311MOL0     H41955  10.218   5.383   6.852 -1.1972  0.5789  1.3395
  311MOL0     H41956  10.236   5.537   6.925 -0.1832 -1.1155  0.7472
  311MOL0     H41957  10.365   5.608   6.707 -1.7829  1.9644  3.9350
  311MOL0     H41958  10.365   5.439   6.658 -3.5634 -0.8816  0.2167
  311MOL0     H41959  10.571   5.510   6.767 -1.3430 -0.5081 -2.4019
  311MOL0     H41960  10.477   5.510   6.924 -2.8274  1.0987 -0.1923
  311MOL0     H41961  10.508   5.275   6.734 -0.0261 -1.0199  0.6570
  311MOL0     H41962  10.406   5.283   6.885 -0.1375 -0.9666 -0.0636
  311MOL0     H41963  10.594   5.299   7.035  0.8221 -0.8638  0.3444
  311MOL0     H41964  10.611   5.164   6.927 -2.1222 -0.0443 -2.3905
  311MOL0     H41965   9.806   5.567   7.251  1.0521 -1.4227 -0.5324
  311MOL0     H41966   9.577   5.625   7.337  1.0039  0.4067  1.7077
  311MOL0     H41967   9.164   5.458   7.364  2.3811  1.4431 -0.9761
  311MOL0     H41968   8.917   5.456   7.429  0.1982  0.3626  0.1850
  311MOL0     H41969   7.091   5.091   8.015  2.4349 -1.7705  3.4756
  311MOL0     H41970   6.909   4.995   8.158  1.1001  0.3140 -0.6316
  311MOL0     H41971   6.694   4.891   8.399 -2.8997 -0.2962 -5.9126
  311MOL0     H41972   6.600   4.741   8.504  0.0867  0.1671 -3.2831
  311MOL0     H41973   6.512   4.616   8.757  1.0085 -2.2375 -1.1059
  311MOL0     H41974   6.473   4.573   8.594  1.1492 -2.2026  1.7947
  311MOL0     H41975   6.345   4.433   8.676 -4.0663 -1.4125  0.1850
  311MOL0     H41976   6.236   4.572   8.647 -0.3530 -0.2047 -0.0283
  311MOL0     H41977   6.352   4.503   8.928  0.0127 -3.3631 -1.6147
  311MOL0     H41978   6.195   4.455   8.869 -0.2945  0.1818  2.7313
  311MOL0     H41979   6.314   4.735   8.925 -0.6945  0.7042  2.8776
  311MOL0     H41980   6.150   4.715   8.864  1.5730  4.1029 -0.4931
  311MOL0     H41981   6.119   4.667   9.274  4.3347 -2.1414  1.5522
  311MOL0     H41982   6.323   5.031   8.670  1.0660  2.3851  0.2705
  311MOL0     H41983   6.381   5.281   8.481 -0.7734 -2.1418 -0.7942
  311MOL0     H41984   6.338   5.244   8.644  1.8317  0.9131  1.5800
  311MOL0     H41985   6.505   5.297   8.607  1.0272 -0.9551 -1.1905
  312MOL0     O41986   1.219   6.192   3.149 -0.0884 -0.1369 -0.1725
  312MOL0     C41987   1.162   6.173   3.045 -0.1164  0.0061  0.3647
  312MOL0     O41988   1.222   6.150   2.931  0.4499 -0.2837  0.2150
  312MOL0     C41989   1.360   6.168   2.933  0.1400  0.9748  0.9490
  312MOL0     C41990   1.440   6.050   2.927  0.3014  0.0956  0.3078
  312MOL0     C41991   1.576   6.065   2.911 -1.1485 -0.2288 -0.7932
  312MOL0     C41992   1.642   6.192   2.919  0.1955  0.3753 -0.9104
  312MOL0     O41993   1.782   6.189   2.915  0.1261  0.0336  0.8495
  312MOL0     C41994   1.851   6.311   2.945  0.8095  0.3900 -0.3304
  312MOL0     C41995   1.970   6.322   2.854 -0.2455  0.3837  0.2221
  312MOL0     C41996   2.094   6.237   2.902  0.0623 -0.0219 -0.0924
  312MOL0     C41997   2.219   6.270   2.823 -0.2303  0.7265 -0.6658
  312MOL0     C41998   2.336   6.183   2.862  0.2535 -0.0322  0.0445
  312MOL0     C41999   2.396   6.238   2.992  0.4002 -0.1962 -0.1257
  312MOL0     C42000   2.499   6.140   3.045 -0.8221 -0.3453 -1.0264
  312MOL0     C42001   2.564   6.198   3.174  0.7467 -0.5156 -0.7674
  312MOL0     N42002   2.682   6.126   3.215  0.0136 -0.6178  0.0391
  312MOL0     C42003   2.807   6.137   3.162 -0.2097  0.5246 -1.1290
  312MOL0     C42004   2.879   6.029   3.203 -0.3130 -0.4596 -0.2677
  312MOL0     C42005   3.026   6.024   3.170 -0.5752  0.3331 -0.0544
  312MOL0     C42006   3.097   6.039   3.303  0.1932  0.2283  0.6136
  312MOL0     C42007   3.238   6.095   3.276  0.4556  0.0999  0.6003
  312MOL0     C42008   3.331   6.118   3.400 -0.0783  0.3842 -0.5895
  312MOL0     O42009   3.369   5.986   3.448 -0.6718  0.4140 -0.1549
  312MOL0     C42010   3.493   5.969   3.509 -0.2001 -0.8460  0.1585
  312MOL0     C42011   3.534   5.841   3.547  0.0463 -0.7883 -0.8977
  312MOL0     C42012   3.660   5.814   3.594 -0.0831 -0.7646 -0.6315
  312MOL0     C42013   3.752   5.914   3.601 -0.0240 -0.3859 -0.0857
  312MOL0     C42014   3.883   5.885   3.664 -0.5728  0.6174  1.1361
  312MOL0     O42015   3.887   5.807   3.776  0.4318  0.5501 -0.4633
  312MOL0     C42016   4.005   5.770   3.840  0.0647  0.0922  0.3254
  312MOL0     C42017   3.985   5.711   3.971  0.1902 -0.2952  1.0525
  312MOL0     C42018   4.087   5.660   4.036 -0.5460  0.7056  0.8487
  312MOL0     C42019   4.220   5.665   3.978 -0.3609  0.6569  0.3354
  312MOL0     O42020   4.335   5.621   4.043  0.1911  0.2688 -0.3821
  312MOL0     C42021   4.343   5.625   4.190 -0.2326  0.0179 -0.2144
  312MOL0     C42022   4.492   5.620   4.236 -1.3396  0.1013 -0.6226
  312MOL0     C42023   4.571   5.509   4.162  0.1808 -0.1452 -0.1147
  312MOL0     C42024   4.721   5.519   4.193  1.0600  0.9749 -0.3413
  312MOL0     C42025   4.803   5.395   4.168 -0.1501 -0.4808  1.2182
  312MOL0     C42026   4.939   5.397   4.233  0.0275 -0.8488  1.6098
  312MOL0     C42027   5.017   5.535   4.209  0.5339 -0.0846  0.2357
  312MOL0     C42028   5.055   5.567   4.069  0.4877  0.8099 -1.1633
  312MOL0    Cl42029   5.173   5.456   4.000  0.2816  0.3872 -0.0050
  312MOL0     C42030   4.238   5.725   3.852  0.3877  0.3775 -0.4001
  312MOL0     C42031   4.127   5.766   3.773 -0.8839 -0.2550 -0.4238
  312MOL0     O42032   3.974   5.956   3.617 -0.3365 -0.2208 -1.1352
  312MOL0     C42033   3.717   6.051   3.565  0.2753  0.3123 -0.6096
  312MOL0     C42034   3.587   6.072   3.533  0.8839  0.1927 -0.2029
  312MOL0     N42035   2.798   5.946   3.283 -0.1688 -0.3364 -0.4710
  312MOL0     N42036   2.680   6.008   3.286  0.4246  0.3823  0.1735
  312MOL0     C42037   1.558   6.308   2.941  0.6436 -0.1245 -1.2323
  312MOL0     C42038   1.419   6.294   2.936 -0.5076  0.9976  0.4424
  312MOL0     C42039   1.012   6.198   3.053 -0.0923  1.2950 -0.7995
  312MOL0     C42040   0.949   6.217   2.929 -0.9211  0.0285  0.7442
  312MOL0     C42041   0.821   6.261   2.925  0.7608  0.3419  0.1098
  312MOL0     C42042   0.745   6.291   3.039  0.9278  0.0810 -0.4210
  312MOL0     O42043   0.615   6.334   3.039  0.6403 -0.4236 -0.5833
  312MOL0     C42044   0.571   6.400   2.920  0.1120 -0.3243 -0.0090
  312MOL0     C42045   0.489   6.291   2.840 -0.5523  0.7286 -0.7950
  312MOL0     C42046   0.432   6.360   2.719  0.7733  0.4039 -0.7074
  312MOL0     C42047   0.369   6.262   2.625 -0.7118 -0.2516  0.1035
  312MOL0     C42048   0.306   6.340   2.521 -0.6630 -0.2982  0.2285
  312MOL0     C42049   0.268   6.419   2.438 -0.2932 -0.7371  0.2043
  312MOL0     C42050   0.805   6.265   3.163 -0.8988  0.6891 -0.1927
  312MOL0     C42051   0.934   6.213   3.166 -0.3611  0.7632  0.1608
  312MOL0     C42052   0.986   6.203   3.309 -0.8724 -0.3203 -0.6007
  312MOL0     H42053   1.397   5.951   2.916  0.4388 -0.3107  2.7708
  312MOL0     H42054   1.641   5.981   2.892  0.0172  0.4143  0.1622
  312MOL0     H42055   1.789   6.398   2.920 -1.6165 -1.4934 -1.3140
  312MOL0     H42056   1.871   6.329   3.051 -2.0412  3.6812 -0.1700
  312MOL0     H42057   1.999   6.427   2.848  1.5094 -0.0305  0.7501
  312MOL0     H42058   1.933   6.275   2.763  0.0465 -1.3960  0.9737
  312MOL0     H42059   2.064   6.133   2.893 -1.4120  0.4215 -0.5768
  312MOL0     H42060   2.109   6.265   3.006  0.9704  5.9744 -1.4401
  312MOL0     H42061   2.197   6.257   2.716 -0.5752  2.5084 -0.8451
  312MOL0     H42062   2.245   6.374   2.842 -0.4743  0.3079  2.4613
  312MOL0     H42063   2.311   6.077   2.867  1.6281 -0.3994 -0.6458
  312MOL0     H42064   2.415   6.190   2.788  0.9178 -1.3564  0.5995
  312MOL0     H42065   2.439   6.339   2.989 -1.9671  0.8840  0.3349
  312MOL0     H42066   2.314   6.237   3.065 -0.1435 -0.2646 -0.7291
  312MOL0     H42067   2.578   6.115   2.973 -0.1291  0.3323 -0.5183
  312MOL0     H42068   2.451   6.049   3.084 -2.0789  2.1815  4.2041
  312MOL0     H42069   2.577   6.307   3.173  1.4869 -0.4020  3.5065
  312MOL0     H42070   2.487   6.189   3.251  0.6366  3.1377 -0.2850
  312MOL0     H42071   2.854   6.223   3.114  3.6696  0.4214  1.9740
  312MOL0     H42072   3.048   5.940   3.104 -4.1279  0.9009 -2.1789
  312MOL0     H42073   3.064   6.104   3.106 -1.7468  0.8061 -0.1775
  312MOL0     H42074   3.035   6.098   3.371 -0.7765  1.1895 -1.0223
  312MOL0     H42075   3.106   5.939   3.345 -1.5929 -0.6241 -0.8526
  312MOL0     H42076   3.214   6.192   3.234 -1.1412  0.4991  2.2988
  312MOL0     H42077   3.290   6.037   3.199 -1.2791 -2.0242  0.9076
  312MOL0     H42078   3.272   6.175   3.472 -0.8311 -1.9053  0.7339
  312MOL0     H42079   3.419   6.177   3.374  1.0575 -0.6790  0.6829
  312MOL0     H42080   3.460   5.761   3.538  0.6859 -1.4407 -0.5148
  312MOL0     H42081   3.672   5.708   3.615 -1.4651 -0.6538  0.9431
  312MOL0     H42082   3.884   5.702   4.010 -0.4840 -1.8431 -0.8956
  312MOL0     H42083   4.066   5.611   4.130 -3.5223  0.5011  0.1801
  312MOL0     H42084   4.296   5.719   4.219 -0.3042 -0.3422  0.9221
  312MOL0     H42085   4.280   5.544   4.229 -0.9977 -0.5548 -2.4991
  312MOL0     H42086   4.546   5.714   4.223  1.9721 -1.8202 -1.8955
  312MOL0     H42087   4.497   5.597   4.343 -0.4464  2.1511 -0.1869
  312MOL0     H42088   4.525   5.414   4.190  0.5617 -0.2957 -0.0010
  312MOL0     H42089   4.558   5.517   4.054 -1.1411  1.2928  0.1119
  312MOL0     H42090   4.738   5.548   4.297 -1.9194  3.3217 -0.3703
  312MOL0     H42091   4.771   5.596   4.132 -1.5396  2.4375 -0.7763
  312MOL0     H42092   4.809   5.373   4.061  1.9066 -1.5582  1.4934
  312MOL0     H42093   4.759   5.306   4.214 -0.2028  0.6787  3.5495
  312MOL0     H42094   4.921   5.377   4.339  1.5752 -1.3689  1.7986
  312MOL0     H42095   5.005   5.318   4.197 -0.6608 -0.8223  0.2009
  312MOL0     H42096   5.107   5.536   4.271 -1.4301 -0.5907  3.2958
  312MOL0     H42097   4.951   5.609   4.255  1.2206  1.5526 -1.2979
  312MOL0     H42098   4.969   5.588   4.005 -2.7796  1.0986  2.9360
  312MOL0     H42099   5.112   5.660   4.083 -1.5457  1.8418  0.8697
  312MOL0     H42100   4.337   5.734   3.810  0.1051  3.9392 -0.6477
  312MOL0     H42101   4.135   5.809   3.674  0.0943 -3.0234 -1.6516
  312MOL0     H42102   3.784   6.134   3.585 -1.8742  2.1515 -0.6510
  312MOL0     H42103   3.562   6.177   3.526 -3.0198 -0.3114  2.6942
  312MOL0     H42104   1.601   6.400   2.977  1.0540 -1.3365  1.6597
  312MOL0     H42105   1.342   6.366   2.960 -0.6041  1.6926 -1.7600
  312MOL0     H42106   0.998   6.194   2.835 -0.8479 -0.9728  1.0168
  312MOL0     H42107   0.786   6.261   2.823 -2.7841  1.6266  1.1773
  312MOL0     H42108   0.653   6.449   2.865  1.4548 -1.1197  1.2021
  312MOL0     H42109   0.505   6.482   2.949  1.0384  0.7010 -0.6931
  312MOL0     H42110   0.412   6.243   2.901  1.9459 -2.4913  0.1186
  312MOL0     H42111   0.551   6.205   2.811 -0.2896  0.6442 -0.0241
  312MOL0     H42112   0.519   6.409   2.673  0.8044  0.1635 -0.9093
  312MOL0     H42113   0.357   6.428   2.762  0.5177  0.3889 -1.1205
  312MOL0     H42114   0.450   6.209   2.574 -1.3396 -0.4501 -0.7262
  312MOL0     H42115   0.285   6.200   2.659 -1.1511  1.5007  2.4484
  312MOL0     H42116   0.234   6.497   2.373  4.6582  2.6919  1.1530
  312MOL0     H42117   0.748   6.251   3.254  0.2364 -2.2324  0.1727
  312MOL0     H42118   0.899   6.203   3.376 -1.0742  0.9015 -0.8361
  312MOL0     H42119   1.053   6.120   3.331 -1.1025 -0.6606 -1.1647
  312MOL0     H42120   1.043   6.292   3.337  1.2725 -2.3483  2.0127
  313MOL0     O42121   3.120   7.550   1.899 -0.4087  0.5421 -0.4611
  313MOL0     C42122   3.150   7.619   1.791  0.2758  0.6192 -0.3624
  313MOL0     O42123   3.085   7.732   1.753  0.0825  0.1259  0.4376
  313MOL0     C42124   2.967   7.764   1.813  0.1548 -0.0901  1.0710
  313MOL0     C42125   2.955   7.787   1.944 -0.7845 -0.2650 -0.1357
  313MOL0     C42126   2.822   7.814   2.004 -0.0398 -0.0350  0.0414
  313MOL0     C42127   2.713   7.802   1.915  0.4069  1.0448 -0.5917
  313MOL0     O42128   2.587   7.824   1.965  0.0543  0.0079  0.2592
  313MOL0     C42129   2.528   7.945   1.929  0.4427 -0.6635  0.4831
  313MOL0     C42130   2.383   7.921   1.979  0.5541  0.4647  0.8225
  313MOL0     C42131   2.304   8.049   1.954 -0.1611 -0.6176 -0.6226
  313MOL0     C42132   2.155   8.049   2.000  0.3987 -0.1929  0.0491
  313MOL0     C42133   2.087   8.185   1.993  0.0727 -0.4927  0.1421
  313MOL0     C42134   1.937   8.182   2.041 -0.7344 -0.3163 -0.7208
  313MOL0     C42135   1.867   8.304   1.987  1.3089  0.2201 -0.6144
  313MOL0     C42136   1.914   8.438   2.044 -0.0351 -0.9566 -0.1205
  313MOL0     N42137   1.842   8.557   2.007 -0.1698  0.2695  0.4194
  313MOL0     C42138   1.705   8.576   2.017  0.4656 -0.3245 -0.5780
  313MOL0     C42139   1.669   8.673   1.924  1.0580  0.3093 -0.3353
  313MOL0     C42140   1.525   8.716   1.886  0.4236 -0.6941  0.7885
  313MOL0     C42141   1.472   8.631   1.769 -0.2029 -0.8685 -0.9078
  313MOL0     C42142   1.347   8.700   1.700 -0.5386  0.4577  0.8518
  313MOL0     C42143   1.228   8.707   1.784 -0.8886  0.2664  0.2214
  313MOL0     O42144   1.161   8.579   1.806 -0.9550 -0.3138  0.3358
  313MOL0     C42145   1.042   8.555   1.742 -0.1244  0.7500 -0.4921
  313MOL0     C42146   0.999   8.422   1.744 -1.3235  0.4791  1.0604
  313MOL0     C42147   0.884   8.386   1.675 -0.1638  0.9190  0.7159
  313MOL0     C42148   0.815   8.475   1.595  0.3090 -0.6308  0.2345
  313MOL0     C42149   0.687   8.434   1.529 -0.1090  0.4320  0.6800
  313MOL0     O42150   0.587   8.525   1.516  0.5383 -0.0081 -0.3776
  313MOL0     C42151   0.460   8.512   1.465  0.4053  0.7597  0.4520
  313MOL0     C42152   0.385   8.401   1.479 -0.3309 -0.0986 -0.2677
  313MOL0     C42153   0.249   8.391   1.448 -0.1393 -0.1102  0.2902
  313MOL0     C42154   0.174   8.499   1.396 -0.8121  0.4204  0.8135
  313MOL0     O42155   0.041   8.478   1.373  0.2931 -0.4545  0.3742
  313MOL0     C42156  -0.034   8.579   1.308 -0.0637 -0.2237  0.0950
  313MOL0     C42157  -0.169   8.517   1.297 -0.7693  0.4007  0.4183
  313MOL0     C42158  -0.266   8.604   1.218 -0.0690 -0.2349  0.3112
  313MOL0     C42159  -0.407   8.543   1.215  0.1170 -0.0710  0.0795
  313MOL0     C42160  -0.497   8.656   1.160 -1.0556  0.9660 -0.4504
  313MOL0     C42161  -0.636   8.606   1.126  0.0546  0.3876  0.8487
  313MOL0     C42162  -0.731   8.724   1.085 -0.5095  0.5783  0.6384
  313MOL0     C42163  -0.875   8.679   1.099  0.5216 -0.7668 -1.5709
  313MOL0    Cl42164  -0.928   8.563   0.969  0.3223  0.5743 -0.3007
  313MOL0     C42165   0.247   8.616   1.383  0.1460 -0.1638 -0.0633
  313MOL0     C42166   0.379   8.627   1.433 -0.0919 -0.4169 -0.1448
  313MOL0     O42167   0.678   8.322   1.483  0.5736  0.0761 -0.1363
  313MOL0     C42168   0.866   8.599   1.580  0.2208 -0.2160 -0.2125
  313MOL0     C42169   0.978   8.644   1.657  0.1295 -0.0618 -0.1227
  313MOL0     N42170   1.789   8.725   1.879 -0.0498 -0.0838 -0.2612
  313MOL0     N42171   1.887   8.651   1.920  0.1678  0.0903  0.0175
  313MOL0     C42172   2.726   7.777   1.779  0.0086  0.1867 -0.1636
  313MOL0     C42173   2.858   7.759   1.726  0.1277  0.9008  0.2617
  313MOL0     C42174   3.274   7.581   1.717 -0.1154 -0.5691  0.2170
  313MOL0     C42175   3.385   7.527   1.788  0.7875  0.4439 -0.0720
  313MOL0     C42176   3.497   7.484   1.719  0.3308 -0.1842  0.9435
  313MOL0     C42177   3.511   7.509   1.583 -0.1826 -0.1807 -0.4488
  313MOL0     O42178   3.614   7.468   1.505  0.4037 -0.6305 -0.6512
  313MOL0     C42179   3.726   7.419   1.576  0.9409 -0.2765 -0.0622
  313MOL0     C42180   3.848   7.411   1.484  0.0134 -0.1357 -0.0504
  313MOL0     C42181   3.950   7.313   1.549  0.9858  0.3514 -0.2113
  313MOL0     C42182   4.074   7.307   1.459 -0.5331  0.2319 -0.2541
  313MOL0     C42183   4.177   7.234   1.531 -1.6941 -0.4354 -0.0577
  313MOL0     C42184   4.261   7.180   1.594 -0.4436  0.6842 -0.2126
  313MOL0     C42185   3.405   7.564   1.514  0.9335 -0.2841 -0.3710
  313MOL0     C42186   3.286   7.606   1.574 -0.6532 -0.2289 -0.3337
  313MOL0     C42187   3.176   7.660   1.483  0.0925  0.4264  0.2622
  313MOL0     H42188   3.042   7.785   2.010 -0.4327  0.1587 -0.5760
  313MOL0     H42189   2.809   7.855   2.104  1.1476  1.0368 -0.2168
  313MOL0     H42190   2.582   8.031   1.970  1.4039 -0.8861 -0.2750
  313MOL0     H42191   2.521   7.963   1.821  1.9731  1.1463  0.6314
  313MOL0     H42192   2.383   7.890   2.084  1.8096 -1.6148  0.2835
  313MOL0     H42193   2.340   7.844   1.914  0.0868  2.8939 -1.9559
  313MOL0     H42194   2.300   8.073   1.847 -1.6863 -1.2856 -0.7316
  313MOL0     H42195   2.357   8.130   2.006 -0.4298  0.4783 -1.9753
  313MOL0     H42196   2.093   7.985   1.937  1.4684  2.3724 -3.9853
  313MOL0     H42197   2.150   8.013   2.103 -0.0171 -1.2544 -0.3304
  313MOL0     H42198   2.146   8.247   2.061 -1.1592 -1.8436  2.5859
  313MOL0     H42199   2.093   8.221   1.889  1.3609 -1.0608  0.0021
  313MOL0     H42200   1.888   8.090   2.007 -1.7921  1.0146 -3.0141
  313MOL0     H42201   1.932   8.176   2.151 -1.0858  0.6002 -0.6729
  313MOL0     H42202   1.761   8.297   2.016  1.2497 -0.3130 -0.9496
  313MOL0     H42203   1.866   8.305   1.877 -1.6289 -0.0605 -0.6826
  313MOL0     H42204   1.905   8.442   2.153 -1.8107  1.6356 -0.2829
  313MOL0     H42205   2.021   8.451   2.024  0.3689  0.0218  2.3107
  313MOL0     H42206   1.633   8.520   2.076  1.0331  2.0858  2.7675
  313MOL0     H42207   1.464   8.713   1.977 -3.3969  0.2354 -1.5278
  313MOL0     H42208   1.535   8.816   1.844 -0.5822 -0.3357  1.3618
  313MOL0     H42209   1.551   8.627   1.693  2.1708  1.1951  1.2243
  313MOL0     H42210   1.431   8.535   1.800  1.3525 -1.3895 -0.3359
  313MOL0     H42211   1.329   8.654   1.602 -0.5298 -1.7049  1.8027
  313MOL0     H42212   1.362   8.805   1.674  1.0968 -0.0882 -0.6552
  313MOL0     H42213   1.162   8.783   1.741 -0.7864  0.2981  0.1222
  313MOL0     H42214   1.257   8.734   1.887  0.2896  1.0353 -0.2906
  313MOL0     H42215   1.049   8.354   1.812  0.6325 -1.3140 -1.8859
  313MOL0     H42216   0.850   8.284   1.689  1.3263  0.5630  2.1372
  313MOL0     H42217   0.438   8.317   1.524  0.7014  1.3204  1.3239
  313MOL0     H42218   0.206   8.291   1.456 -0.8897  0.0208 -1.6308
  313MOL0     H42219  -0.041   8.663   1.379  3.9950 -1.6509  2.5150
  313MOL0     H42220   0.010   8.610   1.213 -1.1335  1.5865  0.1316
  313MOL0     H42221  -0.172   8.427   1.235 -1.0984 -1.0796  2.5027
  313MOL0     H42222  -0.208   8.502   1.398 -1.8292 -1.7196 -0.2559
  313MOL0     H42223  -0.257   8.704   1.261  1.0973 -0.4709  0.6416
  313MOL0     H42224  -0.238   8.613   1.113  1.8053 -1.1984  0.6837
  313MOL0     H42225  -0.441   8.540   1.319 -0.5224  4.2891  0.1724
  313MOL0     H42226  -0.424   8.455   1.151  0.3611 -0.2877  0.3095
  313MOL0     H42227  -0.440   8.702   1.080  1.7429 -0.5189  0.5426
  313MOL0     H42228  -0.506   8.734   1.236 -0.5941  1.7885 -1.2265
  313MOL0     H42229  -0.631   8.521   1.057  0.1441 -2.4503  4.0827
  313MOL0     H42230  -0.678   8.558   1.214 -1.4959 -2.1191 -1.0968
  313MOL0     H42231  -0.719   8.747   0.979 -0.0669 -1.1422  0.2881
  313MOL0     H42232  -0.715   8.811   1.149 -0.5726 -0.1321  1.6412
  313MOL0     H42233  -0.882   8.626   1.194 -0.7777  0.3172 -1.0263
  313MOL0     H42234  -0.945   8.762   1.110  1.4839  0.0738 -1.6049
  313MOL0     H42235   0.205   8.714   1.366 -0.3135 -0.8361 -3.4716
  313MOL0     H42236   0.411   8.731   1.437  2.2072 -1.1335  2.0681
  313MOL0     H42237   0.815   8.666   1.512 -3.1425 -0.7877  1.5248
  313MOL0     H42238   1.016   8.741   1.626  0.8310 -0.3527 -0.2002
  313MOL0     H42239   2.636   7.768   1.719 -1.6927  1.9807  1.9085
  313MOL0     H42240   2.883   7.740   1.622 -0.3812  2.2467 -0.1292
  313MOL0     H42241   3.378   7.531   1.896  1.5389  2.3103 -0.0542
  313MOL0     H42242   3.567   7.432   1.783 -0.5036 -0.4570  1.6432
  313MOL0     H42243   3.709   7.314   1.601  1.5911 -0.4735 -0.4122
  313MOL0     H42244   3.753   7.480   1.662 -0.5100 -1.2504  1.1327
  313MOL0     H42245   3.880   7.515   1.483 -0.5625  0.0443 -0.6864
  313MOL0     H42246   3.816   7.379   1.384 -2.1871  5.0295 -1.3355
  313MOL0     H42247   3.909   7.212   1.557  1.2430  0.3417  1.3192
  313MOL0     H42248   3.971   7.355   1.648  0.4994  1.9650 -0.7672
  313MOL0     H42249   4.044   7.245   1.374 -2.2700  0.5132  0.1118
  313MOL0     H42250   4.118   7.403   1.432  0.8447 -0.3060  0.0189
  313MOL0     H42251   4.324   7.110   1.644 -2.4289 -1.6041 -0.7166
  313MOL0     H42252   3.417   7.581   1.407  0.7792  2.2860 -0.0541
  313MOL0     H42253   3.213   7.639   1.383 -2.3560  2.4430 -1.1910
  313MOL0     H42254   3.083   7.611   1.513 -0.9048  1.8597 -0.3946
  313MOL0     H42255   3.150   7.766   1.494 -1.5682 -0.0108  0.8085
  314MOL0     O42256   6.218  11.178   8.735  0.4520  0.4741  0.6109
  314MOL0     C42257   6.179  11.286   8.775 -0.8264 -0.7719 -0.3247
  314MOL0     O42258   6.259  11.391   8.812  0.9275  0.4366  0.2134
  314MOL0     C42259   6.392  11.385   8.776  0.8896 -0.0201  0.4471
  314MOL0     C42260   6.493  11.377   8.875  0.4479 -0.2198  0.4460
  314MOL0     C42261   6.630  11.388   8.839 -0.5390  0.2395 -0.0449
  314MOL0     C42262   6.679  11.410   8.714  0.0870 -0.7993 -0.0776
  314MOL0     O42263   6.808  11.432   8.674  0.4402  0.7420 -0.1684
  314MOL0     C42264   6.923  11.374   8.744  0.6345  0.6956 -0.2349
  314MOL0     C42265   6.976  11.486   8.827 -0.2277  0.5124 -0.1833
  314MOL0     C42266   7.086  11.435   8.925 -0.3649 -0.0880  0.0362
  314MOL0     C42267   7.178  11.548   8.964 -0.6326  0.1653 -0.7547
  314MOL0     C42268   7.310  11.503   9.029  0.0313  0.5851  0.9784
  314MOL0     C42269   7.406  11.621   9.042  0.5945 -1.3379 -0.3414
  314MOL0     C42270   7.543  11.597   9.110 -0.4970  1.0088 -1.0965
  314MOL0     C42271   7.615  11.730   9.131 -0.5281 -0.1627 -0.2622
  314MOL0     N42272   7.700  11.742   9.243  0.0871 -0.1051 -0.3983
  314MOL0     C42273   7.670  11.748   9.376  0.0490 -0.4190 -0.6266
  314MOL0     C42274   7.787  11.736   9.438 -0.1250  0.4093 -0.7366
  314MOL0     C42275   7.804  11.737   9.592  0.1112  0.0725 -0.1557
  314MOL0     C42276   7.948  11.690   9.634 -0.7772 -0.1149 -0.6688
  314MOL0     C42277   8.029  11.819   9.665  0.3121  0.6513 -0.1897
  314MOL0     C42278   8.040  11.931   9.552 -0.6905  0.5740 -0.1195
  314MOL0     O42279   8.146  12.023   9.583 -0.7619  0.4257  0.3984
  314MOL0     C42280   8.280  11.991   9.555 -0.2726 -0.1959 -1.3069
  314MOL0     C42281   8.331  11.859   9.528 -0.1087  0.1206 -0.3026
  314MOL0     C42282   8.466  11.838   9.496  1.0228 -0.6455 -0.6232
  314MOL0     C42283   8.556  11.942   9.501 -0.9646 -0.9209 -0.8948
  314MOL0     C42284   8.705  11.921   9.479  0.4459  0.2712  0.2595
  314MOL0     O42285   8.739  11.803   9.428 -0.3398 -0.3715 -0.1633
  314MOL0     C42286   8.874  11.771   9.395 -0.3648  1.0303 -0.5495
  314MOL0     C42287   8.892  11.695   9.277  0.2253  0.2976  0.0854
  314MOL0     C42288   9.020  11.671   9.222 -1.1227  0.4687  0.8100
  314MOL0     C42289   9.136  11.700   9.294  0.3706 -0.7865 -0.8512
  314MOL0     O42290   9.254  11.665   9.236 -0.0855 -0.4517 -0.1901
  314MOL0     C42291   9.380  11.729   9.284 -1.1181  0.1743 -0.2244
  314MOL0     C42292   9.463  11.657   9.390  0.9382  1.2140  0.5803
  314MOL0     C42293   9.560  11.554   9.331 -1.6073 -0.0985  0.6452
  314MOL0     C42294   9.634  11.472   9.440 -0.4902 -0.3798 -0.2175
  314MOL0     C42295   9.750  11.389   9.381 -1.5333 -0.6677 -0.2370
  314MOL0     C42296   9.860  11.473   9.312  0.1866  1.0309 -0.1549
  314MOL0     C42297  10.002  11.398   9.311  0.2369 -0.3857  0.2393
  314MOL0     C42298  10.064  11.405   9.448  0.4779 -0.3034  0.0995
  314MOL0    Cl42299  10.227  11.344   9.423  0.0598  0.0203 -0.5733
  314MOL0     C42300   9.116  11.762   9.420 -0.4120  0.3507  0.4778
  314MOL0     C42301   8.987  11.801   9.470 -0.6351 -0.3742 -0.6609
  314MOL0     O42302   8.782  12.006   9.521 -0.4128  0.1670 -0.4859
  314MOL0     C42303   8.509  12.071   9.533  0.0902  0.6381 -0.6930
  314MOL0     C42304   8.377  12.097   9.545  0.0361  0.2615  0.2027
  314MOL0     N42305   7.886  11.741   9.346 -0.8243  0.2075  0.2438
  314MOL0     N42306   7.834  11.750   9.224 -0.3662 -0.0448 -0.5460
  314MOL0     C42307   6.575  11.420   8.616  0.0188  0.4069  0.7790
  314MOL0     C42308   6.439  11.412   8.648 -0.6150 -0.3166 -0.5683
  314MOL0     C42309   6.032  11.303   8.800  0.9208 -0.7878  0.5044
  314MOL0     C42310   5.993  11.388   8.916 -0.1093 -0.5631 -0.2270
  314MOL0     C42311   5.857  11.408   8.950  0.3787 -0.4995 -0.0475
  314MOL0     C42312   5.761  11.350   8.872  0.1442  0.1716  0.3030
  314MOL0     O42313   5.630  11.377   8.901 -0.4484 -0.3301 -0.7176
  314MOL0     C42314   5.528  11.294   8.846 -0.5931 -0.1793 -0.0883
  314MOL0     C42315   5.402  11.310   8.928  0.4545 -0.1417  0.6697
  314MOL0     C42316   5.278  11.253   8.868 -0.0526  0.4752 -0.0669
  314MOL0     C42317   5.142  11.299   8.944 -0.4701  0.0995 -0.1315
  314MOL0     C42318   5.018  11.264   8.871 -0.3273  0.2556  0.3145
  314MOL0     C42319   4.933  11.237   8.780 -0.6656 -0.6250 -0.3388
  314MOL0     C42320   5.799  11.280   8.759  1.2575 -0.7805  0.3561
  314MOL0     C42321   5.928  11.248   8.720 -0.1567 -0.3035  0.7135
  314MOL0     C42322   5.950  11.177   8.590 -0.0990  0.4325  0.6094
  314MOL0     H42323   6.460  11.360   8.977  3.0359  0.6677  1.5086
  314MOL0     H42324   6.698  11.383   8.924  2.4307  0.7324 -2.2213
  314MOL0     H42325   6.887  11.290   8.804  2.7678 -2.7014 -3.3126
  314MOL0     H42326   7.006  11.338   8.683  0.9123 -1.8317  1.4649
  314MOL0     H42327   6.902  11.530   8.895 -1.0142 -1.3429  0.2334
  314MOL0     H42328   7.003  11.573   8.766 -3.0200  2.2817  0.9143
  314MOL0     H42329   7.139  11.350   8.880  2.5156  1.9762 -0.7639
  314MOL0     H42330   7.047  11.403   9.022  3.6623  1.9598  2.5960
  314MOL0     H42331   7.191  11.593   8.865 -2.3729 -3.3756 -2.7696
  314MOL0     H42332   7.127  11.616   9.034 -0.2192 -0.7090  0.4344
  314MOL0     H42333   7.298  11.454   9.126  1.9963 -1.9618  0.0382
  314MOL0     H42334   7.363  11.440   8.957  0.8110  0.5937  1.5213
  314MOL0     H42335   7.424  11.663   8.943  1.0264  0.5377  0.4802
  314MOL0     H42336   7.353  11.695   9.103  2.2636 -1.7731  1.7676
  314MOL0     H42337   7.608  11.528   9.055 -2.1549 -1.6869  0.0916
  314MOL0     H42338   7.523  11.542   9.203 -0.4441  0.5073 -1.3734
  314MOL0     H42339   7.674  11.731   9.039  0.7125  2.0819  0.4972
  314MOL0     H42340   7.552  11.819   9.133  1.0364  0.9770  1.1058
  314MOL0     H42341   7.580  11.765   9.435  1.7770  1.1946  1.7508
  314MOL0     H42342   7.781  11.832   9.639 -1.2955 -1.2921  2.1097
  314MOL0     H42343   7.730  11.665   9.630  1.0558 -0.0688  1.4791
  314MOL0     H42344   7.960  11.626   9.722  0.2826  0.3274 -0.4777
  314MOL0     H42345   7.994  11.628   9.557  1.3753 -2.4040  2.2110
  314MOL0     H42346   8.130  11.791   9.696  0.0062 -0.9023 -0.5213
  314MOL0     H42347   7.982  11.867   9.751  2.9211  3.9331 -0.3943
  314MOL0     H42348   7.946  11.986   9.539 -0.6370  1.2001  1.8782
  314MOL0     H42349   8.071  11.893   9.454 -0.6909 -0.3103  0.2098
  314MOL0     H42350   8.279  11.764   9.523 -0.7539  0.5012 -1.1415
  314MOL0     H42351   8.505  11.739   9.475  1.6233 -0.1486 -1.9825
  314MOL0     H42352   8.801  11.683   9.219  0.7872  0.4178 -0.8328
  314MOL0     H42353   9.043  11.627   9.125 -1.8032  1.1922  0.3110
  314MOL0     H42354   9.452  11.744   9.203 -0.2767 -0.0088  0.4858
  314MOL0     H42355   9.366  11.831   9.322 -2.4777  0.0078 -0.2281
  314MOL0     H42356   9.525  11.734   9.436  1.3124  2.8539 -2.3799
  314MOL0     H42357   9.398  11.592   9.450  1.0109 -0.1357 -0.7355
  314MOL0     H42358   9.520  11.488   9.254 -0.8006 -1.0353  1.0179
  314MOL0     H42359   9.628  11.617   9.274  2.2364 -2.5641  2.1277
  314MOL0     H42360   9.554  11.411   9.483 -0.6711  0.1065  0.1320
  314MOL0     H42361   9.671  11.530   9.525  0.4643 -0.3666 -0.6309
  314MOL0     H42362   9.709  11.309   9.319 -1.0125 -1.2485  0.1480
  314MOL0     H42363   9.799  11.344   9.468  1.6440 -1.8179 -2.3997
  314MOL0     H42364   9.834  11.491   9.207 -1.9160  3.7018  0.7228
  314MOL0     H42365   9.863  11.570   9.361 -0.3744  0.4100  1.1307
  314MOL0     H42366  10.066  11.458   9.246 -1.3900 -0.5841 -1.6286
  314MOL0     H42367  10.000  11.295   9.274  5.0556 -0.0241 -1.8213
  314MOL0     H42368  10.073  11.509   9.480  1.9172 -0.2970 -0.2326
  314MOL0     H42369   9.997  11.350   9.514  1.5861 -1.6474  0.1622
  314MOL0     H42370   9.197  11.786   9.487 -1.0442 -1.9172  2.1638
  314MOL0     H42371   8.978  11.860   9.560 -0.3409 -0.5841 -0.4904
  314MOL0     H42372   8.576  12.157   9.542 -0.9154  1.3088  0.8753
  314MOL0     H42373   8.347  12.198   9.572  1.8531 -0.0802  4.0543
  314MOL0     H42374   6.601  11.424   8.511 -1.7591 -0.9130  0.2293
  314MOL0     H42375   6.367  11.420   8.567  0.1183  1.7739 -1.0724
  314MOL0     H42376   6.065  11.449   8.970  1.4304 -0.8320 -1.8565
  314MOL0     H42377   5.830  11.469   9.035  1.3681 -0.0475 -0.0469
  314MOL0     H42378   5.544  11.186   8.847 -0.3066 -0.1890 -2.2024
  314MOL0     H42379   5.510  11.322   8.742 -0.8798 -0.8080 -0.2079
  314MOL0     H42380   5.389  11.418   8.942  1.6896  0.0664  0.3496
  314MOL0     H42381   5.426  11.263   9.024 -1.2861 -0.2806  1.0665
  314MOL0     H42382   5.293  11.145   8.871  1.8109  0.5421 -2.7979
  314MOL0     H42383   5.277  11.283   8.763  1.1098 -0.5696 -0.4050
  314MOL0     H42384   5.138  11.271   9.049 -2.1815 -3.0148 -0.9014
  314MOL0     H42385   5.150  11.406   8.923  1.1472  0.1989  0.7959
  314MOL0     H42386   4.858  11.199   8.714 -0.9547  1.8419 -1.5427
  314MOL0     H42387   5.719  11.245   8.695 -0.1569  0.5637  1.3235
  314MOL0     H42388   5.859  11.178   8.530 -1.6695 -2.6063  2.6311
  314MOL0     H42389   6.038  11.209   8.534 -1.2033 -2.0942 -2.8628
  314MOL0     H42390   5.963  11.070   8.611 -1.4721  0.9071  4.9829
  315MOL0     O42391   0.008   5.338   6.807 -0.2950  1.1831  0.0303
  315MOL0     C42392   0.000   5.219   6.771 -1.0461 -0.5837 -0.1496
  315MOL0     O42393   0.045   5.170   6.654 -0.4814  0.6580  0.2926
  315MOL0     C42394   0.130   5.239   6.574 -0.4254  0.4777  0.2008
  315MOL0     C42395   0.104   5.222   6.433 -0.2682 -0.1657 -0.8518
  315MOL0     C42396   0.190   5.289   6.336 -0.5131  0.4234 -0.6115
  315MOL0     C42397   0.303   5.359   6.382  0.9173  0.3815 -0.2133
  315MOL0     O42398   0.374   5.426   6.288 -0.0641 -0.1669  0.9428
  315MOL0     C42399   0.446   5.544   6.319  0.2563 -0.4303  0.3738
  315MOL0     C42400   0.351   5.667   6.337  0.2068  0.1738 -0.1785
  315MOL0     C42401   0.415   5.801   6.336 -0.1193  0.5244  0.1270
  315MOL0     C42402   0.517   5.842   6.233 -0.5745 -0.7395  0.2172
  315MOL0     C42403   0.543   5.997   6.242  0.5122  1.1421  0.1398
  315MOL0     C42404   0.660   6.047   6.155  0.1482 -0.0965 -0.0653
  315MOL0     C42405   0.804   5.989   6.197  0.0716  0.5737 -0.7946
  315MOL0     C42406   0.911   6.050   6.105  0.6768  0.1862 -0.2299
  315MOL0     N42407   1.051   6.002   6.134  0.1361 -0.0578  0.1296
  315MOL0     C42408   1.113   6.002   6.256  0.4825  0.0546  0.4314
  315MOL0     C42409   1.241   5.983   6.227  0.5977 -0.2761  0.4570
  315MOL0     C42410   1.362   5.964   6.326  0.3951 -0.5617  1.3710
  315MOL0     C42411   1.479   6.038   6.261 -0.6266  0.5204 -0.0298
  315MOL0     C42412   1.609   6.009   6.353 -0.4732 -0.6107  0.3749
  315MOL0     C42413   1.741   6.069   6.295 -0.1341 -0.3878 -0.1510
  315MOL0     O42414   1.724   6.205   6.264 -0.2764  0.4987 -0.2482
  315MOL0     C42415   1.841   6.282   6.243  0.9505 -0.2063  0.4235
  315MOL0     C42416   1.955   6.222   6.191  0.1324 -1.6743  0.0907
  315MOL0     C42417   2.062   6.306   6.163  0.3508  0.4516 -0.0183
  315MOL0     C42418   2.050   6.443   6.164  0.9250  0.1278  0.1096
  315MOL0     C42419   2.166   6.528   6.121 -0.5345  0.0367 -0.2218
  315MOL0     O42420   2.279   6.455   6.091 -0.6389 -0.7932  0.3695
  315MOL0     C42421   2.387   6.499   6.020  0.1807 -0.2054 -0.5589
  315MOL0     C42422   2.441   6.423   5.919  0.0906 -0.4181 -0.2385
  315MOL0     C42423   2.551   6.475   5.844  0.7196 -0.7738 -0.5785
  315MOL0     C42424   2.617   6.589   5.881  0.1609 -0.1178  0.2771
  315MOL0     O42425   2.729   6.623   5.805  0.4222  0.5301 -0.1169
  315MOL0     C42426   2.796   6.744   5.835  0.3881 -0.6786 -1.1957
  315MOL0     C42427   2.894   6.758   5.726  0.4314 -0.2111 -0.2836
  315MOL0     C42428   2.966   6.891   5.711 -0.5261 -0.0054 -0.2692
  315MOL0     C42429   3.048   6.875   5.577 -0.8437  0.5729 -0.0587
  315MOL0     C42430   3.138   7.002   5.561 -0.0046 -0.0321  0.5122
  315MOL0     C42431   3.248   6.976   5.463  0.3134 -0.1999  0.5177
  315MOL0     C42432   3.294   7.112   5.410 -0.8950 -0.2777  0.1538
  315MOL0     C42433   3.429   7.116   5.350 -0.4970 -0.4455  0.7616
  315MOL0    Cl42434   3.551   7.034   5.459  0.0199  0.7029  0.0305
  315MOL0     C42435   2.559   6.663   5.985  0.2057  0.2768  0.5767
  315MOL0     C42436   2.450   6.610   6.059 -0.0091 -0.7060 -0.1987
  315MOL0     O42437   2.161   6.650   6.117  0.1070 -0.2816  0.4451
  315MOL0     C42438   1.929   6.505   6.206  0.1026 -0.0077 -0.0752
  315MOL0     C42439   1.826   6.418   6.244  0.0372  0.0139 -0.1512
  315MOL0     N42440   1.257   5.947   6.092 -0.1081 -0.0695  0.2835
  315MOL0     N42441   1.142   5.976   6.038 -0.3088 -0.0186 -0.0885
  315MOL0     C42442   0.327   5.362   6.521  1.0976  0.4607  0.1559
  315MOL0     C42443   0.238   5.310   6.618 -0.6454  0.4668 -0.6072
  315MOL0     C42444  -0.053   5.119   6.861  0.3200  0.9348  0.5167
  315MOL0     C42445  -0.003   4.985   6.863 -0.4520  0.6356  0.1309
  315MOL0     C42446  -0.054   4.887   6.959 -0.6648 -0.1135 -0.2330
  315MOL0     C42447  -0.170   4.911   7.034 -0.2480 -0.1106 -0.0425
  315MOL0     O42448  -0.229   4.816   7.112 -1.0151 -0.0222 -0.4567
  315MOL0     C42449  -0.368   4.797   7.121  0.1093 -0.2418 -0.8093
  315MOL0     C42450  -0.428   4.754   6.989  0.6135  0.3679  0.6172
  315MOL0     C42451  -0.381   4.609   6.954 -0.5013 -0.4913  1.1100
  315MOL0     C42452  -0.454   4.566   6.823 -0.5783  0.4326  0.8380
  315MOL0     C42453  -0.601   4.535   6.830 -0.6616  0.6544 -0.7239
  315MOL0     C42454  -0.724   4.518   6.844  0.3914 -0.3666  0.5271
  315MOL0     C42455  -0.227   5.039   7.016 -0.0721  0.0716 -0.0559
  315MOL0     C42456  -0.171   5.136   6.928  0.5083  0.5134  0.0379
  315MOL0     C42457  -0.248   5.270   6.930  0.5947  0.3621 -0.0859
  315MOL0     H42458   0.029   5.150   6.401 -0.7008  0.0668 -0.3666
  315MOL0     H42459   0.172   5.281   6.229 -1.1501  1.4149 -0.5980
  315MOL0     H42460   0.512   5.528   6.405  0.8899 -1.6141 -0.3022
  315MOL0     H42461   0.515   5.562   6.237 -0.9668 -1.2372 -0.8774
  315MOL0     H42462   0.295   5.675   6.430  0.1073  0.6237 -0.2759
  315MOL0     H42463   0.279   5.659   6.255 -0.2628 -1.6613  0.3654
  315MOL0     H42464   0.459   5.819   6.435  0.8977 -2.2129  0.2646
  315MOL0     H42465   0.325   5.864   6.332  2.7501  4.9718 -1.0350
  315MOL0     H42466   0.606   5.781   6.248 -0.7578 -1.2573 -0.7188
  315MOL0     H42467   0.478   5.817   6.134  1.8472 -0.5067 -0.8800
  315MOL0     H42468   0.454   6.055   6.215  1.0158  2.3896  1.0582
  315MOL0     H42469   0.567   6.017   6.347 -1.3732  0.5568  0.7312
  315MOL0     H42470   0.636   6.027   6.050 -2.1984  0.8447  0.2286
  315MOL0     H42471   0.677   6.155   6.157  0.1985  0.1096 -4.1990
  315MOL0     H42472   0.806   5.880   6.188  0.6674  0.6267 -1.3719
  315MOL0     H42473   0.833   6.014   6.299  1.4760  3.9648 -1.8523
  315MOL0     H42474   0.894   6.022   6.001  0.9485  0.1500 -0.2653
  315MOL0     H42475   0.918   6.159   6.104 -2.3214  0.4872  1.5384
  315MOL0     H42476   1.064   6.031   6.349  2.3759  0.0144  1.4943
  315MOL0     H42477   1.341   6.004   6.425 -1.5985 -1.9143  1.5540
  315MOL0     H42478   1.384   5.861   6.355  0.2520 -1.6593 -1.9074
  315MOL0     H42479   1.498   5.996   6.161  2.0895 -0.2364  0.7192
  315MOL0     H42480   1.464   6.144   6.243  0.2235  0.3533 -2.0510
  315MOL0     H42481   1.616   5.905   6.388  0.2971 -0.1464  1.6364
  315MOL0     H42482   1.597   6.059   6.449 -0.2195 -0.4970  0.3471
  315MOL0     H42483   1.774   6.012   6.208  0.9290 -1.0462  0.6567
  315MOL0     H42484   1.817   6.059   6.374  0.0114  1.3216 -0.0394
  315MOL0     H42485   1.967   6.115   6.178  0.3556 -1.4364 -1.9148
  315MOL0     H42486   2.154   6.250   6.145  0.9056  1.5381 -0.6333
  315MOL0     H42487   2.389   6.336   5.880  1.1990 -0.0038 -2.8705
  315MOL0     H42488   2.580   6.424   5.753 -0.2311 -1.1762 -0.6659
  315MOL0     H42489   2.738   6.837   5.841  2.5618  0.6798  0.4529
  315MOL0     H42490   2.840   6.725   5.934 -1.5900 -1.8838 -0.4889
  315MOL0     H42491   2.964   6.676   5.745  1.0196  0.9450  3.3115
  315MOL0     H42492   2.839   6.731   5.636  0.2553  1.6874 -0.8025
  315MOL0     H42493   2.891   6.970   5.706  2.2883  2.7904 -2.3036
  315MOL0     H42494   3.039   6.908   5.790 -1.8157 -2.5068  1.6069
  315MOL0     H42495   2.985   6.860   5.488 -1.2258 -2.4550  0.6156
  315MOL0     H42496   3.119   6.793   5.591 -0.9742  0.7756  2.1523
  315MOL0     H42497   3.185   7.010   5.660 -1.5595  0.6808  1.2296
  315MOL0     H42498   3.070   7.086   5.545  2.0556  2.1787  2.4630
  315MOL0     H42499   3.327   6.918   5.513  2.2456  1.5521 -0.3247
  315MOL0     H42500   3.205   6.923   5.378  1.3817  1.5751 -1.2105
  315MOL0     H42501   3.297   7.182   5.493 -0.4098 -1.1118  0.8626
  315MOL0     H42502   3.216   7.140   5.338 -0.7474 -0.0846  0.0709
  315MOL0     H42503   3.418   7.079   5.248  1.1156 -2.4024  1.2511
  315MOL0     H42504   3.468   7.218   5.343 -0.7205 -0.3481  0.8810
  315MOL0     H42505   2.602   6.757   6.018  2.7350 -0.8499  0.6797
  315MOL0     H42506   2.418   6.672   6.143  2.0057 -1.6674  1.3819
  315MOL0     H42507   1.912   6.612   6.211  2.5097  0.5295 -1.4999
  315MOL0     H42508   1.738   6.458   6.294  0.0398 -0.7793  0.5131
  315MOL0     H42509   0.420   5.407   6.552  0.6975  0.4714  1.3732
  315MOL0     H42510   0.255   5.307   6.725 -0.9769 -1.1942 -0.5610
  315MOL0     H42511   0.086   4.972   6.803 -0.5697  1.5558 -0.2554
  315MOL0     H42512  -0.009   4.792   6.984  0.6015  0.8120  1.1319
  315MOL0     H42513  -0.408   4.896   7.146  4.0623  2.1956 -2.9785
  315MOL0     H42514  -0.391   4.722   7.197 -0.2598 -0.5036 -1.1836
  315MOL0     H42515  -0.402   4.813   6.901 -3.0616  0.1139 -0.8551
  315MOL0     H42516  -0.537   4.760   6.995  0.3052  0.2233 -2.6841
  315MOL0     H42517  -0.411   4.546   7.038 -0.9432 -1.3907  0.3035
  315MOL0     H42518  -0.272   4.610   6.948 -0.5530 -0.1656  0.0620
  315MOL0     H42519  -0.450   4.646   6.749 -0.0779  0.6922  1.1344
  315MOL0     H42520  -0.397   4.490   6.768 -0.3335  0.3732  1.1700
  315MOL0     H42521  -0.829   4.504   6.856  0.3479 -0.5906 -0.1035
  315MOL0     H42522  -0.318   5.074   7.065 -0.1404 -0.4629  0.2114
  315MOL0     H42523  -0.274   5.315   6.833 -1.6407 -1.9967 -0.6844
  315MOL0     H42524  -0.349   5.256   6.970  1.2447 -0.6894  1.2665
  315MOL0     H42525  -0.194   5.346   6.988  1.8784  0.1012 -0.8980
  316MOL0     O42526  11.087   6.422   9.037 -0.5719 -0.3604 -0.0357
  316MOL0     C42527  11.051   6.532   8.991 -0.1649 -0.4762 -0.5195
  316MOL0     O42528  11.137   6.622   8.944  0.3641 -0.1962 -0.7151
  316MOL0     C42529  11.273   6.606   8.960  0.5841 -0.0819  0.7661
  316MOL0     C42530  11.343   6.673   9.056 -0.1448 -0.3742 -0.1686
  316MOL0     C42531  11.490   6.678   9.066 -0.4125  0.9291  0.1167
  316MOL0     C42532  11.563   6.596   8.973 -0.2656 -0.1555 -0.3057
  316MOL0     O42533  11.699   6.619   8.976 -0.2935 -0.7961  0.5701
  316MOL0     C42534  11.786   6.497   8.950 -0.1377 -0.5229 -0.3763
  316MOL0     C42535  11.886   6.496   9.069 -0.0464 -0.2362  1.3219
  316MOL0     C42536  12.012   6.406   9.047  0.5731  0.0513 -0.0192
  316MOL0     C42537  12.117   6.448   8.947 -0.3629 -0.1892  0.4993
  316MOL0     C42538  12.238   6.357   8.962  0.2936 -0.9624  0.5046
  316MOL0     C42539  12.352   6.389   8.869 -1.0865 -0.2714  0.4939
  316MOL0     C42540  12.399   6.533   8.898 -0.5174 -0.2893 -0.3153
  316MOL0     C42541  12.495   6.597   8.802 -0.4447  0.0723  0.2307
  316MOL0     N42542  12.613   6.521   8.784 -0.6534  0.6791 -0.0652
  316MOL0     C42543  12.725   6.517   8.862  0.0878  0.6393  0.9193
  316MOL0     C42544  12.821   6.449   8.794 -0.1808  0.2210 -0.3625
  316MOL0     C42545  12.960   6.422   8.849 -0.7436  0.2186  0.1741
  316MOL0     C42546  13.071   6.412   8.741 -0.3509  1.1237  0.2136
  316MOL0     C42547  13.211   6.401   8.796 -0.2414  0.3848 -0.5187
  316MOL0     C42548  13.280   6.536   8.801 -0.5946 -1.0535 -0.1588
  316MOL0     O42549  13.391   6.531   8.890 -0.0569 -0.6275 -0.5059
  316MOL0     C42550  13.514   6.493   8.841 -0.7370 -0.6100 -0.5331
  316MOL0     C42551  13.613   6.459   8.936 -0.3223 -0.6477 -0.1832
  316MOL0     C42552  13.735   6.412   8.894 -0.2698 -0.0773  0.1419
  316MOL0     C42553  13.764   6.388   8.757 -0.2341 -1.1602 -0.0488
  316MOL0     C42554  13.899   6.345   8.704  0.5736  0.0675  0.0222
  316MOL0     O42555  13.927   6.340   8.567  0.5031 -0.2192  0.2024
  316MOL0     C42556  14.056   6.310   8.534  0.2688  0.0382  0.1211
  316MOL0     C42557  14.154   6.399   8.528  0.1993  0.9585 -0.4834
  316MOL0     C42558  14.284   6.351   8.498 -0.6677  0.3191  0.0809
  316MOL0     C42559  14.317   6.214   8.471  0.8991  0.0618 -0.6276
  316MOL0     O42560  14.443   6.173   8.446 -0.1834  0.2546 -0.2503
  316MOL0     C42561  14.546   6.265   8.411 -0.2165  0.0957 -0.5571
  316MOL0     C42562  14.680   6.196   8.370 -0.7427 -0.1674  0.2668
  316MOL0     C42563  14.754   6.300   8.285  0.2492 -0.2863 -0.3803
  316MOL0     C42564  14.890   6.250   8.235  0.8638  0.6561 -0.3755
  316MOL0     C42565  14.967   6.349   8.134  0.6307 -1.0950 -0.1470
  316MOL0     C42566  15.100   6.295   8.087  0.2975  0.0001  0.1549
  316MOL0     C42567  15.215   6.271   8.184 -0.4410 -0.2829 -0.2135
  316MOL0     C42568  15.327   6.197   8.114 -0.1970 -0.5651  0.0217
  316MOL0    Cl42569  15.488   6.263   8.152 -0.1378  0.3228 -0.2844
  316MOL0     C42570  14.218   6.117   8.487 -0.3458  0.9022  0.2352
  316MOL0     C42571  14.091   6.173   8.524 -0.0294  0.4788 -0.7389
  316MOL0     O42572  13.966   6.298   8.792 -0.7336 -0.1306  0.1339
  316MOL0     C42573  13.658   6.409   8.671 -0.0371 -0.3081 -0.5791
  316MOL0     C42574  13.541   6.459   8.708  0.0281 -0.0950 -0.3107
  316MOL0     N42575  12.764   6.407   8.676  0.4217  0.0196 -0.1954
  316MOL0     N42576  12.640   6.445   8.673 -0.3087  0.1880 -0.9511
  316MOL0     C42577  11.488   6.518   8.882 -0.2190 -0.6869  0.7362
  316MOL0     C42578  11.347   6.526   8.874 -0.0485  0.4589 -0.2097
  316MOL0     C42579  10.907   6.550   8.961  0.1173 -0.0167  0.8893
  316MOL0     C42580  10.872   6.660   8.878  0.4353 -0.1746  0.0655
  316MOL0     C42581  10.737   6.692   8.851 -0.0305  0.7898 -0.2601
  316MOL0     C42582  10.631   6.619   8.910  0.2030  0.1529 -0.3736
  316MOL0     O42583  10.496   6.632   8.890 -0.1916 -0.2383 -0.4405
  316MOL0     C42584  10.447   6.738   8.803 -0.0860 -0.7157  0.8356
  316MOL0     C42585  10.298   6.736   8.807 -0.2434  0.4230 -0.1119
  316MOL0     C42586  10.253   6.794   8.934 -0.5133 -0.0917  0.2260
  316MOL0     C42587  10.101   6.791   8.938  0.6905 -0.4944  0.0747
  316MOL0     C42588  10.066   6.852   9.069 -1.0933 -0.3317 -0.2922
  316MOL0     C42589  10.035   6.911   9.170 -0.3083  0.4531  0.5076
  316MOL0     C42590  10.670   6.506   8.983  0.2397  0.1556  0.3664
  316MOL0     C42591  10.803   6.478   9.018 -0.1582 -0.6169 -0.0266
  316MOL0     C42592  10.823   6.363   9.106 -0.0904  0.6309  0.2520
  316MOL0     H42593  11.276   6.735   9.114 -3.5785 -1.2784 -2.8321
  316MOL0     H42594  11.529   6.748   9.140 -0.9561  1.5285 -0.1560
  316MOL0     H42595  11.723   6.409   8.935 -1.0740  0.2271 -0.9652
  316MOL0     H42596  11.842   6.498   8.856  3.7281 -1.2482  1.6995
  316MOL0     H42597  11.835   6.453   9.156 -0.7832 -2.0055  0.0831
  316MOL0     H42598  11.911   6.601   9.086 -1.4315  0.9817 -2.9187
  316MOL0     H42599  11.983   6.301   9.034 -1.1253  0.5740 -0.6103
  316MOL0     H42600  12.056   6.419   9.146  0.6591  1.8250 -0.2629
  316MOL0     H42601  12.077   6.449   8.845  2.7695  0.2457 -0.8336
  316MOL0     H42602  12.151   6.548   8.974  3.5689 -0.6157 -2.0864
  316MOL0     H42603  12.264   6.366   9.068 -3.6799  0.5531  1.5396
  316MOL0     H42604  12.212   6.252   8.948  0.3624 -0.7814 -1.2124
  316MOL0     H42605  12.445   6.332   8.881  0.9707  2.1410 -2.4533
  316MOL0     H42606  12.315   6.385   8.766 -1.1547  2.9496  0.3103
  316MOL0     H42607  12.431   6.536   9.002  0.2999 -1.3777 -0.5222
  316MOL0     H42608  12.312   6.598   8.883 -1.5326 -1.4171  0.5673
  316MOL0     H42609  12.439   6.590   8.708 -1.1495 -0.3399  0.6787
  316MOL0     H42610  12.510   6.701   8.832  2.3637 -0.4601  0.9836
  316MOL0     H42611  12.732   6.573   8.955  0.8252  0.0978  1.2010
  316MOL0     H42612  12.984   6.487   8.934 -0.6806 -0.7948  0.9649
  316MOL0     H42613  12.952   6.320   8.889 -1.8672 -0.1013 -0.8040
  316MOL0     H42614  13.048   6.325   8.678 -2.4480  0.4403  1.8091
  316MOL0     H42615  13.077   6.500   8.676 -0.8443  2.8897  2.4253
  316MOL0     H42616  13.264   6.328   8.734 -1.5686 -0.0781 -1.1537
  316MOL0     H42617  13.209   6.365   8.899  0.9494  0.9616 -0.2768
  316MOL0     H42618  13.211   6.612   8.839 -1.8843 -0.6540 -3.0142
  316MOL0     H42619  13.306   6.565   8.699  0.5022 -2.4198 -0.2991
  316MOL0     H42620  13.598   6.482   9.041 -1.4520  0.6802 -0.6015
  316MOL0     H42621  13.805   6.403   8.977 -2.6137  0.0759  2.2794
  316MOL0     H42622  14.123   6.499   8.557  0.8221  1.2017 -0.6466
  316MOL0     H42623  14.356   6.431   8.485  3.2793 -2.5959  2.0227
  316MOL0     H42624  14.508   6.310   8.319  0.8969  0.0068 -1.0763
  316MOL0     H42625  14.559   6.346   8.482  0.1402 -0.1446 -0.3470
  316MOL0     H42626  14.747   6.170   8.452  0.4104  2.4812  0.2821
  316MOL0     H42627  14.646   6.109   8.313  0.2405 -0.0018 -0.5839
  316MOL0     H42628  14.687   6.332   8.206  0.9335 -0.9729 -1.2550
  316MOL0     H42629  14.767   6.393   8.342 -1.4610  0.2136 -0.7558
  316MOL0     H42630  14.887   6.153   8.184  2.2296 -1.0648  2.5224
  316MOL0     H42631  14.957   6.231   8.319 -1.0504 -0.0355  1.0894
  316MOL0     H42632  14.988   6.436   8.198 -0.2767 -1.3203  0.4792
  316MOL0     H42633  14.904   6.384   8.052  0.7406 -4.5503 -1.8792
  316MOL0     H42634  15.068   6.195   8.056  1.8817 -0.8386  1.0977
  316MOL0     H42635  15.143   6.354   8.005 -1.8157 -0.6464 -1.5341
  316MOL0     H42636  15.161   6.220   8.264  1.4384 -1.5029  0.3408
  316MOL0     H42637  15.244   6.371   8.219 -2.4052 -0.1876  1.2891
  316MOL0     H42638  15.325   6.095   8.154  0.5684 -2.0565 -3.3575
  316MOL0     H42639  15.303   6.189   8.007 -0.3619  1.7747 -0.1535
  316MOL0     H42640  14.242   6.012   8.485 -0.0139  0.9795 -1.9830
  316MOL0     H42641  14.005   6.110   8.542  2.3217 -1.7253  4.8802
  316MOL0     H42642  13.670   6.374   8.569 -1.4821 -0.4783 -0.7122
  316MOL0     H42643  13.464   6.475   8.633 -1.8494 -2.7523  0.8832
  316MOL0     H42644  11.548   6.473   8.803  0.5176  1.6803 -0.1523
  316MOL0     H42645  11.300   6.462   8.799  1.9892 -0.3367 -0.8640
  316MOL0     H42646  10.950   6.722   8.834 -1.6547  3.4592  1.0411
  316MOL0     H42647  10.727   6.779   8.787  3.1817  2.2119  0.9858
  316MOL0     H42648  10.469   6.716   8.698  0.8233 -0.8674  1.0502
  316MOL0     H42649  10.493   6.837   8.818  2.1781 -1.5915  0.0902
  316MOL0     H42650  10.261   6.634   8.794  3.9542 -1.3191 -0.2538
  316MOL0     H42651  10.264   6.808   8.732 -1.7838  1.2712  1.3483
  316MOL0     H42652  10.278   6.901   8.935 -0.2964 -0.0935  2.8892
  316MOL0     H42653  10.298   6.748   9.022  0.1008 -2.9926 -1.4836
  316MOL0     H42654  10.052   6.841   8.854  1.1106 -1.3194 -0.6810
  316MOL0     H42655  10.073   6.685   8.926 -1.4637 -0.0802  0.9157
  316MOL0     H42656   9.999   6.966   9.255 -2.6104  0.1736 -0.2275
  316MOL0     H42657  10.587   6.449   9.021 -2.5931  1.5396 -3.1862
  316MOL0     H42658  10.728   6.337   9.155  0.9468  1.3088  2.7687
  316MOL0     H42659  10.865   6.280   9.048 -0.1006  0.9557 -0.2298
  316MOL0     H42660  10.887   6.383   9.192 -1.9689 -2.8622  2.7168
  317MOL0     O42661  10.907   5.018   5.676  0.3956 -0.5249  0.1717
  317MOL0     C42662  10.859   5.066   5.779  0.2590 -1.0562 -0.7394
  317MOL0     O42663  10.890   5.192   5.832 -0.5341  0.2659 -0.1877
  317MOL0     C42664  11.015   5.234   5.802 -0.7528 -0.3720  0.5173
  317MOL0     C42665  11.041   5.324   5.700  0.5689 -0.2754 -0.1498
  317MOL0     C42666  11.172   5.361   5.670 -0.1781 -0.5979 -0.7677
  317MOL0     C42667  11.280   5.314   5.747 -0.2813  0.1068  0.5345
  317MOL0     O42668  11.413   5.346   5.721  0.0641 -0.6468 -0.7285
  317MOL0     C42669  11.443   5.439   5.620  0.1145  0.2189 -0.1358
  317MOL0     C42670  11.476   5.367   5.490  0.4842 -0.1771  0.1879
  317MOL0     C42671  11.481   5.461   5.364  0.3498  1.2794  0.0980
  317MOL0     C42672  11.515   5.392   5.233 -0.0608  0.5267  0.6838
  317MOL0     C42673  11.539   5.497   5.131  0.3988 -0.4625  0.7295
  317MOL0     C42674  11.595   5.448   5.001 -0.4090 -1.0167  0.1121
  317MOL0     C42675  11.607   5.554   4.895  0.0187  0.4116  0.3984
  317MOL0     C42676  11.739   5.629   4.908  0.2078 -0.8255 -0.7676
  317MOL0     N42677  11.847   5.564   4.842 -0.3082 -0.4179  0.7185
  317MOL0     C42678  11.884   5.574   4.707  0.4946 -0.4715 -0.7620
  317MOL0     C42679  11.998   5.495   4.708 -0.0598  0.4757  0.2640
  317MOL0     C42680  12.106   5.482   4.607 -0.3394  0.3986 -0.8848
  317MOL0     C42681  12.052   5.525   4.469 -0.1864  0.8319 -0.8480
  317MOL0     C42682  12.141   5.493   4.342  0.6379 -0.3363 -0.5391
  317MOL0     C42683  12.292   5.473   4.370  0.3694 -0.5669  0.1756
  317MOL0     O42684  12.355   5.592   4.417 -0.4799 -0.3852 -0.2028
  317MOL0     C42685  12.490   5.596   4.435  0.6758  1.4817  0.2094
  317MOL0     C42686  12.546   5.712   4.486 -0.2318 -0.6377 -0.0223
  317MOL0     C42687  12.678   5.720   4.516  0.2248  0.0158 -0.0346
  317MOL0     C42688  12.760   5.613   4.496 -0.2343  0.0135 -0.1287
  317MOL0     C42689  12.903   5.618   4.515  0.2563  0.1215  0.3887
  317MOL0     O42690  12.983   5.511   4.496 -0.9115  0.1866  0.7003
  317MOL0     C42691  13.121   5.529   4.540 -0.2251 -0.4116  0.6423
  317MOL0     C42692  13.207   5.576   4.442 -0.5293  0.2483  0.1252
  317MOL0     C42693  13.344   5.567   4.482  0.1909 -0.0556  0.3399
  317MOL0     C42694  13.388   5.539   4.604 -0.5159  0.2628 -0.6085
  317MOL0     O42695  13.516   5.573   4.636 -0.7367 -0.4987  0.0660
  317MOL0     C42696  13.625   5.505   4.568 -0.3735  0.0254  0.3786
  317MOL0     C42697  13.757   5.553   4.628  0.1454 -0.2334 -0.5908
  317MOL0     C42698  13.875   5.487   4.560 -0.7038 -0.4080 -0.5948
  317MOL0     C42699  14.017   5.538   4.599 -0.5825  0.4962 -0.4262
  317MOL0     C42700  14.051   5.561   4.747 -0.0285 -0.8409 -0.5996
  317MOL0     C42701  14.200   5.593   4.765  0.4145  0.2442  0.0143
  317MOL0     C42702  14.233   5.596   4.911  0.6075  0.5991  1.0659
  317MOL0     C42703  14.379   5.629   4.936  0.2428 -0.4305 -0.4556
  317MOL0    Cl42704  14.394   5.808   4.931  0.4014  0.2985 -0.1218
  317MOL0     C42705  13.300   5.506   4.705 -0.1508  0.2593  0.2256
  317MOL0     C42706  13.165   5.503   4.670  1.2250 -0.0428  0.4867
  317MOL0     O42707  12.942   5.732   4.548  0.3622  0.8173 -0.7222
  317MOL0     C42708  12.712   5.495   4.444 -0.9353  0.1234  0.0003
  317MOL0     C42709  12.577   5.490   4.413 -0.1506  1.5474 -0.4726
  317MOL0     N42710  12.008   5.424   4.828 -0.6242  0.0592 -0.2989
  317MOL0     N42711  11.924   5.477   4.907 -0.2237  0.5870 -0.7724
  317MOL0     C42712  11.247   5.238   5.854 -0.5198  0.5396  1.0354
  317MOL0     C42713  11.125   5.193   5.880 -0.0348  0.0956 -0.3982
  317MOL0     C42714  10.745   4.981   5.841  0.1251 -0.1908 -0.2127
  317MOL0     C42715  10.645   4.930   5.761  0.0590  0.2227  0.5508
  317MOL0     C42716  10.548   4.858   5.817 -0.3194  0.0605 -0.0508
  317MOL0     C42717  10.533   4.831   5.955 -0.6834 -0.2127  0.5981
  317MOL0     O42718  10.432   4.746   5.988  0.0104  0.5535 -0.2779
  317MOL0     C42719  10.389   4.744   6.124  0.6848 -0.2946 -0.3692
  317MOL0     C42720  10.251   4.675   6.131  0.6157 -0.6442 -0.1032
  317MOL0     C42721  10.143   4.757   6.051 -0.0579  0.1595 -0.2578
  317MOL0     C42722   9.998   4.704   6.075 -0.4899 -0.4398  0.0441
  317MOL0     C42723   9.952   4.731   6.215 -0.9407  0.4500  0.1920
  317MOL0     C42724   9.938   4.749   6.338  0.6639  0.3108  1.0811
  317MOL0     C42725  10.630   4.901   6.036 -0.1484  0.5875  0.2597
  317MOL0     C42726  10.741   4.972   5.977  0.6490  0.4399 -0.2489
  317MOL0     C42727  10.825   5.036   6.080 -0.0093 -0.0313 -0.7507
  317MOL0     H42728  10.958   5.365   5.644  3.0054  3.3815 -1.4297
  317MOL0     H42729  11.187   5.431   5.588  0.7393  0.1494  0.0274
  317MOL0     H42730  11.362   5.512   5.608  1.1503  1.8294  2.0470
  317MOL0     H42731  11.526   5.494   5.665  0.5175 -1.2058  0.9197
  317MOL0     H42732  11.396   5.294   5.475 -0.5409  0.3146  2.8473
  317MOL0     H42733  11.575   5.319   5.490  1.4010  1.6225 -0.4052
  317MOL0     H42734  11.557   5.540   5.376  0.0712  1.2708  2.3333
  317MOL0     H42735  11.381   5.504   5.359 -0.2678  0.1211  1.9740
  317MOL0     H42736  11.606   5.330   5.237 -0.7126 -0.4578  0.8050
  317MOL0     H42737  11.434   5.319   5.222  0.8925 -0.3506 -0.9385
  317MOL0     H42738  11.437   5.533   5.115  0.6612  0.6627  1.4536
  317MOL0     H42739  11.597   5.578   5.177  4.4450 -2.3893 -0.5183
  317MOL0     H42740  11.693   5.404   5.021 -0.9121 -2.5490 -0.6351
  317MOL0     H42741  11.531   5.365   4.970 -3.1060  0.6968  0.7826
  317MOL0     H42742  11.519   5.619   4.894 -0.3910 -0.1408 -0.3629
  317MOL0     H42743  11.608   5.506   4.797  1.6857  4.0030 -1.5475
  317MOL0     H42744  11.716   5.722   4.854 -0.6732 -0.6477 -0.1263
  317MOL0     H42745  11.768   5.648   5.012 -0.5053 -1.3612 -0.4598
  317MOL0     H42746  11.858   5.637   4.622  0.2636 -1.2119 -1.2527
  317MOL0     H42747  12.188   5.547   4.637  0.5603 -1.7734  1.7186
  317MOL0     H42748  12.140   5.378   4.600  1.0159  0.8252 -0.7605
  317MOL0     H42749  11.947   5.496   4.458  0.3570 -2.6938  1.3340
  317MOL0     H42750  12.051   5.634   4.469 -2.6162  0.8716 -1.7295
  317MOL0     H42751  12.139   5.580   4.276  1.2489  0.2427  0.1894
  317MOL0     H42752  12.105   5.409   4.283 -0.1912 -0.1912 -0.2448
  317MOL0     H42753  12.327   5.440   4.271  0.4450  3.0476 -1.1324
  317MOL0     H42754  12.306   5.396   4.447  0.6925  0.0205  0.7136
  317MOL0     H42755  12.486   5.796   4.518 -1.3607 -2.2159  2.2560
  317MOL0     H42756  12.709   5.810   4.569 -2.7153  1.2230 -0.2196
  317MOL0     H42757  13.183   5.596   4.338  1.6073  0.3531 -0.4066
  317MOL0     H42758  13.415   5.601   4.407 -0.4490 -0.6493 -0.5611
  317MOL0     H42759  13.614   5.397   4.585 -0.4511  0.1438  1.1075
  317MOL0     H42760  13.623   5.525   4.460  0.6283  0.8675  0.5025
  317MOL0     H42761  13.759   5.661   4.616  0.3860 -0.0105  1.1488
  317MOL0     H42762  13.766   5.534   4.736 -0.1105 -0.5721 -0.6276
  317MOL0     H42763  13.876   5.386   4.600 -0.6670  0.0023  0.4704
  317MOL0     H42764  13.862   5.488   4.451 -0.8840 -0.0814 -0.5718
  317MOL0     H42765  14.032   5.634   4.548  2.7191 -0.2532 -1.1163
  317MOL0     H42766  14.090   5.468   4.556 -0.3671  0.8530 -0.6407
  317MOL0     H42767  14.022   5.470   4.800  0.9614  0.0151  1.5436
  317MOL0     H42768  14.002   5.655   4.777  0.2124 -0.4188 -1.4915
  317MOL0     H42769  14.263   5.518   4.717  0.3584 -1.2146  2.1083
  317MOL0     H42770  14.227   5.692   4.726  1.5034 -0.9094 -2.3819
  317MOL0     H42771  14.213   5.496   4.953 -1.6885  0.9833  1.0153
  317MOL0     H42772  14.167   5.669   4.958 -0.2034  0.5234  0.0497
  317MOL0     H42773  14.408   5.606   5.039  0.3521 -0.0781 -0.4081
  317MOL0     H42774  14.451   5.591   4.863  1.1549  0.2127  0.0892
  317MOL0     H42775  13.346   5.496   4.803 -2.8545  0.5021  1.6278
  317MOL0     H42776  13.080   5.482   4.735 -0.4386 -0.4818 -1.7208
  317MOL0     H42777  12.772   5.405   4.441  1.0627  1.4187 -0.8149
  317MOL0     H42778  12.538   5.391   4.392  4.4121 -0.8266  0.9390
  317MOL0     H42779  11.338   5.207   5.905 -0.3824 -1.0742 -0.0915
  317MOL0     H42780  11.109   5.117   5.956  0.9470  0.1627 -0.1111
  317MOL0     H42781  10.647   4.937   5.653  1.5990  0.0671  0.5460
  317MOL0     H42782  10.491   4.797   5.748  2.3474 -0.9382 -1.5462
  317MOL0     H42783  10.384   4.845   6.166  4.7503 -0.3370  0.7069
  317MOL0     H42784  10.453   4.687   6.193 -1.5408 -1.1901  1.0769
  317MOL0     H42785  10.219   4.670   6.235 -0.2985 -0.2906 -0.3563
  317MOL0     H42786  10.268   4.576   6.088  0.7746 -1.0133  0.7843
  317MOL0     H42787  10.164   4.754   5.944  0.1334  0.5907 -0.2359
  317MOL0     H42788  10.138   4.861   6.083 -2.8349 -0.1948  0.7277
  317MOL0     H42789   9.936   4.748   5.995 -0.3189 -0.3417 -0.0342
  317MOL0     H42790   9.996   4.594   6.071 -2.0776 -0.4633  0.5273
  317MOL0     H42791   9.938   4.778   6.441  2.4870  0.8193  0.9790
  317MOL0     H42792  10.613   4.886   6.142 -1.7628  1.1493  0.1175
  317MOL0     H42793  10.932   5.024   6.063  0.2611  3.6224 -2.6126
  317MOL0     H42794  10.811   5.145   6.088 -1.5341 -0.3290  1.5952
  317MOL0     H42795  10.803   4.991   6.177 -2.2205  0.4260 -0.9856
  318MOL0     O42796   2.625  10.592   6.780  0.1316  0.4609 -0.2865
  318MOL0     C42797   2.592  10.635   6.672 -0.1719 -0.6928  0.8927
  318MOL0     O42798   2.636  10.752   6.612 -0.6355  0.4546  0.1347
  318MOL0     C42799   2.752  10.823   6.651 -0.0034  0.4536 -0.3288
  318MOL0     C42800   2.831  10.806   6.761 -0.0911 -0.8762  0.0528
  318MOL0     C42801   2.945  10.885   6.782 -0.4769 -0.5849 -0.3408
  318MOL0     C42802   2.984  10.975   6.691 -0.4335 -0.2208 -0.3609
  318MOL0     O42803   3.083  11.062   6.735 -0.2737 -0.1167  0.2023
  318MOL0     C42804   3.192  11.079   6.643  0.2323 -0.3755  0.4841
  318MOL0     C42805   3.305  11.166   6.708 -0.6006  0.5488  1.2510
  318MOL0     C42806   3.376  11.092   6.822  0.0942  0.0751  0.5991
  318MOL0     C42807   3.521  11.063   6.778 -0.5751 -0.0787 -0.4328
  318MOL0     C42808   3.608  11.048   6.899 -0.6666  0.0691  0.2507
  318MOL0     C42809   3.743  10.980   6.869 -0.4434  0.3112  0.3739
  318MOL0     C42810   3.833  11.073   6.779 -0.2496  0.4389  0.8410
  318MOL0     C42811   3.949  10.984   6.720  0.4186  0.4768 -0.7846
  318MOL0     N42812   4.048  10.938   6.814 -0.8531  0.6117  0.2107
  318MOL0     C42813   4.178  10.933   6.790  0.0009  0.4135  0.4446
  318MOL0     C42814   4.231  10.856   6.893  0.3328 -0.5033 -0.3694
  318MOL0     C42815   4.378  10.839   6.906  0.3865  0.1710  0.9437
  318MOL0     C42816   4.417  10.795   7.047  0.0205  0.7556  0.2995
  318MOL0     C42817   4.567  10.798   7.062 -1.0882  0.6915  0.8057
  318MOL0     C42818   4.603  10.776   7.206 -0.7589 -0.3888 -0.5636
  318MOL0     O42819   4.576  10.893   7.288  0.3633  0.1198  0.7908
  318MOL0     C42820   4.602  10.865   7.422  0.2848 -0.3211  0.1674
  318MOL0     C42821   4.728  10.881   7.479 -0.1014 -0.3990  0.2371
  318MOL0     C42822   4.762  10.849   7.606 -0.7364 -0.0216 -0.7183
  318MOL0     C42823   4.668  10.791   7.690 -0.2219 -0.5166  0.4666
  318MOL0     C42824   4.704  10.755   7.833 -0.5222 -0.4254  0.3547
  318MOL0     O42825   4.840  10.737   7.859 -0.1552 -0.5368  0.1547
  318MOL0     C42826   4.903  10.719   7.986 -0.0502 -0.5563  0.0388
  318MOL0     C42827   4.838  10.711   8.107 -0.4018 -0.2872  0.3634
  318MOL0     C42828   4.911  10.712   8.226 -0.3704  0.0764  0.5439
  318MOL0     C42829   5.045  10.683   8.219  0.2710 -0.1568 -0.5305
  318MOL0     O42830   5.120  10.657   8.330  0.1405 -0.0830  0.0906
  318MOL0     C42831   5.053  10.573   8.433 -0.4276 -0.0388 -0.0339
  318MOL0     C42832   5.045  10.646   8.572  1.2059 -0.7553  0.1722
  318MOL0     C42833   4.946  10.579   8.673  0.2724 -0.5831  0.7451
  318MOL0     C42834   4.795  10.589   8.646  0.6962  0.5297  1.0963
  318MOL0     C42835   4.733  10.724   8.633 -1.2432  0.0925 -0.0857
  318MOL0     C42836   4.576  10.727   8.611 -0.1362  0.6000  0.5238
  318MOL0     C42837   4.528  10.871   8.624 -0.2393 -0.6703 -0.1773
  318MOL0     C42838   4.379  10.918   8.594  0.6876 -0.9307 -0.5516
  318MOL0    Cl42839   4.275  10.864   8.724  0.3085 -0.2703  0.3797
  318MOL0     C42840   5.113  10.679   8.097 -0.5861 -0.5353  0.4679
  318MOL0     C42841   5.041  10.697   7.976  0.2330 -0.0260 -0.3443
  318MOL0     O42842   4.613  10.750   7.913 -0.5042  0.2640  1.0813
  318MOL0     C42843   4.536  10.774   7.637 -0.0033 -0.0780  0.0893
  318MOL0     C42844   4.510  10.807   7.507 -0.4537 -0.3110 -0.4954
  318MOL0     N42845   4.128  10.823   6.979  0.2796  0.7206  0.5543
  318MOL0     N42846   4.020  10.869   6.926 -0.7001 -0.2911 -0.5929
  318MOL0     C42847   2.917  10.997   6.575 -0.5217  0.2662  0.4196
  318MOL0     C42848   2.801  10.919   6.556 -0.1898 -0.3440  0.3444
  318MOL0     C42849   2.479  10.556   6.596 -0.8857  0.5761  0.1477
  318MOL0     C42850   2.467  10.590   6.457 -0.5931  0.2680 -0.2599
  318MOL0     C42851   2.399  10.504   6.372 -0.1706 -0.9273 -0.0696
  318MOL0     C42852   2.322  10.397   6.419 -0.0394 -0.0027 -0.4036
  318MOL0     O42853   2.251  10.334   6.322  0.2472 -0.0075 -0.2866
  318MOL0     C42854   2.143  10.250   6.363 -0.3399 -0.2565 -0.8321
  318MOL0     C42855   2.079  10.182   6.233 -0.0437 -0.3210 -0.3991
  318MOL0     C42856   1.991  10.268   6.142 -0.5092 -0.2854  0.0979
  318MOL0     C42857   1.857  10.297   6.202 -0.0029  0.5973 -0.6435
  318MOL0     C42858   1.760  10.190   6.198  1.4277 -0.9672 -0.4071
  318MOL0     C42859   1.675  10.104   6.182 -0.4904 -0.1603  0.2871
  318MOL0     C42860   2.321  10.370   6.561 -0.2413 -0.2497 -0.5461
  318MOL0     C42861   2.393  10.449   6.645 -0.1458 -0.2361  0.2250
  318MOL0     C42862   2.380  10.420   6.795  1.0648 -0.0538 -0.0873
  318MOL0     H42863   2.803  10.729   6.832  0.9605  0.1721  1.6696
  318MOL0     H42864   3.000  10.866   6.874  0.2362 -2.2246 -1.0743
  318MOL0     H42865   3.224  10.980   6.610  0.6820  0.1766 -0.7899
  318MOL0     H42866   3.151  11.128   6.554  0.2461 -2.6552 -0.8434
  318MOL0     H42867   3.256  11.255   6.748 -1.3097  0.4559  0.6138
  318MOL0     H42868   3.380  11.191   6.632 -1.0151 -0.3979  0.4976
  318MOL0     H42869   3.325  10.996   6.836 -1.7534  0.8171 -0.7076
  318MOL0     H42870   3.359  11.146   6.916 -2.6747 -0.4500  0.4828
  318MOL0     H42871   3.529  10.978   6.710 -3.1593  0.9787 -2.2346
  318MOL0     H42872   3.560  11.144   6.715  0.7476 -1.3691 -1.3435
  318MOL0     H42873   3.619  11.153   6.925 -3.6115  0.1332  1.6801
  318MOL0     H42874   3.549  10.993   6.974 -1.8380 -0.4421 -0.9855
  318MOL0     H42875   3.792  10.989   6.966  1.9660 -0.5543 -0.6848
  318MOL0     H42876   3.735  10.881   6.823  0.2086 -0.2006  1.3480
  318MOL0     H42877   3.874  11.150   6.846 -1.9280  0.7449  1.5698
  318MOL0     H42878   3.792  11.121   6.690  0.7639  0.1999  0.2379
  318MOL0     H42879   3.907  10.903   6.660 -0.3187 -0.9605  1.5601
  318MOL0     H42880   4.004  11.044   6.646 -0.0280  1.0295 -0.6790
  318MOL0     H42881   4.226  10.985   6.708  0.7893  2.5339  2.1443
  318MOL0     H42882   4.410  10.767   6.831 -0.7812 -1.8185  2.2415
  318MOL0     H42883   4.428  10.935   6.893  1.4978 -0.5256 -0.0765
  318MOL0     H42884   4.371  10.860   7.122  1.1279  1.1503  0.6704
  318MOL0     H42885   4.377  10.694   7.055  0.2175  0.8043  2.3538
  318MOL0     H42886   4.601  10.892   7.016  0.0992 -0.0225  0.1845
  318MOL0     H42887   4.621  10.725   7.001  1.1219  3.7673 -1.2499
  318MOL0     H42888   4.711  10.762   7.213 -0.4133  1.6886 -0.9409
  318MOL0     H42889   4.557  10.683   7.240  0.5058 -1.8287 -2.6057
  318MOL0     H42890   4.796  10.917   7.402  0.7019  2.1503  1.9988
  318MOL0     H42891   4.862  10.880   7.633 -1.6500  0.0992  3.1377
  318MOL0     H42892   4.735  10.743   8.121  0.4657  2.3519  1.2750
  318MOL0     H42893   4.856  10.706   8.319 -0.8007 -1.5178  0.2278
  318MOL0     H42894   4.959  10.538   8.391  0.4625 -0.0705 -2.1168
  318MOL0     H42895   5.114  10.484   8.454  2.6803  1.9293  0.0268
  318MOL0     H42896   5.142  10.649   8.624 -0.2383 -2.2021  3.2200
  318MOL0     H42897   5.010  10.749   8.558  2.1230  0.2316  3.9276
  318MOL0     H42898   4.977  10.476   8.691  1.2125 -0.2561  1.0459
  318MOL0     H42899   4.967  10.631   8.767 -1.5082  2.2151 -0.2420
  318MOL0     H42900   4.760  10.540   8.737 -1.8440 -1.0911 -0.6491
  318MOL0     H42901   4.768  10.527   8.560  0.4324 -1.3335  2.4484
  318MOL0     H42902   4.789  10.771   8.552 -4.1826  2.1094 -1.1243
  318MOL0     H42903   4.760  10.785   8.720 -1.3551  2.6592 -1.7417
  318MOL0     H42904   4.542  10.682   8.518 -1.5317 -2.6172  2.3880
  318MOL0     H42905   4.524  10.673   8.692 -1.5128 -1.4368 -1.5945
  318MOL0     H42906   4.590  10.930   8.556  1.3852 -0.2664  1.5895
  318MOL0     H42907   4.559  10.911   8.720  2.1990 -0.3153 -1.0183
  318MOL0     H42908   4.370  11.027   8.584  2.2154 -0.9518 -2.7058
  318MOL0     H42909   4.343  10.875   8.500 -3.3654  0.9270 -0.0976
  318MOL0     H42910   5.220  10.671   8.084 -0.5235  2.4598 -1.7349
  318MOL0     H42911   5.093  10.693   7.881  1.3071 -2.0363  0.2648
  318MOL0     H42912   4.458  10.735   7.702  0.1293 -2.4145 -1.0299
  318MOL0     H42913   4.410  10.786   7.471 -0.6167 -0.2390 -0.0920
  318MOL0     H42914   2.954  11.076   6.510  0.0963 -0.6973 -0.4254
  318MOL0     H42915   2.745  10.945   6.466 -0.8754  0.6117  1.0269
  318MOL0     H42916   2.519  10.674   6.411 -1.8315  0.3630 -1.5455
  318MOL0     H42917   2.394  10.526   6.266 -0.9329 -0.9868 -0.0519
  318MOL0     H42918   2.073  10.310   6.421 -1.3141  0.8293 -3.0265
  318MOL0     H42919   2.178  10.168   6.428  2.3638  1.8490  0.6098
  318MOL0     H42920   2.023  10.098   6.276  1.1325 -0.9878 -0.1004
  318MOL0     H42921   2.164  10.152   6.171  1.5843  3.3920 -0.2578
  318MOL0     H42922   1.983  10.222   6.043 -1.3046  1.5888 -0.7599
  318MOL0     H42923   2.039  10.365   6.125  0.2246 -0.1986  2.3997
  318MOL0     H42924   1.867  10.340   6.302  0.7832  2.8472 -1.6332
  318MOL0     H42925   1.820  10.374   6.134 -0.7967 -0.7308 -1.7552
  318MOL0     H42926   1.603  10.025   6.175 -0.0792 -0.6872  1.5710
  318MOL0     H42927   2.265  10.290   6.608 -0.1653  0.8397  1.5380
  318MOL0     H42928   2.442  10.336   6.828 -1.3458 -1.8576  0.1247
  318MOL0     H42929   2.404  10.510   6.852 -0.4745  1.3262 -1.5225
  318MOL0     H42930   2.275  10.401   6.819  0.5906  2.5708  0.2369
  319MOL0     O42931   1.225   5.417   9.044  0.0705  0.2656 -0.0547
  319MOL0     C42932   1.124   5.452   9.109  0.0924  0.5028 -0.6969
  319MOL0     O42933   1.111   5.554   9.201 -0.1373  0.1401 -0.4558
  319MOL0     C42934   1.217   5.645   9.214 -0.7486  0.3103  0.7578
  319MOL0     C42935   1.229   5.749   9.127 -0.9446 -0.6294  0.6951
  319MOL0     C42936   1.346   5.829   9.121 -0.0264 -0.5718 -0.1019
  319MOL0     C42937   1.450   5.810   9.206 -0.1877 -0.5887 -0.8218
  319MOL0     O42938   1.569   5.885   9.199  0.7543 -0.3016  0.3305
  319MOL0     C42939   1.608   5.929   9.065  0.2672  0.7590 -0.7866
  319MOL0     C42940   1.760   5.957   9.071  0.4744  0.3275  0.7959
  319MOL0     C42941   1.801   5.968   8.925 -0.2287 -0.2321  0.1789
  319MOL0     C42942   1.946   6.015   8.930 -1.3231  0.2032 -0.0692
  319MOL0     C42943   2.010   6.008   8.792 -0.6437  0.1734  0.1809
  319MOL0     C42944   2.153   6.063   8.785  1.0160  0.4155 -0.1800
  319MOL0     C42945   2.259   5.969   8.859  0.2389 -0.8843 -0.3776
  319MOL0     C42946   2.404   5.975   8.807  0.1633  0.1655  0.3449
  319MOL0     N42947   2.417   5.927   8.672 -0.3978  0.4719 -0.2615
  319MOL0     C42948   2.430   5.797   8.627 -0.1629  0.4003 -0.6285
  319MOL0     C42949   2.435   5.816   8.491  1.0686  0.0292 -1.0586
  319MOL0     C42950   2.431   5.699   8.397 -0.3695 -0.2118 -0.0213
  319MOL0     C42951   2.578   5.640   8.389 -0.3083  0.4760  0.0887
  319MOL0     C42952   2.683   5.740   8.375 -0.0026  0.2559 -0.1185
  319MOL0     C42953   2.820   5.677   8.368 -0.0132  1.2021  0.3636
  319MOL0     O42954   2.929   5.768   8.370  0.5278 -0.2620 -0.2617
  319MOL0     C42955   3.055   5.719   8.370 -0.7054 -0.1968  0.2647
  319MOL0     C42956   3.168   5.805   8.378 -0.2352 -0.0683 -0.9318
  319MOL0     C42957   3.302   5.753   8.371 -0.0362 -0.1237 -0.6733
  319MOL0     C42958   3.326   5.618   8.345  0.8491  0.4976 -1.3668
  319MOL0     C42959   3.454   5.574   8.328 -0.4207 -0.1623 -0.0856
  319MOL0     O42960   3.470   5.438   8.316 -0.0300  0.0811  0.3793
  319MOL0     C42961   3.597   5.390   8.294  0.7820 -0.1149 -0.2376
  319MOL0     C42962   3.669   5.336   8.402 -0.6304 -0.1645 -0.1126
  319MOL0     C42963   3.798   5.284   8.379  0.0989  0.4513  0.2932
  319MOL0     C42964   3.854   5.287   8.255 -0.1630 -0.1917  0.8136
  319MOL0     O42965   3.966   5.212   8.221  0.1306  0.2641 -0.6792
  319MOL0     C42966   3.971   5.170   8.084 -1.2510 -0.1645  0.6162
  319MOL0     C42967   4.077   5.067   8.065  0.1905  0.3593  0.2332
  319MOL0     C42968   4.214   5.127   8.095  0.7623 -0.2689 -0.5945
  319MOL0     C42969   4.321   5.014   8.095  0.0661  0.0844  0.4077
  319MOL0     C42970   4.456   5.056   8.166  0.2093 -0.3818 -0.3752
  319MOL0     C42971   4.552   4.946   8.161  0.1412 -0.5156  0.7381
  319MOL0     C42972   4.672   5.007   8.237  1.0832 -0.4722 -0.2249
  319MOL0     C42973   4.771   4.898   8.262 -0.1867  0.2336 -0.4332
  319MOL0    Cl42974   4.924   4.983   8.299 -0.0321 -0.0120 -0.0359
  319MOL0     C42975   3.773   5.339   8.149 -0.2638  0.1784 -0.0594
  319MOL0     C42976   3.646   5.400   8.175 -0.6504 -0.4645  0.6753
  319MOL0     O42977   3.541   5.657   8.309 -0.9259  0.3479 -0.5971
  319MOL0     C42978   3.211   5.539   8.327 -0.5206  0.1434 -0.3594
  319MOL0     C42979   3.082   5.583   8.345  0.0345 -0.2087 -0.7305
  319MOL0     N42980   2.427   5.953   8.464 -0.5779  0.6117 -0.2321
  319MOL0     N42981   2.420   6.020   8.573 -0.9467 -0.1537  0.2891
  319MOL0     C42982   1.438   5.705   9.295 -0.7878 -0.2351  0.0668
  319MOL0     C42983   1.327   5.623   9.298  0.4439  0.4712  0.4765
  319MOL0     C42984   0.997   5.386   9.079  0.5309 -0.3720 -0.7969
  319MOL0     C42985   0.889   5.469   9.072  0.1146 -0.4956 -0.3067
  319MOL0     C42986   0.764   5.413   9.048  0.3589 -0.8221  0.5860
  319MOL0     C42987   0.750   5.274   9.033 -0.1577  0.5018  0.4046
  319MOL0     O42988   0.619   5.237   9.017  0.1709  0.2380  0.3482
  319MOL0     C42989   0.599   5.107   9.056 -0.4918 -0.2270 -0.2791
  319MOL0     C42990   0.455   5.100   9.110 -0.4347 -0.2084  0.5971
  319MOL0     C42991   0.426   4.960   9.172 -0.1423 -0.4952 -0.3990
  319MOL0     C42992   0.289   4.968   9.230  0.5510 -0.5036  0.1405
  319MOL0     C42993   0.218   4.844   9.271  0.1046  0.1440  0.5500
  319MOL0     C42994   0.167   4.733   9.294  0.6727 -0.7794  0.1702
  319MOL0     C42995   0.859   5.190   9.043 -0.3954  0.2293  0.1982
  319MOL0     C42996   0.989   5.245   9.052 -0.4460 -0.4093  0.2442
  319MOL0     C42997   1.109   5.153   9.041 -0.0681  0.5264  0.5120
  319MOL0     H42998   1.155   5.763   9.049  0.7007 -0.5733 -0.9408
  319MOL0     H42999   1.347   5.912   9.051 -0.4231 -0.1805  0.3419
  319MOL0     H43000   1.579   5.849   8.996 -0.0537  1.9744 -2.1240
  319MOL0     H43001   1.555   6.016   9.025 -1.8226 -0.0973  0.0003
  319MOL0     H43002   1.812   5.870   9.113  1.5635 -0.1851 -1.4811
  319MOL0     H43003   1.782   6.042   9.137  1.2981 -1.0844  2.4314
  319MOL0     H43004   1.747   6.048   8.874  1.3461 -0.4782 -2.0768
  319MOL0     H43005   1.792   5.866   8.885 -3.5671  0.1224 -0.2175
  319MOL0     H43006   1.951   6.111   8.982  0.9656  0.5128 -0.7539
  319MOL0     H43007   2.001   5.948   8.997  2.3622  1.1219 -1.9477
  319MOL0     H43008   2.007   5.907   8.749  0.1479  1.2192 -2.5842
  319MOL0     H43009   1.944   6.068   8.729 -1.2571 -0.5273  0.1405
  319MOL0     H43010   2.183   6.059   8.680  1.1171 -1.5025 -0.1267
  319MOL0     H43011   2.143   6.162   8.829 -0.7679  0.4841 -0.6608
  319MOL0     H43012   2.219   5.868   8.861 -2.0262 -0.0408  1.0113
  319MOL0     H43013   2.260   6.003   8.963  2.1026  1.3619 -1.0286
  319MOL0     H43014   2.458   6.069   8.819  3.2499 -1.7765  4.0285
  319MOL0     H43015   2.466   5.906   8.866 -0.1706 -0.2544  0.2094
  319MOL0     H43016   2.424   5.699   8.673  0.8998 -0.2022 -1.7174
  319MOL0     H43017   2.368   5.620   8.440  0.4904 -0.5212  0.7124
  319MOL0     H43018   2.389   5.726   8.300 -2.9201 -1.8833  0.5081
  319MOL0     H43019   2.598   5.592   8.486 -0.8238 -0.2581 -0.1523
  319MOL0     H43020   2.572   5.562   8.312 -1.7969  2.1931 -1.6600
  319MOL0     H43021   2.685   5.796   8.469 -1.4852  0.7463 -0.3448
  319MOL0     H43022   2.665   5.816   8.298 -1.5781 -0.0641 -0.1139
  319MOL0     H43023   2.817   5.623   8.273 -2.1289  1.1562  0.4090
  319MOL0     H43024   2.838   5.604   8.448  1.1888  1.2063  0.1179
  319MOL0     H43025   3.151   5.909   8.401  0.2213 -0.0170 -0.8136
  319MOL0     H43026   3.383   5.817   8.404 -2.7757  2.0646  2.3210
  319MOL0     H43027   3.621   5.346   8.498  0.6164 -1.6151  0.6984
  319MOL0     H43028   3.851   5.238   8.462  1.6898  0.4364 -0.6941
  319MOL0     H43029   3.879   5.122   8.048  0.0265 -1.4901 -1.0663
  319MOL0     H43030   3.992   5.258   8.022 -0.3649  0.2015  1.4273
  319MOL0     H43031   4.049   4.985   8.132 -3.3072  1.9781  0.9507
  319MOL0     H43032   4.076   5.028   7.963  1.1496  1.7462 -0.3402
  319MOL0     H43033   4.241   5.210   8.029  0.8059  1.7089  1.7722
  319MOL0     H43034   4.209   5.165   8.197 -1.0844  1.5728 -1.2927
  319MOL0     H43035   4.345   4.986   7.992  1.0129  0.9028  0.3870
  319MOL0     H43036   4.283   4.924   8.144  0.8435  0.1949  1.2592
  319MOL0     H43037   4.430   5.088   8.267  1.6065 -1.8963  0.5088
  319MOL0     H43038   4.498   5.143   8.114 -1.1254 -1.1548 -2.9320
  319MOL0     H43039   4.503   4.859   8.207  0.2911 -0.0146  1.8823
  319MOL0     H43040   4.575   4.912   8.060 -0.6414  0.9473  0.0275
  319MOL0     H43041   4.648   5.066   8.326  1.4872 -0.8676  0.1499
  319MOL0     H43042   4.722   5.076   8.168 -0.2680  1.9097  1.0516
  319MOL0     H43043   4.728   4.840   8.344 -0.1556  0.1227 -0.4947
  319MOL0     H43044   4.775   4.834   8.173 -1.6698  0.9394 -1.0500
  319MOL0     H43045   3.815   5.360   8.051  1.5574  0.7236  0.7933
  319MOL0     H43046   3.598   5.450   8.091 -1.6081 -1.1793  0.7812
  319MOL0     H43047   3.232   5.440   8.286  1.1430  0.9098 -1.4806
  319MOL0     H43048   2.996   5.519   8.328  0.4566 -0.6955 -1.0808
  319MOL0     H43049   1.526   5.692   9.356  1.0001  0.7071 -2.1873
  319MOL0     H43050   1.317   5.543   9.370  0.4151  1.5500  1.7079
  319MOL0     H43051   0.888   5.572   9.106 -1.3748 -0.7421  0.4965
  319MOL0     H43052   0.668   5.465   9.046  0.5648 -0.3797  1.5941
  319MOL0     H43053   0.660   5.072   9.140  1.9702 -5.4545 -3.7215
  319MOL0     H43054   0.618   5.040   8.972  0.3038  0.2259 -0.4653
  319MOL0     H43055   0.395   5.125   9.022 -0.6683 -0.0935  0.7871
  319MOL0     H43056   0.453   5.185   9.179 -0.5555 -0.8409  1.3875
  319MOL0     H43057   0.498   4.928   9.248 -0.1135 -0.1416 -0.2763
  319MOL0     H43058   0.427   4.875   9.103  1.7235 -1.4441  0.6984
  319MOL0     H43059   0.292   5.034   9.317  0.3659 -1.7317  1.1146
  319MOL0     H43060   0.224   5.026   9.165  1.5387  1.3433  0.7359
  319MOL0     H43061   0.111   4.645   9.320 -0.3097 -0.6186 -1.2780
  319MOL0     H43062   0.846   5.084   9.028  3.8675 -0.5606  0.6521
  319MOL0     H43063   1.187   5.197   8.977  1.7029  0.0455  2.2294
  319MOL0     H43064   1.151   5.142   9.141  0.2421  0.7115  0.4042
  319MOL0     H43065   1.075   5.053   9.012 -2.3257  1.5161 -0.4513
  320MOL0     O43066   0.129   3.704   8.050 -0.9947  0.2608 -0.5282
  320MOL0     C43067   0.118   3.817   8.099 -0.0429  0.2437  1.0712
  320MOL0     O43068   0.010   3.888   8.136  0.8747  0.3778 -0.5054
  320MOL0     C43069  -0.109   3.839   8.095  0.2849 -0.1143  1.8180
  320MOL0     C43070  -0.154   3.897   7.975 -0.2619 -0.0198  0.8845
  320MOL0     C43071  -0.276   3.855   7.923 -0.0990 -0.0131  0.3363
  320MOL0     C43072  -0.359   3.766   7.999 -0.7456  0.4796  0.3775
  320MOL0     O43073  -0.475   3.733   7.940  0.0294  0.1524  0.7514
  320MOL0     C43074  -0.553   3.630   7.998  0.4645 -0.6847  0.0315
  320MOL0     C43075  -0.692   3.631   7.935  0.0282  0.0471  0.0659
  320MOL0     C43076  -0.754   3.765   7.955 -0.1169 -0.5027  0.4909
  320MOL0     C43077  -0.904   3.759   7.920  0.5365  0.8945 -0.6015
  320MOL0     C43078  -0.985   3.883   7.971  0.0503  0.0964  0.2944
  320MOL0     C43079  -1.131   3.868   7.972 -0.0152 -0.4366  0.2770
  320MOL0     C43080  -1.195   4.008   8.004  0.6473  0.0384  0.6879
  320MOL0     C43081  -1.350   3.988   8.012 -0.9432 -0.1825 -0.4204
  320MOL0     N43082  -1.414   4.115   8.029  0.5462 -0.3922 -0.3350
  320MOL0     C43083  -1.384   4.211   8.117  0.5776 -0.5985 -0.7355
  320MOL0     C43084  -1.451   4.321   8.071 -0.4524  0.3499  0.3026
  320MOL0     C43085  -1.423   4.451   8.122  1.1718 -0.2711  0.0245
  320MOL0     C43086  -1.332   4.529   8.032 -0.2821 -0.5918  0.1714
  320MOL0     C43087  -1.192   4.467   8.004  0.0716  0.1313  0.4395
  320MOL0     C43088  -1.082   4.563   7.944 -0.7773 -0.1378  0.3008
  320MOL0     O43089  -0.973   4.474   7.904  0.2582 -0.5114 -0.6701
  320MOL0     C43090  -0.861   4.541   7.860 -0.1873  0.2559 -0.3367
  320MOL0     C43091  -0.755   4.462   7.809 -0.1582  0.2818  0.3358
  320MOL0     C43092  -0.628   4.511   7.770  0.1097  0.1174  0.1397
  320MOL0     C43093  -0.608   4.653   7.759  0.9569  0.5042 -0.1813
  320MOL0     C43094  -0.475   4.708   7.726 -0.3040  0.1403 -0.1714
  320MOL0     O43095  -0.388   4.622   7.663  0.6120 -0.5645  0.1074
  320MOL0     C43096  -0.269   4.676   7.618 -0.1842 -0.6137 -0.4399
  320MOL0     C43097  -0.168   4.699   7.708 -0.6026 -0.4263  0.0694
  320MOL0     C43098  -0.032   4.723   7.654  0.8760  0.1873 -0.5221
  320MOL0     C43099  -0.003   4.715   7.512  0.2247  0.2691 -1.0333
  320MOL0     O43100   0.131   4.745   7.480  0.3612 -0.6106 -0.5409
  320MOL0     C43101   0.183   4.661   7.384  0.5618 -0.0816 -0.0359
  320MOL0     C43102   0.314   4.709   7.341  0.0488 -0.0483  0.4508
  320MOL0     C43103   0.412   4.739   7.457 -0.1277  0.2403 -0.1757
  320MOL0     C43104   0.463   4.601   7.519 -0.0177 -0.7596  0.1960
  320MOL0     C43105   0.555   4.630   7.638  0.5604 -1.4741  0.3942
  320MOL0     C43106   0.494   4.712   7.751 -0.3823 -0.2508 -0.1278
  320MOL0     C43107   0.347   4.680   7.786 -0.9615 -1.2926 -0.2427
  320MOL0     C43108   0.322   4.759   7.916  0.4996  0.4960  0.2059
  320MOL0    Cl43109   0.280   4.927   7.867  0.1169 -0.0028  0.5865
  320MOL0     C43110  -0.116   4.692   7.432  0.2498 -0.2138 -0.1483
  320MOL0     C43111  -0.242   4.669   7.478 -0.1385 -1.0291  0.5402
  320MOL0     O43112  -0.453   4.823   7.757 -0.4252 -0.1287 -0.0103
  320MOL0     C43113  -0.708   4.732   7.802 -0.5443 -0.3940 -0.1520
  320MOL0     C43114  -0.830   4.678   7.854  0.0577 -0.3239 -0.1818
  320MOL0     N43115  -1.528   4.284   7.966  0.3470  0.3068 -0.4646
  320MOL0     N43116  -1.508   4.157   7.938 -0.7170 -0.8359 -0.3676
  320MOL0     C43117  -0.315   3.721   8.123 -0.6391 -0.5800 -0.2254
  320MOL0     C43118  -0.187   3.744   8.165 -1.5128 -0.4362  0.0085
  320MOL0     C43119   0.246   3.882   8.121  0.2227  0.1683 -0.3562
  320MOL0     C43120   0.358   3.794   8.150  0.3049  0.2913 -0.3449
  320MOL0     C43121   0.484   3.855   8.156  0.1459 -0.9421  0.6938
  320MOL0     C43122   0.502   3.997   8.161 -1.0209 -0.5367  0.0360
  320MOL0     O43123   0.628   4.064   8.159  0.0824  0.5239  0.4764
  320MOL0     C43124   0.741   3.978   8.163 -0.1375 -0.7152 -0.2232
  320MOL0     C43125   0.853   4.086   8.133  0.8422  0.1700 -0.3865
  320MOL0     C43126   0.994   4.039   8.157 -1.0184 -0.0523 -0.9265
  320MOL0     C43127   1.044   3.990   8.297 -0.1203  0.0385  0.3394
  320MOL0     C43128   0.987   3.857   8.325  0.0152 -0.2149  0.6220
  320MOL0     C43129   0.953   3.733   8.314 -0.6288  0.3119 -0.8337
  320MOL0     C43130   0.394   4.075   8.148 -1.0280 -0.0643 -0.4879
  320MOL0     C43131   0.269   4.026   8.125  0.2330  0.5691  0.8067
  320MOL0     C43132   0.160   4.132   8.119 -0.0309 -0.0272  0.1571
  320MOL0     H43133  -0.087   3.968   7.927 -0.4443  0.7447  1.7200
  320MOL0     H43134  -0.305   3.892   7.825  2.4069 -0.0297 -0.4673
  320MOL0     H43135  -0.517   3.527   7.987 -0.9458 -1.3859  1.3910
  320MOL0     H43136  -0.568   3.652   8.105  2.3172  0.9245  0.0075
  320MOL0     H43137  -0.746   3.547   7.978  1.1457 -0.1330  1.1755
  320MOL0     H43138  -0.678   3.604   7.829  1.3660 -2.9783  0.9017
  320MOL0     H43139  -0.700   3.832   7.888  1.7446 -0.2955  2.1041
  320MOL0     H43140  -0.736   3.810   8.053 -1.0275  2.3360 -0.5593
  320MOL0     H43141  -0.905   3.760   7.810  2.2351  3.3798 -0.6865
  320MOL0     H43142  -0.954   3.670   7.958 -0.8938  1.7578 -0.4226
  320MOL0     H43143  -0.944   3.895   8.072  1.9263  0.7393 -0.4932
  320MOL0     H43144  -0.947   3.969   7.914  0.1197 -0.8127 -1.0783
  320MOL0     H43145  -1.153   3.830   7.872 -0.9739  1.6414 -0.3659
  320MOL0     H43146  -1.153   3.794   8.050 -2.2540  0.2893  0.3974
  320MOL0     H43147  -1.166   4.081   7.928 -1.2274  0.0617 -0.0328
  320MOL0     H43148  -1.145   4.043   8.095 -1.1323  1.4669  1.1630
  320MOL0     H43149  -1.390   3.932   7.927 -0.6882 -0.7346 -0.1795
  320MOL0     H43150  -1.375   3.926   8.099 -0.9594  2.3253  1.4800
  320MOL0     H43151  -1.307   4.220   8.193  0.3277 -2.0871 -0.2694
  320MOL0     H43152  -1.516   4.503   8.144 -1.0865 -2.7806 -2.7960
  320MOL0     H43153  -1.369   4.438   8.217 -0.5933 -1.8913  0.8729
  320MOL0     H43154  -1.391   4.552   7.943 -1.0704  1.4840  1.1657
  320MOL0     H43155  -1.315   4.629   8.074  0.3773 -0.2864 -0.7781
  320MOL0     H43156  -1.202   4.379   7.940  1.3792  0.2336  0.0557
  320MOL0     H43157  -1.157   4.428   8.100  1.0831 -1.9015 -0.6794
  320MOL0     H43158  -1.054   4.646   8.010  0.8917  0.4135 -1.0045
  320MOL0     H43159  -1.119   4.596   7.847  1.3598 -0.3283 -0.6315
  320MOL0     H43160  -0.749   4.353   7.808  0.5236  0.2860 -2.1622
  320MOL0     H43161  -0.541   4.457   7.734  0.4147  0.1737  0.7742
  320MOL0     H43162  -0.177   4.701   7.816 -2.4262 -1.2980 -0.0255
  320MOL0     H43163   0.050   4.742   7.723  0.9465  0.1886 -0.6064
  320MOL0     H43164   0.191   4.556   7.414 -1.1708 -0.5999 -1.2177
  320MOL0     H43165   0.120   4.657   7.295  0.9634  0.3939 -0.3509
  320MOL0     H43166   0.360   4.638   7.272  0.3013  0.2601  0.2987
  320MOL0     H43167   0.299   4.800   7.283  1.3123  0.0738  0.2881
  320MOL0     H43168   0.497   4.795   7.417 -1.7510  2.9449 -0.0297
  320MOL0     H43169   0.371   4.811   7.528 -0.6126  1.0754 -1.2724
  320MOL0     H43170   0.513   4.554   7.434 -1.5093  0.8012 -1.6225
  320MOL0     H43171   0.376   4.544   7.551 -2.4121  2.4107 -0.1910
  320MOL0     H43172   0.635   4.698   7.609 -2.1524  0.9959 -2.0521
  320MOL0     H43173   0.596   4.536   7.675  3.8539 -0.6810 -0.9141
  320MOL0     H43174   0.559   4.698   7.838  1.7625 -1.1615 -1.7972
  320MOL0     H43175   0.494   4.820   7.737 -1.6092 -0.1266  0.6526
  320MOL0     H43176   0.344   4.571   7.785  0.6774 -1.3870  0.8398
  320MOL0     H43177   0.275   4.729   7.720 -1.4603  1.2506  1.9783
  320MOL0     H43178   0.234   4.719   7.967  0.3462  1.1534  0.4601
  320MOL0     H43179   0.404   4.750   7.987  1.6031 -2.4328 -1.2535
  320MOL0     H43180  -0.087   4.678   7.328 -1.9229  0.5946 -0.9146
  320MOL0     H43181  -0.313   4.636   7.402  0.9957 -0.2559 -0.9086
  320MOL0     H43182  -0.696   4.840   7.810 -2.0526 -0.2475  0.4607
  320MOL0     H43183  -0.901   4.750   7.892  0.2762  0.3177 -0.9557
  320MOL0     H43184  -0.379   3.663   8.190 -0.2746  0.8061  1.3911
  320MOL0     H43185  -0.141   3.697   8.251  0.2886 -0.7554 -1.0840
  320MOL0     H43186   0.352   3.687   8.132  0.7337 -0.4112  2.9701
  320MOL0     H43187   0.571   3.790   8.166  3.1024  3.0240  3.9536
  320MOL0     H43188   0.734   3.906   8.080  2.5080 -0.5135 -0.6974
  320MOL0     H43189   0.745   3.931   8.262 -2.0660  1.4121  0.9440
  320MOL0     H43190   0.845   4.170   8.203  1.2649 -1.4648  1.7281
  320MOL0     H43191   0.838   4.116   8.029 -3.8684 -1.2914 -0.3703
  320MOL0     H43192   1.054   4.128   8.135 -2.0549  0.8442 -0.2307
  320MOL0     H43193   1.024   3.970   8.078  1.2173 -2.5048  1.7810
  320MOL0     H43194   1.152   3.978   8.305  0.3326  1.3381 -2.6060
  320MOL0     H43195   1.012   4.074   8.360  1.6598  1.9875 -1.2170
  320MOL0     H43196   0.918   3.633   8.308 -1.2312  0.3800  1.0223
  320MOL0     H43197   0.403   4.182   8.163 -0.8554 -0.2658  1.0697
  320MOL0     H43198   0.204   4.232   8.110 -2.0398  1.2154  2.9691
  320MOL0     H43199   0.104   4.105   8.029  0.3723 -1.0358  0.2030
  320MOL0     H43200   0.089   4.127   8.201 -2.0702 -0.9437 -1.5660
  321MOL0     O43201  10.918   5.900   3.525  0.2856  0.6741  0.4279
  321MOL0     C43202  10.937   6.018   3.532  1.2429 -0.4112 -1.0319
  321MOL0     O43203  10.847   6.106   3.480 -0.0960 -0.5360 -0.6700
  321MOL0     C43204  10.754   6.061   3.396 -0.6834 -0.7248 -0.4302
  321MOL0     C43205  10.768   6.105   3.264  0.2253 -0.4432  0.1898
  321MOL0     C43206  10.680   6.067   3.172 -0.4663  0.4622 -0.4197
  321MOL0     C43207  10.579   5.974   3.205 -0.2659 -0.2494  0.1018
  321MOL0     O43208  10.496   5.935   3.103  0.4206 -0.0021 -0.0795
  321MOL0     C43209  10.423   5.813   3.110 -0.4631  0.2729 -0.2624
  321MOL0     C43210  10.413   5.756   2.970 -0.1156  0.2085  0.4164
  321MOL0     C43211  10.545   5.767   2.888  0.1598 -0.0783 -0.1286
  321MOL0     C43212  10.658   5.679   2.944  0.5908  0.2077 -0.1184
  321MOL0     C43213  10.798   5.687   2.871 -0.5144  0.0321 -0.2057
  321MOL0     C43214  10.819   5.622   2.743 -0.8088 -0.3793  0.0386
  321MOL0     C43215  10.962   5.599   2.703 -0.5682 -0.2572 -0.3722
  321MOL0     C43216  11.051   5.733   2.687  0.8730  0.6626 -0.6898
  321MOL0     N43217  11.189   5.716   2.642 -0.2513 -0.2544 -0.4882
  321MOL0     C43218  11.280   5.664   2.728 -0.1057 -0.4741 -0.9855
  321MOL0     C43219  11.391   5.657   2.655 -0.3984 -0.1643  0.0441
  321MOL0     C43220  11.512   5.590   2.720 -0.6475  0.5103  0.1651
  321MOL0     C43221  11.513   5.452   2.667 -0.0687  0.6951 -0.2969
  321MOL0     C43222  11.612   5.364   2.747  0.1836 -0.3227 -0.2768
  321MOL0     C43223  11.758   5.403   2.747 -0.5068  1.0878  0.1757
  321MOL0     O43224  11.798   5.402   2.608  0.3953  0.2171 -0.1051
  321MOL0     C43225  11.925   5.441   2.581 -0.0023 -0.5125  0.5002
  321MOL0     C43226  11.962   5.461   2.448 -0.6583  0.4915  0.3506
  321MOL0     C43227  12.095   5.500   2.420 -0.5453 -0.2053 -0.1613
  321MOL0     C43228  12.193   5.531   2.513 -0.6316 -0.5444  0.5634
  321MOL0     C43229  12.325   5.584   2.469  0.9129  0.4247  0.3459
  321MOL0     O43230  12.418   5.580   2.562 -0.2337  0.6667 -0.4644
  321MOL0     C43231  12.544   5.649   2.539  0.5650 -0.0972 -0.0081
  321MOL0     C43232  12.630   5.620   2.434 -0.3724 -0.2323 -0.0996
  321MOL0     C43233  12.756   5.677   2.429  0.0432 -0.1391  0.2267
  321MOL0     C43234  12.800   5.771   2.526  0.3138  0.0385  0.2993
  321MOL0     O43235  12.911   5.840   2.494  0.1344 -1.2718  1.4499
  321MOL0     C43236  12.983   5.900   2.607  0.0344  0.5687 -0.3351
  321MOL0     C43237  13.129   5.939   2.571  0.6311  0.2582 -0.1622
  321MOL0     C43238  13.222   5.820   2.566 -0.0018  0.2251  0.7689
  321MOL0     C43239  13.238   5.732   2.684 -1.3816  0.4568 -0.3925
  321MOL0     C43240  13.360   5.630   2.675 -0.4025  0.5114  0.4885
  321MOL0     C43241  13.363   5.552   2.814 -1.0565 -0.7293 -0.7076
  321MOL0     C43242  13.486   5.460   2.842  0.1919  0.4872 -0.8591
  321MOL0     C43243  13.580   5.416   2.728  1.1887 -0.3258 -0.4812
  321MOL0    Cl43244  13.682   5.549   2.649  0.2237 -0.3560  0.6949
  321MOL0     C43245  12.714   5.799   2.626  0.8569 -0.0541  0.7103
  321MOL0     C43246  12.584   5.740   2.640 -0.0909 -0.5620  0.8889
  321MOL0     O43247  12.335   5.639   2.362  0.6753  0.7141 -0.1039
  321MOL0     C43248  12.158   5.509   2.646  0.7323  0.9087  0.8686
  321MOL0     C43249  12.020   5.463   2.678  0.0417  0.3582 -0.8240
  321MOL0     N43250  11.370   5.690   2.524  0.2623 -0.0856  0.0977
  321MOL0     N43251  11.237   5.718   2.523 -0.4270  0.1386  0.0713
  321MOL0     C43252  10.568   5.925   3.336  0.4959  0.7738  0.2800
  321MOL0     C43253  10.645   5.984   3.442 -0.2050 -0.3606 -0.2033
  321MOL0     C43254  11.052   6.073   3.604 -0.1452 -0.0543  0.5530
  321MOL0     C43255  11.069   6.216   3.589  0.3596 -0.7439 -0.6914
  321MOL0     C43256  11.187   6.276   3.624 -0.7498  0.0022 -0.1230
  321MOL0     C43257  11.301   6.192   3.671 -0.2138 -0.8873  1.3277
  321MOL0     O43258  11.433   6.235   3.700 -0.2838  0.6971  0.1007
  321MOL0     C43259  11.478   6.365   3.660  0.0245 -0.9791 -0.0046
  321MOL0     C43260  11.630   6.377   3.660 -0.0440  0.7693 -0.2304
  321MOL0     C43261  11.699   6.275   3.761 -0.7011  0.4749 -0.8337
  321MOL0     C43262  11.850   6.266   3.723 -0.0767 -0.1411 -0.7071
  321MOL0     C43263  11.915   6.166   3.821 -0.3086 -0.4033  0.2333
  321MOL0     C43264  11.944   6.088   3.905  0.2394 -0.3418 -0.4278
  321MOL0     C43265  11.285   6.053   3.697 -0.7860 -0.5925  0.3260
  321MOL0     C43266  11.160   5.992   3.657  0.0713 -0.0540 -0.6043
  321MOL0     C43267  11.150   5.847   3.680  0.8009  0.9733  0.4559
  321MOL0     H43268  10.861   6.154   3.238  1.6083 -2.5068  0.9605
  321MOL0     H43269  10.676   6.106   3.071 -3.5152 -1.4754 -1.1961
  321MOL0     H43270  10.481   5.740   3.166  3.6497  2.4613 -1.3149
  321MOL0     H43271  10.329   5.839   3.160 -0.8926  0.6282 -1.2326
  321MOL0     H43272  10.339   5.810   2.910 -0.3263 -0.9775 -0.4292
  321MOL0     H43273  10.379   5.652   2.981 -0.2125  0.3785  1.7883
  321MOL0     H43274  10.567   5.874   2.879 -1.5428  0.2017 -1.4980
  321MOL0     H43275  10.532   5.746   2.781  1.5418 -1.3658 -0.0687
  321MOL0     H43276  10.681   5.705   3.047  3.4331  1.7117 -1.0172
  321MOL0     H43277  10.623   5.575   2.940  2.2972 -0.4075  0.2433
  321MOL0     H43278  10.814   5.794   2.854 -0.6892  0.2009  0.6265
  321MOL0     H43279  10.868   5.644   2.944  0.2114  0.4549 -0.6388
  321MOL0     H43280  10.775   5.522   2.745 -1.4383 -0.1046  1.7083
  321MOL0     H43281  10.769   5.673   2.660 -0.3202  0.1440  0.0582
  321MOL0     H43282  10.983   5.546   2.610  0.0477 -1.2168  0.2920
  321MOL0     H43283  11.007   5.545   2.787  4.4525  1.0760 -1.8428
  321MOL0     H43284  10.989   5.795   2.622 -1.7757 -1.1232 -0.0461
  321MOL0     H43285  11.057   5.781   2.785  2.1705  1.0603 -0.9447
  321MOL0     H43286  11.278   5.647   2.835  0.3367 -1.2448 -1.0939
  321MOL0     H43287  11.610   5.638   2.709  1.5586 -2.7422  3.1768
  321MOL0     H43288  11.504   5.597   2.829 -0.6865  0.4618  0.1655
  321MOL0     H43289  11.420   5.394   2.665  0.3566 -0.2631  2.9981
  321MOL0     H43290  11.543   5.468   2.563 -0.8755 -1.1068 -0.8398
  321MOL0     H43291  11.604   5.267   2.698 -0.5073  0.1773 -1.1971
  321MOL0     H43292  11.569   5.357   2.847  0.5791 -0.2278 -0.0960
  321MOL0     H43293  11.807   5.326   2.807 -2.7574 -0.2680  0.3749
  321MOL0     H43294  11.773   5.501   2.795  0.4732  1.0298 -0.0004
  321MOL0     H43295  11.898   5.455   2.360 -0.1588  0.5600 -0.0180
  321MOL0     H43296  12.125   5.506   2.316  0.0785 -1.6921 -0.0939
  321MOL0     H43297  12.613   5.549   2.353 -1.4662  0.3601 -0.3954
  321MOL0     H43298  12.825   5.654   2.348 -0.1187 -0.8123  0.2683
  321MOL0     H43299  12.926   5.990   2.634  0.1117  0.1014  1.5329
  321MOL0     H43300  12.984   5.829   2.689  0.0574  0.5733 -0.3319
  321MOL0     H43301  13.102   5.984   2.475 -0.2443  0.8565  0.3485
  321MOL0     H43302  13.162   6.012   2.646 -0.2265  0.7769 -0.2777
  321MOL0     H43303  13.175   5.750   2.496 -1.4813  0.6869  1.2721
  321MOL0     H43304  13.318   5.849   2.524 -1.3171  0.2302 -2.5074
  321MOL0     H43305  13.150   5.668   2.700 -3.2248  3.2234  1.4052
  321MOL0     H43306  13.253   5.785   2.779 -1.4688  0.1434 -0.2012
  321MOL0     H43307  13.454   5.684   2.660  0.2080 -1.0038 -1.5267
  321MOL0     H43308  13.356   5.575   2.581  2.2235  0.5973  0.2468
  321MOL0     H43309  13.345   5.621   2.897 -0.4187 -1.0046 -0.3329
  321MOL0     H43310  13.274   5.488   2.817  0.0956 -2.3876 -0.2463
  321MOL0     H43311  13.451   5.371   2.895 -3.2302  1.1573 -1.7695
  321MOL0     H43312  13.557   5.511   2.908  0.7703 -2.5051  1.0309
  321MOL0     H43313  13.650   5.350   2.780  1.0966 -0.9725 -1.1601
  321MOL0     H43314  13.535   5.356   2.648 -0.9641  0.9478 -0.3106
  321MOL0     H43315  12.745   5.869   2.703  1.0849  0.1507  0.4366
  321MOL0     H43316  12.508   5.765   2.713  0.0290 -1.2955  1.2709
  321MOL0     H43317  12.231   5.522   2.726  1.6705  2.9901 -0.2575
  321MOL0     H43318  11.993   5.452   2.783 -0.3111 -1.3375 -1.0615
  321MOL0     H43319  10.506   5.839   3.353  1.8849 -0.2555  0.3288
  321MOL0     H43320  10.642   5.950   3.545 -2.3802 -2.1468 -0.7666
  321MOL0     H43321  10.996   6.290   3.556  1.6871  0.7034 -0.5459
  321MOL0     H43322  11.188   6.384   3.619  0.4265 -0.0008 -0.2753
  321MOL0     H43323  11.448   6.428   3.744  0.2758 -0.5836 -0.2100
  321MOL0     H43324  11.439   6.407   3.566  0.4589  3.4466  1.5556
  321MOL0     H43325  11.651   6.478   3.695 -2.8918  1.6036 -0.6839
  321MOL0     H43326  11.669   6.366   3.559 -0.3850 -1.6189 -0.1606
  321MOL0     H43327  11.654   6.175   3.763 -0.9304  0.5869  0.1159
  321MOL0     H43328  11.688   6.302   3.867  1.1091 -4.1478  0.8139
  321MOL0     H43329  11.863   6.234   3.619  3.0277 -0.2111 -0.3800
  321MOL0     H43330  11.895   6.365   3.728 -0.7129  0.2242 -1.7683
  321MOL0     H43331  11.989   6.032   3.985  1.8853 -0.7153 -1.5417
  321MOL0     H43332  11.370   5.995   3.729  0.6541  0.9104 -0.6050
  321MOL0     H43333  11.047   5.812   3.692  0.1054  2.6719 -0.1449
  321MOL0     H43334  11.199   5.804   3.593  0.1370  0.5204  0.3064
  321MOL0     H43335  11.201   5.821   3.774  0.7445 -2.3647 -0.3208
  322MOL0     O43336   2.264   8.893   6.840  0.2065  0.2542  1.0858
  322MOL0     C43337   2.339   8.930   6.753 -1.2339  0.0368 -0.0369
  322MOL0     O43338   2.321   8.908   6.618 -0.1957  0.0493  0.1406
  322MOL0     C43339   2.191   8.871   6.576 -0.2126  1.0018 -0.1273
  322MOL0     C43340   2.121   8.973   6.513 -0.5855  0.3137  0.5274
  322MOL0     C43341   1.998   8.940   6.453  0.0495 -0.2581  0.4001
  322MOL0     C43342   1.931   8.817   6.473  0.3050 -0.1995 -0.0962
  322MOL0     O43343   1.804   8.798   6.416 -0.7559  0.5802  0.1031
  322MOL0     C43344   1.699   8.835   6.505  0.5843 -0.5637 -0.6465
  322MOL0     C43345   1.576   8.854   6.413  0.0551 -0.5565 -0.9641
  322MOL0     C43346   1.512   8.718   6.384 -0.8237 -0.1436 -0.0045
  322MOL0     C43347   1.374   8.734   6.328 -0.2529  1.2152 -0.4727
  322MOL0     C43348   1.303   8.597   6.322 -0.0965 -0.2332  0.7865
  322MOL0     C43349   1.352   8.504   6.210  0.0133 -0.9117  0.0838
  322MOL0     C43350   1.276   8.370   6.210 -0.5055  0.1472 -1.0420
  322MOL0     C43351   1.285   8.266   6.098 -0.4492 -0.5645 -0.3758
  322MOL0     N43352   1.428   8.240   6.073  0.4834 -0.2867 -0.0604
  322MOL0     C43353   1.523   8.174   6.154 -0.1528  0.3846  1.1805
  322MOL0     C43354   1.635   8.191   6.082 -0.6719  0.9115 -0.0580
  322MOL0     C43355   1.769   8.128   6.119  0.1261 -1.1152  0.0762
  322MOL0     C43356   1.885   8.235   6.111  0.3696 -0.0066 -0.7471
  322MOL0     C43357   1.870   8.350   6.204 -0.1403  0.3293 -0.0602
  322MOL0     C43358   1.990   8.434   6.232 -0.2287 -0.0007  0.9282
  322MOL0     O43359   2.018   8.526   6.129 -0.9508 -0.1180 -0.3465
  322MOL0     C43360   2.147   8.578   6.118  0.4655  0.4887 -0.8663
  322MOL0     C43361   2.170   8.655   6.006  0.1128  0.5475  0.3739
  322MOL0     C43362   2.292   8.716   5.983  0.4703  0.0903 -0.6491
  322MOL0     C43363   2.392   8.701   6.079 -0.9348 -0.0285 -0.1387
  322MOL0     C43364   2.527   8.757   6.054 -0.2616  0.0416 -0.1421
  322MOL0     O43365   2.610   8.784   6.162  0.1433  0.1860  0.4381
  322MOL0     C43366   2.739   8.833   6.153  0.3651 -0.2610  0.2825
  322MOL0     C43367   2.781   8.921   6.054 -0.3904  0.1863  0.3708
  322MOL0     C43368   2.909   8.965   6.057  0.6062 -0.1538  0.6857
  322MOL0     C43369   3.000   8.918   6.145 -0.6336  0.6758  0.3632
  322MOL0     O43370   3.132   8.969   6.138  0.2578 -1.4876 -0.5105
  322MOL0     C43371   3.227   8.935   6.244 -0.2344  1.8305  0.6113
  322MOL0     C43372   3.367   8.990   6.214 -0.1663 -0.1500 -0.5114
  322MOL0     C43373   3.464   9.015   6.328  0.4045 -0.0314  0.3949
  322MOL0     C43374   3.582   9.108   6.291  0.0145  1.1536 -0.8709
  322MOL0     C43375   3.686   9.130   6.395  0.0399 -1.0285  0.2229
  322MOL0     C43376   3.659   9.123   6.538  0.6965 -0.3105 -0.7519
  322MOL0     C43377   3.548   9.230   6.590 -0.2674  0.5062 -0.8283
  322MOL0     C43378   3.581   9.288   6.732 -0.3010  1.0906  0.3866
  322MOL0    Cl43379   3.750   9.349   6.727 -0.2087  0.2492 -0.2774
  322MOL0     C43380   2.956   8.841   6.258  0.6565  0.1920 -0.0485
  322MOL0     C43381   2.828   8.796   6.252  0.9907  1.2689 -0.5240
  322MOL0     O43382   2.553   8.776   5.935 -0.2140  0.7850 -0.1473
  322MOL0     C43383   2.362   8.642   6.199 -0.5911  0.0409 -0.2058
  322MOL0     C43384   2.235   8.584   6.222 -0.2879  0.1790  0.0308
  322MOL0     N43385   1.624   8.279   5.978 -0.0580  0.5516 -0.6863
  322MOL0     N43386   1.499   8.300   5.977 -0.0434  0.2432  0.2894
  322MOL0     C43387   2.004   8.712   6.541 -0.4138  0.6162  0.1510
  322MOL0     C43388   2.130   8.748   6.593  0.0505  0.1428  1.0755
  322MOL0     C43389   2.455   9.020   6.789  0.7634 -0.2678  0.4951
  322MOL0     C43390   2.493   9.109   6.681 -0.1443 -0.4696  0.3888
  322MOL0     C43391   2.610   9.181   6.698  0.8125 -0.9790 -0.0600
  322MOL0     C43392   2.688   9.177   6.812 -0.4443 -0.0662  0.5516
  322MOL0     O43393   2.810   9.237   6.827  0.3796  0.0389 -0.0491
  322MOL0     C43394   2.891   9.252   6.708 -0.0223  0.2635 -0.5811
  322MOL0     C43395   3.039   9.222   6.746  0.2501  0.0405 -0.5674
  322MOL0     C43396   3.115   9.345   6.802  0.1023 -0.0968 -0.3583
  322MOL0     C43397   3.123   9.324   6.955 -0.1971  0.2060  0.7276
  322MOL0     C43398   3.204   9.206   6.993 -1.5296 -0.4240  0.0978
  322MOL0     C43399   3.274   9.113   7.013 -1.1923  1.0074  0.1669
  322MOL0     C43400   2.651   9.086   6.912  0.3497 -0.0376 -0.0519
  322MOL0     C43401   2.528   9.013   6.906 -1.0012  0.5119  0.4720
  322MOL0     C43402   2.490   8.918   7.020 -0.4428 -0.4206  0.3163
  322MOL0     H43403   2.174   9.067   6.501 -0.1121  0.4191  2.9364
  322MOL0     H43404   1.942   9.022   6.410  1.1283  0.1192 -0.3436
  322MOL0     H43405   1.672   8.758   6.576 -0.3168 -0.5503 -0.9689
  322MOL0     H43406   1.711   8.935   6.548 -2.4121  0.6499 -2.3367
  322MOL0     H43407   1.614   8.904   6.323 -0.8436  0.5708 -0.7428
  322MOL0     H43408   1.502   8.921   6.458 -1.4763 -2.3604 -0.6833
  322MOL0     H43409   1.524   8.647   6.466  2.3542  0.3854  0.1109
  322MOL0     H43410   1.571   8.674   6.302 -1.9811  0.7501 -1.3620
  322MOL0     H43411   1.312   8.806   6.382  0.8693  3.4697 -1.9986
  322MOL0     H43412   1.379   8.787   6.232  1.4105  0.6908 -0.7114
  322MOL0     H43413   1.304   8.541   6.417 -3.8887  0.2800  1.2904
  322MOL0     H43414   1.195   8.607   6.313 -0.0309 -1.2131 -1.6657
  322MOL0     H43415   1.342   8.543   6.109  3.7334 -1.0293 -0.4444
  322MOL0     H43416   1.459   8.483   6.215  1.6269  3.4911 -5.2735
  322MOL0     H43417   1.167   8.371   6.209 -0.5451 -1.4502 -0.7707
  322MOL0     H43418   1.298   8.324   6.307 -2.5476 -0.7411 -0.9606
  322MOL0     H43419   1.228   8.174   6.113 -2.1758  0.4407 -0.5538
  322MOL0     H43420   1.257   8.317   6.005  1.1841 -0.3278 -0.7647
  322MOL0     H43421   1.517   8.124   6.250  5.6533 -0.1634  1.6400
  322MOL0     H43422   1.754   8.081   6.217 -2.6964  2.3786  1.5486
  322MOL0     H43423   1.796   8.044   6.055  0.6884  0.1359 -1.3747
  322MOL0     H43424   1.976   8.178   6.132  1.0661  1.5911  0.8797
  322MOL0     H43425   1.893   8.271   6.008 -0.5040  1.8285 -0.2120
  322MOL0     H43426   1.843   8.304   6.299 -0.0025 -0.5370 -0.4244
  322MOL0     H43427   1.788   8.415   6.173 -0.0667  0.0888 -0.7782
  322MOL0     H43428   2.078   8.371   6.249  1.4415  2.3257  1.2599
  322MOL0     H43429   1.975   8.481   6.330 -0.9657 -0.8101  1.2163
  322MOL0     H43430   2.090   8.647   5.932  1.2251 -1.7446 -0.6838
  322MOL0     H43431   2.298   8.773   5.890 -1.1180 -1.5146 -1.8099
  322MOL0     H43432   2.709   8.965   5.985  0.9055  1.1371 -0.4230
  322MOL0     H43433   2.940   9.046   5.993 -2.5993  1.2720  0.7525
  322MOL0     H43434   3.197   8.981   6.338  2.2927  2.7567  1.0464
  322MOL0     H43435   3.235   8.826   6.249 -2.1706  1.2389 -4.1404
  322MOL0     H43436   3.414   8.930   6.135 -1.9673 -0.4295 -1.4206
  322MOL0     H43437   3.343   9.090   6.177  0.1864 -0.1784 -0.8221
  322MOL0     H43438   3.400   9.054   6.409  0.0318  0.3985 -0.1013
  322MOL0     H43439   3.514   8.922   6.355  2.3463  0.5147 -1.0992
  322MOL0     H43440   3.542   9.201   6.250 -1.1200 -0.3442 -3.4349
  322MOL0     H43441   3.627   9.067   6.200 -2.8890  1.2521 -2.4522
  322MOL0     H43442   3.712   9.235   6.374  4.2656 -1.7895  0.6460
  322MOL0     H43443   3.780   9.076   6.378  2.5431  1.4865  4.1735
  322MOL0     H43444   3.637   9.018   6.560 -1.4906 -0.0215 -1.3637
  322MOL0     H43445   3.757   9.147   6.582  1.2527 -0.4203 -1.9014
  322MOL0     H43446   3.456   9.173   6.597  0.4183 -0.7430 -1.6739
  322MOL0     H43447   3.540   9.311   6.516  0.0271 -1.1188 -2.7133
  322MOL0     H43448   3.514   9.373   6.750 -0.5561  0.5399  2.2115
  322MOL0     H43449   3.557   9.217   6.811 -2.8501  0.4732 -0.8219
  322MOL0     H43450   3.014   8.814   6.346  1.5449  0.6824 -0.4671
  322MOL0     H43451   2.797   8.722   6.325 -1.6792  0.2333 -2.5120
  322MOL0     H43452   2.436   8.657   6.277 -1.8994  1.0301  0.8995
  322MOL0     H43453   2.209   8.552   6.322  1.3349  0.8741  0.7052
  322MOL0     H43454   1.956   8.616   6.554 -2.8094  1.3723 -2.1886
  322MOL0     H43455   2.198   8.674   6.633 -1.0868 -0.4401  1.9924
  322MOL0     H43456   2.440   9.116   6.587  2.0340  0.9147 -0.8067
  322MOL0     H43457   2.643   9.229   6.606  2.1477 -0.4969  0.6365
  322MOL0     H43458   2.878   9.350   6.663  2.2354 -0.3305 -2.7231
  322MOL0     H43459   2.862   9.180   6.631 -0.1674 -1.2272  0.8037
  322MOL0     H43460   3.086   9.197   6.650 -0.5780  0.6393 -1.1485
  322MOL0     H43461   3.051   9.138   6.815  0.7597 -0.3418 -1.1027
  322MOL0     H43462   3.046   9.426   6.777  0.9632  0.0547 -2.4276
  322MOL0     H43463   3.211   9.362   6.753 -0.2794 -3.0234 -2.3964
  322MOL0     H43464   3.166   9.410   7.007 -0.2026 -1.5653  3.8749
  322MOL0     H43465   3.018   9.311   6.984 -0.5723  1.2299 -0.0964
  322MOL0     H43466   3.328   9.022   7.033  1.1885  2.3934  0.4117
  322MOL0     H43467   2.715   9.083   7.001 -2.3706 -2.7769  2.0379
  322MOL0     H43468   2.560   8.923   7.103  0.5725  0.0499 -0.5442
  322MOL0     H43469   2.395   8.952   7.061  0.6105 -0.9082  3.4202
  322MOL0     H43470   2.493   8.817   6.977  1.2053 -0.6580  0.9260
  323MOL0     O43471   0.332   2.594   7.477  0.8398  0.9666  0.0571
  323MOL0     C43472   0.389   2.528   7.565 -0.6661 -0.0011 -0.1259
  323MOL0     O43473   0.330   2.432   7.644  0.3512  0.1479 -0.0874
  323MOL0     C43474   0.197   2.417   7.631  1.0745 -0.3547  0.1482
  323MOL0     C43475   0.098   2.455   7.721  0.4799 -0.2956  0.4667
  323MOL0     C43476  -0.049   2.449   7.698 -0.3049  0.0344 -0.2365
  323MOL0     C43477  -0.089   2.386   7.579 -0.1596 -0.5083  0.6172
  323MOL0     O43478  -0.212   2.363   7.536  0.2044 -0.2636  0.8240
  323MOL0     C43479  -0.323   2.374   7.623 -0.4646  0.3670 -0.6759
  323MOL0     C43480  -0.438   2.289   7.572 -0.5106  1.0123  1.1808
  323MOL0     C43481  -0.573   2.350   7.576 -0.5312  0.4106  0.3326
  323MOL0     C43482  -0.660   2.248   7.513  0.0264  0.0271  0.5359
  323MOL0     C43483  -0.811   2.287   7.515 -0.6752  0.9209 -0.2089
  323MOL0     C43484  -0.883   2.260   7.652  0.4016 -0.9369 -0.2842
  323MOL0     C43485  -0.917   2.109   7.665  0.6469 -0.9732 -0.2240
  323MOL0     C43486  -0.911   2.060   7.811  0.1450  0.1646 -0.2888
  323MOL0     N43487  -0.776   2.064   7.878  0.3974 -0.2608 -0.0099
  323MOL0     C43488  -0.772   2.056   8.013  0.6857  0.7483  0.3075
  323MOL0     C43489  -0.647   2.102   8.049 -0.6082  0.6495 -0.6947
  323MOL0     C43490  -0.593   2.131   8.186  0.0381 -0.8444 -0.3989
  323MOL0     C43491  -0.457   2.189   8.181 -0.0107 -0.4529  0.0619
  323MOL0     C43492  -0.394   2.213   8.319 -0.0654 -0.8638 -0.3579
  323MOL0     C43493  -0.242   2.258   8.312 -0.2768  0.1398  0.5998
  323MOL0     O43494  -0.199   2.319   8.438 -0.2354 -0.3407  0.1782
  323MOL0     C43495  -0.073   2.295   8.488  0.5106 -0.2753 -0.2104
  323MOL0     C43496   0.035   2.246   8.413  0.2636 -0.9854  0.4188
  323MOL0     C43497   0.162   2.238   8.474 -0.6786 -0.3753 -0.9679
  323MOL0     C43498   0.177   2.298   8.598 -0.3732 -0.5735 -0.4443
  323MOL0     C43499   0.318   2.288   8.643 -0.3787 -0.7674 -0.5961
  323MOL0     O43500   0.409   2.264   8.547 -0.1370 -0.0593 -0.3014
  323MOL0     C43501   0.545   2.273   8.562 -0.7224 -0.2074  0.0552
  323MOL0     C43502   0.612   2.217   8.451 -0.4886 -0.0831  0.0329
  323MOL0     C43503   0.756   2.225   8.440  0.9789 -0.3203  0.3356
  323MOL0     C43504   0.831   2.311   8.527  0.1645  0.6146  0.7507
  323MOL0     O43505   0.958   2.342   8.519  0.1065 -0.5691  0.0095
  323MOL0     C43506   1.039   2.251   8.442 -0.4104  0.0755 -0.6012
  323MOL0     C43507   1.193   2.258   8.482 -0.0615  0.3745  0.1336
  323MOL0     C43508   1.269   2.160   8.400  0.5101 -0.0480 -0.3188
  323MOL0     C43509   1.412   2.138   8.456 -0.2975  0.8094  0.2203
  323MOL0     C43510   1.477   2.037   8.353  0.0473 -0.5431  0.0054
  323MOL0     C43511   1.620   2.002   8.391  0.5020 -0.2028  1.2186
  323MOL0     C43512   1.713   2.131   8.408 -0.2401  0.7237 -0.4810
  323MOL0     C43513   1.852   2.099   8.361  0.6486  0.3701  0.2371
  323MOL0    Cl43514   1.925   2.261   8.340 -0.7079 -0.3177 -0.4823
  323MOL0     C43515   0.761   2.352   8.636 -0.4521 -0.2416 -0.3155
  323MOL0     C43516   0.619   2.343   8.661 -0.4489  0.2982  0.3694
  323MOL0     O43517   0.343   2.325   8.757  0.1135 -0.2371  0.0048
  323MOL0     C43518   0.071   2.347   8.675 -0.2670  0.9199  0.3139
  323MOL0     C43519  -0.054   2.347   8.615 -0.2464  0.5509  0.9981
  323MOL0     N43520  -0.589   2.140   7.925  0.3082 -0.2276  0.0709
  323MOL0     N43521  -0.672   2.137   7.827 -0.3883 -0.0237 -0.4640
  323MOL0     C43522   0.009   2.334   7.493 -1.0022 -0.3391 -0.5754
  323MOL0     C43523   0.150   2.341   7.521  0.3183 -0.9492 -0.1600
  323MOL0     C43524   0.530   2.561   7.589 -0.1956 -0.7825  0.1604
  323MOL0     C43525   0.564   2.695   7.595  0.5822 -0.1581 -0.1682
  323MOL0     C43526   0.699   2.734   7.628  0.7410  0.2321 -0.3461
  323MOL0     C43527   0.800   2.641   7.655  0.6148  0.3470 -0.1180
  323MOL0     O43528   0.917   2.695   7.686  0.0656  0.7415  0.3848
  323MOL0     C43529   1.038   2.615   7.649  0.8682 -0.0920  0.6039
  323MOL0     C43530   1.156   2.698   7.596  0.3624 -0.2569  0.3389
  323MOL0     C43531   1.283   2.630   7.551  0.3759  0.7871 -0.3702
  323MOL0     C43532   1.397   2.726   7.513 -0.0352 -0.6181  0.6953
  323MOL0     C43533   1.516   2.663   7.454  0.8950  1.9445  0.0410
  323MOL0     C43534   1.611   2.635   7.384  0.0864  0.8400 -0.5698
  323MOL0     C43535   0.765   2.507   7.637  0.5108  0.0500  0.4927
  323MOL0     C43536   0.636   2.466   7.602  0.2869 -0.1840  0.3698
  323MOL0     C43537   0.609   2.317   7.591 -0.9216  0.0938  0.5724
  323MOL0     H43538   0.128   2.493   7.818 -0.0667  1.4473 -0.0216
  323MOL0     H43539  -0.125   2.482   7.768 -0.3135 -1.4901  0.5331
  323MOL0     H43540  -0.304   2.341   7.725  0.9149  1.3854 -0.5769
  323MOL0     H43541  -0.363   2.476   7.631 -2.0254 -0.1066 -1.7179
  323MOL0     H43542  -0.432   2.202   7.639  1.6861 -0.2634 -0.5363
  323MOL0     H43543  -0.417   2.250   7.472  0.9425  2.0291  1.0538
  323MOL0     H43544  -0.567   2.445   7.522  1.6093  0.0548 -0.1110
  323MOL0     H43545  -0.600   2.369   7.680  0.0136 -1.3361  0.8189
  323MOL0     H43546  -0.633   2.246   7.407 -1.5115  2.3691  0.0331
  323MOL0     H43547  -0.647   2.151   7.563 -0.6321 -0.9145 -1.0519
  323MOL0     H43548  -0.814   2.391   7.479  0.0228  1.2479  0.6359
  323MOL0     H43549  -0.860   2.223   7.441 -0.4428 -0.4095  0.7557
  323MOL0     H43550  -0.820   2.301   7.731 -2.5139 -1.5325  2.5513
  323MOL0     H43551  -0.980   2.309   7.664  0.9547 -0.4112  2.8317
  323MOL0     H43552  -0.850   2.047   7.605 -0.2227 -1.5260 -0.6420
  323MOL0     H43553  -1.016   2.086   7.624  0.3898 -0.7509  0.2538
  323MOL0     H43554  -0.983   2.113   7.874 -0.3237  1.3644 -1.7762
  323MOL0     H43555  -0.945   1.956   7.819 -1.5786  0.7122 -0.0077
  323MOL0     H43556  -0.850   2.016   8.077  0.1840  0.4682 -0.4547
  323MOL0     H43557  -0.665   2.199   8.233 -1.2214 -2.6365  0.4519
  323MOL0     H43558  -0.602   2.040   8.247  1.8594  1.0135  2.9025
  323MOL0     H43559  -0.388   2.123   8.127 -3.0044 -3.5435 -0.2901
  323MOL0     H43560  -0.454   2.285   8.129  1.9996  1.3100  3.0860
  323MOL0     H43561  -0.396   2.126   8.385  0.7697 -0.9800 -0.4743
  323MOL0     H43562  -0.453   2.295   8.360 -0.2469 -1.9041  1.5932
  323MOL0     H43563  -0.233   2.338   8.239  0.0344  0.6845  1.2190
  323MOL0     H43564  -0.186   2.170   8.279 -0.2300  0.3727  0.0436
  323MOL0     H43565   0.031   2.216   8.309  1.1129 -0.9674  0.3741
  323MOL0     H43566   0.241   2.188   8.420 -1.1548  0.6415 -2.6853
  323MOL0     H43567   0.566   2.160   8.371  0.9218  1.8887 -2.3450
  323MOL0     H43568   0.794   2.167   8.356  2.5154 -1.2199  1.6110
  323MOL0     H43569   1.005   2.148   8.453  1.3151 -0.3135  1.7873
  323MOL0     H43570   1.032   2.280   8.336  3.0192  0.5529 -0.8087
  323MOL0     H43571   1.236   2.359   8.483  0.0463  0.3538  2.6121
  323MOL0     H43572   1.201   2.218   8.583  0.4151 -0.2771 -0.1545
  323MOL0     H43573   1.213   2.067   8.413 -0.9198  0.8340  0.0456
  323MOL0     H43574   1.264   2.196   8.297  0.7051  1.7598  0.2633
  323MOL0     H43575   1.408   2.098   8.557  0.4896  4.2974  1.7988
  323MOL0     H43576   1.462   2.235   8.466  0.1491  0.5592  0.3989
  323MOL0     H43577   1.468   2.083   8.254 -0.6244  1.8441  1.1111
  323MOL0     H43578   1.414   1.947   8.353  0.4704 -0.8468 -0.5750
  323MOL0     H43579   1.629   1.938   8.479  0.5307 -0.7863  0.7919
  323MOL0     H43580   1.664   1.946   8.309  2.0017  1.2298  0.9672
  323MOL0     H43581   1.717   2.167   8.511  0.3561  0.1073 -0.2775
  323MOL0     H43582   1.669   2.208   8.344 -3.5844  1.8705  2.8229
  323MOL0     H43583   1.904   2.040   8.437  0.8120 -1.0240 -0.9108
  323MOL0     H43584   1.851   2.048   8.264  0.7424  1.2433 -0.2359
  323MOL0     H43585   0.819   2.414   8.704 -3.9927  2.4751  0.5842
  323MOL0     H43586   0.571   2.382   8.750  0.8618 -0.5795  1.5047
  323MOL0     H43587   0.082   2.383   8.777 -4.0140  0.5717  0.9745
  323MOL0     H43588  -0.145   2.381   8.664 -1.2641  0.1649 -0.5268
  323MOL0     H43589  -0.019   2.266   7.413  0.0814 -0.2302 -1.0574
  323MOL0     H43590   0.216   2.295   7.448  1.1825  0.8759 -0.5718
  323MOL0     H43591   0.497   2.778   7.580 -0.6312 -0.4554  2.9061
  323MOL0     H43592   0.733   2.835   7.648 -0.1153 -0.2578  5.1508
  323MOL0     H43593   1.012   2.547   7.568  2.0956  0.0086  0.1107
  323MOL0     H43594   1.068   2.550   7.731  0.0201 -0.0985  0.9285
  323MOL0     H43595   1.184   2.765   7.678  1.6048 -0.6978  0.3076
  323MOL0     H43596   1.119   2.757   7.511 -0.3818 -0.9760  0.1598
  323MOL0     H43597   1.258   2.566   7.467 -3.0773  0.8284  0.4742
  323MOL0     H43598   1.316   2.559   7.627 -1.0375 -0.9166 -1.2911
  323MOL0     H43599   1.355   2.804   7.448  0.7244  0.7520  1.7937
  323MOL0     H43600   1.431   2.774   7.606 -1.1893 -1.5695  1.6484
  323MOL0     H43601   1.711   2.624   7.348  1.2116 -4.1314  3.0220
  323MOL0     H43602   0.847   2.440   7.661 -1.4913 -3.0657 -0.7787
  323MOL0     H43603   0.627   2.266   7.686  0.7213 -2.0783 -0.8132
  323MOL0     H43604   0.511   2.282   7.557 -0.4141  1.5255 -2.8114
  323MOL0     H43605   0.681   2.277   7.520 -1.4262 -3.2648  1.7374
  324MOL0     O43606   8.601   6.339   4.779  0.8799 -0.4783  0.1253
  324MOL0     C43607   8.539   6.445   4.759 -0.0204  0.8265 -0.1979
  324MOL0     O43608   8.564   6.526   4.661 -0.0282 -0.2248 -0.0827
  324MOL0     C43609   8.665   6.521   4.568  0.0255  0.0600 -0.0876
  324MOL0     C43610   8.651   6.562   4.433  0.7651  0.1840 -0.1888
  324MOL0     C43611   8.756   6.550   4.345 -0.3085 -0.3645 -0.6468
  324MOL0     C43612   8.883   6.517   4.391 -0.5489  0.5182  0.7303
  324MOL0     O43613   8.972   6.506   4.283  0.3476  0.4355 -0.0002
  324MOL0     C43614   9.098   6.436   4.314 -0.2748 -0.2619  0.2329
  324MOL0     C43615   9.164   6.418   4.175 -0.8666  1.4237  0.0618
  324MOL0     C43616   9.298   6.353   4.197  0.8298  0.5249 -1.0426
  324MOL0     C43617   9.293   6.205   4.227  0.8698  0.4052 -0.2747
  324MOL0     C43618   9.419   6.120   4.208  1.0385 -0.1336 -0.2396
  324MOL0     C43619   9.530   6.185   4.292  0.2469 -0.1898  0.1090
  324MOL0     C43620   9.646   6.087   4.332  0.4767 -0.5458 -0.2941
  324MOL0     C43621   9.766   6.173   4.382 -0.0283  0.7383 -0.1658
  324MOL0     N43622   9.739   6.234   4.520 -0.1775  0.0039  0.5376
  324MOL0     C43623   9.692   6.364   4.538 -0.0415  0.6268  0.0049
  324MOL0     C43624   9.712   6.392   4.665 -0.9533  0.0338  0.1073
  324MOL0     C43625   9.709   6.528   4.724 -0.7046  0.3133 -0.2585
  324MOL0     C43626   9.860   6.560   4.760 -0.1222 -1.6925  0.4160
  324MOL0     C43627   9.940   6.579   4.627 -0.2225  0.1601 -0.1131
  324MOL0     C43628  10.071   6.643   4.667 -0.3201  0.2193 -0.0546
  324MOL0     O43629  10.163   6.538   4.725  0.1876 -0.0545  0.0799
  324MOL0     C43630  10.288   6.566   4.772 -0.0639 -0.4711 -0.0150
  324MOL0     C43631  10.370   6.660   4.716  0.9445 -1.7409 -0.2012
  324MOL0     C43632  10.496   6.685   4.767  0.4813  0.2484  0.3196
  324MOL0     C43633  10.541   6.606   4.861  0.3055  0.0494  1.4906
  324MOL0     C43634  10.685   6.617   4.907 -0.2374  1.0049  0.5843
  324MOL0     O43635  10.764   6.709   4.839 -0.7887 -0.2761  0.6209
  324MOL0     C43636  10.892   6.744   4.871  0.1490 -0.3940 -0.6755
  324MOL0     C43637  10.948   6.851   4.813  0.2728  0.5135 -0.3740
  324MOL0     C43638  11.082   6.883   4.826  0.2402  0.4864 -0.2386
  324MOL0     C43639  11.166   6.811   4.905 -0.7453 -0.1954 -0.3326
  324MOL0     O43640  11.292   6.851   4.925  0.6066 -0.6174 -0.1221
  324MOL0     C43641  11.383   6.750   4.909 -0.3123 -0.5675  0.0009
  324MOL0     C43642  11.501   6.803   4.831  0.1264 -0.6962  0.1673
  324MOL0     C43643  11.537   6.935   4.897 -0.0815  0.4851 -0.5980
  324MOL0     C43644  11.680   6.983   4.869  0.1219  0.0858 -0.3621
  324MOL0     C43645  11.688   7.135   4.908 -1.1082  1.1125  0.0213
  324MOL0     C43646  11.793   7.194   4.821  0.3282 -0.2005 -0.4215
  324MOL0     C43647  11.921   7.119   4.808  0.6969  0.4138  0.3644
  324MOL0     C43648  12.042   7.207   4.780  0.3044 -0.3807  0.0431
  324MOL0    Cl43649  12.189   7.104   4.764 -0.0198 -0.2252  0.1826
  324MOL0     C43650  11.111   6.705   4.985 -0.0486  1.5752 -0.1515
  324MOL0     C43651  10.974   6.669   4.959 -0.2311 -0.2157 -0.4279
  324MOL0     O43652  10.712   6.565   5.013 -0.4603 -0.6581 -0.2504
  324MOL0     C43653  10.460   6.502   4.916 -0.0676 -1.3277 -0.1863
  324MOL0     C43654  10.331   6.491   4.877  0.5901  0.9520 -0.6095
  324MOL0     N43655   9.767   6.288   4.732 -0.1493 -0.0249  0.8482
  324MOL0     N43656   9.788   6.195   4.638 -0.4069 -0.3368 -0.2450
  324MOL0     C43657   8.907   6.487   4.528  1.0792 -0.6762 -1.1190
  324MOL0     C43658   8.795   6.491   4.619 -1.0697 -0.1734  0.2665
  324MOL0     C43659   8.405   6.461   4.834 -0.2982  0.4133  1.4607
  324MOL0     C43660   8.366   6.350   4.909  0.0385  0.1928 -1.1419
  324MOL0     C43661   8.245   6.345   4.973  0.4313 -0.1816  0.1491
  324MOL0     C43662   8.160   6.451   4.970  0.0178 -0.6785 -0.7169
  324MOL0     O43663   8.042   6.437   5.051 -0.3415 -0.1415 -0.8846
  324MOL0     C43664   7.924   6.504   5.008 -0.3381 -0.2793 -0.2529
  324MOL0     C43665   7.837   6.499   5.125  0.1620  0.0381 -0.7296
  324MOL0     C43666   7.689   6.540   5.114 -0.4765 -0.4889  0.5450
  324MOL0     C43667   7.629   6.576   5.247  0.5941 -0.2455 -0.0576
  324MOL0     C43668   7.480   6.607   5.229  0.8048  0.2781  0.7512
  324MOL0     C43669   7.358   6.632   5.217 -0.7042  0.4524 -0.3721
  324MOL0     C43670   8.202   6.569   4.912 -0.0189  0.0325  0.2537
  324MOL0     C43671   8.325   6.574   4.834  0.4424  0.1669 -0.0384
  324MOL0     C43672   8.356   6.706   4.773  0.1401  0.2242  0.4200
  324MOL0     H43673   8.552   6.593   4.401  0.0622  0.7168  2.3074
  324MOL0     H43674   8.738   6.579   4.242 -0.4200  0.2343 -0.4640
  324MOL0     H43675   9.163   6.489   4.384 -1.1252  1.2831 -0.0966
  324MOL0     H43676   9.078   6.336   4.352  3.1523 -1.2783 -0.2107
  324MOL0     H43677   9.194   6.509   4.122  1.1622  2.4528  2.7222
  324MOL0     H43678   9.102   6.361   4.105  1.5193 -0.0734 -0.9619
  324MOL0     H43679   9.347   6.400   4.282  0.5163 -1.4758  0.3017
  324MOL0     H43680   9.355   6.360   4.104  0.3509  1.3785 -1.2878
  324MOL0     H43681   9.256   6.183   4.328  1.5000  1.9238  0.3113
  324MOL0     H43682   9.223   6.166   4.152  0.6460  0.9387 -0.3462
  324MOL0     H43683   9.400   6.022   4.254 -1.0023  0.9355  1.3567
  324MOL0     H43684   9.439   6.106   4.101 -0.5052 -1.8480 -0.3661
  324MOL0     H43685   9.564   6.272   4.235  0.7926 -1.5655 -1.7489
  324MOL0     H43686   9.490   6.231   4.383 -2.1711  1.2451 -1.5594
  324MOL0     H43687   9.677   6.039   4.239  1.2025  2.2135 -1.5890
  324MOL0     H43688   9.624   6.017   4.413  1.0329 -0.3476  0.0310
  324MOL0     H43689   9.847   6.099   4.385 -1.4341 -0.8837 -0.6710
  324MOL0     H43690   9.793   6.247   4.307 -0.1169 -0.2280 -1.1695
  324MOL0     H43691   9.664   6.432   4.458 -1.6193  0.2829  0.2466
  324MOL0     H43692   9.671   6.606   4.657  0.7761 -0.7084 -2.3768
  324MOL0     H43693   9.661   6.542   4.821  3.8067  0.0471  2.2558
  324MOL0     H43694   9.860   6.658   4.809 -0.8081 -0.0921 -2.5196
  324MOL0     H43695   9.904   6.488   4.829  1.1687  0.7257  2.2726
  324MOL0     H43696   9.886   6.652   4.566 -1.9603  0.4200  1.6278
  324MOL0     H43697   9.974   6.495   4.566 -2.1850  0.3775 -1.6193
  324MOL0     H43698  10.062   6.731   4.731 -0.3413  2.4175 -2.9229
  324MOL0     H43699  10.118   6.686   4.578  0.9318  1.0648  0.9851
  324MOL0     H43700  10.328   6.710   4.630 -0.7760  0.9686  2.0297
  324MOL0     H43701  10.559   6.761   4.722 -1.4575  0.8524 -1.5312
  324MOL0     H43702  10.901   6.894   4.725 -0.8968 -0.7763 -0.4237
  324MOL0     H43703  11.118   6.971   4.774 -0.3897  0.6160 -0.4550
  324MOL0     H43704  11.420   6.720   5.008  2.3979  2.5800  0.0996
  324MOL0     H43705  11.344   6.665   4.851  0.8876  0.0662 -1.8259
  324MOL0     H43706  11.572   6.720   4.834  0.8213 -0.2842 -2.5844
  324MOL0     H43707  11.471   6.823   4.727 -2.1652  0.3669  0.9591
  324MOL0     H43708  11.464   7.009   4.863 -1.2692 -0.2300  0.3340
  324MOL0     H43709  11.529   6.917   5.004 -2.6758  3.6616 -0.1080
  324MOL0     H43710  11.700   6.975   4.762  4.0378 -1.1185  0.2666
  324MOL0     H43711  11.746   6.922   4.932 -0.5691 -0.7769 -0.4637
  324MOL0     H43712  11.725   7.148   5.010  1.0164  0.1780 -0.5895
  324MOL0     H43713  11.597   7.190   4.884 -0.2747  2.2823 -0.5346
  324MOL0     H43714  11.750   7.196   4.720  1.1230 -3.5490 -0.9498
  324MOL0     H43715  11.808   7.295   4.859 -1.8660 -0.5625  1.6237
  324MOL0     H43716  11.911   7.049   4.724  0.0719 -0.9119  1.5018
  324MOL0     H43717  11.938   7.069   4.903 -2.0389 -1.8560 -0.1980
  324MOL0     H43718  12.022   7.265   4.689 -1.7292 -0.8214  0.1488
  324MOL0     H43719  12.058   7.284   4.856  2.2752 -0.2687 -0.4387
  324MOL0     H43720  11.159   6.637   5.053 -0.5487 -1.9025 -2.9883
  324MOL0     H43721  10.934   6.581   5.008 -0.1793 -0.7103 -1.2561
  324MOL0     H43722  10.502   6.439   4.994 -1.0405  0.3006  1.7703
  324MOL0     H43723  10.266   6.413   4.913  2.1080  0.4182  1.1203
  324MOL0     H43724   9.009   6.468   4.558  1.2412  3.7196  2.2129
  324MOL0     H43725   8.804   6.464   4.724 -1.6839  1.1358  0.6789
  324MOL0     H43726   8.436   6.267   4.916 -0.9024 -0.5031  0.4756
  324MOL0     H43727   8.211   6.255   5.024  0.2238  0.6062  1.4648
  324MOL0     H43728   7.871   6.459   4.923 -2.6502  0.4190  0.7294
  324MOL0     H43729   7.948   6.610   4.990 -0.8460  0.3120  2.2079
  324MOL0     H43730   7.884   6.556   5.206  0.8885 -1.0790 -0.3523
  324MOL0     H43731   7.835   6.397   5.164  0.3337  0.3995  0.2515
  324MOL0     H43732   7.637   6.461   5.060 -0.3937 -0.1855  0.0089
  324MOL0     H43733   7.684   6.630   5.051  0.6013  0.7316  2.1332
  324MOL0     H43734   7.638   6.492   5.316 -1.6985 -0.5306 -0.0010
  324MOL0     H43735   7.670   6.671   5.282 -0.6914  0.6575 -0.9188
  324MOL0     H43736   7.256   6.666   5.220 -1.2597 -1.2072  1.2991
  324MOL0     H43737   8.148   6.658   4.943  0.1829  0.4986 -0.6769
  324MOL0     H43738   8.380   6.704   4.667  1.2599  0.0829  0.6704
  324MOL0     H43739   8.282   6.787   4.785  1.0892  1.5207 -1.8351
  324MOL0     H43740   8.444   6.735   4.831 -0.2271  1.7341  0.2661
  325MOL0     O43741   0.977   3.440   7.311 -0.1102 -0.4437  0.1295
  325MOL0     C43742   0.867   3.392   7.305 -0.2889 -1.6574 -0.0183
  325MOL0     O43743   0.832   3.278   7.237 -0.5277 -0.1509  0.9363
  325MOL0     C43744   0.919   3.179   7.199 -0.3237 -0.6653 -0.4065
  325MOL0     C43745   1.053   3.159   7.251 -0.3955  0.6996 -1.0797
  325MOL0     C43746   1.129   3.070   7.188 -0.2839 -0.1175  0.3113
  325MOL0     C43747   1.080   2.981   7.092 -0.4281 -0.1273  0.2326
  325MOL0     O43748   1.161   2.889   7.037 -0.3220  0.8735 -0.3783
  325MOL0     C43749   1.276   2.848   7.113 -0.9315  0.6746  0.2220
  325MOL0     C43750   1.350   2.739   7.022  0.8023 -0.7120  0.5930
  325MOL0     C43751   1.467   2.665   7.094  1.2185  0.1242  0.4697
  325MOL0     C43752   1.499   2.543   7.004 -0.0385 -0.0934 -0.1192
  325MOL0     C43753   1.626   2.477   7.037  0.2491 -0.1712 -1.1747
  325MOL0     C43754   1.660   2.358   6.956  0.3663 -0.1385 -1.1610
  325MOL0     C43755   1.795   2.299   6.990  0.1795  0.0307  0.4834
  325MOL0     C43756   1.792   2.200   7.108  0.2130 -0.0215 -0.2798
  325MOL0     N43757   1.916   2.129   7.118 -0.3205 -0.0327  0.7056
  325MOL0     C43758   2.011   2.173   7.210  0.7988  0.1303 -0.0872
  325MOL0     C43759   2.100   2.072   7.223 -0.2749  0.4037 -0.3587
  325MOL0     C43760   2.223   2.075   7.302 -0.2174 -0.2699 -0.2048
  325MOL0     C43761   2.209   2.135   7.441 -0.3843 -0.0580 -0.0861
  325MOL0     C43762   2.348   2.135   7.504 -0.3654 -0.2067 -0.0272
  325MOL0     C43763   2.346   2.239   7.622  1.1136 -0.0523 -1.0481
  325MOL0     O43764   2.241   2.229   7.718  0.3723 -0.4922 -1.2669
  325MOL0     C43765   2.236   2.124   7.809  0.0150 -0.1245 -0.2253
  325MOL0     C43766   2.351   2.053   7.843  0.3510  1.0393  0.6121
  325MOL0     C43767   2.345   1.951   7.946  0.2178 -0.2316  0.7359
  325MOL0     C43768   2.219   1.931   8.009  0.3191  0.7662 -1.4346
  325MOL0     C43769   2.213   1.828   8.124  0.1845 -0.8641 -0.7465
  325MOL0     O43770   2.087   1.822   8.192 -0.2457  0.3121  0.5879
  325MOL0     C43771   2.087   1.762   8.317 -0.6006 -0.3927  0.3788
  325MOL0     C43772   1.988   1.667   8.351  0.1663 -0.6301 -0.4969
  325MOL0     C43773   1.975   1.615   8.480  0.6388 -0.2838  0.4520
  325MOL0     C43774   2.074   1.637   8.573 -0.1710  0.3804 -1.1062
  325MOL0     O43775   2.068   1.581   8.702  0.5968  0.2871 -0.8266
  325MOL0     C43776   2.090   1.440   8.698 -0.6980  0.8737 -0.3525
  325MOL0     C43777   2.171   1.389   8.824  0.3454 -0.0500 -0.7125
  325MOL0     C43778   2.318   1.434   8.811  0.5071  0.7353 -0.0578
  325MOL0     C43779   2.408   1.337   8.735 -0.0805 -0.3277  0.9318
  325MOL0     C43780   2.547   1.336   8.789 -0.4091 -0.1406  0.4387
  325MOL0     C43781   2.633   1.225   8.723 -0.1880 -0.2202  0.0272
  325MOL0     C43782   2.786   1.220   8.767  0.9833  0.3520  0.0817
  325MOL0     C43783   2.863   1.141   8.668 -0.9677 -0.1571 -0.5728
  325MOL0    Cl43784   3.033   1.128   8.714 -0.1257 -0.2635 -0.3041
  325MOL0     C43785   2.166   1.731   8.536  0.5047 -0.7022 -0.6686
  325MOL0     C43786   2.171   1.806   8.417 -0.1991  0.4653  0.2637
  325MOL0     O43787   2.313   1.767   8.150 -0.2631 -0.4675  0.1259
  325MOL0     C43788   2.106   2.011   7.977 -0.3353 -0.3529 -0.0785
  325MOL0     C43789   2.115   2.105   7.877  0.4213 -0.0262  0.4251
  325MOL0     N43790   2.050   1.960   7.147  1.1930 -1.4156  0.6211
  325MOL0     N43791   1.937   1.996   7.095  0.0426  0.8331  0.4469
  325MOL0     C43792   0.947   2.988   7.051  0.1514  0.0872  0.1088
  325MOL0     C43793   0.878   3.097   7.103  0.4417 -0.0827  0.4410
  325MOL0     C43794   0.761   3.469   7.373  0.1508  0.0537  0.1637
  325MOL0     C43795   0.631   3.400   7.389 -0.2805  0.1344 -0.7767
  325MOL0     C43796   0.522   3.467   7.450  0.7004  0.0830 -0.1923
  325MOL0     C43797   0.535   3.588   7.517  0.5416 -0.2975  0.1405
  325MOL0     O43798   0.441   3.651   7.590 -0.1304 -0.0751  0.4798
  325MOL0     C43799   0.355   3.570   7.661 -0.0030 -1.6007 -0.6116
  325MOL0     C43800   0.264   3.653   7.759 -0.4637 -0.0229 -0.1644
  325MOL0     C43801   0.115   3.598   7.755  0.1168  0.3945 -0.5305
  325MOL0     C43802   0.081   3.479   7.842 -0.0706 -0.4554 -0.3660
  325MOL0     C43803  -0.064   3.468   7.875  1.3726 -0.4459  0.2218
  325MOL0     C43804  -0.183   3.459   7.896 -0.4728  0.2235 -0.5852
  325MOL0     C43805   0.656   3.652   7.515  0.1294 -0.5878  0.1833
  325MOL0     C43806   0.767   3.596   7.441  0.1877 -0.8400  0.4722
  325MOL0     C43807   0.899   3.673   7.439  0.1202 -0.1373 -0.5913
  325MOL0     H43808   1.102   3.223   7.324  0.8247 -0.1863 -1.0975
  325MOL0     H43809   1.232   3.070   7.222 -0.3749  0.3157  0.6005
  325MOL0     H43810   1.343   2.932   7.135 -0.8873  2.1785 -4.5795
  325MOL0     H43811   1.257   2.802   7.211  2.0326 -0.1568  0.5209
  325MOL0     H43812   1.390   2.792   6.934 -2.7426  2.2635  0.5471
  325MOL0     H43813   1.270   2.670   6.992 -0.6456  1.3782 -0.6474
  325MOL0     H43814   1.426   2.629   7.189 -0.1901 -1.1094 -0.5468
  325MOL0     H43815   1.554   2.731   7.102  0.7267  0.5605  2.8073
  325MOL0     H43816   1.416   2.472   7.002 -0.5157  0.3979 -3.7054
  325MOL0     H43817   1.499   2.583   6.903  0.0239  1.2906  0.4044
  325MOL0     H43818   1.710   2.547   7.036 -0.2860  0.6741  1.8828
  325MOL0     H43819   1.613   2.447   7.142  4.5205  1.1425 -0.0399
  325MOL0     H43820   1.579   2.288   6.978 -1.2151  2.2941  1.3695
  325MOL0     H43821   1.666   2.382   6.849  3.3416  0.3446 -0.9669
  325MOL0     H43822   1.877   2.369   7.002 -0.4194  0.8556 -0.0841
  325MOL0     H43823   1.829   2.240   6.904  3.3093 -1.9730  2.8972
  325MOL0     H43824   1.764   2.245   7.204  0.0578 -1.7933  0.5598
  325MOL0     H43825   1.714   2.127   7.083  0.8810 -0.8866  0.0968
  325MOL0     H43826   2.008   2.273   7.252 -0.5189 -0.2080  0.6560
  325MOL0     H43827   2.276   1.980   7.301 -0.8411 -0.6183 -0.4729
  325MOL0     H43828   2.288   2.148   7.252  1.5631 -0.3767  1.7915
  325MOL0     H43829   2.154   2.230   7.438  0.6899  0.6227  0.9287
  325MOL0     H43830   2.140   2.071   7.497 -1.5089  0.9434 -0.2796
  325MOL0     H43831   2.428   2.164   7.435  0.3610 -1.2338  0.3487
  325MOL0     H43832   2.381   2.037   7.541 -0.3132  0.5132  1.9755
  325MOL0     H43833   2.334   2.331   7.565 -0.1185  2.0870  2.3114
  325MOL0     H43834   2.441   2.240   7.676 -0.0007 -2.6819  1.1980
  325MOL0     H43835   2.446   2.075   7.794 -0.3198  0.9877 -0.7468
  325MOL0     H43836   2.434   1.893   7.968  0.0794 -0.9035 -0.4010
  325MOL0     H43837   1.926   1.646   8.264  3.5062 -2.5810 -2.6353
  325MOL0     H43838   1.884   1.562   8.505 -0.0437  0.3922 -0.5428
  325MOL0     H43839   1.994   1.388   8.698 -1.0840  1.3134  3.6703
  325MOL0     H43840   2.144   1.409   8.608 -0.6342 -0.3263  0.0783
  325MOL0     H43841   2.122   1.421   8.917  0.7255 -1.9891  0.2046
  325MOL0     H43842   2.165   1.280   8.827  3.3758 -0.3381 -1.1962
  325MOL0     H43843   2.330   1.538   8.779  2.5572  0.6622  0.3489
  325MOL0     H43844   2.344   1.435   8.917  1.5048 -2.0344 -0.2224
  325MOL0     H43845   2.393   1.353   8.628 -2.6008 -2.3572  0.8688
  325MOL0     H43846   2.365   1.237   8.745 -0.5481 -0.4091 -1.4249
  325MOL0     H43847   2.557   1.300   8.892 -0.6324 -2.5635 -0.3079
  325MOL0     H43848   2.596   1.433   8.782 -0.2968 -0.1795  0.6589
  325MOL0     H43849   2.589   1.126   8.740 -0.5117 -0.2414 -0.8691
  325MOL0     H43850   2.626   1.245   8.615  1.1566  4.7815  0.6165
  325MOL0     H43851   2.799   1.175   8.866  1.8522  2.8817  1.1968
  325MOL0     H43852   2.831   1.320   8.769  2.3037 -0.2232 -0.1188
  325MOL0     H43853   2.814   1.046   8.643  1.6554 -1.7737  0.0476
  325MOL0     H43854   2.860   1.198   8.576 -2.6742  2.2008  0.8249
  325MOL0     H43855   2.235   1.769   8.611 -0.5792  4.3288 -1.8403
  325MOL0     H43856   2.238   1.890   8.400 -2.4778  2.3677  0.1264
  325MOL0     H43857   2.011   1.985   8.022  0.4383 -0.7745  1.3822
  325MOL0     H43858   2.028   2.163   7.848  1.2706  1.2733  0.3922
  325MOL0     H43859   0.903   2.921   6.977 -1.0499  0.5827  0.3565
  325MOL0     H43860   0.777   3.125   7.073  0.0310  0.2422  2.0211
  325MOL0     H43861   0.614   3.303   7.343 -0.9368  0.1073 -0.4917
  325MOL0     H43862   0.434   3.404   7.457  0.8163 -0.0081  0.5964
  325MOL0     H43863   0.410   3.497   7.721 -0.2395 -2.2026 -1.1197
  325MOL0     H43864   0.286   3.519   7.594 -2.2474 -0.9958  1.0789
  325MOL0     H43865   0.258   3.758   7.731 -0.5913 -0.0607 -0.2781
  325MOL0     H43866   0.301   3.661   7.862 -2.2804  3.3577  0.3646
  325MOL0     H43867   0.092   3.579   7.650 -2.9770 -0.5424  0.2034
  325MOL0     H43868   0.046   3.676   7.790 -0.9870 -1.5617  2.0105
  325MOL0     H43869   0.116   3.390   7.788 -1.9380 -1.5504  0.1169
  325MOL0     H43870   0.145   3.482   7.930  0.1489 -1.9326 -0.4424
  325MOL0     H43871  -0.286   3.438   7.918 -0.6426  1.5612  0.0259
  325MOL0     H43872   0.673   3.731   7.587 -1.2708  1.1577 -1.2977
  325MOL0     H43873   0.986   3.616   7.475 -0.7896 -0.8764  0.5076
  325MOL0     H43874   0.909   3.720   7.341  1.5922 -1.1561 -0.9774
  325MOL0     H43875   0.888   3.759   7.506  3.2229  1.6991 -2.1559
  326MOL0     O43876  10.140   9.323  10.436  0.2929  0.5868  0.7074
  326MOL0     C43877  10.112   9.336  10.313 -0.6166  0.2574 -1.0147
  326MOL0     O43878  10.199   9.382  10.221  0.5567  0.5157  0.5568
  326MOL0     C43879  10.332   9.401  10.258  1.1464  0.0360 -0.3967
  326MOL0     C43880  10.384   9.532  10.280  0.7471  0.3022 -0.5432
  326MOL0     C43881  10.524   9.554  10.308  0.1146 -0.3805  0.3311
  326MOL0     C43882  10.616   9.446  10.293  0.6530  0.6086 -0.3886
  326MOL0     O43883  10.750   9.444  10.331 -0.2778 -0.2504  0.5003
  326MOL0     C43884  10.806   9.554  10.386 -0.2149 -0.8034 -0.3616
  326MOL0     C43885  10.960   9.549  10.375  0.2162  1.0686 -0.2268
  326MOL0     C43886  11.023   9.661  10.453  0.5730 -0.4999 -0.1463
  326MOL0     C43887  11.177   9.654  10.432 -0.6935  1.3587  0.1541
  326MOL0     C43888  11.236   9.781  10.481  0.0940 -0.0941 -0.2710
  326MOL0     C43889  11.203   9.793  10.635 -0.1716  0.1609 -0.0979
  326MOL0     C43890  11.315   9.889  10.696  0.1842 -0.2051  0.4685
  326MOL0     C43891  11.290   9.896  10.846 -0.4772  0.1693  0.8561
  326MOL0     N43892  11.390   9.991  10.905  0.1295  0.6263  0.1730
  326MOL0     C43893  11.397  10.121  10.867 -0.4134 -0.3214  0.1447
  326MOL0     C43894  11.493  10.168  10.939 -0.3577 -0.0140 -0.6101
  326MOL0     C43895  11.531  10.315  10.932 -0.1070  0.5321  0.6989
  326MOL0     C43896  11.675  10.330  10.983 -0.5572 -0.2979  0.2894
  326MOL0     C43897  11.682  10.317  11.134 -0.3391  0.5163 -1.6192
  326MOL0     C43898  11.801  10.387  11.198  0.8233 -0.0428 -0.4518
  326MOL0     O43899  11.924  10.350  11.136 -0.0795  0.3718  0.0170
  326MOL0     C43900  12.041  10.401  11.177 -0.3205  0.4141 -0.1367
  326MOL0     C43901  12.155  10.380  11.089  0.1601 -0.0457  0.5012
  326MOL0     C43902  12.281  10.423  11.125  0.9269 -0.0486  0.4896
  326MOL0     C43903  12.299  10.493  11.244  0.1663  0.2392 -0.8532
  326MOL0     C43904  12.435  10.541  11.277 -0.1252 -0.2567  0.7717
  326MOL0     O43905  12.449  10.547  11.411  0.3928  0.1683  0.1577
  326MOL0     C43906  12.558  10.616  11.461  0.1193  0.4446  0.3419
  326MOL0     C43907  12.552  10.756  11.467  0.4768 -0.1374  0.0846
  326MOL0     C43908  12.651  10.834  11.520  0.7771 -0.0444 -1.4995
  326MOL0     C43909  12.764  10.772  11.575 -0.8755 -0.4625 -0.1392
  326MOL0     O43910  12.875  10.836  11.627 -0.0499 -0.2628  0.5358
  326MOL0     C43911  12.887  10.976  11.611 -0.0186  0.4167 -0.6730
  326MOL0     C43912  13.024  11.012  11.676  1.1411 -0.0955 -0.4688
  326MOL0     C43913  13.069  11.160  11.668 -0.0401  0.8970  0.3514
  326MOL0     C43914  13.169  11.196  11.782 -0.7663 -0.3676  0.0015
  326MOL0     C43915  13.223  11.339  11.769  0.0900 -0.0331 -0.3516
  326MOL0     C43916  13.101  11.434  11.788  0.0070  0.3206 -0.5467
  326MOL0     C43917  13.168  11.562  11.800  0.4395 -0.3023 -0.2978
  326MOL0     C43918  13.066  11.671  11.822  0.3670 -1.1287  0.7532
  326MOL0    Cl43919  13.142  11.836  11.820 -0.3125 -0.1007 -0.3503
  326MOL0     C43920  12.774  10.633  11.557  0.0146 -0.1087 -0.8335
  326MOL0     C43921  12.677  10.554  11.497  0.7656  0.2009  0.5668
  326MOL0     O43922  12.515  10.570  11.191  0.0829  0.1951  0.2183
  326MOL0     C43923  12.192  10.516  11.333  0.3881  0.4332  0.3248
  326MOL0     C43924  12.061  10.460  11.304 -0.1122  0.3226 -0.1085
  326MOL0     N43925  11.553  10.065  11.013 -0.4748 -0.2941 -0.0413
  326MOL0     N43926  11.483   9.959  10.991 -0.3904  0.2485 -0.4969
  326MOL0     C43927  10.561   9.323  10.263 -0.4485  0.0453 -0.3099
  326MOL0     C43928  10.423   9.299  10.253 -0.5447  0.0267 -0.4858
  326MOL0     C43929   9.974   9.308  10.269 -1.0297  0.9081 -0.1699
  326MOL0     C43930   9.898   9.215  10.338  0.0356  0.1239  0.0738
  326MOL0     C43931   9.764   9.194  10.306  0.5943 -0.1469 -0.2241
  326MOL0     C43932   9.703   9.257  10.202 -0.4833 -0.1686 -0.1044
  326MOL0     O43933   9.571   9.237  10.187  0.5394  0.2040 -0.0430
  326MOL0     C43934   9.476   9.339  10.153 -0.6777  0.0422 -0.0854
  326MOL0     C43935   9.333   9.280  10.136  0.3241 -0.4440 -0.0392
  326MOL0     C43936   9.224   9.369  10.073 -0.9069  0.2613 -0.7076
  326MOL0     C43937   9.101   9.297  10.018 -0.4861 -0.8825  0.1426
  326MOL0     C43938   9.134   9.207   9.907  0.3809  0.1940  0.1060
  326MOL0     C43939   9.165   9.133   9.810  0.1889  0.8605 -0.8776
  326MOL0     C43940   9.779   9.346  10.131 -0.2288 -0.0239 -0.1297
  326MOL0     C43941   9.918   9.382  10.160 -0.0884  0.3332 -0.5975
  326MOL0     C43942   9.975   9.499  10.086 -0.5141  0.3208 -0.6396
  326MOL0     H43943  10.313   9.613  10.270  0.4905 -0.0720 -1.9398
  326MOL0     H43944  10.565   9.651  10.331  1.0207 -1.3045  3.0147
  326MOL0     H43945  10.774   9.645  10.335 -2.5308 -2.2523 -1.6645
  326MOL0     H43946  10.782   9.569  10.492  2.4611  0.4216  0.1721
  326MOL0     H43947  10.996   9.548  10.271  0.5624  0.3957 -0.1049
  326MOL0     H43948  10.990   9.450  10.410 -0.0289  0.7813 -0.8020
  326MOL0     H43949  11.007   9.637  10.558 -0.3962 -0.5468 -0.2981
  326MOL0     H43950  10.971   9.755  10.434 -1.3526 -2.0700 -3.5374
  326MOL0     H43951  11.219   9.573  10.492 -3.1779  1.7262  2.5805
  326MOL0     H43952  11.224   9.633  10.336  1.9051  1.3193  1.3625
  326MOL0     H43953  11.344   9.781  10.465 -0.2857  0.1473 -3.2669
  326MOL0     H43954  11.186   9.864  10.431 -0.2959 -0.6622 -0.8451
  326MOL0     H43955  11.103   9.831  10.655 -0.7986 -2.2572  1.7527
  326MOL0     H43956  11.213   9.689  10.667 -1.9808 -0.2066 -0.6435
  326MOL0     H43957  11.317   9.986  10.646 -3.6008 -0.0208  0.3762
  326MOL0     H43958  11.417   9.850  10.684 -0.0455 -1.9472  3.1925
  326MOL0     H43959  11.187   9.929  10.866 -2.0107 -1.5610 -3.1134
  326MOL0     H43960  11.304   9.793  10.882  1.7401  0.3175  0.5463
  326MOL0     H43961  11.334  10.177  10.799  4.3128  1.3362 -3.4578
  326MOL0     H43962  11.541  10.352  10.829 -0.5819  2.7517  1.3951
  326MOL0     H43963  11.469  10.379  10.995 -2.2618 -1.0816  0.3286
  326MOL0     H43964  11.732  10.250  10.937  0.6438  1.6954 -1.8809
  326MOL0     H43965  11.718  10.425  10.949 -2.6955  0.8618  0.5833
  326MOL0     H43966  11.679  10.209  11.147 -2.2194  0.5458 -1.5503
  326MOL0     H43967  11.592  10.358  11.182  0.4834  0.8132 -0.2443
  326MOL0     H43968  11.801  10.357  11.304  2.0468  0.5671 -0.2575
  326MOL0     H43969  11.778  10.494  11.199 -1.2428 -0.4287 -1.3644
  326MOL0     H43970  12.136  10.341  10.989 -2.5658  2.1625  0.0095
  326MOL0     H43971  12.362  10.409  11.054  1.7223  0.5412  1.2589
  326MOL0     H43972  12.462  10.797  11.422  0.9361 -1.3768 -2.0982
  326MOL0     H43973  12.634  10.941  11.507 -1.0456 -0.3584 -2.0010
  326MOL0     H43974  12.888  10.989  11.502 -1.7591 -0.7448 -0.8493
  326MOL0     H43975  12.817  11.041  11.664 -0.8883 -1.5748  0.7052
  326MOL0     H43976  13.041  10.985  11.781  6.4609  0.8375 -0.8061
  326MOL0     H43977  13.085  10.934  11.629  1.9785 -0.4151  1.0753
  326MOL0     H43978  13.119  11.174  11.572 -1.6607  1.8883 -0.3779
  326MOL0     H43979  12.973  11.212  11.672  0.2527  1.5053 -0.3513
  326MOL0     H43980  13.244  11.116  11.784 -0.7675 -0.3708 -0.0703
  326MOL0     H43981  13.130  11.185  11.884 -1.4678  2.5696  0.1497
  326MOL0     H43982  13.272  11.351  11.671  0.8346 -0.1393  0.0029
  326MOL0     H43983  13.291  11.361  11.851 -1.1324 -2.3219  1.3973
  326MOL0     H43984  13.043  11.447  11.697 -0.7395  1.2872  0.0453
  326MOL0     H43985  13.028  11.399  11.862 -1.3429  4.3002  0.2795
  326MOL0     H43986  13.233  11.594  11.718 -1.5484  0.5004 -1.6292
  326MOL0     H43987  13.219  11.559  11.897  1.1990  2.7925 -0.4966
  326MOL0     H43988  12.999  11.669  11.735  2.9237 -0.2554 -1.3453
  326MOL0     H43989  12.991  11.651  11.899 -1.8485  0.5130 -0.8362
  326MOL0     H43990  12.868  10.598  11.601  1.7297  2.3328 -2.3437
  326MOL0     H43991  12.700  10.450  11.476  0.7025  0.3051 -0.0484
  326MOL0     H43992  12.197  10.574  11.425 -1.2980 -1.6489  1.8545
  326MOL0     H43993  11.986  10.472  11.382  1.9867 -4.3908  3.1312
  326MOL0     H43994  10.615   9.231  10.244 -1.8513 -0.4903 -1.8937
  326MOL0     H43995  10.390   9.197  10.238  0.2699 -0.6609  1.9136
  326MOL0     H43996   9.934   9.154  10.420 -2.5320 -1.2043  0.3020
  326MOL0     H43997   9.703   9.128  10.368  1.3973 -0.4735  0.2217
  326MOL0     H43998   9.518   9.389  10.064 -0.6562 -1.0215 -0.6856
  326MOL0     H43999   9.468   9.413  10.233 -0.5399  0.9536 -0.8847
  326MOL0     H44000   9.299   9.253  10.236 -0.2508 -0.8951 -0.3490
  326MOL0     H44001   9.337   9.194  10.069 -2.0278 -0.9801  0.3980
  326MOL0     H44002   9.273   9.427   9.995  0.7450 -0.5963 -0.3371
  326MOL0     H44003   9.188   9.449  10.138 -0.6615 -0.0034 -0.2448
  326MOL0     H44004   9.042   9.246  10.096 -1.0025  0.1587  0.4498
  326MOL0     H44005   9.039   9.382   9.990  0.4881 -0.2965 -0.2461
  326MOL0     H44006   9.200   9.077   9.727  2.6951 -0.4624  0.9448
  326MOL0     H44007   9.734   9.388  10.042 -0.9696  0.4263  0.4390
  326MOL0     H44008  10.032   9.446  10.010 -0.0827 -0.1906  0.0278
  326MOL0     H44009   9.892   9.563  10.054 -2.6114 -2.2331 -0.6432
  326MOL0     H44010  10.036   9.555  10.158 -1.7645 -1.6196  2.0885
  327MOL0     O44011   7.818   9.133  11.340  0.3597  0.6653 -0.2912
  327MOL0     C44012   7.851   9.255  11.339  0.4500 -0.2404  0.3280
  327MOL0     O44013   7.776   9.355  11.277  0.0342  0.1010 -0.9101
  327MOL0     C44014   7.654   9.314  11.229 -0.2083  0.6743 -0.3818
  327MOL0     C44015   7.630   9.346  11.095 -0.3795 -0.1763 -0.8916
  327MOL0     C44016   7.511   9.317  11.035  0.1323  0.5262  0.0890
  327MOL0     C44017   7.408   9.256  11.112 -0.0355 -0.3396  0.5852
  327MOL0     O44018   7.281   9.240  11.071  0.3684 -0.0659 -0.6021
  327MOL0     C44019   7.233   9.289  10.946 -0.7891 -0.6651  0.4568
  327MOL0     C44020   7.120   9.189  10.911  0.8342  1.0072  0.1836
  327MOL0     C44021   7.146   9.134  10.773  0.4281  0.0943 -0.2775
  327MOL0     C44022   7.044   9.026  10.737  0.5205 -1.0629  0.4990
  327MOL0     C44023   6.900   9.084  10.717 -0.4161  0.2070  0.2035
  327MOL0     C44024   6.889   9.167  10.585 -0.5500  0.1193 -0.6549
  327MOL0     C44025   6.890   9.077  10.452 -0.1150 -0.1130 -0.3475
  327MOL0     C44026   6.787   9.127  10.346 -0.2197  0.1887  0.4090
  327MOL0     N44027   6.772   9.010  10.254  0.4632  0.0554  0.3759
  327MOL0     C44028   6.657   8.958  10.202  0.5626 -0.1863 -0.1571
  327MOL0     C44029   6.696   8.892  10.084  1.7253  0.0754 -0.3996
  327MOL0     C44030   6.586   8.829   9.992 -0.7454 -1.0142  0.1143
  327MOL0     C44031   6.648   8.797   9.857  1.0758  0.2607  1.0038
  327MOL0     C44032   6.566   8.694   9.764 -0.0726 -0.3192  0.0437
  327MOL0     C44033   6.594   8.730   9.618 -0.3604  0.4865  0.8457
  327MOL0     O44034   6.721   8.677   9.564  0.3439  0.5174  0.6097
  327MOL0     C44035   6.823   8.763   9.540 -0.1398 -1.2616 -0.8295
  327MOL0     C44036   6.957   8.719   9.563 -0.6052 -0.5649  0.4620
  327MOL0     C44037   7.066   8.796   9.536  0.1348 -0.0580 -0.7151
  327MOL0     C44038   7.043   8.928   9.497 -0.9455  0.4893 -0.3581
  327MOL0     C44039   7.154   9.013   9.467 -0.1839  0.3546  0.2726
  327MOL0     O44040   7.277   8.973   9.521  0.7790 -0.3419  0.4130
  327MOL0     C44041   7.389   8.988   9.442  0.2443 -0.4707  0.1691
  327MOL0     C44042   7.430   8.882   9.356  0.1515 -0.3579  0.0562
  327MOL0     C44043   7.543   8.900   9.271  0.5362 -0.2055  0.4178
  327MOL0     C44044   7.623   9.011   9.288 -0.2449 -0.4214 -0.1880
  327MOL0     O44045   7.732   9.021   9.208  0.2671 -0.5289 -0.0052
  327MOL0     C44046   7.849   9.083   9.260 -0.0639 -0.3927 -0.1685
  327MOL0     C44047   7.978   9.040   9.190  0.3112  0.0093  0.3413
  327MOL0     C44048   8.099   9.127   9.212 -0.0610  1.5020 -0.2506
  327MOL0     C44049   8.216   9.094   9.119  0.3771 -0.5695  0.1906
  327MOL0     C44050   8.332   9.195   9.130 -0.7384 -0.1497  0.4945
  327MOL0     C44051   8.424   9.174   9.256  0.1202  0.0370  0.0825
  327MOL0     C44052   8.550   9.261   9.234 -0.1286 -0.2076  0.5393
  327MOL0     C44053   8.673   9.188   9.181  0.1615 -0.0732 -0.5969
  327MOL0    Cl44054   8.789   9.292   9.091 -0.1019 -0.3908  0.3980
  327MOL0     C44055   7.587   9.109   9.378 -0.7212 -0.1634  0.0555
  327MOL0     C44056   7.470   9.100   9.449 -0.6569  0.3886 -0.4561
  327MOL0     O44057   7.143   9.106   9.390  0.0655  0.3892  0.5786
  327MOL0     C44058   6.918   8.970   9.465  0.3703 -0.4870 -0.7365
  327MOL0     C44059   6.805   8.893   9.493 -0.5502 -0.6398 -0.8285
  327MOL0     N44060   6.834   8.901  10.072 -0.5622  0.2196 -0.0386
  327MOL0     N44061   6.876   8.978  10.173  0.3700 -0.3723 -0.0299
  327MOL0     C44062   7.434   9.211  11.242 -0.5328 -0.0332  0.1227
  327MOL0     C44063   7.560   9.243  11.298  0.4849  0.3391 -0.6511
  327MOL0     C44064   7.981   9.297  11.392  0.0400  0.2747  0.3821
  327MOL0     C44065   8.004   9.433  11.413 -0.1247  0.3063  1.2705
  327MOL0     C44066   8.113   9.486  11.473 -0.8939  0.6962  0.4212
  327MOL0     C44067   8.204   9.400  11.538  0.3386  0.7107  0.6329
  327MOL0     O44068   8.319   9.442  11.605  0.4421  0.0863 -0.7433
  327MOL0     C44069   8.344   9.577  11.594  0.1263 -0.1180 -0.3834
  327MOL0     C44070   8.485   9.609  11.648 -0.4092  0.2187 -0.2602
  327MOL0     C44071   8.498   9.584  11.802  0.6584  0.0190  0.1499
  327MOL0     C44072   8.647   9.593  11.839  0.3294 -0.6845 -0.0276
  327MOL0     C44073   8.714   9.468  11.801  0.8546 -0.6977 -0.1062
  327MOL0     C44074   8.768   9.358  11.791 -0.5611 -0.9902 -0.0212
  327MOL0     C44075   8.179   9.259  11.523  0.5041 -0.1643 -0.7720
  327MOL0     C44076   8.080   9.203  11.441  0.4526 -0.0801 -0.0327
  327MOL0     C44077   8.081   9.056  11.417 -0.9670 -0.0347 -0.2884
  327MOL0     H44078   7.699   9.409  11.040  0.9139 -0.8503 -0.0918
  327MOL0     H44079   7.496   9.356  10.935  1.5131 -2.7103 -1.5469
  327MOL0     H44080   7.204   9.394  10.952  1.1958  0.2083 -2.6347
  327MOL0     H44081   7.312   9.277  10.872 -0.3455 -0.6014  0.9177
  327MOL0     H44082   7.017   9.226  10.911  0.4264  0.1428 -2.8813
  327MOL0     H44083   7.117   9.109  10.986 -2.0007  1.6469  0.8800
  327MOL0     H44084   7.240   9.080  10.786 -2.3979 -5.4486 -0.1123
  327MOL0     H44085   7.148   9.213  10.697 -0.2303 -0.1175 -0.5220
  327MOL0     H44086   7.089   8.976  10.651  0.3595 -2.8031  1.3700
  327MOL0     H44087   7.041   8.944  10.810 -1.6677 -2.3619 -0.9248
  327MOL0     H44088   6.831   8.999  10.721  0.2432 -0.2962  2.4462
  327MOL0     H44089   6.867   9.150  10.797 -2.0883 -1.4508  0.9727
  327MOL0     H44090   6.792   9.216  10.579 -0.1091  0.9986 -0.6650
  327MOL0     H44091   6.966   9.244  10.580  0.2886 -0.4542  1.9218
  327MOL0     H44092   6.861   8.976  10.483  0.7056 -0.5207 -0.8630
  327MOL0     H44093   6.988   9.060  10.406 -1.1635 -0.2241 -2.6457
  327MOL0     H44094   6.696   9.159  10.397 -0.2676  1.5572 -0.5065
  327MOL0     H44095   6.833   9.215  10.301 -3.6320  1.0823 -1.7147
  327MOL0     H44096   6.554   8.980  10.227  0.4109  1.1259 -1.7365
  327MOL0     H44097   6.549   8.739  10.042  0.9672 -1.7958  0.0802
  327MOL0     H44098   6.497   8.890   9.976 -0.6097 -0.5358  1.1046
  327MOL0     H44099   6.657   8.888   9.796 -0.6519 -1.5382 -2.1924
  327MOL0     H44100   6.747   8.752   9.869  0.9449 -0.2818  0.1084
  327MOL0     H44101   6.463   8.679   9.797  1.2025 -2.8376  3.3949
  327MOL0     H44102   6.618   8.602   9.794 -0.0518 -0.0466  0.8692
  327MOL0     H44103   6.565   8.835   9.603 -0.4084  0.5610  1.4023
  327MOL0     H44104   6.512   8.686   9.560 -0.9110  2.6722 -0.1286
  327MOL0     H44105   6.980   8.618   9.595 -0.9223  0.0168  2.7337
  327MOL0     H44106   7.167   8.759   9.554 -0.0454  0.5032  1.9148
  327MOL0     H44107   7.370   8.794   9.338  0.3757  0.1192 -3.7440
  327MOL0     H44108   7.576   8.816   9.210  0.4523 -0.8977  1.2882
  327MOL0     H44109   7.841   9.192   9.260  0.5817 -0.3282  0.6219
  327MOL0     H44110   7.860   9.049   9.364  1.4302  0.5018  0.0030
  327MOL0     H44111   8.010   8.941   9.224 -1.3278 -0.0799  1.6940
  327MOL0     H44112   7.955   9.032   9.083 -0.2743 -0.8705  0.5202
  327MOL0     H44113   8.067   9.232   9.204  2.7057  2.7745  2.8428
  327MOL0     H44114   8.130   9.103   9.314 -1.6875 -1.4659 -0.3485
  327MOL0     H44115   8.174   9.088   9.019  0.9890 -0.6855 -0.0637
  327MOL0     H44116   8.258   8.994   9.132 -0.8870 -1.2487 -0.7487
  327MOL0     H44117   8.305   9.301   9.125 -1.5789 -0.3893 -0.5352
  327MOL0     H44118   8.396   9.182   9.042 -0.2049  1.0349  0.6906
  327MOL0     H44119   8.360   9.196   9.342 -1.7678 -1.0577 -0.9707
  327MOL0     H44120   8.435   9.066   9.265 -2.2453 -0.2299  0.4362
  327MOL0     H44121   8.580   9.321   9.321  0.4175 -2.0216  1.6766
  327MOL0     H44122   8.537   9.334   9.154  2.3736 -2.1001 -1.7893
  327MOL0     H44123   8.710   9.136   9.271  1.3075 -1.5955 -1.8870
  327MOL0     H44124   8.628   9.115   9.114  2.4229 -2.1177 -0.0509
  327MOL0     H44125   7.666   9.183   9.390  1.7325 -2.3172 -1.7125
  327MOL0     H44126   7.447   9.173   9.525 -0.8275  0.6780 -0.7831
  327MOL0     H44127   6.888   9.066   9.425  2.2498  0.3498 -0.2723
  327MOL0     H44128   6.703   8.930   9.485 -0.9860 -0.9350  2.1579
  327MOL0     H44129   7.351   9.172  11.299 -1.2974  1.6906  0.2279
  327MOL0     H44130   7.573   9.214  11.402 -0.7296 -2.2618 -1.1464
  327MOL0     H44131   7.941   9.509  11.370  1.5651  1.2602  0.3730
  327MOL0     H44132   8.130   9.593  11.475 -1.7822  0.9900 -2.7679
  327MOL0     H44133   8.284   9.635  11.665  0.9057 -0.2393  0.3953
  327MOL0     H44134   8.343   9.613  11.491  2.8911 -0.2490 -0.5523
  327MOL0     H44135   8.500   9.714  11.622 -2.0239  0.2035 -1.4653
  327MOL0     H44136   8.551   9.538  11.598  1.4168 -0.3166  2.6967
  327MOL0     H44137   8.459   9.487  11.836  1.7408 -0.5901 -0.3075
  327MOL0     H44138   8.447   9.664  11.856 -1.8180  0.0576 -2.0449
  327MOL0     H44139   8.707   9.667  11.785  1.3153 -1.9388 -0.7165
  327MOL0     H44140   8.664   9.605  11.947  0.0208 -3.3346  0.3923
  327MOL0     H44141   8.809   9.259  11.791 -2.0970 -1.6821 -1.5804
  327MOL0     H44142   8.250   9.193  11.571 -1.4788 -1.7003  0.1799
  327MOL0     H44143   8.179   9.010  11.431 -1.6825 -1.4055  0.3704
  327MOL0     H44144   8.017   9.020  11.498  1.6615  0.2684  2.0763
  327MOL0     H44145   8.036   9.012  11.328 -1.4147 -0.7930  0.3026
  328MOL0     O44146   3.640   9.337   1.331  0.0020  0.8714 -0.2479
  328MOL0     C44147   3.537   9.400   1.303 -0.9547 -0.1928  0.0258
  328MOL0     O44148   3.534   9.514   1.232 -0.4561 -0.3996 -0.5761
  328MOL0     C44149   3.659   9.568   1.201 -0.3149  0.4353 -0.5930
  328MOL0     C44150   3.758   9.593   1.298  0.2760 -0.1445  0.0483
  328MOL0     C44151   3.870   9.658   1.256 -0.2753 -0.2235 -0.5473
  328MOL0     C44152   3.897   9.672   1.128 -0.5554 -0.1945 -0.1587
  328MOL0     O44153   4.020   9.737   1.111 -0.4831  0.3288  0.3435
  328MOL0     C44154   4.025   9.832   1.002 -0.0621 -0.4955 -0.2404
  328MOL0     C44155   4.164   9.822   0.946  0.5111  0.5436 -0.6253
  328MOL0     C44156   4.268   9.872   1.046  0.3068 -0.5142  0.1468
  328MOL0     C44157   4.403   9.797   1.017 -0.4588  0.5420  1.0042
  328MOL0     C44158   4.523   9.877   1.058 -0.7106 -0.7278  0.2411
  328MOL0     C44159   4.659   9.810   1.030  0.1331  0.2526  0.0357
  328MOL0     C44160   4.769   9.893   1.085  0.6749  0.8191 -0.3307
  328MOL0     C44161   4.786  10.022   1.008 -0.4170 -0.1321 -0.2340
  328MOL0     N44162   4.919  10.071   1.025 -1.0913  0.4485  0.3461
  328MOL0     C44163   4.960  10.154   1.124 -1.2896 -0.1353 -0.1420
  328MOL0     C44164   5.090  10.174   1.109 -0.1913  0.8498  0.6632
  328MOL0     C44165   5.162  10.246   1.207  0.1854 -0.0414 -0.5202
  328MOL0     C44166   5.221  10.157   1.317 -0.2798  0.4728 -0.0091
  328MOL0     C44167   5.274  10.232   1.434 -0.4848 -0.6414 -0.0509
  328MOL0     C44168   5.317  10.132   1.556  0.3912  0.0997 -0.7650
  328MOL0     O44169   5.433  10.054   1.512  0.0610  0.9892 -0.3948
  328MOL0     C44170   5.532  10.014   1.598 -0.1814  0.1477 -0.0731
  328MOL0     C44171   5.577  10.089   1.703 -0.5820 -0.4675 -1.1572
  328MOL0     C44172   5.685  10.051   1.777 -0.8980 -0.5476  0.4066
  328MOL0     C44173   5.747   9.926   1.755 -0.1661 -0.2738 -0.2889
  328MOL0     C44174   5.862   9.887   1.849 -0.1543  0.5222  0.7541
  328MOL0     O44175   5.904   9.978   1.940  0.1285  0.6052  0.6028
  328MOL0     C44176   6.012   9.954   2.015 -0.0990  0.4155  0.7234
  328MOL0     C44177   5.994   9.979   2.149  0.1893 -0.1565  0.1951
  328MOL0     C44178   6.102   9.944   2.232 -0.0679 -0.4810 -0.9354
  328MOL0     C44179   6.214   9.881   2.179 -0.3835 -1.0458 -0.1781
  328MOL0     O44180   6.313   9.839   2.267  0.7946  0.5482  0.1523
  328MOL0     C44181   6.427   9.764   2.216 -0.2170  0.2281 -0.3711
  328MOL0     C44182   6.489   9.662   2.314 -0.2523 -0.4159  0.7550
  328MOL0     C44183   6.520   9.728   2.452 -0.4376  0.5332 -0.1602
  328MOL0     C44184   6.605   9.631   2.539 -0.6049 -0.1047 -0.4564
  328MOL0     C44185   6.637   9.690   2.678  0.1168  0.3023 -0.1544
  328MOL0     C44186   6.704   9.597   2.779  0.1039  0.1319 -0.5999
  328MOL0     C44187   6.763   9.667   2.899  0.3850 -0.2590  0.1074
  328MOL0     C44188   6.659   9.736   2.995  0.2314  0.1022  1.1380
  328MOL0    Cl44189   6.596   9.619   3.111  0.3213  0.2815  0.0491
  328MOL0     C44190   6.238   9.876   2.041 -0.1323  0.7863 -0.7418
  328MOL0     C44191   6.138   9.912   1.957  0.6624 -0.3174  0.1585
  328MOL0     O44192   5.916   9.778   1.820 -0.0792  0.6667  0.0203
  328MOL0     C44193   5.707   9.850   1.644  0.1785 -0.4891  0.5750
  328MOL0     C44194   5.598   9.891   1.569 -0.5287  0.6625 -0.3402
  328MOL0     N44195   5.128  10.098   1.002 -0.0113 -0.0507  0.5467
  328MOL0     N44196   5.028  10.046   0.946 -0.1633 -0.8893  0.5710
  328MOL0     C44197   3.809   9.626   1.024  0.1103 -0.0059  0.0518
  328MOL0     C44198   3.690   9.575   1.065 -0.0202  0.0118 -1.1647
  328MOL0     C44199   3.399   9.357   1.347 -0.7349  1.1317 -0.2208
  328MOL0     C44200   3.291   9.422   1.290 -0.2374 -0.3257 -0.8430
  328MOL0     C44201   3.157   9.397   1.326 -0.1883  0.3180 -0.3099
  328MOL0     C44202   3.124   9.309   1.435 -0.4650 -0.6347 -0.7626
  328MOL0     O44203   3.002   9.285   1.485 -0.1410  0.0545 -0.6121
  328MOL0     C44204   2.893   9.346   1.416  0.2396 -0.3186  0.8799
  328MOL0     C44205   2.768   9.282   1.472 -0.5238 -0.2220 -0.3222
  328MOL0     C44206   2.770   9.137   1.438 -0.1144 -0.6223 -0.2433
  328MOL0     C44207   2.668   9.059   1.509 -0.0766  0.4554 -0.4711
  328MOL0     C44208   2.654   8.925   1.441 -0.3372 -0.1109 -0.9143
  328MOL0     C44209   2.642   8.829   1.382 -0.3947  0.0183  0.6233
  328MOL0     C44210   3.238   9.236   1.480  0.4252  0.1594 -0.2457
  328MOL0     C44211   3.375   9.250   1.441  0.4605 -0.3837 -1.0707
  328MOL0     C44212   3.483   9.162   1.500 -0.2906  0.4179  0.2258
  328MOL0     H44213   3.727   9.574   1.400  0.7610 -1.4539 -0.0254
  328MOL0     H44214   3.939   9.707   1.324 -0.4458 -0.4147 -0.2278
  328MOL0     H44215   3.961   9.795   0.921  0.4896  0.7538 -1.2924
  328MOL0     H44216   4.009   9.931   1.045 -0.0917 -1.0302  1.0110
  328MOL0     H44217   4.175   9.879   0.854  0.1362 -0.6498 -1.4274
  328MOL0     H44218   4.180   9.717   0.922 -1.3858  0.6755 -2.8480
  328MOL0     H44219   4.229   9.868   1.149 -1.1435 -1.4610 -0.3917
  328MOL0     H44220   4.301   9.972   1.020 -2.1952 -0.1803 -2.2304
  328MOL0     H44221   4.404   9.699   1.067 -1.9483 -1.0431 -1.8181
  328MOL0     H44222   4.411   9.780   0.909 -0.1247 -0.5099  1.1791
  328MOL0     H44223   4.529   9.974   1.009 -1.7694 -1.0852 -0.6324
  328MOL0     H44224   4.517   9.900   1.165  4.0203  0.0994  0.5550
  328MOL0     H44225   4.675   9.719   1.088  0.4323  1.8010  2.5298
  328MOL0     H44226   4.666   9.788   0.923  0.5352  0.4160  0.0238
  328MOL0     H44227   4.863   9.837   1.090 -1.5003 -3.1659 -0.2005
  328MOL0     H44228   4.758   9.908   1.192  2.5318 -0.0233  0.0210
  328MOL0     H44229   4.761  10.000   0.903 -0.0062  0.5192 -0.4769
  328MOL0     H44230   4.717  10.096   1.049 -0.0784  0.7884 -1.2613
  328MOL0     H44231   4.896  10.195   1.201  1.8913  0.7712  2.1939
  328MOL0     H44232   5.252  10.291   1.164  0.6052  1.5578  1.7947
  328MOL0     H44233   5.093  10.315   1.258 -0.2598 -1.1143  0.3493
  328MOL0     H44234   5.144  10.102   1.371 -1.0601  0.4075 -1.1557
  328MOL0     H44235   5.295  10.085   1.281 -2.3054 -2.5581  1.5108
  328MOL0     H44236   5.192  10.300   1.458 -1.9377 -1.8805 -1.3268
  328MOL0     H44237   5.364  10.292   1.413 -2.3216  1.0573 -4.1606
  328MOL0     H44238   5.231  10.067   1.577 -0.3057  1.8073  2.3995
  328MOL0     H44239   5.341  10.196   1.642  1.4868 -1.0012 -0.2238
  328MOL0     H44240   5.528  10.180   1.736 -2.1870 -2.1217  1.3365
  328MOL0     H44241   5.713  10.102   1.868  1.0739 -4.1826  2.0801
  328MOL0     H44242   5.912  10.032   2.197 -0.0624 -0.7949  0.4819
  328MOL0     H44243   6.096   9.963   2.339  2.5625  0.8446 -0.9388
  328MOL0     H44244   6.423   9.708   2.122  1.1996 -2.4749  1.0328
  328MOL0     H44245   6.501   9.842   2.199  0.9529 -0.5635  0.8584
  328MOL0     H44246   6.420   9.580   2.333  0.4294 -1.4535 -1.0257
  328MOL0     H44247   6.577   9.615   2.268  2.4947  2.9458  2.0270
  328MOL0     H44248   6.573   9.822   2.437  1.5417 -0.9239 -3.5044
  328MOL0     H44249   6.426   9.746   2.505 -0.5136 -0.7920  0.1921
  328MOL0     H44250   6.692   9.606   2.477 -0.8777  0.7501 -1.2026
  328MOL0     H44251   6.557   9.538   2.571  1.3551 -0.4120  1.9544
  328MOL0     H44252   6.541   9.717   2.725 -0.2243  1.1485 -1.2819
  328MOL0     H44253   6.700   9.778   2.667  0.9571  0.0084  1.9401
  328MOL0     H44254   6.625   9.527   2.807  0.2395  0.2150 -0.0005
  328MOL0     H44255   6.788   9.543   2.735 -0.4447 -1.5781  0.3759
  328MOL0     H44256   6.821   9.749   2.857  2.5940 -1.9879 -0.4011
  328MOL0     H44257   6.824   9.594   2.952  0.2936 -3.0742 -3.2919
  328MOL0     H44258   6.697   9.810   3.066 -0.5497  0.2607  1.4053
  328MOL0     H44259   6.578   9.787   2.943  0.7585 -1.3282 -1.2176
  328MOL0     H44260   6.333   9.851   1.996  1.3416  0.9046  2.0723
  328MOL0     H44261   6.139   9.893   1.850 -1.9381 -1.2399  0.2130
  328MOL0     H44262   5.757   9.756   1.624  1.9946  0.8479 -1.5707
  328MOL0     H44263   5.569   9.842   1.477  1.4001 -3.0469  0.8427
  328MOL0     H44264   3.828   9.628   0.917  1.4458 -2.1566  0.1907
  328MOL0     H44265   3.609   9.543   0.999 -2.2083 -2.1432  2.2078
  328MOL0     H44266   3.305   9.503   1.219 -3.4556 -0.3067 -1.6001
  328MOL0     H44267   3.086   9.456   1.269  1.8836  2.6452 -0.6206
  328MOL0     H44268   2.897   9.319   1.310 -1.5594  1.1851  0.3661
  328MOL0     H44269   2.884   9.454   1.435 -0.2288 -0.1979  0.0264
  328MOL0     H44270   2.681   9.338   1.435 -0.8415  0.4270  1.3413
  328MOL0     H44271   2.773   9.287   1.581 -0.5915 -0.6535 -0.2949
  328MOL0     H44272   2.869   9.105   1.472  1.2909  4.4059  1.2891
  328MOL0     H44273   2.762   9.126   1.329 -0.1482 -0.2062 -0.2846
  328MOL0     H44274   2.677   9.054   1.618 -0.2852  3.3381 -0.2262
  328MOL0     H44275   2.572   9.102   1.478  0.3531  0.1461 -2.3843
  328MOL0     H44276   2.631   8.739   1.325 -0.9899  0.1150  0.5803
  328MOL0     H44277   3.208   9.152   1.541 -1.9869 -0.7813 -2.5285
  328MOL0     H44278   3.448   9.073   1.552  0.6789 -0.3533 -0.4113
  328MOL0     H44279   3.545   9.113   1.425  0.9375 -1.9319  2.6155
  328MOL0     H44280   3.530   9.226   1.575 -0.4635 -0.7599  1.3780
  329MOL0     O44281   3.868   6.415  11.347  0.4424 -0.7886 -0.6351
  329MOL0     C44282   3.788   6.325  11.329  0.2484 -0.2099 -0.3966
  329MOL0     O44283   3.802   6.232  11.237 -0.0243  0.8008  0.3172
  329MOL0     C44284   3.871   6.262  11.122  0.1079 -0.0218  0.6322
  329MOL0     C44285   3.803   6.306  11.002  0.2516 -0.4583 -0.5780
  329MOL0     C44286   3.874   6.327  10.887 -0.3303 -0.3593  0.2425
  329MOL0     C44287   4.017   6.297  10.883  0.5679 -0.4569 -0.5981
  329MOL0     O44288   4.080   6.329  10.766  0.4277  0.0532  0.2834
  329MOL0     C44289   4.229   6.312  10.752  0.2256  0.2464  0.4825
  329MOL0     C44290   4.315   6.436  10.781  0.6658 -1.0491 -0.2836
  329MOL0     C44291   4.337   6.532  10.655  0.1543 -0.0427  0.1514
  329MOL0     C44292   4.407   6.655  10.706 -0.1693 -0.3864  0.2626
  329MOL0     C44293   4.432   6.763  10.602 -0.3097 -0.0987 -0.8592
  329MOL0     C44294   4.484   6.901  10.663  0.2935  0.2802 -0.6358
  329MOL0     C44295   4.468   7.026  10.574  0.8905 -0.1822 -0.1325
  329MOL0     C44296   4.580   7.046  10.468  0.2978  0.4234 -0.0050
  329MOL0     N44297   4.712   7.045  10.540 -0.1862  0.0333  0.7434
  329MOL0     C44298   4.739   7.113  10.658  0.4755 -0.3381  1.0724
  329MOL0     C44299   4.854   7.060  10.696  0.1525  1.1818 -0.1726
  329MOL0     C44300   4.954   7.090  10.798  0.3241 -0.2166 -1.1976
  329MOL0     C44301   5.025   7.224  10.763  0.1077 -0.1729  0.6665
  329MOL0     C44302   5.134   7.275  10.854 -1.0710  0.9343  0.6248
  329MOL0     C44303   5.254   7.184  10.872 -0.2212  0.0136  0.4348
  329MOL0     O44304   5.338   7.175  10.756  0.3229  0.4203  0.4453
  329MOL0     C44305   5.476   7.166  10.786 -0.0086 -0.1188  0.5788
  329MOL0     C44306   5.550   7.265  10.724 -0.0999 -0.7958 -0.5747
  329MOL0     C44307   5.691   7.274  10.731 -0.1054 -0.2198 -1.1452
  329MOL0     C44308   5.765   7.171  10.801  0.4911  0.6408 -0.2390
  329MOL0     C44309   5.916   7.176  10.791  0.3356 -0.9802 -0.9570
  329MOL0     O44310   5.966   7.292  10.741 -0.4127 -0.8045 -0.6665
  329MOL0     C44311   6.092   7.301  10.677  0.6462 -0.0500  0.3196
  329MOL0     C44312   6.169   7.413  10.710  0.3972  0.1323  0.5847
  329MOL0     C44313   6.300   7.430  10.648 -0.2358 -0.6550  0.9414
  329MOL0     C44314   6.345   7.342  10.548  0.9486  0.6514 -0.3805
  329MOL0     O44315   6.452   7.383  10.474  0.2066  0.3893  0.2664
  329MOL0     C44316   6.545   7.287  10.438  0.5000  0.1925  0.1565
  329MOL0     C44317   6.676   7.361  10.416 -0.0535 -0.3949 -0.8946
  329MOL0     C44318   6.798   7.267  10.403  0.4098  0.8042  0.5192
  329MOL0     C44319   6.922   7.360  10.408  0.3619 -0.3012 -1.2074
  329MOL0     C44320   7.044   7.292  10.351  0.0038 -0.4602  0.3565
  329MOL0     C44321   7.149   7.397  10.329 -0.2969  0.3326 -0.5267
  329MOL0     C44322   7.275   7.322  10.288  0.5457  0.2988 -0.5782
  329MOL0     C44323   7.369   7.447  10.267  0.0091  0.8624  0.6242
  329MOL0    Cl44324   7.513   7.400  10.170  0.1530  0.4959  0.3654
  329MOL0     C44325   6.263   7.235  10.515 -0.3937 -0.5357  0.3642
  329MOL0     C44326   6.144   7.214  10.577 -0.3777 -0.0545 -0.2976
  329MOL0     O44327   5.976   7.090  10.850 -0.2880  0.1493 -0.9407
  329MOL0     C44328   5.686   7.059  10.850 -0.8100 -0.3580  1.2989
  329MOL0     C44329   5.547   7.062  10.846  0.3616 -0.0514 -0.3646
  329MOL0     N44330   4.881   6.958  10.615  0.8421  0.4881  0.4969
  329MOL0     N44331   4.803   6.947  10.514 -0.1762 -0.4020  0.1518
  329MOL0     C44332   4.083   6.261  11.004 -0.0285  0.8105 -0.3962
  329MOL0     C44333   4.011   6.243  11.118  0.1735  0.0438 -0.4366
  329MOL0     C44334   3.680   6.297  11.420  0.0486  0.0069 -0.8944
  329MOL0     C44335   3.631   6.166  11.427 -0.7166 -0.0079 -0.4097
  329MOL0     C44336   3.518   6.132  11.508  0.3851 -0.4439 -0.2988
  329MOL0     C44337   3.465   6.224  11.602 -0.7236  0.1008 -0.7089
  329MOL0     O44338   3.375   6.173  11.695 -0.4260 -0.6202  0.0711
  329MOL0     C44339   3.272   6.257  11.744 -0.3711 -0.2644 -0.4988
  329MOL0     C44340   3.152   6.192  11.819  0.0058 -0.1026 -0.0993
  329MOL0     C44341   3.181   6.117  11.951  0.0790  0.0363 -0.2190
  329MOL0     C44342   3.081   6.145  12.065  0.6783 -0.5557  0.3371
  329MOL0     C44343   3.085   6.061  12.186  0.0921  0.0152 -0.8195
  329MOL0     C44344   3.096   5.986  12.285 -0.5324 -0.6096 -0.0426
  329MOL0     C44345   3.531   6.342  11.607  0.8014 -0.8635  0.2888
  329MOL0     C44346   3.620   6.393  11.508  0.2019  0.0141 -0.1298
  329MOL0     C44347   3.652   6.545  11.520  0.1018  0.5763  0.1296
  329MOL0     H44348   3.699   6.334  11.006  0.9343  2.3715 -0.6848
  329MOL0     H44349   3.834   6.374  10.798  0.2002  1.1172  0.7551
  329MOL0     H44350   4.272   6.233  10.814 -4.3012 -1.8639  1.3304
  329MOL0     H44351   4.260   6.281  10.652  0.9975  0.2225  0.7207
  329MOL0     H44352   4.413   6.401  10.817  1.1891  0.3325 -0.2729
  329MOL0     H44353   4.259   6.491  10.857 -2.6596  2.1470 -4.5212
  329MOL0     H44354   4.240   6.567  10.619 -0.3021  2.4150  3.2938
  329MOL0     H44355   4.378   6.476  10.570 -0.9920 -0.2360 -0.2880
  329MOL0     H44356   4.354   6.698  10.791 -0.5340 -3.6536  1.8448
  329MOL0     H44357   4.500   6.630  10.759 -0.9983  0.8920  2.4560
  329MOL0     H44358   4.510   6.725  10.536 -0.4932 -1.7850 -0.1468
  329MOL0     H44359   4.336   6.778  10.553 -0.6377  0.7353 -0.0140
  329MOL0     H44360   4.438   6.928  10.759 -1.2411  1.1930 -1.5881
  329MOL0     H44361   4.586   6.875  10.692  0.6169  1.5172 -0.6044
  329MOL0     H44362   4.471   7.116  10.636 -1.4818  0.6497 -1.0913
  329MOL0     H44363   4.370   7.029  10.524  1.5266 -0.3322 -1.4192
  329MOL0     H44364   4.566   6.971  10.389 -0.9062  2.0799 -1.4244
  329MOL0     H44365   4.582   7.138  10.409 -0.3125 -0.8889 -2.1685
  329MOL0     H44366   4.684   7.192  10.709  1.1214  0.7845  0.1104
  329MOL0     H44367   4.902   7.109  10.893  0.5348 -1.3606 -0.8349
  329MOL0     H44368   5.032   7.017  10.822  0.3029  0.7753  2.5101
  329MOL0     H44369   5.058   7.226  10.658 -1.6112  1.7173  0.0924
  329MOL0     H44370   4.946   7.299  10.761 -0.3309 -0.6350 -0.7974
  329MOL0     H44371   5.098   7.295  10.955 -2.3219 -0.5361  0.5032
  329MOL0     H44372   5.175   7.364  10.807  0.8499 -0.5418 -0.6466
  329MOL0     H44373   5.214   7.082  10.883 -4.8245  1.6554  1.1559
  329MOL0     H44374   5.323   7.211  10.952  1.2850 -0.7756 -0.5371
  329MOL0     H44375   5.492   7.345  10.679 -0.4987  0.7999  2.4817
  329MOL0     H44376   5.731   7.364  10.687 -0.8896  2.1544  2.5124
  329MOL0     H44377   6.129   7.489  10.775 -0.2382 -0.0339  0.3926
  329MOL0     H44378   6.365   7.517  10.657  0.0661 -0.6085 -1.2280
  329MOL0     H44379   6.562   7.205  10.508 -0.2570 -2.6556 -2.7392
  329MOL0     H44380   6.525   7.239  10.341  1.4569 -0.2517  0.1644
  329MOL0     H44381   6.678   7.432  10.333 -0.7491 -0.8591 -1.3191
  329MOL0     H44382   6.691   7.420  10.507 -0.9550  1.4546 -1.9118
  329MOL0     H44383   6.798   7.200  10.489  3.0181 -0.4683 -0.3905
  329MOL0     H44384   6.795   7.211  10.309  3.1102  1.7486 -0.2172
  329MOL0     H44385   6.943   7.395  10.510 -3.4307  0.6849 -0.6330
  329MOL0     H44386   6.911   7.441  10.336 -1.6215 -0.0935 -0.7122
  329MOL0     H44387   7.028   7.252  10.251 -0.3076  0.3815  0.0607
  329MOL0     H44388   7.069   7.207  10.415  0.1343 -0.9146 -0.2969
  329MOL0     H44389   7.117   7.476  10.260  1.6381 -0.7778 -2.8568
  329MOL0     H44390   7.171   7.439  10.428  2.7556 -3.1292  0.4677
  329MOL0     H44391   7.247   7.267  10.198 -0.4811 -0.7930  0.3809
  329MOL0     H44392   7.304   7.250  10.365 -1.0582 -0.5061 -0.7035
  329MOL0     H44393   7.321   7.530  10.215  0.3791  0.1432 -0.9371
  329MOL0     H44394   7.415   7.470  10.364 -3.4634 -0.4176  2.7424
  329MOL0     H44395   6.290   7.167  10.435  0.3666  1.4254 -1.1317
  329MOL0     H44396   6.079   7.143  10.528 -1.4044  1.7815 -1.7359
  329MOL0     H44397   5.748   6.977  10.882 -2.4527 -1.6920  1.1773
  329MOL0     H44398   5.497   6.968  10.866  0.9162 -0.2885 -0.0592
  329MOL0     H44399   4.191   6.249  11.012  0.1153  2.7983  1.4395
  329MOL0     H44400   4.059   6.207  11.209 -2.0694  0.6178  1.0515
  329MOL0     H44401   3.666   6.086  11.363  2.2410  0.7369  0.1463
  329MOL0     H44402   3.476   6.033  11.495  0.9170 -0.5063 -1.6746
  329MOL0     H44403   3.224   6.312  11.663  1.8524  1.3209 -0.8276
  329MOL0     H44404   3.322   6.328  11.812  2.4115 -3.0267  0.5860
  329MOL0     H44405   3.093   6.128  11.753 -1.9493  0.4749  1.0153
  329MOL0     H44406   3.087   6.277  11.838  1.2788  1.3498 -1.8380
  329MOL0     H44407   3.282   6.143  11.985  0.2097 -0.4324 -0.2445
  329MOL0     H44408   3.172   6.010  11.931 -1.3843 -0.0004  0.5327
  329MOL0     H44409   3.085   6.252  12.090 -1.1616 -0.9083  2.4564
  329MOL0     H44410   2.979   6.147  12.027  0.2501 -0.4211  1.4545
  329MOL0     H44411   3.124   5.927  12.370  0.3165 -0.3265 -0.1169
  329MOL0     H44412   3.501   6.412  11.685  0.5149 -0.3269 -0.2923
  329MOL0     H44413   3.571   6.603  11.566 -0.3938 -0.3980  0.5090
  329MOL0     H44414   3.740   6.555  11.583 -0.3172 -1.2215  1.0675
  329MOL0     H44415   3.665   6.587  11.419  0.9335  0.0249 -0.0045
  330MOL0     O44416   4.950   1.419   4.767 -0.5778 -0.7603 -0.0881
  330MOL0     C44417   4.954   1.535   4.725 -0.5270 -0.4657 -0.9372
  330MOL0     O44418   4.852   1.628   4.724  0.2247  0.2535  0.3283
  330MOL0     C44419   4.719   1.588   4.752 -0.0279 -0.2277  0.1162
  330MOL0     C44420   4.626   1.692   4.728  0.9551  0.0968 -0.0790
  330MOL0     C44421   4.488   1.668   4.740 -0.9436 -0.6579  0.3201
  330MOL0     C44422   4.439   1.544   4.783 -0.8156 -0.3220 -0.3547
  330MOL0     O44423   4.306   1.527   4.797 -0.7737  0.0556  0.4272
  330MOL0     C44424   4.245   1.391   4.793  0.1922  0.0240 -0.8082
  330MOL0     C44425   4.098   1.391   4.852  0.3523 -0.4426 -0.0517
  330MOL0     C44426   4.025   1.262   4.819 -1.2487  0.0589  0.0080
  330MOL0     C44427   3.876   1.268   4.872 -0.7214  0.0359  1.0120
  330MOL0     C44428   3.837   1.132   4.934 -0.5846 -0.1898  0.8335
  330MOL0     C44429   3.683   1.114   4.919 -0.2622 -0.1962 -0.4549
  330MOL0     C44430   3.647   0.972   4.965  0.8592 -0.0971  0.5322
  330MOL0     C44431   3.492   0.961   4.974  0.4804 -0.0019  0.1269
  330MOL0     N44432   3.456   0.824   5.014  0.4556  0.8997  0.3807
  330MOL0     C44433   3.475   0.771   5.142 -0.3164  0.1901  0.0822
  330MOL0     C44434   3.448   0.638   5.128  0.5967  0.4062 -0.1337
  330MOL0     C44435   3.484   0.548   5.245  1.3792 -0.0632 -0.2939
  330MOL0     C44436   3.587   0.447   5.206 -0.4106  0.4312  0.0968
  330MOL0     C44437   3.495   0.330   5.154 -1.2696  0.0928  0.6677
  330MOL0     C44438   3.588   0.202   5.153  0.7603  0.1265  0.3207
  330MOL0     O44439   3.503   0.088   5.120 -0.0524 -0.5174 -0.3398
  330MOL0     C44440   3.562  -0.032   5.138  0.6079  0.9514 -0.0031
  330MOL0     C44441   3.700  -0.058   5.149  1.3902 -0.3987  0.1717
  330MOL0     C44442   3.750  -0.188   5.164  0.3238  0.0017  0.6194
  330MOL0     C44443   3.660  -0.297   5.167 -0.1820 -0.0014 -0.7286
  330MOL0     C44444   3.709  -0.436   5.192  0.5561  0.1419 -0.4708
  330MOL0     O44445   3.614  -0.538   5.181  0.1123  0.5537 -0.7466
  330MOL0     C44446   3.643  -0.669   5.157 -0.1971 -0.4665  0.2786
  330MOL0     C44447   3.756  -0.705   5.079  0.0154 -0.0865 -1.1455
  330MOL0     C44448   3.798  -0.839   5.061 -0.2366 -0.7309 -0.1056
  330MOL0     C44449   3.722  -0.944   5.106 -0.2134  0.9310 -0.2928
  330MOL0     O44450   3.780  -1.067   5.088  0.2423  0.0388  0.3962
  330MOL0     C44451   3.739  -1.187   5.159 -0.1347  0.0038  0.0300
  330MOL0     C44452   3.848  -1.291   5.115 -0.5935 -0.3618  0.2635
  330MOL0     C44453   3.993  -1.257   5.168 -0.4895  0.0812  0.0652
  330MOL0     C44454   4.079  -1.379   5.199 -0.1126  0.3824  0.1077
  330MOL0     C44455   4.215  -1.346   5.240 -0.5300 -0.7955 -0.0791
  330MOL0     C44456   4.313  -1.463   5.233  0.3508  0.6256 -0.1037
  330MOL0     C44457   4.362  -1.510   5.091  0.4439  0.2544 -0.1618
  330MOL0     C44458   4.477  -1.438   5.021  0.1734  0.2362  0.1660
  330MOL0    Cl44459   4.638  -1.493   5.100  0.0583 -0.3511 -0.0378
  330MOL0     C44460   3.602  -0.913   5.178  0.1557  0.0804 -0.5434
  330MOL0     C44461   3.561  -0.775   5.200 -0.1908 -0.2285  0.0965
  330MOL0     O44462   3.825  -0.459   5.225 -0.0550 -0.3434  0.3458
  330MOL0     C44463   3.523  -0.265   5.151 -0.5601  0.0820  0.7005
  330MOL0     C44464   3.472  -0.139   5.134 -1.2379  1.0703  0.0763
  330MOL0     N44465   3.414   0.611   4.997 -0.2277  0.4552 -0.4133
  330MOL0     N44466   3.407   0.723   4.939 -0.6841  0.4340  0.6379
  330MOL0     C44467   4.531   1.436   4.798 -0.0189 -0.2016  0.6068
  330MOL0     C44468   4.671   1.459   4.777 -0.3910  0.8738  0.2584
  330MOL0     C44469   5.095   1.586   4.681  0.1278  0.1001 -0.6006
  330MOL0     C44470   5.106   1.723   4.639 -0.1183  0.3939  0.1649
  330MOL0     C44471   5.233   1.775   4.602  0.7433  0.3638 -0.2927
  330MOL0     C44472   5.346   1.695   4.598  0.6695 -0.4221 -0.6105
  330MOL0     O44473   5.459   1.747   4.562  0.7041  0.4353 -0.0364
  330MOL0     C44474   5.488   1.747   4.424  0.3407  0.2497 -0.3406
  330MOL0     C44475   5.633   1.748   4.405  0.2260  0.1383  0.2534
  330MOL0     C44476   5.689   1.880   4.457 -0.1532  0.2176 -0.5587
  330MOL0     C44477   5.791   1.934   4.352 -0.1068  0.6989 -0.2863
  330MOL0     C44478   5.892   1.835   4.321 -0.1350 -0.7875  0.1128
  330MOL0     C44479   5.985   1.760   4.301 -0.0878 -0.2985 -0.5303
  330MOL0     C44480   5.335   1.568   4.653 -0.1081  0.2602 -0.8696
  330MOL0     C44481   5.217   1.511   4.689  0.9457 -0.2102 -0.8893
  330MOL0     C44482   5.222   1.364   4.729  0.4660  0.2958  0.4294
  330MOL0     H44483   4.658   1.796   4.721 -0.1281  0.4369 -0.2036
  330MOL0     H44484   4.407   1.739   4.723 -1.9709 -1.7378  0.5542
  330MOL0     H44485   4.238   1.362   4.688  1.3100 -1.1941 -0.5611
  330MOL0     H44486   4.296   1.321   4.859 -3.4300 -0.9459  1.2265
  330MOL0     H44487   4.049   1.483   4.819  2.5526  1.2487  1.1351
  330MOL0     H44488   4.115   1.402   4.959  1.7449  0.6826 -0.3544
  330MOL0     H44489   4.080   1.179   4.865  0.0435  0.0722 -1.4246
  330MOL0     H44490   4.021   1.257   4.710 -0.3975 -0.3857 -0.0171
  330MOL0     H44491   3.873   1.350   4.945  2.7349 -0.9296  2.4153
  330MOL0     H44492   3.806   1.291   4.791 -1.7924 -2.9247  0.9981
  330MOL0     H44493   3.885   1.045   4.889 -0.9682  0.4156 -0.8049
  330MOL0     H44494   3.864   1.134   5.040  0.5240  0.8051  0.5498
  330MOL0     H44495   3.640   1.187   4.987  0.0260  1.8127 -2.3196
  330MOL0     H44496   3.646   1.113   4.816  0.2263  1.2333 -0.6582
  330MOL0     H44497   3.697   0.954   5.061  3.9487 -3.8414 -1.5028
  330MOL0     H44498   3.676   0.902   4.886  0.8365  1.5124 -0.9408
  330MOL0     H44499   3.442   1.031   5.041 -2.7113 -0.2014 -1.8467
  330MOL0     H44500   3.448   0.977   4.875  1.0887 -0.2549 -0.1875
  330MOL0     H44501   3.528   0.820   5.223 -0.8984 -0.3851  0.8262
  330MOL0     H44502   3.536   0.595   5.328  4.2307  2.3979 -3.1865
  330MOL0     H44503   3.392   0.505   5.286  1.5996  0.1093  0.3841
  330MOL0     H44504   3.657   0.483   5.130 -0.4180 -0.6912 -0.4587
  330MOL0     H44505   3.658   0.420   5.284  1.0643 -2.2298 -1.9942
  330MOL0     H44506   3.467   0.359   5.053  2.6957  0.5187 -0.5071
  330MOL0     H44507   3.413   0.299   5.219 -0.8900 -1.1789  0.5671
  330MOL0     H44508   3.642   0.191   5.247  0.1270 -0.8219  0.5814
  330MOL0     H44509   3.667   0.214   5.078 -1.3812 -0.6677 -2.2147
  330MOL0     H44510   3.772   0.023   5.143  1.9098 -0.9359 -1.2898
  330MOL0     H44511   3.855  -0.213   5.175  0.0137 -0.9911  1.4877
  330MOL0     H44512   3.817  -0.635   5.024  2.0888  0.3290  1.5068
  330MOL0     H44513   3.897  -0.840   5.018  0.0506  1.5857  0.3420
  330MOL0     H44514   3.740  -1.179   5.268 -0.2148  1.4706 -0.0551
  330MOL0     H44515   3.635  -1.213   5.138 -0.3085  0.7908 -0.1143
  330MOL0     H44516   3.821  -1.394   5.140  0.4256 -0.0991  2.6913
  330MOL0     H44517   3.852  -1.291   5.006  1.3493  1.2697  0.2890
  330MOL0     H44518   4.057  -1.200   5.100 -1.0881  0.5481 -0.1121
  330MOL0     H44519   3.987  -1.197   5.259  1.5413  1.2510 -0.5081
  330MOL0     H44520   4.091  -1.445   5.113  0.5483  0.9007 -0.2083
  330MOL0     H44521   4.022  -1.438   5.271 -0.9349 -0.4635 -1.2055
  330MOL0     H44522   4.209  -1.305   5.341  0.6865 -1.0560  0.1141
  330MOL0     H44523   4.260  -1.269   5.177  1.8629 -1.4310  0.7575
  330MOL0     H44524   4.400  -1.432   5.291  0.1592 -0.4806  0.8069
  330MOL0     H44525   4.269  -1.556   5.270  2.2015 -1.0541 -1.8546
  330MOL0     H44526   4.272  -1.499   5.030 -1.0119  2.2216  2.1813
  330MOL0     H44527   4.385  -1.617   5.100 -1.2911  0.0161  2.8348
  330MOL0     H44528   4.482  -1.464   4.915  0.6581  0.4731  0.1285
  330MOL0     H44529   4.455  -1.331   5.029 -1.5888 -0.1170  0.5276
  330MOL0     H44530   3.542  -0.993   5.222 -1.2822  0.9438 -0.8547
  330MOL0     H44531   3.476  -0.746   5.262 -0.1859 -2.4077  1.1960
  330MOL0     H44532   3.449  -0.344   5.148 -2.0495  1.4448  0.4159
  330MOL0     H44533   3.368  -0.117   5.112 -1.9993 -0.9270  1.3764
  330MOL0     H44534   4.500   1.339   4.835 -1.4589  0.9014  2.4903
  330MOL0     H44535   4.735   1.373   4.795  0.1196  0.7408 -1.9122
  330MOL0     H44536   5.016   1.784   4.635  0.7267  1.6013 -1.9142
  330MOL0     H44537   5.244   1.879   4.574 -0.8837  1.0047  1.2283
  330MOL0     H44538   5.437   1.823   4.364 -2.1355  0.7378  2.1588
  330MOL0     H44539   5.443   1.658   4.379 -0.3277 -0.3837  1.5105
  330MOL0     H44540   5.656   1.740   4.298  0.2678  1.8742  0.0933
  330MOL0     H44541   5.669   1.664   4.465 -2.7963 -0.4718  1.4034
  330MOL0     H44542   5.751   1.853   4.542  3.1593 -0.9429 -3.1043
  330MOL0     H44543   5.608   1.946   4.489 -0.3194  0.7600 -2.0096
  330MOL0     H44544   5.738   1.972   4.264  1.1024 -0.9849 -1.8102
  330MOL0     H44545   5.843   2.024   4.388  0.8497  0.4211 -0.9390
  330MOL0     H44546   6.065   1.691   4.284 -0.2087 -0.7482  0.6500
  330MOL0     H44547   5.428   1.513   4.661 -0.9370 -0.9803  1.4460
  330MOL0     H44548   5.325   1.327   4.723  0.6385  0.8969 -3.4021
  330MOL0     H44549   5.178   1.345   4.827  3.4053 -0.9763  1.6340
  330MOL0     H44550   5.165   1.313   4.651 -0.4736  2.6749 -0.5325
  331MOL0     O44551   8.329   5.068   9.004  0.4917  0.1563  0.0114
  331MOL0     C44552   8.356   5.000   8.902  0.2362  0.2163  0.3087
  331MOL0     O44553   8.306   5.016   8.780 -0.7274  0.1744 -0.0982
  331MOL0     C44554   8.229   5.124   8.750  0.1139 -0.8163  0.4012
  331MOL0     C44555   8.104   5.129   8.814 -0.2745  0.6815 -0.2257
  331MOL0     C44556   8.016   5.233   8.796 -0.5359 -0.1252 -0.5557
  331MOL0     C44557   8.048   5.328   8.698  0.2558 -0.4297 -0.3800
  331MOL0     O44558   7.974   5.443   8.660  0.3353  0.0353  0.1868
  331MOL0     C44559   7.832   5.430   8.681  0.5190  0.2657 -0.3085
  331MOL0     C44560   7.768   5.350   8.573 -0.3805 -0.2498 -0.0498
  331MOL0     C44561   7.620   5.341   8.601 -0.8355 -0.1222 -0.6138
  331MOL0     C44562   7.550   5.247   8.505 -0.4660 -0.4422 -1.3809
  331MOL0     C44563   7.400   5.266   8.517  0.9039 -0.1325 -0.1087
  331MOL0     C44564   7.324   5.156   8.444  0.0991 -0.6414  0.2570
  331MOL0     C44565   7.183   5.182   8.409  0.7771 -0.3541  0.1872
  331MOL0     C44566   7.104   5.204   8.537  0.3916  0.9427 -0.4558
  331MOL0     N44567   7.124   5.104   8.634  0.1329 -0.1924  0.0842
  331MOL0     C44568   7.084   4.968   8.635  0.1847  0.5514 -0.0267
  331MOL0     C44569   7.140   4.922   8.746 -0.3124 -0.5498 -0.5919
  331MOL0     C44570   7.137   4.778   8.784  0.1596  0.4079 -0.3747
  331MOL0     C44571   7.064   4.761   8.914 -0.4167 -0.3437 -1.3874
  331MOL0     C44572   6.918   4.773   8.874  1.0521 -0.4265  0.2302
  331MOL0     C44573   6.828   4.745   8.991  0.1616  0.0286  0.7969
  331MOL0     O44574   6.810   4.610   9.027  0.0406 -0.0952 -0.1796
  331MOL0     C44575   6.717   4.579   9.122  0.7370  0.9101 -0.5205
  331MOL0     C44576   6.766   4.558   9.256 -0.2455  1.2769  0.3666
  331MOL0     C44577   6.683   4.507   9.356 -0.1139  0.0243  0.4164
  331MOL0     C44578   6.551   4.491   9.336 -0.0240 -1.1168  0.7763
  331MOL0     C44579   6.459   4.439   9.440 -0.1853  0.4856  0.0432
  331MOL0     O44580   6.513   4.421   9.563 -0.1073  0.5108  0.8113
  331MOL0     C44581   6.421   4.391   9.663 -0.3284 -0.6034 -0.1529
  331MOL0     C44582   6.416   4.255   9.699 -0.4125 -0.4665  0.1743
  331MOL0     C44583   6.322   4.217   9.798  0.3385 -1.3060  0.9006
  331MOL0     C44584   6.236   4.310   9.858 -0.0392  0.3094 -0.3375
  331MOL0     O44585   6.149   4.279   9.959  0.0722  0.2037  0.2576
  331MOL0     C44586   6.154   4.155  10.036  0.1948  0.1583  0.0169
  331MOL0     C44587   6.087   4.192  10.170 -0.2315  0.9406  0.7479
  331MOL0     C44588   6.094   4.069  10.263 -0.3725  0.6395 -0.3743
  331MOL0     C44589   6.059   4.116  10.405  0.1099  0.0225 -0.2444
  331MOL0     C44590   6.018   3.995  10.499 -0.8151 -0.9160 -0.2062
  331MOL0     C44591   6.135   3.935  10.576 -0.2963  0.3623  1.2807
  331MOL0     C44592   6.102   3.835  10.681  0.1125  0.1512  0.7994
  331MOL0     C44593   6.018   3.702  10.646  0.1548 -0.3573 -0.3754
  331MOL0    Cl44594   5.850   3.751  10.617  0.3574 -0.4279  0.2838
  331MOL0     C44595   6.246   4.438   9.815  0.5254  0.0644  0.1583
  331MOL0     C44596   6.341   4.478   9.728  0.1682 -1.1353 -0.4620
  331MOL0     O44597   6.335   4.418   9.417  0.1750  0.0211  0.6089
  331MOL0     C44598   6.489   4.534   9.213 -0.3601  0.2017  0.5390
  331MOL0     C44599   6.568   4.576   9.112 -0.4031  0.2655  0.6027
  331MOL0     N44600   7.199   5.020   8.812  0.8847 -0.1910  0.5568
  331MOL0     N44601   7.189   5.123   8.747 -0.4192 -0.3211 -0.3390
  331MOL0     C44602   8.164   5.318   8.622  0.6327 -0.2189 -0.5888
  331MOL0     C44603   8.264   5.224   8.650  0.2609  0.3133 -0.5202
  331MOL0     C44604   8.447   4.890   8.920 -0.6827 -0.3360  0.1344
  331MOL0     C44605   8.406   4.774   8.987 -0.3763  0.1224  0.0905
  331MOL0     C44606   8.492   4.668   9.029  0.7799  0.2926  0.7584
  331MOL0     C44607   8.630   4.684   8.999  0.8094  0.9286 -0.0765
  331MOL0     O44608   8.719   4.587   9.041  0.2035  0.5229 -0.1699
  331MOL0     C44609   8.674   4.504   9.159  0.2160 -0.6093 -0.7948
  331MOL0     C44610   8.781   4.403   9.192 -0.2876  0.3054 -0.0773
  331MOL0     C44611   8.748   4.319   9.319 -0.6057  0.4430 -0.1833
  331MOL0     C44612   8.636   4.219   9.283  0.5223 -0.3265  0.1534
  331MOL0     C44613   8.601   4.146   9.402  0.0382 -0.1128 -0.0076
  331MOL0     C44614   8.587   4.071   9.490  1.0083  0.8336  0.1008
  331MOL0     C44615   8.667   4.791   8.911 -0.7011  0.9279 -0.3127
  331MOL0     C44616   8.580   4.894   8.879 -0.2693 -0.8972 -0.3505
  331MOL0     C44617   8.630   5.002   8.779  0.0757  0.3665  0.0505
  331MOL0     H44618   8.089   5.059   8.896  1.6991 -0.5332 -0.8291
  331MOL0     H44619   7.922   5.222   8.849  0.3025  1.2516  1.3782
  331MOL0     H44620   7.807   5.401   8.783 -2.4248  2.0834 -0.3976
  331MOL0     H44621   7.787   5.530   8.682 -0.2077 -0.0236  2.2274
  331MOL0     H44622   7.810   5.250   8.558 -1.5665 -0.5472 -1.6401
  331MOL0     H44623   7.776   5.404   8.478  1.6227 -0.6990 -0.1875
  331MOL0     H44624   7.575   5.439   8.585  0.3431  0.9685  2.1052
  331MOL0     H44625   7.608   5.322   8.708  0.2989  1.8553 -0.0844
  331MOL0     H44626   7.587   5.255   8.402  2.4201 -1.4951 -0.5261
  331MOL0     H44627   7.589   5.149   8.535  0.0872  0.3227  0.6086
  331MOL0     H44628   7.373   5.263   8.623  1.2755 -3.2560 -0.0303
  331MOL0     H44629   7.376   5.364   8.473 -0.4524  0.0699  1.0171
  331MOL0     H44630   7.378   5.139   8.351 -1.5043 -0.1544 -0.8138
  331MOL0     H44631   7.324   5.068   8.509 -1.6038 -0.5640  0.4169
  331MOL0     H44632   7.134   5.109   8.345  3.0266 -0.6530 -1.3036
  331MOL0     H44633   7.185   5.273   8.348  4.0211  1.3658  2.5190
  331MOL0     H44634   7.130   5.300   8.582  1.9893  0.6089 -0.5866
  331MOL0     H44635   6.996   5.199   8.524  0.0559 -2.9333  2.1811
  331MOL0     H44636   7.025   4.908   8.567 -2.6289  1.5259  1.3891
  331MOL0     H44637   7.092   4.712   8.709 -0.1173 -0.0435  0.1778
  331MOL0     H44638   7.240   4.752   8.810  0.6742  4.2676  2.5445
  331MOL0     H44639   7.074   4.668   8.969 -2.0309  2.1281  3.7327
  331MOL0     H44640   7.094   4.846   8.977 -2.6412  0.1262 -0.8765
  331MOL0     H44641   6.876   4.709   8.796  1.4987  0.7084 -0.9669
  331MOL0     H44642   6.899   4.875   8.838 -0.3288 -0.8604 -0.3355
  331MOL0     H44643   6.727   4.780   8.968 -0.4281 -0.6767  2.2116
  331MOL0     H44644   6.863   4.801   9.078  1.5059  0.5757 -0.0710
  331MOL0     H44645   6.871   4.561   9.282  0.3702 -0.1334 -1.7138
  331MOL0     H44646   6.730   4.468   9.445  0.3892 -2.8298 -0.9759
  331MOL0     H44647   6.482   4.188   9.646  0.6894  2.2230 -2.1529
  331MOL0     H44648   6.328   4.115   9.833 -2.6557 -1.3585  1.5569
  331MOL0     H44649   6.113   4.067   9.985  0.1280 -2.2356  3.7744
  331MOL0     H44650   6.258   4.138  10.066 -0.0470  1.6234  1.9330
  331MOL0     H44651   6.155   4.267  10.212  0.8467  1.8618 -2.3322
  331MOL0     H44652   5.980   4.213  10.159 -0.8780 -2.0264  0.7128
  331MOL0     H44653   6.017   4.000  10.229 -0.7333  0.3821  0.8993
  331MOL0     H44654   6.196   4.029  10.263 -0.3992  0.5712 -1.2166
  331MOL0     H44655   5.963   4.169  10.399  1.0603  2.4625  3.0028
  331MOL0     H44656   6.132   4.187  10.445 -1.6341  0.1402  3.0947
  331MOL0     H44657   5.961   3.927  10.435 -1.3495  1.0727 -1.9749
  331MOL0     H44658   5.945   4.038  10.569 -0.8597 -0.8413 -0.2982
  331MOL0     H44659   6.205   3.888  10.506 -2.0932  4.4283 -3.9358
  331MOL0     H44660   6.172   4.023  10.629  1.2040 -0.0221  0.9268
  331MOL0     H44661   6.044   3.888  10.757  3.1449  2.0408  1.9886
  331MOL0     H44662   6.195   3.799  10.728 -0.3615 -1.8602  0.3196
  331MOL0     H44663   6.065   3.649  10.563  2.3626  1.1235 -0.1614
  331MOL0     H44664   6.011   3.630  10.728 -1.5126 -2.2856 -2.1090
  331MOL0     H44665   6.187   4.511   9.870 -1.4279 -3.4376  3.1634
  331MOL0     H44666   6.357   4.581   9.697  0.2696 -1.4936 -1.6094
  331MOL0     H44667   6.381   4.530   9.206 -0.3198 -0.8239  0.3113
  331MOL0     H44668   6.521   4.611   9.020  1.1799  1.3768  0.1585
  331MOL0     H44669   8.182   5.390   8.543  0.8660 -0.6015 -0.8886
  331MOL0     H44670   8.356   5.211   8.595  0.0898  1.3487 -1.0799
  331MOL0     H44671   8.304   4.771   9.024 -0.9777 -2.9791 -1.4576
  331MOL0     H44672   8.442   4.595   9.092  3.1712  2.0713  5.2415
  331MOL0     H44673   8.585   4.446   9.131 -0.1336 -0.3169 -0.3048
  331MOL0     H44674   8.662   4.561   9.252 -1.5942 -1.8209 -0.2207
  331MOL0     H44675   8.876   4.451   9.218 -0.2557  0.0247  0.3387
  331MOL0     H44676   8.791   4.332   9.110 -0.3054  2.5567 -2.1094
  331MOL0     H44677   8.716   4.389   9.397 -0.1545 -0.7140  1.0975
  331MOL0     H44678   8.833   4.262   9.358 -1.7124 -1.2850 -0.1908
  331MOL0     H44679   8.548   4.265   9.237  1.7075  1.1555 -0.7420
  331MOL0     H44680   8.670   4.152   9.203 -1.9303 -0.2384 -1.0404
  331MOL0     H44681   8.570   4.004   9.571 -0.6107  0.4888 -0.4861
  331MOL0     H44682   8.771   4.782   8.885 -0.7757 -3.3677  0.0351
  331MOL0     H44683   8.638   4.973   8.674  0.1760 -0.7402  0.3500
  331MOL0     H44684   8.565   5.089   8.776  0.9014  0.9919 -2.6468
  331MOL0     H44685   8.727   5.037   8.815 -0.4216 -0.5307  2.4670
  332MOL0     O44686  10.711   6.719   3.719 -0.3746  0.0355 -0.7897
  332MOL0     C44687  10.723   6.612   3.651  1.0743 -0.5441  0.0329
  332MOL0     O44688  10.842   6.552   3.640  0.6440 -0.5832 -0.3608
  332MOL0     C44689  10.957   6.592   3.705  0.9408 -1.1326  0.3680
  332MOL0     C44690  11.021   6.707   3.668 -0.0984  0.2355 -0.6022
  332MOL0     C44691  11.141   6.745   3.735 -0.2003 -0.0653 -1.1171
  332MOL0     C44692  11.195   6.669   3.840 -0.4901  0.2042 -0.4591
  332MOL0     O44693  11.305   6.710   3.918 -0.4102 -0.1453  0.4933
  332MOL0     C44694  11.403   6.806   3.877  0.0486  0.3382 -0.7637
  332MOL0     C44695  11.535   6.739   3.824 -1.1395  0.1969 -0.2339
  332MOL0     C44696  11.650   6.822   3.776  1.0444 -0.2797 -0.2000
  332MOL0     C44697  11.606   6.937   3.690  0.3873  0.6332  0.1179
  332MOL0     C44698  11.703   7.016   3.596  0.6556 -0.1788  0.6898
  332MOL0     C44699  11.825   7.076   3.662 -0.1001  0.3975 -0.0886
  332MOL0     C44700  11.932   6.970   3.703 -0.3699  0.3635  0.9237
  332MOL0     C44701  12.073   7.033   3.737  0.9235 -0.0030  0.2694
  332MOL0     N44702  12.079   7.139   3.830  0.9970 -0.2509 -0.3806
  332MOL0     C44703  12.130   7.265   3.792  0.4220 -0.2278  0.3158
  332MOL0     C44704  12.148   7.333   3.908 -0.8739  0.1766  0.9455
  332MOL0     C44705  12.216   7.467   3.920  0.6594 -0.0774 -0.5943
  332MOL0     C44706  12.362   7.462   3.865 -1.1609  0.6826  0.4287
  332MOL0     C44707  12.464   7.407   3.955 -0.6564 -0.0299 -0.5265
  332MOL0     C44708  12.602   7.420   3.896 -0.0044  0.6130 -0.4952
  332MOL0     O44709  12.617   7.335   3.778  0.5670  0.2170 -0.3482
  332MOL0     C44710  12.743   7.302   3.731 -0.4895 -0.4743  0.2047
  332MOL0     C44711  12.860   7.377   3.770  0.0862 -0.1531 -0.1207
  332MOL0     C44712  12.986   7.340   3.719  0.3892  0.1556  0.6179
  332MOL0     C44713  12.985   7.242   3.617  0.3736  0.0393 -0.5368
  332MOL0     C44714  13.109   7.222   3.534 -0.8696 -0.1525 -0.2599
  332MOL0     O44715  13.227   7.264   3.593 -0.4248 -0.8020 -0.5245
  332MOL0     C44716  13.345   7.259   3.529  1.1076  1.2143 -0.1028
  332MOL0     C44717  13.438   7.368   3.544  0.5795  0.3960  0.5868
  332MOL0     C44718  13.567   7.353   3.486 -0.4662  0.1719  0.3195
  332MOL0     C44719  13.611   7.234   3.436 -0.0469 -1.1439  0.9372
  332MOL0     O44720  13.742   7.226   3.412 -0.5700  0.4248  0.1036
  332MOL0     C44721  13.802   7.112   3.353 -0.1212  0.3291 -0.4652
  332MOL0     C44722  13.951   7.155   3.361 -0.6663  0.0484 -0.1860
  332MOL0     C44723  14.050   7.046   3.327 -0.0588 -0.4720  0.2131
  332MOL0     C44724  14.194   7.105   3.344 -0.6555  0.0314  0.1048
  332MOL0     C44725  14.308   7.017   3.296  0.5195  0.8815  0.1975
  332MOL0     C44726  14.443   7.082   3.323 -0.3062  0.3553 -0.5911
  332MOL0     C44727  14.552   6.974   3.297 -0.3819  0.5375 -0.4095
  332MOL0     C44728  14.690   7.028   3.323 -0.2938  0.3944  0.5931
  332MOL0    Cl44729  14.802   6.887   3.318 -0.0271  0.1634 -0.0482
  332MOL0     C44730  13.525   7.124   3.413  0.4824 -0.2516 -0.3660
  332MOL0     C44731  13.392   7.135   3.470  0.2542  0.2212 -0.2355
  332MOL0     O44732  13.099   7.172   3.423  0.4530  0.8413 -0.2001
  332MOL0     C44733  12.874   7.175   3.576  0.0378  0.2097 -0.3728
  332MOL0     C44734  12.757   7.200   3.640 -0.1557  0.3009  0.6686
  332MOL0     N44735  12.120   7.242   4.011  0.3594 -0.0326 -0.5892
  332MOL0     N44736  12.077   7.134   3.964  0.4781  0.1074 -0.1598
  332MOL0     C44737  11.125   6.556   3.879  0.4516 -0.7954 -0.1735
  332MOL0     C44738  11.005   6.520   3.813  0.9029  0.3043 -0.2376
  332MOL0     C44739  10.593   6.540   3.606 -0.1565 -0.4596 -0.0206
  332MOL0     C44740  10.621   6.418   3.550 -0.2353 -0.3173 -0.0832
  332MOL0     C44741  10.523   6.348   3.483 -1.2427 -0.0232  0.3312
  332MOL0     C44742  10.385   6.390   3.478 -0.5364 -0.5920 -0.4074
  332MOL0     O44743  10.285   6.324   3.411 -0.0607  0.2777  0.3448
  332MOL0     C44744  10.320   6.213   3.331 -0.1834  0.2314 -0.9219
  332MOL0     C44745  10.199   6.152   3.263  0.7814 -0.1498  0.9672
  332MOL0     C44746  10.124   6.258   3.179  0.8048  0.7220  0.0898
  332MOL0     C44747  10.013   6.195   3.089 -0.5862  0.2014  0.1511
  332MOL0     C44748  10.063   6.113   2.981 -0.3004 -0.3141  0.0439
  332MOL0     C44749  10.126   6.077   2.889 -0.0083 -0.6206  0.2243
  332MOL0     C44750  10.356   6.506   3.556  0.8300  0.2571  0.2405
  332MOL0     C44751  10.461   6.582   3.608 -0.4958 -0.1040 -0.6889
  332MOL0     C44752  10.426   6.719   3.660 -0.2068 -0.0106  0.3661
  332MOL0     H44753  10.978   6.778   3.598  1.9217  1.9989 -0.1908
  332MOL0     H44754  11.184   6.840   3.707 -2.0017  0.8944 -0.7709
  332MOL0     H44755  11.368   6.870   3.795 -0.0516  1.2755 -0.0061
  332MOL0     H44756  11.427   6.872   3.961  1.2695  0.4277 -1.1562
  332MOL0     H44757  11.513   6.661   3.751  1.9184 -1.1632  0.1733
  332MOL0     H44758  11.573   6.681   3.908  1.5540 -0.1493 -1.5833
  332MOL0     H44759  11.714   6.761   3.711 -0.0069  2.7809 -4.6059
  332MOL0     H44760  11.708   6.850   3.865 -0.5488  1.6322  0.3082
  332MOL0     H44761  11.527   6.893   3.629 -0.0196  0.8004  0.5193
  332MOL0     H44762  11.563   7.009   3.761  1.8551  0.0316  1.7019
  332MOL0     H44763  11.742   6.958   3.512  0.1951  2.5508 -1.5764
  332MOL0     H44764  11.646   7.096   3.548  1.3684 -0.6737 -1.0550
  332MOL0     H44765  11.880   7.127   3.582  0.1328 -1.0030 -0.8578
  332MOL0     H44766  11.795   7.145   3.740  0.1056 -2.3827  2.6367
  332MOL0     H44767  11.947   6.902   3.618 -2.8977  0.7453  0.0917
  332MOL0     H44768  11.894   6.912   3.787 -3.1114 -0.3947 -0.6988
  332MOL0     H44769  12.145   6.955   3.762  3.2942  0.6506 -3.6905
  332MOL0     H44770  12.113   7.073   3.644  0.4179  1.8814  0.8104
  332MOL0     H44771  12.158   7.289   3.689  4.8255 -1.9731  0.8991
  332MOL0     H44772  12.152   7.546   3.879 -2.2697 -1.6751  0.6103
  332MOL0     H44773  12.225   7.494   4.026  2.7664  4.0189 -1.5950
  332MOL0     H44774  12.360   7.398   3.776 -0.6503 -0.0937  0.9775
  332MOL0     H44775  12.397   7.556   3.820  2.4949 -2.1461 -3.3597
  332MOL0     H44776  12.438   7.302   3.972  3.5190 -1.3404 -1.0389
  332MOL0     H44777  12.467   7.464   4.048  0.5486  2.9604 -2.2608
  332MOL0     H44778  12.679   7.379   3.961  2.1111 -0.5082 -3.4774
  332MOL0     H44779  12.638   7.521   3.871  1.0241 -0.2501 -2.8176
  332MOL0     H44780  12.853   7.456   3.844  0.2256  0.5467 -0.8276
  332MOL0     H44781  13.074   7.397   3.749  0.7380 -0.0081 -0.0742
  332MOL0     H44782  13.419   7.458   3.602 -0.5250 -0.3433  1.4238
  332MOL0     H44783  13.642   7.430   3.499  1.9468 -1.8032 -0.9445
  332MOL0     H44784  13.798   7.030   3.426 -1.5929 -1.2865 -2.2481
  332MOL0     H44785  13.763   7.085   3.255 -0.9025 -1.8149  0.3757
  332MOL0     H44786  13.963   7.236   3.289  1.7185 -0.4080 -0.3658
  332MOL0     H44787  13.973   7.190   3.462  0.2477 -0.3334 -0.2454
  332MOL0     H44788  14.021   6.963   3.393 -2.7834 -0.0059 -0.2921
  332MOL0     H44789  14.048   7.018   3.222  1.0046 -0.1882  0.1078
  332MOL0     H44790  14.202   7.126   3.451  0.7485 -0.8214  0.1901
  332MOL0     H44791  14.197   7.202   3.293 -1.3502  0.3854  0.7243
  332MOL0     H44792  14.294   6.990   3.191 -0.9371 -1.7202  0.9854
  332MOL0     H44793  14.301   6.922   3.350  0.5725  1.2683  0.9022
  332MOL0     H44794  14.463   7.176   3.272 -0.4230  2.1029  2.3445
  332MOL0     H44795  14.461   7.107   3.428 -0.2977  1.4768 -0.8502
  332MOL0     H44796  14.540   6.927   3.199  2.4811 -0.4345 -0.3832
  332MOL0     H44797  14.533   6.898   3.373  0.0579 -0.6182 -1.4375
  332MOL0     H44798  14.716   7.105   3.250  0.8298  0.3054  0.8794
  332MOL0     H44799  14.689   7.075   3.422  1.8531 -0.3893  1.0305
  332MOL0     H44800  13.568   7.029   3.382  1.0715  0.3386 -1.4098
  332MOL0     H44801  13.325   7.050   3.478 -1.7052  1.6659 -0.5559
  332MOL0     H44802  12.889   7.096   3.503  2.4883 -1.1328  1.4145
  332MOL0     H44803  12.677   7.136   3.603 -0.6698  0.8143  0.8704
  332MOL0     H44804  11.154   6.477   3.949 -2.9369 -3.2792 -1.3005
  332MOL0     H44805  10.947   6.432   3.839  2.5800  0.1359  3.5551
  332MOL0     H44806  10.716   6.364   3.546 -1.4305 -2.4909 -2.4816
  332MOL0     H44807  10.549   6.251   3.441 -1.0260  0.1334  0.1004
  332MOL0     H44808  10.356   6.146   3.410  1.1867 -0.0400 -1.7543
  332MOL0     H44809  10.402   6.243   3.265  0.2668  1.5578  0.2005
  332MOL0     H44810  10.125   6.116   3.335  0.3763  1.9747  1.6878
  332MOL0     H44811  10.234   6.073   3.196  1.8378  2.3528 -1.6266
  332MOL0     H44812  10.188   6.321   3.116  2.1939  0.5780  1.2910
  332MOL0     H44813  10.086   6.330   3.252 -2.2497  1.6363 -2.2334
  332MOL0     H44814   9.953   6.130   3.153 -0.3828 -0.1600 -0.0147
  332MOL0     H44815   9.959   6.282   3.051 -0.2358  0.3088 -0.1037
  332MOL0     H44816  10.184   6.067   2.799 -1.1328  3.5674 -1.1694
  332MOL0     H44817  10.256   6.547   3.569 -0.4604 -2.7423  0.6591
  332MOL0     H44818  10.489   6.804   3.633 -0.0810 -0.1960  0.0679
  332MOL0     H44819  10.331   6.740   3.608  0.0046 -2.0085 -0.9559
  332MOL0     H44820  10.411   6.725   3.768  0.5137  4.4342  0.3756
  333MOL0     O44821   5.888   4.788  11.144  0.1200  0.2627 -0.0377
  333MOL0     C44822   5.929   4.768  11.031  0.0866 -1.4051 -0.1503
  333MOL0     O44823   6.060   4.773  10.998  0.1104 -0.0274  0.1448
  333MOL0     C44824   6.158   4.734  11.088  0.2953  0.1080 -0.1597
  333MOL0     C44825   6.218   4.617  11.068 -0.3992  0.3753 -0.3296
  333MOL0     C44826   6.316   4.574  11.161  0.1688  0.0735 -0.4257
  333MOL0     C44827   6.351   4.648  11.274  0.2603 -0.5555  0.8869
  333MOL0     O44828   6.439   4.593  11.356 -1.1214  0.5325 -0.2311
  333MOL0     C44829   6.434   4.629  11.496  0.0312 -0.2383  0.1724
  333MOL0     C44830   6.516   4.542  11.579 -0.4080  0.9018  0.1883
  333MOL0     C44831   6.657   4.602  11.584 -0.5962 -0.5092  0.6502
  333MOL0     C44832   6.741   4.516  11.677 -0.0798 -1.1427 -0.3023
  333MOL0     C44833   6.800   4.387  11.610 -0.6357  0.9545 -0.3768
  333MOL0     C44834   6.933   4.341  11.678  0.0789  0.1836 -0.6394
  333MOL0     C44835   6.915   4.253  11.791  0.3662  0.2713 -0.3174
  333MOL0     C44836   7.047   4.217  11.848 -0.8650 -0.1949 -0.5359
  333MOL0     N44837   7.029   4.124  11.959 -0.8566  0.3740  0.1068
  333MOL0     C44838   7.064   4.155  12.092  0.2033  0.6707 -0.2112
  333MOL0     C44839   7.052   4.046  12.162 -0.5092  0.7305 -0.4581
  333MOL0     C44840   7.084   4.036  12.310 -0.1177 -0.1843  0.2506
  333MOL0     C44841   7.179   3.914  12.338 -0.2095  1.2209 -0.1106
  333MOL0     C44842   7.107   3.789  12.378 -0.5380  0.6923 -0.4661
  333MOL0     C44843   7.210   3.678  12.426 -0.4710 -0.2726  0.1373
  333MOL0     O44844   7.249   3.721  12.555  0.1922  0.6530 -0.2029
  333MOL0     C44845   7.383   3.716  12.593  0.7628  0.8232  0.1295
  333MOL0     C44846   7.479   3.626  12.548  0.4488  0.7567  0.2345
  333MOL0     C44847   7.599   3.608  12.616  0.1733  0.0165 -0.5433
  333MOL0     C44848   7.633   3.677  12.728 -0.3159 -0.6559 -0.0195
  333MOL0     C44849   7.768   3.668  12.795 -0.2930  0.0377  0.1182
  333MOL0     O44850   7.833   3.548  12.768  0.2000  0.4142 -0.0872
  333MOL0     C44851   7.963   3.555  12.812 -0.2687 -1.0496 -0.5936
  333MOL0     C44852   7.994   3.526  12.945  0.1645  1.0031  0.4685
  333MOL0     C44853   8.124   3.524  12.998  0.2533 -0.5317 -0.8800
  333MOL0     C44854   8.235   3.548  12.920 -0.5202 -0.8050 -0.1936
  333MOL0     O44855   8.364   3.558  12.959 -0.2716 -0.5402  0.3393
  333MOL0     C44856   8.409   3.531  13.090 -0.0557  0.4509  0.2563
  333MOL0     C44857   8.553   3.595  13.100  0.0058  0.4399  0.3865
  333MOL0     C44858   8.620   3.582  13.239 -0.0097  0.3608 -0.8109
  333MOL0     C44859   8.654   3.436  13.273 -0.3212  0.2022  0.6929
  333MOL0     C44860   8.756   3.450  13.387 -0.0366  0.5296 -0.7610
  333MOL0     C44861   8.818   3.318  13.427 -0.1786  0.0059  1.7733
  333MOL0     C44862   8.903   3.323  13.554 -0.0850  0.1561 -0.0481
  333MOL0     C44863   9.009   3.218  13.584 -0.4103  0.9121  0.8398
  333MOL0    Cl44864   9.122   3.225  13.437 -0.0576 -0.2917 -0.1176
  333MOL0     C44865   8.208   3.582  12.784 -0.1003 -0.4770  0.2438
  333MOL0     C44866   8.073   3.581  12.732 -0.0571  0.0256  0.6480
  333MOL0     O44867   7.810   3.758  12.863  0.3745  0.0346 -0.1914
  333MOL0     C44868   7.550   3.783  12.765 -0.5283 -0.6482  0.4354
  333MOL0     C44869   7.422   3.796  12.709  0.3821  0.5024  0.5740
  333MOL0     N44870   7.020   3.939  12.079 -0.0506 -0.3723 -0.3991
  333MOL0     N44871   7.012   3.986  11.954 -0.8390  0.3133 -0.1252
  333MOL0     C44872   6.289   4.770  11.283 -0.4531 -0.8422  1.1243
  333MOL0     C44873   6.193   4.819  11.197 -0.4474  0.3373  0.3412
  333MOL0     C44874   5.825   4.759  10.913  0.0718  0.0502  0.8688
  333MOL0     C44875   5.879   4.779  10.786 -0.6095  0.0248  1.0509
  333MOL0     C44876   5.793   4.792  10.674 -0.1110  0.2326 -0.4989
  333MOL0     C44877   5.652   4.772  10.692  0.2384 -0.8312  0.1857
  333MOL0     O44878   5.572   4.783  10.575  0.1439 -0.1029 -0.9509
  333MOL0     C44879   5.435   4.728  10.572  0.7764 -0.1734  0.6358
  333MOL0     C44880   5.431   4.583  10.592  0.8904  1.1628  0.1861
  333MOL0     C44881   5.292   4.520  10.583 -0.4750  0.7805 -0.4031
  333MOL0     C44882   5.288   4.366  10.549 -0.2866 -0.5332 -0.4474
  333MOL0     C44883   5.319   4.353  10.414  0.2739  1.3856 -0.2115
  333MOL0     C44884   5.361   4.336  10.300  0.3503 -0.7402 -0.4359
  333MOL0     C44885   5.596   4.755  10.822 -0.0942 -0.5763  0.7568
  333MOL0     C44886   5.690   4.743  10.933  0.1814 -0.0906  0.5835
  333MOL0     C44887   5.624   4.725  11.070  0.6895 -0.4290  0.3420
  333MOL0     H44888   6.201   4.552  10.983 -0.9091 -1.7558  1.3245
  333MOL0     H44889   6.364   4.476  11.155 -1.9715 -1.1668  1.2194
  333MOL0     H44890   6.457   4.733  11.521 -0.3533  0.3704 -1.8118
  333MOL0     H44891   6.331   4.623  11.531  1.2711 -2.6234  4.0564
  333MOL0     H44892   6.521   4.438  11.543  1.5665  1.3090 -0.8790
  333MOL0     H44893   6.476   4.541  11.680  1.1333  0.0163  0.8193
  333MOL0     H44894   6.658   4.701  11.630  0.4617  0.4969 -1.3943
  333MOL0     H44895   6.702   4.599  11.484  2.1612 -1.9474  1.8237
  333MOL0     H44896   6.828   4.581  11.692 -0.8333 -0.0945 -0.3461
  333MOL0     H44897   6.693   4.504  11.774 -0.5432  2.7364  0.1278
  333MOL0     H44898   6.730   4.303  11.618  0.1585  0.1977 -1.0121
  333MOL0     H44899   6.816   4.404  11.503  0.2682 -2.0225 -0.8394
  333MOL0     H44900   6.990   4.293  11.598 -0.4181 -0.8271 -0.4115
  333MOL0     H44901   6.986   4.431  11.708  3.2453 -1.6505 -0.2518
  333MOL0     H44902   6.864   4.161  11.762 -2.4834  1.5340  0.3789
  333MOL0     H44903   6.847   4.310  11.855 -0.2401  1.6895 -2.1206
  333MOL0     H44904   7.106   4.173  11.767  0.0520 -0.9204  0.5038
  333MOL0     H44905   7.098   4.303  11.892 -0.6854 -1.9764  3.0973
  333MOL0     H44906   7.082   4.257  12.124 -0.3346  1.0080 -0.9463
  333MOL0     H44907   7.136   4.127  12.341 -1.0616  0.2906  0.4959
  333MOL0     H44908   6.995   4.033  12.374 -0.9841 -3.0157 -0.9145
  333MOL0     H44909   7.236   3.887  12.248  1.3141  2.1829  0.5244
  333MOL0     H44910   7.240   3.945  12.424 -0.9711  0.9519  0.5389
  333MOL0     H44911   7.061   3.758  12.284  0.5762 -0.2026 -0.7464
  333MOL0     H44912   7.027   3.799  12.452 -0.0868 -1.9724  0.5133
  333MOL0     H44913   7.298   3.682  12.362  0.3950  1.1150  1.3542
  333MOL0     H44914   7.178   3.573  12.434  2.9983 -1.4789 -0.1182
  333MOL0     H44915   7.453   3.554  12.471 -1.1143 -0.1986  1.5747
  333MOL0     H44916   7.661   3.525  12.581  1.4087  1.6805 -2.5272
  333MOL0     H44917   7.911   3.505  13.011  0.0884 -2.2000 -0.4713
  333MOL0     H44918   8.127   3.510  13.106 -0.4247  2.5955 -0.3727
  333MOL0     H44919   8.351   3.575  13.171  1.4147  0.3840  1.3923
  333MOL0     H44920   8.403   3.423  13.101 -1.8043  0.7631  3.6063
  333MOL0     H44921   8.611   3.555  13.017  0.5482 -2.8695  2.1732
  333MOL0     H44922   8.540   3.702  13.078 -2.0452  0.4674  1.5140
  333MOL0     H44923   8.716   3.633  13.238 -1.1545  2.7275  0.4030
  333MOL0     H44924   8.562   3.619  13.324  3.4079  1.9906  0.9739
  333MOL0     H44925   8.703   3.385  13.189  2.6286 -2.0227  3.5096
  333MOL0     H44926   8.574   3.375  13.314 -0.7067  0.6894  0.6673
  333MOL0     H44927   8.700   3.486  13.475 -1.9861 -1.0581 -1.2830
  333MOL0     H44928   8.837   3.519  13.362  0.8717  1.1114  3.1017
  333MOL0     H44929   8.741   3.241  13.432 -2.3396  2.0843  2.6408
  333MOL0     H44930   8.884   3.279  13.349 -1.5778  0.3139  0.3911
  333MOL0     H44931   8.836   3.339  13.638 -1.5906  2.8402 -1.6345
  333MOL0     H44932   8.961   3.416  13.561 -0.0875  0.3002 -1.6664
  333MOL0     H44933   9.071   3.231  13.674  1.4489 -2.5709  0.2359
  333MOL0     H44934   8.963   3.119  13.589  0.4860  0.5082  1.3801
  333MOL0     H44935   8.289   3.609  12.718 -0.9945  1.5623 -0.0796
  333MOL0     H44936   8.046   3.600  12.629  3.8115 -1.2981 -0.7864
  333MOL0     H44937   7.570   3.856  12.842 -1.4930  0.9989 -0.7978
  333MOL0     H44938   7.361   3.878  12.745 -3.6142 -2.5949  1.4249
  333MOL0     H44939   6.336   4.839  11.353 -2.2277  0.1052  1.4358
  333MOL0     H44940   6.153   4.918  11.215  0.6732  0.6616  1.1208
  333MOL0     H44941   5.987   4.784  10.772 -0.7512  1.2827  0.1766
  333MOL0     H44942   5.844   4.806  10.580  0.0374 -0.0946 -0.4678
  333MOL0     H44943   5.400   4.745  10.470  0.4892 -3.8489 -0.0429
  333MOL0     H44944   5.370   4.779  10.643 -0.1651 -1.5662  0.8288
  333MOL0     H44945   5.480   4.553  10.685  0.2355 -0.7822 -0.0364
  333MOL0     H44946   5.492   4.542  10.510  0.8957  1.4066  0.0698
  333MOL0     H44947   5.241   4.577  10.505  1.2663  1.4287 -1.1267
  333MOL0     H44948   5.247   4.536  10.681  2.1922  4.1364  0.4894
  333MOL0     H44949   5.362   4.306  10.603  1.1503  1.6177  0.1438
  333MOL0     H44950   5.182   4.343  10.564 -1.1491  2.8512 -0.5165
  333MOL0     H44951   5.406   4.333  10.204 -0.3594 -0.5971 -0.7825
  333MOL0     H44952   5.488   4.757  10.832 -0.1641  0.4091  0.0579
  333MOL0     H44953   5.518   4.701  11.057  0.4846 -0.2063  1.4561
  333MOL0     H44954   5.675   4.635  11.104  0.2253 -1.1461 -0.8253
  333MOL0     H44955   5.636   4.808  11.140 -4.0099  0.1618  0.7414
  334MOL0     O44956   1.576   2.936   7.282  0.2885  0.6511  0.0056
  334MOL0     C44957   1.623   3.018   7.211 -0.7202  0.0945  0.2417
  334MOL0     O44958   1.721   2.998   7.117  0.5407  0.1467  0.2409
  334MOL0     C44959   1.812   2.895   7.120  0.3765  0.2414 -0.3418
  334MOL0     C44960   1.861   2.820   7.233  0.8678 -0.5408 -0.6677
  334MOL0     C44961   1.960   2.723   7.223 -0.2901  0.2364  0.7948
  334MOL0     C44962   2.013   2.694   7.099 -0.4082  0.8786  1.2481
  334MOL0     O44963   2.113   2.600   7.069 -0.5750  0.1031  0.0068
  334MOL0     C44964   2.208   2.559   7.173  0.2557  0.3518 -0.1100
  334MOL0     C44965   2.354   2.523   7.124 -0.4698 -0.7153  0.1149
  334MOL0     C44966   2.346   2.402   7.035  0.2075 -0.4508  0.5223
  334MOL0     C44967   2.479   2.362   6.967  0.0009 -0.1900  0.3114
  334MOL0     C44968   2.437   2.240   6.882  0.2447 -0.1892  0.8674
  334MOL0     C44969   2.567   2.213   6.800  0.1644  0.9011  0.2557
  334MOL0     C44970   2.531   2.120   6.682 -0.1193  0.5992 -0.1482
  334MOL0     C44971   2.649   2.115   6.574  0.2948  0.1312  0.2950
  334MOL0     N44972   2.778   2.053   6.610 -0.2681  0.6774 -0.2369
  334MOL0     C44973   2.890   2.110   6.673 -0.0832 -0.6761 -0.1548
  334MOL0     C44974   2.959   2.005   6.726 -0.1687  0.0403  0.4891
  334MOL0     C44975   3.089   2.020   6.793  0.1000 -0.0841  0.2872
  334MOL0     C44976   3.209   1.978   6.703 -0.2010  0.6780  0.0427
  334MOL0     C44977   3.220   1.824   6.688 -0.7942 -0.4511 -0.7913
  334MOL0     C44978   3.309   1.760   6.806 -0.3224  0.0190 -0.1331
  334MOL0     O44979   3.441   1.811   6.803 -0.0855  0.4025  0.2604
  334MOL0     C44980   3.546   1.756   6.878 -0.1686  0.2660  0.0684
  334MOL0     C44981   3.536   1.639   6.962  0.3088  0.0313 -0.3510
  334MOL0     C44982   3.644   1.597   7.044  0.3584  0.3909  0.8506
  334MOL0     C44983   3.763   1.663   7.036 -0.6204 -0.0741 -0.0239
  334MOL0     C44984   3.882   1.613   7.105 -0.2694  0.0111 -0.3343
  334MOL0     O44985   4.007   1.623   7.045  0.2222 -0.2633 -0.2903
  334MOL0     C44986   4.126   1.561   7.102  0.4014  0.0565  0.5594
  334MOL0     C44987   4.210   1.499   7.006 -0.1441 -0.0251  0.1286
  334MOL0     C44988   4.327   1.435   7.055 -0.0250  0.8099 -0.9746
  334MOL0     C44989   4.368   1.449   7.186  0.9973  0.8501 -0.9580
  334MOL0     O44990   4.489   1.411   7.226  0.0718  0.0445 -0.0816
  334MOL0     C44991   4.507   1.269   7.238 -0.1464 -0.2181 -0.0837
  334MOL0     C44992   4.649   1.233   7.203 -0.0845 -0.8176 -0.3895
  334MOL0     C44993   4.689   1.101   7.259  0.0387 -0.0170  0.3945
  334MOL0     C44994   4.845   1.068   7.252 -0.3191 -0.5176  0.8039
  334MOL0     C44995   4.886   0.938   7.320 -0.8935 -0.3261 -0.5624
  334MOL0     C44996   5.035   0.925   7.317  0.1725 -0.0871 -0.0279
  334MOL0     C44997   5.110   0.912   7.182  0.1147  0.0843  1.1083
  334MOL0     C44998   5.260   0.892   7.209 -0.7076 -0.7864  0.5357
  334MOL0    Cl44999   5.332   0.831   7.060  0.5638 -0.1969 -0.2815
  334MOL0     C45000   4.288   1.520   7.280  0.5417 -0.2343 -0.9667
  334MOL0     C45001   4.162   1.566   7.237  0.1261  0.3379  0.3405
  334MOL0     O45002   3.868   1.580   7.224 -0.2395  0.2412  0.3405
  334MOL0     C45003   3.773   1.770   6.941  0.8044 -0.8945  0.0283
  334MOL0     C45004   3.674   1.807   6.853  0.4599 -0.0829 -0.1291
  334MOL0     N45005   2.886   1.887   6.708  0.5595  0.5097  0.4245
  334MOL0     N45006   2.774   1.919   6.642 -0.2046 -0.1816  0.5698
  334MOL0     C45007   1.967   2.775   6.987  0.2029 -0.0020  0.8380
  334MOL0     C45008   1.864   2.871   6.993  0.3936  0.5512  0.0500
  334MOL0     C45009   1.575   3.159   7.217 -0.0187  0.1072 -0.0769
  334MOL0     C45010   1.606   3.239   7.329  0.8680 -0.4889 -0.5758
  334MOL0     C45011   1.550   3.365   7.342 -0.4005 -0.0888  0.1368
  334MOL0     C45012   1.460   3.411   7.242 -0.3228 -1.2775  0.4141
  334MOL0     O45013   1.393   3.523   7.248  0.1487 -0.1362  0.0272
  334MOL0     C45014   1.397   3.610   7.356  0.0534  0.0889 -0.7904
  334MOL0     C45015   1.356   3.750   7.312 -0.0406  0.4463 -0.7837
  334MOL0     C45016   1.379   3.845   7.436  0.2853  0.3266 -1.5178
  334MOL0     C45017   1.314   3.981   7.417  0.1329  0.5946 -0.3959
  334MOL0     C45018   1.164   3.972   7.429  0.0193  0.0062 -0.8318
  334MOL0     C45019   1.045   3.971   7.436  0.3395  0.0054  0.1207
  334MOL0     C45020   1.432   3.333   7.127 -0.1468 -0.4060 -0.2606
  334MOL0     C45021   1.502   3.221   7.111 -0.1740  0.4418 -0.0252
  334MOL0     C45022   1.467   3.153   6.977 -0.5907  0.3085  0.2128
  334MOL0     H45023   1.811   2.840   7.327  0.9303 -2.0330 -0.2786
  334MOL0     H45024   2.000   2.689   7.318 -0.6598  1.9200  1.5883
  334MOL0     H45025   2.216   2.634   7.251  0.3662 -0.8891  1.1161
  334MOL0     H45026   2.163   2.469   7.217 -0.7194 -0.0990 -1.9058
  334MOL0     H45027   2.416   2.485   7.206 -0.5921 -0.7862  0.1740
  334MOL0     H45028   2.399   2.612   7.080 -1.4838 -0.4380 -0.3834
  334MOL0     H45029   2.277   2.433   6.955  1.8655  1.3089 -0.3025
  334MOL0     H45030   2.311   2.320   7.098  1.2060 -1.3073 -0.0124
  334MOL0     H45031   2.513   2.433   6.891  3.1237 -3.6440 -1.8510
  334MOL0     H45032   2.560   2.344   7.037 -0.0578 -2.1724 -0.0900
  334MOL0     H45033   2.393   2.160   6.943  0.7591  0.0731  1.5902
  334MOL0     H45034   2.359   2.269   6.812 -2.2665 -2.6594  2.4023
  334MOL0     H45035   2.620   2.300   6.761  0.6643 -0.0338 -1.2214
  334MOL0     H45036   2.639   2.167   6.869 -0.0844 -2.5010 -1.5454
  334MOL0     H45037   2.446   2.166   6.631 -2.2797 -0.7924  1.9860
  334MOL0     H45038   2.492   2.023   6.715 -0.2817  0.9603  0.7477
  334MOL0     H45039   2.618   2.078   6.477  1.0393  0.8596 -0.2372
  334MOL0     H45040   2.679   2.218   6.553 -0.3526  0.8807  2.6642
  334MOL0     H45041   2.907   2.217   6.681 -1.9793 -0.4287  1.1101
  334MOL0     H45042   3.099   2.125   6.820 -0.8457 -0.0182  0.4272
  334MOL0     H45043   3.092   1.956   6.882 -2.1346  0.8648  1.1137
  334MOL0     H45044   3.188   2.016   6.603  0.6564  1.4492  0.1468
  334MOL0     H45045   3.302   2.021   6.741  1.8303 -2.5859 -0.8745
  334MOL0     H45046   3.284   1.803   6.601  1.4159 -3.2557  1.3004
  334MOL0     H45047   3.126   1.771   6.667 -0.7030 -1.2652  0.7316
  334MOL0     H45048   3.319   1.651   6.799 -0.2924  0.0932 -1.7797
  334MOL0     H45049   3.260   1.771   6.903  0.7648  1.0506  0.3334
  334MOL0     H45050   3.441   1.586   6.969  0.9097 -1.1636 -0.9331
  334MOL0     H45051   3.641   1.501   7.095  0.2263 -0.6257 -0.9745
  334MOL0     H45052   4.178   1.487   6.903  1.0848  2.2528 -0.5962
  334MOL0     H45053   4.390   1.376   6.990  1.4813  1.9631 -0.6205
  334MOL0     H45054   4.477   1.239   7.339  0.1875  3.8313  1.3841
  334MOL0     H45055   4.449   1.221   7.158 -0.0848  0.2811 -0.4280
  334MOL0     H45056   4.674   1.221   7.097  1.6140 -2.8540  0.1613
  334MOL0     H45057   4.709   1.314   7.245 -4.0403  4.6558 -3.8376
  334MOL0     H45058   4.650   1.103   7.361 -1.5305  1.0034 -0.1911
  334MOL0     H45059   4.638   1.014   7.215  0.7649 -0.5741  0.6315
  334MOL0     H45060   4.898   1.149   7.303 -2.3216  2.2841 -1.2288
  334MOL0     H45061   4.865   1.065   7.145 -2.5752  0.6939  0.2918
  334MOL0     H45062   4.835   0.854   7.271 -2.5586  0.7296 -0.7185
  334MOL0     H45063   4.847   0.953   7.421 -1.3262 -1.5415 -0.5354
  334MOL0     H45064   5.080   1.004   7.377 -0.9789 -0.5824  1.5474
  334MOL0     H45065   5.052   0.828   7.366 -0.2567 -2.1029 -3.4908
  334MOL0     H45066   5.105   1.003   7.121  0.7484 -0.5190  0.1393
  334MOL0     H45067   5.061   0.829   7.130  1.6349  0.5151 -1.1547
  334MOL0     H45068   5.301   0.988   7.239 -0.7143 -0.6175  0.0163
  334MOL0     H45069   5.287   0.800   7.262 -3.8458 -2.8846 -1.1530
  334MOL0     H45070   4.314   1.540   7.383 -0.7707  2.5430 -1.0857
  334MOL0     H45071   4.088   1.607   7.305 -2.1663 -1.1525 -1.0999
  334MOL0     H45072   3.872   1.815   6.934 -0.1426  2.1146  3.3247
  334MOL0     H45073   3.684   1.876   6.769 -3.5357 -0.5708 -1.2162
  334MOL0     H45074   2.010   2.744   6.893 -0.7521 -0.8266  0.6514
  334MOL0     H45075   1.839   2.929   6.905  0.2600  1.0982  0.4360
  334MOL0     H45076   1.674   3.201   7.404  0.1312 -3.3369 -1.2254
  334MOL0     H45077   1.590   3.425   7.423 -0.0737  0.7188 -0.5997
  334MOL0     H45078   1.494   3.629   7.401 -0.4876 -1.5817  1.2263
  334MOL0     H45079   1.326   3.573   7.431 -0.6948 -1.6829 -2.2789
  334MOL0     H45080   1.250   3.755   7.283 -0.6224  3.1072  1.3946
  334MOL0     H45081   1.425   3.781   7.233 -0.4342 -0.2370 -1.4027
  334MOL0     H45082   1.485   3.867   7.456 -0.0129  1.4152 -1.0821
  334MOL0     H45083   1.338   3.795   7.524  1.7083 -1.9179 -2.0244
  334MOL0     H45084   1.366   4.040   7.493  2.4694 -0.1915 -1.2926
  334MOL0     H45085   1.335   4.022   7.319 -1.1212  1.3812 -0.3468
  334MOL0     H45086   0.938   3.976   7.436  0.3647  0.9999 -0.7889
  334MOL0     H45087   1.360   3.367   7.053 -1.1444  1.5925  1.5332
  334MOL0     H45088   1.539   3.075   6.952 -1.9125 -1.0621  0.5038
  334MOL0     H45089   1.375   3.095   6.988  0.8279 -2.3356 -0.9062
  334MOL0     H45090   1.448   3.228   6.899 -1.6323  1.7914  1.8060
  335MOL0     O45091  11.056   3.475   4.444  0.2216  0.2928 -0.4455
  335MOL0     C45092  11.123   3.388   4.496 -0.1197 -0.5616 -0.8556
  335MOL0     O45093  11.078   3.313   4.602 -0.3543  0.0128  0.0810
  335MOL0     C45094  10.965   3.351   4.672  0.0882 -0.1209 -0.6425
  335MOL0     C45095  10.921   3.479   4.704  0.2562  0.1315 -0.0406
  335MOL0     C45096  10.800   3.499   4.768  0.1115 -0.1474  0.1105
  335MOL0     C45097  10.711   3.398   4.811 -0.4930 -0.2357  0.0854
  335MOL0     O45098  10.589   3.430   4.863  0.1127 -0.1186 -0.2398
  335MOL0     C45099  10.490   3.334   4.834  0.2662 -0.1326 -0.1660
  335MOL0     C45100  10.348   3.382   4.868 -0.0297 -0.2263  0.1478
  335MOL0     C45101  10.322   3.387   5.018 -0.8510 -0.7021 -0.6584
  335MOL0     C45102  10.393   3.499   5.092  0.9720  0.3181  0.2590
  335MOL0     C45103  10.396   3.466   5.242 -0.0589  0.3506  0.5203
  335MOL0     C45104  10.264   3.505   5.309  0.3071  0.0976  0.2600
  335MOL0     C45105  10.234   3.649   5.307  1.0461 -1.0615 -0.7459
  335MOL0     C45106  10.259   3.705   5.450 -0.8247 -0.6770 -0.5152
  335MOL0     N45107  10.400   3.684   5.498  0.2732 -0.1471 -0.2668
  335MOL0     C45108  10.436   3.605   5.608  0.0602  0.3158  0.4645
  335MOL0     C45109  10.571   3.624   5.608 -0.0073  0.4823 -0.2324
  335MOL0     C45110  10.666   3.528   5.688  0.0039 -0.4164  0.5146
  335MOL0     C45111  10.821   3.493   5.647  0.8793 -1.0748 -1.0261
  335MOL0     C45112  10.937   3.568   5.731  0.1688 -0.3975 -0.1452
  335MOL0     C45113  11.073   3.504   5.706  0.9734 -0.2022  0.4823
  335MOL0     O45114  11.112   3.550   5.577 -0.5796 -0.1074  1.0700
  335MOL0     C45115  11.246   3.532   5.534 -0.0574 -0.4483 -0.7255
  335MOL0     C45116  11.308   3.597   5.426  0.6922 -0.3509 -0.8761
  335MOL0     C45117  11.439   3.585   5.397  0.6402 -0.0541  0.4144
  335MOL0     C45118  11.521   3.500   5.475 -0.6704 -0.4671  1.1759
  335MOL0     C45119  11.668   3.485   5.433  0.0679 -0.5331 -0.4176
  335MOL0     O45120  11.745   3.405   5.513 -1.1517  0.5205  0.6158
  335MOL0     C45121  11.870   3.363   5.482  0.8681 -0.1927  0.5950
  335MOL0     C45122  11.979   3.385   5.566 -0.0058 -0.4333 -0.3771
  335MOL0     C45123  12.103   3.317   5.546 -0.0070  0.0972 -1.0420
  335MOL0     C45124  12.126   3.237   5.433  0.6675 -0.2553 -0.4828
  335MOL0     O45125  12.237   3.153   5.399  0.0573 -0.6668  0.6222
  335MOL0     C45126  12.351   3.189   5.476  0.0241 -0.1579 -0.1583
  335MOL0     C45127  12.451   3.076   5.456 -0.5799  0.1829  0.2168
  335MOL0     C45128  12.565   3.097   5.545 -0.3029  0.2916 -0.0460
  335MOL0     C45129  12.666   2.981   5.507 -0.1983 -0.3705 -0.2533
  335MOL0     C45130  12.804   3.005   5.574 -0.1356  0.5239 -0.5003
  335MOL0     C45131  12.891   3.120   5.537  0.0434 -0.2212  0.5222
  335MOL0     C45132  13.021   3.114   5.616 -0.6728 -0.2074 -0.0642
  335MOL0     C45133  13.103   3.245   5.600  0.1511  1.0963  0.2695
  335MOL0    Cl45134  13.230   3.261   5.723 -0.2963 -0.6314 -0.2707
  335MOL0     C45135  12.010   3.213   5.351 -0.8782 -0.9082  0.3755
  335MOL0     C45136  11.893   3.271   5.372  0.7942  0.2305  0.1859
  335MOL0     O45137  11.701   3.539   5.332  0.1027 -0.4203 -0.1951
  335MOL0     C45138  11.463   3.428   5.579  0.3559  0.9490 -0.8095
  335MOL0     C45139  11.332   3.447   5.607 -0.2077 -0.6302 -0.5370
  335MOL0     N45140  10.618   3.712   5.508  0.0382  0.0029  0.8352
  335MOL0     N45141  10.510   3.751   5.440 -0.2893 -0.5074 -0.0587
  335MOL0     C45142  10.752   3.263   4.783 -0.1725  0.1295 -0.4586
  335MOL0     C45143  10.882   3.248   4.717  0.1405  0.1390  0.1765
  335MOL0     C45144  11.269   3.372   4.480  0.8462  0.5636 -0.4110
  335MOL0     C45145  11.320   3.238   4.461 -0.1678 -0.4124  0.2673
  335MOL0     C45146  11.456   3.204   4.447  0.1041 -0.0070 -0.4677
  335MOL0     C45147  11.550   3.300   4.449 -0.5951 -1.0703 -0.1377
  335MOL0     O45148  11.679   3.262   4.455  0.3616 -0.1365  0.4753
  335MOL0     C45149  11.774   3.345   4.528 -0.7127 -0.2157 -0.9545
  335MOL0     C45150  11.913   3.278   4.524  0.5861 -0.0909 -0.0689
  335MOL0     C45151  12.026   3.360   4.585 -0.3383  1.2809  0.8486
  335MOL0     C45152  12.162   3.292   4.588 -0.3320 -0.7054 -0.5316
  335MOL0     C45153  12.227   3.288   4.466 -0.6599  0.4698 -0.0465
  335MOL0     C45154  12.288   3.289   4.358 -0.1447  0.1507 -1.1818
  335MOL0     C45155  11.499   3.436   4.442  0.1798  0.2611  0.2285
  335MOL0     C45156  11.363   3.476   4.461 -0.5850 -0.7320  0.6210
  335MOL0     C45157  11.329   3.626   4.443  0.5774  0.9941  0.3205
  335MOL0     H45158  10.990   3.559   4.678  1.4099 -0.8905 -0.1959
  335MOL0     H45159  10.759   3.597   4.787  0.6559  0.1586 -0.2929
  335MOL0     H45160  10.486   3.322   4.726 -0.1310 -2.6725  0.0628
  335MOL0     H45161  10.506   3.241   4.889  0.4877 -1.1589 -1.9058
  335MOL0     H45162  10.270   3.315   4.833 -1.2493  1.2289 -0.0033
  335MOL0     H45163  10.334   3.474   4.811  0.9612  0.3562  0.8031
  335MOL0     H45164  10.354   3.290   5.056  1.4837  1.0101  2.2452
  335MOL0     H45165  10.214   3.404   5.024 -0.9245 -0.6032 -1.9433
  335MOL0     H45166  10.495   3.507   5.052  0.8057 -1.4648 -0.6350
  335MOL0     H45167  10.349   3.596   5.069 -0.0822  1.0478  4.4982
  335MOL0     H45168  10.417   3.363   5.269 -2.6484  0.4138  3.2398
  335MOL0     H45169  10.483   3.519   5.284  2.3974  0.0883 -3.6665
  335MOL0     H45170  10.178   3.453   5.264 -1.4277  3.7520 -1.0371
  335MOL0     H45171  10.262   3.472   5.413 -0.3846  1.5028  0.7224
  335MOL0     H45172  10.128   3.654   5.282  0.8673 -0.1330  0.1208
  335MOL0     H45173  10.287   3.712   5.234 -0.4260 -1.5095 -2.2471
  335MOL0     H45174  10.241   3.813   5.450 -0.5612 -0.5663 -3.4511
  335MOL0     H45175  10.194   3.653   5.522  1.0561 -1.6953  0.5183
  335MOL0     H45176  10.372   3.535   5.661 -0.6680 -0.3465 -1.1987
  335MOL0     H45177  10.665   3.566   5.790 -2.8845  0.2237  0.3457
  335MOL0     H45178  10.624   3.428   5.673  0.9939 -1.1920  2.6629
  335MOL0     H45179  10.837   3.394   5.689 -0.4787 -0.0929  2.1293
  335MOL0     H45180  10.828   3.497   5.538 -2.6271  0.0405 -1.3548
  335MOL0     H45181  10.920   3.553   5.838  0.4935 -1.8870 -0.2799
  335MOL0     H45182  10.933   3.674   5.703 -0.5188  0.1214  1.7884
  335MOL0     H45183  11.070   3.395   5.718  3.7293 -0.3572  0.5394
  335MOL0     H45184  11.142   3.532   5.786 -0.3409 -1.6607  2.2074
  335MOL0     H45185  11.245   3.665   5.369  1.3857  0.3423 -0.8318
  335MOL0     H45186  11.470   3.644   5.311 -0.9175  0.0204 -0.1228
  335MOL0     H45187  11.959   3.452   5.649 -0.4308 -1.8796  0.7389
  335MOL0     H45188  12.176   3.328   5.625 -0.0214  0.3693 -1.0635
  335MOL0     H45189  12.389   3.284   5.437  0.0165  0.7594  1.9141
  335MOL0     H45190  12.324   3.204   5.581  3.0720  3.6062  0.2937
  335MOL0     H45191  12.394   2.989   5.489 -0.7015  0.3105  0.3417
  335MOL0     H45192  12.486   3.077   5.352  0.4279 -0.0392  0.5452
  335MOL0     H45193  12.612   3.193   5.521  0.9702 -0.2792  0.1057
  335MOL0     H45194  12.531   3.092   5.649  0.6657  1.8014  0.3792
  335MOL0     H45195  12.673   2.981   5.398 -0.2823  0.2186 -0.2650
  335MOL0     H45196  12.638   2.880   5.539  2.8127 -0.9982  0.7737
  335MOL0     H45197  12.862   2.920   5.538  1.8426  0.3963  2.6318
  335MOL0     H45198  12.798   2.995   5.683  3.3305 -3.9669 -0.4296
  335MOL0     H45199  12.902   3.139   5.430  1.4877 -0.7775  0.5566
  335MOL0     H45200  12.840   3.208   5.577  0.3289 -1.0149  2.7449
  335MOL0     H45201  13.077   3.022   5.597 -2.9677 -1.8530  0.7088
  335MOL0     H45202  12.994   3.112   5.722 -1.8008 -1.6113 -0.3533
  335MOL0     H45203  13.155   3.253   5.504 -1.4541  0.8128 -0.6536
  335MOL0     H45204  13.035   3.329   5.589  0.4863  1.4870  1.0659
  335MOL0     H45205  12.016   3.148   5.265  3.5676  1.1748 -1.2437
  335MOL0     H45206  11.811   3.247   5.306  0.9708  0.3892 -0.0921
  335MOL0     H45207  11.526   3.362   5.638 -2.0718 -0.2856  0.5623
  335MOL0     H45208  11.293   3.391   5.691  0.3864 -0.6909 -0.2966
  335MOL0     H45209  10.698   3.173   4.808  3.2490 -2.6252 -2.0318
  335MOL0     H45210  10.906   3.147   4.685 -0.1915  0.3126 -0.6441
  335MOL0     H45211  11.249   3.155   4.464  0.1178 -0.6601  0.2659
  335MOL0     H45212  11.476   3.098   4.448 -1.4064 -0.3477  2.7831
  335MOL0     H45213  11.742   3.347   4.632  4.1029 -0.3393  0.7784
  335MOL0     H45214  11.779   3.447   4.489  2.1530  0.2461  0.3223
  335MOL0     H45215  11.943   3.258   4.421  2.2398  0.8229  0.1959
  335MOL0     H45216  11.908   3.186   4.584  0.5575  1.2780  2.1226
  335MOL0     H45217  11.990   3.385   4.686  1.0928 -2.1949  2.3652
  335MOL0     H45218  12.036   3.455   4.532  0.2831  0.4092 -0.6343
  335MOL0     H45219  12.221   3.359   4.651  0.7234  0.1639 -2.3666
  335MOL0     H45220  12.163   3.189   4.625 -0.7219 -0.1023  1.2565
  335MOL0     H45221  12.334   3.288   4.261  1.2534  2.0644 -0.6043
  335MOL0     H45222  11.570   3.515   4.420 -1.9003  3.4552  3.8079
  335MOL0     H45223  11.286   3.644   4.344  1.4348 -3.1199 -0.9780
  335MOL0     H45224  11.253   3.646   4.519 -1.6481 -1.9619 -0.9355
  335MOL0     H45225  11.424   3.680   4.452  0.0677  1.8530  0.5703
  336MOL0     O45226   2.841   0.552  11.238 -0.1093  0.0513 -0.5093
  336MOL0     C45227   2.736   0.559  11.305 -0.6797 -0.0972 -0.4852
  336MOL0     O45228   2.730   0.593  11.438  0.6320  0.2341  0.3308
  336MOL0     C45229   2.849   0.581  11.510 -0.1989 -0.1831 -0.2334
  336MOL0     C45230   2.909   0.696  11.559  0.3098 -0.3465  0.4404
  336MOL0     C45231   3.022   0.690  11.640 -1.0232  0.0280  1.0248
  336MOL0     C45232   3.092   0.571  11.654 -0.2884  0.2642  0.4099
  336MOL0     O45233   3.205   0.551  11.725  0.0515  0.3360 -0.0708
  336MOL0     C45234   3.268   0.671  11.776 -0.2407  0.1393  0.8719
  336MOL0     C45235   3.381   0.628  11.873  1.0236 -0.5227  0.3687
  336MOL0     C45236   3.517   0.623  11.802  1.2750  0.1955 -0.2555
  336MOL0     C45237   3.633   0.592  11.902 -0.0206 -0.0536 -0.6252
  336MOL0     C45238   3.775   0.602  11.850  0.4504  0.2705  0.0982
  336MOL0     C45239   3.881   0.560  11.961 -0.0857 -0.0012 -0.4451
  336MOL0     C45240   4.017   0.615  11.932  0.2501 -0.0712 -0.4642
  336MOL0     C45241   4.110   0.576  12.056  0.6925  0.1413  0.1505
  336MOL0     N45242   4.242   0.641  12.039 -0.0722 -0.6072  0.6565
  336MOL0     C45243   4.301   0.700  11.930 -0.6572  0.0328  0.5431
  336MOL0     C45244   4.404   0.771  11.978 -0.1126 -0.0346  0.0276
  336MOL0     C45245   4.488   0.876  11.910  0.0070  0.5103  0.5655
  336MOL0     C45246   4.599   0.937  11.994  0.3150 -0.1872 -0.6673
  336MOL0     C45247   4.707   0.836  12.023 -0.5981  0.1362  0.2708
  336MOL0     C45248   4.849   0.893  12.055 -1.3282 -0.1962 -0.6376
  336MOL0     O45249   4.936   0.785  12.102  0.7653 -0.5161  0.7873
  336MOL0     C45250   5.072   0.803  12.088 -0.7774  0.7485  0.1127
  336MOL0     C45251   5.162   0.694  12.101  0.1951 -1.5668  0.0523
  336MOL0     C45252   5.299   0.716  12.089 -0.5049  0.5181 -0.5090
  336MOL0     C45253   5.350   0.841  12.078 -0.1140  0.1482 -0.6996
  336MOL0     C45254   5.504   0.857  12.060  0.4582 -1.0191  0.7161
  336MOL0     O45255   5.575   0.756  12.013  0.4571  0.6486 -1.2324
  336MOL0     C45256   5.715   0.757  12.000  0.3541 -0.4564 -0.3339
  336MOL0     C45257   5.776   0.641  11.952  0.3361 -0.5152  0.5882
  336MOL0     C45258   5.913   0.631  11.939  0.2789  0.4069 -0.4083
  336MOL0     C45259   6.002   0.743  11.964 -0.1409  0.1164  0.8732
  336MOL0     O45260   6.135   0.742  11.952 -0.3256  0.5522 -0.0174
  336MOL0     C45261   6.193   0.617  11.910  0.3418 -0.4159  0.4401
  336MOL0     C45262   6.208   0.526  12.028  0.2995 -0.4136  0.6581
  336MOL0     C45263   6.207   0.377  11.995 -0.4611 -0.2360  0.3113
  336MOL0     C45264   6.253   0.296  12.110 -0.0010  0.0511 -0.2709
  336MOL0     C45265   6.401   0.301  12.134 -0.2313 -0.3438  0.4153
  336MOL0     C45266   6.497   0.264  12.011 -0.0327 -0.5312 -0.3116
  336MOL0     C45267   6.655   0.267  12.041  0.7288 -0.2436  0.0981
  336MOL0     C45268   6.705   0.409  12.044 -0.3390 -0.1402 -0.0699
  336MOL0    Cl45269   6.760   0.486  11.890  0.0135 -0.3235  0.2745
  336MOL0     C45270   5.939   0.862  11.999 -0.1154  0.0004  0.3657
  336MOL0     C45271   5.800   0.868  12.009  0.0857 -0.4233  0.6963
  336MOL0     O45272   5.545   0.969  12.093 -0.2736 -0.0833  0.3179
  336MOL0     C45273   5.268   0.955  12.084  0.1528 -0.3700  0.2506
  336MOL0     C45274   5.129   0.933  12.090  0.8730  0.9427 -0.3163
  336MOL0     N45275   4.418   0.758  12.119  0.2280 -0.1626 -0.3400
  336MOL0     N45276   4.315   0.676  12.153  0.5976  0.4508  0.2807
  336MOL0     C45277   3.028   0.449  11.602  0.3469 -0.0716 -0.2283
  336MOL0     C45278   2.910   0.455  11.532 -0.2434  0.6540  0.2227
  336MOL0     C45279   2.603   0.542  11.239 -0.6730 -0.2988  0.0952
  336MOL0     C45280   2.607   0.511  11.099  0.0277  0.6309  0.1848
  336MOL0     C45281   2.487   0.505  11.026 -0.8946  0.5531  0.7083
  336MOL0     C45282   2.363   0.534  11.091 -0.5362  0.2225 -0.3681
  336MOL0     O45283   2.236   0.517  11.032 -0.1240 -0.9697  0.0542
  336MOL0     C45284   2.222   0.536  10.892 -0.4427 -0.5825 -0.1835
  336MOL0     C45285   2.079   0.572  10.861  0.8269 -0.1050  0.7965
  336MOL0     C45286   2.059   0.575  10.708 -0.2351 -0.3620 -0.1723
  336MOL0     C45287   1.922   0.583  10.644 -0.1599  0.4900 -0.0707
  336MOL0     C45288   1.834   0.475  10.695 -0.3821 -0.2706 -1.7300
  336MOL0     C45289   1.760   0.387  10.733 -0.1508  0.1737 -0.8797
  336MOL0     C45290   2.365   0.560  11.221  0.3333  0.5369 -1.0193
  336MOL0     C45291   2.479   0.567  11.301 -0.4577  0.7761 -0.9587
  336MOL0     C45292   2.460   0.581  11.443 -1.3781 -0.9183 -0.2844
  336MOL0     H45293   2.856   0.791  11.556 -1.3094 -1.2292 -0.6673
  336MOL0     H45294   3.075   0.778  11.674 -0.2207  0.0420 -0.2403
  336MOL0     H45295   3.309   0.726  11.691  1.3029 -5.5946 -2.6220
  336MOL0     H45296   3.193   0.728  11.832 -0.2108 -1.6475  2.8515
  336MOL0     H45297   3.351   0.527  11.902 -1.5387  0.3528  1.0625
  336MOL0     H45298   3.383   0.701  11.955  0.7555  2.0040 -1.7333
  336MOL0     H45299   3.536   0.722  11.760  0.6621 -0.3115 -1.8147
  336MOL0     H45300   3.520   0.542  11.729  0.1160 -0.6874  0.6339
  336MOL0     H45301   3.631   0.668  11.980  0.9665  0.1309 -0.7754
  336MOL0     H45302   3.603   0.494  11.941 -3.4032  1.0801 -0.0776
  336MOL0     H45303   3.787   0.538  11.762  2.2946 -0.7710  1.0256
  336MOL0     H45304   3.792   0.706  11.820  1.0384  0.0514 -0.3494
  336MOL0     H45305   3.841   0.588  12.059 -0.1408 -3.3600  0.6008
  336MOL0     H45306   3.899   0.454  11.979  3.6585 -0.2090 -3.9549
  336MOL0     H45307   4.011   0.724  11.928  1.0403 -0.0251 -0.5627
  336MOL0     H45308   4.060   0.577  11.839  0.8200  2.3357 -1.2727
  336MOL0     H45309   4.074   0.613  12.152 -4.7163  1.3806 -1.9993
  336MOL0     H45310   4.120   0.468  12.069 -0.9497  0.0849  1.0960
  336MOL0     H45311   4.264   0.705  11.828  0.3041  1.4436  0.2280
  336MOL0     H45312   4.522   0.831  11.816 -2.1417  2.2339 -1.1445
  336MOL0     H45313   4.428   0.958  11.869 -1.1838  0.2177  1.6956
  336MOL0     H45314   4.645   1.017  11.935  1.4647 -0.4595 -0.1753
  336MOL0     H45315   4.553   0.985  12.080  1.3310  3.8391 -2.1050
  336MOL0     H45316   4.729   0.772  11.937  4.2855 -1.3146  2.2335
  336MOL0     H45317   4.679   0.756  12.093  1.9929  0.0694  1.3561
  336MOL0     H45318   4.853   0.970  12.133  0.2105 -0.1678 -0.6993
  336MOL0     H45319   4.893   0.941  11.967  1.5448  0.3946  0.9897
  336MOL0     H45320   5.117   0.596  12.106  0.0254 -1.4265  1.8418
  336MOL0     H45321   5.367   0.633  12.098 -1.0935  0.1646  1.0017
  336MOL0     H45322   5.715   0.558  11.917  1.1539 -0.3548 -1.2904
  336MOL0     H45323   5.937   0.536  11.893 -0.7515 -1.2294  2.1679
  336MOL0     H45324   6.130   0.576  11.830 -1.5045  1.4326  0.8488
  336MOL0     H45325   6.295   0.639  11.876 -0.0355  4.4422  1.6888
  336MOL0     H45326   6.295   0.557  12.086 -0.6634  2.6786  0.6175
  336MOL0     H45327   6.117   0.545  12.085 -1.5919 -3.1552 -1.2200
  336MOL0     H45328   6.104   0.358  11.965 -0.8133 -0.5566  1.6656
  336MOL0     H45329   6.265   0.357  11.905  0.9863 -0.4501  1.2489
  336MOL0     H45330   6.220   0.193  12.092  0.5571 -1.1809  4.4690
  336MOL0     H45331   6.197   0.318  12.201 -0.1732 -3.2260  0.5380
  336MOL0     H45332   6.425   0.226  12.210 -0.2083 -0.6279  0.1283
  336MOL0     H45333   6.440   0.398  12.168 -0.7673 -0.3906  1.1835
  336MOL0     H45334   6.474   0.162  11.980 -3.2944 -0.2224  0.7607
  336MOL0     H45335   6.479   0.338  11.932  1.1976 -1.4392 -1.4949
  336MOL0     H45336   6.703   0.213  11.959  0.3184  0.3387 -0.5409
  336MOL0     H45337   6.678   0.223  12.138  1.6272  2.2524  1.0961
  336MOL0     H45338   6.630   0.472  12.092 -0.4878 -1.4877  1.5997
  336MOL0     H45339   6.795   0.410  12.108 -1.4883 -1.5554  1.6848
  336MOL0     H45340   5.998   0.952  12.015  1.6612 -1.3861  2.1562
  336MOL0     H45341   5.766   0.969  12.027  1.8352  0.4708 -0.6948
  336MOL0     H45342   5.312   1.054  12.082 -0.8645  0.0901 -0.9860
  336MOL0     H45343   5.053   1.009  12.106  0.0727  0.2860 -0.9251
  336MOL0     H45344   3.077   0.356  11.629 -1.0907 -0.8373 -0.1849
  336MOL0     H45345   2.854   0.368  11.499  0.3404  1.1990 -2.4439
  336MOL0     H45346   2.703   0.497  11.050  0.8149  2.6634  1.0331
  336MOL0     H45347   2.495   0.459  10.928 -1.6051  0.5932  0.6265
  336MOL0     H45348   2.248   0.442  10.843 -3.9571 -1.5735 -0.4153
  336MOL0     H45349   2.293   0.607  10.849  1.5543 -2.9227 -0.9613
  336MOL0     H45350   2.050   0.668  10.904 -1.1773 -0.2544 -0.1174
  336MOL0     H45351   2.013   0.496  10.904 -1.2715 -0.0006 -1.9827
  336MOL0     H45352   2.111   0.485  10.672 -2.1261 -1.3732 -0.5231
  336MOL0     H45353   2.105   0.668  10.674 -1.7856  1.1493  1.6468
  336MOL0     H45354   1.875   0.681  10.653  1.6778  1.4876 -0.8819
  336MOL0     H45355   1.937   0.564  10.538  0.6538 -2.5552  0.4974
  336MOL0     H45356   1.688   0.312  10.758  0.5996 -0.9625 -2.0112
  336MOL0     H45357   2.266   0.569  11.265  0.8605 -0.7269  0.5217
  336MOL0     H45358   2.514   0.509  11.506  1.2377  2.0452  1.0971
  336MOL0     H45359   2.505   0.677  11.470 -2.5944  0.7369 -3.6382
  336MOL0     H45360   2.357   0.586  11.478 -1.7915 -3.8402 -0.8029
  337MOL0     O45361   8.952  11.063   4.073  0.7586 -0.4906  0.4814
  337MOL0     C45362   8.894  11.054   4.184 -0.2064 -0.3827  1.0477
  337MOL0     O45363   8.943  11.089   4.305 -0.3253 -0.0256  0.8715
  337MOL0     C45364   9.081  11.094   4.325  0.3819  0.2895 -0.3629
  337MOL0     C45365   9.181  11.032   4.249 -0.1027 -0.5910 -0.9286
  337MOL0     C45366   9.319  11.044   4.292  0.4000  1.2145 -0.2603
  337MOL0     C45367   9.360  11.129   4.393 -0.0079  0.5370 -0.6845
  337MOL0     O45368   9.501  11.127   4.412  0.5268 -0.4145 -0.7494
  337MOL0     C45369   9.553  11.193   4.515 -0.8787  0.1239  0.0723
  337MOL0     C45370   9.703  11.167   4.541  0.1811  0.4446 -0.7580
  337MOL0     C45371   9.773  11.245   4.660  0.8866 -0.4815 -0.0162
  337MOL0     C45372   9.927  11.235   4.659  0.2660  0.2905 -0.6295
  337MOL0     C45373  10.003  11.092   4.663 -1.1110 -0.7733  0.1155
  337MOL0     C45374   9.958  11.008   4.787  0.2530  0.2652  0.1918
  337MOL0     C45375  10.024  10.865   4.813 -0.0488  0.3418 -0.7666
  337MOL0     C45376  10.176  10.865   4.859 -0.3171  0.5514  0.1777
  337MOL0     N45377  10.193  10.863   5.006  0.0648 -0.1729 -0.0899
  337MOL0     C45378  10.241  10.971   5.066 -0.7217  0.3917 -0.2385
  337MOL0     C45379  10.253  10.929   5.196 -0.2088 -0.3854 -0.2282
  337MOL0     C45380  10.296  11.020   5.314 -0.2693  1.2259 -1.3547
  337MOL0     C45381  10.437  10.998   5.363  0.2454  0.1490 -0.3813
  337MOL0     C45382  10.476  10.867   5.429  0.1165  0.6445  0.3194
  337MOL0     C45383  10.608  10.872   5.501 -0.3097  0.1962  0.4689
  337MOL0     O45384  10.715  10.860   5.403 -0.0462 -0.7476 -0.0236
  337MOL0     C45385  10.841  10.818   5.442  0.1376  0.7047  0.1218
  337MOL0     C45386  10.879  10.785   5.574  0.5555 -0.0750  0.7457
  337MOL0     C45387  11.015  10.752   5.607  0.6853 -0.0633  0.3565
  337MOL0     C45388  11.113  10.736   5.502  0.3308 -0.2814 -0.5256
  337MOL0     C45389  11.267  10.703   5.529  0.3452 -0.2602 -0.1877
  337MOL0     O45390  11.343  10.642   5.425  0.1254  0.7043 -0.4984
  337MOL0     C45391  11.479  10.639   5.432 -0.2443  1.0554  0.3839
  337MOL0     C45392  11.541  10.527   5.372 -0.5820 -0.0477  0.7276
  337MOL0     C45393  11.679  10.508   5.364 -0.1296 -0.4459 -0.0550
  337MOL0     C45394  11.771  10.602   5.428  0.5601  0.1391 -0.9276
  337MOL0     O45395  11.900  10.581   5.416 -0.9012 -0.5615  0.2260
  337MOL0     C45396  11.983  10.693   5.380  0.0384  1.1181 -0.4681
  337MOL0     C45397  12.012  10.686   5.226 -0.1705  0.4458  0.1920
  337MOL0     C45398  11.897  10.762   5.161 -0.0665  0.3224 -0.3556
  337MOL0     C45399  11.877  10.732   5.014  0.8210  0.6038  0.0469
  337MOL0     C45400  11.744  10.797   4.971  0.0100 -0.7870 -0.4485
  337MOL0     C45401  11.713  10.776   4.825  0.4578 -0.2966 -0.3725
  337MOL0     C45402  11.718  10.631   4.790  0.7094  0.6204  0.1550
  337MOL0     C45403  11.675  10.625   4.644  0.3488 -0.7264 -0.1164
  337MOL0    Cl45404  11.670  10.446   4.603 -0.2578  0.0007  0.0669
  337MOL0     C45405  11.707  10.714   5.490  0.0431 -0.2821 -0.2433
  337MOL0     C45406  11.568  10.732   5.482 -0.6120 -0.1127 -0.3365
  337MOL0     O45407  11.309  10.750   5.636  0.6970 -0.7871 -0.0068
  337MOL0     C45408  11.067  10.742   5.373 -1.0306 -0.1720  0.3354
  337MOL0     C45409  10.939  10.792   5.339  0.1320 -0.6350 -0.8785
  337MOL0     N45410  10.219  10.791   5.200 -0.2051  0.2705  0.6297
  337MOL0     N45411  10.176  10.751   5.081 -0.5933 -0.1176 -0.9599
  337MOL0     C45412   9.258  11.190   4.465  0.7264 -0.6157 -0.1566
  337MOL0     C45413   9.128  11.175   4.429  0.7998  0.4740 -0.0555
  337MOL0     C45414   8.753  11.040   4.170  0.6410 -0.1507  0.0754
  337MOL0     C45415   8.689  11.062   4.046  0.2223  0.4506  0.1254
  337MOL0     C45416   8.551  11.037   4.036  0.4981  0.5172  0.3972
  337MOL0     C45417   8.479  10.980   4.138  0.8661 -0.3643  0.5341
  337MOL0     O45418   8.341  10.958   4.107  0.1505 -0.3645  0.2259
  337MOL0     C45419   8.259  10.899   4.212  0.1346 -1.0566 -0.8166
  337MOL0     C45420   8.122  10.870   4.158 -0.1678 -0.3328  1.0805
  337MOL0     C45421   8.043  10.994   4.132  0.2037 -0.4926 -0.7066
  337MOL0     C45422   7.925  10.976   4.036  0.0538  0.7268 -0.4350
  337MOL0     C45423   7.816  10.880   4.071 -0.2470  0.0531  0.9495
  337MOL0     C45424   7.727  10.801   4.080  0.0822  0.3160  0.2919
  337MOL0     C45425   8.545  10.938   4.247 -1.0058  0.2868 -1.5728
  337MOL0     C45426   8.675  10.974   4.275  0.7751  0.5390 -0.3682
  337MOL0     C45427   8.728  10.920   4.410  0.6771  0.0007  0.2347
  337MOL0     H45428   9.146  10.964   4.172 -1.6656 -1.3406  0.4037
  337MOL0     H45429   9.393  10.993   4.231  1.7276  2.0917  0.5720
  337MOL0     H45430   9.539  11.299   4.492  0.1367  0.2499 -0.0256
  337MOL0     H45431   9.498  11.175   4.608 -1.7428  0.9579 -0.2619
  337MOL0     H45432   9.763  11.203   4.456  0.3816  0.8897 -0.4319
  337MOL0     H45433   9.732  11.063   4.560 -1.7189  0.3247  2.1006
  337MOL0     H45434   9.741  11.194   4.751 -0.6053 -0.1510 -0.3271
  337MOL0     H45435   9.731  11.346   4.663 -2.9653 -1.8080 -2.2069
  337MOL0     H45436   9.968  11.295   4.578  0.0052  2.9114  1.0519
  337MOL0     H45437   9.957  11.289   4.750 -2.0966 -1.7364  1.5231
  337MOL0     H45438   9.974  11.037   4.573 -1.5842 -1.9949  0.9924
  337MOL0     H45439  10.111  11.109   4.660 -1.0983  0.5802  3.3640
  337MOL0     H45440   9.980  11.065   4.877  0.1250  1.4689 -0.5125
  337MOL0     H45441   9.851  10.991   4.774  0.3132 -1.1684  1.2864
  337MOL0     H45442  10.022  10.824   4.711  1.2928  2.7571 -1.8514
  337MOL0     H45443   9.953  10.809   4.874 -0.2937 -0.5562 -1.8347
  337MOL0     H45444  10.221  10.770   4.828  2.1182  1.7483 -0.1436
  337MOL0     H45445  10.220  10.952   4.809 -0.7606  0.6784 -0.0011
  337MOL0     H45446  10.262  11.071   5.030 -0.0686  1.1206  2.0359
  337MOL0     H45447  10.278  11.124   5.282 -0.7280  1.5923  0.0201
  337MOL0     H45448  10.228  11.013   5.399 -0.9158 -1.1117 -2.0137
  337MOL0     H45449  10.497  11.022   5.275 -0.5776  1.3710 -0.6300
  337MOL0     H45450  10.467  11.070   5.439  3.9648  0.8478 -2.2601
  337MOL0     H45451  10.494  10.801   5.343  0.1069  0.7018  0.2732
  337MOL0     H45452  10.400  10.835   5.500  0.3308 -0.6785 -0.0241
  337MOL0     H45453  10.614  10.788   5.571 -2.6951 -0.3702  0.0984
  337MOL0     H45454  10.604  10.964   5.560 -2.0757  1.3718 -1.3253
  337MOL0     H45455  10.808  10.790   5.656  0.6365 -2.1757  0.9748
  337MOL0     H45456  11.043  10.740   5.711 -2.3810  0.3217  1.3263
  337MOL0     H45457  11.481  10.460   5.312  0.2160  2.0887 -2.6949
  337MOL0     H45458  11.728  10.424   5.316 -0.3354 -0.1057 -0.8768
  337MOL0     H45459  11.948  10.795   5.395  1.6917  1.8103 -1.0993
  337MOL0     H45460  12.078  10.680   5.432  0.4074 -3.0743 -1.7399
  337MOL0     H45461  12.109  10.730   5.205 -0.2268  0.7169  0.4902
  337MOL0     H45462  12.020  10.582   5.195 -1.1128  0.2667  0.5232
  337MOL0     H45463  11.804  10.741   5.216  0.5323  0.0659  0.5753
  337MOL0     H45464  11.902  10.871   5.165 -0.6299  0.3198  1.0188
  337MOL0     H45465  11.866  10.623   5.010  1.0946  0.6185 -2.5491
  337MOL0     H45466  11.958  10.766   4.950  1.1983  2.3314  1.3502
  337MOL0     H45467  11.753  10.905   4.985  2.2524 -1.0799  1.0156
  337MOL0     H45468  11.664  10.764   5.038  0.0301 -0.0837 -0.0717
  337MOL0     H45469  11.611  10.813   4.811 -0.5497 -1.6107  2.6489
  337MOL0     H45470  11.774  10.846   4.768  0.0696 -2.6858 -4.0659
  337MOL0     H45471  11.642  10.580   4.850 -0.7477  1.6860 -0.7174
  337MOL0     H45472  11.814  10.583   4.813  0.1661  1.2628  4.5583
  337MOL0     H45473  11.576  10.670   4.635 -1.5334 -3.6968  3.1527
  337MOL0     H45474  11.733  10.676   4.566 -1.0324 -2.1253 -2.1775
  337MOL0     H45475  11.768  10.787   5.542  0.4176 -0.2216 -0.7529
  337MOL0     H45476  11.513  10.822   5.506 -0.1111  0.1669 -0.2260
  337MOL0     H45477  11.130  10.717   5.288  0.3698  1.1568  0.9437
  337MOL0     H45478  10.903  10.798   5.237 -0.8890  4.6947 -0.4628
  337MOL0     H45479   9.283  11.251   4.552 -2.6525  2.4440 -1.0806
  337MOL0     H45480   9.052  11.222   4.491  0.3826  1.3439 -1.1968
  337MOL0     H45481   8.746  11.095   3.960  0.9196 -0.1272  0.3513
  337MOL0     H45482   8.513  11.067   3.938  2.5845 -0.2917 -0.7282
  337MOL0     H45483   8.243  10.975   4.289  0.6455  1.1204 -2.7430
  337MOL0     H45484   8.309  10.807   4.246  1.9079 -1.1066 -3.2925
  337MOL0     H45485   8.073  10.819   4.241  0.1959  1.0776  2.2149
  337MOL0     H45486   8.117  10.807   4.069  0.0687 -0.5352  1.2121
  337MOL0     H45487   8.114  11.070   4.098 -0.8632  0.2420 -1.3559
  337MOL0     H45488   8.004  11.026   4.229  1.6998 -1.7069  0.3450
  337MOL0     H45489   7.889  11.079   4.028 -1.3999  0.9362  4.6706
  337MOL0     H45490   7.968  10.947   3.940  0.5350 -0.8815  0.2166
  337MOL0     H45491   7.644  10.738   4.104  1.0799 -0.3261  2.2957
  337MOL0     H45492   8.488  10.879   4.317  1.7278 -1.5317 -0.7332
  337MOL0     H45493   8.811  10.857   4.379  0.3085  0.8504 -2.8194
  337MOL0     H45494   8.765  11.003   4.471  1.1496 -0.7251  0.9501
  337MOL0     H45495   8.659  10.856   4.465 -1.1350 -1.0377 -2.9862
  338MOL0     O45496   6.020   2.887   2.796 -0.3962 -0.0440  0.0647
  338MOL0     C45497   5.918   2.948   2.765 -0.1226  1.0449 -0.3435
  338MOL0     O45498   5.914   3.050   2.693  0.1515 -0.1915  0.1678
  338MOL0     C45499   6.021   3.120   2.645 -0.4746  0.0031  0.0565
  338MOL0     C45500   6.010   3.255   2.651 -0.0809  0.4009 -0.2266
  338MOL0     C45501   6.113   3.333   2.589  0.5829 -0.3448 -0.3393
  338MOL0     C45502   6.224   3.266   2.520 -0.5711 -0.4011 -0.5006
  338MOL0     O45503   6.313   3.345   2.455  0.6630 -0.0525 -0.0411
  338MOL0     C45504   6.447   3.370   2.497  0.4130  0.7514  0.7509
  338MOL0     C45505   6.538   3.397   2.369  0.1530 -0.6040 -0.1721
  338MOL0     C45506   6.683   3.380   2.407 -0.0659 -0.8887  0.1012
  338MOL0     C45507   6.786   3.432   2.307  0.0916 -0.6364 -0.4234
  338MOL0     C45508   6.935   3.424   2.363  0.4826 -0.5850  0.2426
  338MOL0     C45509   6.964   3.549   2.445 -0.4534 -0.3477 -0.4533
  338MOL0     C45510   7.092   3.622   2.405 -0.9731  0.3880  0.4360
  338MOL0     C45511   7.082   3.687   2.270  0.0381 -0.4425  0.3487
  338MOL0     N45512   7.199   3.775   2.251 -0.4355 -0.0905 -0.5037
  338MOL0     C45513   7.333   3.739   2.252 -0.3437 -0.5166  0.0898
  338MOL0     C45514   7.405   3.856   2.245  0.1354  0.1134 -0.3149
  338MOL0     C45515   7.557   3.857   2.253  0.3057 -0.6603  0.2660
  338MOL0     C45516   7.619   3.970   2.342  0.0563 -0.2632 -0.1856
  338MOL0     C45517   7.771   3.956   2.355  0.3141  0.0552  0.1587
  338MOL0     C45518   7.857   3.976   2.227  0.6224  0.0224 -0.6480
  338MOL0     O45519   7.811   4.089   2.155 -0.4702  0.0670  0.5438
  338MOL0     C45520   7.919   4.166   2.120  0.3597 -0.7197 -0.3734
  338MOL0     C45521   7.971   4.152   1.990 -0.6941 -0.1108 -0.6352
  338MOL0     C45522   8.082   4.236   1.959 -0.2711  0.2978 -0.1471
  338MOL0     C45523   8.139   4.317   2.051  0.2640  0.5562  0.0721
  338MOL0     C45524   8.263   4.381   2.007  0.3630 -0.7068 -0.0054
  338MOL0     O45525   8.307   4.370   1.872  0.1592 -0.4003  0.0991
  338MOL0     C45526   8.431   4.413   1.843 -0.6020  0.1127  0.2682
  338MOL0     C45527   8.544   4.382   1.918  0.2260  0.1288  0.4468
  338MOL0     C45528   8.669   4.436   1.882  0.0854 -0.9051 -0.5601
  338MOL0     C45529   8.685   4.515   1.767  1.3584  0.6111  0.3793
  338MOL0     O45530   8.812   4.567   1.737 -0.1324  0.1190  0.3189
  338MOL0     C45531   8.850   4.575   1.602  0.4136 -0.0222 -0.0692
  338MOL0     C45532   9.000   4.618   1.595 -0.2134  0.3453  0.5923
  338MOL0     C45533   9.092   4.498   1.659  0.2672 -1.0179 -0.4645
  338MOL0     C45534   9.191   4.439   1.559 -0.4343 -1.0279 -0.3313
  338MOL0     C45535   9.314   4.366   1.613 -0.6432  0.2325 -0.7812
  338MOL0     C45536   9.275   4.246   1.689 -0.2969  0.0239  0.3827
  338MOL0     C45537   9.382   4.155   1.742 -0.6187 -0.4903  0.2749
  338MOL0     C45538   9.415   4.165   1.894 -0.2246  0.1717  0.4758
  338MOL0    Cl45539   9.480   4.323   1.950  0.4469  0.1177  0.3661
  338MOL0     C45540   8.573   4.546   1.691  0.3017 -0.8147 -0.2096
  338MOL0     C45541   8.449   4.497   1.733 -0.1453  0.4706 -0.4927
  338MOL0     O45542   8.314   4.457   2.089  0.6039 -0.5249  0.0113
  338MOL0     C45543   8.085   4.333   2.180  0.2190  0.1202 -0.0696
  338MOL0     C45544   7.971   4.261   2.215  0.3964 -0.2986 -0.5181
  338MOL0     N45545   7.313   3.956   2.245 -0.2234 -0.4486  0.1720
  338MOL0     N45546   7.191   3.907   2.245 -0.5580 -0.4619 -0.1420
  338MOL0     C45547   6.242   3.125   2.542  0.4902 -0.5345  0.1874
  338MOL0     C45548   6.139   3.055   2.596 -0.0098  0.4731 -0.3871
  338MOL0     C45549   5.789   2.896   2.808  0.2308  0.8176 -0.7347
  338MOL0     C45550   5.669   2.967   2.763  0.5510 -0.7500 -1.0221
  338MOL0     C45551   5.543   2.926   2.799  0.4320 -0.2546 -0.3697
  338MOL0     C45552   5.519   2.819   2.883 -1.2959 -0.6937 -0.6271
  338MOL0     O45553   5.388   2.794   2.900 -0.2702 -0.6623 -0.3774
  338MOL0     C45554   5.348   2.698   3.000  0.0791 -0.8909 -0.1312
  338MOL0     C45555   5.195   2.676   2.992 -0.6492 -0.1700 -0.5690
  338MOL0     C45556   5.114   2.777   3.068  0.5277  0.3400 -0.3574
  338MOL0     C45557   5.107   2.756   3.219 -0.4063 -0.5517  0.9586
  338MOL0     C45558   5.018   2.644   3.247  1.5238 -0.5466  0.6073
  338MOL0     C45559   4.932   2.563   3.272  0.3877  0.1277 -0.0480
  338MOL0     C45560   5.637   2.757   2.944 -0.2705 -0.2008  0.1415
  338MOL0     C45561   5.768   2.786   2.899  0.0874 -0.5043 -0.3123
  338MOL0     C45562   5.877   2.702   2.952  0.0495  0.5493  0.3429
  338MOL0     H45563   5.924   3.300   2.701 -0.1170  0.2550 -0.1567
  338MOL0     H45564   6.089   3.439   2.587  0.0954 -0.4049  1.2615
  338MOL0     H45565   6.456   3.460   2.558 -0.7381  1.0412  0.5276
  338MOL0     H45566   6.480   3.280   2.550  0.3646  1.5119  2.0945
  338MOL0     H45567   6.517   3.497   2.331  0.0330 -0.5433  0.0537
  338MOL0     H45568   6.508   3.333   2.285  1.1277  1.4048 -2.1676
  338MOL0     H45569   6.700   3.275   2.432 -2.1833 -1.2685  0.1377
  338MOL0     H45570   6.693   3.432   2.502 -2.5148  0.4595 -0.3118
  338MOL0     H45571   6.775   3.383   2.210 -3.2381  0.2077 -0.6039
  338MOL0     H45572   6.772   3.535   2.272 -0.4153 -1.2172 -2.0349
  338MOL0     H45573   6.930   3.339   2.431 -2.0822  2.1584  3.8550
  338MOL0     H45574   7.008   3.408   2.283 -0.1689 -3.0703  0.0571
  338MOL0     H45575   6.886   3.624   2.432 -1.9397 -1.2674  2.2751
  338MOL0     H45576   6.963   3.526   2.552 -1.3219  0.7299 -0.2127
  338MOL0     H45577   7.174   3.551   2.422 -0.9731  0.8695  2.8350
  338MOL0     H45578   7.097   3.703   2.479 -0.8566  0.6567  0.1331
  338MOL0     H45579   7.084   3.611   2.192  1.5243 -0.3871  0.3089
  338MOL0     H45580   6.994   3.752   2.265  0.5080  0.1612 -4.0991
  338MOL0     H45581   7.373   3.638   2.262 -0.8686 -0.6360  1.1642
  338MOL0     H45582   7.586   3.761   2.297 -2.2848 -2.0088 -0.7172
  338MOL0     H45583   7.586   3.864   2.148 -3.0987 -0.0163 -0.7739
  338MOL0     H45584   7.592   4.063   2.290 -1.9646 -0.4081  0.5095
  338MOL0     H45585   7.567   3.978   2.438  0.3182 -0.6887 -0.0066
  338MOL0     H45586   7.806   3.855   2.376 -0.1653 -0.2723 -0.5881
  338MOL0     H45587   7.800   4.028   2.432 -0.1346  1.5196 -0.9867
  338MOL0     H45588   7.844   3.891   2.159 -0.2506  1.1799 -1.9814
  338MOL0     H45589   7.962   3.980   2.258  0.6506 -2.5600 -0.1849
  338MOL0     H45590   7.936   4.071   1.927 -2.1675 -2.6268  3.0651
  338MOL0     H45591   8.112   4.232   1.854 -2.7522  1.6232 -1.0076
  338MOL0     H45592   8.529   4.307   1.995 -1.8974  1.0871  1.0461
  338MOL0     H45593   8.763   4.419   1.933  1.6739 -0.4834 -3.2250
  338MOL0     H45594   8.832   4.475   1.561  0.5394 -0.9128  1.9174
  338MOL0     H45595   8.791   4.652   1.552  0.5253  0.3726  0.4045
  338MOL0     H45596   9.027   4.628   1.490 -0.3583  0.9184  0.6067
  338MOL0     H45597   9.019   4.706   1.657  0.0684 -0.5109  1.7533
  338MOL0     H45598   9.147   4.534   1.747 -0.4018  0.4064 -0.5974
  338MOL0     H45599   9.029   4.417   1.697 -0.5098  0.7939  2.4319
  338MOL0     H45600   9.224   4.516   1.488 -2.5526  0.3269  0.0759
  338MOL0     H45601   9.142   4.366   1.494  0.3596 -1.3454 -0.5893
  338MOL0     H45602   9.380   4.438   1.662 -1.9250  1.9676 -1.5156
  338MOL0     H45603   9.366   4.335   1.521  0.2188 -0.3026 -0.1318
  338MOL0     H45604   9.223   4.265   1.783  0.2872 -0.5544  0.8331
  338MOL0     H45605   9.207   4.193   1.623  0.3448 -0.3589  0.0221
  338MOL0     H45606   9.472   4.185   1.687 -0.2441 -0.5141  0.8713
  338MOL0     H45607   9.349   4.057   1.705 -0.3129  0.4680 -2.8366
  338MOL0     H45608   9.332   4.132   1.957 -1.8091 -2.5736 -2.7111
  338MOL0     H45609   9.494   4.090   1.905 -0.2824 -0.1339 -0.8916
  338MOL0     H45610   8.587   4.603   1.600  0.1607 -0.8142 -0.2317
  338MOL0     H45611   8.363   4.525   1.673 -1.4376  2.2435  1.9834
  338MOL0     H45612   8.138   4.382   2.262 -0.1490 -0.2917  0.4250
  338MOL0     H45613   7.937   4.274   2.318 -1.0594  2.5491 -1.2783
  338MOL0     H45614   6.333   3.071   2.519  2.6438  2.5530  0.8214
  338MOL0     H45615   6.146   2.948   2.612 -2.7265  0.5849  2.5033
  338MOL0     H45616   5.687   3.063   2.716  0.1616 -1.1827 -2.0879
  338MOL0     H45617   5.467   2.995   2.763  1.9232  1.4681 -0.2985
  338MOL0     H45618   5.377   2.736   3.099 -3.9572  0.1457  0.8374
  338MOL0     H45619   5.404   2.605   2.985  0.2787 -0.5278 -1.8436
  338MOL0     H45620   5.168   2.578   3.033  0.3590  0.0805  0.7517
  338MOL0     H45621   5.161   2.690   2.889 -1.1493  0.5059 -0.3257
  338MOL0     H45622   5.013   2.760   3.030 -0.0886 -0.0027  1.3182
  338MOL0     H45623   5.139   2.878   3.034  0.2840  0.7728  0.7003
  338MOL0     H45624   5.205   2.727   3.258  0.9365 -0.0858 -1.8046
  338MOL0     H45625   5.073   2.846   3.271  1.5409 -0.0101  1.3895
  338MOL0     H45626   4.857   2.489   3.290  1.7063 -1.7356 -1.7570
  338MOL0     H45627   5.619   2.675   3.012  0.3141  1.1128  1.9338
  338MOL0     H45628   5.837   2.637   3.030 -1.2581  1.5683  0.5643
  338MOL0     H45629   5.912   2.650   2.863  0.4329  2.2666 -0.5505
  338MOL0     H45630   5.948   2.770   2.999  1.2428 -1.7921  2.1025
  339MOL0     O45631   4.201   7.087   4.521  0.0881 -0.3872 -0.6066
  339MOL0     C45632   4.188   7.035   4.631 -0.0652 -0.0665 -0.2632
  339MOL0     O45633   4.293   7.027   4.720  0.5688 -0.5416  0.7242
  339MOL0     C45634   4.411   7.085   4.697  0.4384  0.4560 -0.2494
  339MOL0     C45635   4.522   7.014   4.747  0.7671  0.1814  0.2776
  339MOL0     C45636   4.645   7.070   4.733  0.3035  0.1679 -0.4214
  339MOL0     C45637   4.665   7.190   4.669 -0.0662  0.0189  0.0261
  339MOL0     O45638   4.791   7.243   4.637  0.3027 -0.4296 -0.3040
  339MOL0     C45639   4.901   7.181   4.702  0.2232  0.3763 -0.7051
  339MOL0     C45640   5.028   7.242   4.650  0.3789 -0.3774  0.4276
  339MOL0     C45641   5.155   7.183   4.722  0.5967  0.2185  1.1485
  339MOL0     C45642   5.281   7.254   4.664 -0.0495 -0.3172 -0.4415
  339MOL0     C45643   5.381   7.158   4.593  0.1413 -0.2621 -0.5520
  339MOL0     C45644   5.443   7.040   4.675  0.1294 -0.4274  0.2253
  339MOL0     C45645   5.506   6.940   4.586  0.1851  0.8469  0.0679
  339MOL0     C45646   5.593   6.826   4.664 -0.4760 -1.3104 -0.5237
  339MOL0     N45647   5.655   6.728   4.574  0.5864  0.8166 -0.2554
  339MOL0     C45648   5.786   6.681   4.578  0.1239 -0.2370 -0.2210
  339MOL0     C45649   5.788   6.583   4.480  0.5613  0.3871  1.4970
  339MOL0     C45650   5.905   6.508   4.435 -0.2072  0.0877  0.2864
  339MOL0     C45651   6.038   6.569   4.446 -0.0576  0.1250  0.5203
  339MOL0     C45652   6.040   6.703   4.360  0.3662 -0.1030  0.0298
  339MOL0     C45653   6.183   6.741   4.327 -0.2050 -0.6224 -0.2280
  339MOL0     O45654   6.191   6.842   4.223 -0.0637 -0.2721  0.2797
  339MOL0     C45655   6.294   6.831   4.135  0.2085 -0.2277 -0.2415
  339MOL0     C45656   6.426   6.849   4.189  0.4040 -0.0413 -0.1794
  339MOL0     C45657   6.540   6.845   4.101 -0.6322 -0.6328  0.3333
  339MOL0     C45658   6.530   6.806   3.963 -0.1398 -1.5339 -0.0375
  339MOL0     C45659   6.652   6.789   3.874  0.4529 -0.1610 -0.4384
  339MOL0     O45660   6.648   6.813   3.743 -0.3324 -0.1424 -1.0603
  339MOL0     C45661   6.768   6.798   3.674 -0.8422  0.0155 -0.5176
  339MOL0     C45662   6.866   6.897   3.680  0.2925 -0.1585 -0.3979
  339MOL0     C45663   6.985   6.872   3.605  0.3475  0.0766 -0.8268
  339MOL0     C45664   7.010   6.747   3.531  0.3129  0.3240  0.1644
  339MOL0     O45665   7.132   6.731   3.467  0.6033 -0.2431  0.2380
  339MOL0     C45666   7.189   6.605   3.504 -0.1399 -0.0809  0.1318
  339MOL0     C45667   7.323   6.626   3.446  0.6190 -1.0601 -0.1006
  339MOL0     C45668   7.332   6.660   3.296 -0.2146 -0.4406 -0.2307
  339MOL0     C45669   7.471   6.672   3.241  0.3161 -0.1608 -1.4118
  339MOL0     C45670   7.473   6.670   3.086  0.8842 -0.4485 -0.0041
  339MOL0     C45671   7.625   6.695   3.041  0.1533 -0.1225  0.0857
  339MOL0     C45672   7.664   6.655   2.890  0.4195 -0.3260 -0.0389
  339MOL0     C45673   7.547   6.713   2.792  0.2891 -0.3809 -0.4726
  339MOL0    Cl45674   7.534   6.896   2.787  0.1898 -0.5152 -0.7069
  339MOL0     C45675   6.898   6.661   3.524 -0.0599 -0.3504 -1.1158
  339MOL0     C45676   6.782   6.686   3.597 -0.0176  0.3371  0.2188
  339MOL0     O45677   6.753   6.762   3.935  0.0850  0.1684  0.1831
  339MOL0     C45678   6.401   6.784   3.913 -0.3620  0.0366 -0.3050
  339MOL0     C45679   6.285   6.810   3.993  0.6922  0.1397 -0.3176
  339MOL0     N45680   5.666   6.580   4.415  0.7408 -0.6953 -0.3762
  339MOL0     N45681   5.584   6.655   4.484 -1.3024 -0.0463  0.5262
  339MOL0     C45682   4.555   7.266   4.632  0.1771  0.3914  0.4081
  339MOL0     C45683   4.422   7.213   4.639 -0.7207  1.0644 -0.1877
  339MOL0     C45684   4.053   6.970   4.670  0.2570  0.0136 -0.5011
  339MOL0     C45685   4.048   6.909   4.789  0.2412  1.3930  0.2834
  339MOL0     C45686   3.924   6.847   4.830 -0.1282 -0.1830 -0.4071
  339MOL0     C45687   3.804   6.868   4.760  1.0675  0.8633 -0.6538
  339MOL0     O45688   3.684   6.807   4.807 -0.3084  0.2498 -0.2736
  339MOL0     C45689   3.567   6.804   4.719 -0.4447 -0.0623 -0.5549
  339MOL0     C45690   3.498   6.680   4.753  0.2693  0.2695  0.0517
  339MOL0     C45691   3.401   6.630   4.655  0.4352  0.2153  0.7609
  339MOL0     C45692   3.344   6.492   4.702 -0.1995  0.7362  0.5097
  339MOL0     C45693   3.271   6.438   4.588  0.2092 -0.7588  0.1730
  339MOL0     C45694   3.211   6.408   4.489  0.1684 -0.1760 -0.5599
  339MOL0     C45695   3.813   6.945   4.652 -0.4785 -0.6240  0.2355
  339MOL0     C45696   3.930   6.999   4.605  0.3973  0.5564  0.5820
  339MOL0     C45697   3.915   7.089   4.484  0.0076  0.6578 -0.1908
  339MOL0     H45698   4.514   6.924   4.807  2.8145  0.3617  0.8880
  339MOL0     H45699   4.734   7.021   4.771  0.8141  3.2818  2.8832
  339MOL0     H45700   4.892   7.187   4.810  0.9324 -1.1801 -0.5440
  339MOL0     H45701   4.910   7.079   4.663 -0.9858  0.2551 -0.6971
  339MOL0     H45702   5.025   7.347   4.682 -0.0377  0.0897 -1.0907
  339MOL0     H45703   5.041   7.237   4.542  0.0944  1.7716  0.2472
  339MOL0     H45704   5.155   7.075   4.703 -1.2401  0.7781 -3.4609
  339MOL0     H45705   5.152   7.183   4.831 -0.3790 -0.6365  1.1395
  339MOL0     H45706   5.250   7.335   4.599  2.1846  1.7521  0.8809
  339MOL0     H45707   5.338   7.306   4.742  1.9139  0.2653 -2.1550
  339MOL0     H45708   5.316   7.113   4.518 -0.0874 -1.6814  0.4714
  339MOL0     H45709   5.457   7.211   4.534 -1.5355 -0.8983 -3.4903
  339MOL0     H45710   5.531   7.082   4.726  0.0004 -0.0714  0.1580
  339MOL0     H45711   5.382   6.987   4.749  0.5338 -0.9045  0.2231
  339MOL0     H45712   5.567   6.991   4.510 -0.7097 -1.0562 -2.0251
  339MOL0     H45713   5.434   6.877   4.534  1.0594  0.9465 -1.3256
  339MOL0     H45714   5.668   6.883   4.719 -0.7382 -0.0837 -1.3921
  339MOL0     H45715   5.536   6.779   4.745 -2.0839  1.6693  0.2368
  339MOL0     H45716   5.867   6.718   4.639 -0.1888  2.6720 -1.4163
  339MOL0     H45717   5.906   6.408   4.480 -1.7412 -0.3278 -0.5502
  339MOL0     H45718   5.894   6.495   4.327 -1.5451  1.3918  0.2320
  339MOL0     H45719   6.067   6.587   4.550  2.3480 -0.8194  0.0812
  339MOL0     H45720   6.106   6.495   4.402  0.6815  0.4592  1.0800
  339MOL0     H45721   6.005   6.786   4.422  1.4082  0.8016 -0.5493
  339MOL0     H45722   5.983   6.689   4.267 -3.2583  0.3336  2.0023
  339MOL0     H45723   6.227   6.652   4.281  1.6292  0.1081  0.0140
  339MOL0     H45724   6.213   6.772   4.427 -1.8551 -1.7902  0.6739
  339MOL0     H45725   6.438   6.873   4.295  0.5194  1.1388 -0.4420
  339MOL0     H45726   6.630   6.871   4.156 -0.4711  1.6890 -0.8838
  339MOL0     H45727   6.849   6.996   3.723 -0.3010  0.1713 -1.3621
  339MOL0     H45728   7.060   6.950   3.606  1.2493 -0.7633 -0.2525
  339MOL0     H45729   7.202   6.605   3.612 -1.2937 -0.2599  0.2771
  339MOL0     H45730   7.144   6.511   3.472  2.0465 -1.9664  2.2294
  339MOL0     H45731   7.347   6.723   3.490 -1.3093 -0.3785 -0.4607
  339MOL0     H45732   7.396   6.552   3.481  4.3802  2.2031 -0.3444
  339MOL0     H45733   7.278   6.587   3.236 -0.0840 -0.0625 -0.8169
  339MOL0     H45734   7.282   6.754   3.272  0.3102  0.1236  0.8476
  339MOL0     H45735   7.539   6.591   3.271  1.7720  1.8169  1.0781
  339MOL0     H45736   7.528   6.761   3.271  1.4704 -1.7089  1.3792
  339MOL0     H45737   7.404   6.746   3.050 -0.3224 -0.5642  1.9225
  339MOL0     H45738   7.444   6.574   3.042  1.2353 -0.7350  0.3809
  339MOL0     H45739   7.649   6.799   3.064 -0.6658  0.6359 -2.2265
  339MOL0     H45740   7.690   6.641   3.111 -1.0175  0.8277  1.9956
  339MOL0     H45741   7.660   6.548   2.871  0.9093 -0.8538  2.5019
  339MOL0     H45742   7.765   6.694   2.874  1.6632 -1.4084  3.9869
  339MOL0     H45743   7.561   6.669   2.693  1.5922 -1.6564  0.2424
  339MOL0     H45744   7.452   6.686   2.838  1.0613 -2.5489 -0.0235
  339MOL0     H45745   6.911   6.568   3.470 -2.1112 -2.7281  2.1164
  339MOL0     H45746   6.703   6.614   3.576  2.5813 -2.7576  0.3771
  339MOL0     H45747   6.393   6.765   3.806  1.6438  0.2968 -0.5456
  339MOL0     H45748   6.190   6.820   3.941  1.9872  3.2461 -2.4425
  339MOL0     H45749   4.559   7.363   4.584 -0.9539  0.6065  0.7116
  339MOL0     H45750   4.333   7.260   4.600 -1.2464  0.8011  0.6785
  339MOL0     H45751   4.135   6.891   4.853 -0.1197 -0.5289  0.2968
  339MOL0     H45752   3.920   6.800   4.928  0.2621  3.3898  1.4830
  339MOL0     H45753   3.600   6.791   4.616  0.5299  2.9627 -0.7084
  339MOL0     H45754   3.499   6.889   4.719  0.6559  0.8328 -0.1095
  339MOL0     H45755   3.429   6.691   4.837 -3.7612 -0.7713 -2.8222
  339MOL0     H45756   3.566   6.595   4.764 -2.2630 -2.0587 -1.2117
  339MOL0     H45757   3.449   6.615   4.558  1.7130 -3.1778  1.7791
  339MOL0     H45758   3.324   6.704   4.634 -0.3114 -0.8715 -0.4577
  339MOL0     H45759   3.419   6.421   4.740  0.3560  2.8341  3.7899
  339MOL0     H45760   3.273   6.497   4.785 -0.1520 -0.5592  0.6515
  339MOL0     H45761   3.152   6.375   4.406  1.3267 -0.8327 -1.1563
  339MOL0     H45762   3.723   6.986   4.606  0.8487  1.2098 -0.8672
  339MOL0     H45763   3.974   7.040   4.406 -2.0070 -0.5247 -1.0766
  339MOL0     H45764   3.811   7.080   4.449 -0.3696  0.3588  0.9583
  339MOL0     H45765   3.929   7.195   4.509 -1.4910  0.3612  2.2399
  340MOL0     O45766   7.749   1.898   2.108  0.0645  0.4283 -0.3024
  340MOL0     C45767   7.676   1.852   2.024 -0.3496 -0.3895  0.3908
  340MOL0     O45768   7.701   1.733   1.957 -0.0795  0.2827  0.3044
  340MOL0     C45769   7.809   1.659   1.974 -0.3805  0.3376 -0.5387
  340MOL0     C45770   7.805   1.524   1.950  0.8051 -0.1256 -0.0355
  340MOL0     C45771   7.916   1.440   1.965 -0.7104 -0.0660  0.2552
  340MOL0     C45772   8.047   1.494   1.979 -0.0209  0.1138  0.0817
  340MOL0     O45773   8.166   1.421   1.987 -0.1577 -0.6782  0.4435
  340MOL0     C45774   8.155   1.289   1.954 -0.4502 -0.7493  0.2171
  340MOL0     C45775   8.290   1.225   1.966  0.9170 -0.3040  0.4192
  340MOL0     C45776   8.383   1.304   1.861  1.2594 -0.7326  0.2578
  340MOL0     C45777   8.516   1.240   1.830  0.8885 -0.8962 -0.3518
  340MOL0     C45778   8.504   1.138   1.717  0.4459 -0.0283  0.5361
  340MOL0     C45779   8.610   1.035   1.728  0.8183  0.0349  0.4572
  340MOL0     C45780   8.619   0.960   1.591  0.3811  0.2199  0.7181
  340MOL0     C45781   8.753   0.884   1.578 -0.0692 -0.4979 -0.1761
  340MOL0     N45782   8.782   0.812   1.704 -0.0864 -0.4938 -0.1249
  340MOL0     C45783   8.705   0.702   1.752  0.1489 -0.3593  0.3458
  340MOL0     C45784   8.774   0.676   1.864  1.1264  0.1768  0.8573
  340MOL0     C45785   8.746   0.549   1.962  0.3042 -0.0454 -0.1307
  340MOL0     C45786   8.774   0.415   1.893  0.0461 -0.0708 -0.2632
  340MOL0     C45787   8.657   0.370   1.800 -0.0342  0.2298 -0.2615
  340MOL0     C45788   8.559   0.286   1.884 -0.7727  0.0046 -0.0030
  340MOL0     O45789   8.498   0.193   1.790 -0.0691 -0.2469 -0.2102
  340MOL0     C45790   8.366   0.204   1.780  0.2763 -0.4313 -0.1595
  340MOL0     C45791   8.283   0.223   1.890 -0.2285 -0.6538 -0.3838
  340MOL0     C45792   8.149   0.249   1.880 -0.0790  0.4411  0.5369
  340MOL0     C45793   8.094   0.264   1.752 -0.0525  0.2660 -0.6986
  340MOL0     C45794   7.954   0.284   1.733  0.7281 -0.8611 -0.5854
  340MOL0     O45795   7.866   0.272   1.843 -0.6071  0.1240  0.0575
  340MOL0     C45796   7.735   0.308   1.833  0.7216  0.6854  0.0380
  340MOL0     C45797   7.657   0.228   1.920 -0.3729 -0.5491 -0.6099
  340MOL0     C45798   7.528   0.263   1.949  0.3357 -0.2533  0.4431
  340MOL0     C45799   7.467   0.368   1.881  0.7062 -0.5436 -0.3671
  340MOL0     O45800   7.336   0.403   1.898  0.3150 -0.7798 -0.1886
  340MOL0     C45801   7.244   0.303   1.945  0.0912  0.6991 -1.1972
  340MOL0     C45802   7.221   0.187   1.846 -0.7979 -0.7450  0.4932
  340MOL0     C45803   7.133   0.081   1.897 -0.0122 -0.6117  0.6217
  340MOL0     C45804   7.094   0.000   1.771  0.0959  0.3805  0.2494
  340MOL0     C45805   6.999  -0.114   1.805 -0.1346  0.2748 -0.2836
  340MOL0     C45806   7.063  -0.217   1.902 -0.8524  0.5483 -0.0635
  340MOL0     C45807   6.956  -0.322   1.936  0.4191  0.9942 -0.2309
  340MOL0     C45808   7.021  -0.445   2.007  0.5764 -0.1670  1.1691
  340MOL0    Cl45809   7.097  -0.403   2.154 -0.0153  0.2816 -0.0090
  340MOL0     C45810   7.548   0.442   1.794 -0.3652 -0.0586  0.7243
  340MOL0     C45811   7.684   0.419   1.767  0.2705 -0.3210  0.2479
  340MOL0     O45812   7.920   0.317   1.622 -0.2146  0.4457  0.2611
  340MOL0     C45813   8.179   0.245   1.640 -0.2993  0.0931  0.0997
  340MOL0     C45814   8.313   0.215   1.657 -0.3645  0.3050 -0.1242
  340MOL0     N45815   8.876   0.766   1.885 -0.2983 -0.1560 -0.2835
  340MOL0     N45816   8.892   0.842   1.776 -0.9789 -0.1743 -0.7456
  340MOL0     C45817   8.058   1.633   1.989 -0.5946  0.8065  0.0716
  340MOL0     C45818   7.941   1.715   1.978 -0.2687 -0.0801 -0.2131
  340MOL0     C45819   7.534   1.900   2.014 -0.2446 -0.3415  0.6204
  340MOL0     C45820   7.436   1.800   1.980 -0.4863  0.3702 -1.3006
  340MOL0     C45821   7.298   1.830   1.986  0.0083  0.0789 -0.9488
  340MOL0     C45822   7.257   1.963   2.018 -0.5241 -0.3507  0.0096
  340MOL0     O45823   7.129   2.007   2.026 -0.2429 -0.5925 -0.7124
  340MOL0     C45824   7.024   1.908   2.056  0.4329 -0.4385 -0.5384
  340MOL0     C45825   6.880   1.967   2.061 -0.6205  0.5536 -0.4488
  340MOL0     C45826   6.850   2.056   2.180 -1.1231 -0.2476 -0.7046
  340MOL0     C45827   6.723   2.133   2.172 -0.2790  0.2211 -0.4650
  340MOL0     C45828   6.598   2.050   2.138  0.8397 -0.9891  0.4320
  340MOL0     C45829   6.495   1.991   2.117  0.2393  0.7145  0.7676
  340MOL0     C45830   7.352   2.063   2.052  0.7134  0.9063  0.0064
  340MOL0     C45831   7.491   2.029   2.050  0.2056 -0.7027  0.1951
  340MOL0     C45832   7.570   2.140   2.100 -0.1643  0.5714 -0.1778
  340MOL0     H45833   7.712   1.470   1.931  0.5488  0.8458 -1.7181
  340MOL0     H45834   7.911   1.333   1.946 -1.3228  0.2667 -1.6573
  340MOL0     H45835   8.084   1.243   2.023 -3.5320  4.7063  1.2395
  340MOL0     H45836   8.113   1.277   1.854 -0.6806 -0.1428  0.2401
  340MOL0     H45837   8.282   1.120   1.938  1.0452 -0.5778  1.3800
  340MOL0     H45838   8.326   1.242   2.068 -1.6279  0.4171  1.2632
  340MOL0     H45839   8.416   1.394   1.913  0.3314 -0.8288  1.0335
  340MOL0     H45840   8.333   1.337   1.769  1.1541 -0.7569  0.3064
  340MOL0     H45841   8.596   1.309   1.801  0.4203 -0.9688 -1.9377
  340MOL0     H45842   8.538   1.194   1.926 -0.8819  2.7456  2.0342
  340MOL0     H45843   8.409   1.085   1.708  0.7460 -0.3000 -1.2769
  340MOL0     H45844   8.530   1.191   1.626  0.6769 -1.2607 -0.1432
  340MOL0     H45845   8.707   1.083   1.746  1.2623  0.7625 -3.2068
  340MOL0     H45846   8.590   0.971   1.815 -0.1064  0.7983  0.8289
  340MOL0     H45847   8.613   1.042   1.520  0.2646  0.8118  1.4027
  340MOL0     H45848   8.537   0.891   1.571  0.1455 -0.0922  2.5870
  340MOL0     H45849   8.751   0.801   1.508 -1.5042 -0.4894 -0.1713
  340MOL0     H45850   8.834   0.943   1.533 -2.8082  1.6950 -2.6281
  340MOL0     H45851   8.619   0.650   1.712 -2.1535  1.3549  2.7639
  340MOL0     H45852   8.815   0.564   2.045  1.3206 -1.6092 -0.6310
  340MOL0     H45853   8.642   0.549   1.997  0.0936 -2.7422 -0.5503
  340MOL0     H45854   8.865   0.421   1.832 -1.0690 -0.1034 -1.9861
  340MOL0     H45855   8.794   0.333   1.963 -1.1036 -0.1678 -0.0270
  340MOL0     H45856   8.696   0.318   1.712 -1.5677 -2.4596  0.5516
  340MOL0     H45857   8.603   0.452   1.753 -3.3464 -0.7637  1.5143
  340MOL0     H45858   8.488   0.360   1.923  0.1355  1.2227 -0.5958
  340MOL0     H45859   8.609   0.235   1.967 -1.3604  0.6852  0.7895
  340MOL0     H45860   8.330   0.212   1.987  1.6170 -2.9358 -1.4665
  340MOL0     H45861   8.084   0.246   1.968  0.8800 -1.7439  1.2274
  340MOL0     H45862   7.709   0.147   1.971  1.0322  0.3168 -0.6119
  340MOL0     H45863   7.476   0.203   2.023 -1.1663  0.0011 -0.3714
  340MOL0     H45864   7.282   0.271   2.043 -1.1097  1.5073 -0.4385
  340MOL0     H45865   7.147   0.347   1.967  0.7310  1.1799  0.9839
  340MOL0     H45866   7.183   0.234   1.755 -1.1450 -1.6213  0.1743
  340MOL0     H45867   7.321   0.148   1.824 -0.4627  0.7612 -0.8078
  340MOL0     H45868   7.183   0.013   1.967  1.0750 -0.4125  0.0685
  340MOL0     H45869   7.046   0.129   1.942 -1.0132  1.4328 -3.0932
  340MOL0     H45870   7.182  -0.037   1.717  0.4312 -0.6282  1.4545
  340MOL0     H45871   7.036   0.065   1.705  0.2006  2.3867  2.0295
  340MOL0     H45872   6.958  -0.158   1.713  1.0607 -0.2795 -0.5664
  340MOL0     H45873   6.919  -0.074   1.868  2.1728  0.7548  2.5124
  340MOL0     H45874   7.144  -0.269   1.849  1.2009 -0.5509  3.8146
  340MOL0     H45875   7.107  -0.182   1.995 -0.5646 -0.9478  0.3985
  340MOL0     H45876   6.906  -0.355   1.845  2.4656 -0.1075 -0.9970
  340MOL0     H45877   6.885  -0.270   2.002  0.7378  2.1082 -0.7382
  340MOL0     H45878   6.950  -0.527   2.017 -0.4194  0.3670 -1.0611
  340MOL0     H45879   7.096  -0.493   1.943 -0.7715 -1.3565  0.4522
  340MOL0     H45880   7.500   0.530   1.753 -1.8939 -1.3583 -0.4193
  340MOL0     H45881   7.755   0.474   1.706  0.1047 -1.9524 -1.5035
  340MOL0     H45882   8.151   0.248   1.535  3.4171 -2.7995 -1.1908
  340MOL0     H45883   8.382   0.199   1.574 -2.0825 -3.6243 -1.0067
  340MOL0     H45884   8.163   1.660   1.995 -0.0015 -1.4942  1.7692
  340MOL0     H45885   7.952   1.822   1.994 -0.5035 -0.0356 -0.3470
  340MOL0     H45886   7.461   1.695   1.974  0.1667  0.3963  0.3859
  340MOL0     H45887   7.227   1.747   1.985  0.5722 -0.7819  4.1814
  340MOL0     H45888   7.052   1.862   2.151  2.7170  0.9171 -0.4753
  340MOL0     H45889   7.023   1.822   1.989  1.5322 -2.0142  1.3467
  340MOL0     H45890   6.810   1.884   2.065 -0.6692  0.4758 -2.0957
  340MOL0     H45891   6.873   2.031   1.972  0.7287  3.0674  1.1221
  340MOL0     H45892   6.935   2.121   2.199  1.0217 -3.8410  3.9809
  340MOL0     H45893   6.843   1.982   2.260 -0.6469 -2.0445 -2.2487
  340MOL0     H45894   6.710   2.177   2.272  1.7316 -2.1683  0.9541
  340MOL0     H45895   6.733   2.214   2.099 -0.4290  2.6318  2.0119
  340MOL0     H45896   6.402   1.941   2.097 -0.1518  2.1259 -1.2176
  340MOL0     H45897   7.304   2.157   2.076 -0.3488  0.2727  0.4078
  340MOL0     H45898   7.604   2.126   2.202 -2.4727  0.5288  0.6485
  340MOL0     H45899   7.658   2.150   2.035  0.2591 -2.2904 -0.1488
  340MOL0     H45900   7.504   2.227   2.107 -1.0106 -0.2074  2.5319
  341MOL0     O45901   5.119  10.077   8.820 -0.0077  0.1993  0.4338
  341MOL0     C45902   5.106   9.988   8.905 -0.0955  0.8088  0.0606
  341MOL0     O45903   5.205   9.920   8.965  0.7214 -0.2039  0.1365
  341MOL0     C45904   5.338   9.955   8.932  0.1876  0.2429 -0.3537
  341MOL0     C45905   5.395  10.074   8.974 -0.3514  0.5379  0.9056
  341MOL0     C45906   5.527  10.101   8.946  0.3524 -0.0431 -0.0162
  341MOL0     C45907   5.618  10.004   8.897 -0.7952 -0.4706  0.6558
  341MOL0     O45908   5.755  10.031   8.885  0.4709 -0.5740 -0.0123
  341MOL0     C45909   5.826   9.951   8.788  0.2785  1.0884  1.2663
  341MOL0     C45910   5.974   9.968   8.807 -0.2705  0.9349 -0.2936
  341MOL0     C45911   6.026  10.109   8.778  0.0268 -1.0337 -0.2009
  341MOL0     C45912   6.168  10.130   8.743 -0.3379  0.0271 -0.9822
  341MOL0     C45913   6.214  10.067   8.613 -0.4622 -0.4097  0.0960
  341MOL0     C45914   6.167  10.146   8.492 -0.5269  0.5688  0.0061
  341MOL0     C45915   6.185  10.068   8.355  0.9044  0.4670 -0.8039
  341MOL0     C45916   6.321  10.009   8.309 -0.0595 -0.0935  0.2032
  341MOL0     N45917   6.424  10.104   8.265 -0.3144 -0.1700 -0.1462
  341MOL0     C45918   6.416  10.202   8.165  0.6708 -0.4986 -0.1438
  341MOL0     C45919   6.545  10.241   8.152 -0.3952  0.0671  0.5313
  341MOL0     C45920   6.601  10.320   8.039 -0.2485  0.7357  0.1923
  341MOL0     C45921   6.682  10.235   7.956 -0.3741 -0.7504  0.1930
  341MOL0     C45922   6.608  10.136   7.860  0.5713  0.3424 -0.5038
  341MOL0     C45923   6.709  10.033   7.805 -0.2918  0.5773  0.0374
  341MOL0     O45924   6.756  10.079   7.673  0.5049 -0.4611 -0.3955
  341MOL0     C45925   6.845  10.000   7.619  0.2706 -0.8521  0.5547
  341MOL0     C45926   6.976   9.990   7.667 -0.6526 -0.4729 -0.1297
  341MOL0     C45927   7.076   9.923   7.597  0.1073 -0.2969  0.4889
  341MOL0     C45928   7.040   9.844   7.480 -0.4766 -0.1143 -1.0957
  341MOL0     C45929   7.145   9.764   7.412 -0.4089 -0.5107 -0.8576
  341MOL0     O45930   7.107   9.677   7.313  0.2347  0.5834  0.1205
  341MOL0     C45931   7.196   9.592   7.264  0.3234  0.7942  0.1205
  341MOL0     C45932   7.198   9.569   7.121  0.4203  0.5561 -0.3252
  341MOL0     C45933   7.301   9.476   7.073  0.8564 -0.3207 -0.0152
  341MOL0     C45934   7.388   9.411   7.169  0.2798  0.1793  0.3854
  341MOL0     O45935   7.502   9.340   7.137 -0.8353  0.6042 -0.0278
  341MOL0     C45936   7.544   9.334   6.996 -0.6779 -0.0057 -0.7231
  341MOL0     C45937   7.685   9.275   6.997  0.3486  0.4786  0.0197
  341MOL0     C45938   7.753   9.293   6.860  0.4488 -0.0273 -0.3353
  341MOL0     C45939   7.906   9.235   6.866 -0.3743  0.7501  0.6328
  341MOL0     C45940   7.973   9.296   6.743 -0.3335 -0.0123 -0.0551
  341MOL0     C45941   7.930   9.238   6.606  0.6138  0.6063 -0.3637
  341MOL0     C45942   8.005   9.298   6.488  0.0424 -0.2846  0.2124
  341MOL0     C45943   8.034   9.205   6.376 -0.3580  0.3076  0.0915
  341MOL0    Cl45944   8.109   9.046   6.420 -0.2266 -0.6340  0.1410
  341MOL0     C45945   7.373   9.437   7.305 -0.1000  0.0597 -1.0741
  341MOL0     C45946   7.283   9.523   7.353  0.6327  0.9025  0.1379
  341MOL0     O45947   7.261   9.778   7.465  0.2326  0.5162  0.8676
  341MOL0     C45948   6.906   9.837   7.449 -0.9080 -0.0575  0.1008
  341MOL0     C45949   6.807   9.920   7.512  0.1764 -0.0857  0.0513
  341MOL0     N45950   6.618  10.182   8.251  0.3995 -0.2727  0.4562
  341MOL0     N45951   6.545  10.102   8.310 -0.2694  0.1772 -0.4738
  341MOL0     C45952   5.563   9.877   8.861  0.1952  0.0553 -0.5592
  341MOL0     C45953   5.426   9.853   8.887  0.4059 -0.1155 -0.4875
  341MOL0     C45954   4.966   9.948   8.940  0.5036 -0.5522 -0.2313
  341MOL0     C45955   4.946   9.875   9.065 -0.2579  0.0487  0.2635
  341MOL0     C45956   4.823   9.822   9.105  0.1158 -0.4085  0.2493
  341MOL0     C45957   4.703   9.845   9.031 -0.1279  0.2546 -0.5160
  341MOL0     O45958   4.578   9.799   9.063  0.0445  0.2162 -0.1903
  341MOL0     C45959   4.539   9.726   9.187 -0.1257  0.2512  0.3103
  341MOL0     C45960   4.586   9.581   9.175 -0.6154  0.9663 -0.0653
  341MOL0     C45961   4.507   9.472   9.256 -0.6209 -0.2995 -0.4040
  341MOL0     C45962   4.573   9.335   9.263  0.2342 -1.2730 -0.5789
  341MOL0     C45963   4.706   9.356   9.325 -0.4171  0.1612  0.1640
  341MOL0     C45964   4.823   9.358   9.366 -0.3795 -0.5850  0.5498
  341MOL0     C45965   4.723   9.924   8.919  0.5351  0.4325  0.2531
  341MOL0     C45966   4.848   9.964   8.866 -0.3176  0.4234  0.1981
  341MOL0     C45967   4.851  10.037   8.728 -0.2526  0.1080 -0.4196
  341MOL0     H45968   5.344  10.161   9.014  4.4745  4.8090 -1.1207
  341MOL0     H45969   5.574  10.190   8.986 -2.4359  1.4286  0.2000
  341MOL0     H45970   5.814   9.848   8.822  0.1360 -0.0663 -1.9561
  341MOL0     H45971   5.789   9.961   8.686  0.5091 -1.5213  0.8599
  341MOL0     H45972   6.023   9.893   8.745 -4.0783 -2.9675  0.9455
  341MOL0     H45973   5.993   9.938   8.910 -1.2273 -2.4677 -1.0037
  341MOL0     H45974   5.992  10.168   8.863 -2.9558  1.8007 -3.0915
  341MOL0     H45975   5.963  10.153   8.700 -3.2178 -0.7934  2.3217
  341MOL0     H45976   6.198  10.235   8.735 -0.5106  0.0685 -1.0890
  341MOL0     H45977   6.226  10.096   8.828  1.6062  5.2232  0.1810
  341MOL0     H45978   6.323  10.071   8.610 -0.2516 -2.5891  2.1669
  341MOL0     H45979   6.181   9.964   8.600 -3.4470  0.4641 -0.0749
  341MOL0     H45980   6.060  10.167   8.499 -0.8335 -0.5149 -1.0234
  341MOL0     H45981   6.225  10.238   8.489  0.8627 -0.2714 -0.2043
  341MOL0     H45982   6.131  10.124   8.279 -0.4406  0.0796 -0.1573
  341MOL0     H45983   6.139   9.972   8.379  1.7091  0.6306  1.6391
  341MOL0     H45984   6.354   9.932   8.379  0.0512 -0.8641 -0.6818
  341MOL0     H45985   6.299   9.942   8.225 -2.4918 -0.2102  0.8549
  341MOL0     H45986   6.330  10.223   8.102  1.9439  1.6589 -1.2993
  341MOL0     H45987   6.520  10.350   7.971 -2.0620 -0.7672  1.5824
  341MOL0     H45988   6.647  10.411   8.076 -4.2903  3.1519 -0.1551
  341MOL0     H45989   6.735  10.306   7.892 -1.0899 -0.3006  0.0879
  341MOL0     H45990   6.761  10.192   8.018  0.7867 -0.5148 -1.0779
  341MOL0     H45991   6.552  10.178   7.776  1.3169  1.3330 -0.5270
  341MOL0     H45992   6.532  10.081   7.916 -1.9097  0.9469 -3.0374
  341MOL0     H45993   6.664   9.934   7.793 -0.0255  0.4096  0.4528
  341MOL0     H45994   6.799  10.022   7.865  0.9227 -4.7646 -2.1884
  341MOL0     H45995   6.999  10.041   7.760  2.0417 -2.4121  0.4026
  341MOL0     H45996   7.175   9.932   7.640 -0.4273  1.3395  1.4865
  341MOL0     H45997   7.134   9.625   7.053  0.5712 -0.8018 -1.6240
  341MOL0     H45998   7.325   9.463   6.969  1.9559  0.8656  0.0646
  341MOL0     H45999   7.475   9.279   6.931  0.0362 -0.5361 -1.0501
  341MOL0     H46000   7.545   9.438   6.962 -0.9257  1.3348  2.9440
  341MOL0     H46001   7.745   9.324   7.074  0.9218 -0.2276  0.0283
  341MOL0     H46002   7.674   9.168   7.016  1.5806  0.6284  1.7406
  341MOL0     H46003   7.686   9.252   6.783 -1.5225  1.9954  0.1863
  341MOL0     H46004   7.745   9.400   6.840 -0.9471 -0.0867 -0.1926
  341MOL0     H46005   7.920   9.127   6.871 -1.6546  0.5848  0.9962
  341MOL0     H46006   7.949   9.275   6.959 -0.6547  2.6493 -0.0074
  341MOL0     H46007   8.082   9.288   6.747 -0.2787 -0.0275 -1.2543
  341MOL0     H46008   7.949   9.402   6.757 -1.4261  0.0168 -1.8726
  341MOL0     H46009   7.944   9.131   6.617 -1.0986  0.4127  0.3154
  341MOL0     H46010   7.822   9.256   6.600  0.1062 -0.6266  2.9432
  341MOL0     H46011   8.101   9.338   6.522  0.1657 -1.8080  1.7851
  341MOL0     H46012   7.941   9.381   6.455 -1.9946 -0.4708  3.3658
  341MOL0     H46013   7.940   9.182   6.326 -0.2233 -0.2423  0.0863
  341MOL0     H46014   8.102   9.248   6.301  5.0353 -2.2129  2.9480
  341MOL0     H46015   7.444   9.393   7.375 -0.9111  2.2410  1.2994
  341MOL0     H46016   7.264   9.532   7.459 -1.0082 -0.5489  0.0145
  341MOL0     H46017   6.878   9.780   7.361 -0.1647  0.4291 -0.4612
  341MOL0     H46018   6.706   9.910   7.474 -0.1759 -1.4225  1.2816
  341MOL0     H46019   5.618   9.789   8.830 -2.2783 -1.4491 -0.9830
  341MOL0     H46020   5.393   9.754   8.854 -1.2211  0.3860 -0.4337
  341MOL0     H46021   5.028   9.856   9.134  0.3569  0.0807 -0.4416
  341MOL0     H46022   4.813   9.767   9.198 -0.3496  1.1679  1.1775
  341MOL0     H46023   4.430   9.724   9.193 -0.0971 -2.7393  1.4662
  341MOL0     H46024   4.574   9.776   9.278  1.8758 -0.7944  0.1569
  341MOL0     H46025   4.694   9.588   9.191 -0.1019  0.7437 -2.8199
  341MOL0     H46026   4.574   9.547   9.071 -0.9183 -2.4340  0.9472
  341MOL0     H46027   4.411   9.464   9.205 -0.8372  3.0591 -0.7604
  341MOL0     H46028   4.484   9.507   9.357  0.7358  2.1975 -0.8543
  341MOL0     H46029   4.511   9.276   9.331  2.1085 -0.7804  1.7109
  341MOL0     H46030   4.586   9.285   9.166 -0.3911 -1.0900 -0.7544
  341MOL0     H46031   4.925   9.360   9.399 -0.4833  1.4288  0.8571
  341MOL0     H46032   4.634   9.956   8.866  0.8512 -1.1745 -1.3436
  341MOL0     H46033   4.870  10.144   8.744  3.0177 -0.6794  2.2290
  341MOL0     H46034   4.933  10.000   8.665 -1.1144 -1.8328 -0.4530
  341MOL0     H46035   4.759  10.014   8.675 -0.1059 -2.1407  0.2324
  342MOL0     O46036   7.696   5.403   4.271  0.5945 -0.1596  0.0790
  342MOL0     C46037   7.743   5.486   4.189 -0.5462  0.2414  0.0204
  342MOL0     O46038   7.855   5.557   4.211 -0.5267  1.0600  0.3651
  342MOL0     C46039   7.936   5.513   4.315  0.0583  1.2439 -0.3408
  342MOL0     C46040   7.981   5.379   4.338 -0.2746 -0.4241  0.7229
  342MOL0     C46041   8.074   5.344   4.432  0.8124  0.0050 -0.1118
  342MOL0     C46042   8.133   5.446   4.511  0.0373 -0.7281  0.4334
  342MOL0     O46043   8.222   5.405   4.607 -0.1172  0.3156 -0.1810
  342MOL0     C46044   8.245   5.491   4.716  0.3898 -0.8952 -0.4023
  342MOL0     C46045   8.345   5.427   4.815  0.1536  0.8479  1.2307
  342MOL0     C46046   8.304   5.304   4.885 -0.3727  0.1396 -0.5975
  342MOL0     C46047   8.395   5.257   5.005 -0.0734 -0.2158 -0.2315
  342MOL0     C46048   8.339   5.136   5.084  0.2418  0.1882 -0.3327
  342MOL0     C46049   8.309   5.011   5.014  0.8308  0.2626 -1.0420
  342MOL0     C46050   8.429   4.924   4.971 -0.1783 -0.0043 -0.2816
  342MOL0     C46051   8.508   4.879   5.095 -1.2371  1.4291  0.2077
  342MOL0     N46052   8.596   4.765   5.078  0.1011 -0.2073 -0.5154
  342MOL0     C46053   8.727   4.777   5.055 -0.5901 -1.0592  0.1041
  342MOL0     C46054   8.771   4.656   5.021  0.3904 -0.0937 -0.1379
  342MOL0     C46055   8.905   4.614   4.982 -0.0359 -0.4125 -0.4952
  342MOL0     C46056   9.011   4.638   5.099 -0.2847  0.4992 -0.2521
  342MOL0     C46057   9.153   4.613   5.052  0.1759  0.0900  0.3869
  342MOL0     C46058   9.192   4.462   5.056  0.6074 -0.4521  0.2468
  342MOL0     O46059   9.144   4.396   4.934  0.3644  0.2169  0.4998
  342MOL0     C46060   9.223   4.379   4.822  0.4184  0.0125  0.0916
  342MOL0     C46061   9.160   4.301   4.720  0.3067  0.6716  1.0179
  342MOL0     C46062   9.218   4.279   4.592 -0.7186  0.8115 -0.1842
  342MOL0     C46063   9.351   4.322   4.573 -0.4136  0.9384  0.4628
  342MOL0     C46064   9.430   4.314   4.442  0.1230  0.3895 -0.9065
  342MOL0     O46065   9.506   4.423   4.410  0.2680 -0.5522  0.5374
  342MOL0     C46066   9.560   4.420   4.280 -0.7866 -1.0786  0.9176
  342MOL0     C46067   9.647   4.319   4.236 -0.5621  0.2140  0.9130
  342MOL0     C46068   9.706   4.313   4.109 -0.1109  0.1457 -0.5707
  342MOL0     C46069   9.678   4.418   4.024  1.0337 -0.1768 -0.3804
  342MOL0     O46070   9.749   4.430   3.907 -0.0837 -0.0869 -0.6080
  342MOL0     C46071   9.654   4.408   3.798 -0.0759 -0.5667  0.6667
  342MOL0     C46072   9.723   4.417   3.660  0.7185 -0.8557 -0.0200
  342MOL0     C46073   9.785   4.554   3.630 -0.6511  0.1761 -0.1838
  342MOL0     C46074   9.903   4.587   3.716 -0.6886  0.5092  0.8231
  342MOL0     C46075   9.995   4.694   3.648 -0.0632 -0.7308 -0.8546
  342MOL0     C46076   9.920   4.823   3.612 -0.2351  0.3479  0.5834
  342MOL0     C46077  10.012   4.913   3.525  0.3707  0.9261  0.4878
  342MOL0     C46078  10.107   4.994   3.609  0.9646 -0.0991 -0.3343
  342MOL0    Cl46079  10.187   5.097   3.492 -0.4280 -0.5126  0.2183
  342MOL0     C46080   9.594   4.528   4.066 -1.3845  0.3752 -0.9908
  342MOL0     C46081   9.532   4.526   4.190  0.7364 -0.5444  0.0462
  342MOL0     O46082   9.402   4.222   4.373 -0.0380  0.2446 -0.2113
  342MOL0     C46083   9.419   4.398   4.679  0.0920  0.4678  0.0300
  342MOL0     C46084   9.348   4.426   4.797  0.3068 -1.1126  0.0379
  342MOL0     N46085   8.654   4.572   5.018 -0.3899  0.3663  0.2372
  342MOL0     N46086   8.553   4.637   5.044  0.2959  0.1161  0.0496
  342MOL0     C46087   8.100   5.581   4.490 -0.2425 -0.0806  0.4455
  342MOL0     C46088   8.005   5.610   4.385  0.3669 -0.3169 -0.4995
  342MOL0     C46089   7.662   5.531   4.072  0.1513  0.9806 -0.0684
  342MOL0     C46090   7.691   5.660   4.019  0.7809  0.4855  0.6451
  342MOL0     C46091   7.639   5.695   3.890 -0.0121  0.0849 -0.5537
  342MOL0     C46092   7.548   5.619   3.823  0.7162 -0.3468 -0.2636
  342MOL0     O46093   7.521   5.663   3.699 -0.5505  0.9157 -0.6402
  342MOL0     C46094   7.415   5.597   3.619 -0.3434 -0.8455  0.5999
  342MOL0     C46095   7.360   5.685   3.517  0.2331 -0.6047  0.0168
  342MOL0     C46096   7.465   5.742   3.424 -0.3658 -0.0605  0.7708
  342MOL0     C46097   7.404   5.810   3.304 -0.5458  0.7408  0.0555
  342MOL0     C46098   7.509   5.898   3.242  0.5124  0.0075  0.1729
  342MOL0     C46099   7.598   5.965   3.184  0.2117 -0.1702  0.2100
  342MOL0     C46100   7.495   5.510   3.894  0.5693  0.7517  0.0910
  342MOL0     C46101   7.551   5.461   4.010 -0.7901 -0.3396 -0.2482
  342MOL0     C46102   7.490   5.331   4.051  0.0517 -0.2505 -0.4639
  342MOL0     H46103   7.941   5.305   4.269 -1.4732  0.8047  0.0157
  342MOL0     H46104   8.100   5.241   4.455  0.6534  0.2092  1.0102
  342MOL0     H46105   8.290   5.583   4.679 -2.2119  1.4864  1.8285
  342MOL0     H46106   8.151   5.524   4.762  1.3901  1.4136  0.0870
  342MOL0     H46107   8.362   5.502   4.893 -0.4093 -0.0803  2.2667
  342MOL0     H46108   8.443   5.405   4.770  0.0853  0.0971  1.4382
  342MOL0     H46109   8.299   5.226   4.809 -0.8387  0.5643 -1.0122
  342MOL0     H46110   8.211   5.316   4.941  0.6713 -1.9277  1.8008
  342MOL0     H46111   8.493   5.229   4.967  1.1275  3.6854 -0.4008
  342MOL0     H46112   8.415   5.341   5.072  0.0247 -0.0868 -0.4233
  342MOL0     H46113   8.405   5.124   5.170  0.9448  2.0420 -0.5622
  342MOL0     H46114   8.245   5.162   5.135  1.7949  0.5463  2.5209
  342MOL0     H46115   8.232   4.958   5.070  1.3884  2.5143  2.1452
  342MOL0     H46116   8.255   5.045   4.925  1.9000 -1.6468 -2.5007
  342MOL0     H46117   8.497   4.980   4.906 -2.2020  0.3229 -2.2554
  342MOL0     H46118   8.400   4.831   4.921  0.4839 -0.8317  0.8288
  342MOL0     H46119   8.566   4.951   5.154 -0.3846 -1.9767  4.0537
  342MOL0     H46120   8.433   4.842   5.167 -1.6330  2.3347  0.2750
  342MOL0     H46121   8.790   4.865   5.064  0.7479 -1.9565 -0.0805
  342MOL0     H46122   8.903   4.510   4.947  0.4112 -0.1232 -1.4133
  342MOL0     H46123   8.935   4.661   4.887  0.1341  1.6884  0.5539
  342MOL0     H46124   9.024   4.740   5.136  1.4783  2.1533 -4.7767
  342MOL0     H46125   8.983   4.579   5.187 -0.6674  3.0532  1.4644
  342MOL0     H46126   9.224   4.669   5.113 -0.2323 -0.7136  1.6335
  342MOL0     H46127   9.164   4.643   4.947 -0.4577  1.1408  0.6017
  342MOL0     H46128   9.153   4.401   5.138 -3.1456 -0.3164 -1.2514
  342MOL0     H46129   9.300   4.472   5.066  0.2040  5.1756  2.3130
  342MOL0     H46130   9.065   4.253   4.742  1.1933 -1.4393  0.4760
  342MOL0     H46131   9.157   4.226   4.519  1.2795 -0.6290 -0.9167
  342MOL0     H46132   9.667   4.239   4.307  0.6885  0.2814  0.6443
  342MOL0     H46133   9.762   4.223   4.084 -0.7656 -0.7009  0.9139
  342MOL0     H46134   9.613   4.308   3.814 -0.2612 -0.3096  1.8720
  342MOL0     H46135   9.580   4.488   3.808  0.9557  0.4209  0.4722
  342MOL0     H46136   9.788   4.330   3.651  0.3915 -0.9594 -1.6389
  342MOL0     H46137   9.643   4.411   3.586 -1.1873  0.7260  1.7784
  342MOL0     H46138   9.820   4.549   3.527  0.5154 -2.6689  0.2728
  342MOL0     H46139   9.713   4.636   3.630  0.4776  1.2383 -2.0493
  342MOL0     H46140   9.966   4.499   3.731 -2.7173 -0.9425  1.1625
  342MOL0     H46141   9.887   4.622   3.818  2.6990  1.4284  1.1923
  342MOL0     H46142  10.031   4.644   3.558  1.1463 -0.5351 -0.4891
  342MOL0     H46143  10.084   4.701   3.711 -0.1030 -3.7379 -0.3375
  342MOL0     H46144   9.828   4.800   3.557  0.1099 -0.2270  0.2299
  342MOL0     H46145   9.888   4.881   3.699  1.9795 -0.3975  1.9744
  342MOL0     H46146   9.949   4.983   3.469  0.2170  1.4910  1.3540
  342MOL0     H46147  10.064   4.845   3.458 -4.1827 -2.0032 -0.4860
  342MOL0     H46148  10.051   5.056   3.679  2.8589 -1.8041  2.9100
  342MOL0     H46149  10.176   4.931   3.666  0.5547 -1.4142 -1.2264
  342MOL0     H46150   9.585   4.620   4.008 -3.9803  1.0912  0.4207
  342MOL0     H46151   9.462   4.603   4.220 -2.1053 -2.1383 -1.9724
  342MOL0     H46152   9.520   4.433   4.663  0.0745  0.8690  0.7758
  342MOL0     H46153   9.390   4.495   4.869 -0.1842 -1.0190  0.2371
  342MOL0     H46154   8.159   5.663   4.529 -0.7760  0.1824  0.7203
  342MOL0     H46155   7.979   5.714   4.367  0.9537 -0.5281 -2.9201
  342MOL0     H46156   7.755   5.721   4.082 -0.5590  3.1724 -0.4621
  342MOL0     H46157   7.660   5.796   3.857 -1.4204  0.1588 -1.2910
  342MOL0     H46158   7.331   5.580   3.687 -0.8481  3.5873  1.4056
  342MOL0     H46159   7.446   5.498   3.585 -2.1589 -0.5960 -2.1151
  342MOL0     H46160   7.306   5.766   3.567 -1.3027 -0.4601 -1.7986
  342MOL0     H46161   7.290   5.621   3.464 -0.1843 -0.5244  0.4681
  342MOL0     H46162   7.519   5.654   3.389 -0.3307  1.0734 -2.3092
  342MOL0     H46163   7.526   5.819   3.472  0.5386  1.0716 -2.0301
  342MOL0     H46164   7.386   5.740   3.222 -0.4944  0.4312  0.3054
  342MOL0     H46165   7.327   5.885   3.326 -0.8803  0.4875 -0.2342
  342MOL0     H46166   7.668   6.021   3.126 -0.5648  2.5285  1.6980
  342MOL0     H46167   7.426   5.443   3.844  0.8346  0.3444  0.2643
  342MOL0     H46168   7.437   5.289   3.965 -2.6643  0.5156  0.7054
  342MOL0     H46169   7.574   5.273   4.090  0.5806  1.3695  0.9516
  342MOL0     H46170   7.419   5.345   4.133  0.0553  2.2762 -0.8118
  343MOL0     O46171   3.415   1.602   2.624 -0.2619  0.4839 -0.0334
  343MOL0     C46172   3.384   1.590   2.503  0.5422  0.4475 -0.0106
  343MOL0     O46173   3.460   1.533   2.406 -0.3686  0.0897  0.0707
  343MOL0     C46174   3.587   1.480   2.426 -0.5993  0.4672  0.8605
  343MOL0     C46175   3.669   1.491   2.537 -0.0526 -1.0281 -0.6967
  343MOL0     C46176   3.796   1.437   2.546  0.2218  0.0736  0.6508
  343MOL0     C46177   3.843   1.361   2.429  0.0684  0.4545 -0.5347
  343MOL0     O46178   3.965   1.298   2.423  0.8509  0.7909  0.8429
  343MOL0     C46179   4.073   1.349   2.490 -0.9033 -0.6077  0.0668
  343MOL0     C46180   4.105   1.288   2.625  0.0528 -0.3179 -0.5156
  343MOL0     C46181   4.111   1.129   2.626 -0.6168 -0.9390 -0.0748
  343MOL0     C46182   4.116   1.076   2.773 -0.3628 -0.2030 -0.6759
  343MOL0     C46183   4.145   0.927   2.758 -0.2972  0.2851 -0.0313
  343MOL0     C46184   4.176   0.863   2.896 -0.4337 -0.1251  0.5530
  343MOL0     C46185   4.056   0.860   2.987 -0.7792  0.9001  0.9510
  343MOL0     C46186   4.077   0.761   3.101  0.2515 -0.1028  0.1192
  343MOL0     N46187   4.178   0.785   3.206  0.0738  0.0608  0.6112
  343MOL0     C46188   4.214   0.702   3.308 -0.2285 -0.6524 -0.7112
  343MOL0     C46189   4.304   0.778   3.379 -0.2218 -0.5222  0.1484
  343MOL0     C46190   4.392   0.733   3.500  0.1688  0.4093  0.5119
  343MOL0     C46191   4.460   0.596   3.472  0.5969 -0.7916 -0.5001
  343MOL0     C46192   4.551   0.554   3.595  0.6944 -0.2657  0.5049
  343MOL0     C46193   4.675   0.631   3.594 -0.4226  0.3218  0.0640
  343MOL0     O46194   4.735   0.603   3.468  0.3152  0.0497 -0.5662
  343MOL0     C46195   4.870   0.627   3.449  0.0205  0.1914  0.1387
  343MOL0     C46196   4.907   0.667   3.320 -0.4896  0.6482  0.1128
  343MOL0     C46197   5.045   0.691   3.290 -0.0858 -0.3937 -0.9600
  343MOL0     C46198   5.141   0.684   3.392 -0.2292 -0.0020 -0.1326
  343MOL0     C46199   5.277   0.705   3.365 -1.1853  0.5357  0.6464
  343MOL0     O46200   5.308   0.748   3.243 -0.4321  0.5663  0.0951
  343MOL0     C46201   5.440   0.776   3.214  0.2387  0.1644 -0.4721
  343MOL0     C46202   5.529   0.858   3.285  0.6791  0.6673  0.0684
  343MOL0     C46203   5.656   0.871   3.241 -0.5447 -0.2185  0.3024
  343MOL0     C46204   5.706   0.802   3.133  0.6527  0.0254 -0.3379
  343MOL0     O46205   5.835   0.824   3.101 -0.7253 -0.0741  0.1447
  343MOL0     C46206   5.886   0.766   2.976 -0.4189  0.7133 -0.0535
  343MOL0     C46207   6.036   0.743   3.000 -0.5060 -0.8357 -0.4227
  343MOL0     C46208   6.111   0.868   3.013 -0.0333  0.3594 -0.1940
  343MOL0     C46209   6.265   0.854   2.969 -0.1108 -0.9514  0.0152
  343MOL0     C46210   6.341   0.981   2.961  0.0553 -0.5596 -0.7369
  343MOL0     C46211   6.490   0.950   2.936  0.6001 -0.0882  0.3165
  343MOL0     C46212   6.576   1.070   2.985  0.4262  0.0662  0.8042
  343MOL0     C46213   6.717   1.056   2.938  0.2810 -0.2323  0.6557
  343MOL0    Cl46214   6.806   0.918   2.994 -0.1757 -0.1177 -0.3161
  343MOL0     C46215   5.618   0.729   3.054  0.4163 -0.3698  0.2472
  343MOL0     C46216   5.483   0.711   3.091 -0.3271  0.0494  0.3262
  343MOL0     O46217   5.366   0.668   3.451 -0.6679 -0.3424 -0.3749
  343MOL0     C46218   5.100   0.641   3.518  0.1998  0.8445 -0.1521
  343MOL0     C46219   4.964   0.607   3.548  0.2572  0.0637  0.7379
  343MOL0     N46220   4.334   0.895   3.306  0.2564  0.0584  0.8164
  343MOL0     N46221   4.250   0.906   3.216  0.6658 -0.4113 -0.0537
  343MOL0     C46222   3.758   1.352   2.315 -0.0443  0.1097 -0.5669
  343MOL0     C46223   3.636   1.405   2.314 -0.4190 -0.0784  0.1784
  343MOL0     C46224   3.243   1.622   2.449 -0.6621 -0.1881 -0.1655
  343MOL0     C46225   3.201   1.575   2.324 -0.2286  0.7716  0.7251
  343MOL0     C46226   3.065   1.585   2.278  0.0324  1.2604 -0.1421
  343MOL0     C46227   2.972   1.649   2.362 -0.4786  0.0232 -0.0292
  343MOL0     O46228   2.837   1.673   2.345 -0.7620 -0.1238 -0.1688
  343MOL0     C46229   2.778   1.623   2.225 -0.9687  0.0266 -0.0253
  343MOL0     C46230   2.794   1.727   2.115  0.3862 -0.1501 -0.1364
  343MOL0     C46231   2.716   1.857   2.153  0.1020 -0.1282 -0.1695
  343MOL0     C46232   2.758   1.984   2.074  0.5332 -0.8433 -0.3539
  343MOL0     C46233   2.695   2.092   2.146 -0.5307 -0.0642  0.6718
  343MOL0     C46234   2.644   2.189   2.205  0.0606  0.1760  0.7449
  343MOL0     C46235   3.011   1.684   2.487  0.0060 -1.1963 -0.3014
  343MOL0     C46236   3.146   1.698   2.531  0.0028 -0.9274  0.6760
  343MOL0     C46237   3.170   1.768   2.669  0.9667  1.2014 -0.1247
  343MOL0     H46238   3.628   1.540   2.626 -0.2428  0.2664 -1.4589
  343MOL0     H46239   3.858   1.459   2.632  1.8508  2.3442 -0.9972
  343MOL0     H46240   4.163   1.329   2.431 -0.3686 -1.6704  1.1909
  343MOL0     H46241   4.055   1.455   2.507 -2.0259 -0.8778  0.7049
  343MOL0     H46242   4.031   1.335   2.691 -1.1180 -2.1520 -0.4642
  343MOL0     H46243   4.199   1.330   2.662 -1.4932  1.3764  1.7720
  343MOL0     H46244   4.194   1.100   2.562  0.2513  1.8585 -0.3554
  343MOL0     H46245   4.016   1.091   2.588 -0.9845 -0.6435  0.5312
  343MOL0     H46246   4.190   1.124   2.838  0.6714 -2.1742 -0.3110
  343MOL0     H46247   4.018   1.091   2.818 -0.5128  1.1985 -1.3994
  343MOL0     H46248   4.069   0.865   2.709  0.6051 -1.3075  0.4913
  343MOL0     H46249   4.231   0.911   2.693  0.8753 -1.6586  1.8430
  343MOL0     H46250   4.223   0.766   2.881 -2.1791 -0.8812 -0.2306
  343MOL0     H46251   4.254   0.919   2.948 -0.6548  0.9323 -0.2115
  343MOL0     H46252   3.971   0.819   2.932  2.1076 -1.7390 -1.8632
  343MOL0     H46253   4.037   0.959   3.032  3.5603  1.5000  1.9480
  343MOL0     H46254   3.982   0.776   3.154 -1.3385  0.6302 -2.7400
  343MOL0     H46255   4.084   0.658   3.066  0.4727 -0.4160  1.0662
  343MOL0     H46256   4.189   0.599   3.328 -1.1167  0.0168  2.0080
  343MOL0     H46257   4.464   0.814   3.511 -1.2664  2.0687 -1.6807
  343MOL0     H46258   4.325   0.737   3.586 -2.2082  2.0890 -1.2774
  343MOL0     H46259   4.397   0.509   3.451  1.2659 -1.3692 -0.1390
  343MOL0     H46260   4.526   0.616   3.387  0.6030 -0.1729 -0.3569
  343MOL0     H46261   4.584   0.452   3.573 -1.9780 -1.1172 -0.0041
  343MOL0     H46262   4.489   0.541   3.684  0.5883  0.3297  0.5169
  343MOL0     H46263   4.735   0.591   3.676 -0.2975  0.2277 -0.0737
  343MOL0     H46264   4.659   0.738   3.610  0.7000  0.6933 -1.1044
  343MOL0     H46265   4.835   0.672   3.239  1.4252  0.7432 -1.6846
  343MOL0     H46266   5.075   0.725   3.192 -1.7257 -0.0117 -1.3625
  343MOL0     H46267   5.507   0.911   3.377  1.9770  1.6900 -0.1805
  343MOL0     H46268   5.716   0.943   3.295  0.1465 -0.6781  0.1572
  343MOL0     H46269   5.833   0.672   2.954 -1.4217  1.3142 -0.2663
  343MOL0     H46270   5.863   0.838   2.897 -0.1636  3.0937  1.9182
  343MOL0     H46271   6.063   0.680   3.086  0.5672 -0.7519 -0.6744
  343MOL0     H46272   6.066   0.685   2.912 -0.8965 -0.2327 -0.9525
  343MOL0     H46273   6.071   0.958   2.965  1.1658  1.5313  0.8941
  343MOL0     H46274   6.107   0.895   3.119  0.1437  1.2248 -0.3966
  343MOL0     H46275   6.274   0.813   2.868  3.7741 -0.2506 -0.1036
  343MOL0     H46276   6.299   0.784   3.046 -0.1517 -1.3375 -0.3093
  343MOL0     H46277   6.331   1.026   3.061 -2.0791 -3.7094  0.6405
  343MOL0     H46278   6.296   1.042   2.882  0.3834  1.0301  0.2719
  343MOL0     H46279   6.525   0.858   2.984 -0.4051 -1.1411 -0.8862
  343MOL0     H46280   6.494   0.940   2.827 -1.7094 -0.8751  0.2501
  343MOL0     H46281   6.561   1.077   3.093 -0.7029 -1.8954  0.8241
  343MOL0     H46282   6.537   1.164   2.943  1.8349  0.8544  1.2233
  343MOL0     H46283   6.732   1.061   2.830  0.7938 -0.9920  0.6867
  343MOL0     H46284   6.767   1.148   2.968 -1.5603  1.6086 -1.5261
  343MOL0     H46285   5.642   0.683   2.959 -1.6040  0.3440 -0.6839
  343MOL0     H46286   5.423   0.636   3.040 -0.2091  0.6425 -0.7056
  343MOL0     H46287   5.175   0.610   3.591  1.5934  2.1140 -0.9650
  343MOL0     H46288   4.940   0.585   3.652  3.1884  0.1305  1.5263
  343MOL0     H46289   3.789   1.299   2.226 -0.3348  0.6760 -1.0184
  343MOL0     H46290   3.566   1.402   2.231 -0.1456  0.2486 -0.0676
  343MOL0     H46291   3.272   1.516   2.266  0.9489  1.1081  1.7835
  343MOL0     H46292   3.044   1.543   2.180 -1.1081  0.6017  0.3736
  343MOL0     H46293   2.674   1.609   2.258 -0.4537 -1.7390  1.0012
  343MOL0     H46294   2.815   1.523   2.201  1.0317  0.3302  1.5028
  343MOL0     H46295   2.757   1.690   2.019  1.5641  0.7898 -0.9600
  343MOL0     H46296   2.895   1.765   2.099  0.3964 -0.9056 -2.1128
  343MOL0     H46297   2.742   1.869   2.259  3.0345  0.4202 -0.8678
  343MOL0     H46298   2.609   1.839   2.136 -0.5668  2.7337  0.5917
  343MOL0     H46299   2.867   1.992   2.079  0.6117  0.9291 -3.0055
  343MOL0     H46300   2.736   1.977   1.967  0.4191 -1.3799 -0.3000
  343MOL0     H46301   2.592   2.264   2.261  0.6948 -0.5941  2.4184
  343MOL0     H46302   2.933   1.724   2.551  1.4641  0.1702  0.6950
  343MOL0     H46303   3.225   1.861   2.653 -0.7204  1.8961 -2.3787
  343MOL0     H46304   3.077   1.783   2.723  0.6760 -0.1613 -0.2043
  343MOL0     H46305   3.225   1.695   2.729 -1.4414 -0.8533 -0.2506
  344MOL0     O46306   9.501   4.093   9.276  0.6523 -0.3634 -0.1579
  344MOL0     C46307   9.510   4.027   9.383 -1.0000 -0.6244 -1.6057
  344MOL0     O46308   9.444   4.058   9.504 -0.6173  0.3189  0.3994
  344MOL0     C46309   9.351   4.160   9.494  0.4041  0.2734 -0.7547
  344MOL0     C46310   9.368   4.272   9.578 -0.3489 -0.1605  0.3671
  344MOL0     C46311   9.267   4.383   9.577 -0.3319  0.0464 -0.0352
  344MOL0     C46312   9.158   4.378   9.501 -0.3980  0.4632 -0.0090
  344MOL0     O46313   9.058   4.473   9.486 -0.2373  0.3493 -0.3206
  344MOL0     C46314   9.077   4.614   9.529  0.2184  0.2568 -0.2236
  344MOL0     C46315   9.163   4.696   9.435 -0.4644 -0.2527 -0.4880
  344MOL0     C46316   9.096   4.714   9.293  0.8056 -0.8681  0.2842
  344MOL0     C46317   9.002   4.837   9.284 -0.0070 -0.0649  0.4935
  344MOL0     C46318   8.951   4.855   9.141  0.5600 -0.5603 -0.4305
  344MOL0     C46319   9.064   4.910   9.052 -0.1279  0.4167  1.2948
  344MOL0     C46320   9.008   4.936   8.909 -0.4671 -0.7048 -0.6811
  344MOL0     C46321   9.123   4.994   8.816 -0.7676  0.5523 -0.1422
  344MOL0     N46322   9.094   4.999   8.675  0.8248  0.1744 -0.1920
  344MOL0     C46323   9.002   5.085   8.610 -0.3583  0.6721 -0.2455
  344MOL0     C46324   9.025   5.074   8.473 -0.4189  0.2420 -0.6701
  344MOL0     C46325   8.968   5.163   8.369  0.8572 -0.2612 -0.2989
  344MOL0     C46326   8.910   5.078   8.247 -0.5884 -0.8574 -0.0631
  344MOL0     C46327   8.834   5.166   8.144  0.3353  0.3097 -0.3876
  344MOL0     C46328   8.907   5.301   8.114 -0.7093 -0.3423 -0.4954
  344MOL0     O46329   8.837   5.382   8.024 -0.4604 -0.2821  0.6692
  344MOL0     C46330   8.805   5.344   7.894 -0.0201 -0.2785 -0.1863
  344MOL0     C46331   8.696   5.261   7.877 -0.3914 -0.1284  0.5616
  344MOL0     C46332   8.678   5.197   7.757 -0.0091  0.0729  0.6171
  344MOL0     C46333   8.770   5.215   7.653  1.4118  0.3979 -0.3679
  344MOL0     C46334   8.750   5.152   7.523  0.1962 -0.2233 -0.0371
  344MOL0     O46335   8.643   5.083   7.500 -0.4306 -0.6994  0.2128
  344MOL0     C46336   8.614   5.047   7.363  0.1094  0.6328 -0.2020
  344MOL0     C46337   8.611   4.909   7.328  0.0582 -0.4558 -0.8117
  344MOL0     C46338   8.577   4.869   7.200 -0.0347 -0.4908  0.3066
  344MOL0     C46339   8.547   4.961   7.104 -0.7307  0.0410  0.3136
  344MOL0     O46340   8.528   4.925   6.971 -0.2113 -0.1896  0.0476
  344MOL0     C46341   8.594   4.812   6.916 -0.1852  0.2332  0.6060
  344MOL0     C46342   8.590   4.816   6.763  0.5218 -0.0277  0.0095
  344MOL0     C46343   8.657   4.935   6.705  0.3573 -0.5908 -0.2240
  344MOL0     C46344   8.632   4.950   6.559  0.7193  0.0921  0.6649
  344MOL0     C46345   8.745   5.009   6.472  0.1709  0.8872  0.1888
  344MOL0     C46346   8.790   5.141   6.520 -0.0768 -0.5862 -0.2241
  344MOL0     C46347   8.926   5.179   6.458 -0.0655  0.8530  1.1362
  344MOL0     C46348   9.000   5.276   6.538 -1.0360 -0.3466  0.0754
  344MOL0    Cl46349   8.910   5.429   6.552 -0.1299  0.1897 -0.5818
  344MOL0     C46350   8.530   5.094   7.143 -0.5916 -0.8274  0.2385
  344MOL0     C46351   8.571   5.133   7.266  0.7282 -0.9645 -0.1180
  344MOL0     O46352   8.826   5.182   7.431 -0.0935 -0.6000 -0.5131
  344MOL0     C46353   8.879   5.305   7.666  0.2532  0.0364  0.1818
  344MOL0     C46354   8.889   5.370   7.786  0.2825 -0.1107 -0.7507
  344MOL0     N46355   9.112   4.970   8.454 -0.1356  0.3735 -0.1963
  344MOL0     N46356   9.157   4.930   8.575 -0.0267  0.7195  0.7487
  344MOL0     C46357   9.145   4.268   9.419  0.7566 -0.8662  0.1456
  344MOL0     C46358   9.238   4.164   9.411 -0.5859 -0.0478 -0.2283
  344MOL0     C46359   9.605   3.914   9.400  0.4474 -0.1822 -0.1978
  344MOL0     C46360   9.688   3.886   9.285  0.4075 -0.0856 -0.2847
  344MOL0     C46361   9.764   3.773   9.294 -0.0320  1.0220 -0.6044
  344MOL0     C46362   9.772   3.695   9.407 -0.6662 -0.5040  1.0506
  344MOL0     O46363   9.846   3.585   9.397  0.4280 -0.5808 -0.3411
  344MOL0     C46364   9.833   3.486   9.501 -0.1117 -0.8376  0.2903
  344MOL0     C46365   9.848   3.348   9.438 -0.7288  0.2043  0.6666
  344MOL0     C46366   9.726   3.299   9.343  0.0385  0.0353 -0.3542
  344MOL0     C46367   9.620   3.405   9.310 -0.2067 -0.3146 -0.3707
  344MOL0     C46368   9.508   3.344   9.240  0.0363 -0.4492  0.7392
  344MOL0     C46369   9.424   3.279   9.178  0.3053  0.0024  0.0946
  344MOL0     C46370   9.697   3.726   9.516  0.8604  0.8101  0.2099
  344MOL0     C46371   9.603   3.825   9.511 -0.1578  0.1925 -0.8015
  344MOL0     C46372   9.510   3.830   9.635 -0.5271 -0.8612 -0.0779
  344MOL0     H46373   9.457   4.286   9.639 -0.4548 -1.6158  0.8928
  344MOL0     H46374   9.274   4.461   9.652 -0.7761 -0.7782  0.8838
  344MOL0     H46375   8.979   4.662   9.520 -1.5335 -3.1430 -1.0496
  344MOL0     H46376   9.103   4.619   9.635 -1.6034 -0.3025  0.2874
  344MOL0     H46377   9.253   4.635   9.427 -0.9078 -1.4070  2.2392
  344MOL0     H46378   9.193   4.787   9.488  1.3895 -1.0439 -0.0772
  344MOL0     H46379   9.041   4.627   9.257 -1.5542  0.3572  0.6983
  344MOL0     H46380   9.170   4.743   9.217  0.0652  0.8477  0.1757
  344MOL0     H46381   8.920   4.827   9.356 -0.3380 -1.1419 -0.0011
  344MOL0     H46382   9.057   4.917   9.333 -0.6758 -1.4608  3.8170
  344MOL0     H46383   8.898   4.767   9.104 -1.7456  0.8655 -0.7214
  344MOL0     H46384   8.868   4.923   9.161 -0.1031 -1.0850 -1.3483
  344MOL0     H46385   9.115   4.993   9.101  0.4420 -0.3567  2.0473
  344MOL0     H46386   9.142   4.838   9.026  0.0673  1.3802 -1.0625
  344MOL0     H46387   8.926   5.007   8.920 -0.5838 -0.8826 -0.4208
  344MOL0     H46388   8.985   4.836   8.872 -0.2885 -1.0323  0.0892
  344MOL0     H46389   9.137   5.099   8.844  0.1137  0.6540 -0.9371
  344MOL0     H46390   9.217   4.939   8.825  0.0436  1.9251  0.0654
  344MOL0     H46391   8.942   5.165   8.652 -0.7828 -0.4562  1.4008
  344MOL0     H46392   8.901   5.236   8.416 -0.8259 -3.4443  2.7247
  344MOL0     H46393   9.050   5.227   8.336  0.1859  0.5548 -0.4107
  344MOL0     H46394   8.993   5.042   8.184 -0.7335  0.2687 -0.9256
  344MOL0     H46395   8.846   4.993   8.274 -0.1396 -2.1442 -2.6339
  344MOL0     H46396   8.745   5.190   8.203  1.8526 -2.3547  3.3669
  344MOL0     H46397   8.818   5.111   8.051  0.7472 -0.6822  0.1132
  344MOL0     H46398   9.009   5.295   8.075 -0.5773  2.1148 -0.7349
  344MOL0     H46399   8.916   5.359   8.207 -0.1022 -2.2357  0.6785
  344MOL0     H46400   8.628   5.238   7.959 -0.8718 -0.2975  0.1213
  344MOL0     H46401   8.590   5.138   7.733  1.1017 -0.7515 -1.6474
  344MOL0     H46402   8.645   4.835   7.400  0.3194  0.6065  0.1889
  344MOL0     H46403   8.583   4.762   7.182 -0.2944 -0.7130  1.4340
  344MOL0     H46404   8.699   4.815   6.947  0.4276 -1.3670 -1.0796
  344MOL0     H46405   8.550   4.723   6.961 -0.3511  1.1385  2.2956
  344MOL0     H46406   8.650   4.728   6.739 -0.2924 -0.2866 -1.1483
  344MOL0     H46407   8.495   4.799   6.713  0.6817  1.7131 -0.9593
  344MOL0     H46408   8.637   5.030   6.757  0.5451 -0.4768 -0.3593
  344MOL0     H46409   8.765   4.926   6.717  0.2934  0.7155  2.0540
  344MOL0     H46410   8.542   5.010   6.543 -0.2086 -1.7705 -1.6571
  344MOL0     H46411   8.604   4.859   6.505  0.4571  1.0647 -0.8875
  344MOL0     H46412   8.714   5.013   6.368  3.1293 -0.3329 -0.8540
  344MOL0     H46413   8.830   4.940   6.472  0.9332  1.8009 -0.0019
  344MOL0     H46414   8.718   5.219   6.491 -1.4224 -2.5163 -2.3497
  344MOL0     H46415   8.816   5.138   6.626  0.4769 -0.5312 -0.3571
  344MOL0     H46416   8.894   5.208   6.357  1.5052 -2.7706 -0.6136
  344MOL0     H46417   8.986   5.088   6.445  1.4308  2.1802 -2.6819
  344MOL0     H46418   9.012   5.237   6.639 -2.3150 -2.9637 -0.6861
  344MOL0     H46419   9.104   5.277   6.506 -0.7834  0.8711  0.8734
  344MOL0     H46420   8.488   5.160   7.068  1.5675 -2.6133 -2.7628
  344MOL0     H46421   8.565   5.236   7.299 -1.3346 -1.8851  2.8074
  344MOL0     H46422   8.954   5.323   7.590  0.3694 -1.5124 -0.0946
  344MOL0     H46423   8.967   5.441   7.811  2.1146 -1.7593 -1.5185
  344MOL0     H46424   9.063   4.276   9.348  1.2785 -0.3768 -0.4087
  344MOL0     H46425   9.217   4.093   9.331 -2.3673  0.6125 -0.3875
  344MOL0     H46426   9.696   3.950   9.197 -0.9646  0.7701  0.1782
  344MOL0     H46427   9.823   3.735   9.211 -2.1801 -1.1685 -1.2471
  344MOL0     H46428   9.738   3.483   9.555 -1.0401 -1.4975 -1.3156
  344MOL0     H46429   9.915   3.501   9.572 -0.6872 -3.7393  1.7083
  344MOL0     H46430   9.853   3.281   9.524 -0.3594 -1.0546 -0.3108
  344MOL0     H46431   9.942   3.341   9.382 -0.8311 -0.8561  0.6000
  344MOL0     H46432   9.663   3.218   9.381 -1.3899  0.9118 -0.7578
  344MOL0     H46433   9.764   3.261   9.248 -2.6477 -1.9387 -0.7682
  344MOL0     H46434   9.580   3.450   9.402 -2.5250 -1.0040 -0.9845
  344MOL0     H46435   9.666   3.485   9.251  0.5265  0.3828  1.0912
  344MOL0     H46436   9.362   3.221   9.112 -1.6395 -0.2191  2.0098
  344MOL0     H46437   9.715   3.674   9.610 -3.3480 -3.7661 -1.1108
  344MOL0     H46438   9.497   3.732   9.680  0.3787 -1.0433 -0.1777
  344MOL0     H46439   9.543   3.902   9.711  1.3267 -0.3948 -1.2252
  344MOL0     H46440   9.408   3.845   9.598 -0.4557  0.7243  0.2827
  345MOL0     O46441   7.626   3.756   6.970  0.7144 -0.8865  0.1380
  345MOL0     C46442   7.617   3.833   7.064  1.2146 -1.3032 -0.7408
  345MOL0     O46443   7.684   3.824   7.188  0.4262  0.0968 -0.1889
  345MOL0     C46444   7.726   3.699   7.230 -0.1410 -0.0407 -0.7769
  345MOL0     C46445   7.721   3.569   7.176  0.0288 -0.3057  0.0458
  345MOL0     C46446   7.774   3.456   7.237  0.4253 -1.0062 -0.6845
  345MOL0     C46447   7.850   3.471   7.357  0.2838 -0.2947  0.1710
  345MOL0     O46448   7.914   3.354   7.395 -0.2949 -0.6993 -0.3415
  345MOL0     C46449   8.016   3.367   7.498  0.4106 -0.1424 -0.1165
  345MOL0     C46450   8.080   3.225   7.526 -0.2199 -0.0522  0.3688
  345MOL0     C46451   8.167   3.172   7.408  0.1204  0.1857 -0.7641
  345MOL0     C46452   8.266   3.068   7.451  0.2726 -0.6379  0.5535
  345MOL0     C46453   8.390   3.063   7.364 -0.8086 -0.9524 -0.5629
  345MOL0     C46454   8.478   2.951   7.400 -0.3071  0.6947 -0.5708
  345MOL0     C46455   8.623   2.977   7.347  0.4135  0.6317  0.3060
  345MOL0     C46456   8.694   2.842   7.306 -0.1038 -0.6919 -0.0419
  345MOL0     N46457   8.824   2.844   7.369  0.2321  0.0494  0.5024
  345MOL0     C46458   8.851   2.796   7.495  0.4760 -0.2543  0.8164
  345MOL0     C46459   8.980   2.828   7.511  0.5933  0.1743 -0.8728
  345MOL0     C46460   9.047   2.787   7.634 -0.6667 -0.4466  0.5758
  345MOL0     C46461   9.033   2.912   7.728 -0.6611  0.9845  0.4789
  345MOL0     C46462   9.110   2.899   7.857 -0.0330 -0.4450  0.6977
  345MOL0     C46463   9.095   3.026   7.936  0.1164 -0.6512 -0.6151
  345MOL0     O46464   9.180   3.029   8.052  0.5720  0.7113  0.0950
  345MOL0     C46465   9.174   3.147   8.116 -0.0966 -0.2923  0.8943
  345MOL0     C46466   9.284   3.217   8.148  0.9326 -0.2922 -0.5783
  345MOL0     C46467   9.281   3.337   8.211 -0.3958 -0.9416  0.7475
  345MOL0     C46468   9.164   3.396   8.250  0.1524 -0.9703  0.9165
  345MOL0     C46469   9.165   3.532   8.300  0.3102  0.0224 -0.0019
  345MOL0     O46470   9.037   3.587   8.309  0.1704  0.3944 -0.2309
  345MOL0     C46471   9.028   3.708   8.351  0.0814  0.0950  0.4237
  345MOL0     C46472   8.988   3.809   8.254 -0.2982  1.6199 -0.7160
  345MOL0     C46473   9.006   3.949   8.298 -0.0755  0.1638  0.5681
  345MOL0     C46474   9.050   3.983   8.426 -0.3952 -0.3289 -0.5890
  345MOL0     O46475   9.052   4.110   8.465 -0.3978  0.0326  0.3354
  345MOL0     C46476   9.130   4.156   8.575  0.0672 -0.7867 -0.2221
  345MOL0     C46477   9.167   4.300   8.565 -0.0150 -0.5109  0.7613
  345MOL0     C46478   9.268   4.312   8.450  0.6800 -0.1973  0.2338
  345MOL0     C46479   9.318   4.454   8.451 -0.0189  0.2417  0.1753
  345MOL0     C46480   9.438   4.454   8.350  0.8906  0.5956 -0.9514
  345MOL0     C46481   9.485   4.600   8.334 -0.0629  0.4238  0.8536
  345MOL0     C46482   9.638   4.619   8.367 -0.6023  0.6504 -1.0643
  345MOL0     C46483   9.666   4.637   8.514 -0.5051  0.4187 -1.4946
  345MOL0    Cl46484   9.842   4.627   8.563  0.2731  0.2372 -0.2147
  345MOL0     C46485   9.078   3.881   8.520 -0.0030 -1.1533  0.8230
  345MOL0     C46486   9.065   3.748   8.475  0.5149 -0.1635  0.5995
  345MOL0     O46487   9.267   3.599   8.320 -0.1805 -0.5749  0.4462
  345MOL0     C46488   9.044   3.318   8.233 -0.1181  0.0991  0.4875
  345MOL0     C46489   9.050   3.189   8.167 -0.5471 -0.0317 -0.3641
  345MOL0     N46490   9.026   2.909   7.409 -0.0096  0.4787 -0.3440
  345MOL0     N46491   8.938   2.907   7.319  0.2544  0.3834 -0.1119
  345MOL0     C46492   7.849   3.597   7.413 -0.8383  0.0077  0.1063
  345MOL0     C46493   7.787   3.704   7.350 -0.2256  0.2884 -0.3319
  345MOL0     C46494   7.535   3.958   7.060  0.3282 -0.2973  0.7292
  345MOL0     C46495   7.559   4.062   7.152 -0.0828 -0.5173  0.2090
  345MOL0     C46496   7.487   4.188   7.151  0.6664  0.8077 -0.9907
  345MOL0     C46497   7.397   4.211   7.055  0.6811  0.1870  0.4657
  345MOL0     O46498   7.311   4.324   7.043 -0.3629 -0.5118  0.5431
  345MOL0     C46499   7.301   4.411   7.152 -0.4279  0.5339  0.5707
  345MOL0     C46500   7.197   4.520   7.126  0.5228 -0.2998 -0.5803
  345MOL0     C46501   7.242   4.624   7.022  0.7622  0.3958 -0.0079
  345MOL0     C46502   7.343   4.729   7.067  0.1662 -0.4737  0.4387
  345MOL0     C46503   7.294   4.823   7.171  0.6252 -0.3189  0.3686
  345MOL0     C46504   7.255   4.907   7.243  0.1094  0.0678 -0.1181
  345MOL0     C46505   7.361   4.109   6.965 -0.3015 -0.9703 -0.0959
  345MOL0     C46506   7.438   3.987   6.963  0.1731 -0.0824  0.1572
  345MOL0     C46507   7.404   3.894   6.852 -0.0729  0.1801  0.0444
  345MOL0     H46508   7.676   3.558   7.078 -3.6805  0.8860  1.4343
  345MOL0     H46509   7.752   3.362   7.187 -1.1812  0.0476 -2.0742
  345MOL0     H46510   8.091   3.437   7.461 -0.9794  2.4308  1.5773
  345MOL0     H46511   7.978   3.411   7.591  1.3618 -0.4481  0.4289
  345MOL0     H46512   7.997   3.156   7.545 -1.3503  1.4433  1.0061
  345MOL0     H46513   8.133   3.226   7.622 -0.7624  1.2116  0.6681
  345MOL0     H46514   8.227   3.254   7.367  0.6432 -0.5505 -1.5180
  345MOL0     H46515   8.108   3.133   7.324 -1.0301  0.9447 -0.3304
  345MOL0     H46516   8.295   3.100   7.552 -2.1429  0.2644  1.0293
  345MOL0     H46517   8.208   2.975   7.447 -0.4780 -0.2796  2.0838
  345MOL0     H46518   8.350   3.059   7.262 -0.3033  0.4974 -0.8428
  345MOL0     H46519   8.454   3.151   7.360 -1.7866 -0.2083 -0.2742
  345MOL0     H46520   8.475   2.927   7.507  0.4200 -1.2186 -0.9307
  345MOL0     H46521   8.444   2.857   7.354 -1.2182 -0.3152  1.9667
  345MOL0     H46522   8.680   3.044   7.411 -1.3353 -0.1156  2.8200
  345MOL0     H46523   8.605   3.029   7.252 -2.8247 -1.9064 -0.6659
  345MOL0     H46524   8.639   2.758   7.349 -1.3006  0.0940  0.0071
  345MOL0     H46525   8.706   2.821   7.200  1.3032  1.0265 -0.2694
  345MOL0     H46526   8.773   2.752   7.556 -3.0657  2.2162 -1.5034
  345MOL0     H46527   8.998   2.700   7.679 -0.7459 -0.8226 -0.2366
  345MOL0     H46528   9.151   2.760   7.616 -0.6974  0.0304 -0.3731
  345MOL0     H46529   9.075   2.999   7.677  0.1108  0.6380  0.5105
  345MOL0     H46530   8.930   2.940   7.753 -0.5838  0.1479  1.8482
  345MOL0     H46531   9.217   2.883   7.841 -0.4032 -0.5031 -2.3279
  345MOL0     H46532   9.071   2.813   7.911 -0.8113 -0.1329  0.6387
  345MOL0     H46533   8.990   3.050   7.956  0.1689 -0.2087 -0.8478
  345MOL0     H46534   9.132   3.113   7.881  1.7227 -1.4336 -0.8418
  345MOL0     H46535   9.381   3.172   8.128  1.2465 -0.4569  1.1100
  345MOL0     H46536   9.381   3.380   8.215  0.6749 -3.0913 -0.8300
  345MOL0     H46537   8.974   3.791   8.148  0.9120  0.6339 -0.7334
  345MOL0     H46538   8.982   4.029   8.228 -1.7748 -3.1711 -3.0786
  345MOL0     H46539   9.069   4.146   8.665 -0.7051  1.2553 -0.4407
  345MOL0     H46540   9.224   4.104   8.592 -0.4707 -1.3180  1.2398
  345MOL0     H46541   9.079   4.361   8.541  2.9993  3.9629 -0.3629
  345MOL0     H46542   9.219   4.337   8.654 -0.2748  1.4515  0.1557
  345MOL0     H46543   9.353   4.245   8.467  0.5733 -0.4743 -0.3116
  345MOL0     H46544   9.223   4.301   8.351  0.7264 -1.7646  0.3572
  345MOL0     H46545   9.352   4.485   8.550  0.7505 -4.0968  1.4852
  345MOL0     H46546   9.246   4.528   8.415  0.3751  2.4219  3.4587
  345MOL0     H46547   9.394   4.434   8.251  1.9926  3.0652 -2.0099
  345MOL0     H46548   9.519   4.382   8.365  0.6293  0.4134 -0.3965
  345MOL0     H46549   9.464   4.632   8.231  1.9416 -1.6421 -0.3025
  345MOL0     H46550   9.425   4.669   8.394 -3.3657 -1.0879 -0.4391
  345MOL0     H46551   9.665   4.704   8.304 -2.4377 -0.5780 -3.6921
  345MOL0     H46552   9.692   4.533   8.327 -1.7805 -0.2470 -0.7706
  345MOL0     H46553   9.624   4.733   8.546  1.2617  1.6901 -2.7920
  345MOL0     H46554   9.610   4.563   8.571 -2.6045  0.3500 -3.5165
  345MOL0     H46555   9.106   3.893   8.624 -0.8961  1.2632  0.8639
  345MOL0     H46556   9.102   3.668   8.538  3.1824 -2.5829 -3.5502
  345MOL0     H46557   8.947   3.362   8.253  0.6580  1.6475  1.0314
  345MOL0     H46558   8.961   3.131   8.149  0.0908 -0.6576 -1.6217
  345MOL0     H46559   7.909   3.613   7.502  1.2684 -2.6652 -0.6725
  345MOL0     H46560   7.789   3.800   7.401  0.4791 -0.1504  0.4951
  345MOL0     H46561   7.628   4.042   7.233  3.3875 -0.4636 -2.4828
  345MOL0     H46562   7.501   4.253   7.237 -0.7106  1.0162 -0.9143
  345MOL0     H46563   7.399   4.461   7.155 -1.7530  3.2549  2.1241
  345MOL0     H46564   7.269   4.361   7.243  4.9882  0.9414  3.0916
  345MOL0     H46565   7.187   4.567   7.224  0.9426 -0.3292 -0.5234
  345MOL0     H46566   7.097   4.485   7.101 -0.3162  2.3834 -1.3923
  345MOL0     H46567   7.154   4.688   7.009  0.0321 -0.6254 -0.1724
  345MOL0     H46568   7.280   4.586   6.927  0.2121  2.0519 -0.9416
  345MOL0     H46569   7.439   4.685   7.095  1.2072  1.2626 -0.2569
  345MOL0     H46570   7.354   4.794   6.980 -0.8167 -0.5343  0.2610
  345MOL0     H46571   7.232   4.983   7.314 -0.5678  0.7787 -1.0849
  345MOL0     H46572   7.294   4.130   6.882  1.5307 -1.1543 -1.7130
  345MOL0     H46573   7.488   3.887   6.782  1.0229  2.2227  1.0754
  345MOL0     H46574   7.372   3.800   6.898 -4.3275  1.8461  0.9453
  345MOL0     H46575   7.321   3.939   6.795  1.7209  3.2418 -0.3825
  346MOL0     O46576   8.241   0.343   1.051  0.2314  0.2359  0.3233
  346MOL0     C46577   8.210   0.370   1.165 -0.4437  0.3499 -0.0072
  346MOL0     O46578   8.261   0.314   1.279 -0.2600  0.0905 -0.3721
  346MOL0     C46579   8.366   0.222   1.260  0.1779  0.7711  0.4129
  346MOL0     C46580   8.371   0.101   1.180  0.4099  0.3551  0.0523
  346MOL0     C46581   8.483   0.024   1.162 -0.7498  0.0999 -0.0437
  346MOL0     C46582   8.603   0.057   1.223 -0.3344  1.3082  0.5208
  346MOL0     O46583   8.700  -0.038   1.208 -0.3139  0.9673  0.0538
  346MOL0     C46584   8.835   0.013   1.213 -0.0771 -0.0221 -0.7505
  346MOL0     C46585   8.931  -0.097   1.180 -0.1735  0.6035  0.0755
  346MOL0     C46586   9.072  -0.056   1.204  0.3740  0.0757 -0.7945
  346MOL0     C46587   9.138  -0.008   1.068  0.5108  0.1718  0.0917
  346MOL0     C46588   9.260   0.086   1.080  0.1725  0.7671  0.6333
  346MOL0     C46589   9.211   0.224   1.118 -0.6615 -0.0493  0.4328
  346MOL0     C46590   9.108   0.289   1.019  1.2800  0.2944 -0.0352
  346MOL0     C46591   9.071   0.431   1.047 -0.1380 -0.8378 -0.6791
  346MOL0     N46592   9.025   0.445   1.187 -0.1521 -0.2482 -0.5017
  346MOL0     C46593   9.076   0.523   1.289  0.4033 -0.0928  0.0521
  346MOL0     C46594   8.991   0.506   1.393 -0.2927  0.1027  0.3498
  346MOL0     C46595   9.020   0.572   1.521 -0.5864 -1.2919 -0.1050
  346MOL0     C46596   9.104   0.481   1.615  0.2980 -0.0844  0.1299
  346MOL0     C46597   9.111   0.537   1.762  0.3465  0.6025  0.1266
  346MOL0     C46598   9.209   0.652   1.775  0.3882 -0.4713 -0.9112
  346MOL0     O46599   9.339   0.596   1.777  0.2140  0.2688  0.5113
  346MOL0     C46600   9.444   0.661   1.829  0.1168  0.3829  0.1976
  346MOL0     C46601   9.571   0.600   1.814 -1.0187 -0.4575  0.5530
  346MOL0     C46602   9.684   0.658   1.861 -0.1566 -0.5875  0.8356
  346MOL0     C46603   9.686   0.788   1.914 -1.1666 -0.4598  0.4757
  346MOL0     C46604   9.811   0.852   1.962 -0.7086 -0.5941  0.8168
  346MOL0     O46605   9.789   0.976   2.027  0.6255  0.4040 -0.3425
  346MOL0     C46606   9.898   1.020   2.092 -0.2313 -0.0060 -0.8023
  346MOL0     C46607   9.986   1.120   2.035 -0.0499  0.1619  0.0598
  346MOL0     C46608  10.098   1.164   2.108 -0.4266  0.7612 -0.5241
  346MOL0     C46609  10.124   1.110   2.240 -0.3047  0.0501 -0.2385
  346MOL0     O46610  10.226   1.157   2.311 -0.4566  0.3518 -0.1144
  346MOL0     C46611  10.261   1.293   2.307 -0.4831  0.4905 -0.3400
  346MOL0     C46612  10.360   1.318   2.423  0.7090  0.3181  0.7228
  346MOL0     C46613  10.423   1.462   2.422 -0.6299 -0.0704  0.3728
  346MOL0     C46614  10.502   1.498   2.553  0.2247  1.2989  0.2202
  346MOL0     C46615  10.558   1.635   2.568  0.4274 -0.5838 -0.9357
  346MOL0     C46616  10.451   1.746   2.570  0.5998 -0.4560  1.2229
  346MOL0     C46617  10.326   1.720   2.655 -0.2629 -0.2694 -0.0287
  346MOL0     C46618  10.255   1.852   2.687  0.4151 -0.4644  0.1411
  346MOL0    Cl46619  10.221   1.945   2.537  0.1017  0.2323  0.2799
  346MOL0     C46620  10.033   1.027   2.298  0.0797  0.6942 -0.4210
  346MOL0     C46621   9.925   0.973   2.226 -0.3338 -1.3046  0.2353
  346MOL0     O46622   9.915   0.793   1.939  1.2926  0.4937  0.5404
  346MOL0     C46623   9.557   0.853   1.926 -0.2323  0.5250 -0.1392
  346MOL0     C46624   9.438   0.788   1.881 -0.7365 -0.5708  0.3207
  346MOL0     N46625   8.886   0.420   1.355  0.1047 -0.2596  0.2072
  346MOL0     N46626   8.906   0.391   1.232  0.1271  0.1479 -1.0543
  346MOL0     C46627   8.599   0.169   1.315  0.5432  0.2070 -0.0431
  346MOL0     C46628   8.484   0.249   1.324  0.2182  0.7411 -0.8224
  346MOL0     C46629   8.126   0.489   1.201 -0.3379  0.4926 -0.0685
  346MOL0     C46630   8.081   0.498   1.333  0.7709  0.4328 -0.2664
  346MOL0     C46631   7.994   0.604   1.379  0.0512 -0.6217  0.0376
  346MOL0     C46632   7.961   0.709   1.294 -0.9007  0.0577  0.7858
  346MOL0     O46633   7.886   0.820   1.325  1.2943 -0.7311 -0.2398
  346MOL0     C46634   7.831   0.835   1.456  0.1097 -0.2542 -0.6456
  346MOL0     C46635   7.698   0.748   1.455 -0.2035  0.2289  0.1134
  346MOL0     C46636   7.631   0.741   1.587  1.0433  0.1713 -1.5007
  346MOL0     C46637   7.538   0.866   1.605  0.1009 -0.3118 -0.0834
  346MOL0     C46638   7.416   0.856   1.516  0.3878  0.0497 -0.0716
  346MOL0     C46639   7.319   0.867   1.448  0.5232  0.3947  0.2752
  346MOL0     C46640   8.020   0.701   1.162 -0.0916  0.5137 -0.2264
  346MOL0     C46641   8.096   0.595   1.113  0.1799  0.8410  0.5351
  346MOL0     C46642   8.122   0.601   0.962  0.1674 -0.1547  0.2865
  346MOL0     H46643   8.287   0.076   1.117 -0.2627  1.3889  0.5073
  346MOL0     H46644   8.483  -0.058   1.092  4.3056 -1.0267  0.8854
  346MOL0     H46645   8.843   0.105   1.155  0.5662  1.3073  1.3358
  346MOL0     H46646   8.861   0.044   1.315  0.4355  0.3117 -0.9791
  346MOL0     H46647   8.910  -0.136   1.080 -2.4962 -4.3084  2.1463
  346MOL0     H46648   8.905  -0.179   1.248  0.8059  0.2286  0.0116
  346MOL0     H46649   9.139  -0.136   1.236  1.8848  1.6779  0.2409
  346MOL0     H46650   9.082   0.021   1.281  1.4839 -1.1788  0.3639
  346MOL0     H46651   9.158  -0.101   1.013 -1.0656 -0.6950  0.8956
  346MOL0     H46652   9.057   0.030   1.005 -0.2189 -1.2269  0.1263
  346MOL0     H46653   9.324   0.048   1.160 -0.4016 -0.7865  0.3760
  346MOL0     H46654   9.314   0.089   0.985 -1.7408 -0.0361 -0.5218
  346MOL0     H46655   9.164   0.231   1.217 -1.9015 -0.9287 -0.0703
  346MOL0     H46656   9.301   0.287   1.118 -1.0071  0.5679  2.8276
  346MOL0     H46657   9.018   0.227   1.023  1.9046 -0.5873  0.9170
  346MOL0     H46658   9.127   0.288   0.911 -3.3417 -1.1910 -1.0546
  346MOL0     H46659   9.156   0.500   1.044 -0.5921 -0.2025  0.4479
  346MOL0     H46660   8.984   0.454   0.986 -0.3772 -2.5024 -1.0262
  346MOL0     H46661   9.160   0.592   1.291 -0.6298  1.3197 -1.5599
  346MOL0     H46662   9.065   0.671   1.505  0.1188 -2.0107 -3.3231
  346MOL0     H46663   8.922   0.590   1.566  1.1706 -0.1807  3.6409
  346MOL0     H46664   9.054   0.384   1.616 -0.3647  0.2357 -0.6064
  346MOL0     H46665   9.202   0.454   1.574  0.7142 -1.3805  1.8605
  346MOL0     H46666   9.137   0.460   1.835 -2.7809 -1.7356 -0.9906
  346MOL0     H46667   9.010   0.568   1.792  0.6506  0.7263  1.0449
  346MOL0     H46668   9.198   0.705   1.870  2.1732  0.7778 -1.3274
  346MOL0     H46669   9.205   0.733   1.702 -1.6529 -0.3161 -0.6800
  346MOL0     H46670   9.579   0.498   1.778  0.8392  0.0704 -0.6654
  346MOL0     H46671   9.784   0.614   1.855  0.3712  0.7969 -2.3453
  346MOL0     H46672   9.957   1.168   1.942 -1.0685 -1.8944 -0.7629
  346MOL0     H46673  10.166   1.241   2.075  0.4156  2.3758  4.2056
  346MOL0     H46674  10.311   1.310   2.211 -1.6077 -1.5125 -1.3461
  346MOL0     H46675  10.171   1.353   2.324  0.6463  2.3755 -0.7631
  346MOL0     H46676  10.302   1.298   2.513  1.2662 -1.7547  0.6637
  346MOL0     H46677  10.438   1.242   2.412 -0.0535 -0.3208 -0.4841
  346MOL0     H46678  10.496   1.475   2.341 -1.3204 -2.8835 -0.8375
  346MOL0     H46679  10.333   1.524   2.417 -0.3858  0.3173  0.8049
  346MOL0     H46680  10.590   1.433   2.563 -0.8730 -0.2085  0.3992
  346MOL0     H46681  10.438   1.483   2.639 -0.7378  3.0389 -0.1528
  346MOL0     H46682  10.639   1.652   2.496  0.7344 -0.7978 -0.6419
  346MOL0     H46683  10.604   1.632   2.667 -1.3915 -0.7830 -0.0372
  346MOL0     H46684  10.494   1.845   2.589  3.0568  0.0024 -4.6146
  346MOL0     H46685  10.419   1.752   2.466  2.5964 -1.9965  0.4646
  346MOL0     H46686  10.353   1.687   2.756 -4.2346  1.7489  1.9295
  346MOL0     H46687  10.262   1.645   2.608 -0.0127  1.4344 -3.4321
  346MOL0     H46688  10.161   1.821   2.733  0.3241  2.2488  2.0207
  346MOL0     H46689  10.301   1.910   2.767  1.1128 -1.5732  0.5823
  346MOL0     H46690  10.042   0.993   2.400 -0.6986 -2.7137 -1.3589
  346MOL0     H46691   9.872   0.898   2.283 -0.3847 -1.3772  0.0904
  346MOL0     H46692   9.533   0.943   1.981  0.5564 -0.3600  1.7108
  346MOL0     H46693   9.345   0.843   1.890 -0.5889 -0.2160 -0.2796
  346MOL0     H46694   8.687   0.193   1.374  0.4117  0.4286  0.0624
  346MOL0     H46695   8.494   0.339   1.384  2.0605  0.2928 -0.3933
  346MOL0     H46696   8.097   0.429   1.415 -2.1345 -1.5477 -1.2064
  346MOL0     H46697   7.953   0.608   1.479 -1.4117  1.1483 -0.5801
  346MOL0     H46698   7.806   0.940   1.478 -1.4533 -0.8377  0.5454
  346MOL0     H46699   7.903   0.815   1.537  1.0078  2.4584 -0.6515
  346MOL0     H46700   7.722   0.643   1.436 -0.0231  0.0477  1.2583
  346MOL0     H46701   7.619   0.777   1.385  0.4648  0.6721 -0.4694
  346MOL0     H46702   7.698   0.722   1.671  0.9146  0.1742 -1.3977
  346MOL0     H46703   7.560   0.659   1.576  1.2366 -0.1114 -0.6678
  346MOL0     H46704   7.508   0.868   1.710 -0.5683 -1.0314 -0.2513
  346MOL0     H46705   7.594   0.957   1.579 -0.5211  0.1818  0.2635
  346MOL0     H46706   7.233   0.910   1.401  1.3358  0.0344 -1.6509
  346MOL0     H46707   7.989   0.781   1.095  1.3752  1.7629  0.5374
  346MOL0     H46708   8.225   0.633   0.945  0.8093 -1.9484  0.5775
  346MOL0     H46709   8.107   0.514   0.897  3.0339 -0.3070 -0.2885
  346MOL0     H46710   8.065   0.679   0.910  0.1563  0.4534  1.1922
  347MOL0     O46711   8.402   2.827   7.787  0.5411 -0.3191 -0.4907
  347MOL0     C46712   8.305   2.772   7.743  0.1009 -0.0474 -0.1149
  347MOL0     O46713   8.310   2.656   7.675  0.0392 -0.6189  0.1961
  347MOL0     C46714   8.426   2.606   7.632  0.0216 -0.0804  0.2979
  347MOL0     C46715   8.533   2.566   7.713  0.2974  0.4441 -0.0956
  347MOL0     C46716   8.646   2.501   7.656 -0.4838 -0.4821  0.1255
  347MOL0     C46717   8.655   2.486   7.521 -0.2450  0.5566  0.1965
  347MOL0     O46718   8.771   2.422   7.475  0.0645  0.5764 -0.7901
  347MOL0     C46719   8.791   2.435   7.333  1.0821  0.8291  0.2698
  347MOL0     C46720   8.935   2.401   7.309 -0.0056 -0.3216  0.3752
  347MOL0     C46721   9.031   2.513   7.345 -0.2083  0.5710  0.1502
  347MOL0     C46722   9.179   2.472   7.376 -0.5033 -0.2514  0.3029
  347MOL0     C46723   9.246   2.395   7.268  0.1569 -0.0877  0.0647
  347MOL0     C46724   9.400   2.422   7.283 -0.4061 -0.3466  0.6563
  347MOL0     C46725   9.477   2.356   7.180 -0.2511  0.3216  0.5730
  347MOL0     C46726   9.622   2.380   7.196  0.7115  0.6330  0.5384
  347MOL0     N46727   9.694   2.293   7.099  0.3415 -0.3442  0.0228
  347MOL0     C46728   9.796   2.200   7.129 -0.0722 -0.2229  1.3190
  347MOL0     C46729   9.843   2.167   7.007  0.0419  1.3193 -0.0820
  347MOL0     C46730   9.950   2.070   6.981 -0.9312  0.0704  0.6269
  347MOL0     C46731  10.022   2.103   6.848 -0.0433  0.7726 -0.5193
  347MOL0     C46732  10.139   2.194   6.864  0.5845 -0.8445 -0.3471
  347MOL0     C46733  10.184   2.243   6.723  0.0363  0.4262 -0.4892
  347MOL0     O46734  10.265   2.368   6.738  0.0181  0.3384  0.3254
  347MOL0     C46735  10.387   2.367   6.677  0.0213  0.3960 -0.0537
  347MOL0     C46736  10.493   2.404   6.748 -0.6590 -0.6340  0.4297
  347MOL0     C46737  10.615   2.423   6.689 -0.6333  0.3569 -0.4380
  347MOL0     C46738  10.637   2.381   6.559  0.0984 -0.1909  0.3980
  347MOL0     C46739  10.770   2.383   6.498 -0.4659 -0.5975 -0.4067
  347MOL0     O46740  10.868   2.445   6.582  0.3005  0.3103  0.2760
  347MOL0     C46741  10.995   2.464   6.520  0.2704 -0.1276  0.1132
  347MOL0     C46742  11.027   2.500   6.386 -0.0575 -1.0729  0.2312
  347MOL0     C46743  11.158   2.515   6.341  0.1177  0.3249  0.4886
  347MOL0     C46744  11.268   2.500   6.428 -0.3115 -0.5661  0.4535
  347MOL0     O46745  11.398   2.524   6.384 -0.1468 -0.4503  0.3534
  347MOL0     C46746  11.503   2.516   6.473 -0.8538 -0.1661  0.3663
  347MOL0     C46747  11.631   2.544   6.393  0.1487  0.5136  0.1146
  347MOL0     C46748  11.769   2.544   6.463 -1.0303 -0.2245 -0.6456
  347MOL0     C46749  11.800   2.422   6.553  0.0801 -0.0631 -0.0744
  347MOL0     C46750  11.794   2.287   6.479 -0.3320  0.3647 -0.0493
  347MOL0     C46751  11.914   2.269   6.383 -0.2385  0.3266 -0.3529
  347MOL0     C46752  12.039   2.192   6.434 -0.0748  0.7294 -0.3803
  347MOL0     C46753  12.113   2.258   6.542  0.0157 -0.3666  0.3134
  347MOL0    Cl46754  12.252   2.164   6.582  0.1537  0.1857  0.1478
  347MOL0     C46755  11.237   2.448   6.560  0.8023 -0.0457  0.3650
  347MOL0     C46756  11.104   2.434   6.609 -0.1330  0.3683  0.2775
  347MOL0     O46757  10.794   2.337   6.387  0.3696  0.1089 -0.1773
  347MOL0     C46758  10.534   2.330   6.488  0.5237 -0.1638 -0.9856
  347MOL0     C46759  10.401   2.321   6.548  0.7293 -0.9359 -0.2542
  347MOL0     N46760   9.774   2.233   6.912 -0.6672  0.2417 -0.9054
  347MOL0     N46761   9.688   2.316   6.962 -0.7077  0.3177 -0.3395
  347MOL0     C46762   8.545   2.517   7.433 -0.2942 -0.9827 -0.0089
  347MOL0     C46763   8.428   2.570   7.494 -0.5599  0.2468  0.5646
  347MOL0     C46764   8.171   2.843   7.746  0.5658  0.1010  1.8467
  347MOL0     C46765   8.084   2.832   7.636  0.4208  0.4798 -1.1104
  347MOL0     C46766   7.960   2.900   7.641 -0.7482 -0.7037 -0.3620
  347MOL0     C46767   7.933   2.991   7.745  0.0092 -0.1990 -0.1769
  347MOL0     O46768   7.812   3.063   7.727 -0.4668 -0.0216 -0.2382
  347MOL0     C46769   7.791   3.171   7.832  0.0435  0.0789  0.2890
  347MOL0     C46770   7.662   3.254   7.812  0.1219  0.2080 -0.1609
  347MOL0     C46771   7.544   3.163   7.850 -0.0043  0.2757 -0.4746
  347MOL0     C46772   7.411   3.240   7.856 -0.5890  0.0430 -0.0337
  347MOL0     C46773   7.311   3.163   7.931 -1.0642 -0.6605  0.3154
  347MOL0     C46774   7.232   3.120   8.011  0.4548 -0.7600  0.4830
  347MOL0     C46775   8.022   3.004   7.850 -0.2530 -0.3017 -0.2363
  347MOL0     C46776   8.149   2.938   7.844  0.5835  0.6073  0.4177
  347MOL0     C46777   8.219   2.948   7.970 -1.0085  0.6926  0.7306
  347MOL0     H46778   8.538   2.592   7.818  1.1556 -2.2326  0.6156
  347MOL0     H46779   8.735   2.477   7.714  3.4015  1.6212 -4.3636
  347MOL0     H46780   8.724   2.374   7.272  0.9418  1.4889 -0.2452
  347MOL0     H46781   8.784   2.538   7.300  1.1924  0.9897  0.7346
  347MOL0     H46782   8.952   2.375   7.204 -1.7825 -0.7516  0.1682
  347MOL0     H46783   8.960   2.313   7.368  1.1722 -0.0041  0.3837
  347MOL0     H46784   9.000   2.550   7.443  0.1818  0.1144  0.4509
  347MOL0     H46785   9.025   2.592   7.269 -0.3232 -0.4670 -0.9449
  347MOL0     H46786   9.230   2.569   7.375 -0.4442 -0.2837 -0.7271
  347MOL0     H46787   9.189   2.430   7.477  0.3374 -1.6765 -0.3413
  347MOL0     H46788   9.228   2.287   7.280  4.3254 -0.6727  3.2111
  347MOL0     H46789   9.200   2.416   7.171 -0.3109 -1.3307 -0.0018
  347MOL0     H46790   9.412   2.530   7.266 -2.9403 -0.2725 -1.3150
  347MOL0     H46791   9.437   2.397   7.383  2.6472 -1.4414 -0.6562
  347MOL0     H46792   9.441   2.390   7.083 -1.6144  3.0512  1.9043
  347MOL0     H46793   9.458   2.249   7.185 -1.5785  0.5549  0.7493
  347MOL0     H46794   9.650   2.486   7.186 -1.4604  1.3782  1.7233
  347MOL0     H46795   9.648   2.356   7.299  2.1506  4.8991  1.3767
  347MOL0     H46796   9.824   2.163   7.226  0.1533 -1.0557  0.9416
  347MOL0     H46797  10.015   2.037   7.063 -0.0360 -1.5414 -0.6767
  347MOL0     H46798   9.897   1.981   6.946 -2.4783  1.1247  0.2277
  347MOL0     H46799  10.058   2.013   6.798 -1.6944  0.2870 -0.9138
  347MOL0     H46800   9.950   2.133   6.771  1.2160  1.7122 -1.3623
  347MOL0     H46801  10.224   2.155   6.921  0.3218  1.9080  2.1863
  347MOL0     H46802  10.114   2.278   6.929 -0.5043 -0.9216 -0.6474
  347MOL0     H46803  10.095   2.268   6.665 -1.9305  1.1299  2.6161
  347MOL0     H46804  10.241   2.165   6.673  1.0123 -1.0654  2.6707
  347MOL0     H46805  10.481   2.429   6.853  0.3710  0.3259  0.3419
  347MOL0     H46806  10.701   2.454   6.746  0.3257 -2.1372 -0.4041
  347MOL0     H46807  10.942   2.528   6.325  0.4096  3.8503  1.4710
  347MOL0     H46808  11.164   2.549   6.238 -4.5265  0.2347 -0.0089
  347MOL0     H46809  11.488   2.584   6.557 -1.5984  0.5323 -0.3156
  347MOL0     H46810  11.508   2.412   6.506  0.9025 -1.1628 -2.6743
  347MOL0     H46811  11.643   2.459   6.325  0.6058 -1.6043  2.6436
  347MOL0     H46812  11.614   2.641   6.346 -1.7793 -0.1445 -0.6347
  347MOL0     H46813  11.849   2.552   6.389  0.7038  1.0127  1.2724
  347MOL0     H46814  11.772   2.639   6.517 -0.6828 -0.1718 -0.7521
  347MOL0     H46815  11.724   2.424   6.632  0.7979  2.9676  0.6607
  347MOL0     H46816  11.897   2.432   6.603  1.1679 -1.7905 -1.6906
  347MOL0     H46817  11.706   2.288   6.415  1.2341  0.4102 -2.3117
  347MOL0     H46818  11.794   2.212   6.558  1.9315  1.1185  0.7720
  347MOL0     H46819  11.888   2.222   6.288  1.9333  1.5087 -1.6204
  347MOL0     H46820  11.947   2.371   6.361 -1.0608  1.3366  2.6086
  347MOL0     H46821  12.109   2.178   6.352 -1.5077 -1.3334 -1.3522
  347MOL0     H46822  12.017   2.088   6.458  4.2258 -0.9779 -2.7048
  347MOL0     H46823  12.145   2.359   6.514  1.1929 -0.8800 -0.2497
  347MOL0     H46824  12.062   2.273   6.638  3.2979 -0.3356  2.1841
  347MOL0     H46825  11.317   2.442   6.633 -0.5960 -2.4362  1.8150
  347MOL0     H46826  11.089   2.418   6.716  3.4602 -0.9566  0.7342
  347MOL0     H46827  10.551   2.304   6.384 -1.0963  2.2287 -1.9427
  347MOL0     H46828  10.320   2.298   6.479 -0.4384 -0.9333  1.0823
  347MOL0     H46829   8.557   2.510   7.325 -0.0956 -0.1569 -0.0466
  347MOL0     H46830   8.342   2.604   7.437  2.0860  1.0301 -3.4112
  347MOL0     H46831   8.091   2.755   7.559 -3.1604 -0.4377 -0.6584
  347MOL0     H46832   7.889   2.878   7.563 -0.3738  0.3895 -1.0300
  347MOL0     H46833   7.875   3.242   7.828  1.7819 -1.8574  0.9865
  347MOL0     H46834   7.797   3.127   7.931 -1.3983 -1.9543 -0.4687
  347MOL0     H46835   7.648   3.292   7.711 -2.1685  0.1056  0.0629
  347MOL0     H46836   7.663   3.331   7.890  4.2419 -1.7266  1.9913
  347MOL0     H46837   7.571   3.108   7.941  1.2818 -1.3039 -1.7654
  347MOL0     H46838   7.537   3.081   7.779 -1.0853 -2.3515  2.4033
  347MOL0     H46839   7.418   3.341   7.898  1.5288 -0.6615  1.5244
  347MOL0     H46840   7.387   3.256   7.751 -1.4282  4.4368  0.6087
  347MOL0     H46841   7.149   3.086   8.070  1.8528 -0.5039  2.7098
  347MOL0     H46842   7.992   3.058   7.939 -1.2224  1.7214 -1.7046
  347MOL0     H46843   8.319   2.980   7.939 -0.1096 -1.2100  1.4572
  347MOL0     H46844   8.171   3.016   8.040  1.1743  3.6804 -0.4870
  347MOL0     H46845   8.239   2.849   8.013  1.6993  0.3392 -1.0869
  348MOL0     O46846   0.589   3.849   6.396  0.1615 -0.4091  0.6839
  348MOL0     C46847   0.534   3.748   6.427 -0.1935  0.2828  0.2104
  348MOL0     O46848   0.586   3.624   6.449 -0.2222 -0.2716 -0.9050
  348MOL0     C46849   0.727   3.617   6.442 -0.1899 -0.0563  0.2602
  348MOL0     C46850   0.803   3.571   6.543  0.1206  1.1748  0.0274
  348MOL0     C46851   0.935   3.545   6.529 -0.3270 -0.4319  0.3119
  348MOL0     C46852   1.002   3.570   6.405 -0.0101 -0.1424  0.0201
  348MOL0     O46853   1.136   3.561   6.405 -0.3637  0.2217  0.0203
  348MOL0     C46854   1.201   3.560   6.283 -0.3085 -0.4587  0.6805
  348MOL0     C46855   1.353   3.608   6.318  0.3389  0.1816  0.5617
  348MOL0     C46856   1.354   3.745   6.397  0.7816  0.6396  0.6145
  348MOL0     C46857   1.490   3.810   6.379  0.4043  0.0682  0.7110
  348MOL0     C46858   1.507   3.918   6.487  0.7494 -0.5198  0.2297
  348MOL0     C46859   1.638   3.999   6.474 -0.7239  0.4694 -0.3281
  348MOL0     C46860   1.771   3.915   6.510 -0.0120 -0.2310 -0.1225
  348MOL0     C46861   1.889   4.006   6.488 -0.1711  0.2899 -0.0633
  348MOL0     N46862   2.018   3.947   6.525  0.0399 -0.0321 -0.6649
  348MOL0     C46863   2.106   3.892   6.434  0.0758  0.3569 -0.2983
  348MOL0     C46864   2.183   3.815   6.509  0.0623  0.7141 -0.1705
  348MOL0     C46865   2.286   3.716   6.464  0.0597  0.4424 -0.4279
  348MOL0     C46866   2.419   3.760   6.415 -0.2257 -0.1664 -0.3163
  348MOL0     C46867   2.488   3.644   6.364 -0.1950  0.3943  0.4836
  348MOL0     C46868   2.636   3.663   6.342 -1.6932 -0.2798  0.0787
  348MOL0     O46869   2.716   3.674   6.467  0.4746  0.4213 -0.1298
  348MOL0     C46870   2.855   3.661   6.464  0.3094  0.1698  0.3084
  348MOL0     C46871   2.914   3.636   6.581  0.3003  0.5659  0.3533
  348MOL0     C46872   3.051   3.616   6.599 -0.0142  0.5604  0.3465
  348MOL0     C46873   3.137   3.645   6.493 -0.6319 -0.5135  0.2557
  348MOL0     C46874   3.281   3.657   6.508 -0.2288  0.2383 -0.6335
  348MOL0     O46875   3.356   3.642   6.400 -0.5493  0.1240  0.1502
  348MOL0     C46876   3.488   3.674   6.408 -0.0472 -0.0878 -0.4119
  348MOL0     C46877   3.575   3.604   6.484 -0.2857 -0.4762 -0.4955
  348MOL0     C46878   3.714   3.628   6.490  0.4362  0.9173 -0.4708
  348MOL0     C46879   3.773   3.734   6.422  1.2462  0.2548 -0.3500
  348MOL0     O46880   3.901   3.772   6.453 -0.3666  0.2752  0.1048
  348MOL0     C46881   3.960   3.855   6.352 -0.2478 -0.0890  0.6956
  348MOL0     C46882   4.110   3.857   6.362  0.8033  0.5513 -0.8950
  348MOL0     C46883   4.158   3.870   6.215 -0.3877 -0.9492  0.7452
  348MOL0     C46884   4.311   3.891   6.207  0.4814 -0.7538  0.7520
  348MOL0     C46885   4.365   3.955   6.080  0.0348  0.4000 -0.0056
  348MOL0     C46886   4.518   3.980   6.079 -0.6906 -0.1306 -0.3677
  348MOL0     C46887   4.562   4.066   5.956  0.4503 -0.1510  0.1054
  348MOL0     C46888   4.712   4.056   5.929  0.1421 -0.2216 -0.0735
  348MOL0    Cl46889   4.804   4.091   6.078 -0.1930 -0.2228 -0.6629
  348MOL0     C46890   3.681   3.821   6.344  0.2421 -0.4202  1.0751
  348MOL0     C46891   3.540   3.780   6.333 -0.9994  0.3198 -0.1234
  348MOL0     O46892   3.327   3.672   6.623 -0.2788 -0.1400 -0.0896
  348MOL0     C46893   3.079   3.675   6.371 -0.4889 -0.5280  0.4085
  348MOL0     C46894   2.941   3.688   6.357  0.3089  0.3850 -0.0745
  348MOL0     N46895   2.149   3.829   6.643 -0.1536  0.8817  0.0776
  348MOL0     N46896   2.049   3.910   6.654 -0.8107  0.4033  0.6384
  348MOL0     C46897   0.925   3.623   6.300 -0.1232 -0.5278 -0.5212
  348MOL0     C46898   0.789   3.636   6.326 -0.5836 -0.2176 -0.5206
  348MOL0     C46899   0.386   3.757   6.430 -0.2113  0.9421  0.0966
  348MOL0     C46900   0.319   3.646   6.380 -0.0985  0.9554  0.7134
  348MOL0     C46901   0.176   3.643   6.366  1.3616 -0.2440  0.4376
  348MOL0     C46902   0.099   3.754   6.404 -0.8539 -0.2066 -0.2445
  348MOL0     O46903  -0.038   3.767   6.395 -0.2133  0.3864 -0.8586
  348MOL0     C46904  -0.101   3.658   6.315 -0.5242  1.0630 -0.2459
  348MOL0     C46905  -0.245   3.673   6.325  1.2142  0.4128  0.1401
  348MOL0     C46906  -0.309   3.636   6.459  0.3822 -0.0875 -0.0055
  348MOL0     C46907  -0.452   3.597   6.429  0.4520  0.0334 -0.4274
  348MOL0     C46908  -0.533   3.610   6.559 -0.0273  0.4501  0.2710
  348MOL0     C46909  -0.608   3.638   6.651  0.0891  0.7461 -0.2393
  348MOL0     C46910   0.166   3.858   6.469 -0.1658  0.5438 -0.8024
  348MOL0     C46911   0.306   3.858   6.489  0.1989  0.0427  0.2006
  348MOL0     C46912   0.359   3.958   6.590  0.3304  0.3149 -0.0265
  348MOL0     H46913   0.748   3.556   6.635 -2.5126 -2.7648 -1.8933
  348MOL0     H46914   0.984   3.495   6.612  2.2235 -2.4717 -2.2231
  348MOL0     H46915   1.215   3.464   6.233  0.9440 -0.9539  1.9073
  348MOL0     H46916   1.159   3.630   6.210  0.2959 -0.5535  0.2426
  348MOL0     H46917   1.404   3.629   6.224 -1.1700  0.5368 -0.2100
  348MOL0     H46918   1.407   3.534   6.378  1.2422  1.3165  1.1872
  348MOL0     H46919   1.351   3.713   6.502  0.4237  0.4886  0.5599
  348MOL0     H46920   1.271   3.813   6.378 -0.0862 -0.2332  1.1818
  348MOL0     H46921   1.562   3.728   6.376  0.7101  0.2048 -3.9357
  348MOL0     H46922   1.484   3.860   6.281 -1.2985 -0.0272  0.7317
  348MOL0     H46923   1.418   3.982   6.490  0.1584 -1.3609  0.8609
  348MOL0     H46924   1.499   3.880   6.589 -0.5285 -1.2368 -0.1168
  348MOL0     H46925   1.651   4.038   6.372 -2.5731 -0.0392 -0.7873
  348MOL0     H46926   1.646   4.090   6.534 -2.4652 -0.5773  1.6090
  348MOL0     H46927   1.784   3.829   6.443 -1.3864 -1.1125  0.7004
  348MOL0     H46928   1.779   3.882   6.614  0.7348  0.4328  0.0386
  348MOL0     H46929   1.887   4.031   6.381 -3.7910 -1.7644 -0.6267
  348MOL0     H46930   1.876   4.092   6.553  1.8611  0.7910 -0.2381
  348MOL0     H46931   2.107   3.905   6.327  2.4676  2.0550 -0.1292
  348MOL0     H46932   2.307   3.646   6.545  0.8903  1.4674  0.2728
  348MOL0     H46933   2.237   3.664   6.381  0.5648 -1.3189  0.3258
  348MOL0     H46934   2.403   3.840   6.343  0.1499  1.2885  1.1634
  348MOL0     H46935   2.471   3.802   6.502  0.1478  4.6916 -2.5848
  348MOL0     H46936   2.450   3.633   6.262  0.9955 -1.6987  0.2125
  348MOL0     H46937   2.484   3.549   6.419  0.5220  0.4951  0.7277
  348MOL0     H46938   2.662   3.755   6.290  0.4391  0.6751  2.5857
  348MOL0     H46939   2.665   3.570   6.292 -2.7362 -1.8093  2.1548
  348MOL0     H46940   2.853   3.631   6.671 -1.0851  0.8625 -0.5352
  348MOL0     H46941   3.093   3.582   6.693 -0.4591 -1.3221 -0.0982
  348MOL0     H46942   3.537   3.523   6.545  1.5231 -0.1636  1.1704
  348MOL0     H46943   3.778   3.566   6.552 -3.0133 -3.6656 -0.9763
  348MOL0     H46944   3.927   3.809   6.258  1.2711 -2.3744  1.2170
  348MOL0     H46945   3.931   3.960   6.359 -1.4160 -0.4967  3.4760
  348MOL0     H46946   4.133   3.951   6.413 -1.2138  0.6291 -0.0555
  348MOL0     H46947   4.155   3.767   6.406 -0.2092  0.3182 -0.3030
  348MOL0     H46948   4.142   3.778   6.159 -1.1846 -0.8229  0.7537
  348MOL0     H46949   4.098   3.950   6.172  0.9709  0.9285  2.1705
  348MOL0     H46950   4.362   3.795   6.224 -0.9475 -1.3380  2.0323
  348MOL0     H46951   4.347   3.952   6.291  2.6246 -0.2221 -0.4820
  348MOL0     H46952   4.309   4.048   6.068 -2.0425 -0.4697  2.0875
  348MOL0     H46953   4.319   3.881   6.013 -2.2525  1.1590  0.6113
  348MOL0     H46954   4.552   4.036   6.167  1.1839  2.8239 -2.7754
  348MOL0     H46955   4.568   3.886   6.056 -1.6680 -0.3072 -1.9364
  348MOL0     H46956   4.544   4.170   5.983  2.0503 -0.6261  3.6310
  348MOL0     H46957   4.508   4.036   5.866 -0.4875  0.6496  0.3847
  348MOL0     H46958   4.734   3.958   5.886  1.5432 -0.6216  1.4655
  348MOL0     H46959   4.740   4.126   5.849  2.0294  0.0161  0.7497
  348MOL0     H46960   3.722   3.907   6.292  1.5582 -0.6368  1.6973
  348MOL0     H46961   3.475   3.839   6.269  0.2377  2.2030  0.2605
  348MOL0     H46962   3.132   3.710   6.283 -1.5194  0.8529  0.3030
  348MOL0     H46963   2.895   3.716   6.263  1.0418 -1.2074 -0.9551
  348MOL0     H46964   0.953   3.635   6.196  0.2714 -1.6703 -0.5561
  348MOL0     H46965   0.728   3.665   6.241 -1.1025 -0.5804 -0.2739
  348MOL0     H46966   0.375   3.563   6.339 -2.8127  0.7366 -3.0962
  348MOL0     H46967   0.134   3.562   6.308  4.0563  0.3135 -2.5751
  348MOL0     H46968  -0.074   3.562   6.361  2.8336  1.2566 -1.5707
  348MOL0     H46969  -0.077   3.649   6.209 -0.6250 -0.3898 -0.1690
  348MOL0     H46970  -0.279   3.602   6.250  1.4976 -2.9337  2.9053
  348MOL0     H46971  -0.278   3.771   6.290 -1.1674 -0.0186  1.0440
  348MOL0     H46972  -0.321   3.723   6.525 -1.6027 -0.9561  0.8332
  348MOL0     H46973  -0.267   3.550   6.512  0.3288 -0.5542 -0.7101
  348MOL0     H46974  -0.501   3.659   6.354  0.1648  1.0743  0.5771
  348MOL0     H46975  -0.465   3.498   6.386  0.3663  0.3815 -1.2068
  348MOL0     H46976  -0.668   3.674   6.733 -0.5818  1.1152 -0.8816
  348MOL0     H46977   0.118   3.946   6.509  0.2822  0.9016 -1.0354
  348MOL0     H46978   0.468   3.960   6.595  0.2760  1.8427  1.9933
  348MOL0     H46979   0.323   4.060   6.573 -2.5180 -0.0071  2.9370
  348MOL0     H46980   0.324   3.933   6.690  1.3340 -1.1726 -0.0238
  349MOL0     O46981   4.726   4.894   8.923 -0.1363  1.1861  0.8026
  349MOL0     C46982   4.702   4.778   8.885 -0.4147  0.4853 -0.1683
  349MOL0     O46983   4.783   4.708   8.803 -0.2835 -0.2921 -0.2701
  349MOL0     C46984   4.906   4.759   8.779 -0.7795  0.9619  0.2312
  349MOL0     C46985   4.998   4.800   8.878 -0.3975  0.4630  0.1143
  349MOL0     C46986   5.131   4.832   8.847 -0.1535  0.0071 -0.0656
  349MOL0     C46987   5.180   4.821   8.716 -0.6078  0.3206  0.8011
  349MOL0     O46988   5.312   4.837   8.677  0.5974  0.1272 -0.0294
  349MOL0     C46989   5.411   4.885   8.770  0.0171 -0.0109 -0.9440
  349MOL0     C46990   5.459   4.770   8.847 -0.4117 -0.7745  0.2332
  349MOL0     C46991   5.519   4.818   8.982  0.6090 -0.0169 -0.9482
  349MOL0     C46992   5.531   4.703   9.074 -1.0968  0.2858  0.3020
  349MOL0     C46993   5.626   4.596   9.021 -0.7754 -0.0032 -0.4276
  349MOL0     C46994   5.665   4.509   9.144  0.3887 -0.1931  0.3072
  349MOL0     C46995   5.756   4.395   9.112  0.0040 -0.2390  0.4368
  349MOL0     C46996   5.863   4.425   9.008  0.5806 -0.7613  0.6603
  349MOL0     N46997   5.967   4.324   8.996  0.6434  0.1664 -0.4071
  349MOL0     C46998   5.990   4.249   8.881  0.2722 -0.0091  0.1670
  349MOL0     C46999   6.096   4.175   8.916 -0.5605 -0.0121 -0.1062
  349MOL0     C47000   6.176   4.077   8.831 -0.4787 -0.1193  0.6555
  349MOL0     C47001   6.111   3.936   8.850  0.2631 -0.0060 -0.6435
  349MOL0     C47002   6.073   3.904   8.994 -0.1862 -0.1309 -0.1186
  349MOL0     C47003   6.192   3.889   9.094  0.2567 -0.2244  0.0623
  349MOL0     O47004   6.253   3.764   9.061 -0.3285 -0.3556  0.6221
  349MOL0     C47005   6.377   3.781   9.006  0.3399 -0.5667 -0.2813
  349MOL0     C47006   6.487   3.817   9.074 -0.3263  0.1596 -0.4046
  349MOL0     C47007   6.612   3.833   9.013  0.0702  0.5826 -0.5231
  349MOL0     C47008   6.627   3.810   8.876 -0.5997 -0.5830  0.0040
  349MOL0     C47009   6.762   3.826   8.815  0.0477 -0.5136  0.6690
  349MOL0     O47010   6.871   3.839   8.897 -0.3394  0.9679 -0.0256
  349MOL0     C47011   6.994   3.852   8.846  0.8426 -0.0989  0.1217
  349MOL0     C47012   7.070   3.974   8.868  0.7119  0.0906  0.6973
  349MOL0     C47013   7.202   3.991   8.819 -0.2605  0.5706  0.2809
  349MOL0     C47014   7.259   3.890   8.751 -0.0784 -0.9365 -0.4503
  349MOL0     O47015   7.386   3.885   8.695 -0.6956  0.6081 -0.1756
  349MOL0     C47016   7.465   4.001   8.687 -0.2400  0.0415 -0.1478
  349MOL0     C47017   7.608   3.985   8.636 -0.5784 -0.1696 -0.2779
  349MOL0     C47018   7.700   4.084   8.702 -0.2995 -0.4437 -0.1041
  349MOL0     C47019   7.843   4.070   8.654 -0.2477  0.3918  0.6880
  349MOL0     C47020   7.936   4.165   8.725  0.8046  0.1924 -0.3716
  349MOL0     C47021   8.072   4.142   8.672 -0.1586 -0.1547 -0.3531
  349MOL0     C47022   8.162   4.261   8.708  0.4882 -1.3325 -0.3767
  349MOL0     C47023   8.175   4.282   8.863 -0.3036 -0.2436  0.1225
  349MOL0    Cl47024   8.343   4.290   8.909 -0.4152  0.2529  0.4254
  349MOL0     C47025   7.195   3.766   8.743 -0.4969 -0.0854 -0.0271
  349MOL0     C47026   7.063   3.752   8.784 -0.1087 -0.0163  0.5366
  349MOL0     O47027   6.764   3.801   8.696 -0.2431 -0.1263 -0.6920
  349MOL0     C47028   6.516   3.760   8.810 -0.4153 -0.0918 -0.2213
  349MOL0     C47029   6.391   3.748   8.869  0.2923  0.1230 -0.3692
  349MOL0     N47030   6.146   4.208   9.042 -0.3448  0.9374 -0.1411
  349MOL0     N47031   6.063   4.294   9.094 -0.3294 -0.3118 -1.0846
  349MOL0     C47032   5.085   4.805   8.614  0.4001 -0.4394 -0.3016
  349MOL0     C47033   4.953   4.769   8.649  0.2360  0.0742 -0.5295
  349MOL0     C47034   4.590   4.707   8.937  1.0525  0.6569 -0.0249
  349MOL0     C47035   4.590   4.561   8.940 -0.1395 -0.2608  0.0510
  349MOL0     C47036   4.477   4.491   8.979  0.0490 -0.4435  1.9223
  349MOL0     C47037   4.353   4.551   8.995  0.3871  0.6327 -0.3938
  349MOL0     O47038   4.225   4.488   9.008 -0.6659 -0.1221  0.3205
  349MOL0     C47039   4.211   4.347   8.988  0.2293  0.4482 -0.4635
  349MOL0     C47040   4.066   4.301   9.005 -0.8184 -0.9578  0.4079
  349MOL0     C47041   4.045   4.152   9.034  0.0518 -1.1745 -0.5680
  349MOL0     C47042   3.902   4.139   9.079 -0.6755  0.7032 -0.4450
  349MOL0     C47043   3.884   3.994   9.102  0.0583  0.4022  0.1136
  349MOL0     C47044   3.883   3.877   9.114 -0.0783  0.8460 -0.7625
  349MOL0     C47045   4.346   4.687   8.998  0.3121 -0.6039 -0.4110
  349MOL0     C47046   4.457   4.768   8.962 -0.0992  0.0050 -0.4553
  349MOL0     C47047   4.418   4.918   8.956 -0.2180  0.2857  0.0654
  349MOL0     H47048   4.957   4.803   8.979  2.1923 -0.2376  1.2840
  349MOL0     H47049   5.202   4.848   8.928  0.6032  2.5269 -1.1102
  349MOL0     H47050   5.487   4.938   8.711  1.5558 -1.9224 -0.7835
  349MOL0     H47051   5.368   4.957   8.840 -1.0242 -3.2170  1.9600
  349MOL0     H47052   5.538   4.719   8.791  0.3074  1.0160 -0.4593
  349MOL0     H47053   5.378   4.701   8.872 -0.1793 -1.5138 -0.9942
  349MOL0     H47054   5.460   4.895   9.032  1.5317 -0.7232  1.3511
  349MOL0     H47055   5.621   4.856   8.971  0.6989  0.4577  1.1927
  349MOL0     H47056   5.563   4.742   9.170  2.0794  0.9724 -0.9163
  349MOL0     H47057   5.434   4.652   9.085 -0.7456 -0.4201  0.2215
  349MOL0     H47058   5.575   4.541   8.942 -0.7183  1.5538 -1.5957
  349MOL0     H47059   5.713   4.652   8.986  0.5442 -1.1666  0.8832
  349MOL0     H47060   5.706   4.573   9.223 -0.7581  1.1326 -0.1302
  349MOL0     H47061   5.570   4.476   9.187  0.0566 -0.3708 -0.5531
  349MOL0     H47062   5.688   4.321   9.069 -0.3458  0.0024  0.5778
  349MOL0     H47063   5.796   4.342   9.199  0.3130 -3.1303 -1.3374
  349MOL0     H47064   5.809   4.445   8.915 -0.5349  0.8109  1.5927
  349MOL0     H47065   5.914   4.520   9.027  1.4361 -0.5238 -2.2979
  349MOL0     H47066   5.940   4.229   8.788  1.1677  0.6121 -0.4683
  349MOL0     H47067   6.182   4.103   8.725 -1.4305 -0.2104  0.5686
  349MOL0     H47068   6.280   4.069   8.863 -0.0527 -1.4348 -0.9730
  349MOL0     H47069   6.014   3.945   8.799 -1.4447 -0.3925  2.2968
  349MOL0     H47070   6.173   3.858   8.805  0.2282  0.4684 -1.5418
  349MOL0     H47071   6.023   3.807   8.993 -1.1712  0.3606  0.2266
  349MOL0     H47072   6.003   3.972   9.043  1.1332  0.3957  1.0917
  349MOL0     H47073   6.158   3.893   9.198  1.3765 -0.3755  0.4367
  349MOL0     H47074   6.258   3.976   9.091 -1.1338  0.9444  1.2725
  349MOL0     H47075   6.488   3.855   9.176 -1.3948 -0.8945  0.0242
  349MOL0     H47076   6.693   3.869   9.076 -0.5876  1.1158  0.0359
  349MOL0     H47077   7.020   4.059   8.913  0.7472  0.7589 -0.4884
  349MOL0     H47078   7.245   4.090   8.827 -0.3899  0.6078  0.5071
  349MOL0     H47079   7.416   4.065   8.613  0.5295 -0.4295 -1.0944
  349MOL0     H47080   7.466   4.054   8.783 -1.5559  0.1396 -0.1691
  349MOL0     H47081   7.647   3.885   8.654 -1.5638 -0.3306  1.1144
  349MOL0     H47082   7.613   3.997   8.527  0.1009  1.1746 -0.1214
  349MOL0     H47083   7.672   4.186   8.673 -4.7703 -1.5382 -0.3687
  349MOL0     H47084   7.691   4.071   8.810  0.0836 -1.4330 -0.1761
  349MOL0     H47085   7.844   4.086   8.546 -0.0460  0.9222  0.7634
  349MOL0     H47086   7.871   3.965   8.668 -0.3667  0.4456  1.4046
  349MOL0     H47087   7.931   4.143   8.832 -1.0018  0.7933 -0.2869
  349MOL0     H47088   7.900   4.264   8.693  1.8551  0.6638 -0.1499
  349MOL0     H47089   8.127   4.052   8.700 -0.4910  0.4755  2.7008
  349MOL0     H47090   8.067   4.137   8.563 -2.6273 -0.4732 -0.2779
  349MOL0     H47091   8.130   4.354   8.661  2.4799 -0.8412 -0.8824
  349MOL0     H47092   8.258   4.254   8.655  1.6918  1.7701  1.1294
  349MOL0     H47093   8.107   4.363   8.892 -1.5117 -1.1408 -0.1522
  349MOL0     H47094   8.138   4.192   8.911  1.5316 -2.0026 -1.5382
  349MOL0     H47095   7.251   3.677   8.714 -1.2951 -2.1049  4.0013
  349MOL0     H47096   7.019   3.654   8.771 -0.3776  0.3424 -1.5325
  349MOL0     H47097   6.520   3.752   8.702  0.5528 -0.8824 -0.1351
  349MOL0     H47098   6.312   3.707   8.806 -0.9236  1.0508  0.5109
  349MOL0     H47099   5.114   4.790   8.511 -2.5111 -0.7304 -1.1658
  349MOL0     H47100   4.881   4.738   8.574 -1.0277 -1.7714  1.3491
  349MOL0     H47101   4.678   4.504   8.913  0.8209  1.7436 -1.3367
  349MOL0     H47102   4.481   4.382   8.980  0.0710 -0.4686  0.8108
  349MOL0     H47103   4.268   4.284   9.057  0.4511  2.1849  1.0371
  349MOL0     H47104   4.251   4.315   8.891 -0.4952 -1.7145 -0.1007
  349MOL0     H47105   4.015   4.334   8.915  3.5277  0.1072 -1.9676
  349MOL0     H47106   4.033   4.354   9.095  0.3899 -2.7667  2.0156
  349MOL0     H47107   4.120   4.106   9.100  0.2145 -2.3666 -1.5560
  349MOL0     H47108   4.047   4.090   8.944  3.1319 -0.4126 -1.1405
  349MOL0     H47109   3.876   4.202   9.165  1.0015  1.6855 -0.6073
  349MOL0     H47110   3.833   4.159   8.997 -2.4585  0.1948  0.8725
  349MOL0     H47111   3.870   3.772   9.130 -1.3711  0.8300 -1.7282
  349MOL0     H47112   4.248   4.733   9.010 -0.0346 -0.4271 -3.2516
  349MOL0     H47113   4.321   4.920   8.905  0.3845 -3.5714 -1.5907
  349MOL0     H47114   4.415   4.965   9.054  0.8310 -0.9685  0.7287
  349MOL0     H47115   4.487   4.979   8.897  1.1132 -1.3488 -0.1487
  350MOL0     O47116   8.710   6.154   0.307 -0.3991  0.2403 -0.0992
  350MOL0     C47117   8.634   6.143   0.403 -0.6616 -0.5194 -0.6384
  350MOL0     O47118   8.674   6.128   0.540 -0.0833  0.3865 -0.1837
  350MOL0     C47119   8.808   6.109   0.564  0.2518  0.5117  0.2498
  350MOL0     C47120   8.877   6.211   0.617  0.2429  0.3720  1.1202
  350MOL0     C47121   9.013   6.190   0.653  0.1427  0.2000  0.3021
  350MOL0     C47122   9.080   6.065   0.647 -0.0478 -0.1032  0.4283
  350MOL0     O47123   9.211   6.055   0.697  0.0817  0.4566  0.4898
  350MOL0     C47124   9.306   5.968   0.631  0.1201  1.0354 -0.0598
  350MOL0     C47125   9.433   5.968   0.721 -0.1336  0.2672  0.9208
  350MOL0     C47126   9.527   6.089   0.699 -0.0584  0.3619  0.9762
  350MOL0     C47127   9.657   6.054   0.621  0.2114  0.0917 -0.5929
  350MOL0     C47128   9.713   6.175   0.546  0.5874 -0.1238 -0.3226
  350MOL0     C47129   9.815   6.133   0.433  1.4533 -0.3566 -0.0358
  350MOL0     C47130   9.938   6.062   0.492  0.6831  0.1967  0.0280
  350MOL0     C47131  10.016   6.153   0.587  1.0481  0.2132 -1.0845
  350MOL0     N47132  10.145   6.112   0.627 -0.0202  0.3149 -0.1689
  350MOL0     C47133  10.173   5.981   0.661  0.0260  0.7414 -0.4313
  350MOL0     C47134  10.309   5.973   0.672  0.4604 -0.1508 -0.6994
  350MOL0     C47135  10.396   5.856   0.723 -0.4663 -0.2772  0.5504
  350MOL0     C47136  10.492   5.896   0.835  0.3016  0.7415 -0.2087
  350MOL0     C47137  10.558   5.773   0.913  0.0118 -0.1593  1.1392
  350MOL0     C47138  10.701   5.806   0.948  0.1493 -0.2395 -0.2655
  350MOL0     O47139  10.769   5.708   1.030 -0.1122 -0.0652  0.3656
  350MOL0     C47140  10.899   5.728   1.075  0.0112 -0.0597  0.0858
  350MOL0     C47141  10.974   5.624   1.134  0.0175  0.1464 -0.0886
  350MOL0     C47142  11.102   5.643   1.181 -0.1616  0.0659 -0.0290
  350MOL0     C47143  11.167   5.766   1.167 -0.6894  0.7711 -0.3768
  350MOL0     C47144  11.303   5.792   1.243 -0.2865 -0.4932  0.1909
  350MOL0     O47145  11.370   5.684   1.280  0.2717  0.2671 -0.0855
  350MOL0     C47146  11.493   5.697   1.330 -0.3916 -0.1955 -0.2694
  350MOL0     C47147  11.602   5.718   1.254 -0.2204 -0.5124  0.0606
  350MOL0     C47148  11.732   5.725   1.312  0.2112  0.0698 -0.2934
  350MOL0     C47149  11.750   5.710   1.449 -0.2778 -0.0719 -0.8705
  350MOL0     O47150  11.865   5.735   1.516  0.4249  0.0529  0.4487
  350MOL0     C47151  11.989   5.692   1.448  0.8294 -0.4568 -0.2545
  350MOL0     C47152  12.095   5.712   1.552  1.1194 -0.1550  0.1217
  350MOL0     C47153  12.232   5.716   1.487  0.1256  0.1093 -0.8247
  350MOL0     C47154  12.345   5.755   1.580  0.4540  0.4474 -0.0947
  350MOL0     C47155  12.473   5.727   1.513 -0.8840  0.2195  0.7380
  350MOL0     C47156  12.586   5.766   1.604 -0.3288  0.1554 -0.2515
  350MOL0     C47157  12.726   5.764   1.536 -0.4245 -0.8435  0.0175
  350MOL0     C47158  12.833   5.791   1.645  0.8198  0.1192  0.3855
  350MOL0    Cl47159  12.992   5.788   1.571  0.1738 -0.0649  0.6234
  350MOL0     C47160  11.640   5.665   1.525  0.4518  0.6057 -0.2070
  350MOL0     C47161  11.517   5.668   1.470  0.1159  0.5906 -0.3180
  350MOL0     O47162  11.343   5.906   1.234  0.3184 -0.2148  0.4654
  350MOL0     C47163  11.096   5.870   1.097 -0.9147 -0.4682  0.1361
  350MOL0     C47164  10.970   5.847   1.046  0.5431 -0.1017  0.0720
  350MOL0     N47165  10.359   6.100   0.638 -0.5036 -0.0391 -0.0500
  350MOL0     N47166  10.263   6.182   0.604 -0.2414  0.1382 -1.2194
  350MOL0     C47167   9.004   5.961   0.596  0.4149 -0.3328 -0.5932
  350MOL0     C47168   8.874   5.986   0.543 -0.0821 -0.9174  0.2827
  350MOL0     C47169   8.493   6.128   0.378 -0.5886  0.4869  0.2713
  350MOL0     C47170   8.420   6.043   0.455  0.0869 -0.2301 -0.3239
  350MOL0     C47171   8.289   6.014   0.411 -0.1220  0.6306 -0.4000
  350MOL0     C47172   8.220   6.091   0.319  0.9324  0.2613 -0.2738
  350MOL0     O47173   8.082   6.074   0.299 -0.6400  0.2233  0.0033
  350MOL0     C47174   8.010   6.160   0.395  0.8509  0.5047 -0.0214
  350MOL0     C47175   7.864   6.123   0.383 -0.0893  0.0077  1.0817
  350MOL0     C47176   7.777   6.202   0.485  0.4333 -0.1414  0.5783
  350MOL0     C47177   7.695   6.107   0.574 -0.5752  0.8591 -0.4976
  350MOL0     C47178   7.780   6.022   0.665  0.8588  0.3832 -0.1975
  350MOL0     C47179   7.831   5.931   0.732 -0.2054  0.2259 -0.6120
  350MOL0     C47180   8.293   6.183   0.254 -0.3988 -0.1443  0.3930
  350MOL0     C47181   8.430   6.208   0.275  0.8077  0.2214 -0.7394
  350MOL0     C47182   8.497   6.305   0.177  0.4014  0.1371 -0.2401
  350MOL0     H47183   8.821   6.301   0.638 -1.0895  0.0630 -0.8885
  350MOL0     H47184   9.071   6.274   0.690 -0.4253  1.7706 -2.1436
  350MOL0     H47185   9.277   5.862   0.625  0.7069  0.9076 -0.8835
  350MOL0     H47186   9.347   6.005   0.536  1.7987 -0.7911 -0.1244
  350MOL0     H47187   9.493   5.877   0.714  1.4797  1.4246 -1.9511
  350MOL0     H47188   9.406   5.979   0.826  2.4213 -0.5025  1.7432
  350MOL0     H47189   9.565   6.136   0.790  1.4153 -0.3239  0.7606
  350MOL0     H47190   9.469   6.165   0.646 -0.2144  0.1478  0.8383
  350MOL0     H47191   9.728   6.014   0.694  0.0078 -0.6334 -0.7818
  350MOL0     H47192   9.648   5.976   0.544 -2.1035 -0.8657  0.5473
  350MOL0     H47193   9.636   6.238   0.500 -1.3316  0.4380  3.3453
  350MOL0     H47194   9.758   6.242   0.620 -0.0332 -1.2475  1.1049
  350MOL0     H47195   9.756   6.067   0.370  0.0530 -0.9275  1.7910
  350MOL0     H47196   9.845   6.225   0.381 -1.2933  0.4033 -0.4789
  350MOL0     H47197   9.996   6.030   0.405  2.1166  0.0698  1.0103
  350MOL0     H47198   9.909   5.972   0.547  0.6416  0.6350  0.7215
  350MOL0     H47199  10.016   6.256   0.550 -0.6163  0.6874  0.0902
  350MOL0     H47200   9.955   6.172   0.676  0.5296  2.8654 -1.9103
  350MOL0     H47201  10.108   5.897   0.686 -1.0313  1.1210 -1.7837
  350MOL0     H47202  10.332   5.771   0.752 -1.1247  0.2282  0.6078
  350MOL0     H47203  10.442   5.822   0.630 -2.0061  1.4039 -0.8843
  350MOL0     H47204  10.570   5.955   0.786 -1.2901  1.6663 -1.7035
  350MOL0     H47205  10.441   5.962   0.906 -1.5233 -2.0054  1.2076
  350MOL0     H47206  10.560   5.684   0.850 -1.1358 -2.4194  4.0887
  350MOL0     H47207  10.498   5.736   0.996 -0.1875 -1.3098  0.5035
  350MOL0     H47208  10.708   5.905   0.994 -1.2038 -0.5264  0.6204
  350MOL0     H47209  10.757   5.823   0.856 -1.5968  2.0651 -0.9874
  350MOL0     H47210  10.922   5.529   1.131  3.0072 -1.7043  1.3212
  350MOL0     H47211  11.143   5.561   1.239 -2.8920 -1.6483 -0.3836
  350MOL0     H47212  11.581   5.754   1.154  2.7786  0.6379 -0.2423
  350MOL0     H47213  11.813   5.737   1.241  1.3252 -0.2172  0.8989
  350MOL0     H47214  11.981   5.586   1.421 -1.0624 -0.9185  1.8139
  350MOL0     H47215  12.014   5.749   1.358  0.4472 -0.1038 -0.1385
  350MOL0     H47216  12.082   5.802   1.611  1.9688  0.4772 -0.6305
  350MOL0     H47217  12.093   5.623   1.616 -1.3924 -1.0698 -1.1140
  350MOL0     H47218  12.245   5.617   1.442 -1.0962  1.2612 -3.9867
  350MOL0     H47219  12.231   5.784   1.401  1.7995  1.3445  0.0789
  350MOL0     H47220  12.335   5.699   1.674 -2.8457 -0.5888 -0.8986
  350MOL0     H47221  12.328   5.860   1.604  2.0793  0.2396  2.3599
  350MOL0     H47222  12.490   5.789   1.424  0.9299 -0.3226  0.6691
  350MOL0     H47223  12.479   5.621   1.487  0.2691  0.0244  1.7131
  350MOL0     H47224  12.566   5.856   1.663  3.1643  0.8959  0.0516
  350MOL0     H47225  12.594   5.700   1.691  0.8186  1.5830  0.7847
  350MOL0     H47226  12.726   5.827   1.447  0.7691  0.8923  1.1935
  350MOL0     H47227  12.740   5.660   1.506  0.7787 -0.9854  0.9955
  350MOL0     H47228  12.823   5.891   1.688  1.5330  0.9561 -1.2687
  350MOL0     H47229  12.822   5.714   1.721  3.2191 -1.6216 -0.8815
  350MOL0     H47230  11.656   5.653   1.631  2.6194  3.2746 -0.1262
  350MOL0     H47231  11.427   5.655   1.529  0.8885 -2.0468  0.4038
  350MOL0     H47232  11.151   5.963   1.091  2.7097 -2.5063 -0.9962
  350MOL0     H47233  10.935   5.935   0.994  3.1855  1.7869  1.2317
  350MOL0     H47234   9.033   5.856   0.599 -2.5842 -1.2414 -0.3460
  350MOL0     H47235   8.820   5.909   0.488 -3.2572  2.6894 -2.2382
  350MOL0     H47236   8.465   5.974   0.525  0.3086 -0.5833 -0.8071
  350MOL0     H47237   8.243   5.932   0.466  0.3121  0.4468 -0.3063
  350MOL0     H47238   8.009   6.264   0.360  2.0881  0.4244 -0.3200
  350MOL0     H47239   8.065   6.149   0.489  0.4294 -4.0797 -0.0866
  350MOL0     H47240   7.867   6.015   0.397  2.7322 -0.4793 -1.9534
  350MOL0     H47241   7.833   6.137   0.279 -0.2262  0.6978  1.2124
  350MOL0     H47242   7.708   6.268   0.433  2.1349  1.0915 -0.1926
  350MOL0     H47243   7.828   6.272   0.552 -1.5017  0.4994  1.4458
  350MOL0     H47244   7.628   6.165   0.639 -1.3092 -0.9746  0.4499
  350MOL0     H47245   7.638   6.041   0.507 -1.3483  0.5527  0.4389
  350MOL0     H47246   7.891   5.855   0.777 -1.1594  0.4611  1.1308
  350MOL0     H47247   8.241   6.242   0.179 -0.0685  0.2305  0.4563
  350MOL0     H47248   8.440   6.398   0.165  2.3464  1.5317  0.6825
  350MOL0     H47249   8.590   6.354   0.211  1.5756  0.1646 -3.2470
  350MOL0     H47250   8.507   6.259   0.079 -1.3896 -0.2729 -0.2596
  351MOL0     O47251   3.906  10.319   3.928  0.2934  0.2705 -0.0088
  351MOL0     C47252   3.906  10.436   3.893  0.3837  0.0844 -0.5508
  351MOL0     O47253   4.016  10.504   3.849  0.2798  0.8745  0.2760
  351MOL0     C47254   4.126  10.447   3.779 -0.2901 -0.3021 -0.5357
  351MOL0     C47255   4.238  10.530   3.780  0.1662 -0.3520  1.1460
  351MOL0     C47256   4.358  10.478   3.730  0.4987 -0.1228  0.0312
  351MOL0     C47257   4.366  10.358   3.661  0.1807  1.0931  0.7164
  351MOL0     O47258   4.478  10.296   3.603 -0.4887  0.2205 -0.1447
  351MOL0     C47259   4.584  10.367   3.546 -0.2692  1.0381 -0.0370
  351MOL0     C47260   4.697  10.335   3.651 -1.1651  0.4078  0.7326
  351MOL0     C47261   4.831  10.406   3.618 -0.0636 -0.4352 -0.1288
  351MOL0     C47262   4.936  10.394   3.720 -0.3659  0.2730 -0.1025
  351MOL0     C47263   5.073  10.472   3.710  0.2047 -0.1975  0.2210
  351MOL0     C47264   5.164  10.450   3.600 -0.1267 -0.6639 -0.4204
  351MOL0     C47265   5.195  10.304   3.592 -0.8566  0.4352 -0.5437
  351MOL0     C47266   5.277  10.272   3.468  0.4744  0.3507 -0.5647
  351MOL0     N47267   5.399  10.347   3.457 -0.1527  0.1639 -0.2575
  351MOL0     C47268   5.432  10.431   3.356 -0.1911 -1.0478  0.8867
  351MOL0     C47269   5.541  10.502   3.393 -0.4547 -0.2260  0.2873
  351MOL0     C47270   5.605  10.623   3.328  0.9781 -0.3631  0.4253
  351MOL0     C47271   5.655  10.578   3.189  0.2486  0.0051  0.9842
  351MOL0     C47272   5.716  10.704   3.109 -0.6791  0.0873 -1.2108
  351MOL0     C47273   5.850  10.684   3.040  1.1051  0.1131 -0.6759
  351MOL0     O47274   5.901  10.801   2.979 -0.3264  0.2353 -0.1714
  351MOL0     C47275   6.002  10.786   2.885  0.2055 -0.3678 -0.4964
  351MOL0     C47276   6.047  10.904   2.828 -0.2655  0.0728  0.1512
  351MOL0     C47277   6.173  10.912   2.772  0.1435 -0.6065  0.5425
  351MOL0     C47278   6.257  10.796   2.757 -0.7517 -0.6614  0.1895
  351MOL0     C47279   6.391  10.796   2.690  0.1933  0.1761 -1.1872
  351MOL0     O47280   6.459  10.670   2.693  1.1055  0.3567 -0.2895
  351MOL0     C47281   6.582  10.674   2.653 -0.3371  0.0386  1.0943
  351MOL0     C47282   6.606  10.584   2.546  0.2826 -0.6231 -0.0137
  351MOL0     C47283   6.735  10.575   2.496  0.2928 -0.4463  0.7427
  351MOL0     C47284   6.836  10.660   2.531 -0.8124 -0.1493  0.9315
  351MOL0     O47285   6.948  10.653   2.455  0.0284  0.7270 -0.3854
  351MOL0     C47286   7.054  10.752   2.455 -0.0215 -0.3143  0.5025
  351MOL0     C47287   7.157  10.718   2.338  0.8725 -0.1932 -0.4657
  351MOL0     C47288   7.235  10.596   2.380  0.2659 -0.1118  0.2010
  351MOL0     C47289   7.371  10.576   2.308 -0.2415 -0.2263  0.3544
  351MOL0     C47290   7.492  10.622   2.392 -0.4435  0.6304 -1.3935
  351MOL0     C47291   7.516  10.769   2.405 -0.1488  1.2983  0.4912
  351MOL0     C47292   7.497  10.847   2.268  0.0461 -0.2364 -0.3821
  351MOL0     C47293   7.510  11.003   2.303 -0.2432 -0.7966  0.2815
  351MOL0    Cl47294   7.676  11.063   2.327  0.0124 -0.0555  0.1252
  351MOL0     C47295   6.808  10.768   2.622  0.3451  0.1060  0.4870
  351MOL0     C47296   6.682  10.767   2.689 -0.6160 -0.2894 -0.1485
  351MOL0     O47297   6.431  10.901   2.634  0.1002  0.7002  0.0276
  351MOL0     C47298   6.205  10.670   2.797  0.6553  0.3236 -0.9518
  351MOL0     C47299   6.076  10.659   2.857  0.5415 -0.8036 -0.8911
  351MOL0     N47300   5.575  10.453   3.520 -0.1961  0.4446  0.5036
  351MOL0     N47301   5.491  10.358   3.552 -0.5480  0.1483  0.0743
  351MOL0     C47302   4.240  10.286   3.638 -0.2040 -1.4373  0.0672
  351MOL0     C47303   4.124  10.328   3.705 -0.4612 -0.0054  1.0115
  351MOL0     C47304   3.793  10.520   3.927 -0.8891  0.2126  0.7788
  351MOL0     C47305   3.799  10.655   3.902  0.0837  0.1679  0.7982
  351MOL0     C47306   3.698  10.734   3.949  0.4379 -0.6620 -1.0267
  351MOL0     C47307   3.578  10.693   3.999 -0.0805  0.1889 -0.3065
  351MOL0     O47308   3.483  10.792   4.025 -0.0357  0.0697 -0.6026
  351MOL0     C47309   3.372  10.801   3.942  0.1887  0.5814  0.3234
  351MOL0     C47310   3.406  10.837   3.795 -0.5932 -0.7078 -0.1710
  351MOL0     C47311   3.306  10.926   3.716  0.4486 -0.1166 -0.1858
  351MOL0     C47312   3.355  10.947   3.573 -0.3772 -0.3793 -0.9104
  351MOL0     C47313   3.240  10.985   3.491  0.4117 -0.3245  0.0314
  351MOL0     C47314   3.146  11.031   3.424  0.1661 -0.1351 -0.3789
  351MOL0     C47315   3.560  10.550   4.001  0.4804  0.3878 -0.8133
  351MOL0     C47316   3.668  10.461   3.965 -0.0238 -0.0543  1.4380
  351MOL0     C47317   3.639  10.312   3.963  0.0487  0.8338  0.7228
  351MOL0     H47318   4.254  10.627   3.825 -3.2311 -0.0137  1.9275
  351MOL0     H47319   4.444  10.542   3.750  1.4340 -1.6273  1.0204
  351MOL0     H47320   4.608  10.328   3.446 -3.0195  1.7114 -1.0542
  351MOL0     H47321   4.556  10.473   3.546  1.0567  1.4745 -2.5925
  351MOL0     H47322   4.725  10.230   3.640 -0.4103  0.7536 -0.8913
  351MOL0     H47323   4.660  10.344   3.754 -4.9401  1.8175 -0.5464
  351MOL0     H47324   4.806  10.512   3.604 -1.4799 -0.8053 -0.5902
  351MOL0     H47325   4.875  10.367   3.526  1.1619  2.1564 -0.7284
  351MOL0     H47326   4.897  10.438   3.812  1.4045 -1.2280  1.4425
  351MOL0     H47327   4.954  10.287   3.735 -4.3742 -0.5785 -0.0756
  351MOL0     H47328   5.053  10.580   3.711  0.2040 -0.1770 -0.8141
  351MOL0     H47329   5.130  10.451   3.801 -0.4405 -0.2683  0.6207
  351MOL0     H47330   5.125  10.476   3.501  1.9481  0.5801 -0.9516
  351MOL0     H47331   5.249  10.516   3.615 -1.0085  1.1922 -2.9552
  351MOL0     H47332   5.112  10.233   3.598  0.2043 -0.7142  2.8016
  351MOL0     H47333   5.254  10.274   3.679 -0.3486 -0.8868 -1.3083
  351MOL0     H47334   5.297  10.164   3.471  0.7360  0.4067 -0.2922
  351MOL0     H47335   5.220  10.300   3.379 -4.5932  2.3263  2.7934
  351MOL0     H47336   5.373  10.438   3.265 -0.8966 -0.8488  1.3557
  351MOL0     H47337   5.529  10.694   3.295  1.7923  0.6015  0.5861
  351MOL0     H47338   5.679  10.675   3.390  0.9941  0.2485 -0.1067
  351MOL0     H47339   5.725  10.494   3.185 -0.7078 -1.0025  3.2207
  351MOL0     H47340   5.570  10.540   3.132  1.5863  0.3193 -1.3388
  351MOL0     H47341   5.740  10.789   3.173 -0.5385  0.8872 -2.3049
  351MOL0     H47342   5.641  10.736   3.037 -1.9993  0.7696  0.4175
  351MOL0     H47343   5.823  10.616   2.959  0.6621 -0.5094 -0.0154
  351MOL0     H47344   5.912  10.638   3.117 -2.0416  0.4050  2.2727
  351MOL0     H47345   5.998  11.000   2.839  0.3056  0.2462  1.4585
  351MOL0     H47346   6.201  11.014   2.747 -0.2740 -0.6333 -0.0431
  351MOL0     H47347   6.544  10.504   2.507  3.6085 -2.6208 -1.6407
  351MOL0     H47348   6.760  10.511   2.412  0.2424 -0.4857  0.7580
  351MOL0     H47349   7.011  10.850   2.431  0.9002 -0.0416 -0.0658
  351MOL0     H47350   7.119  10.750   2.543  0.0433 -0.6423  0.4466
  351MOL0     H47351   7.099  10.693   2.249 -1.4386 -0.4896  0.9982
  351MOL0     H47352   7.216  10.809   2.326 -0.6005  0.6948 -1.3793
  351MOL0     H47353   7.253  10.587   2.487 -0.3782 -0.6892  0.2745
  351MOL0     H47354   7.167  10.513   2.360 -0.5561  0.8659 -1.2304
  351MOL0     H47355   7.364  10.641   2.219 -1.0090  4.1417  3.2570
  351MOL0     H47356   7.381  10.470   2.284 -1.8134 -0.1957 -0.5793
  351MOL0     H47357   7.581  10.583   2.342  0.7750  2.5074 -0.8021
  351MOL0     H47358   7.489  10.579   2.492  2.4413 -0.0802 -1.5325
  351MOL0     H47359   7.453  10.798   2.490 -2.5654 -0.3881 -0.6039
  351MOL0     H47360   7.623  10.780   2.424  0.0937 -0.1889  0.1437
  351MOL0     H47361   7.401  10.836   2.216 -0.4436 -0.6210  0.5750
  351MOL0     H47362   7.579  10.828   2.199  2.2662  1.1669  1.7240
  351MOL0     H47363   7.462  11.052   2.218  2.3000 -1.2645 -1.5611
  351MOL0     H47364   7.463  11.027   2.398  0.8463 -0.1274  0.6767
  351MOL0     H47365   6.883  10.841   2.652  2.6609 -1.7211 -0.5509
  351MOL0     H47366   6.669  10.845   2.763  0.7578 -1.1948  1.1062
  351MOL0     H47367   6.260  10.577   2.791 -0.1942 -0.5390  2.5947
  351MOL0     H47368   6.041  10.559   2.883 -0.4212  0.0277  1.2242
  351MOL0     H47369   4.249  10.195   3.579  1.6057 -1.3726  0.1904
  351MOL0     H47370   4.045  10.254   3.716 -0.2126 -0.6236 -0.8731
  351MOL0     H47371   3.889  10.695   3.855 -0.1553 -1.0181 -0.7650
  351MOL0     H47372   3.712  10.841   3.933  3.7556 -0.9484 -0.7397
  351MOL0     H47373   3.306  10.880   3.982  0.2565  1.0868 -0.5391
  351MOL0     H47374   3.321  10.705   3.954  0.5371  0.0048 -2.3083
  351MOL0     H47375   3.394  10.736   3.754  0.0350 -1.1432  0.6914
  351MOL0     H47376   3.510  10.867   3.787 -0.9570 -0.0333 -4.3182
  351MOL0     H47377   3.295  11.024   3.764 -2.0772 -1.5277  2.3383
  351MOL0     H47378   3.207  10.880   3.720  0.1385  0.5974  0.6930
  351MOL0     H47379   3.444  11.010   3.577 -1.0159  0.4663  2.2137
  351MOL0     H47380   3.388  10.849   3.537 -1.8209 -0.5414 -1.8932
  351MOL0     H47381   3.074  11.089   3.369 -2.0188 -1.4900  0.9230
  351MOL0     H47382   3.466  10.512   4.041 -0.3627  1.4849 -1.6925
  351MOL0     H47383   3.707  10.270   4.038 -0.4613 -2.4409 -0.5212
  351MOL0     H47384   3.538  10.297   4.002 -0.5599  0.7053 -0.8402
  351MOL0     H47385   3.651  10.272   3.862 -0.9944 -0.4797  1.0942
  352MOL0     O47386   4.565   0.771  11.202 -0.4677  0.0108 -0.4782
  352MOL0     C47387   4.609   0.666  11.242  0.2743 -0.0941  0.0500
  352MOL0     O47388   4.738   0.642  11.268 -0.2488 -0.0358  0.3091
  352MOL0     C47389   4.839   0.725  11.215  1.3248  0.5048 -0.0092
  352MOL0     C47390   4.825   0.806  11.104  0.2282 -0.2077 -0.2242
  352MOL0     C47391   4.939   0.858  11.038 -0.3698 -0.3946  0.1266
  352MOL0     C47392   5.071   0.827  11.090  0.4082  0.7665  0.1172
  352MOL0     O47393   5.169   0.882  11.020 -0.6667 -0.3561  0.1650
  352MOL0     C47394   5.280   0.806  10.995  0.8459 -0.4675  0.3038
  352MOL0     C47395   5.366   0.867  10.886 -0.3159  0.2960  0.2315
  352MOL0     C47396   5.473   0.765  10.855 -0.4748  0.4651  1.3970
  352MOL0     C47397   5.556   0.821  10.742  0.0587 -0.1053  0.3846
  352MOL0     C47398   5.661   0.730  10.680 -0.1008  0.2432 -0.1318
  352MOL0     C47399   5.719   0.795  10.557 -0.4920  0.2719 -0.6482
  352MOL0     C47400   5.858   0.735  10.512  0.4252 -0.0949  0.6004
  352MOL0     C47401   5.974   0.747  10.615  0.7332  0.1335  0.3748
  352MOL0     N47402   6.002   0.887  10.646  0.0683 -0.6102 -0.9835
  352MOL0     C47403   5.955   0.951  10.759 -0.7411  0.2325  0.3026
  352MOL0     C47404   5.997   1.080  10.742  0.1754 -0.7761 -0.2289
  352MOL0     C47405   5.961   1.197  10.821 -0.5039 -0.1944  0.1647
  352MOL0     C47406   5.815   1.244  10.796  0.7686 -0.2787 -0.4117
  352MOL0     C47407   5.770   1.350  10.895  0.4175 -1.0599 -0.2336
  352MOL0     C47408   5.618   1.391  10.875 -0.4881 -1.3359 -0.3486
  352MOL0     O47409   5.524   1.295  10.923  0.3834 -0.4776 -0.2029
  352MOL0     C47410   5.393   1.329  10.917 -0.3201  0.6197  0.4174
  352MOL0     C47411   5.312   1.223  10.956  0.4147  0.0763  0.7916
  352MOL0     C47412   5.169   1.234  10.943 -0.3081 -0.4683 -0.1151
  352MOL0     C47413   5.107   1.355  10.901 -0.7703 -0.1371  0.1324
  352MOL0     C47414   4.969   1.361  10.896 -0.0208 -0.3840  0.2680
  352MOL0     O47415   4.900   1.247  10.861  0.2729  0.3599 -0.0774
  352MOL0     C47416   4.757   1.260  10.855 -0.2491 -0.0174  0.6380
  352MOL0     C47417   4.703   1.356  10.776  0.2286  0.3548  0.5528
  352MOL0     C47418   4.568   1.362  10.778  0.8905 -0.0056  0.7504
  352MOL0     C47419   4.480   1.278  10.848  0.2324 -0.7661 -0.7992
  352MOL0     O47420   4.347   1.297  10.859 -0.2559  0.7085  0.1365
  352MOL0     C47421   4.280   1.407  10.798  0.7707 -1.1750 -0.0828
  352MOL0     C47422   4.142   1.417  10.864 -0.0686 -0.9735 -0.0568
  352MOL0     C47423   4.037   1.333  10.789  0.1252 -0.1608  0.0090
  352MOL0     C47424   3.900   1.343  10.858  1.0170  0.9900 -0.7817
  352MOL0     C47425   3.805   1.237  10.805 -0.6852  0.1095 -0.1092
  352MOL0     C47426   3.686   1.233  10.890  1.1962 -0.1536  0.2512
  352MOL0     C47427   3.588   1.114  10.850  0.0323 -0.2253 -1.0798
  352MOL0     C47428   3.479   1.154  10.759 -0.1393  0.4324  0.0594
  352MOL0    Cl47429   3.539   1.146  10.588  0.4931 -0.5803 -0.0387
  352MOL0     C47430   4.540   1.175  10.929  0.2945 -1.0008 -0.0060
  352MOL0     C47431   4.680   1.180  10.940 -0.0564 -0.3128  0.7044
  352MOL0     O47432   4.924   1.475  10.912 -0.1369 -0.0982 -0.4578
  352MOL0     C47433   5.196   1.461  10.881  0.5569 -0.1161 -0.0279
  352MOL0     C47434   5.335   1.452  10.880 -0.7388 -0.3923  0.4546
  352MOL0     N47435   6.068   1.082  10.617 -0.0478  0.3419 -0.3137
  352MOL0     N47436   6.071   0.965  10.568 -0.5680  0.0626  1.2568
  352MOL0     C47437   5.084   0.752  11.208 -0.4317 -0.2880  1.0070
  352MOL0     C47438   4.973   0.691  11.267  0.1401  0.6203  0.2789
  352MOL0     C47439   4.512   0.554  11.252 -0.1444  0.0072 -0.1332
  352MOL0     C47440   4.572   0.428  11.271 -0.5629 -0.4050 -0.1900
  352MOL0     C47441   4.494   0.315  11.279 -0.1738 -0.3126 -0.2183
  352MOL0     C47442   4.352   0.326  11.279  0.1908 -1.0868  0.8395
  352MOL0     O47443   4.289   0.206  11.285 -0.5155 -0.1142  0.0335
  352MOL0     C47444   4.151   0.194  11.241  0.9288 -1.0291 -0.0655
  352MOL0     C47445   4.119   0.049  11.201  0.5345  0.2164  0.0639
  352MOL0     C47446   4.199   0.010  11.078  0.0661 -0.0647  0.1372
  352MOL0     C47447   4.169  -0.135  11.036  0.3310  0.9964 -0.3659
  352MOL0     C47448   4.233  -0.147  10.910  0.2298 -0.1453  0.6515
  352MOL0     C47449   4.278  -0.166  10.802 -1.0485  0.5558 -0.0458
  352MOL0     C47450   4.289   0.454  11.260  0.1213  0.1165  0.0696
  352MOL0     C47451   4.373   0.567  11.247 -0.2978 -0.1535  0.7424
  352MOL0     C47452   4.304   0.699  11.226 -0.3479  0.5348  0.5303
  352MOL0     H47453   4.730   0.830  11.058 -1.1736  3.0005  3.7275
  352MOL0     H47454   4.929   0.915  10.947  3.6235  1.3163  0.5796
  352MOL0     H47455   5.335   0.790  11.089  0.4819 -1.0677  0.4186
  352MOL0     H47456   5.248   0.709  10.957 -1.5914 -0.0276  1.0810
  352MOL0     H47457   5.422   0.955  10.917  0.1524 -0.8440  2.9186
  352MOL0     H47458   5.300   0.894  10.803  0.9149  1.7933 -0.3012
  352MOL0     H47459   5.419   0.674  10.826  1.2903 -0.0883 -0.3475
  352MOL0     H47460   5.536   0.726  10.936  1.5946  1.6802  0.4624
  352MOL0     H47461   5.482   0.847  10.666  0.5415  0.8494  0.2279
  352MOL0     H47462   5.596   0.913  10.785 -2.9563  0.0880  3.1830
  352MOL0     H47463   5.737   0.693  10.749 -1.3948 -2.7481 -0.1586
  352MOL0     H47464   5.605   0.640  10.651  1.1716 -0.9419  0.9408
  352MOL0     H47465   5.645   0.792  10.476  0.0193 -0.4851 -1.1037
  352MOL0     H47466   5.730   0.902  10.579 -3.2159  0.2321  1.2838
  352MOL0     H47467   5.887   0.790  10.421 -0.2890 -0.2237  0.2887
  352MOL0     H47468   5.851   0.631  10.479  2.9781 -0.8851  2.3132
  352MOL0     H47469   5.951   0.681  10.699 -2.8532 -1.1089 -1.3804
  352MOL0     H47470   6.063   0.703  10.568 -0.0303  0.8269 -1.8751
  352MOL0     H47471   5.893   0.916  10.840 -1.2928 -0.6764 -0.4913
  352MOL0     H47472   5.976   1.190  10.929 -0.8107  2.1712  0.4128
  352MOL0     H47473   6.027   1.280  10.793  1.1603 -2.0576 -1.8000
  352MOL0     H47474   5.805   1.282  10.693 -1.9092 -0.0607 -0.1485
  352MOL0     H47475   5.754   1.155  10.812 -0.4161  0.3154 -1.4462
  352MOL0     H47476   5.834   1.439  10.895 -2.0852  0.8841 -1.4546
  352MOL0     H47477   5.782   1.326  11.001 -0.2081 -1.1204 -0.1736
  352MOL0     H47478   5.611   1.403  10.767  1.1564 -3.1711 -0.7082
  352MOL0     H47479   5.603   1.489  10.922  2.1766  0.5398 -3.0379
  352MOL0     H47480   5.342   1.122  10.979  0.3347 -0.1734 -0.1402
  352MOL0     H47481   5.115   1.142  10.961 -1.3266  0.4896  2.0815
  352MOL0     H47482   4.763   1.414  10.706 -0.6167  0.1903 -0.3324
  352MOL0     H47483   4.519   1.437  10.716 -1.0162 -0.3624  1.7500
  352MOL0     H47484   4.338   1.498  10.815  0.4761 -1.2014  1.1026
  352MOL0     H47485   4.264   1.393  10.690 -0.8922  1.9452 -0.3708
  352MOL0     H47486   4.146   1.371  10.964  0.8815 -2.0122 -0.5468
  352MOL0     H47487   4.120   1.523  10.853  1.6383 -0.4152  1.4926
  352MOL0     H47488   4.026   1.362  10.684 -1.0209  3.2079  0.9237
  352MOL0     H47489   4.063   1.227  10.799 -0.0251  0.0014  2.7689
  352MOL0     H47490   3.853   1.441  10.846  0.5653  1.0551  1.1081
  352MOL0     H47491   3.900   1.319  10.965  0.5354  5.4258  0.4110
  352MOL0     H47492   3.854   1.139  10.805 -0.2976  0.0094 -5.2611
  352MOL0     H47493   3.782   1.257  10.700  2.1439 -1.0476 -1.0244
  352MOL0     H47494   3.717   1.217  10.994 -0.6486  0.1076  0.8873
  352MOL0     H47495   3.629   1.327  10.887  0.8367 -0.3646  0.4708
  352MOL0     H47496   3.551   1.071  10.944  1.1545  0.4488 -0.2967
  352MOL0     H47497   3.648   1.033  10.808  0.1414 -2.5301  2.9247
  352MOL0     H47498   3.395   1.084  10.771 -0.0702  0.7241  2.7708
  352MOL0     H47499   3.463   1.260  10.782  4.3634  1.2718  0.1262
  352MOL0     H47500   4.471   1.107  10.979 -1.6845  0.1135 -1.1172
  352MOL0     H47501   4.738   1.118  11.008  2.8450  1.5099  0.0195
  352MOL0     H47502   5.148   1.555  10.857  0.5481 -0.5541 -1.8015
  352MOL0     H47503   5.389   1.539  10.843  0.1933 -0.5932  1.3076
  352MOL0     H47504   5.183   0.727  11.244  0.2821  1.0325  0.0783
  352MOL0     H47505   4.996   0.626  11.351  2.2306  1.0744  0.1200
  352MOL0     H47506   4.679   0.418  11.287 -0.7961 -0.0063  1.7934
  352MOL0     H47507   4.534   0.215  11.289  2.6035  0.8767  1.8265
  352MOL0     H47508   4.120   0.256  11.156  1.9800 -0.9267 -0.3910
  352MOL0     H47509   4.088   0.237  11.319  0.5445 -1.0544 -0.3617
  352MOL0     H47510   4.013   0.035  11.183  1.3047 -3.3393 -2.9029
  352MOL0     H47511   4.155  -0.020  11.278  2.0732 -0.9729 -1.6509
  352MOL0     H47512   4.301   0.013  11.115 -0.2514 -0.7805  1.0845
  352MOL0     H47513   4.172   0.078  10.996 -1.4156 -1.8712 -0.9596
  352MOL0     H47514   4.218  -0.201  11.109 -0.9260 -0.1692 -0.5271
  352MOL0     H47515   4.061  -0.145  11.030  0.4704 -0.1140 -2.0718
  352MOL0     H47516   4.332  -0.189  10.712 -0.4114  2.6855 -0.2626
  352MOL0     H47517   4.183   0.479  11.250 -0.0113  0.6925  2.3575
  352MOL0     H47518   4.333   0.777  11.296  4.3901  1.0106 -1.5548
  352MOL0     H47519   4.320   0.740  11.125  2.9637  2.1593  1.5916
  352MOL0     H47520   4.196   0.682  11.221 -0.4000  1.0897 -3.1374
  353MOL0     O47521   6.241   7.384   1.769 -0.2536  0.4276  0.1743
  353MOL0     C47522   6.158   7.291   1.741 -0.6190 -0.8148  0.6163
  353MOL0     O47523   6.200   7.174   1.694  0.9173  0.2280 -0.2153
  353MOL0     C47524   6.293   7.118   1.786 -0.1639 -0.6182 -0.6116
  353MOL0     C47525   6.431   7.122   1.760  0.1138 -0.0059 -0.6015
  353MOL0     C47526   6.525   7.068   1.847 -0.3374  0.4860 -0.4303
  353MOL0     C47527   6.479   7.022   1.972  0.7825 -0.1427 -0.9176
  353MOL0     O47528   6.570   6.980   2.069  0.4173  0.0728  0.3671
  353MOL0     C47529   6.540   6.895   2.190 -0.6193 -0.1363 -0.0841
  353MOL0     C47530   6.589   6.752   2.158 -0.0970  0.3572  0.3275
  353MOL0     C47531   6.536   6.681   2.028 -0.0619 -0.7741  0.1504
  353MOL0     C47532   6.410   6.594   2.057 -0.0829  0.5728 -0.3440
  353MOL0     C47533   6.341   6.554   1.927 -0.6037  0.0977  1.0682
  353MOL0     C47534   6.262   6.667   1.862  0.9560 -0.5748 -0.4181
  353MOL0     C47535   6.150   6.619   1.763  0.2491 -0.2091 -0.3337
  353MOL0     C47536   6.136   6.735   1.660 -0.1952 -0.0906  0.1296
  353MOL0     N47537   6.238   6.732   1.552 -0.4460 -0.4499  0.3492
  353MOL0     C47538   6.343   6.640   1.552  0.0937  0.1650 -0.2768
  353MOL0     C47539   6.420   6.680   1.448 -0.3080  1.1274  0.0160
  353MOL0     C47540   6.537   6.609   1.395 -0.1021 -0.3140 -0.4624
  353MOL0     C47541   6.667   6.689   1.411 -0.0644 -0.0253  0.1889
  353MOL0     C47542   6.693   6.744   1.560 -0.2119  0.4249  0.9271
  353MOL0     C47543   6.795   6.661   1.624  1.5573  0.8133 -0.4966
  353MOL0     O47544   6.813   6.708   1.756  0.7373 -0.2199 -0.0885
  353MOL0     C47545   6.941   6.730   1.802  0.3702  0.4590 -0.2436
  353MOL0     C47546   7.051   6.644   1.760  0.4519 -0.9322  0.2079
  353MOL0     C47547   7.168   6.660   1.810 -0.7301  0.2253 -0.3948
  353MOL0     C47548   7.194   6.756   1.908 -0.0592  0.4524  0.5758
  353MOL0     C47549   7.326   6.763   1.971 -0.1642 -0.3609 -0.7163
  353MOL0     O47550   7.359   6.884   2.027  0.2032  0.3243  0.3607
  353MOL0     C47551   7.482   6.893   2.081 -0.0147  0.3282  0.2966
  353MOL0     C47552   7.586   6.924   1.999 -0.9452 -0.0135 -0.1000
  353MOL0     C47553   7.719   6.927   2.046  0.0512  0.3729  0.6481
  353MOL0     C47554   7.748   6.897   2.176  0.1879 -0.7150 -0.5759
  353MOL0     O47555   7.879   6.903   2.217 -0.0179 -0.1172 -0.3153
  353MOL0     C47556   7.931   6.818   2.321  0.6338 -0.9864  0.5494
  353MOL0     C47557   8.073   6.853   2.364 -0.3791 -0.2463 -0.5127
  353MOL0     C47558   8.126   6.772   2.481  0.8380 -0.0642  0.3189
  353MOL0     C47559   8.268   6.822   2.510 -0.3703 -0.1225  0.1588
  353MOL0     C47560   8.362   6.701   2.533  0.0096  0.3937 -0.0966
  353MOL0     C47561   8.508   6.724   2.572 -0.0491 -0.0190  0.1962
  353MOL0     C47562   8.517   6.800   2.703  0.9217 -0.4059 -0.0555
  353MOL0     C47563   8.638   6.761   2.788  0.7862 -0.3856  0.4310
  353MOL0    Cl47564   8.796   6.786   2.707 -0.3728 -0.6509  0.2039
  353MOL0     C47565   7.637   6.872   2.265  0.6198 -0.3188 -0.4644
  353MOL0     C47566   7.506   6.875   2.218  0.0515  0.0581  0.3858
  353MOL0     O47567   7.401   6.661   1.967  0.1460  0.1329  0.0115
  353MOL0     C47568   7.092   6.842   1.948 -0.1602 -0.5236 -0.5915
  353MOL0     C47569   6.966   6.840   1.889 -0.2168 -0.6980  0.4839
  353MOL0     N47570   6.374   6.793   1.390  0.2998 -0.2749 -0.0604
  353MOL0     N47571   6.264   6.821   1.450  0.2834  0.4247 -0.9622
  353MOL0     C47572   6.343   7.010   1.994 -0.1641 -0.0404 -0.1188
  353MOL0     C47573   6.252   7.055   1.898 -0.7566 -0.7296  0.5628
  353MOL0     C47574   6.014   7.329   1.732 -1.1978  0.3482 -0.0718
  353MOL0     C47575   5.987   7.452   1.799  0.7845  1.1768 -0.6653
  353MOL0     C47576   5.860   7.493   1.808 -0.3282  0.3349 -0.1776
  353MOL0     C47577   5.753   7.421   1.754  0.1493 -0.6818  0.0078
  353MOL0     O47578   5.627   7.469   1.776  0.1556  0.0174 -0.4283
  353MOL0     C47579   5.535   7.458   1.668  0.9231  0.7192  0.5027
  353MOL0     C47580   5.396   7.454   1.720  0.0671  0.4082  0.2675
  353MOL0     C47581   5.315   7.416   1.592  0.0773  0.4144  1.0091
  353MOL0     C47582   5.163   7.417   1.609 -0.3300  0.1624 -0.3049
  353MOL0     C47583   5.127   7.317   1.717  1.0028  0.2589  0.2981
  353MOL0     C47584   5.109   7.232   1.796  0.2115 -0.0933 -0.6280
  353MOL0     C47585   5.776   7.288   1.711  0.5639 -0.6935 -0.2266
  353MOL0     C47586   5.904   7.250   1.690  0.3721  0.0626  0.8661
  353MOL0     C47587   5.920   7.111   1.623  0.6792 -1.0665 -0.4176
  353MOL0     H47588   6.468   7.168   1.669  2.5182  0.5153  0.5601
  353MOL0     H47589   6.628   7.064   1.812 -0.4617  0.7913 -0.8313
  353MOL0     H47590   6.592   6.932   2.280  0.1285 -0.1888 -0.4833
  353MOL0     H47591   6.432   6.884   2.204 -0.7801 -1.2140 -1.8334
  353MOL0     H47592   6.573   6.691   2.248  0.0993 -0.0358  0.0966
  353MOL0     H47593   6.698   6.749   2.154  0.2451  0.8013  4.3948
  353MOL0     H47594   6.621   6.628   1.983  0.0260  0.3037 -1.0034
  353MOL0     H47595   6.522   6.757   1.951 -2.5892  0.7830  2.0113
  353MOL0     H47596   6.442   6.505   2.112  0.5059  1.5403  0.9353
  353MOL0     H47597   6.347   6.651   2.126  3.9071  3.3495  1.3697
  353MOL0     H47598   6.422   6.528   1.858 -2.5598  1.7914 -2.0941
  353MOL0     H47599   6.284   6.464   1.953 -0.1415 -0.5437 -0.0753
  353MOL0     H47600   6.209   6.723   1.940  2.1462 -0.2568  0.1905
  353MOL0     H47601   6.326   6.738   1.809 -1.0428  0.7174 -1.2121
  353MOL0     H47602   6.051   6.594   1.804  0.0288  0.8701 -0.1955
  353MOL0     H47603   6.187   6.529   1.712 -1.7782  0.2118 -2.6938
  353MOL0     H47604   6.037   6.734   1.612  0.2757  1.9396 -0.9785
  353MOL0     H47605   6.125   6.836   1.702 -2.5904 -1.5239  3.4565
  353MOL0     H47606   6.361   6.553   1.614 -0.1808 -1.0203 -1.7925
  353MOL0     H47607   6.541   6.509   1.440  0.8356  0.3338  0.9577
  353MOL0     H47608   6.507   6.597   1.290 -0.0808  1.5586 -0.7073
  353MOL0     H47609   6.752   6.624   1.389 -0.3349 -0.9905  1.8795
  353MOL0     H47610   6.673   6.777   1.346  0.6802 -0.6704 -0.6397
  353MOL0     H47611   6.597   6.745   1.613 -1.9060 -1.7613 -1.7528
  353MOL0     H47612   6.730   6.846   1.569  0.4085  0.0196  3.4796
  353MOL0     H47613   6.881   6.654   1.557  2.5615 -0.7684  0.8670
  353MOL0     H47614   6.759   6.559   1.636  0.8689  0.7707 -2.5081
  353MOL0     H47615   7.034   6.569   1.683 -1.1727 -1.8367  1.3575
  353MOL0     H47616   7.236   6.582   1.776  0.9184  1.1631  0.6503
  353MOL0     H47617   7.560   6.956   1.898 -0.8648 -0.5777 -0.3069
  353MOL0     H47618   7.800   6.952   1.978  0.0535 -2.9475 -0.7228
  353MOL0     H47619   7.874   6.812   2.415  1.4276 -1.4527  1.0195
  353MOL0     H47620   7.920   6.718   2.278 -0.2968 -1.6330  2.1871
  353MOL0     H47621   8.143   6.841   2.280  2.7211 -2.2551  2.1213
  353MOL0     H47622   8.071   6.953   2.410  2.7415 -0.4089  0.1798
  353MOL0     H47623   8.070   6.790   2.573  3.5811 -3.1088  2.8639
  353MOL0     H47624   8.122   6.666   2.454 -1.3862 -0.5508  2.1748
  353MOL0     H47625   8.273   6.900   2.586  0.1151 -0.5976  0.6244
  353MOL0     H47626   8.300   6.880   2.422  1.1539  0.7085  1.2087
  353MOL0     H47627   8.369   6.638   2.444  1.8218 -0.6573  0.7439
  353MOL0     H47628   8.312   6.638   2.607 -0.8482 -2.3306 -2.8021
  353MOL0     H47629   8.558   6.628   2.588  1.2751  0.2330 -1.9502
  353MOL0     H47630   8.564   6.770   2.490  0.6038  0.4603  0.9046
  353MOL0     H47631   8.430   6.786   2.768  0.7089 -1.4301 -0.5485
  353MOL0     H47632   8.532   6.907   2.687 -0.5046 -0.0974  0.5134
  353MOL0     H47633   8.628   6.818   2.881 -0.2404 -0.7949  0.5892
  353MOL0     H47634   8.630   6.656   2.818 -0.0354 -0.8680 -1.3604
  353MOL0     H47635   7.647   6.852   2.371 -2.5403 -1.0240 -0.2028
  353MOL0     H47636   7.418   6.860   2.281 -0.9086  1.8936 -0.4314
  353MOL0     H47637   7.109   6.927   2.013  2.5416 -1.1524 -0.3752
  353MOL0     H47638   6.889   6.912   1.917  0.5688 -0.3766  1.9174
  353MOL0     H47639   6.297   6.983   2.089 -2.7157  2.9897 -0.3499
  353MOL0     H47640   6.146   7.052   1.922 -1.0487  0.5896 -0.4375
  353MOL0     H47641   6.067   7.514   1.838 -0.5718  1.8369  1.1731
  353MOL0     H47642   5.842   7.583   1.867 -1.5739 -0.7252  1.1440
  353MOL0     H47643   5.550   7.372   1.602 -0.3178  0.4895  0.4976
  353MOL0     H47644   5.549   7.551   1.612  0.4911  0.9535  0.7774
  353MOL0     H47645   5.359   7.555   1.742  1.4743  1.1858 -0.8031
  353MOL0     H47646   5.388   7.388   1.806  0.4979 -1.2438 -0.9074
  353MOL0     H47647   5.333   7.312   1.561  0.7640  0.5870  0.8209
  353MOL0     H47648   5.340   7.471   1.501 -1.3488 -1.3854 -0.5701
  353MOL0     H47649   5.124   7.517   1.632  1.3804  1.2758 -2.0091
  353MOL0     H47650   5.121   7.393   1.511  1.5659 -0.8079 -0.9090
  353MOL0     H47651   5.089   7.151   1.863 -1.2072  1.3419  0.7681
  353MOL0     H47652   5.697   7.217   1.689 -0.6187  0.1335  1.1310
  353MOL0     H47653   5.822   7.062   1.618 -0.8130  1.1445  3.0966
  353MOL0     H47654   5.970   7.130   1.527  0.6121  1.6727 -0.0148
  353MOL0     H47655   5.979   7.039   1.680  1.9980  1.4456  1.6420
  354MOL0     O47656   0.178   7.092   0.793  0.0719  0.3960  0.0505
  354MOL0     C47657   0.124   7.150   0.890  0.3999  0.0383  0.3793
  354MOL0     O47658   0.189   7.187   1.011  0.3646 -0.4519 -0.2041
  354MOL0     C47659   0.318   7.159   1.036 -0.1377  0.4960 -0.1803
  354MOL0     C47660   0.424   7.160   0.942  1.3979  0.4729 -0.0614
  354MOL0     C47661   0.554   7.151   0.989  0.4377 -0.2659 -0.2510
  354MOL0     C47662   0.595   7.145   1.122  0.7783 -0.6013  0.6604
  354MOL0     O47663   0.725   7.136   1.172 -0.3465  0.6080 -0.6930
  354MOL0     C47664   0.830   7.117   1.081  0.7794  0.2154 -1.0473
  354MOL0     C47665   0.949   7.087   1.165 -1.3611 -0.6190  1.3571
  354MOL0     C47666   1.060   7.056   1.066  0.3799  0.1933  0.5612
  354MOL0     C47667   1.193   7.035   1.135 -0.2646 -0.3841  0.7336
  354MOL0     C47668   1.309   7.013   1.030 -0.7431 -1.0305  0.2005
  354MOL0     C47669   1.447   7.009   1.103  0.9117  0.3611  0.5764
  354MOL0     C47670   1.562   6.975   1.007  0.4765 -0.3067 -0.5546
  354MOL0     C47671   1.695   6.951   1.078  0.0279 -0.4005 -0.2766
  354MOL0     N47672   1.800   6.951   0.983 -0.1463  0.1197 -0.1678
  354MOL0     C47673   1.848   6.834   0.915 -0.3684 -0.0321 -0.1552
  354MOL0     C47674   1.964   6.869   0.854  0.7452  0.2564  0.3743
  354MOL0     C47675   2.058   6.778   0.773 -0.2880  0.5911 -1.1389
  354MOL0     C47676   2.193   6.769   0.857 -0.2533 -0.1258  0.2597
  354MOL0     C47677   2.180   6.697   0.988  0.1733  0.6660 -0.1282
  354MOL0     C47678   2.308   6.705   1.086 -0.2080 -0.0475  0.4136
  354MOL0     O47679   2.436   6.702   1.021  0.0463  0.4472 -0.6653
  354MOL0     C47680   2.461   6.592   0.942 -0.5291 -0.0013  0.0948
  354MOL0     C47681   2.547   6.616   0.836  0.7794  1.1591  1.4847
  354MOL0     C47682   2.604   6.516   0.764 -0.3368 -0.0225 -0.1395
  354MOL0     C47683   2.571   6.380   0.796 -0.0323 -0.4672 -0.0052
  354MOL0     C47684   2.643   6.277   0.723 -0.1053  0.6284 -0.8577
  354MOL0     O47685   2.589   6.145   0.729  0.2220  0.1697 -0.0532
  354MOL0     C47686   2.647   6.043   0.654  0.8838 -0.2519 -0.1460
  354MOL0     C47687   2.758   5.977   0.707  0.2286 -0.5588  0.5669
  354MOL0     C47688   2.824   5.883   0.628  0.4367 -0.0571 -0.1354
  354MOL0     C47689   2.765   5.829   0.509 -0.4867 -1.1176 -0.1579
  354MOL0     O47690   2.830   5.729   0.440  0.0743 -0.0868  0.2575
  354MOL0     C47691   2.749   5.610   0.407  0.0895 -0.5907  0.3554
  354MOL0     C47692   2.804   5.507   0.509  0.0929  0.3494 -0.0685
  354MOL0     C47693   2.730   5.369   0.510  0.1368  0.2115  0.3741
  354MOL0     C47694   2.742   5.288   0.375 -0.9000 -0.8038  0.1533
  354MOL0     C47695   2.883   5.237   0.345 -0.1074  0.9294  0.1297
  354MOL0     C47696   2.904   5.141   0.220 -0.8431 -0.5653  0.1724
  354MOL0     C47697   3.040   5.068   0.210  0.2195  0.0829  0.3233
  354MOL0     C47698   3.049   4.940   0.134  0.5572  0.4630  0.4340
  354MOL0    Cl47699   2.941   4.967  -0.006  0.6522 -0.5208 -0.0119
  354MOL0     C47700   2.643   5.890   0.466  1.3807  0.3208  0.3231
  354MOL0     C47701   2.585   5.998   0.540  0.3431  0.9848 -0.2642
  354MOL0     O47702   2.737   6.309   0.661 -0.0036 -0.3672 -0.3986
  354MOL0     C47703   2.480   6.345   0.901 -0.3986 -0.6168 -0.1027
  354MOL0     C47704   2.414   6.458   0.964  0.6345 -0.2627 -1.1583
  354MOL0     N47705   1.987   7.005   0.886  0.3680  0.3094 -1.0114
  354MOL0     N47706   1.895   7.044   0.964 -0.6539  0.4743 -0.0873
  354MOL0     C47707   0.489   7.134   1.205  0.1647 -0.5612 -0.5505
  354MOL0     C47708   0.355   7.136   1.168 -0.0697  0.4440 -0.5995
  354MOL0     C47709  -0.020   7.169   0.883  0.8897  0.3744 -1.6814
  354MOL0     C47710  -0.095   7.126   0.773  0.1984 -1.1350 -0.3297
  354MOL0     C47711  -0.234   7.134   0.762  1.1800 -0.4523 -0.4594
  354MOL0     C47712  -0.314   7.191   0.866  0.2870 -0.3596 -0.9524
  354MOL0     O47713  -0.454   7.220   0.863  0.3838 -0.7322 -0.5351
  354MOL0     C47714  -0.519   7.207   0.732  1.1387  0.0409  0.3169
  354MOL0     C47715  -0.653   7.288   0.741 -0.3097  0.5354  1.0515
  354MOL0     C47716  -0.639   7.434   0.789 -0.1738  0.8645  0.4971
  354MOL0     C47717  -0.665   7.443   0.939  1.4722 -0.2551  0.2751
  354MOL0     C47718  -0.808   7.410   0.977 -0.2787 -0.3951  0.3626
  354MOL0     C47719  -0.922   7.387   1.015  0.8612  0.1162 -0.4643
  354MOL0     C47720  -0.243   7.219   0.983 -0.3225  0.9802 -0.1389
  354MOL0     C47721  -0.104   7.203   0.997 -1.0030  0.9541  0.0032
  354MOL0     C47722  -0.056   7.248   1.136  0.5436  0.1014  0.4395
  354MOL0     H47723   0.401   7.168   0.836  0.9637 -3.4914 -0.4149
  354MOL0     H47724   0.633   7.162   0.915  2.8850  0.2833  2.2864
  354MOL0     H47725   0.819   7.029   1.018 -0.1256 -1.3545  1.1918
  354MOL0     H47726   0.840   7.200   1.009 -1.4780  1.2788 -0.2137
  354MOL0     H47727   0.935   7.006   1.238  0.6845  0.3185  2.8850
  354MOL0     H47728   0.983   7.170   1.227 -2.0371 -1.0242  2.2967
  354MOL0     H47729   1.081   7.138   0.997  1.3300 -1.0119 -0.6501
  354MOL0     H47730   1.040   6.960   1.015 -0.9865 -1.3002  3.6614
  354MOL0     H47731   1.209   7.126   1.193 -1.4359 -1.4832  2.9191
  354MOL0     H47732   1.189   6.955   1.210 -1.6012 -1.7265 -0.7176
  354MOL0     H47733   1.288   6.923   0.971 -0.4906 -1.3973  0.6586
  354MOL0     H47734   1.315   7.100   0.964  2.3063  0.3861  2.1396
  354MOL0     H47735   1.464   7.093   1.170 -0.6081  0.3959  0.9610
  354MOL0     H47736   1.425   6.924   1.168 -0.7594  1.0167  0.9146
  354MOL0     H47737   1.572   7.062   0.941 -1.1476 -0.0549 -0.5017
  354MOL0     H47738   1.548   6.882   0.952 -1.1862 -0.4448  0.0794
  354MOL0     H47739   1.716   7.033   1.147 -0.8578  0.7038 -1.2742
  354MOL0     H47740   1.695   6.856   1.133 -0.2035 -1.3630 -1.8681
  354MOL0     H47741   1.805   6.734   0.916 -1.9026  0.5854 -0.9303
  354MOL0     H47742   2.026   6.674   0.761 -1.1981 -0.1079  4.3878
  354MOL0     H47743   2.078   6.829   0.678  0.1367  1.8122 -0.4148
  354MOL0     H47744   2.266   6.716   0.795  1.1398  0.1632  1.6047
  354MOL0     H47745   2.230   6.870   0.878  1.2964  0.1290 -3.0207
  354MOL0     H47746   2.164   6.597   0.944  0.6431  1.2133 -1.6298
  354MOL0     H47747   2.091   6.733   1.040  1.8701  3.8122  0.8391
  354MOL0     H47748   2.301   6.616   1.149  1.5794  2.5233  4.6910
  354MOL0     H47749   2.313   6.796   1.146 -1.1750  0.7988 -0.7439
  354MOL0     H47750   2.573   6.721   0.820 -1.5470  1.5155 -0.3918
  354MOL0     H47751   2.673   6.535   0.683  1.3816 -1.2446  0.9724
  354MOL0     H47752   2.798   6.018   0.799 -2.5631 -1.1071  2.1441
  354MOL0     H47753   2.920   5.854   0.669 -0.1296  0.9561  2.0737
  354MOL0     H47754   2.641   5.617   0.425  0.0331 -0.1541 -0.1410
  354MOL0     H47755   2.780   5.577   0.308  2.5544  0.5948  0.6528
  354MOL0     H47756   2.911   5.498   0.493  0.3674 -1.0616  2.0090
  354MOL0     H47757   2.806   5.553   0.609  0.6961  0.1971 -0.0083
  354MOL0     H47758   2.763   5.316   0.601 -2.1696  0.1558  1.2279
  354MOL0     H47759   2.624   5.377   0.535  0.5193 -0.3300  2.3856
  354MOL0     H47760   2.712   5.347   0.288  0.4165 -0.4588 -0.0996
  354MOL0     H47761   2.672   5.205   0.376 -0.6121 -1.0480  0.8096
  354MOL0     H47762   2.916   5.181   0.433 -1.9187  1.6322  1.3067
  354MOL0     H47763   2.952   5.321   0.335  0.5074  0.4897  0.5965
  354MOL0     H47764   2.828   5.064   0.231 -3.1163  0.9716 -3.0003
  354MOL0     H47765   2.886   5.192   0.124  0.5080 -2.7135 -1.3035
  354MOL0     H47766   3.066   5.046   0.314 -2.8029  0.7019  1.2896
  354MOL0     H47767   3.113   5.137   0.167 -1.2632  1.9291  0.6745
  354MOL0     H47768   3.152   4.915   0.106  0.6449  0.9037  0.3638
  354MOL0     H47769   2.998   4.858   0.186 -2.9035  1.1988 -1.4295
  354MOL0     H47770   2.585   5.840   0.389 -0.1610 -1.7725  2.6508
  354MOL0     H47771   2.487   6.043   0.527 -1.4666 -2.3522  0.7310
  354MOL0     H47772   2.442   6.251   0.939 -1.4365  0.0193  0.4581
  354MOL0     H47773   2.345   6.430   1.043  0.6244 -0.6894 -1.3150
  354MOL0     H47774   0.506   7.121   1.312 -2.4054 -0.3525 -0.0338
  354MOL0     H47775   0.284   7.125   1.249  0.3700 -0.2082 -0.3065
  354MOL0     H47776  -0.040   7.089   0.688  1.5698  0.3829 -0.1403
  354MOL0     H47777  -0.273   7.084   0.673 -0.3308 -3.6118  1.7897
  354MOL0     H47778  -0.541   7.103   0.707  1.7616  0.7298 -3.7921
  354MOL0     H47779  -0.458   7.250   0.652 -2.4570  0.5750 -2.3506
  354MOL0     H47780  -0.712   7.232   0.813  0.5172 -2.4913 -0.4884
  354MOL0     H47781  -0.722   7.271   0.658  0.7974 -1.6640  0.5099
  354MOL0     H47782  -0.713   7.494   0.735  0.8527  3.1215  1.4620
  354MOL0     H47783  -0.536   7.462   0.767  1.3560 -3.5293  1.0781
  354MOL0     H47784  -0.610   7.371   1.000  0.4862 -0.1257  1.3483
  354MOL0     H47785  -0.645   7.544   0.975 -2.5042  0.2215  1.6349
  354MOL0     H47786  -1.017   7.366   1.060  1.5079 -2.1309 -0.0041
  354MOL0     H47787  -0.306   7.261   1.061 -1.0478 -2.9475  1.6010
  354MOL0     H47788   0.016   7.330   1.126 -0.2602  0.5625 -2.5498
  354MOL0     H47789  -0.137   7.284   1.200  1.8221 -0.7589  2.6506
  354MOL0     H47790  -0.022   7.157   1.186 -1.5720 -0.5807  0.7474
  355MOL0     O47791   2.999   6.298   7.250 -0.1808 -0.2939  0.5611
  355MOL0     C47792   2.955   6.337   7.146 -0.0939 -0.4402 -0.9086
  355MOL0     O47793   3.022   6.347   7.021  0.1146 -0.6569  0.2405
  355MOL0     C47794   3.152   6.303   7.021 -0.2432 -0.1697  0.5621
  355MOL0     C47795   3.246   6.390   7.065 -0.9035  0.3612 -0.3118
  355MOL0     C47796   3.386   6.351   7.079  0.5985 -0.8771 -0.0136
  355MOL0     C47797   3.429   6.228   7.037 -0.4467  0.5285  0.1132
  355MOL0     O47798   3.557   6.185   7.036 -0.0671 -0.4472  0.0300
  355MOL0     C47799   3.664   6.257   7.102 -0.1095  0.6830  1.0399
  355MOL0     C47800   3.790   6.177   7.076 -0.4198  0.0488 -0.0921
  355MOL0     C47801   3.903   6.233   7.160 -0.7102 -0.0836  0.2944
  355MOL0     C47802   4.029   6.205   7.083 -0.5121 -0.1656 -0.2974
  355MOL0     C47803   4.143   6.225   7.176  1.0784 -0.7510 -1.2004
  355MOL0     C47804   4.281   6.210   7.115  0.4607 -0.1503  0.1589
  355MOL0     C47805   4.395   6.207   7.216 -0.9744 -1.1080  0.0661
  355MOL0     C47806   4.432   6.350   7.274  0.0366 -0.0461 -0.2829
  355MOL0     N47807   4.549   6.324   7.366  0.2271 -0.5183 -0.1475
  355MOL0     C47808   4.672   6.272   7.325 -0.5620  0.3799 -0.5339
  355MOL0     C47809   4.759   6.304   7.429  0.0079 -0.3025  0.1652
  355MOL0     C47810   4.906   6.270   7.425  0.3018 -0.4557 -0.1184
  355MOL0     C47811   4.942   6.125   7.474 -0.2816  0.1190 -0.6000
  355MOL0     C47812   5.084   6.113   7.549  0.0384  0.1149 -0.5986
  355MOL0     C47813   5.212   6.118   7.465  0.1803  0.4022 -0.5428
  355MOL0     O47814   5.210   6.225   7.381  0.3252  0.1724 -0.7144
  355MOL0     C47815   5.327   6.281   7.331  0.1273 -0.7676  0.1577
  355MOL0     C47816   5.331   6.415   7.295  0.5221 -0.9595  0.1544
  355MOL0     C47817   5.445   6.478   7.241 -0.1140 -0.1009 -0.4840
  355MOL0     C47818   5.565   6.403   7.228  1.3035  0.2689  0.2028
  355MOL0     C47819   5.689   6.462   7.206 -0.6084  0.0614  0.5118
  355MOL0     O47820   5.805   6.406   7.256  0.4928  0.5596  0.6812
  355MOL0     C47821   5.920   6.472   7.268 -0.6599  0.4657 -0.0501
  355MOL0     C47822   5.927   6.595   7.325 -0.6381  0.7073  0.7749
  355MOL0     C47823   6.055   6.657   7.337  0.3288 -0.3504 -0.0701
  355MOL0     C47824   6.178   6.602   7.294 -0.8991 -0.4633  0.6313
  355MOL0     O47825   6.297   6.668   7.309 -0.0634  0.3741 -0.0792
  355MOL0     C47826   6.296   6.814   7.324 -0.5345 -0.9684  0.3852
  355MOL0     C47827   6.432   6.875   7.293  0.2269  0.2776  0.6163
  355MOL0     C47828   6.429   7.021   7.279  0.2850  0.1058 -0.3322
  355MOL0     C47829   6.549   7.071   7.212  0.0277  0.5217 -0.3592
  355MOL0     C47830   6.547   7.219   7.193 -0.4949  1.3068 -0.3758
  355MOL0     C47831   6.686   7.268   7.161  0.1627 -0.7851  0.0089
  355MOL0     C47832   6.759   7.201   7.043 -0.7093 -0.8088 -0.0532
  355MOL0     C47833   6.889   7.277   7.003 -0.6457  0.0500  1.1529
  355MOL0    Cl47834   6.988   7.307   7.153  0.1246 -0.4262  0.1363
  355MOL0     C47835   6.170   6.468   7.251  0.2191 -0.3657 -0.6505
  355MOL0     C47836   6.043   6.406   7.232 -0.2343  0.5764 -0.4182
  355MOL0     O47837   5.682   6.577   7.153  0.7255  0.1413  0.3338
  355MOL0     C47838   5.563   6.268   7.265  0.0728 -0.5441 -0.0974
  355MOL0     C47839   5.445   6.210   7.300  0.7033  0.3409  0.2916
  355MOL0     N47840   4.693   6.371   7.523  0.9450  0.1040 -0.5302
  355MOL0     N47841   4.569   6.384   7.487 -0.2387 -0.4611 -0.5866
  355MOL0     C47842   3.323   6.141   6.988 -0.7342 -0.3091  0.3714
  355MOL0     C47843   3.193   6.171   6.988 -0.8965 -0.2665  0.6687
  355MOL0     C47844   2.814   6.370   7.134  0.7900  0.8849  0.0380
  355MOL0     C47845   2.759   6.413   7.004  0.3545 -0.4197 -0.8013
  355MOL0     C47846   2.618   6.431   6.987 -0.0080 -1.1547 -0.4613
  355MOL0     C47847   2.527   6.417   7.087  0.0111 -0.8060  0.0384
  355MOL0     O47848   2.401   6.459   7.062 -0.0825 -0.4814  0.0734
  355MOL0     C47849   2.315   6.479   7.177 -0.0835 -0.3654 -0.2850
  355MOL0     C47850   2.186   6.534   7.128  0.0332  0.3151 -0.4878
  355MOL0     C47851   2.095   6.429   7.080 -1.0018  0.8858  0.2911
  355MOL0     C47852   1.947   6.478   7.054 -0.8554 -0.4045  0.0093
  355MOL0     C47853   1.882   6.522   7.170 -0.5410 -0.2612 -1.0841
  355MOL0     C47854   1.815   6.552   7.270 -0.4460  0.3707 -0.2253
  355MOL0     C47855   2.581   6.386   7.217 -0.2178  0.1710 -0.2893
  355MOL0     C47856   2.714   6.357   7.235  0.0422  0.3243 -0.3141
  355MOL0     C47857   2.751   6.298   7.375 -0.2810 -0.2120 -0.3596
  355MOL0     H47858   3.212   6.489   7.094 -0.8193  0.4738 -0.5953
  355MOL0     H47859   3.454   6.418   7.129  0.9789 -1.9602  0.9770
  355MOL0     H47860   3.662   6.357   7.056 -0.1086 -0.3260 -1.2953
  355MOL0     H47861   3.646   6.267   7.209 -2.3097 -2.0672  1.0331
  355MOL0     H47862   3.806   6.188   6.969 -0.8914 -0.7388 -0.2525
  355MOL0     H47863   3.782   6.072   7.107 -1.8962 -0.0677 -0.8180
  355MOL0     H47864   3.913   6.176   7.253  1.1434  0.9560  0.7810
  355MOL0     H47865   3.900   6.340   7.185  2.6540 -0.4416  2.8400
  355MOL0     H47866   4.025   6.099   7.056 -2.0545 -0.8405  2.2314
  355MOL0     H47867   4.047   6.273   6.999  1.7374 -0.1631  0.1202
  355MOL0     H47868   4.147   6.319   7.231 -1.5667 -0.1461 -1.8838
  355MOL0     H47869   4.129   6.155   7.259  0.0202 -1.3928 -1.8981
  355MOL0     H47870   4.271   6.113   7.065 -2.8276 -1.1831  2.4642
  355MOL0     H47871   4.288   6.279   7.030  2.4974 -1.0811 -0.5022
  355MOL0     H47872   4.477   6.156   7.164 -1.3101 -1.4766 -0.0994
  355MOL0     H47873   4.368   6.152   7.306  0.2669  2.3542  2.8071
  355MOL0     H47874   4.468   6.414   7.193 -1.3643  1.6721  0.3742
  355MOL0     H47875   4.354   6.408   7.324 -0.1147 -0.6698  0.2223
  355MOL0     H47876   4.695   6.226   7.230  1.2429 -2.6991  1.2052
  355MOL0     H47877   4.932   6.286   7.320  1.7910  0.9187  0.4168
  355MOL0     H47878   4.969   6.335   7.486 -0.7799  0.5807 -0.0733
  355MOL0     H47879   4.871   6.090   7.549  2.3965  0.3526  2.2590
  355MOL0     H47880   4.953   6.065   7.384  1.3336  0.4872 -0.6781
  355MOL0     H47881   5.086   6.024   7.614  2.3984 -1.0836 -2.1582
  355MOL0     H47882   5.102   6.200   7.613  2.4297 -2.0424  1.9320
  355MOL0     H47883   5.211   6.025   7.407 -2.6745  1.2198 -1.9922
  355MOL0     H47884   5.305   6.107   7.523 -0.2142  1.4358  0.3253
  355MOL0     H47885   5.243   6.476   7.311 -0.1845 -1.5263 -1.3613
  355MOL0     H47886   5.446   6.585   7.227 -0.6625  0.1604  1.2694
  355MOL0     H47887   5.842   6.653   7.358 -1.6689  0.4410 -1.2716
  355MOL0     H47888   6.043   6.761   7.365 -1.3263 -0.2497 -1.0425
  355MOL0     H47889   6.224   6.855   7.252  0.2297  3.8073  1.9776
  355MOL0     H47890   6.267   6.851   7.423 -3.5771  0.8789 -1.0271
  355MOL0     H47891   6.500   6.847   7.374 -0.4064 -1.4819  0.5810
  355MOL0     H47892   6.475   6.829   7.203 -0.0905 -3.4901  2.2016
  355MOL0     H47893   6.334   7.046   7.230 -0.2927  0.8484  1.0778
  355MOL0     H47894   6.418   7.053   7.383 -2.9353 -1.2767 -0.1338
  355MOL0     H47895   6.555   7.013   7.119 -1.9815 -1.6234  0.7614
  355MOL0     H47896   6.634   7.056   7.280 -1.2116  0.1971  1.1738
  355MOL0     H47897   6.513   7.275   7.281  1.2474  0.9306  0.5680
  355MOL0     H47898   6.481   7.249   7.110 -0.0615  1.3099 -0.7215
  355MOL0     H47899   6.678   7.375   7.140 -0.4335 -0.1956  2.7761
  355MOL0     H47900   6.734   7.269   7.259  1.3577  1.9516 -0.4967
  355MOL0     H47901   6.691   7.183   6.958 -2.0893 -2.1735  1.2690
  355MOL0     H47902   6.791   7.099   7.068  0.3525 -1.0706 -2.2012
  355MOL0     H47903   6.960   7.228   6.937 -0.0343  0.1287  1.7389
  355MOL0     H47904   6.858   7.378   6.973 -4.6333 -1.1284  0.7230
  355MOL0     H47905   6.261   6.412   7.232 -0.5000 -3.3691  3.3333
  355MOL0     H47906   6.039   6.314   7.176 -1.4862  0.1566  0.3265
  355MOL0     H47907   5.655   6.212   7.265  0.3498 -0.1401 -1.6916
  355MOL0     H47908   5.452   6.105   7.329  1.0837  0.2225 -0.2227
  355MOL0     H47909   3.353   6.047   6.944 -1.0904 -0.4914  0.5129
  355MOL0     H47910   3.128   6.117   6.920 -0.5394  3.5078 -3.0913
  355MOL0     H47911   2.827   6.434   6.922 -0.4235  2.1641 -0.8642
  355MOL0     H47912   2.570   6.473   6.900  0.7692 -1.1509 -0.8993
  355MOL0     H47913   2.368   6.545   7.247  1.3993 -0.7402 -1.0132
  355MOL0     H47914   2.291   6.388   7.233 -1.1289 -0.2778 -0.5818
  355MOL0     H47915   2.206   6.604   7.046 -1.4929 -0.4849 -1.6077
  355MOL0     H47916   2.145   6.593   7.210  1.3907 -0.2074  0.6053
  355MOL0     H47917   2.086   6.347   7.153 -2.5138  0.5327 -0.2501
  355MOL0     H47918   2.135   6.389   6.987 -2.6009  1.5996 -0.7327
  355MOL0     H47919   1.949   6.559   6.980  3.7711 -1.3051 -1.1537
  355MOL0     H47920   1.878   6.398   7.026 -3.6957  0.5510  3.4000
  355MOL0     H47921   1.757   6.570   7.359 -2.9195 -0.4254 -1.5773
  355MOL0     H47922   2.516   6.372   7.302  0.8176  0.8993  0.6510
  355MOL0     H47923   2.674   6.298   7.452  1.1159 -1.1918  1.1186
  355MOL0     H47924   2.782   6.194   7.363 -0.3072 -0.0037 -2.7403
  355MOL0     H47925   2.836   6.351   7.420 -1.1843  0.4018  0.6899
  356MOL0     O47926   2.967   6.945   4.231  0.0057 -0.5370 -0.6782
  356MOL0     C47927   2.928   6.915   4.345 -0.0434 -0.4813 -1.1445
  356MOL0     O47928   3.004   6.856   4.440 -0.2294  0.6704  0.3648
  356MOL0     C47929   3.142   6.846   4.420  0.3425 -0.5209 -0.5935
  356MOL0     C47930   3.226   6.959   4.458 -0.5772  0.0218  0.2465
  356MOL0     C47931   3.363   6.961   4.430  0.5451  0.3569  0.3422
  356MOL0     C47932   3.413   6.860   4.359 -0.3134 -0.6160  0.0534
  356MOL0     O47933   3.544   6.885   4.326  0.0565  0.2583 -0.4242
  356MOL0     C47934   3.607   6.789   4.237 -0.2288 -0.1799 -0.8195
  356MOL0     C47935   3.751   6.810   4.213  0.7833 -0.8102  0.1849
  356MOL0     C47936   3.808   6.701   4.129  0.1832 -1.0237 -0.3627
  356MOL0     C47937   3.961   6.713   4.160 -0.3779 -0.2546  0.0271
  356MOL0     C47938   4.025   6.575   4.116  0.2657  0.8315 -0.1808
  356MOL0     C47939   4.179   6.579   4.126  0.1916  0.4059  0.8267
  356MOL0     C47940   4.239   6.437   4.118 -0.0766 -0.4899 -0.8315
  356MOL0     C47941   4.385   6.439   4.120 -0.3787  0.2958  0.5039
  356MOL0     N47942   4.444   6.540   4.022 -0.9626 -0.0017 -0.5336
  356MOL0     C47943   4.526   6.636   4.068 -0.1710 -0.6721  0.2552
  356MOL0     C47944   4.599   6.683   3.962 -0.5449  0.2775  0.3645
  356MOL0     C47945   4.697   6.795   3.966 -0.2020  0.2146 -0.2253
  356MOL0     C47946   4.843   6.770   3.917 -0.1751  0.4430 -0.0894
  356MOL0     C47947   4.852   6.766   3.766  0.1333  0.9020 -0.2233
  356MOL0     C47948   4.955   6.669   3.713 -0.1783  0.0377 -0.4609
  356MOL0     O47949   5.090   6.701   3.766 -0.1100 -0.7272  0.9253
  356MOL0     C47950   5.189   6.621   3.702 -0.3140  0.1543 -0.5809
  356MOL0     C47951   5.326   6.666   3.692 -0.1204  0.7049  0.1656
  356MOL0     C47952   5.428   6.589   3.635  1.9847 -0.8828  0.0515
  356MOL0     C47953   5.399   6.470   3.567  0.6641 -0.1782 -0.5506
  356MOL0     C47954   5.509   6.401   3.491 -0.2560 -0.5715 -0.9387
  356MOL0     O47955   5.638   6.420   3.543 -0.5579  0.1089  0.3226
  356MOL0     C47956   5.744   6.350   3.484  0.0313 -0.5031 -0.1753
  356MOL0     C47957   5.765   6.217   3.500  0.5779  1.2135  0.2760
  356MOL0     C47958   5.876   6.154   3.458 -0.0976  0.4541  0.2865
  356MOL0     C47959   5.970   6.223   3.385 -0.0951  0.0032  0.2771
  356MOL0     O47960   6.080   6.176   3.315  0.0245  0.3439 -0.3770
  356MOL0     C47961   6.117   6.042   3.338 -0.3814 -0.2869  0.3656
  356MOL0     C47962   6.273   6.023   3.319 -0.8353  0.8708  0.7170
  356MOL0     C47963   6.352   6.151   3.373  0.8716  0.6578  0.3723
  356MOL0     C47964   6.506   6.147   3.382 -0.2525  0.0309  0.0902
  356MOL0     C47965   6.561   6.288   3.341 -0.1649  1.0705  0.3008
  356MOL0     C47966   6.706   6.300   3.311  0.3370  0.4361 -0.4199
  356MOL0     C47967   6.785   6.252   3.427 -0.3404  0.5789  0.5003
  356MOL0     C47968   6.928   6.220   3.387  0.2491  0.0522  0.1844
  356MOL0    Cl47969   7.011   6.358   3.309 -0.1298 -0.2197 -0.6046
  356MOL0     C47970   5.954   6.359   3.371 -0.2224  0.4387  0.4129
  356MOL0     C47971   5.847   6.419   3.418  0.2973  0.0748 -0.6631
  356MOL0     O47972   5.480   6.315   3.414 -0.8103 -0.5971 -0.7905
  356MOL0     C47973   5.272   6.422   3.567  0.4955 -0.0285 -0.4593
  356MOL0     C47974   5.166   6.499   3.630 -0.0893 -0.1132  0.1410
  356MOL0     N47975   4.559   6.615   3.848  0.2805  0.3544 -0.1621
  356MOL0     N47976   4.464   6.530   3.885  0.4084 -0.5535  0.1266
  356MOL0     C47977   3.332   6.742   4.319  0.0158 -0.1902 -0.2816
  356MOL0     C47978   3.201   6.738   4.349 -0.0721 -0.6943 -0.2314
  356MOL0     C47979   2.781   6.944   4.387 -0.0027 -0.0565  0.8272
  356MOL0     C47980   2.730   7.070   4.359 -0.1689 -0.6481  0.8222
  356MOL0     C47981   2.610   7.109   4.401 -0.4509 -0.1616 -0.1228
  356MOL0     C47982   2.532   7.021   4.478 -0.0181 -0.1028  0.7839
  356MOL0     O47983   2.415   7.070   4.526  0.0694  0.1667 -0.0030
  356MOL0     C47984   2.315   7.061   4.426  0.5292 -0.5240 -0.6057
  356MOL0     C47985   2.243   6.919   4.431  0.9479  0.2601 -0.4368
  356MOL0     C47986   2.146   6.886   4.317 -0.5650 -0.7275  0.0413
  356MOL0     C47987   2.015   6.966   4.318  0.1448 -0.0487  0.5611
  356MOL0     C47988   1.903   6.918   4.236  0.5256  0.8002  0.0513
  356MOL0     C47989   1.821   6.868   4.157  0.5209 -0.2482 -0.7745
  356MOL0     C47990   2.566   6.887   4.492 -0.2753  0.5994  0.2598
  356MOL0     C47991   2.695   6.850   4.457 -0.2007 -0.6308 -0.2679
  356MOL0     C47992   2.745   6.716   4.499 -0.5757  0.2119 -0.0301
  356MOL0     H47993   3.178   7.047   4.500  1.0999 -0.3591  3.2179
  356MOL0     H47994   3.424   7.046   4.458  1.0636  0.4523 -1.0244
  356MOL0     H47995   3.591   6.695   4.291  0.2891  0.0112 -0.3310
  356MOL0     H47996   3.556   6.777   4.141  2.8781  0.2771 -2.6641
  356MOL0     H47997   3.784   6.806   4.317  0.0566  0.2189  0.4695
  356MOL0     H47998   3.774   6.906   4.166  0.7237 -1.3377 -0.9725
  356MOL0     H47999   3.794   6.737   4.027  1.8580 -0.5324 -0.4414
  356MOL0     H48000   3.764   6.605   4.158 -2.1183 -0.4275 -1.6116
  356MOL0     H48001   4.017   6.791   4.108  1.2268 -1.2925  0.1170
  356MOL0     H48002   3.979   6.728   4.267 -2.4014 -0.8313  0.4897
  356MOL0     H48003   3.978   6.494   4.173 -1.4104  0.9115 -1.3855
  356MOL0     H48004   4.005   6.556   4.011 -0.1527  0.1313  0.0227
  356MOL0     H48005   4.212   6.648   4.047  0.3240  0.7506  1.1777
  356MOL0     H48006   4.207   6.623   4.222 -0.7190  1.6215  0.5600
  356MOL0     H48007   4.210   6.403   4.018  0.8025  0.4906 -1.4416
  356MOL0     H48008   4.200   6.376   4.200  0.6099 -0.5723 -0.5597
  356MOL0     H48009   4.413   6.465   4.223 -2.8236  3.6321  0.4749
  356MOL0     H48010   4.420   6.336   4.107 -2.1328 -0.4171  1.1470
  356MOL0     H48011   4.547   6.673   4.167  2.1918  1.5520 -0.9452
  356MOL0     H48012   4.651   6.872   3.903  0.5435  0.4020 -0.5551
  356MOL0     H48013   4.694   6.836   4.067 -3.7928  1.0562 -0.5483
  356MOL0     H48014   4.910   6.845   3.961  0.8238 -0.8165  0.6067
  356MOL0     H48015   4.872   6.673   3.958  0.0699  0.8231  0.6739
  356MOL0     H48016   4.878   6.862   3.722  2.8260  0.4866  0.2849
  356MOL0     H48017   4.752   6.745   3.726 -0.9499  2.8105  1.3027
  356MOL0     H48018   4.951   6.667   3.604 -1.4668 -1.8249 -0.4257
  356MOL0     H48019   4.923   6.573   3.753 -2.4791  1.6452  1.8052
  356MOL0     H48020   5.365   6.748   3.751  2.1258  1.0288 -1.6174
  356MOL0     H48021   5.532   6.622   3.637  2.2572 -1.5636  3.1546
  356MOL0     H48022   5.686   6.163   3.552  1.3988 -0.2946 -0.0057
  356MOL0     H48023   5.877   6.045   3.459 -1.4228  0.4237 -0.0397
  356MOL0     H48024   6.083   6.013   3.438 -0.1776  0.9844  0.8215
  356MOL0     H48025   6.059   5.983   3.266  0.4013  0.9424 -1.3247
  356MOL0     H48026   6.304   5.930   3.368  1.1934  0.7526 -0.6698
  356MOL0     H48027   6.301   6.017   3.213  0.6234 -2.0283  1.1635
  356MOL0     H48028   6.323   6.227   3.299 -0.7455  0.9220  1.2207
  356MOL0     H48029   6.305   6.184   3.466 -0.1327 -0.3822  0.2546
  356MOL0     H48030   6.544   6.059   3.328 -0.9466 -0.2511  0.0536
  356MOL0     H48031   6.526   6.125   3.487 -3.5925  0.9712  1.0383
  356MOL0     H48032   6.560   6.356   3.426  3.0470  1.1275  0.4176
  356MOL0     H48033   6.502   6.328   3.257 -0.4925  0.9613  0.4755
  356MOL0     H48034   6.726   6.237   3.224 -0.0568 -0.3134  0.0193
  356MOL0     H48035   6.739   6.399   3.279 -2.0477  1.2131 -0.6256
  356MOL0     H48036   6.744   6.156   3.460 -1.7866  0.5449 -1.2352
  356MOL0     H48037   6.777   6.311   3.518 -3.7561 -0.7705  1.2262
  356MOL0     H48038   6.959   6.191   3.488 -1.0225 -1.1968  0.2394
  356MOL0     H48039   6.928   6.138   3.314 -1.7743 -0.9401  1.2175
  356MOL0     H48040   6.022   6.426   3.318 -2.2334  0.9605 -1.6649
  356MOL0     H48041   5.839   6.527   3.418  2.1893  0.3405  2.3673
  356MOL0     H48042   5.242   6.326   3.527 -0.6633 -1.3456  3.1446
  356MOL0     H48043   5.073   6.444   3.620 -0.0781 -0.3812  1.3769
  356MOL0     H48044   3.372   6.657   4.265 -0.2003 -1.5256  1.5899
  356MOL0     H48045   3.146   6.649   4.321 -1.6644  0.8519 -2.3051
  356MOL0     H48046   2.789   7.136   4.296 -0.9799 -0.3391  0.3742
  356MOL0     H48047   2.581   7.211   4.378  0.8522 -0.2213 -2.3972
  356MOL0     H48048   2.359   7.072   4.327 -0.7034 -0.6548 -1.1950
  356MOL0     H48049   2.251   7.146   4.449  2.3452  0.5917  0.5036
  356MOL0     H48050   2.189   6.924   4.525  1.1992 -0.1706 -0.2646
  356MOL0     H48051   2.311   6.833   4.439  1.4756  0.8701  2.6214
  356MOL0     H48052   2.108   6.785   4.331 -1.8588  0.0774  3.0428
  356MOL0     H48053   2.196   6.884   4.220  0.2292 -0.2521  0.4269
  356MOL0     H48054   1.964   6.966   4.414 -0.9099 -1.4650  0.0321
  356MOL0     H48055   2.045   7.064   4.279  1.9660 -1.2570 -1.3416
  356MOL0     H48056   1.763   6.809   4.089  1.8601 -1.5077 -0.8772
  356MOL0     H48057   2.513   6.809   4.545 -0.1735  2.1977  2.8875
  356MOL0     H48058   2.817   6.734   4.580 -0.8034  0.5164  0.1069
  356MOL0     H48059   2.674   6.641   4.535  1.3311 -0.4591  2.6298
  356MOL0     H48060   2.798   6.681   4.410 -2.4581 -3.4671  0.1050
  357MOL0     O48061   4.983   9.696   0.064  0.3683 -0.7469 -0.6202
  357MOL0     C48062   4.922   9.803   0.073  0.1615 -0.2641  0.2836
  357MOL0     O48063   4.982   9.925   0.077  0.1702  0.3826 -0.4703
  357MOL0     C48064   5.117   9.930   0.076 -0.0766 -0.1890  0.7798
  357MOL0     C48065   5.187   9.877  -0.027 -0.1576 -0.2810  0.2400
  357MOL0     C48066   5.326   9.888  -0.045 -0.4282 -0.6356  0.1741
  357MOL0     C48067   5.400   9.951   0.059 -0.1950  0.3393  0.8601
  357MOL0     O48068   5.532   9.972   0.058 -0.4705 -0.0682  0.1702
  357MOL0     C48069   5.603   9.892  -0.038  0.1653  0.0066  0.3265
  357MOL0     C48070   5.745   9.954  -0.004 -0.3128 -0.3355  0.2464
  357MOL0     C48071   5.846   9.912  -0.111  0.2058 -0.3548 -1.0826
  357MOL0     C48072   5.929   9.799  -0.061 -0.0307  0.0136  0.4438
  357MOL0     C48073   6.058   9.766  -0.136 -0.1467 -0.7488  0.1652
  357MOL0     C48074   6.089   9.627  -0.083  0.2656 -0.2932  0.1358
  357MOL0     C48075   6.221   9.572  -0.144  0.1487  0.2963  0.4698
  357MOL0     C48076   6.342   9.650  -0.092  0.2946  0.2470  0.0753
  357MOL0     N48077   6.463   9.607  -0.155 -0.1582  0.3352  0.8910
  357MOL0     C48078   6.555   9.514  -0.114  0.3152 -0.2257  1.0220
  357MOL0     C48079   6.647   9.506  -0.216  0.0298  0.1491 -0.8645
  357MOL0     C48080   6.745   9.400  -0.249 -0.5819 -0.9686  0.4095
  357MOL0     C48081   6.894   9.444  -0.247  0.0700  0.3173  0.6799
  357MOL0     C48082   6.942   9.493  -0.113  0.2377  0.1259  1.0541
  357MOL0     C48083   7.093   9.493  -0.083 -0.6670  0.4163 -0.9892
  357MOL0     O48084   7.157   9.565  -0.191  0.0883  0.3538 -0.6818
  357MOL0     C48085   7.295   9.596  -0.186  0.3052 -0.3853  0.4793
  357MOL0     C48086   7.386   9.543  -0.106 -0.2119 -0.2766  0.1672
  357MOL0     C48087   7.519   9.596  -0.100 -0.0614  0.1816  0.2543
  357MOL0     C48088   7.551   9.707  -0.182  0.4667  0.4271 -0.2555
  357MOL0     C48089   7.688   9.759  -0.170 -0.2307 -0.7195  0.1923
  357MOL0     O48090   7.774   9.728  -0.074  0.5333  0.2296 -0.4697
  357MOL0     C48091   7.899   9.770  -0.081 -0.5926  0.5090  0.5971
  357MOL0     C48092   7.950   9.858   0.005 -0.4546 -0.4584  0.1937
  357MOL0     C48093   8.089   9.884   0.021  0.7599 -0.5236  0.0371
  357MOL0     C48094   8.185   9.827  -0.056 -0.8825  0.2815  0.9587
  357MOL0     O48095   8.321   9.871  -0.047  0.0886  0.2258  0.1508
  357MOL0     C48096   8.407   9.849  -0.169  0.1664 -0.1566 -0.6923
  357MOL0     C48097   8.479   9.712  -0.172 -0.7694 -0.3553  1.2254
  357MOL0     C48098   8.611   9.703  -0.087  0.1072 -0.1458  0.5945
  357MOL0     C48099   8.653   9.556  -0.083 -0.0291  0.4276  0.0800
  357MOL0     C48100   8.792   9.533  -0.005 -0.3883 -1.1970 -0.0104
  357MOL0     C48101   8.827   9.383   0.016  0.2651  0.0415 -0.6055
  357MOL0     C48102   8.979   9.344   0.028 -0.8039  0.3018 -0.0747
  357MOL0     C48103   9.057   9.434   0.125 -0.6337 -0.3029  0.4823
  357MOL0    Cl48104   9.216   9.385   0.162 -0.2519  0.1056  0.1626
  357MOL0     C48105   8.137   9.733  -0.151  0.5979 -0.2611  0.4955
  357MOL0     C48106   7.995   9.699  -0.160 -0.2182  0.1814  0.1642
  357MOL0     O48107   7.709   9.838  -0.263 -0.0178  0.0368 -0.1739
  357MOL0     C48108   7.456   9.758  -0.277  0.6305  1.1792  0.7250
  357MOL0     C48109   7.324   9.701  -0.279 -0.8676  0.4758  0.0257
  357MOL0     N48110   6.602   9.597  -0.316  0.7018  0.6395 -0.3698
  357MOL0     N48111   6.500   9.656  -0.275  0.5016  0.1673 -0.0725
  357MOL0     C48112   5.325  10.002   0.172 -0.1730 -0.6439 -0.1001
  357MOL0     C48113   5.190   9.979   0.181 -0.2856  0.1196  0.0183
  357MOL0     C48114   4.776   9.794   0.108 -0.4266  0.1651  0.7399
  357MOL0     C48115   4.707   9.898   0.180 -0.3555  0.0266  1.1883
  357MOL0     C48116   4.581   9.891   0.224  0.7180  1.1327 -0.9484
  357MOL0     C48117   4.505   9.780   0.191 -0.1312 -0.2576 -0.8268
  357MOL0     O48118   4.369   9.775   0.227 -0.9335 -0.1977  0.6807
  357MOL0     C48119   4.335   9.668   0.319  0.0224  0.2296 -0.0054
  357MOL0     C48120   4.308   9.717   0.459  0.2710  0.9618  0.3625
  357MOL0     C48121   4.172   9.788   0.476 -0.6583  0.0645 -0.3074
  357MOL0     C48122   4.176   9.938   0.469  0.0180  0.3516 -0.0256
  357MOL0     C48123   4.227   9.995   0.592  0.1457 -0.7236 -1.0977
  357MOL0     C48124   4.264  10.052   0.691  0.1423  0.3425  0.3275
  357MOL0     C48125   4.560   9.688   0.102 -0.7244  0.8736  0.2474
  357MOL0     C48126   4.693   9.690   0.064  0.4386 -0.4641  1.2296
  357MOL0     C48127   4.738   9.597  -0.039 -0.3721  0.3480 -0.2018
  357MOL0     H48128   5.121   9.836  -0.103 -1.9480 -0.1278  1.6606
  357MOL0     H48129   5.380   9.854  -0.133  0.4850  0.7688  0.1578
  357MOL0     H48130   5.603   9.783  -0.030  1.5233  0.0216  0.8176
  357MOL0     H48131   5.580   9.909  -0.143  0.9638  0.4280  0.2063
  357MOL0     H48132   5.774   9.925   0.098 -0.3459  0.1946  0.4073
  357MOL0     H48133   5.745  10.063  -0.008 -1.8298 -0.3224 -3.0311
  357MOL0     H48134   5.913   9.995  -0.137  2.2834 -1.4067  0.5368
  357MOL0     H48135   5.788   9.881  -0.198 -1.2399  0.8009 -0.5708
  357MOL0     H48136   5.946   9.808   0.047 -3.7047  2.0975  1.0153
  357MOL0     H48137   5.860   9.718  -0.088 -1.0391  1.2728 -0.9698
  357MOL0     H48138   6.038   9.759  -0.244  1.1223 -1.3059 -0.0501
  357MOL0     H48139   6.126   9.848  -0.112 -1.0138  0.1600 -0.3810
  357MOL0     H48140   6.106   9.633   0.025  1.1227 -0.6134  0.0291
  357MOL0     H48141   6.012   9.551  -0.094 -1.8901  1.4505  2.1996
  357MOL0     H48142   6.217   9.574  -0.253 -2.0051 -0.7463  0.4751
  357MOL0     H48143   6.227   9.468  -0.111  2.1480 -0.7065 -2.6221
  357MOL0     H48144   6.328   9.755  -0.116 -1.7616 -0.3173 -1.5080
  357MOL0     H48145   6.357   9.640   0.016  2.3698  0.1239 -0.1914
  357MOL0     H48146   6.559   9.451  -0.026 -0.0864  1.1215  2.0523
  357MOL0     H48147   6.736   9.322  -0.172 -0.2710 -0.5277  0.9003
  357MOL0     H48148   6.733   9.355  -0.348  1.0152 -0.8016  0.1183
  357MOL0     H48149   6.947   9.351  -0.270 -0.0797  0.5168 -0.5631
  357MOL0     H48150   6.912   9.516  -0.328 -2.3907 -0.3192 -0.5048
  357MOL0     H48151   6.908   9.438  -0.025 -1.1386  2.4419  2.0425
  357MOL0     H48152   6.911   9.597  -0.117  0.9757  0.3817  1.8879
  357MOL0     H48153   7.141   9.395  -0.069  2.1986  1.6124 -1.7826
  357MOL0     H48154   7.115   9.540   0.013  0.4226  1.2912 -1.6350
  357MOL0     H48155   7.372   9.475  -0.023  2.0157  0.4991  1.2704
  357MOL0     H48156   7.583   9.566  -0.018 -0.2636 -1.8433 -0.2793
  357MOL0     H48157   7.884   9.923   0.061  0.5942  0.8427 -0.0306
  357MOL0     H48158   8.126   9.952   0.097  3.0588  0.2630 -1.6695
  357MOL0     H48159   8.358   9.874  -0.264  1.2331 -0.2057 -1.2753
  357MOL0     H48160   8.488   9.922  -0.165  0.8869 -0.8815 -1.4200
  357MOL0     H48161   8.414   9.631  -0.138 -1.7994 -1.2713 -2.5166
  357MOL0     H48162   8.510   9.677  -0.270  0.2438 -0.6860  1.6567
  357MOL0     H48163   8.698   9.753  -0.132  2.6433 -2.4824  2.5302
  357MOL0     H48164   8.597   9.745   0.012  2.9489  0.9820  0.6303
  357MOL0     H48165   8.662   9.521  -0.186  1.4968  1.0348 -0.0149
  357MOL0     H48166   8.575   9.503  -0.027 -1.5135  1.4548 -0.9294
  357MOL0     H48167   8.790   9.590   0.088  2.3332 -0.1207 -0.5114
  357MOL0     H48168   8.866   9.565  -0.079 -2.0060  1.3503 -0.6691
  357MOL0     H48169   8.775   9.357   0.109 -1.9918  2.2308 -1.1277
  357MOL0     H48170   8.782   9.330  -0.068 -0.4282  1.0343 -0.8873
  357MOL0     H48171   9.038   9.350  -0.064  0.5142  0.6943  0.7710
  357MOL0     H48172   8.980   9.236   0.043  4.0046 -0.1846 -2.0521
  357MOL0     H48173   9.060   9.535   0.084 -0.1791 -0.6253 -0.3066
  357MOL0     H48174   9.004   9.440   0.220  0.8186  0.7308  1.2755
  357MOL0     H48175   8.209   9.674  -0.206  0.8695  1.3164 -0.8977
  357MOL0     H48176   7.974   9.618  -0.230 -0.3665 -1.3699  1.9388
  357MOL0     H48177   7.473   9.848  -0.334 -0.2928  0.3249 -0.9679
  357MOL0     H48178   7.253   9.738  -0.352 -4.5097 -1.5696  2.2340
  357MOL0     H48179   5.379  10.063   0.244 -0.4377 -0.3489 -0.1496
  357MOL0     H48180   5.136  10.037   0.255  0.7007 -0.5866  1.3269
  357MOL0     H48181   4.766   9.988   0.198  3.7186 -2.1607  0.0795
  357MOL0     H48182   4.539   9.970   0.285  0.8590 -0.6502  1.6147
  357MOL0     H48183   4.404   9.583   0.320  0.1956  0.3722  0.6009
  357MOL0     H48184   4.239   9.625   0.289 -1.4258  3.1841  0.0325
  357MOL0     H48185   4.389   9.784   0.487 -1.3877  4.0584 -1.6844
  357MOL0     H48186   4.311   9.634   0.530 -2.4782  2.8125  2.8959
  357MOL0     H48187   4.137   9.758   0.575  1.3674 -0.4951  0.2912
  357MOL0     H48188   4.114   9.752   0.390  0.0090  0.8063 -1.0900
  357MOL0     H48189   4.251   9.969   0.397  3.3354 -4.1891  1.0105
  357MOL0     H48190   4.075   9.977   0.454 -0.2777 -0.6769 -0.7957
  357MOL0     H48191   4.297  10.091   0.785  1.3869 -0.5813  0.3060
  357MOL0     H48192   4.493   9.615   0.057  2.8079 -1.1095 -2.2654
  357MOL0     H48193   4.774   9.499  -0.007 -0.8407 -0.2325 -1.4049
  357MOL0     H48194   4.648   9.574  -0.098 -0.8648 -0.3369  0.7925
  357MOL0     H48195   4.821   9.641  -0.095 -0.9241  2.0360  0.2491
  358MOL0     O48196   6.128   1.793   3.129 -0.0792 -0.5666  0.2375
  358MOL0     C48197   6.104   1.889   3.060  0.4854  0.1073  0.3508
  358MOL0     O48198   6.195   1.987   3.023 -0.5302  0.4846 -0.2455
  358MOL0     C48199   6.316   2.009   3.093 -0.6247  0.6246  0.2436
  358MOL0     C48200   6.323   2.007   3.230 -0.1966 -0.3793 -0.3679
  358MOL0     C48201   6.445   2.017   3.296 -0.2530  0.5503  0.3965
  358MOL0     C48202   6.567   2.022   3.232 -0.4529  0.2831  0.2194
  358MOL0     O48203   6.684   2.022   3.301  0.4958  0.1656 -0.0005
  358MOL0     C48204   6.696   1.922   3.405 -0.2108 -0.9043 -0.8636
  358MOL0     C48205   6.851   1.933   3.433 -0.2443  0.1502 -0.0221
  358MOL0     C48206   6.873   1.850   3.559 -0.1078  0.2389  0.3553
  358MOL0     C48207   7.014   1.873   3.592  0.1889 -0.0814 -1.4291
  358MOL0     C48208   7.037   1.771   3.709 -0.3424  0.1684  0.3607
  358MOL0     C48209   7.163   1.813   3.791 -0.2447  0.6862 -0.3157
  358MOL0     C48210   7.218   1.726   3.908 -0.0624 -0.3016  0.3677
  358MOL0     C48211   7.306   1.612   3.858 -0.0475  0.1400 -0.2328
  358MOL0     N48212   7.432   1.644   3.793 -0.7746 -0.0235 -0.0688
  358MOL0     C48213   7.549   1.640   3.872  0.5698 -0.9498 -0.2667
  358MOL0     C48214   7.645   1.690   3.794  0.0900 -0.3650  0.8798
  358MOL0     C48215   7.791   1.708   3.843  1.0999 -0.5646  0.0492
  358MOL0     C48216   7.875   1.694   3.715  0.5190 -0.1278 -0.1837
  358MOL0     C48217   7.890   1.833   3.636  0.9063  0.0492  0.4644
  358MOL0     C48218   8.024   1.843   3.576  0.3466  0.4298  1.4424
  358MOL0     O48219   8.029   1.732   3.480 -0.1356 -1.1618  0.1320
  358MOL0     C48220   8.157   1.708   3.432 -0.6131  0.0825  0.4028
  358MOL0     C48221   8.163   1.581   3.381 -1.2026 -0.5072  0.1033
  358MOL0     C48222   8.285   1.526   3.331  0.3151 -0.5747 -0.1937
  358MOL0     C48223   8.405   1.607   3.336 -1.0416 -0.4821 -0.1596
  358MOL0     C48224   8.533   1.557   3.284  0.3996  0.1448 -0.9688
  358MOL0     O48225   8.624   1.647   3.241 -0.0371 -0.0610  0.0667
  358MOL0     C48226   8.722   1.587   3.162 -0.1561 -0.1434  0.1179
  358MOL0     C48227   8.835   1.522   3.210  1.3313 -0.1415 -0.1197
  358MOL0     C48228   8.931   1.464   3.126 -0.0652 -0.4323  0.3163
  358MOL0     C48229   8.910   1.458   2.984 -0.3748 -0.3015  0.4189
  358MOL0     O48230   8.996   1.426   2.890  0.2312  0.3081  1.1395
  358MOL0     C48231   9.125   1.386   2.919 -0.0328  0.0716  0.0504
  358MOL0     C48232   9.203   1.360   2.789 -0.0004  0.2509  0.0025
  358MOL0     C48233   9.155   1.229   2.723  0.6995 -0.3165  0.0117
  358MOL0     C48234   9.260   1.168   2.636  0.0728  0.6076 -0.5075
  358MOL0     C48235   9.345   1.067   2.713 -0.2906  0.9270 -0.9552
  358MOL0     C48236   9.448   0.992   2.625 -0.0163  0.0296 -0.0908
  358MOL0     C48237   9.512   0.866   2.693  0.2114 -0.3327 -0.2994
  358MOL0     C48238   9.569   0.761   2.596 -0.4855  0.3680 -0.3958
  358MOL0    Cl48239   9.722   0.824   2.532  0.0957 -0.0042  0.1531
  358MOL0     C48240   8.785   1.506   2.936  0.2029  0.0721 -0.1056
  358MOL0     C48241   8.700   1.576   3.024 -0.3447 -0.2444 -0.2181
  358MOL0     O48242   8.546   1.437   3.277  0.7707  0.9886  0.3186
  358MOL0     C48243   8.394   1.739   3.386  0.1361  0.2329 -0.4703
  358MOL0     C48244   8.271   1.787   3.443 -0.0385 -0.5731 -0.4419
  358MOL0     N48245   7.596   1.715   3.669  0.6372 -0.2565  1.1224
  358MOL0     N48246   7.472   1.687   3.669 -0.3254  0.2828  0.2510
  358MOL0     C48247   6.574   2.031   3.092  0.7556 -0.0952  0.2857
  358MOL0     C48248   6.446   2.013   3.023  0.4615 -0.3369 -0.1765
  358MOL0     C48249   5.972   1.890   2.997 -0.1249 -0.4082 -1.0824
  358MOL0     C48250   5.946   1.999   2.907  0.0386  0.7005 -0.1312
  358MOL0     C48251   5.833   1.998   2.827  0.4436  0.2595  0.2292
  358MOL0     C48252   5.732   1.896   2.855 -0.1307  1.2060 -0.2912
  358MOL0     O48253   5.620   1.889   2.775  0.1669 -0.2426 -0.1844
  358MOL0     C48254   5.633   1.930   2.637 -0.1175  0.5309 -0.8661
  358MOL0     C48255   5.536   1.848   2.551 -0.5723 -0.1700 -0.5953
  358MOL0     C48256   5.394   1.850   2.591  0.0884  0.4138 -0.0612
  358MOL0     C48257   5.307   1.779   2.485  0.3336 -0.5670  0.4186
  358MOL0     C48258   5.349   1.637   2.459 -1.2108 -0.0959  0.1057
  358MOL0     C48259   5.356   1.519   2.422 -0.6077 -0.5492 -0.9549
  358MOL0     C48260   5.760   1.784   2.935 -1.1202 -1.0848  0.7372
  358MOL0     C48261   5.879   1.787   3.012  0.0010  0.4621  0.3352
  358MOL0     C48262   5.893   1.657   3.100 -0.3437 -0.5674 -0.0698
  358MOL0     H48263   6.237   2.001   3.296  2.5921  1.9826  3.9641
  358MOL0     H48264   6.440   2.017   3.404  1.0513 -0.1007  0.4775
  358MOL0     H48265   6.652   1.955   3.500  2.5457 -1.1177  0.5799
  358MOL0     H48266   6.651   1.824   3.387 -0.0982 -1.2365  0.5165
  358MOL0     H48267   6.886   2.035   3.454  0.2459 -0.3438  1.7146
  358MOL0     H48268   6.905   1.896   3.345  0.7086  0.9951  0.1815
  358MOL0     H48269   6.855   1.746   3.529 -1.9523  0.3915  0.8304
  358MOL0     H48270   6.820   1.886   3.648  0.0821  4.2192 -0.9701
  358MOL0     H48271   7.087   1.855   3.512 -1.2938  0.6653 -3.0295
  358MOL0     H48272   7.029   1.975   3.629 -0.2381 -0.7245  0.5982
  358MOL0     H48273   6.948   1.753   3.771 -0.7043  0.2613 -0.1295
  358MOL0     H48274   7.058   1.676   3.658 -3.9148  0.4941 -2.0873
  358MOL0     H48275   7.230   1.818   3.705 -1.8151  0.6167 -1.6103
  358MOL0     H48276   7.147   1.916   3.825  4.5757  1.2147  0.9841
  358MOL0     H48277   7.137   1.687   3.970 -0.2516  2.8386  2.3092
  358MOL0     H48278   7.285   1.783   3.972 -0.5560 -0.9879  1.5202
  358MOL0     H48279   7.333   1.557   3.949  0.1120  1.1614  0.3616
  358MOL0     H48280   7.244   1.555   3.789  0.8717  1.6647 -2.4343
  358MOL0     H48281   7.551   1.624   3.980 -0.3209  1.9804  0.2690
  358MOL0     H48282   7.796   1.807   3.887  0.0728 -0.3602 -0.2459
  358MOL0     H48283   7.816   1.636   3.921 -1.0878  0.2494  1.6022
  358MOL0     H48284   7.976   1.660   3.739 -0.1779 -2.0344  0.1863
  358MOL0     H48285   7.834   1.611   3.657  1.8543 -3.9698  3.7876
  358MOL0     H48286   7.892   1.921   3.700  2.4021  0.3556  0.0300
  358MOL0     H48287   7.810   1.836   3.561 -0.2327  0.8171  1.6533
  358MOL0     H48288   8.093   1.828   3.659  0.5881  1.0322  1.3556
  358MOL0     H48289   8.051   1.941   3.535  0.2381 -0.9483 -2.2756
  358MOL0     H48290   8.076   1.516   3.380  0.0383 -2.2629  0.9417
  358MOL0     H48291   8.288   1.420   3.309  0.9863 -0.5942 -0.0369
  358MOL0     H48292   8.842   1.535   3.317  2.6838  3.0264 -0.4647
  358MOL0     H48293   9.021   1.433   3.178 -0.8192  0.1421  2.0321
  358MOL0     H48294   9.182   1.463   2.971 -0.2312 -0.6619  1.4313
  358MOL0     H48295   9.106   1.301   2.986 -0.5951 -2.2159 -2.7862
  358MOL0     H48296   9.198   1.452   2.730 -0.7307 -0.7393 -1.5365
  358MOL0     H48297   9.307   1.341   2.814  0.3724  1.7084 -0.3562
  358MOL0     H48298   9.127   1.153   2.796  0.2652 -0.8560 -0.6946
  358MOL0     H48299   9.069   1.242   2.657  0.9115 -1.7039 -0.5827
  358MOL0     H48300   9.336   1.231   2.589  0.6243  0.4164  0.1127
  358MOL0     H48301   9.215   1.110   2.555 -0.4434  0.9058 -0.4393
  358MOL0     H48302   9.287   0.988   2.761  0.9177  0.8384  0.4003
  358MOL0     H48303   9.391   1.111   2.802  1.8960 -3.4947  0.3828
  358MOL0     H48304   9.415   0.964   2.524 -0.2107 -0.9221  0.2356
  358MOL0     H48305   9.525   1.070   2.620  0.8091 -0.8300 -1.1367
  358MOL0     H48306   9.439   0.831   2.767 -1.2897  0.8561 -1.1525
  358MOL0     H48307   9.596   0.898   2.755  1.2263 -1.9088 -0.7830
  358MOL0     H48308   9.592   0.663   2.639 -0.6301  0.3904 -0.2636
  358MOL0     H48309   9.509   0.746   2.505 -1.3166  1.0307  0.0305
  358MOL0     H48310   8.767   1.503   2.829 -1.1755  1.3481  0.0662
  358MOL0     H48311   8.610   1.612   2.975  0.5088  0.6338 -1.2040
  358MOL0     H48312   8.480   1.805   3.383 -2.4758  3.8437 -2.0049
  358MOL0     H48313   8.256   1.890   3.473  0.2489 -0.3087 -1.1806
  358MOL0     H48314   6.670   2.036   3.042  0.2462 -1.3277 -0.9135
  358MOL0     H48315   6.434   2.016   2.915 -2.3746  0.5541  0.0727
  358MOL0     H48316   6.019   2.077   2.886  3.6534 -2.2993  0.1748
  358MOL0     H48317   5.816   2.072   2.749 -2.5063 -0.6311 -0.1273
  358MOL0     H48318   5.729   1.908   2.591 -1.1822 -2.4821 -1.9028
  358MOL0     H48319   5.602   2.034   2.623  0.0945  0.2845 -3.8609
  358MOL0     H48320   5.570   1.744   2.561 -1.9533 -0.4157  3.2507
  358MOL0     H48321   5.539   1.892   2.451 -1.1034  0.1110 -0.4916
  358MOL0     H48322   5.346   1.947   2.602 -3.6766 -1.5622  4.1400
  358MOL0     H48323   5.383   1.804   2.689  3.2155 -0.5513 -0.0499
  358MOL0     H48324   5.208   1.774   2.533 -0.2332 -0.1111 -0.6665
  358MOL0     H48325   5.296   1.840   2.395  2.2939 -1.3375 -0.3987
  358MOL0     H48326   5.368   1.421   2.379  3.2367 -0.7214  0.1179
  358MOL0     H48327   5.688   1.706   2.954  0.8051 -2.6611  1.9522
  358MOL0     H48328   5.909   1.686   3.205 -1.2336 -3.0056  0.8181
  358MOL0     H48329   5.801   1.599   3.110  0.1578 -1.3449  0.0954
  358MOL0     H48330   5.967   1.583   3.067 -0.2612  0.2371 -1.7704
  359MOL0     O48331   2.054  10.865   7.018  0.0011 -0.4920 -0.4710
  359MOL0     C48332   2.100  10.803   6.924  0.3216  0.6352  0.5817
  359MOL0     O48333   2.229  10.807   6.885  0.1515  0.0373  0.4982
  359MOL0     C48334   2.311  10.919   6.907 -0.1576 -0.4145 -0.2918
  359MOL0     C48335   2.447  10.893   6.920  0.5645  0.2279 -0.1069
  359MOL0     C48336   2.535  10.995   6.930 -0.1205 -0.1446 -0.0250
  359MOL0     C48337   2.496  11.131   6.919  0.3456 -0.8506  0.5263
  359MOL0     O48338   2.584  11.241   6.917 -1.0932  0.3594  0.7384
  359MOL0     C48339   2.725  11.211   6.955 -0.3434 -0.3392 -0.4936
  359MOL0     C48340   2.804  11.339   6.976 -0.2808 -0.0238 -0.4995
  359MOL0     C48341   2.947  11.298   7.014 -0.0050  0.3810  0.8961
  359MOL0     C48342   3.032  11.419   7.016 -0.7217 -0.1116  0.4455
  359MOL0     C48343   3.173  11.406   7.069 -0.0208  0.2576  0.8358
  359MOL0     C48344   3.261  11.520   7.011 -0.3147 -0.3874 -0.8344
  359MOL0     C48345   3.412  11.518   7.070 -0.4180 -1.1871  0.7973
  359MOL0     C48346   3.489  11.400   7.018  0.5095  0.2713 -0.2049
  359MOL0     N48347   3.625  11.392   7.077 -0.1315  0.3580 -0.5926
  359MOL0     C48348   3.655  11.323   7.202  0.1312 -0.2008 -0.6847
  359MOL0     C48349   3.784  11.359   7.222 -1.0027 -0.1368  0.4476
  359MOL0     C48350   3.865  11.291   7.327 -0.2047  0.2805  0.6760
  359MOL0     C48351   3.890  11.137   7.297  0.1713 -1.0069 -0.4655
  359MOL0     C48352   3.956  11.101   7.168  0.0597 -0.4725  0.1084
  359MOL0     C48353   4.109  11.100   7.188 -0.3735  0.2078  0.1366
  359MOL0     O48354   4.152  11.243   7.190 -0.6905  0.1236 -0.0226
  359MOL0     C48355   4.286  11.267   7.226  0.4535 -0.6721  0.3966
  359MOL0     C48356   4.390  11.183   7.216  0.0958  0.7327 -0.7509
  359MOL0     C48357   4.516  11.214   7.269 -0.9504 -0.3358 -0.8217
  359MOL0     C48358   4.547  11.350   7.299  0.2235 -0.0632 -0.6652
  359MOL0     C48359   4.682  11.394   7.336 -0.4039  0.1655  0.4366
  359MOL0     O48360   4.771  11.287   7.359 -0.4677 -0.0494  0.8923
  359MOL0     C48361   4.889  11.308   7.423  0.3007 -0.7735 -0.0489
  359MOL0     C48362   4.920  11.268   7.549 -0.2269 -0.6983 -1.2828
  359MOL0     C48363   5.043  11.300   7.613 -1.1375 -0.0643 -0.1897
  359MOL0     C48364   5.142  11.364   7.539 -0.4309  0.3206  0.4610
  359MOL0     O48365   5.278  11.385   7.567  0.0637 -0.0628  0.2040
  359MOL0     C48366   5.305  11.450   7.694 -1.1187  0.3113  0.4542
  359MOL0     C48367   5.448  11.451   7.743 -0.0796  0.8393  0.2795
  359MOL0     C48368   5.461  11.529   7.870  0.0014 -0.3831 -0.5433
  359MOL0     C48369   5.611  11.535   7.908  0.4850 -0.9013  0.4030
  359MOL0     C48370   5.622  11.609   8.046 -0.3181 -0.4880 -0.7069
  359MOL0     C48371   5.597  11.762   8.045  0.6319 -0.0387  0.3268
  359MOL0     C48372   5.666  11.862   7.953 -0.0065 -0.1256  0.3857
  359MOL0     C48373   5.824  11.855   7.956  0.6268 -0.1958 -0.0799
  359MOL0    Cl48374   5.888  11.985   7.851  0.3343 -0.3846 -0.3624
  359MOL0     C48375   5.113  11.409   7.409 -1.0612 -0.5903  1.0301
  359MOL0     C48376   4.985  11.382   7.352  0.0437  0.8018 -0.2262
  359MOL0     O48377   4.709  11.513   7.336 -0.0648  0.2504 -0.5826
  359MOL0     C48378   4.451  11.438   7.295 -0.0770  0.2751  0.2955
  359MOL0     C48379   4.317  11.400   7.260  0.1315  0.0158  0.0646
  359MOL0     N48380   3.832  11.442   7.127  0.2933 -0.3226  0.4116
  359MOL0     N48381   3.737  11.457   7.036  0.3906 -0.1419 -0.0266
  359MOL0     C48382   2.364  11.163   6.925  1.4436  0.1203 -0.2664
  359MOL0     C48383   2.276  11.052   6.920  0.0617  0.3139  0.0106
  359MOL0     C48384   2.009  10.710   6.851 -0.2125  0.7110 -0.6900
  359MOL0     C48385   2.065  10.643   6.737 -1.0251  0.5042  0.3560
  359MOL0     C48386   1.991  10.550   6.663  0.1667 -0.8461  0.1306
  359MOL0     C48387   1.854  10.539   6.684  0.4530  0.1781 -0.4813
  359MOL0     O48388   1.781  10.445   6.611 -0.4533 -0.1349  0.2764
  359MOL0     C48389   1.640  10.468   6.587 -0.1846 -0.6976  0.4777
  359MOL0     C48390   1.599  10.391   6.462  0.1617  0.4494 -0.1513
  359MOL0     C48391   1.446  10.383   6.432  0.1211 -0.4472 -0.4697
  359MOL0     C48392   1.440  10.311   6.290  0.5541 -0.6517 -0.2944
  359MOL0     C48393   1.302  10.314   6.248 -0.1640 -0.5701  0.2264
  359MOL0     C48394   1.197  10.324   6.197  0.4303 -0.5564 -1.2586
  359MOL0     C48395   1.792  10.616   6.786 -0.6613  0.4656  0.0596
  359MOL0     C48396   1.868  10.696   6.876  0.1090 -0.7712  0.2654
  359MOL0     C48397   1.792  10.767   6.983  0.5130  0.6065  0.3781
  359MOL0     H48398   2.485  10.791   6.922  1.7233  0.6496  0.2884
  359MOL0     H48399   2.639  10.976   6.957 -0.2382  1.5477  1.8557
  359MOL0     H48400   2.732  11.166   7.054  1.6039  2.1701  0.6140
  359MOL0     H48401   2.772  11.148   6.879  4.0566  0.2137  1.5260
  359MOL0     H48402   2.766  11.393   7.063  1.9259  0.3577  0.2924
  359MOL0     H48403   2.805  11.380   6.875  2.0080 -0.4676 -0.7209
  359MOL0     H48404   2.982  11.226   6.940 -0.6246  0.1806  0.7894
  359MOL0     H48405   2.956  11.242   7.108  1.1460  0.0455  0.6027
  359MOL0     H48406   3.026  11.472   6.920 -1.4397 -1.7046 -0.4381
  359MOL0     H48407   2.991  11.484   7.094  0.0997  1.8438 -0.6668
  359MOL0     H48408   3.172  11.421   7.177 -2.4182  0.4008  0.8353
  359MOL0     H48409   3.220  11.310   7.044 -0.9024 -0.1625  0.7293
  359MOL0     H48410   3.246  11.525   6.903  0.0374 -4.1991 -1.1923
  359MOL0     H48411   3.218  11.616   7.042  0.6927 -0.6997  1.8678
  359MOL0     H48412   3.412  11.508   7.179  1.0478 -0.8027  0.8470
  359MOL0     H48413   3.470  11.605   7.038  1.0510 -3.3776 -3.1594
  359MOL0     H48414   3.437  11.304   7.028 -0.1086  0.6429  0.2335
  359MOL0     H48415   3.501  11.419   6.911  1.8525 -0.2541 -0.1671
  359MOL0     H48416   3.598  11.263   7.272  0.7409 -0.6978 -0.6155
  359MOL0     H48417   3.958  11.349   7.334  0.2374 -0.4082  0.6861
  359MOL0     H48418   3.817  11.289   7.425  1.9327 -2.1556  1.8074
  359MOL0     H48419   3.955  11.101   7.378 -0.9167 -2.3859 -0.1756
  359MOL0     H48420   3.793  11.088   7.301 -1.2343  1.5584 -0.8850
  359MOL0     H48421   3.924  11.160   7.081  1.1522  0.0369  0.0368
  359MOL0     H48422   3.938  10.995   7.145 -0.4786 -0.0297 -1.6460
  359MOL0     H48423   4.153  11.039   7.108 -1.9969 -4.2090  2.2941
  359MOL0     H48424   4.139  11.044   7.277 -1.2102  1.5855  1.3435
  359MOL0     H48425   4.377  11.078   7.192 -1.1446  0.4988  0.7961
  359MOL0     H48426   4.598  11.145   7.286 -2.5000 -1.5156  3.1180
  359MOL0     H48427   4.850  11.210   7.609 -1.0320  1.6905  0.2187
  359MOL0     H48428   5.042  11.276   7.718  1.9328  0.1082 -0.0339
  359MOL0     H48429   5.269  11.548   7.663 -1.3840 -0.4835 -1.9337
  359MOL0     H48430   5.245  11.399   7.770 -1.7793  2.3569  1.3695
  359MOL0     H48431   5.489  11.352   7.768 -0.0788  0.2756 -1.7312
  359MOL0     H48432   5.510  11.489   7.661 -0.4796 -1.8926 -1.4449
  359MOL0     H48433   5.406  11.622   7.855 -0.6445 -0.9056 -1.4859
  359MOL0     H48434   5.409  11.477   7.952  1.2756  0.7467  1.0405
  359MOL0     H48435   5.664  11.586   7.828 -0.6940 -0.4239 -0.1026
  359MOL0     H48436   5.669  11.442   7.913  1.1482 -0.4400  3.5640
  359MOL0     H48437   5.724  11.595   8.084 -1.6984  0.0569  3.9147
  359MOL0     H48438   5.560  11.564   8.125  1.3074  1.5934  1.9514
  359MOL0     H48439   5.497  11.781   8.005  0.1186  2.3539  2.4897
  359MOL0     H48440   5.608  11.796   8.148  2.3798  0.5616 -0.0142
  359MOL0     H48441   5.624  11.958   7.984 -0.2933  0.0764 -0.5813
  359MOL0     H48442   5.641  11.840   7.849  0.1184 -1.0696  0.5382
  359MOL0     H48443   5.867  11.871   8.055  0.4652 -3.0296  0.5075
  359MOL0     H48444   5.861  11.758   7.922  0.2655  0.2547 -1.9227
  359MOL0     H48445   5.195  11.467   7.368  0.1362 -0.8974  2.8644
  359MOL0     H48446   4.974  11.420   7.251  0.9827 -1.0962 -1.1045
  359MOL0     H48447   4.461  11.544   7.312 -2.6768  1.7915 -5.2187
  359MOL0     H48448   4.237  11.473   7.268 -0.6494 -0.4268 -2.7103
  359MOL0     H48449   2.341  11.266   6.948  2.5008 -0.0850  2.0023
  359MOL0     H48450   2.172  11.083   6.921  0.0734  0.6215 -2.3643
  359MOL0     H48451   2.169  10.666   6.720 -1.9275  2.9700 -2.7449
  359MOL0     H48452   2.034  10.493   6.581  1.5281 -0.1233  0.3063
  359MOL0     H48453   1.599  10.568   6.576  0.4237 -0.5091 -0.1516
  359MOL0     H48454   1.587  10.430   6.675 -0.2574 -3.9565 -0.8321
  359MOL0     H48455   1.627  10.288   6.487 -0.6661  0.8180  2.6142
  359MOL0     H48456   1.661  10.425   6.378  1.7066 -2.9253 -0.5709
  359MOL0     H48457   1.399  10.480   6.416  1.0375 -0.3155 -2.8521
  359MOL0     H48458   1.388  10.323   6.503  2.0867 -1.4482  0.3550
  359MOL0     H48459   1.504  10.357   6.215  0.4556  0.0158  0.0236
  359MOL0     H48460   1.468  10.207   6.306  0.2787 -1.2960 -3.3505
  359MOL0     H48461   1.099  10.333   6.155  0.2223 -2.6264 -1.3122
  359MOL0     H48462   1.685  10.604   6.804 -1.4098  0.3368 -3.6721
  359MOL0     H48463   1.813  10.716   7.077  1.5743 -1.1709 -0.7702
  359MOL0     H48464   1.817  10.873   6.974 -1.5366  1.0811 -0.3898
  359MOL0     H48465   1.684  10.760   6.964  0.0066  1.1640  2.7513
  360MOL0     O48466   7.029   3.349   0.980 -0.0627  0.2069  0.5869
  360MOL0     C48467   6.974   3.257   0.917 -0.0428 -0.4556  0.0702
  360MOL0     O48468   6.984   3.130   0.945 -0.5761 -0.1926 -0.5036
  360MOL0     C48469   7.067   3.085   1.045 -0.7146 -0.0776 -0.4445
  360MOL0     C48470   7.012   3.051   1.174  0.3025  0.1648 -0.3885
  360MOL0     C48471   7.100   2.978   1.260 -0.5261 -0.1068  0.3072
  360MOL0     C48472   7.237   2.959   1.236  0.0527  1.2968  0.1146
  360MOL0     O48473   7.313   2.883   1.329 -0.2089 -0.0499 -0.5444
  360MOL0     C48474   7.451   2.859   1.308  1.1481  0.7845  0.5012
  360MOL0     C48475   7.524   2.789   1.418 -0.0188  0.5898  0.3387
  360MOL0     C48476   7.671   2.736   1.391 -0.1643 -1.0200  0.4912
  360MOL0     C48477   7.770   2.839   1.457  0.2205 -0.5939  0.3353
  360MOL0     C48478   7.912   2.830   1.412 -0.1465  0.3617  0.1645
  360MOL0     C48479   7.954   2.686   1.424 -0.0968 -0.5348 -0.0621
  360MOL0     C48480   8.103   2.662   1.420 -0.7590 -0.4572  0.3376
  360MOL0     C48481   8.155   2.545   1.502  0.1694  1.7703 -0.0635
  360MOL0     N48482   8.099   2.420   1.452  0.0805 -1.0509 -0.4501
  360MOL0     C48483   7.989   2.361   1.489  0.1377 -0.5504  0.0854
  360MOL0     C48484   7.974   2.258   1.404 -1.1032  0.0569 -0.5075
  360MOL0     C48485   7.869   2.151   1.401  0.4065 -0.1094 -0.5670
  360MOL0     C48486   7.807   2.153   1.261  0.8842  0.3170  0.6196
  360MOL0     C48487   7.766   2.293   1.214  0.2826  0.0021 -0.1397
  360MOL0     C48488   7.647   2.350   1.304  0.2418  0.5532  0.1284
  360MOL0     O48489   7.536   2.265   1.303 -0.0107 -0.3990 -1.0164
  360MOL0     C48490   7.407   2.319   1.305 -0.6050 -0.6552 -0.6328
  360MOL0     C48491   7.381   2.450   1.329 -0.5565 -0.9174  0.0749
  360MOL0     C48492   7.257   2.500   1.301 -0.4556 -0.4282  0.5744
  360MOL0     C48493   7.149   2.417   1.281 -0.3928  0.4985 -0.4892
  360MOL0     C48494   7.012   2.473   1.282 -0.0821  1.6357 -0.3046
  360MOL0     O48495   6.913   2.378   1.293 -0.6167  0.2310  0.1723
  360MOL0     C48496   6.787   2.423   1.281 -0.7760 -0.4362 -0.7482
  360MOL0     C48497   6.707   2.423   1.397 -0.3137 -0.4061  0.3253
  360MOL0     C48498   6.575   2.459   1.384  0.6281  0.3921  0.0094
  360MOL0     C48499   6.521   2.486   1.255  0.2218  0.3598  0.8020
  360MOL0     O48500   6.386   2.498   1.248  0.3894  0.3317  0.0310
  360MOL0     C48501   6.330   2.596   1.157  1.0738 -0.4122 -0.1410
  360MOL0     C48502   6.176   2.584   1.184 -0.2278 -0.3475  0.0440
  360MOL0     C48503   6.098   2.647   1.076  0.2994  0.2423 -1.0794
  360MOL0     C48504   5.944   2.632   1.099  0.1676 -0.7249  0.5669
  360MOL0     C48505   5.873   2.724   1.001 -0.0560 -0.1501 -0.2204
  360MOL0     C48506   5.716   2.701   1.007  0.5758 -0.5254 -0.6168
  360MOL0     C48507   5.663   2.736   0.861 -0.4247 -0.0609 -0.4703
  360MOL0     C48508   5.707   2.870   0.815  0.7503  0.8055  0.1715
  360MOL0    Cl48509   5.625   2.923   0.653 -0.7208  0.4975 -0.5072
  360MOL0     C48510   6.607   2.497   1.151 -0.2513 -0.3084 -0.5358
  360MOL0     C48511   6.746   2.463   1.156 -0.6107  0.7897  0.6318
  360MOL0     O48512   7.000   2.588   1.253  0.2480  0.4239 -0.6486
  360MOL0     C48513   7.178   2.276   1.269  0.1934  0.2252  0.2640
  360MOL0     C48514   7.308   2.226   1.271 -0.6151 -0.2159 -1.1261
  360MOL0     N48515   8.078   2.253   1.315 -0.1200  1.2876  0.6425
  360MOL0     N48516   8.151   2.356   1.343  1.2523  0.7126 -0.0167
  360MOL0     C48517   7.289   3.020   1.121 -0.0006  0.3610 -0.1818
  360MOL0     C48518   7.206   3.079   1.025  0.0961  0.8282 -0.1061
  360MOL0     C48519   6.906   3.290   0.789  0.4679  0.4469  0.6615
  360MOL0     C48520   6.859   3.191   0.697  0.6272  0.0167 -0.6352
  360MOL0     C48521   6.784   3.218   0.581 -0.2642  0.4125 -0.9290
  360MOL0     C48522   6.755   3.347   0.547  0.4130 -0.1009  0.2521
  360MOL0     O48523   6.690   3.397   0.440 -0.1879  0.2325  0.4374
  360MOL0     C48524   6.598   3.311   0.378  0.0321 -0.4544  0.0188
  360MOL0     C48525   6.505   3.403   0.283 -0.5099  0.3790  0.2039
  360MOL0     C48526   6.596   3.475   0.182  1.5148 -0.8444  0.2080
  360MOL0     C48527   6.513   3.534   0.065 -0.5615 -0.7120  0.7493
  360MOL0     C48528   6.392   3.612   0.103  0.1628 -0.2771  0.8545
  360MOL0     C48529   6.304   3.682   0.144 -0.1260 -0.6896  0.2456
  360MOL0     C48530   6.798   3.450   0.637 -0.3769  0.2991  0.5818
  360MOL0     C48531   6.881   3.423   0.744 -0.0244  0.1430  0.8675
  360MOL0     C48532   6.933   3.550   0.812  0.7136  0.2625 -0.2080
  360MOL0     H48533   6.906   3.053   1.198  0.6417  1.8317  1.1635
  360MOL0     H48534   7.075   2.936   1.357  0.7175  2.2700  1.7772
  360MOL0     H48535   7.447   2.792   1.221  1.2666 -1.9980  2.4918
  360MOL0     H48536   7.506   2.951   1.285 -0.1814  1.4978  0.0894
  360MOL0     H48537   7.458   2.707   1.446  1.4399 -1.2672 -1.3735
  360MOL0     H48538   7.522   2.861   1.501  1.9330 -0.8393  1.7399
  360MOL0     H48539   7.690   2.719   1.284 -1.2286  0.1523  0.0913
  360MOL0     H48540   7.677   2.644   1.449 -2.7989 -0.5111  1.7469
  360MOL0     H48541   7.736   2.943   1.453  0.6886 -0.4565 -0.2325
  360MOL0     H48542   7.777   2.806   1.561  1.5687 -2.0496 -0.1841
  360MOL0     H48543   7.906   2.853   1.305 -0.6351 -1.4095 -0.2186
  360MOL0     H48544   7.976   2.899   1.467  1.8582 -0.1153 -1.4173
  360MOL0     H48545   7.932   2.662   1.528  0.0336 -0.3714  0.0046
  360MOL0     H48546   7.898   2.628   1.350 -1.2080  1.3420 -0.7700
  360MOL0     H48547   8.161   2.745   1.461  0.6744 -0.9377 -0.6088
  360MOL0     H48548   8.139   2.647   1.317 -1.1843 -2.7079  0.4588
  360MOL0     H48549   8.262   2.532   1.488 -0.0645  0.9027 -1.1515
  360MOL0     H48550   8.141   2.553   1.611  3.5873 -1.1658  0.7659
  360MOL0     H48551   7.918   2.393   1.564 -3.0011 -2.3140 -1.8976
  360MOL0     H48552   7.927   2.060   1.421  2.6052  0.8694 -2.1660
  360MOL0     H48553   7.803   2.163   1.488 -0.0543  1.5788 -1.1294
  360MOL0     H48554   7.880   2.110   1.191  0.9865 -1.0068  1.4991
  360MOL0     H48555   7.713   2.096   1.258 -0.3852  2.3051 -2.0000
  360MOL0     H48556   7.728   2.296   1.111 -1.6916 -0.9927  0.5368
  360MOL0     H48557   7.848   2.366   1.216  1.1562 -0.9742  0.2315
  360MOL0     H48558   7.623   2.448   1.263  3.0016  1.0591 -0.4982
  360MOL0     H48559   7.679   2.356   1.409  2.4354  0.3527 -0.4742
  360MOL0     H48560   7.463   2.515   1.356  0.0081 -0.8516 -1.6612
  360MOL0     H48561   7.263   2.608   1.291 -1.2280 -0.4341 -0.0613
  360MOL0     H48562   6.748   2.398   1.494 -1.8765 -1.3086  0.7947
  360MOL0     H48563   6.504   2.460   1.465  0.0499  0.5707 -0.4896
  360MOL0     H48564   6.363   2.697   1.186  1.4737 -1.3427  3.1029
  360MOL0     H48565   6.365   2.574   1.056  3.5525 -4.8845  1.4053
  360MOL0     H48566   6.135   2.484   1.199  3.9600 -1.9363  2.4508
  360MOL0     H48567   6.156   2.636   1.278  1.7345  1.2651 -0.3678
  360MOL0     H48568   6.121   2.754   1.068 -1.0394  0.5294 -1.3629
  360MOL0     H48569   6.123   2.593   0.984  0.7031  1.1498 -1.5174
  360MOL0     H48570   5.929   2.657   1.204  1.0877  2.8833 -0.0441
  360MOL0     H48571   5.911   2.528   1.084  0.6599 -1.2777  2.8521
  360MOL0     H48572   5.904   2.684   0.904  2.2073 -1.4059  0.9411
  360MOL0     H48573   5.899   2.827   1.024 -1.3319 -0.0134  0.6568
  360MOL0     H48574   5.686   2.599   1.033  1.9736 -0.6264  0.7535
  360MOL0     H48575   5.680   2.758   1.093 -1.0754 -1.2469 -0.7800
  360MOL0     H48576   5.555   2.746   0.870 -0.3534  1.0540 -0.6910
  360MOL0     H48577   5.683   2.656   0.788 -3.4500  0.2331 -1.7455
  360MOL0     H48578   5.681   2.949   0.886 -2.5191 -0.4646  0.5762
  360MOL0     H48579   5.814   2.866   0.793  0.1294 -1.7568 -3.1366
  360MOL0     H48580   6.571   2.524   1.053  1.7964 -1.7360 -1.7469
  360MOL0     H48581   6.829   2.479   1.088  0.1430  3.0876  1.9836
  360MOL0     H48582   7.102   2.199   1.259  1.3031 -1.0229  1.0734
  360MOL0     H48583   7.325   2.119   1.265 -0.4848 -0.4823  2.2573
  360MOL0     H48584   7.394   3.017   1.091  0.7846 -0.9130  2.4216
  360MOL0     H48585   7.244   3.111   0.928  2.4457 -0.4916  0.2956
  360MOL0     H48586   6.877   3.087   0.721  1.0160  0.4094  0.9114
  360MOL0     H48587   6.745   3.135   0.522 -0.0872 -1.4044  1.3854
  360MOL0     H48588   6.537   3.241   0.434 -2.3779  1.4953 -0.0007
  360MOL0     H48589   6.650   3.239   0.314  2.2811  1.3242 -0.2895
  360MOL0     H48590   6.437   3.468   0.340 -1.8012  0.5775 -1.4967
  360MOL0     H48591   6.438   3.328   0.241  0.6208 -1.3683  1.3832
  360MOL0     H48592   6.669   3.406   0.139  2.4557 -0.2429  0.7976
  360MOL0     H48593   6.637   3.560   0.237 -1.5549  0.9534 -0.0960
  360MOL0     H48594   6.578   3.593  -0.000 -1.0338 -1.7647 -0.7269
  360MOL0     H48595   6.460   3.456   0.009 -4.5680  2.6556 -0.6790
  360MOL0     H48596   6.223   3.743   0.180 -1.7885 -1.4184 -2.0291
  360MOL0     H48597   6.782   3.556   0.620 -0.0497  0.5458  1.6690
  360MOL0     H48598   6.886   3.555   0.910  0.7919  3.3370 -0.2291
  360MOL0     H48599   7.041   3.566   0.813  0.3738  3.3577 -1.4826
  360MOL0     H48600   6.900   3.642   0.763 -0.1614 -0.3885 -0.8913
  361MOL0     O48601   4.849  11.222   5.008 -0.0112  0.1366  0.1880
  361MOL0     C48602   4.766  11.312   5.032  0.2657  0.8972  0.0767
  361MOL0     O48603   4.789  11.443   5.020 -0.1411 -0.3101 -0.1458
  361MOL0     C48604   4.909  11.497   4.991 -0.7153  1.4033  0.1320
  361MOL0     C48605   4.920  11.620   4.924  0.2128  0.2633  0.1323
  361MOL0     C48606   5.037  11.689   4.914  0.1802  0.1484  0.2673
  361MOL0     C48607   5.154  11.628   4.951 -0.7024 -0.1725 -0.1092
  361MOL0     O48608   5.280  11.684   4.941  0.2531  0.9430 -0.3391
  361MOL0     C48609   5.312  11.689   4.804  0.4027  0.3261  0.9809
  361MOL0     C48610   5.403  11.567   4.775  0.3954 -0.2556  0.2055
  361MOL0     C48611   5.543  11.598   4.811 -0.3092 -0.0011 -0.2521
  361MOL0     C48612   5.638  11.481   4.771 -0.1261  0.6239 -0.6643
  361MOL0     C48613   5.790  11.498   4.807  0.7546  0.7703  0.5507
  361MOL0     C48614   5.825  11.485   4.951 -0.6575  0.5997 -0.7447
  361MOL0     C48615   5.974  11.479   4.981 -0.1394  0.1948  0.2826
  361MOL0     C48616   6.004  11.420   5.121  0.5318 -0.5963 -0.6361
  361MOL0     N48617   6.142  11.366   5.113  0.1506  0.1416  0.5046
  361MOL0     C48618   6.177  11.246   5.054  0.1284 -0.3317  0.2068
  361MOL0     C48619   6.308  11.230   5.094  0.4283  0.0247  1.5326
  361MOL0     C48620   6.402  11.127   5.052 -1.1264 -0.6333  0.3823
  361MOL0     C48621   6.472  11.152   4.924 -0.4565 -0.5552 -0.1077
  361MOL0     C48622   6.585  11.255   4.932  0.2290  0.6734  0.5094
  361MOL0     C48623   6.635  11.304   4.790  0.2431  0.1208 -0.0704
  361MOL0     O48624   6.697  11.202   4.710  0.4056  0.1656 -0.2930
  361MOL0     C48625   6.829  11.211   4.689 -0.0509  0.4961 -0.3540
  361MOL0     C48626   6.869  11.268   4.573  0.8436 -0.3978  1.1084
  361MOL0     C48627   7.010  11.295   4.548 -0.0020 -0.6967 -0.1948
  361MOL0     C48628   7.110  11.261   4.639 -0.3441 -0.7442 -0.4446
  361MOL0     C48629   7.253  11.305   4.627 -0.1125 -0.8513 -0.6360
  361MOL0     O48630   7.336  11.274   4.715 -0.0857 -0.4384 -0.8254
  361MOL0     C48631   7.453  11.334   4.750  0.0697  0.1994  0.1187
  361MOL0     C48632   7.558  11.351   4.654  0.1427 -0.1298 -0.1518
  361MOL0     C48633   7.692  11.377   4.704  0.5090 -0.3320 -0.1559
  361MOL0     C48634   7.715  11.391   4.845  0.1337 -0.5023 -0.0483
  361MOL0     O48635   7.837  11.414   4.905  0.6817 -0.2283  0.1325
  361MOL0     C48636   7.950  11.360   4.838  0.4468  0.8737  0.1488
  361MOL0     C48637   8.061  11.362   4.943 -0.4853 -0.4424  0.5096
  361MOL0     C48638   8.172  11.256   4.919  0.1897 -0.6427  0.4856
  361MOL0     C48639   8.258  11.231   5.053  0.7323  0.1542  0.2611
  361MOL0     C48640   8.362  11.340   5.071  0.4391 -0.5809  0.2102
  361MOL0     C48641   8.411  11.344   5.215  0.6143  0.4160  0.9920
  361MOL0     C48642   8.477  11.207   5.261 -0.4125  0.0664  0.3329
  361MOL0     C48643   8.519  11.220   5.401 -0.2911 -0.3704  0.8049
  361MOL0    Cl48644   8.551  11.058   5.460 -0.2598  0.1337  0.2162
  361MOL0     C48645   7.611  11.379   4.936 -0.2393  0.2649 -0.5011
  361MOL0     C48646   7.487  11.337   4.889  0.0164 -0.1858 -0.2263
  361MOL0     O48647   7.279  11.365   4.521 -0.1780 -0.7337  0.1743
  361MOL0     C48648   7.071  11.188   4.752 -0.2366  0.3706 -0.4527
  361MOL0     C48649   6.932  11.165   4.784  0.1981  0.1518  0.2611
  361MOL0     N48650   6.341  11.334   5.175 -0.7496  0.0763  0.2020
  361MOL0     N48651   6.250  11.423   5.176  0.3024 -0.2628  0.0824
  361MOL0     C48652   5.153  11.493   4.996  0.0704  0.4499  0.1877
  361MOL0     C48653   5.028  11.429   5.023 -1.0553  0.3001  0.3292
  361MOL0     C48654   4.642  11.273   5.093 -0.3028 -0.6704 -0.2252
  361MOL0     C48655   4.591  11.350   5.200  0.8267  0.1153  0.7738
  361MOL0     C48656   4.464  11.321   5.247 -0.3153  0.3306  0.3016
  361MOL0     C48657   4.384  11.217   5.195  0.3356 -0.1147  0.2521
  361MOL0     O48658   4.254  11.192   5.238 -0.2995 -0.0366 -0.2046
  361MOL0     C48659   4.159  11.297   5.226  0.5545 -0.1998 -0.4453
  361MOL0     C48660   4.157  11.364   5.089  0.6361 -0.0974  0.8281
  361MOL0     C48661   4.043  11.462   5.071 -0.2680  0.4133 -0.1681
  361MOL0     C48662   3.979  11.437   4.928 -0.2049 -0.4559  0.6840
  361MOL0     C48663   3.868  11.524   4.876 -0.2808 -0.4746  0.3666
  361MOL0     C48664   3.786  11.610   4.830 -0.2550  0.0172 -0.0100
  361MOL0     C48665   4.442  11.138   5.091  0.2569  0.1267  0.7315
  361MOL0     C48666   4.568  11.169   5.045 -0.0235  0.3645 -0.2577
  361MOL0     C48667   4.602  11.076   4.935 -0.2420 -0.3722 -0.3393
  361MOL0     H48668   4.837  11.684   4.898 -0.5945 -1.6603 -2.4837
  361MOL0     H48669   5.033  11.789   4.873  1.9804 -1.1246 -3.4565
  361MOL0     H48670   5.226  11.689   4.736  0.2904 -0.8870  1.0888
  361MOL0     H48671   5.366  11.781   4.783  2.5162 -1.9668 -7.8758
  361MOL0     H48672   5.399  11.541   4.669  0.6348 -1.3822  0.4591
  361MOL0     H48673   5.368  11.477   4.827 -0.4941 -0.5273 -0.8168
  361MOL0     H48674   5.553  11.613   4.919  4.1808  2.2585 -0.7363
  361MOL0     H48675   5.579  11.686   4.757 -2.8087  0.8252 -0.7025
  361MOL0     H48676   5.597  11.383   4.797 -2.8906  0.6291 -4.1711
  361MOL0     H48677   5.633  11.468   4.662  2.1064 -3.0918 -0.4884
  361MOL0     H48678   5.848  11.422   4.752  0.8852  0.9680  0.4142
  361MOL0     H48679   5.822  11.592   4.763 -1.3440  0.1860 -2.5068
  361MOL0     H48680   5.785  11.576   4.998 -1.6094 -0.1526 -0.0428
  361MOL0     H48681   5.773  11.397   4.990 -0.4894  0.1177 -1.5864
  361MOL0     H48682   6.021  11.577   4.976  0.7596 -0.2574 -0.5663
  361MOL0     H48683   6.019  11.420   4.901 -1.4685  1.6935 -1.6436
  361MOL0     H48684   5.992  11.506   5.186  3.2562  0.7333 -1.7361
  361MOL0     H48685   5.930  11.343   5.146  1.2743  0.2427  5.6269
  361MOL0     H48686   6.119  11.179   4.991 -1.8044 -0.2078  1.7572
  361MOL0     H48687   6.480  11.118   5.128 -1.0457  0.7454  0.4987
  361MOL0     H48688   6.342  11.036   5.046 -2.8390  0.3774  1.5385
  361MOL0     H48689   6.510  11.058   4.883 -2.2727  0.2049 -3.9955
  361MOL0     H48690   6.397  11.185   4.852  1.2720  2.0845 -0.8475
  361MOL0     H48691   6.672  11.219   4.987  1.1611 -0.4191 -1.5862
  361MOL0     H48692   6.553  11.340   4.993  0.0559 -0.2723  1.7670
  361MOL0     H48693   6.709  11.383   4.806  1.4789 -0.6131 -1.8598
  361MOL0     H48694   6.550  11.351   4.740  0.4354  2.5154  1.6655
  361MOL0     H48695   6.804  11.295   4.490 -0.6787 -0.4490  2.2305
  361MOL0     H48696   7.037  11.356   4.462  0.1202  1.6690  1.4415
  361MOL0     H48697   7.531  11.340   4.550 -1.1181 -1.0204  0.2522
  361MOL0     H48698   7.771  11.388   4.630 -1.0395 -1.4995 -2.0749
  361MOL0     H48699   7.932  11.255   4.811  0.4529  0.1882  2.5784
  361MOL0     H48700   7.982  11.413   4.748 -1.0628 -2.2811 -2.4698
  361MOL0     H48701   8.110  11.458   4.927  0.2284 -1.0544 -1.2628
  361MOL0     H48702   8.018  11.354   5.043 -0.1744  2.7919  1.0083
  361MOL0     H48703   8.133  11.157   4.897 -2.5433  0.2354  1.0592
  361MOL0     H48704   8.243  11.293   4.844 -0.7904  1.9498  0.7371
  361MOL0     H48705   8.319  11.142   5.038  0.5904  0.1543 -0.3835
  361MOL0     H48706   8.188  11.223   5.136  1.0715 -0.2796  0.5033
  361MOL0     H48707   8.309  11.434   5.053  2.5015  0.5845 -0.1678
  361MOL0     H48708   8.458  11.334   5.019 -0.0475  1.0742 -0.9572
  361MOL0     H48709   8.479  11.429   5.233  2.2484 -0.7323  0.4299
  361MOL0     H48710   8.323  11.372   5.273  0.5365  2.0166  0.1648
  361MOL0     H48711   8.568  11.196   5.202 -0.3198  3.6802 -0.4652
  361MOL0     H48712   8.404  11.127   5.246 -1.4974  1.3583 -1.9058
  361MOL0     H48713   8.610  11.281   5.399 -0.7181  0.2646  0.5633
  361MOL0     H48714   8.452  11.259   5.478 -1.3029 -1.5544  0.5494
  361MOL0     H48715   7.617  11.382   5.044  0.5864 -1.2196 -0.4780
  361MOL0     H48716   7.402  11.305   4.947 -1.4734  1.2551 -1.4963
  361MOL0     H48717   7.159  11.160   4.810  0.7766  1.6594 -1.3104
  361MOL0     H48718   6.903  11.130   4.882 -1.9649  1.1816  0.0453
  361MOL0     H48719   5.250  11.447   5.014  0.1230  1.0404  1.4807
  361MOL0     H48720   5.033  11.332   5.073  0.7365  0.2881  0.2044
  361MOL0     H48721   4.662  11.429   5.225  2.5472 -1.0644 -0.1756
  361MOL0     H48722   4.424  11.369   5.336  2.3632  0.8000  1.3157
  361MOL0     H48723   4.190  11.371   5.300  0.8141 -0.1765 -0.5789
  361MOL0     H48724   4.063  11.251   5.254  1.1824 -1.2927 -0.0209
  361MOL0     H48725   4.155  11.284   5.014  2.6351  2.0514 -1.7012
  361MOL0     H48726   4.251  11.415   5.064  1.0764  1.0261  4.3011
  361MOL0     H48727   4.086  11.562   5.076 -2.6446  1.5349 -0.6696
  361MOL0     H48728   3.980  11.455   5.159  0.8426 -1.2132  0.5507
  361MOL0     H48729   4.055  11.428   4.850  2.3010  0.1920  2.8881
  361MOL0     H48730   3.943  11.334   4.931  0.7724 -0.9553 -1.9845
  361MOL0     H48731   3.730  11.682   4.773 -0.6201 -0.2193  0.0470
  361MOL0     H48732   4.376  11.061   5.052 -0.1218 -0.4693  2.4971
  361MOL0     H48733   4.692  11.014   4.948 -0.4578 -1.1088 -2.1645
  361MOL0     H48734   4.530  10.997   4.916 -1.3264 -0.5296  3.5336
  361MOL0     H48735   4.617  11.141   4.848  1.5024  0.4318  0.5023
  362MOL0     O48736   4.225   1.920   9.977  0.9013  0.2872  0.5569
  362MOL0     C48737   4.138   1.836   9.993 -0.1580 -0.6585  0.6154
  362MOL0     O48738   4.159   1.698  10.000  0.4555  0.3641 -0.2751
  362MOL0     C48739   4.287   1.649   9.991  0.2873 -0.7564 -0.4857
  362MOL0     C48740   4.371   1.647   9.881  0.0169  0.0518  0.7144
  362MOL0     C48741   4.504   1.602   9.895 -0.0582  0.8956 -0.1690
  362MOL0     C48742   4.557   1.548  10.013 -0.6413  0.8405 -0.7079
  362MOL0     O48743   4.687   1.507  10.027  0.2092  0.0855 -0.7582
  362MOL0     C48744   4.738   1.425   9.926  0.3743  0.3126 -0.0322
  362MOL0     C48745   4.856   1.358   9.985  0.4235  0.2458 -0.4315
  362MOL0     C48746   4.927   1.279   9.876 -0.1984 -0.1685 -0.1198
  362MOL0     C48747   5.053   1.216   9.935 -0.4041  0.0176  0.5016
  362MOL0     C48748   5.133   1.133   9.837 -0.3136  0.1940 -0.0912
  362MOL0     C48749   5.200   1.229   9.740 -0.5612 -0.0784 -0.3257
  362MOL0     C48750   5.271   1.144   9.634  0.2188  0.3084 -0.3305
  362MOL0     C48751   5.375   1.041   9.666  0.7021 -0.3757 -0.1183
  362MOL0     N48752   5.505   1.084   9.707  0.4855  0.5713  0.4794
  362MOL0     C48753   5.517   1.148   9.822 -0.6302 -1.0910 -0.4674
  362MOL0     C48754   5.650   1.177   9.828  0.2508  0.4536  0.0806
  362MOL0     C48755   5.735   1.250   9.934 -0.0461  0.4699  0.2751
  362MOL0     C48756   5.812   1.363   9.867  0.5670 -0.1148  0.0071
  362MOL0     C48757   5.706   1.467   9.838 -0.3164 -0.3217 -0.5413
  362MOL0     C48758   5.768   1.609   9.793  1.1276  0.7518 -0.8514
  362MOL0     O48759   5.841   1.677   9.900 -0.2920  0.4530  0.2333
  362MOL0     C48760   5.773   1.773   9.974  0.2399  0.8218 -0.4562
  362MOL0     C48761   5.639   1.818   9.954  0.4455  0.0054 -0.0836
  362MOL0     C48762   5.573   1.919  10.025  0.5133  0.3104 -0.1823
  362MOL0     C48763   5.653   1.990  10.119  0.4418 -0.5313  1.0492
  362MOL0     C48764   5.595   2.093  10.205 -0.2822 -0.9643 -0.3138
  362MOL0     O48765   5.678   2.185  10.267  0.1388 -0.0870 -0.4385
  362MOL0     C48766   5.618   2.290  10.334  0.3406  0.3701 -0.2965
  362MOL0     C48767   5.530   2.277  10.444 -0.5100  0.0474 -0.2119
  362MOL0     C48768   5.466   2.393  10.499 -0.1416 -0.3805  0.2283
  362MOL0     C48769   5.494   2.516  10.445 -0.2159 -0.0531 -0.2390
  362MOL0     O48770   5.442   2.631  10.503 -0.6968  0.1387  0.6880
  362MOL0     C48771   5.312   2.682  10.444 -0.6478  0.2651 -0.6115
  362MOL0     C48772   5.269   2.806  10.508 -0.3934  0.1178 -0.5016
  362MOL0     C48773   5.194   2.896  10.412 -0.2813  0.1485  1.0665
  362MOL0     C48774   5.074   2.824  10.352 -0.4323  0.4107  0.0037
  362MOL0     C48775   4.985   2.918  10.267  0.1390 -0.1731  0.1554
  362MOL0     C48776   4.870   2.842  10.196 -0.0556  0.2180  0.7451
  362MOL0     C48777   4.752   2.812  10.295 -0.6851  0.0022 -0.8700
  362MOL0     C48778   4.637   2.746  10.221 -0.0574 -0.3203  0.0602
  362MOL0    Cl48779   4.685   2.579  10.190  0.0826 -0.1956 -0.0575
  362MOL0     C48780   5.596   2.533  10.356  1.0201 -0.0669  0.9420
  362MOL0     C48781   5.656   2.423  10.291  0.0780  0.1358 -0.4573
  362MOL0     O48782   5.474   2.100  10.197  0.3644 -0.7379  0.4932
  362MOL0     C48783   5.786   1.956  10.141 -0.7045 -0.0624 -0.1687
  362MOL0     C48784   5.844   1.843  10.075  0.2627 -0.2338  0.4907
  362MOL0     N48785   5.703   1.149   9.707  0.1284  0.1740 -0.0837
  362MOL0     N48786   5.619   1.080   9.636 -0.9048  0.0754 -0.2955
  362MOL0     C48787   4.468   1.549  10.119 -0.4606  0.7874 -0.3011
  362MOL0     C48788   4.333   1.585  10.105 -0.4221  0.2418 -0.8434
  362MOL0     C48789   3.998   1.889  10.029  0.2572 -0.2118  0.7495
  362MOL0     C48790   3.901   1.802  10.082  0.0150 -0.0696  0.1208
  362MOL0     C48791   3.767   1.842  10.115  0.2032  0.5005  0.2021
  362MOL0     C48792   3.738   1.975  10.096  0.1872  0.0513  0.2492
  362MOL0     O48793   3.615   2.038  10.130  0.1500  0.0830 -0.0380
  362MOL0     C48794   3.507   1.945  10.159 -0.2101 -0.7196  0.6243
  362MOL0     C48795   3.379   2.022  10.194 -0.2159 -0.2698  0.3464
  362MOL0     C48796   3.384   2.061  10.341  0.0697  0.2103 -0.5881
  362MOL0     C48797   3.261   2.126  10.384  0.1904  0.4089 -0.4908
  362MOL0     C48798   3.133   2.040  10.368 -1.0721 -0.8912 -0.6409
  362MOL0     C48799   3.024   1.983  10.359 -0.2486 -0.1977  0.9333
  362MOL0     C48800   3.819   2.056  10.038 -1.7243  0.4721  0.6524
  362MOL0     C48801   3.945   2.016   9.993  0.3544 -0.3903 -0.1679
  362MOL0     C48802   4.033   2.127   9.937  0.0219 -0.5001  0.0091
  362MOL0     H48803   4.336   1.678   9.784  1.4110 -1.0059 -0.1682
  362MOL0     H48804   4.569   1.618   9.810  1.0139 -1.2844  0.1630
  362MOL0     H48805   4.671   1.351   9.881  0.5644 -0.7380  1.3373
  362MOL0     H48806   4.785   1.494   9.855  0.2685 -2.0457 -2.5829
  362MOL0     H48807   4.828   1.293  10.068 -1.6535 -0.2257 -1.4406
  362MOL0     H48808   4.917   1.443  10.017  0.9802  0.0712 -0.9785
  362MOL0     H48809   4.947   1.346   9.792 -1.4089  0.5342  0.1257
  362MOL0     H48810   4.843   1.218   9.840  0.0669  0.6624 -2.2615
  362MOL0     H48811   5.107   1.294   9.989  0.7825 -0.1057 -0.4528
  362MOL0     H48812   5.024   1.148  10.015  0.9357  1.0273  1.9209
  362MOL0     H48813   5.213   1.080   9.888  1.5156  0.7658 -2.2288
  362MOL0     H48814   5.078   1.060   9.776  1.6499  0.2350 -2.0312
  362MOL0     H48815   5.140   1.314   9.705  0.7087  1.1117  0.2807
  362MOL0     H48816   5.279   1.276   9.799  0.3013 -1.8696  0.0171
  362MOL0     H48817   5.328   1.221   9.581 -0.0740  1.0050  0.3434
  362MOL0     H48818   5.199   1.098   9.566 -1.4041  3.1043 -0.6441
  362MOL0     H48819   5.340   0.971   9.741  1.9862 -3.7996 -2.4584
  362MOL0     H48820   5.390   0.982   9.575  2.1160 -1.9389  1.0847
  362MOL0     H48821   5.446   1.166   9.902 -1.1775 -2.7402 -0.5356
  362MOL0     H48822   5.673   1.282  10.017 -0.2556  2.4388 -0.5870
  362MOL0     H48823   5.812   1.178   9.966 -0.9189 -0.2512  0.7878
  362MOL0     H48824   5.886   1.413   9.930  1.9337 -1.1263 -0.7668
  362MOL0     H48825   5.862   1.336   9.774  0.5294 -1.6142  0.4098
  362MOL0     H48826   5.640   1.466   9.925  0.8885 -3.8047  0.4945
  362MOL0     H48827   5.639   1.435   9.758 -0.7920 -0.1555 -0.2191
  362MOL0     H48828   5.698   1.677   9.744  3.0144  2.9068 -0.7257
  362MOL0     H48829   5.845   1.585   9.718  0.1660 -4.2211 -0.6316
  362MOL0     H48830   5.587   1.760   9.878  3.7148 -0.2750 -2.3522
  362MOL0     H48831   5.472   1.939   9.989  0.8100 -0.0602 -1.2553
  362MOL0     H48832   5.486   2.181  10.469  1.8518 -1.3980 -1.1551
  362MOL0     H48833   5.393   2.389  10.580 -3.3538  1.1802 -2.3714
  362MOL0     H48834   5.314   2.695  10.336  3.1271  1.4365 -0.5611
  362MOL0     H48835   5.237   2.606  10.467  0.9560 -1.3975 -0.6148
  362MOL0     H48836   5.198   2.796  10.591 -0.4919  0.1894 -0.5757
  362MOL0     H48837   5.354   2.861  10.548  0.8557  0.0691 -2.9419
  362MOL0     H48838   5.174   2.992  10.462 -1.4917  0.0559  0.7965
  362MOL0     H48839   5.266   2.916  10.331 -1.1698 -3.3379 -0.7832
  362MOL0     H48840   5.013   2.765  10.421 -2.5355  2.2714 -0.1690
  362MOL0     H48841   5.114   2.742  10.291 -0.6679 -0.5473  1.0975
  362MOL0     H48842   5.047   2.976  10.198 -0.4692 -1.3307 -1.4220
  362MOL0     H48843   4.942   2.985  10.342 -1.2224  0.0466 -0.7957
  362MOL0     H48844   4.827   2.894  10.110  0.8207 -2.8195 -1.7028
  362MOL0     H48845   4.914   2.752  10.151 -0.4762  2.0168 -3.8391
  362MOL0     H48846   4.723   2.906  10.342  1.9281  0.8585 -0.8162
  362MOL0     H48847   4.778   2.758  10.387 -2.3889 -0.6759 -0.7338
  362MOL0     H48848   4.549   2.741  10.286 -1.3444  0.0846 -1.5910
  362MOL0     H48849   4.610   2.801  10.130 -1.3263  0.9132  1.1385
  362MOL0     H48850   5.631   2.627  10.316  0.3909 -0.5596 -0.9244
  362MOL0     H48851   5.724   2.431  10.207  2.6640 -0.1251  1.4722
  362MOL0     H48852   5.844   2.019  10.207  0.7682 -1.0480 -0.4456
  362MOL0     H48853   5.945   1.806  10.086  1.5263  2.6664 -0.3816
  362MOL0     H48854   4.509   1.530  10.217 -2.0771  2.9559  0.8818
  362MOL0     H48855   4.270   1.573  10.192  1.0391  0.0035  0.2187
  362MOL0     H48856   3.934   1.700  10.099 -1.3948 -0.6400 -0.4363
  362MOL0     H48857   3.696   1.762  10.131 -1.2077  1.4570 -1.0074
  362MOL0     H48858   3.544   1.886  10.244 -2.0653  1.3458  3.0167
  362MOL0     H48859   3.481   1.892  10.067 -4.6799 -0.3818  1.4463
  362MOL0     H48860   3.288   1.963  10.176 -1.4590  0.8954  2.3761
  362MOL0     H48861   3.368   2.117  10.142 -0.0835 -0.3487  0.1748
  362MOL0     H48862   3.476   2.116  10.364  1.9084 -3.0383  0.5560
  362MOL0     H48863   3.390   1.966  10.396 -2.3214 -1.0743 -2.3681
  362MOL0     H48864   3.288   2.143  10.489 -1.2437  0.7620 -0.1573
  362MOL0     H48865   3.248   2.218  10.328 -1.9034  1.5638  1.6754
  362MOL0     H48866   2.924   1.946  10.362  0.1684 -1.3791  0.9930
  362MOL0     H48867   3.790   2.160  10.027  0.9184  1.0710 -1.9432
  362MOL0     H48868   4.112   2.160  10.004  0.4163 -1.3829 -0.0034
  362MOL0     H48869   4.075   2.081   9.847 -0.1342 -0.9098  0.1413
  362MOL0     H48870   3.974   2.216   9.915 -0.7491 -0.6355  1.4127
  363MOL0     O48871   6.091   4.623  10.489 -0.5796 -0.1489  0.5971
  363MOL0     C48872   6.086   4.557  10.589 -0.1174 -0.9218 -0.2996
  363MOL0     O48873   6.194   4.540  10.672 -0.2575 -0.6603 -0.1883
  363MOL0     C48874   6.322   4.591  10.642  0.3244  0.6441 -0.4681
  363MOL0     C48875   6.400   4.608  10.754 -0.4463 -0.5292 -0.1502
  363MOL0     C48876   6.534   4.651  10.756 -0.1124  0.8054  0.7392
  363MOL0     C48877   6.599   4.656  10.628 -0.2593  0.4641  0.0186
  363MOL0     O48878   6.734   4.687  10.635 -0.1383 -0.0296  0.7125
  363MOL0     C48879   6.814   4.657  10.522  0.4682  0.8174  0.0441
  363MOL0     C48880   6.961   4.630  10.549  0.6073 -0.5022  0.2482
  363MOL0     C48881   6.983   4.522  10.661  0.5273 -0.3735  0.2622
  363MOL0     C48882   7.133   4.504  10.674  0.4144  0.1845  0.1168
  363MOL0     C48883   7.178   4.393  10.769 -0.1322 -0.5408 -0.2119
  363MOL0     C48884   7.098   4.390  10.904 -0.3885  0.1745  0.6513
  363MOL0     C48885   7.159   4.297  11.003 -1.0570 -0.7368  0.1819
  363MOL0     C48886   7.104   4.331  11.130 -0.4133 -0.8875 -0.1869
  363MOL0     N48887   7.153   4.257  11.247 -0.0391 -0.6379 -0.2207
  363MOL0     C48888   7.273   4.202  11.253 -0.0014  0.1392 -0.1812
  363MOL0     C48889   7.277   4.141  11.370  1.1459  0.7038 -0.2257
  363MOL0     C48890   7.393   4.049  11.396  0.1456 -0.2886  0.1844
  363MOL0     C48891   7.369   3.965  11.528  0.3983  0.5561  0.0670
  363MOL0     C48892   7.471   3.858  11.566 -0.7599 -0.3658 -0.4615
  363MOL0     C48893   7.453   3.718  11.510 -0.5604  0.7127 -0.9663
  363MOL0     O48894   7.585   3.654  11.487  0.8053  0.9174  0.5344
  363MOL0     C48895   7.657   3.616  11.592 -0.2599 -0.5575 -0.7234
  363MOL0     C48896   7.608   3.598  11.725  0.5564  0.2627 -0.6548
  363MOL0     C48897   7.693   3.555  11.829 -0.5336 -0.0907  0.3510
  363MOL0     C48898   7.836   3.537  11.798 -0.0535  0.1491  0.0554
  363MOL0     C48899   7.920   3.483  11.894  0.8999 -0.1987 -0.5107
  363MOL0     O48900   8.049   3.492  11.872 -0.4767 -0.6176 -0.0397
  363MOL0     C48901   8.143   3.396  11.903 -1.2073  0.9564 -0.2850
  363MOL0     C48902   8.271   3.431  11.863  0.0060 -0.1020  0.4715
  363MOL0     C48903   8.379   3.347  11.884  0.0054  0.1830  0.0195
  363MOL0     C48904   8.359   3.225  11.951 -1.3076  0.3365  1.1969
  363MOL0     O48905   8.472   3.145  11.962  0.0019 -0.6019  0.3037
  363MOL0     C48906   8.541   3.168  12.084  0.2517 -0.1843  0.5667
  363MOL0     C48907   8.689   3.134  12.069  0.1121 -0.6804  0.0540
  363MOL0     C48908   8.763   3.140  12.194 -0.0832 -0.4387  0.2323
  363MOL0     C48909   8.715   3.036  12.299 -0.1708 -0.6991 -0.5564
  363MOL0     C48910   8.801   3.033  12.427  0.4720 -0.6972 -0.5533
  363MOL0     C48911   8.948   2.993  12.421 -0.1751  0.2010  0.4123
  363MOL0     C48912   9.011   3.003  12.562  0.1271 -0.2842  0.3746
  363MOL0     C48913   9.161   2.968  12.567  0.4839  0.4499 -0.2318
  363MOL0    Cl48914   9.190   2.878  12.722 -0.1400 -0.4085 -0.4884
  363MOL0     C48915   8.237   3.182  11.994  0.3280 -0.5059  0.2387
  363MOL0     C48916   8.125   3.271  11.965 -0.1194  0.9106 -1.0030
  363MOL0     O48917   7.868   3.414  11.983  0.1069  0.1829  0.0556
  363MOL0     C48918   7.888   3.576  11.674  0.5133  0.0325  0.6006
  363MOL0     C48919   7.798   3.606  11.569  0.1459  0.2125  0.3098
  363MOL0     N48920   7.154   4.158  11.425  0.1919 -0.1023  0.5711
  363MOL0     N48921   7.080   4.241  11.361 -0.2803 -0.6440 -0.0750
  363MOL0     C48922   6.524   4.641  10.509 -0.1491  0.4923 -0.3312
  363MOL0     C48923   6.393   4.609  10.516  0.0434  0.0148  0.1752
  363MOL0     C48924   5.969   4.477  10.617  0.0625 -0.4033  1.4341
  363MOL0     C48925   5.958   4.400  10.733 -0.5924  0.9681  0.1839
  363MOL0     C48926   5.845   4.316  10.763 -0.0990 -1.3705  0.5246
  363MOL0     C48927   5.741   4.312  10.670 -0.3268  0.3686  0.4404
  363MOL0     O48928   5.621   4.245  10.687 -0.0483  0.0731 -0.0539
  363MOL0     C48929   5.594   4.160  10.797  0.4889 -0.4763  1.1689
  363MOL0     C48930   5.658   4.022  10.782 -0.1942 -0.5716 -0.7055
  363MOL0     C48931   5.682   3.960  10.922  0.4470  0.5010  0.4598
  363MOL0     C48932   5.815   4.009  10.984 -0.1320 -0.1419 -0.1808
  363MOL0     C48933   5.842   3.932  11.101  0.1429  0.6220 -0.9344
  363MOL0     C48934   5.882   3.860  11.197  0.3002 -0.2040 -0.4708
  363MOL0     C48935   5.758   4.391  10.556  0.7514 -1.0271  0.4138
  363MOL0     C48936   5.864   4.473  10.520 -0.7907  0.0285  1.0210
  363MOL0     C48937   5.856   4.548  10.381  0.4333  0.8828 -0.1587
  363MOL0     H48938   6.346   4.592  10.847 -3.5181  3.1459 -1.0710
  363MOL0     H48939   6.580   4.667  10.853 -2.9784 -1.5754  2.7038
  363MOL0     H48940   6.764   4.577  10.466 -3.0146  1.5480  1.8597
  363MOL0     H48941   6.814   4.752  10.467 -0.0738  1.3441  0.9328
  363MOL0     H48942   7.011   4.722  10.584 -0.7652 -0.3678  2.0174
  363MOL0     H48943   7.004   4.603  10.452 -0.6339  0.6048 -0.6308
  363MOL0     H48944   6.943   4.421  10.652 -0.4924 -0.4009  3.6747
  363MOL0     H48945   6.925   4.553  10.749 -1.9916 -2.5626 -0.5012
  363MOL0     H48946   7.172   4.489  10.572 -1.5252  1.0277 -0.8103
  363MOL0     H48947   7.177   4.599  10.706 -0.0118 -0.2171  1.9710
  363MOL0     H48948   7.176   4.297  10.717 -0.8570 -0.7915  0.2698
  363MOL0     H48949   7.280   4.410  10.805 -0.7755  0.6725  1.1351
  363MOL0     H48950   7.099   4.493  10.939  1.1485 -0.2193  1.9171
  363MOL0     H48951   6.997   4.352  10.887 -0.2847  1.3798 -3.7225
  363MOL0     H48952   7.266   4.316  11.010 -0.8208 -1.9392  0.1507
  363MOL0     H48953   7.132   4.195  10.972 -3.2921 -0.0036 -0.5078
  363MOL0     H48954   7.118   4.437  11.156 -3.6380 -0.7026  1.4039
  363MOL0     H48955   6.995   4.321  11.123 -0.7698  1.4131  1.0014
  363MOL0     H48956   7.347   4.193  11.175 -2.9675  0.4009 -3.2605
  363MOL0     H48957   7.405   3.978  11.314 -3.2706 -0.1879 -0.5720
  363MOL0     H48958   7.491   4.097  11.406  0.7285 -1.6589  1.2981
  363MOL0     H48959   7.348   4.024  11.617 -2.2848 -1.0431  0.6196
  363MOL0     H48960   7.274   3.915  11.509  1.4075 -1.3102 -0.3031
  363MOL0     H48961   7.480   3.842  11.673  1.1044  0.5643 -0.4353
  363MOL0     H48962   7.570   3.895  11.538  0.2083 -2.1285  0.4634
  363MOL0     H48963   7.403   3.725  11.413 -1.1163  3.0994 -0.5714
  363MOL0     H48964   7.380   3.660  11.568 -0.2508  2.8979  1.8548
  363MOL0     H48965   7.510   3.609  11.770  0.2725 -0.7766 -0.9811
  363MOL0     H48966   7.645   3.529  11.922  2.7441 -0.8164  1.9871
  363MOL0     H48967   8.288   3.519  11.801  0.7084 -2.0860 -2.3498
  363MOL0     H48968   8.480   3.364  11.849  0.6141  0.7431  1.9432
  363MOL0     H48969   8.520   3.270  12.118  3.7346  1.0488 -0.5516
  363MOL0     H48970   8.500   3.096  12.155 -0.0956  0.1119  0.6698
  363MOL0     H48971   8.711   3.033  12.031 -0.4271 -0.7692 -0.0287
  363MOL0     H48972   8.736   3.203  11.998 -0.9690 -0.6909 -0.6979
  363MOL0     H48973   8.869   3.137  12.168 -0.2742  4.1635 -2.0429
  363MOL0     H48974   8.756   3.244  12.226 -1.2023 -0.2336 -0.6350
  363MOL0     H48975   8.697   2.935  12.262  1.6609 -0.8321 -1.2069
  363MOL0     H48976   8.615   3.069  12.326  0.1619  0.9192 -1.1504
  363MOL0     H48977   8.744   2.974  12.499 -0.8183 -1.6510 -2.2857
  363MOL0     H48978   8.800   3.135  12.466 -0.2865  0.4370 -3.2728
  363MOL0     H48979   8.964   2.891  12.384  1.4900 -0.2324  2.1413
  363MOL0     H48980   9.005   3.061  12.356 -1.1329 -2.1325 -3.1913
  363MOL0     H48981   8.962   2.924  12.618  1.1098 -1.9497 -1.0087
  363MOL0     H48982   9.003   3.106  12.600 -1.0957  0.7294 -2.3569
  363MOL0     H48983   9.180   2.899  12.484 -2.6803  1.8252 -2.3065
  363MOL0     H48984   9.222   3.055  12.544  2.2675 -1.2816 -2.5775
  363MOL0     H48985   8.228   3.085  12.041  0.5368  0.3023  2.0432
  363MOL0     H48986   8.024   3.238  11.985  0.3420  0.2524  0.3290
  363MOL0     H48987   7.993   3.572  11.646  1.3435 -3.2233  3.4601
  363MOL0     H48988   7.841   3.625  11.471 -1.4876 -0.7005 -0.6347
  363MOL0     H48989   6.573   4.645  10.413 -0.0313 -2.6744 -0.5195
  363MOL0     H48990   6.339   4.598  10.423  0.8268 -1.8774 -0.1060
  363MOL0     H48991   6.044   4.403  10.798  0.3898  0.2996 -1.0348
  363MOL0     H48992   5.841   4.256  10.853  3.0400 -0.7022  1.2264
  363MOL0     H48993   5.488   4.139  10.817 -0.2235 -1.4337 -2.7940
  363MOL0     H48994   5.626   4.215  10.886 -2.0011 -0.7882  2.3438
  363MOL0     H48995   5.756   4.037  10.737 -0.8604  0.4132 -1.8931
  363MOL0     H48996   5.602   3.960  10.711 -0.2657 -0.0371 -1.1278
  363MOL0     H48997   5.676   3.851  10.911  0.5196  0.4921  0.5068
  363MOL0     H48998   5.607   3.993  10.994  0.0161  0.4419  0.0461
  363MOL0     H48999   5.903   3.998  10.920 -0.2278  4.9546 -1.5887
  363MOL0     H49000   5.815   4.112  11.019  0.6061  0.2630 -1.3195
  363MOL0     H49001   5.926   3.793  11.267  0.0933 -2.3904 -2.3046
  363MOL0     H49002   5.688   4.385  10.473 -0.3768 -0.2431  1.2779
  363MOL0     H49003   5.937   4.524  10.311  0.2270  0.8505 -0.3843
  363MOL0     H49004   5.758   4.538  10.336  1.1321  1.6755 -1.9300
  363MOL0     H49005   5.849   4.656  10.390  0.4792  1.1029 -2.2779
  364MOL0     O49006   9.781   5.939  11.228 -0.3762 -0.0052 -0.4362
  364MOL0     C49007   9.712   5.937  11.330 -0.1232 -0.8731 -0.0777
  364MOL0     O49008   9.741   6.008  11.441  0.0848  0.1642 -0.1608
  364MOL0     C49009   9.844   6.101  11.450 -0.1240 -0.1510  0.4772
  364MOL0     C49010   9.804   6.232  11.443 -0.4632 -0.0603 -0.2191
  364MOL0     C49011   9.895   6.338  11.462 -0.0170 -0.3524 -0.4414
  364MOL0     C49012  10.036   6.313  11.472 -0.1773 -0.2642 -1.4256
  364MOL0     O49013  10.122   6.423  11.471  0.4072  0.2731 -0.3650
  364MOL0     C49014  10.263   6.412  11.466  0.5641 -0.4721  0.1647
  364MOL0     C49015  10.312   6.399  11.606 -0.0177 -0.2043 -0.4780
  364MOL0     C49016  10.462   6.434  11.627  0.2670  0.0199 -0.2334
  364MOL0     C49017  10.544   6.350  11.537 -0.0700  0.0583  0.7463
  364MOL0     C49018  10.698   6.344  11.554  0.4506 -0.7365 -0.4250
  364MOL0     C49019  10.773   6.259  11.454 -0.2115  0.1624 -0.3882
  364MOL0     C49020  10.913   6.220  11.493  0.4076 -0.6632  0.1428
  364MOL0     C49021  11.003   6.331  11.539 -0.2031  0.4964 -0.2801
  364MOL0     N49022  11.138   6.279  11.557 -0.1741  0.2163 -1.4344
  364MOL0     C49023  11.165   6.176  11.649 -0.4491 -0.1726 -0.4053
  364MOL0     C49024  11.289   6.131  11.611  0.0912 -0.3570  0.1104
  364MOL0     C49025  11.362   6.014  11.673 -0.1618  0.3155  0.2458
  364MOL0     C49026  11.436   6.039  11.802 -0.0747 -0.3374 -0.8269
  364MOL0     C49027  11.425   5.916  11.894 -0.0413 -0.1608  0.4165
  364MOL0     C49028  11.516   5.937  12.030 -0.6893 -1.1193 -0.0874
  364MOL0     O49029  11.651   5.941  11.978  0.6482  0.4119 -0.5321
  364MOL0     C49030  11.741   5.945  12.072 -0.3669 -0.5557 -0.1695
  364MOL0     C49031  11.718   5.967  12.216  0.4780  0.3763  0.8859
  364MOL0     C49032  11.825   5.979  12.302  0.1277 -0.8244  0.4053
  364MOL0     C49033  11.959   5.970  12.261  0.0699 -0.2074  0.9035
  364MOL0     C49034  12.072   5.987  12.351 -0.4497  0.3247 -0.4374
  364MOL0     O49035  12.193   5.981  12.296  1.5806 -0.0773 -0.1031
  364MOL0     C49036  12.300   6.015  12.381 -0.0112 -0.2829  0.3378
  364MOL0     C49037  12.419   5.946  12.368  0.3752  0.2294 -0.7185
  364MOL0     C49038  12.532   5.970  12.446  0.3461  0.6462 -1.8078
  364MOL0     C49039  12.526   6.077  12.536  0.2791 -0.1683  0.5419
  364MOL0     O49040  12.621   6.095  12.636  0.5222  0.6699  0.2542
  364MOL0     C49041  12.747   6.044  12.603 -0.0138  0.1522 -0.1344
  364MOL0     C49042  12.862   6.111  12.686  0.2608 -0.1146 -0.3619
  364MOL0     C49043  12.993   6.040  12.652 -0.2728 -0.7824  1.2392
  364MOL0     C49044  13.107   6.111  12.715 -0.1835  0.3497  0.3255
  364MOL0     C49045  13.231   6.020  12.705 -0.0918  0.1668  0.4766
  364MOL0     C49046  13.369   6.082  12.749  0.4582 -0.4777  0.2641
  364MOL0     C49047  13.484   5.980  12.727  0.1540 -0.2417 -0.1434
  364MOL0     C49048  13.610   6.049  12.758  0.0530 -0.1845 -0.3131
  364MOL0    Cl49049  13.680   6.143  12.633  0.2327 -0.0527 -0.4111
  364MOL0     C49050  12.417   6.163  12.540  0.8908  0.1832  0.9308
  364MOL0     C49051  12.300   6.127  12.469  0.2303  0.2615 -0.7382
  364MOL0     O49052  12.047   6.013  12.470 -0.3178 -0.7349  0.2969
  364MOL0     C49053  11.976   5.952  12.116 -0.6874 -0.9526  0.3276
  364MOL0     C49054  11.874   5.931  12.025 -0.3646  0.0992 -0.2977
  364MOL0     N49055  11.337   6.212  11.510 -0.1414 -0.7995  0.3781
  364MOL0     N49056  11.241   6.300  11.478 -0.8088 -0.5584 -0.3737
  364MOL0     C49057  10.079   6.177  11.477 -0.4546  0.4530  0.5518
  364MOL0     C49058   9.983   6.074  11.464 -0.0704  0.7579  0.2464
  364MOL0     C49059   9.600   5.844  11.330  0.2850 -0.1741 -0.3364
  364MOL0     C49060   9.561   5.786  11.212 -0.9034 -0.3266 -0.1371
  364MOL0     C49061   9.452   5.701  11.198  0.2989  0.6152 -0.0458
  364MOL0     C49062   9.386   5.660  11.309  0.0096 -0.2159 -0.4402
  364MOL0     O49063   9.283   5.569  11.295  0.5861  0.6922  0.7090
  364MOL0     C49064   9.160   5.638  11.300  0.5522 -0.0092 -0.2177
  364MOL0     C49065   9.038   5.560  11.251 -0.3163  0.4671 -0.6389
  364MOL0     C49066   9.057   5.453  11.136  0.2334  0.1482  0.4482
  364MOL0     C49067   8.928   5.378  11.097 -0.0972 -0.1777 -0.2810
  364MOL0     C49068   8.814   5.466  11.064 -0.3272  0.4387 -0.5616
  364MOL0     C49069   8.727   5.543  11.032  0.0446  0.5126  0.2707
  364MOL0     C49070   9.436   5.705  11.432  0.6653 -0.3495 -0.3521
  364MOL0     C49071   9.534   5.807  11.443  0.2012  0.6409  0.0274
  364MOL0     C49072   9.558   5.860  11.583  0.8969 -0.1100  0.4661
  364MOL0     H49073   9.702   6.265  11.429 -0.8375 -1.0329  0.1701
  364MOL0     H49074   9.854   6.438  11.456 -0.9418 -0.7931 -1.8336
  364MOL0     H49075  10.307   6.330  11.408  2.0636 -1.0204  1.9943
  364MOL0     H49076  10.313   6.498  11.421  0.1407  0.6141  1.6946
  364MOL0     H49077  10.285   6.298  11.637 -0.2045  0.3175  1.1464
  364MOL0     H49078  10.254   6.468  11.668  0.2028 -1.4791  1.2150
  364MOL0     H49079  10.494   6.412  11.729  1.2216 -0.1697 -0.5584
  364MOL0     H49080  10.490   6.538  11.607 -2.5947  1.0409  0.6070
  364MOL0     H49081  10.506   6.247  11.537  0.8033 -0.2982 -1.0206
  364MOL0     H49082  10.525   6.387  11.435  0.3124  1.6644  1.2239
  364MOL0     H49083  10.733   6.447  11.538 -1.2494  0.1773  1.3757
  364MOL0     H49084  10.713   6.312  11.657 -0.9350  0.8533  0.3155
  364MOL0     H49085  10.702   6.176  11.453  0.8446 -0.7702 -1.2506
  364MOL0     H49086  10.784   6.307  11.356  0.9220 -0.2993 -0.4967
  364MOL0     H49087  10.952   6.164  11.408  0.1633 -0.8947  0.1813
  364MOL0     H49088  10.910   6.144  11.571  4.5142  1.5278  2.8079
  364MOL0     H49089  10.998   6.409  11.462 -0.4119 -0.0911 -0.8659
  364MOL0     H49090  10.976   6.367  11.639  1.1675 -0.6527  0.5438
  364MOL0     H49091  11.096   6.138  11.723 -3.1671  1.1554 -2.1347
  364MOL0     H49092  11.283   5.940  11.689 -0.8142  0.9154 -0.0913
  364MOL0     H49093  11.421   5.973  11.591  0.8895  1.1780  0.5473
  364MOL0     H49094  11.544   6.046  11.783  0.3101  0.7583  1.3520
  364MOL0     H49095  11.397   6.124  11.860 -2.7405 -2.4568  0.7056
  364MOL0     H49096  11.454   5.828  11.835 -1.0813  0.2144 -0.6797
  364MOL0     H49097  11.323   5.885  11.917  0.2342 -0.5186  1.2406
  364MOL0     H49098  11.495   5.855  12.099 -1.3920  0.5922  1.8086
  364MOL0     H49099  11.489   6.032  12.077  0.1751  0.0127 -1.7484
  364MOL0     H49100  11.616   5.979  12.253 -1.3704  2.7675 -4.0314
  364MOL0     H49101  11.795   5.988  12.406 -1.1252 -0.0712 -0.0061
  364MOL0     H49102  12.429   5.864  12.298  2.3134 -0.6074  0.4443
  364MOL0     H49103  12.602   5.888  12.437 -0.1604 -0.2951  1.5439
  364MOL0     H49104  12.756   5.937  12.625  0.4246  0.4376  1.1731
  364MOL0     H49105  12.760   6.060  12.496 -3.3989  0.9127 -0.5707
  364MOL0     H49106  12.881   6.216  12.661  4.9424 -0.8179 -0.6837
  364MOL0     H49107  12.842   6.099  12.793 -1.2441 -2.0701 -0.7964
  364MOL0     H49108  12.996   5.938  12.691  2.5345  0.1213  3.7732
  364MOL0     H49109  13.011   6.044  12.544 -0.0544 -4.7732  0.9645
  364MOL0     H49110  13.082   6.126  12.821 -6.1643 -2.1184 -0.2744
  364MOL0     H49111  13.128   6.207  12.669  2.3452 -1.3552 -2.4292
  364MOL0     H49112  13.244   5.982  12.604 -0.0373  0.0578  0.5249
  364MOL0     H49113  13.209   5.931  12.764 -1.1506 -0.0687 -0.2509
  364MOL0     H49114  13.383   6.172  12.687 -1.0357 -0.0536  0.4957
  364MOL0     H49115  13.359   6.111  12.854 -1.9557  0.0048 -0.0416
  364MOL0     H49116  13.485   5.940  12.625 -0.7754  0.8044 -0.5838
  364MOL0     H49117  13.475   5.887  12.784  0.5008 -1.1823 -1.5785
  364MOL0     H49118  13.595   6.114  12.845  0.1939  1.8878 -1.7658
  364MOL0     H49119  13.684   5.973  12.784  1.1479  1.1148  0.4866
  364MOL0     H49120  12.412   6.249  12.607 -3.3442 -0.2831  1.4762
  364MOL0     H49121  12.209   6.182  12.489 -0.0874 -0.0360 -1.3264
  364MOL0     H49122  12.075   5.967  12.073 -2.0599 -0.6923 -3.0906
  364MOL0     H49123  11.890   5.925  11.918  1.9762 -2.2335  0.0941
  364MOL0     H49124  10.185   6.155  11.480 -0.4288  0.6273  2.0075
  364MOL0     H49125  10.023   5.974  11.456  1.3374  1.3488 -0.3801
  364MOL0     H49126   9.615   5.816  11.122 -1.4660  1.8270  0.1933
  364MOL0     H49127   9.430   5.669  11.097  0.3209 -1.1094  0.4630
  364MOL0     H49128   9.161   5.725  11.234 -2.0595 -2.6459 -4.2048
  364MOL0     H49129   9.144   5.665  11.405 -0.8642  1.0083 -0.6651
  364MOL0     H49130   8.959   5.630  11.223 -1.9423 -1.3767 -0.9084
  364MOL0     H49131   9.004   5.508  11.341  1.4214  0.5705  0.1105
  364MOL0     H49132   9.143   5.388  11.153  0.1532 -0.8082 -2.2957
  364MOL0     H49133   9.098   5.512  11.054 -0.3815  0.9753  0.7286
  364MOL0     H49134   8.957   5.306  11.021 -1.7726 -1.3038  0.0845
  364MOL0     H49135   8.899   5.303  11.171  0.4700 -4.6770 -4.1715
  364MOL0     H49136   8.654   5.619  11.014 -1.9977 -0.5972  3.1628
  364MOL0     H49137   9.384   5.674  11.522  1.9620  1.3755  1.0870
  364MOL0     H49138   9.558   5.970  11.586  2.0396 -0.0404 -0.7539
  364MOL0     H49139   9.483   5.829  11.656  1.2298  0.2696  0.9770
  364MOL0     H49140   9.648   5.820  11.632  1.3513  1.6063  1.1335
  365MOL0     O49141   8.879   9.941   7.475  1.3782  0.0536 -0.3490
  365MOL0     C49142   8.866   9.827   7.515  0.2771  0.4466  0.3604
  365MOL0     O49143   8.964   9.748   7.580  0.8220 -0.0878  0.4563
  365MOL0     C49144   9.084   9.800   7.610  0.1304 -0.3982  0.9724
  365MOL0     C49145   9.098   9.901   7.703 -0.3288 -0.4831 -0.8034
  365MOL0     C49146   9.218   9.958   7.734  0.2934  0.8402  0.2839
  365MOL0     C49147   9.336   9.913   7.671 -0.4101  1.2545 -0.8992
  365MOL0     O49148   9.461   9.961   7.696  1.1511 -0.5411  0.3549
  365MOL0     C49149   9.502  10.025   7.573 -0.0019  0.1850 -0.4586
  365MOL0     C49150   9.624  10.105   7.589  0.5322 -0.7124 -0.2079
  365MOL0     C49151   9.666  10.181   7.463 -0.6639  0.4780  0.4688
  365MOL0     C49152   9.794  10.261   7.478 -0.1177 -0.1269  0.2983
  365MOL0     C49153   9.814  10.349   7.353  0.6608  1.3880 -0.0271
  365MOL0     C49154   9.861  10.273   7.230 -0.3518 -0.5638  0.2956
  365MOL0     C49155   9.851  10.357   7.104  0.3235 -0.1126 -0.6241
  365MOL0     C49156   9.935  10.305   6.992  0.1411  0.4481  0.3847
  365MOL0     N49157   9.922  10.390   6.866  0.6456 -0.2767 -0.2003
  365MOL0     C49158   9.989  10.505   6.835 -0.7151 -0.3432 -0.7880
  365MOL0     C49159   9.967  10.536   6.705  0.0671 -0.4778 -0.4598
  365MOL0     C49160  10.027  10.641   6.609 -0.4035  1.1394  0.5778
  365MOL0     C49161  10.061  10.768   6.687  0.2359  0.3798  1.3894
  365MOL0     C49162  10.155  10.870   6.606  0.1366  0.3841  0.5728
  365MOL0     C49163  10.167  11.010   6.665 -0.6062  0.1524 -0.7867
  365MOL0     O49164  10.231  10.994   6.795 -0.2945  0.3076 -0.2763
  365MOL0     C49165  10.214  11.096   6.878  0.4938 -0.0803  0.0377
  365MOL0     C49166  10.168  11.224   6.839 -0.1104  0.0660  0.2728
  365MOL0     C49167  10.155  11.328   6.926 -0.4289  0.1811 -0.4284
  365MOL0     C49168  10.184  11.300   7.063 -0.0947  0.2920 -0.6138
  365MOL0     C49169  10.178  11.411   7.161  1.0786  0.4970 -0.1096
  365MOL0     O49170  10.229  11.375   7.283  0.4875 -0.0581  0.4275
  365MOL0     C49171  10.240  11.455   7.396  0.4319 -0.1917 -0.4499
  365MOL0     C49172  10.357  11.461   7.466 -0.1486 -0.8591 -1.4837
  365MOL0     C49173  10.367  11.535   7.581 -0.5742  0.5113  0.0937
  365MOL0     C49174  10.263  11.613   7.625  0.0425  0.2223 -0.4543
  365MOL0     O49175  10.301  11.690   7.737  0.2512  0.1842  0.1007
  365MOL0     C49176  10.228  11.807   7.780 -0.1359  0.2780  0.7664
  365MOL0     C49177  10.318  11.924   7.800 -0.1361  0.2529  1.2922
  365MOL0     C49178  10.459  11.897   7.841  0.3372 -0.3826  0.0500
  365MOL0     C49179  10.527  12.023   7.906 -0.2468 -0.3071  0.7379
  365MOL0     C49180  10.669  12.005   7.950  0.1927  0.1916 -0.2365
  365MOL0     C49181  10.761  11.956   7.847 -0.0652 -0.0040  0.7376
  365MOL0     C49182  10.910  11.953   7.881 -0.5557 -0.1025 -0.0737
  365MOL0     C49183  10.975  12.089   7.894  0.5149 -0.9071  0.2347
  365MOL0    Cl49184  10.980  12.189   7.738  0.4877 -0.0295 -0.2025
  365MOL0     C49185  10.141  11.609   7.552 -0.8633  0.0530  0.5570
  365MOL0     C49186  10.127  11.528   7.433 -0.1897  0.3667  0.3315
  365MOL0     O49187  10.144  11.526   7.126 -0.3097  0.6814 -0.1177
  365MOL0     C49188  10.229  11.173   7.104  0.3752  0.0747  0.2397
  365MOL0     C49189  10.247  11.070   7.010  1.1845 -0.2111 -0.7870
  365MOL0     N49190   9.879  10.436   6.660  0.2592 -0.2841  0.0589
  365MOL0     N49191   9.847  10.352   6.756 -0.3966  0.2658  0.0119
  365MOL0     C49192   9.322   9.802   7.583 -0.5569  0.1961  0.3008
  365MOL0     C49193   9.198   9.746   7.552 -0.5095 -0.0755  0.7126
  365MOL0     C49194   8.728   9.767   7.501  0.7341 -0.1974  0.8798
  365MOL0     C49195   8.637   9.846   7.423 -0.5012  0.1573 -0.5031
  365MOL0     C49196   8.505   9.818   7.427 -0.0588 -0.2629 -0.6836
  365MOL0     C49197   8.456   9.698   7.490 -0.2085 -0.6908 -0.7300
  365MOL0     O49198   8.329   9.655   7.490  1.2739 -0.1703  0.0969
  365MOL0     C49199   8.240   9.731   7.410 -0.6789 -0.0853 -0.2190
  365MOL0     C49200   8.113   9.663   7.371 -0.0917 -0.1444  0.6071
  365MOL0     C49201   8.144   9.534   7.290 -0.4315  0.0230  1.2179
  365MOL0     C49202   8.250   9.552   7.176  0.0908 -0.3450  0.0193
  365MOL0     C49203   8.257   9.435   7.094  0.1197  0.5549  0.0710
  365MOL0     C49204   8.227   9.332   7.045  0.4941 -0.2193 -0.1568
  365MOL0     C49205   8.549   9.608   7.547 -1.4375 -0.2428  0.0251
  365MOL0     C49206   8.680   9.647   7.570 -0.5536  0.6468  0.3129
  365MOL0     C49207   8.765   9.561   7.661 -0.4997 -0.2366 -0.3774
  365MOL0     H49208   9.006   9.945   7.740  1.7327  1.1737  2.9762
  365MOL0     H49209   9.218  10.045   7.798  1.0863  2.0088 -1.2417
  365MOL0     H49210   9.528   9.945   7.503 -0.7993 -0.5386  0.0585
  365MOL0     H49211   9.421  10.089   7.537  0.2995  1.1751  0.5571
  365MOL0     H49212   9.707  10.039   7.616  0.4091 -0.1215  1.7246
  365MOL0     H49213   9.613  10.181   7.667  1.9139  1.1742 -1.7442
  365MOL0     H49214   9.586  10.250   7.436 -0.5225  0.9939  1.3129
  365MOL0     H49215   9.687  10.113   7.380  1.0755  0.8081  0.6029
  365MOL0     H49216   9.788  10.332   7.561  3.5579  0.4568  0.2303
  365MOL0     H49217   9.879  10.195   7.494 -1.2405 -1.5012  0.8037
  365MOL0     H49218   9.720  10.402   7.333 -1.3637 -2.0926 -0.5181
  365MOL0     H49219   9.886  10.429   7.374  0.2519  2.6952 -3.0457
  365MOL0     H49220   9.969  10.255   7.233 -0.1853  0.4984  1.2928
  365MOL0     H49221   9.800  10.185   7.212  1.3445 -1.7748  0.2233
  365MOL0     H49222   9.875  10.461   7.124  1.2829  0.4236 -4.0223
  365MOL0     H49223   9.745  10.353   7.076  1.2027 -1.2067 -4.4151
  365MOL0     H49224  10.040  10.305   7.020  0.1331  1.1970  0.4289
  365MOL0     H49225   9.900  10.207   6.958  0.0129  0.1549  1.3338
  365MOL0     H49226  10.060  10.550   6.903 -1.7070  0.9864 -0.5986
  365MOL0     H49227  10.121  10.603   6.567 -2.2132 -1.5952 -1.2962
  365MOL0     H49228   9.960  10.667   6.526 -4.3559  1.9058  3.7348
  365MOL0     H49229   9.966  10.816   6.714 -0.7364 -0.5491 -0.1979
  365MOL0     H49230  10.122  10.752   6.776  1.9794 -4.1351 -0.3344
  365MOL0     H49231  10.117  10.872   6.503 -0.8566 -0.2953  0.9129
  365MOL0     H49232  10.252  10.821   6.601 -0.2670 -0.8176  2.9881
  365MOL0     H49233  10.068  11.058   6.672 -1.8394 -2.0002 -2.2530
  365MOL0     H49234  10.219  11.081   6.600 -1.8000 -0.1713 -2.1592
  365MOL0     H49235  10.156  11.251   6.735  2.9185 -0.2966 -0.2391
  365MOL0     H49236  10.111  11.420   6.891 -0.2359  0.0380 -1.0676
  365MOL0     H49237  10.436  11.398   7.424 -1.8954 -2.5357 -2.4095
  365MOL0     H49238  10.461  11.542   7.633 -1.4020 -1.1180  1.9240
  365MOL0     H49239  10.139  11.829   7.721 -0.0933  0.3615  0.7347
  365MOL0     H49240  10.188  11.787   7.880 -1.4569 -0.0003  0.2077
  365MOL0     H49241  10.317  11.975   7.703 -1.3629 -1.6985  0.1916
  365MOL0     H49242  10.275  11.990   7.876  2.2348 -1.9592  4.8249
  365MOL0     H49243  10.467  11.809   7.905  1.4338 -0.7229 -0.5349
  365MOL0     H49244  10.522  11.871   7.755  2.0583  0.1042  1.1055
  365MOL0     H49245  10.465  12.070   7.982  0.0068  2.3185 -0.5670
  365MOL0     H49246  10.524  12.095   7.824 -3.8218 -0.2762  0.7562
  365MOL0     H49247  10.662  11.942   8.040 -0.6553  0.2521 -0.2486
  365MOL0     H49248  10.714  12.101   7.980  1.3982 -0.6078  0.5977
  365MOL0     H49249  10.732  11.856   7.812  2.9896 -1.1879  1.3456
  365MOL0     H49250  10.757  12.015   7.755  2.9501  0.4631  0.8268
  365MOL0     H49251  10.970  11.900   7.806  1.7083  0.2466  1.3986
  365MOL0     H49252  10.912  11.901   7.977  0.4363 -1.5209 -0.8263
  365MOL0     H49253  10.912  12.149   7.960 -0.7875 -0.9196 -0.9574
  365MOL0     H49254  11.075  12.093   7.938  0.0035  3.0544  1.3979
  365MOL0     H49255  10.055  11.666   7.584 -0.9941  0.6725 -0.8128
  365MOL0     H49256  10.036  11.522   7.374  0.2329 -1.1220 -0.2106
  365MOL0     H49257  10.244  11.151   7.210 -2.6443 -1.8607  0.3907
  365MOL0     H49258  10.285  10.971   7.034 -0.8192 -0.5313  1.4470
  365MOL0     H49259   9.406   9.760   7.528  0.9782  2.1750  1.0121
  365MOL0     H49260   9.191   9.664   7.482  4.6094  1.3714 -1.9344
  365MOL0     H49261   8.669   9.940   7.380  2.0572 -1.2418 -1.9317
  365MOL0     H49262   8.444   9.882   7.364 -2.8257 -1.3340  0.7546
  365MOL0     H49263   8.285   9.768   7.318  2.6419 -1.7635  0.5526
  365MOL0     H49264   8.216   9.822   7.466 -2.5168  0.6352 -2.0381
  365MOL0     H49265   8.061   9.731   7.304  2.3392 -0.6462 -1.9607
  365MOL0     H49266   8.046   9.646   7.456 -0.8090 -1.5479 -0.2030
  365MOL0     H49267   8.057   9.487   7.243  1.4999 -1.9579 -0.5672
  365MOL0     H49268   8.179   9.456   7.358 -0.2704  0.5178  1.7118
  365MOL0     H49269   8.227   9.641   7.117  0.8412  0.5302  1.0119
  365MOL0     H49270   8.348   9.567   7.222  0.8285 -3.3548 -0.3932
  365MOL0     H49271   8.221   9.243   6.986  0.0734 -0.2244 -0.1056
  365MOL0     H49272   8.514   9.510   7.579  0.1991 -1.7737 -2.5422
  365MOL0     H49273   8.712   9.474   7.700 -1.8553  1.6209  2.1994
  365MOL0     H49274   8.851   9.519   7.608 -0.9605 -1.4403 -0.2130
  365MOL0     H49275   8.808   9.614   7.747  2.5515 -1.0889 -1.2590
  366MOL0     O49276   2.235   0.414   9.742  0.2403  0.9907 -0.2923
  366MOL0     C49277   2.202   0.529   9.776  0.3727 -0.7682 -0.2981
  366MOL0     O49278   2.289   0.622   9.814  0.1196  0.0392  0.0316
  366MOL0     C49279   2.408   0.620   9.743  0.7532  0.5755  0.3426
  366MOL0     C49280   2.532   0.625   9.814 -0.3262  0.0093  0.0254
  366MOL0     C49281   2.646   0.603   9.739  0.0566 -0.1296 -0.2895
  366MOL0     C49282   2.645   0.617   9.605 -0.4942  0.1346  0.7547
  366MOL0     O49283   2.773   0.613   9.553  0.0755 -0.4392 -0.0285
  366MOL0     C49284   2.785   0.557   9.420  0.4302 -0.7283 -0.2250
  366MOL0     C49285   2.935   0.561   9.383 -0.3337 -0.0207 -0.3389
  366MOL0     C49286   2.986   0.702   9.359  0.6548 -0.4339  0.3304
  366MOL0     C49287   3.136   0.716   9.367  0.0937  0.5299  1.1125
  366MOL0     C49288   3.172   0.866   9.327  0.9501 -0.8331  0.9133
  366MOL0     C49289   3.226   0.944   9.450 -0.0380  1.0337  0.5789
  366MOL0     C49290   3.281   1.083   9.416 -0.3851 -0.4354  0.0552
  366MOL0     C49291   3.435   1.091   9.397 -0.1327  0.1383 -0.0543
  366MOL0     N49292   3.486   1.030   9.275  0.1833  0.1726  0.2311
  366MOL0     C49293   3.508   1.087   9.157 -0.3619  0.4594  0.5617
  366MOL0     C49294   3.539   0.985   9.072  0.2643 -0.3230 -0.3693
  366MOL0     C49295   3.601   0.986   8.933  0.7717  0.1453 -0.3163
  366MOL0     C49296   3.763   0.985   8.940 -0.7355  0.5660  0.0113
  366MOL0     C49297   3.814   0.893   8.828  0.9728 -1.1238  0.2748
  366MOL0     C49298   3.965   0.898   8.796  0.4525 -0.3606  0.4642
  366MOL0     O49299   4.030   1.021   8.792 -0.5740 -0.1752  0.0734
  366MOL0     C49300   4.166   1.028   8.768 -0.7371  0.8619  0.1814
  366MOL0     C49301   4.214   1.153   8.741 -0.1993  0.4223  1.1093
  366MOL0     C49302   4.350   1.174   8.718 -0.9438  0.0848  0.2954
  366MOL0     C49303   4.446   1.065   8.698  0.3463 -0.2745  0.2694
  366MOL0     C49304   4.590   1.078   8.658 -0.8383  0.7546  0.1752
  366MOL0     O49305   4.620   1.197   8.608 -0.1550 -0.6051  0.4512
  366MOL0     C49306   4.751   1.229   8.587 -0.4089 -0.2612  0.1266
  366MOL0     C49307   4.793   1.269   8.459  0.0297 -0.3761 -0.5282
  366MOL0     C49308   4.929   1.288   8.438 -0.0249 -0.1992 -0.0591
  366MOL0     C49309   5.028   1.272   8.533 -0.6397 -0.5297  0.3694
  366MOL0     O49310   5.152   1.326   8.501  0.7878 -0.0915 -0.0071
  366MOL0     C49311   5.259   1.273   8.578  0.4791 -0.1524 -0.2348
  366MOL0     C49312   5.382   1.320   8.498  0.9507 -0.0544  0.2457
  366MOL0     C49313   5.509   1.293   8.580 -0.2833  0.7548  0.3965
  366MOL0     C49314   5.628   1.373   8.537 -0.5972  0.3576  0.7145
  366MOL0     C49315   5.757   1.364   8.618 -0.1513  0.1037  0.0585
  366MOL0     C49316   5.827   1.230   8.621 -0.6838  0.6673 -0.1828
  366MOL0     C49317   5.972   1.239   8.678  0.2295  0.3517  0.7636
  366MOL0     C49318   6.044   1.110   8.643  0.1124  0.8604  0.0566
  366MOL0    Cl49319   6.211   1.130   8.703  0.0545 -0.6327 -0.0305
  366MOL0     C49320   4.980   1.237   8.665 -0.0324  0.1610 -0.3529
  366MOL0     C49321   4.844   1.216   8.689 -0.7593  0.1351  0.2400
  366MOL0     O49322   4.669   1.002   8.703 -0.1283  1.0648  0.7941
  366MOL0     C49323   4.392   0.936   8.725  0.4757 -0.1945  1.0521
  366MOL0     C49324   4.258   0.916   8.761 -0.5824 -0.1270 -0.0518
  366MOL0     N49325   3.527   0.870   9.146  0.0168  0.5536  0.5728
  366MOL0     N49326   3.502   0.891   9.266 -0.1859  0.2088 -0.2895
  366MOL0     C49327   2.524   0.633   9.538 -1.5285  0.1233  0.6458
  366MOL0     C49328   2.399   0.637   9.605 -0.1239  0.9964  0.4280
  366MOL0     C49329   2.059   0.562   9.779 -0.0057  0.4987  0.2236
  366MOL0     C49330   2.028   0.657   9.876  0.3315  0.0031  0.3254
  366MOL0     C49331   1.895   0.692   9.895  0.6587 -0.1873  0.4826
  366MOL0     C49332   1.794   0.634   9.824  1.7699  1.2207  0.7234
  366MOL0     O49333   1.662   0.657   9.863  0.0729 -0.0792  0.6415
  366MOL0     C49334   1.553   0.634   9.773  0.3301 -0.8441  0.3774
  366MOL0     C49335   1.419   0.681   9.836  0.0836  0.3612  0.4279
  366MOL0     C49336   1.315   0.669   9.724  0.2870  0.0084  0.5282
  366MOL0     C49337   1.184   0.719   9.775 -0.5780  0.1095 -0.1240
  366MOL0     C49338   1.178   0.865   9.757 -0.0859  0.6501  0.0244
  366MOL0     C49339   1.166   0.981   9.730  0.4917  0.2617 -0.4116
  366MOL0     C49340   1.822   0.553   9.720 -0.0567 -0.2392  0.1671
  366MOL0     C49341   1.957   0.518   9.695  0.5005  0.5421 -0.0136
  366MOL0     C49342   1.974   0.437   9.573  0.0885 -0.3569  0.3788
  366MOL0     H49343   2.531   0.632   9.922 -1.5677  0.9830 -0.0273
  366MOL0     H49344   2.740   0.591   9.792 -0.7756 -1.5556  0.9702
  366MOL0     H49345   2.743   0.457   9.427  0.3295 -0.6927 -0.2995
  366MOL0     H49346   2.730   0.620   9.349 -0.4539  0.4939  1.4776
  366MOL0     H49347   2.954   0.500   9.294  1.7741 -0.8342  0.5904
  366MOL0     H49348   2.985   0.512   9.468  0.6916  1.2193 -0.2134
  366MOL0     H49349   2.939   0.774   9.426 -0.2613 -0.2391 -0.4957
  366MOL0     H49350   2.953   0.734   9.260  4.1755 -3.1478 -1.9698
  366MOL0     H49351   3.175   0.693   9.467 -0.3440  1.6591  1.5625
  366MOL0     H49352   3.185   0.661   9.287  0.8365 -0.4129  2.1787
  366MOL0     H49353   3.239   0.869   9.240 -1.7714 -2.0036 -1.3929
  366MOL0     H49354   3.084   0.920   9.292  2.4552  0.5409 -0.9555
  366MOL0     H49355   3.143   0.953   9.520 -0.3144  0.6304  0.3108
  366MOL0     H49356   3.294   0.874   9.499 -0.3330  1.4816  1.6354
  366MOL0     H49357   3.263   1.139   9.508  1.4597 -1.2241  0.9642
  366MOL0     H49358   3.240   1.122   9.323 -2.8460 -2.7961  0.0317
  366MOL0     H49359   3.469   1.194   9.402  0.0042  0.0593  0.7979
  366MOL0     H49360   3.485   1.043   9.482 -2.5020 -2.5088 -0.0016
  366MOL0     H49361   3.522   1.190   9.127  1.9747 -0.3583 -1.4461
  366MOL0     H49362   3.580   0.894   8.879  0.2078  1.6040 -2.7381
  366MOL0     H49363   3.564   1.061   8.862  1.8919  0.1238 -0.9510
  366MOL0     H49364   3.801   1.087   8.932  0.4921  0.3514  2.1688
  366MOL0     H49365   3.790   0.931   9.032 -0.0919 -3.3830 -2.2622
  366MOL0     H49366   3.763   0.928   8.738  1.7839 -2.2911 -0.6902
  366MOL0     H49367   3.787   0.787   8.838 -0.5325 -0.9982 -1.7654
  366MOL0     H49368   3.983   0.847   8.701  2.6815 -0.5617  0.9344
  366MOL0     H49369   4.016   0.838   8.872  1.0401  1.1664  1.3331
  366MOL0     H49370   4.150   1.240   8.736 -0.2438  0.3312 -0.4697
  366MOL0     H49371   4.381   1.277   8.706  1.1699 -0.4287  0.8896
  366MOL0     H49372   4.734   1.288   8.370  0.9132 -1.7398 -1.4487
  366MOL0     H49373   4.966   1.322   8.341 -2.9787 -1.0710 -1.6205
  366MOL0     H49374   5.256   1.319   8.678  0.5543  1.7370 -1.0679
  366MOL0     H49375   5.253   1.163   8.583 -0.2590 -0.0821  0.7478
  366MOL0     H49376   5.398   1.258   8.409  3.0708 -0.0379  0.5559
  366MOL0     H49377   5.385   1.428   8.483 -0.7211  0.0772  0.6560
  366MOL0     H49378   5.484   1.328   8.680  0.2984  3.2867 -0.2462
  366MOL0     H49379   5.526   1.185   8.572 -0.3996  0.8157 -1.1030
  366MOL0     H49380   5.605   1.479   8.522  1.0011  0.5254 -0.8985
  366MOL0     H49381   5.642   1.319   8.443 -1.2626 -3.7915  2.7914
  366MOL0     H49382   5.725   1.389   8.720  1.9865 -3.2196  1.7434
  366MOL0     H49383   5.837   1.435   8.595  1.0381 -0.0012  3.2527
  366MOL0     H49384   5.762   1.165   8.680 -0.3418 -0.9590 -1.5490
  366MOL0     H49385   5.823   1.182   8.523 -3.8505 -3.5588  1.6698
  366MOL0     H49386   5.973   1.256   8.786 -0.4606  0.7267  0.7207
  366MOL0     H49387   6.024   1.324   8.635  1.0749  0.2565  1.5574
  366MOL0     H49388   6.006   1.026   8.702  2.8009  0.3390  1.1955
  366MOL0     H49389   6.044   1.087   8.536  0.9803 -1.3867  0.4896
  366MOL0     H49390   5.058   1.238   8.741 -0.0024  0.1730 -0.3834
  366MOL0     H49391   4.815   1.198   8.792 -0.7656  0.8907  0.3762
  366MOL0     H49392   4.461   0.853   8.717 -0.4793 -0.8053 -2.4539
  366MOL0     H49393   4.229   0.812   8.758 -0.2190 -0.2010 -2.3375
  366MOL0     H49394   2.519   0.644   9.430 -1.2543  2.5832  0.8284
  366MOL0     H49395   2.304   0.647   9.553  0.9523  3.8233 -1.2310
  366MOL0     H49396   2.100   0.704   9.941 -1.0383 -1.1509  2.8347
  366MOL0     H49397   1.873   0.773   9.963 -1.8952 -0.4378  0.0454
  366MOL0     H49398   1.547   0.525   9.761 -1.1327 -0.6837 -0.6477
  366MOL0     H49399   1.571   0.675   9.673 -1.0099 -0.8178  0.1300
  366MOL0     H49400   1.420   0.788   9.858  3.7229  0.1174  2.2058
  366MOL0     H49401   1.396   0.625   9.927 -0.8953  1.0139  0.6101
  366MOL0     H49402   1.303   0.563   9.699 -3.0040  0.2235  0.7121
  366MOL0     H49403   1.337   0.735   9.640 -1.9131  1.8221  1.2764
  366MOL0     H49404   1.098   0.674   9.723 -2.5871  2.8810  0.5730
  366MOL0     H49405   1.179   0.700   9.882 -1.2272 -0.2234 -0.2081
  366MOL0     H49406   1.141   1.081   9.701  1.7470  0.0255 -2.5530
  366MOL0     H49407   1.747   0.513   9.652 -1.1409  2.3193 -0.2698
  366MOL0     H49408   2.067   0.379   9.569  0.0794 -0.3339 -0.2589
  366MOL0     H49409   1.898   0.360   9.566  1.6861 -2.3297  2.8059
  366MOL0     H49410   1.978   0.500   9.483 -0.3447  1.4890  1.5914
  367MOL0     O49411   3.201   5.641   5.810 -0.4675 -0.2882 -0.0669
  367MOL0     C49412   3.136   5.539   5.805  0.3778  0.8840 -0.5238
  367MOL0     O49413   3.182   5.413   5.771  0.1277  0.8536 -0.3666
  367MOL0     C49414   3.304   5.403   5.711 -0.1858 -0.6654  0.4864
  367MOL0     C49415   3.331   5.479   5.599 -0.2689 -0.6332 -0.1835
  367MOL0     C49416   3.445   5.463   5.526  0.8642 -0.1976  0.2680
  367MOL0     C49417   3.544   5.370   5.556  0.9312  0.2592  0.3973
  367MOL0     O49418   3.646   5.362   5.473 -0.4345  0.3937 -0.1767
  367MOL0     C49419   3.738   5.257   5.491 -0.0707  0.3786  0.3390
  367MOL0     C49420   3.846   5.298   5.585  0.1669 -0.3371  0.5622
  367MOL0     C49421   3.969   5.207   5.579  0.1246 -0.6243  0.2452
  367MOL0     C49422   4.056   5.204   5.707 -0.5330  0.5741 -0.0620
  367MOL0     C49423   4.191   5.145   5.700 -0.3312  0.0334 -0.2209
  367MOL0     C49424   4.189   4.991   5.663  0.3494 -0.4661  0.3002
  367MOL0     C49425   4.324   4.929   5.681  0.4063 -0.2317 -0.1083
  367MOL0     C49426   4.399   4.949   5.550  0.5304 -0.2991 -0.5254
  367MOL0     N49427   4.536   4.895   5.575  0.0262  0.5779  0.4488
  367MOL0     C49428   4.638   4.958   5.637 -0.6732 -0.1361 -0.1438
  367MOL0     C49429   4.749   4.897   5.597 -0.0566  0.2842 -0.1934
  367MOL0     C49430   4.886   4.906   5.643  0.1772 -0.1133 -0.2321
  367MOL0     C49431   4.973   4.962   5.530  0.2051  0.1724 -0.2860
  367MOL0     C49432   5.123   4.945   5.577  0.4741 -0.2082  0.4788
  367MOL0     C49433   5.235   5.000   5.494 -0.8939  0.1844 -0.3520
  367MOL0     O49434   5.355   5.008   5.577  0.2556 -0.0791 -0.2892
  367MOL0     C49435   5.471   5.059   5.520  0.4721 -0.4233  0.2155
  367MOL0     C49436   5.591   5.043   5.586 -0.0037 -0.1369  0.5467
  367MOL0     C49437   5.707   5.112   5.547 -0.2920  0.3593 -0.0759
  367MOL0     C49438   5.724   5.182   5.427  0.1840  0.2928 -0.1804
  367MOL0     C49439   5.847   5.240   5.387 -0.3161  0.2959  0.0380
  367MOL0     O49440   5.861   5.257   5.254  0.0604  0.3132 -0.1730
  367MOL0     C49441   5.968   5.314   5.191 -0.0283 -0.1698 -0.2611
  367MOL0     C49442   6.072   5.391   5.251  0.0799  0.4027  0.1958
  367MOL0     C49443   6.182   5.441   5.177 -0.4930 -0.2131  0.0815
  367MOL0     C49444   6.194   5.403   5.042  0.5584 -0.2420 -0.5419
  367MOL0     O49445   6.304   5.438   4.962  0.0796 -0.0424 -0.0061
  367MOL0     C49446   6.371   5.562   4.995  0.0292 -0.2284  0.4481
  367MOL0     C49447   6.467   5.587   4.879 -0.1839  0.5561 -0.5651
  367MOL0     C49448   6.410   5.675   4.769 -0.8018  0.4349 -0.5992
  367MOL0     C49449   6.303   5.590   4.694 -0.0552  1.0770 -0.3778
  367MOL0     C49450   6.227   5.668   4.595 -0.0748  0.4579 -0.7064
  367MOL0     C49451   6.316   5.717   4.477  0.2361  0.5589 -1.0054
  367MOL0     C49452   6.242   5.789   4.359 -0.4578 -0.5944  0.5936
  367MOL0     C49453   6.324   5.787   4.231 -0.4112  1.0455 -0.1032
  367MOL0    Cl49454   6.458   5.912   4.251  0.3002 -0.3551 -0.0461
  367MOL0     C49455   6.085   5.348   4.980 -1.1494 -0.9746 -0.4636
  367MOL0     C49456   5.978   5.303   5.055  0.4746  0.1998  0.2610
  367MOL0     O49457   5.943   5.254   5.472  0.2989  0.3508  0.4336
  367MOL0     C49458   5.604   5.183   5.347 -0.8754  0.5344  0.0935
  367MOL0     C49459   5.480   5.140   5.398 -0.9906 -0.2096  0.0515
  367MOL0     N49460   4.717   4.786   5.519 -0.5947 -0.1424 -0.6076
  367MOL0     N49461   4.589   4.789   5.512  0.6301 -0.5899  0.4568
  367MOL0     C49462   3.523   5.309   5.673 -0.9681  0.3879 -0.4938
  367MOL0     C49463   3.404   5.316   5.756 -0.4641 -0.2071  0.2736
  367MOL0     C49464   2.996   5.566   5.844  0.4841  0.4424 -0.5808
  367MOL0     C49465   2.917   5.459   5.880 -0.7128  0.5491  0.0987
  367MOL0     C49466   2.784   5.459   5.908  0.0176 -0.4372  0.4387
  367MOL0     C49467   2.709   5.577   5.908 -0.4197  0.1195  0.2409
  367MOL0     O49468   2.571   5.579   5.938  0.0922  0.2687  0.0496
  367MOL0     C49469   2.498   5.692   5.881  0.4528  1.3718 -0.6053
  367MOL0     C49470   2.348   5.667   5.870  0.2278 -0.2402 -0.3471
  367MOL0     C49471   2.333   5.551   5.775  0.1596  0.1389  0.1199
  367MOL0     C49472   2.191   5.537   5.722  0.6808 -0.0318 -0.6913
  367MOL0     C49473   2.098   5.480   5.809 -0.2683 -0.3329  0.0725
  367MOL0     C49474   2.027   5.418   5.887 -0.3343 -0.6961  0.5607
  367MOL0     C49475   2.782   5.695   5.866  0.7163  0.2822  0.2898
  367MOL0     C49476   2.926   5.695   5.850  0.1988  0.1546  0.3882
  367MOL0     C49477   2.978   5.830   5.818  0.4173  0.3467 -0.5127
  367MOL0     H49478   3.258   5.553   5.569 -2.4518 -2.8904 -0.6886
  367MOL0     H49479   3.450   5.519   5.433  2.9895  0.3062  0.6368
  367MOL0     H49480   3.681   5.170   5.527  1.1526  0.0470  1.5974
  367MOL0     H49481   3.779   5.229   5.394 -3.1362 -1.7187 -0.4946
  367MOL0     H49482   3.795   5.300   5.681  1.4297  0.1594  1.2408
  367MOL0     H49483   3.879   5.398   5.556  0.4041 -1.1078 -2.1338
  367MOL0     H49484   4.030   5.254   5.501 -2.3819  2.6205  0.0366
  367MOL0     H49485   3.926   5.109   5.557 -1.3429 -0.7662  3.2147
  367MOL0     H49486   4.072   5.309   5.733 -0.7096  0.6548 -0.2746
  367MOL0     H49487   3.993   5.152   5.779 -0.2819  1.2282  0.6393
  367MOL0     H49488   4.257   5.206   5.638 -2.0793  0.8757 -1.3268
  367MOL0     H49489   4.229   5.151   5.803 -2.2897  0.6684  0.5179
  367MOL0     H49490   4.123   4.942   5.735  0.1084  2.0916  1.9682
  367MOL0     H49491   4.142   4.982   5.564 -1.4098 -2.5445  1.2326
  367MOL0     H49492   4.326   4.822   5.704  2.4223 -0.0221  0.9194
  367MOL0     H49493   4.372   4.970   5.770 -0.3667  2.7999 -0.9737
  367MOL0     H49494   4.355   4.892   5.467  0.8880 -2.1412  0.5054
  367MOL0     H49495   4.402   5.054   5.519 -0.5067 -0.1431 -0.1370
  367MOL0     H49496   4.641   5.034   5.714  1.8826 -0.1667 -0.1267
  367MOL0     H49497   4.892   4.972   5.731 -0.2666  0.4613 -0.6268
  367MOL0     H49498   4.917   4.802   5.659 -3.5414 -1.4388 -0.7321
  367MOL0     H49499   4.959   4.902   5.440 -0.0401 -1.6423  0.9205
  367MOL0     H49500   4.950   5.068   5.514  0.5636  0.6576  1.9662
  367MOL0     H49501   5.137   4.837   5.591 -1.9826 -0.6227  0.1735
  367MOL0     H49502   5.116   5.000   5.671 -1.9634 -2.6902  1.9038
  367MOL0     H49503   5.212   5.099   5.453  1.1544  0.4201 -1.0469
  367MOL0     H49504   5.240   4.935   5.406 -1.6181  1.0405 -1.0457
  367MOL0     H49505   5.583   4.976   5.670  0.4792 -0.5844  0.2411
  367MOL0     H49506   5.797   5.105   5.607  0.2176 -0.8764 -0.9386
  367MOL0     H49507   6.079   5.418   5.356  2.3149  3.9540 -0.6840
  367MOL0     H49508   6.242   5.496   5.249 -1.1707 -1.3944  1.6097
  367MOL0     H49509   6.307   5.650   5.003  0.0395 -0.0552 -1.1033
  367MOL0     H49510   6.429   5.559   5.088 -1.1497 -3.5315  1.2222
  367MOL0     H49511   6.547   5.645   4.927  0.3050  0.3589 -1.1255
  367MOL0     H49512   6.513   5.499   4.833  3.0419  2.2553 -0.9240
  367MOL0     H49513   6.367   5.766   4.812  1.7382  1.5499 -0.2308
  367MOL0     H49514   6.484   5.694   4.690 -0.9114  0.1389 -0.7777
  367MOL0     H49515   6.230   5.556   4.768 -1.6616  0.6509 -2.0787
  367MOL0     H49516   6.346   5.496   4.660 -1.1448  0.7537 -0.9058
  367MOL0     H49517   6.182   5.755   4.645  1.7846  0.8655  0.3526
  367MOL0     H49518   6.140   5.613   4.560 -2.5747  1.4753  3.2260
  367MOL0     H49519   6.387   5.789   4.519 -1.2693  2.7109 -1.9489
  367MOL0     H49520   6.375   5.639   4.427  0.5405  1.4659 -2.1136
  367MOL0     H49521   6.216   5.892   4.386  1.3580  0.0925 -0.1713
  367MOL0     H49522   6.152   5.729   4.344 -1.2699  1.0495 -1.7267
  367MOL0     H49523   6.366   5.686   4.222 -1.3320  0.6314  0.1475
  367MOL0     H49524   6.258   5.813   4.147  0.8570  2.7407 -0.6362
  367MOL0     H49525   6.083   5.335   4.873 -0.2620  3.3687 -1.1890
  367MOL0     H49526   5.893   5.253   5.009  0.3299  0.5857  0.1097
  367MOL0     H49527   5.607   5.242   5.256 -0.0734 -0.5729 -0.6118
  367MOL0     H49528   5.388   5.156   5.343 -0.4557 -0.6607 -0.9998
  367MOL0     H49529   3.600   5.252   5.725 -2.5237  0.9492  2.6450
  367MOL0     H49530   3.397   5.273   5.856  0.0007  1.0524  0.8713
  367MOL0     H49531   2.955   5.357   5.877 -1.2606  0.3382  0.1947
  367MOL0     H49532   2.732   5.363   5.911 -1.4228  0.2453 -1.1936
  367MOL0     H49533   2.539   5.703   5.780  0.0341 -1.7743 -1.2433
  367MOL0     H49534   2.522   5.778   5.944  0.3200 -1.3927  3.6097
  367MOL0     H49535   2.286   5.752   5.838 -1.2034 -0.8861  0.5620
  367MOL0     H49536   2.318   5.641   5.972 -0.2410  0.1969 -0.3666
  367MOL0     H49537   2.354   5.457   5.825 -0.1071 -0.6367 -1.1803
  367MOL0     H49538   2.412   5.561   5.700 -1.5864 -3.2100 -2.4543
  367MOL0     H49539   2.156   5.637   5.692  3.4089  1.2391  0.0597
  367MOL0     H49540   2.196   5.471   5.635  2.2341 -0.0088 -0.6384
  367MOL0     H49541   1.954   5.361   5.941 -0.2031 -2.0656 -0.6609
  367MOL0     H49542   2.740   5.795   5.864  2.4683  1.0507 -0.4621
  367MOL0     H49543   2.906   5.909   5.840  1.7061  0.9491  1.7874
  367MOL0     H49544   3.058   5.850   5.889  0.3969 -2.1209  0.3164
  367MOL0     H49545   3.016   5.828   5.715 -1.1580 -1.8741 -1.1384
  368MOL0     O49546  10.623   9.238   4.719  1.0494 -0.0158  0.0200
  368MOL0     C49547  10.567   9.337   4.771  0.1355 -0.9048  0.7698
  368MOL0     O49548  10.617   9.463   4.783  0.1572  0.3111 -0.1373
  368MOL0     C49549  10.738   9.498   4.715 -0.1296 -0.3892  0.0641
  368MOL0     C49550  10.808   9.594   4.786 -1.0061 -0.2948 -0.3715
  368MOL0     C49551  10.920   9.647   4.730 -0.5086  0.0939 -0.5424
  368MOL0     C49552  10.966   9.623   4.602  0.5891  0.6312  0.0579
  368MOL0     O49553  11.075   9.683   4.553  0.0862  0.5701  0.8515
  368MOL0     C49554  11.089   9.692   4.407  0.2901  0.1095  0.8339
  368MOL0     C49555  11.235   9.752   4.383  0.2108 -0.0176 -0.9733
  368MOL0     C49556  11.247   9.898   4.412  0.4377 -0.2027 -0.4463
  368MOL0     C49557  11.392   9.941   4.396 -0.7015  0.7220 -0.4752
  368MOL0     C49558  11.403  10.089   4.416  0.2829 -0.6855  1.0881
  368MOL0     C49559  11.377  10.144   4.557 -0.1562 -0.3134  0.0321
  368MOL0     C49560  11.479  10.105   4.659 -1.0009 -0.4001 -0.1469
  368MOL0     C49561  11.421  10.141   4.795 -0.0745  0.0795  0.4822
  368MOL0     N49562  11.526  10.199   4.900  0.9257 -1.1024  0.4636
  368MOL0     C49563  11.621  10.126   4.965 -0.1320  0.3143 -0.3006
  368MOL0     C49564  11.697  10.216   5.034 -0.5638  0.7448  0.8861
  368MOL0     C49565  11.820  10.186   5.106  0.3387  0.5213 -0.3727
  368MOL0     C49566  11.934  10.287   5.098  0.3305 -0.0759 -0.9053
  368MOL0     C49567  11.970  10.351   4.963  0.0749 -0.1704 -0.2221
  368MOL0     C49568  12.030  10.242   4.875 -0.0628 -0.3652 -0.0201
  368MOL0     O49569  12.155  10.186   4.930 -0.1696 -0.8701 -0.3051
  368MOL0     C49570  12.259  10.146   4.856  0.1247 -0.0653  0.5916
  368MOL0     C49571  12.374  10.103   4.915 -0.5076 -0.0271  1.0721
  368MOL0     C49572  12.473  10.033   4.837  0.1184 -0.2323  0.5066
  368MOL0     C49573  12.470  10.049   4.695  0.0124 -0.0409 -0.2109
  368MOL0     C49574  12.568   9.990   4.607  0.2839  0.2379 -0.3228
  368MOL0     O49575  12.650   9.905   4.659 -0.4486  0.3074 -0.5722
  368MOL0     C49576  12.756   9.870   4.586 -0.7993  0.0411 -0.1759
  368MOL0     C49577  12.752   9.796   4.473  0.2561 -0.1798  0.3896
  368MOL0     C49578  12.869   9.778   4.395  0.2675  1.3283  0.3833
  368MOL0     C49579  12.990   9.841   4.439  0.5952 -0.2379 -0.4836
  368MOL0     O49580  13.104   9.813   4.375 -0.7415  0.0547  0.5535
  368MOL0     C49581  13.156   9.914   4.283  0.4374  0.0907  0.4546
  368MOL0     C49582  13.297   9.949   4.321  0.0140 -0.6226 -0.6078
  368MOL0     C49583  13.398   9.841   4.285 -0.0365 -0.0740 -0.0965
  368MOL0     C49584  13.429   9.859   4.140  0.8639  0.2001  0.5158
  368MOL0     C49585  13.517   9.747   4.094  0.1447  0.3641 -0.4709
  368MOL0     C49586  13.511   9.724   3.943 -0.4794 -0.2421 -0.0420
  368MOL0     C49587  13.652   9.765   3.881 -0.2118  0.6460 -0.3006
  368MOL0     C49588  13.684   9.917   3.884 -0.3017 -0.4277  0.1613
  368MOL0    Cl49589  13.846   9.967   3.798 -0.1915 -0.1662  0.6507
  368MOL0     C49590  12.996   9.914   4.557 -0.8030 -0.5285  0.3152
  368MOL0     C49591  12.881   9.919   4.640  0.4924  0.4182  0.2393
  368MOL0     O49592  12.565  10.019   4.484  0.5590 -0.3546  0.8067
  368MOL0     C49593  12.362  10.119   4.635 -0.0360  0.4194  0.0897
  368MOL0     C49594  12.257  10.157   4.710  0.2755  0.1945 -0.1613
  368MOL0     N49595  11.642  10.343   5.012  0.4697 -0.2996 -0.4728
  368MOL0     N49596  11.543  10.329   4.933 -0.0676  0.0243 -0.4616
  368MOL0     C49597  10.881   9.536   4.525 -0.2743  0.3959  0.0679
  368MOL0     C49598  10.766   9.482   4.580 -0.1780  0.5433  0.3344
  368MOL0     C49599  10.434   9.327   4.840 -0.0554  0.7783 -0.2103
  368MOL0     C49600  10.424   9.387   4.961  0.5302  0.5739 -0.3599
  368MOL0     C49601  10.305   9.379   5.039  0.4019 -0.4055 -0.1297
  368MOL0     C49602  10.193   9.301   4.988 -0.1561 -0.6116  0.1511
  368MOL0     O49603  10.081   9.256   5.055  0.2327 -0.2633  0.4347
  368MOL0     C49604  10.062   9.260   5.192  0.0301  0.5494 -0.2113
  368MOL0     C49605   9.984   9.388   5.221 -0.3357  0.4389 -1.4511
  368MOL0     C49606   9.967   9.412   5.368 -0.1448  0.0709 -0.4567
  368MOL0     C49607   9.848   9.519   5.387 -0.3847  0.7665  0.0086
  368MOL0     C49608   9.895   9.652   5.347  0.3784 -0.3156 -0.1028
  368MOL0     C49609   9.943   9.757   5.308  0.3527  0.2303 -0.7437
  368MOL0     C49610  10.208   9.231   4.863 -0.4493 -0.1571 -0.3663
  368MOL0     C49611  10.327   9.255   4.784 -0.1360  0.1205  0.4012
  368MOL0     C49612  10.349   9.199   4.640  0.0668  0.0913  0.4649
  368MOL0     H49613  10.773   9.631   4.882 -2.7594  0.2987 -1.1924
  368MOL0     H49614  10.966   9.719   4.795  1.9630  0.6890 -2.7821
  368MOL0     H49615  11.077   9.594   4.360 -0.5411  0.5544  0.0923
  368MOL0     H49616  11.011   9.753   4.362  0.7137  0.4744  0.5776
  368MOL0     H49617  11.272   9.730   4.283  0.5502  0.2012 -0.8958
  368MOL0     H49618  11.300   9.707   4.459 -1.9476  0.0034  1.0248
  368MOL0     H49619  11.215   9.913   4.515  1.7901  0.9533 -0.1741
  368MOL0     H49620  11.178   9.958   4.351 -1.3621 -0.6635  1.0281
  368MOL0     H49621  11.457   9.886   4.464  0.1244 -0.3456 -2.0400
  368MOL0     H49622  11.432   9.912   4.298  0.3016  0.3723  0.0185
  368MOL0     H49623  11.506  10.110   4.386  0.1495 -2.0919 -0.5528
  368MOL0     H49624  11.334  10.140   4.348 -1.0569 -0.6342  2.4479
  368MOL0     H49625  11.380  10.253   4.547  0.5222  0.1284  3.7395
  368MOL0     H49626  11.280  10.105   4.587 -0.4070 -0.6497 -1.1872
  368MOL0     H49627  11.574  10.158   4.649  0.4247 -3.0320 -1.7379
  368MOL0     H49628  11.509  10.000   4.653  1.4568  0.2526 -0.2842
  368MOL0     H49629  11.348  10.222   4.797 -1.5553 -1.2095  0.3390
  368MOL0     H49630  11.378  10.046   4.828  1.9704 -1.4084 -0.8733
  368MOL0     H49631  11.653  10.023   4.955 -0.2050  0.4041 -1.7407
  368MOL0     H49632  11.798  10.175   5.213  1.3330 -2.6929 -0.4214
  368MOL0     H49633  11.862  10.091   5.073 -0.5004  0.5481 -1.5791
  368MOL0     H49634  11.906  10.377   5.155 -1.5798 -1.5197  0.5708
  368MOL0     H49635  12.018  10.239   5.148 -0.6304  1.7956  2.9055
  368MOL0     H49636  12.054  10.421   4.967 -1.2532  1.6959 -2.5324
  368MOL0     H49637  11.886  10.406   4.921 -0.3832  0.2219  1.1428
  368MOL0     H49638  12.054  10.285   4.777  1.7750  1.5211  1.1763
  368MOL0     H49639  11.954  10.164   4.867  0.6119 -0.9836 -0.4618
  368MOL0     H49640  12.388  10.122   5.021  0.6610  1.0905  0.7498
  368MOL0     H49641  12.554   9.977   4.882  0.2772 -1.0901 -0.7827
  368MOL0     H49642  12.658   9.748   4.446  0.1184  0.3578 -0.1272
  368MOL0     H49643  12.862   9.710   4.311  0.5246 -0.9302  2.0892
  368MOL0     H49644  13.145   9.863   4.187 -3.9919  1.1131  0.2151
  368MOL0     H49645  13.101  10.008   4.287 -1.6108 -0.9604 -1.1021
  368MOL0     H49646  13.316  10.045   4.273 -1.0378  0.4199  0.9508
  368MOL0     H49647  13.301   9.968   4.429 -0.8252 -1.6862 -0.3757
  368MOL0     H49648  13.492   9.842   4.341  0.1859  0.4652 -0.4678
  368MOL0     H49649  13.348   9.745   4.301 -0.5963  0.4056  1.0927
  368MOL0     H49650  13.466   9.959   4.114 -3.3817  2.6505  2.7807
  368MOL0     H49651  13.336   9.861   4.081  1.8951 -1.8279 -1.3191
  368MOL0     H49652  13.498   9.656   4.151 -1.7662  1.4485  0.7309
  368MOL0     H49653  13.618   9.765   4.132  0.1929 -1.4108  0.3547
  368MOL0     H49654  13.502   9.617   3.923 -0.7765  0.1812 -2.4869
  368MOL0     H49655  13.422   9.770   3.900  0.7346  1.5857 -0.7189
  368MOL0     H49656  13.654   9.720   3.781  1.2243 -0.5468  0.2181
  368MOL0     H49657  13.733   9.724   3.942  1.0169  1.1093 -1.5825
  368MOL0     H49658  13.603   9.972   3.836 -1.3477 -2.8507 -1.0708
  368MOL0     H49659  13.690   9.954   3.987  1.7200 -1.3334  0.4259
  368MOL0     H49660  13.089   9.956   4.593 -0.7773  1.5326 -1.9133
  368MOL0     H49661  12.882   9.968   4.737 -2.2509  0.6754  0.2137
  368MOL0     H49662  12.349  10.130   4.528  0.4971 -2.9350 -0.4310
  368MOL0     H49663  12.164  10.185   4.660  0.1152 -2.4089 -1.5275
  368MOL0     H49664  10.902   9.507   4.423 -1.6317 -0.8709  0.1216
  368MOL0     H49665  10.709   9.414   4.517 -1.3168  2.1179 -0.4205
  368MOL0     H49666  10.507   9.441   5.004 -0.4724 -0.0341  2.5609
  368MOL0     H49667  10.296   9.420   5.139 -1.5783 -0.8743 -0.0688
  368MOL0     H49668  10.156   9.257   5.247 -0.5880  1.0999  0.9068
  368MOL0     H49669   9.994   9.175   5.206 -1.8181  1.3640 -3.2146
  368MOL0     H49670   9.887   9.370   5.172  0.4286  0.1471 -2.9241
  368MOL0     H49671  10.035   9.475   5.178  0.3481  0.6735 -0.2180
  368MOL0     H49672  10.060   9.441   5.418 -0.4876  0.0942  0.1881
  368MOL0     H49673   9.936   9.322   5.422 -0.1293 -0.1837 -0.8718
  368MOL0     H49674   9.753   9.489   5.343 -0.4236  0.7648  0.0934
  368MOL0     H49675   9.808   9.511   5.489 -1.4961 -1.6275 -0.5368
  368MOL0     H49676   9.995   9.843   5.273 -0.7299  1.4407  0.4971
  368MOL0     H49677  10.130   9.159   4.840 -0.4281 -0.5013  0.5975
  368MOL0     H49678  10.418   9.261   4.581  1.4902 -1.3573  0.5472
  368MOL0     H49679  10.381   9.095   4.627  0.7760  0.4682 -1.1416
  368MOL0     H49680  10.251   9.210   4.593 -0.2226  0.4038  1.1274
  369MOL0     O49681   1.719   9.926   9.966 -0.1424 -0.2114 -0.5546
  369MOL0     C49682   1.792   9.831   9.998 -0.5743 -0.2261  0.6678
  369MOL0     O49683   1.802   9.713   9.934  0.5513 -0.3051  0.0111
  369MOL0     C49684   1.708   9.696   9.833 -0.0203  0.2341  0.5038
  369MOL0     C49685   1.602   9.613   9.863 -0.5032 -0.3796 -0.0758
  369MOL0     C49686   1.488   9.609   9.777 -0.1476 -0.2119  0.3928
  369MOL0     C49687   1.492   9.679   9.648  0.3751  0.8920 -0.7044
  369MOL0     O49688   1.390   9.665   9.558 -0.3136  0.3597  0.2946
  369MOL0     C49689   1.310   9.784   9.568 -0.3041  0.1449  0.8139
  369MOL0     C49690   1.194   9.772   9.473  0.3382 -0.2213 -0.1802
  369MOL0     C49691   1.092   9.673   9.514 -0.3168  0.0977  0.5446
  369MOL0     C49692   0.997   9.623   9.407  0.0444 -0.8605 -0.4964
  369MOL0     C49693   1.047   9.517   9.300  0.2908  0.4919 -0.1817
  369MOL0     C49694   1.091   9.386   9.378  0.5596 -0.2284 -0.3811
  369MOL0     C49695   1.239   9.381   9.370  0.6048 -1.2478  0.4055
  369MOL0     C49696   1.297   9.284   9.469 -1.1568 -0.8376  0.2647
  369MOL0     N49697   1.444   9.268   9.466 -0.5748 -0.5654 -0.5121
  369MOL0     C49698   1.543   9.360   9.447 -0.1636  0.2581 -0.2466
  369MOL0     C49699   1.657   9.289   9.438 -0.1095  0.2508  0.4094
  369MOL0     C49700   1.793   9.335   9.398 -0.0140 -0.3457 -0.3949
  369MOL0     C49701   1.910   9.279   9.492 -0.4232 -0.1229 -0.5895
  369MOL0     C49702   1.885   9.307   9.640  0.2512 -0.2614 -0.3898
  369MOL0     C49703   1.849   9.454   9.681 -0.0997 -0.5104 -0.5969
  369MOL0     O49704   1.908   9.559   9.598 -0.1885  0.1133 -0.3646
  369MOL0     C49705   2.048   9.564   9.606  0.0510 -0.2859  0.1584
  369MOL0     C49706   2.120   9.497   9.706 -0.0924 -0.1874  0.2109
  369MOL0     C49707   2.257   9.500   9.698  0.1511 -0.6919  0.4442
  369MOL0     C49708   2.323   9.579   9.601  0.6830 -0.2106  0.5094
  369MOL0     C49709   2.472   9.593   9.599  0.3554  0.0864 -0.1764
  369MOL0     O49710   2.529   9.618   9.478  0.6995  0.8414  0.2432
  369MOL0     C49711   2.661   9.648   9.462 -0.7170  0.7329 -0.3489
  369MOL0     C49712   2.760   9.661   9.564  0.1908 -0.2757 -0.1337
  369MOL0     C49713   2.894   9.690   9.520  0.4744 -0.4958 -0.1103
  369MOL0     C49714   2.925   9.715   9.390 -0.5561  0.4122 -0.0294
  369MOL0     O49715   3.045   9.753   9.347 -0.0693  0.1321  0.2377
  369MOL0     C49716   3.159   9.747   9.440 -1.2477  0.0965  0.5306
  369MOL0     C49717   3.285   9.803   9.357  0.7682  0.5111  0.2170
  369MOL0     C49718   3.423   9.778   9.417  0.1750 -0.6573 -0.6485
  369MOL0     C49719   3.541   9.792   9.316  0.6363 -0.6955  0.1439
  369MOL0     C49720   3.678   9.796   9.395 -0.3760 -0.1222 -0.2055
  369MOL0     C49721   3.803   9.805   9.311  0.1298  0.4421  0.5531
  369MOL0     C49722   3.936   9.762   9.384  0.7781 -0.5985  0.0235
  369MOL0     C49723   4.059   9.762   9.291  0.0208 -0.0781 -0.1410
  369MOL0    Cl49724   4.209   9.734   9.388 -0.7574 -0.0537  0.5055
  369MOL0     C49725   2.830   9.694   9.293  0.0263  0.3226 -0.4775
  369MOL0     C49726   2.700   9.663   9.331 -0.4381  0.5525 -0.3974
  369MOL0     O49727   2.528   9.584   9.704 -0.5737 -0.0965 -0.0726
  369MOL0     C49728   2.243   9.659   9.512  0.1982  0.6026  0.1153
  369MOL0     C49729   2.106   9.644   9.507 -0.0061  0.3261  0.4811
  369MOL0     N49730   1.622   9.152   9.449 -0.5293 -0.5535  1.1993
  369MOL0     N49731   1.497   9.148   9.464  0.0933 -0.2152 -0.2772
  369MOL0     C49732   1.601   9.766   9.627 -0.0980 -0.3542  0.2611
  369MOL0     C49733   1.701   9.777   9.719 -0.4993  0.0218 -0.2413
  369MOL0     C49734   1.905   9.852  10.091  0.2443 -0.4195 -0.2113
  369MOL0     C49735   2.006   9.759  10.097  0.6567  0.7509 -0.8558
  369MOL0     C49736   2.119   9.772  10.184 -0.2412 -0.1184  0.0435
  369MOL0     C49737   2.115   9.877  10.272 -0.7662 -1.1280  0.2351
  369MOL0     O49738   2.214   9.889  10.369 -0.3759  0.5957 -0.0475
  369MOL0     C49739   2.330   9.960  10.331  0.2254  0.2167  0.1557
  369MOL0     C49740   2.356  10.081  10.426  0.5299  1.1595 -1.2006
  369MOL0     C49741   2.477  10.155  10.386 -0.7502 -0.9144 -0.0498
  369MOL0     C49742   2.531  10.224  10.516  0.5349 -0.4660  0.0386
  369MOL0     C49743   2.647  10.307  10.485  0.3305 -0.5850 -0.0955
  369MOL0     C49744   2.736  10.386  10.464  0.0946 -0.4236  0.2347
  369MOL0     C49745   2.018   9.973  10.268  0.0242 -0.5507  0.0831
  369MOL0     C49746   1.915   9.966  10.171 -0.1102 -0.3375 -0.3519
  369MOL0     C49747   1.814  10.071  10.177 -0.3172 -0.1677 -0.3056
  369MOL0     H49748   1.606   9.544   9.947  0.5130  0.7689  0.8573
  369MOL0     H49749   1.402   9.545   9.798 -1.0566  0.4026 -1.2258
  369MOL0     H49750   1.282   9.788   9.674 -1.2961 -0.5163  0.5951
  369MOL0     H49751   1.363   9.877   9.547 -2.6393  0.7612 -3.6149
  369MOL0     H49752   1.226   9.747   9.371 -1.5394  1.7615 -1.3482
  369MOL0     H49753   1.146   9.868   9.451  2.3265  0.1010 -4.1352
  369MOL0     H49754   1.030   9.717   9.594 -1.4991 -0.4875 -0.0234
  369MOL0     H49755   1.149   9.589   9.554  0.1769  0.3248  0.3160
  369MOL0     H49756   0.916   9.577   9.465 -1.2098  1.7420 -0.0311
  369MOL0     H49757   0.956   9.709   9.354 -1.4789 -1.1301  0.1975
  369MOL0     H49758   0.965   9.481   9.238 -1.3406  0.7214  1.7478
  369MOL0     H49759   1.120   9.562   9.232 -1.7300  2.1614 -1.3823
  369MOL0     H49760   1.058   9.385   9.482  0.6424 -1.1918 -0.3646
  369MOL0     H49761   1.045   9.297   9.334 -1.1754 -0.1550  1.1668
  369MOL0     H49762   1.271   9.483   9.395 -1.4551 -0.6017  0.5967
  369MOL0     H49763   1.275   9.350   9.272 -2.0651 -2.3841 -0.2807
  369MOL0     H49764   1.278   9.313   9.573  3.9404 -0.2946  1.2758
  369MOL0     H49765   1.243   9.190   9.453 -1.1156 -0.7114 -0.6297
  369MOL0     H49766   1.523   9.466   9.449 -3.1861 -0.1790  3.0769
  369MOL0     H49767   1.803   9.303   9.294 -0.0923 -1.4969 -0.0683
  369MOL0     H49768   1.811   9.443   9.405 -1.4088 -0.2066  2.3889
  369MOL0     H49769   1.899   9.171   9.473  1.0947 -0.3153 -0.5134
  369MOL0     H49770   2.009   9.309   9.456  0.3562 -0.2021  1.3819
  369MOL0     H49771   1.974   9.271   9.692 -0.3650  1.3680  1.9764
  369MOL0     H49772   1.804   9.248   9.681  1.2750 -2.3009 -1.1866
  369MOL0     H49773   1.876   9.458   9.787  1.8035 -3.0590 -0.8919
  369MOL0     H49774   1.740   9.457   9.685 -0.0669  0.2760  2.2665
  369MOL0     H49775   2.077   9.440   9.787 -0.7526 -0.3780 -0.2710
  369MOL0     H49776   2.316   9.448   9.774 -0.9482  0.7882  2.3991
  369MOL0     H49777   2.741   9.656   9.671  0.1038  1.7451 -0.0140
  369MOL0     H49778   2.971   9.712   9.593  2.5526 -1.8027 -1.7955
  369MOL0     H49779   3.146   9.816   9.525 -0.6398  0.7841  0.0786
  369MOL0     H49780   3.176   9.648   9.482 -1.3056 -0.4433 -0.6803
  369MOL0     H49781   3.286   9.767   9.254  1.4588  1.2907 -0.0680
  369MOL0     H49782   3.264   9.911   9.356  0.5244  0.4627 -0.3087
  369MOL0     H49783   3.437   9.857   9.491 -1.6854  0.1688 -1.1347
  369MOL0     H49784   3.414   9.677   9.460 -0.1570 -1.5287 -2.6627
  369MOL0     H49785   3.531   9.885   9.260 -0.0006  0.4279  2.0191
  369MOL0     H49786   3.536   9.711   9.243 -4.3494 -0.8783  0.3414
  369MOL0     H49787   3.696   9.708   9.457 -1.7782  0.7062  1.5030
  369MOL0     H49788   3.690   9.878   9.466 -0.0005  0.0910 -0.5146
  369MOL0     H49789   3.790   9.737   9.226  2.3331 -1.3494  1.5339
  369MOL0     H49790   3.816   9.904   9.267  2.6507 -0.5444 -1.1369
  369MOL0     H49791   3.930   9.660   9.421  0.5996 -0.6004 -0.0096
  369MOL0     H49792   3.948   9.830   9.469 -0.7095  1.5445 -1.3653
  369MOL0     H49793   4.052   9.683   9.216  0.5460  0.3591 -0.6618
  369MOL0     H49794   4.057   9.852   9.230 -0.3906 -0.7024 -1.0591
  369MOL0     H49795   2.854   9.710   9.188 -1.4825 -0.8069 -1.0225
  369MOL0     H49796   2.631   9.652   9.248 -1.8513  0.6457  0.7364
  369MOL0     H49797   2.297   9.714   9.436  5.0918 -2.9075  0.6146
  369MOL0     H49798   2.044   9.698   9.436 -0.0564  0.2591  0.4733
  369MOL0     H49799   1.609   9.824   9.536  0.0468 -0.7936 -0.0133
  369MOL0     H49800   1.768   9.858   9.693 -1.5036  0.6351 -1.0198
  369MOL0     H49801   2.004   9.675  10.029 -0.0890 -2.9073  3.2613
  369MOL0     H49802   2.186   9.686  10.184  1.7593  1.2432 -3.2585
  369MOL0     H49803   2.333  10.005  10.231  3.1306  1.8420  0.8439
  369MOL0     H49804   2.421   9.904  10.355  0.5028  0.7446  0.3584
  369MOL0     H49805   2.360  10.039  10.527 -2.2381  1.4633 -0.8836
  369MOL0     H49806   2.268  10.146  10.419  1.2481  2.3303 -0.0015
  369MOL0     H49807   2.442  10.243  10.330  0.3201  0.8789  1.9726
  369MOL0     H49808   2.552  10.092  10.337 -0.4148  0.4883 -1.4206
  369MOL0     H49809   2.451  10.286  10.559  1.7953 -0.3009  2.2658
  369MOL0     H49810   2.554  10.153  10.596  0.0809  0.8828  1.4269
  369MOL0     H49811   2.810  10.462  10.447 -1.3218  0.9943  0.1397
  369MOL0     H49812   2.015  10.045  10.350  0.7892  1.1649 -1.3246
  369MOL0     H49813   1.717  10.021  10.191  0.0368 -0.5418  0.8948
  369MOL0     H49814   1.818  10.144  10.258 -5.0768 -0.3573  0.4320
  369MOL0     H49815   1.813  10.137  10.089  0.3558 -1.1063 -1.0435
  370MOL0     O49816  11.208   5.927   6.105 -0.1456  1.3486 -0.6797
  370MOL0     C49817  11.143   6.009   6.044  0.2258 -0.2008 -0.0234
  370MOL0     O49818  11.202   6.118   5.981  0.7523 -0.4391 -0.2126
  370MOL0     C49819  11.334   6.150   6.002 -0.2208  0.5563  0.4287
  370MOL0     C49820  11.419   6.145   5.896  0.3977 -0.3496 -0.1017
  370MOL0     C49821  11.543   6.195   5.909 -0.7046  0.5175 -0.8031
  370MOL0     C49822  11.601   6.226   6.033 -0.2513 -1.1749  0.2922
  370MOL0     O49823  11.730   6.270   6.064 -0.2011 -0.2440 -0.1951
  370MOL0     C49824  11.813   6.311   5.954  0.2323  0.1461  0.2411
  370MOL0     C49825  11.758   6.444   5.884  0.1822 -0.1117 -0.2833
  370MOL0     C49826  11.738   6.569   5.981 -0.1269  0.2438  0.1622
  370MOL0     C49827  11.867   6.624   6.060 -0.3391  0.7745 -0.3740
  370MOL0     C49828  11.827   6.761   6.101  0.3082  0.1213  0.6868
  370MOL0     C49829  11.920   6.807   6.220  0.1705 -0.2864  0.5824
  370MOL0     C49830  12.064   6.786   6.199  0.0057 -0.2008 -0.0975
  370MOL0     C49831  12.143   6.872   6.303  0.3265  0.1057 -0.7386
  370MOL0     N49832  12.287   6.867   6.277  0.4484 -0.1285  0.2012
  370MOL0     C49833  12.356   6.946   6.177 -0.5705 -0.2211 -0.5798
  370MOL0     C49834  12.489   6.915   6.183  0.5143  0.3357  0.1285
  370MOL0     C49835  12.610   6.979   6.104 -1.1649 -0.5794  0.2530
  370MOL0     C49836  12.687   7.057   6.206 -0.3531  0.5451 -0.3028
  370MOL0     C49837  12.622   7.161   6.293  0.7067 -0.6870  0.6278
  370MOL0     C49838  12.722   7.244   6.365  0.7213 -0.1876  0.3179
  370MOL0     O49839  12.826   7.170   6.424  0.3392  0.3236 -0.2317
  370MOL0     C49840  12.930   7.233   6.485  1.2727  0.7376 -0.1950
  370MOL0     C49841  12.940   7.367   6.494  0.4334 -0.3672  0.7605
  370MOL0     C49842  13.057   7.426   6.533  0.6087  0.1867 -0.6749
  370MOL0     C49843  13.168   7.351   6.572 -0.7840  0.4458 -0.0834
  370MOL0     C49844  13.297   7.417   6.590 -1.4195  0.2954  0.0501
  370MOL0     O49845  13.303   7.555   6.570 -0.2890 -0.2238  0.6225
  370MOL0     C49846  13.401   7.622   6.631 -0.3684 -0.2504 -0.0954
  370MOL0     C49847  13.452   7.739   6.565 -0.7980 -0.2453 -0.2338
  370MOL0     C49848  13.534   7.832   6.623 -0.2177 -0.3619  0.1454
  370MOL0     C49849  13.593   7.809   6.750  0.3016  0.9154  1.0090
  370MOL0     O49850  13.698   7.882   6.811  0.0190 -0.6349 -0.3962
  370MOL0     C49851  13.694   8.019   6.793 -0.0659 -0.2385 -0.1107
  370MOL0     C49852  13.808   8.075   6.885  0.6937  1.4505 -0.4562
  370MOL0     C49853  13.940   8.056   6.806 -0.2899  0.4234  0.0636
  370MOL0     C49854  14.055   8.106   6.906  0.8318  0.1811  0.8499
  370MOL0     C49855  14.194   8.071   6.874  0.1835  0.5940  0.6818
  370MOL0     C49856  14.298   8.124   6.970  0.6495  0.1861  0.0446
  370MOL0     C49857  14.432   8.060   6.942  0.9520  0.7166  0.2111
  370MOL0     C49858  14.544   8.173   6.966  0.3754  0.5423 -0.4824
  370MOL0    Cl49859  14.539   8.297   6.831 -0.0635 -0.7470 -0.1322
  370MOL0     C49860  13.560   7.687   6.806 -0.3206  0.0083 -0.4731
  370MOL0     C49861  13.463   7.596   6.754 -0.4329 -0.8674  0.1699
  370MOL0     O49862  13.400   7.347   6.613 -0.3648  0.3820  0.4782
  370MOL0     C49863  13.156   7.212   6.553  0.7648 -0.5866 -0.1962
  370MOL0     C49864  13.035   7.150   6.516  0.1296  0.1936 -1.3901
  370MOL0     N49865  12.496   6.815   6.280 -0.7212 -0.2966  0.9457
  370MOL0     N49866  12.381   6.790   6.330  0.2018 -0.2926  0.6912
  370MOL0     C49867  11.515   6.225   6.144  0.3008  0.4210  0.2895
  370MOL0     C49868  11.380   6.183   6.126 -0.0971  0.5253 -0.1969
  370MOL0     C49869  10.998   5.995   6.011 -0.2707 -0.0762  0.4731
  370MOL0     C49870  10.926   6.099   5.935 -0.7430  0.4604  0.1034
  370MOL0     C49871  10.791   6.091   5.909  0.1530 -0.9194  0.5038
  370MOL0     C49872  10.715   5.982   5.951 -0.0665  0.2831  0.1632
  370MOL0     O49873  10.586   5.975   5.904 -0.3352 -0.0749  0.2808
  370MOL0     C49874  10.500   5.887   5.970  0.8431  0.6324 -1.0797
  370MOL0     C49875  10.490   5.746   5.907 -1.0493 -0.4006  0.5869
  370MOL0     C49876  10.417   5.748   5.767 -0.4129 -0.3553  0.8236
  370MOL0     C49877  10.299   5.652   5.768 -0.4657 -0.3628 -0.3708
  370MOL0     C49878  10.262   5.629   5.630 -0.3048 -0.4140  0.1928
  370MOL0     C49879  10.248   5.611   5.508 -0.5439  1.0466 -0.2645
  370MOL0     C49880  10.774   5.885   6.030 -0.4837 -0.0092  0.9847
  370MOL0     C49881  10.913   5.887   6.059  1.0088  0.1733 -0.9580
  370MOL0     C49882  10.954   5.794   6.166 -1.2733  0.0942 -0.7008
  370MOL0     H49883  11.383   6.112   5.799  0.2536  0.4567 -0.3321
  370MOL0     H49884  11.613   6.205   5.826  0.4116 -2.8609 -0.4026
  370MOL0     H49885  11.912   6.333   5.995  0.2389  1.6286 -0.5047
  370MOL0     H49886  11.829   6.236   5.876 -1.1758  2.8813 -2.9334
  370MOL0     H49887  11.667   6.416   5.831  2.9069 -4.8769 -3.1521
  370MOL0     H49888  11.836   6.468   5.811  0.4804 -0.6588 -0.1433
  370MOL0     H49889  11.651   6.539   6.041 -0.9591 -0.5506 -1.3930
  370MOL0     H49890  11.701   6.644   5.910  1.1276 -0.0702 -0.8553
  370MOL0     H49891  11.893   6.561   6.146 -0.0963  3.1375  1.4272
  370MOL0     H49892  11.949   6.628   5.987  0.4556 -3.5059  0.0541
  370MOL0     H49893  11.841   6.826   6.014  0.0168  1.3656  1.5406
  370MOL0     H49894  11.723   6.770   6.133 -0.7511 -2.5185 -1.6658
  370MOL0     H49895  11.897   6.914   6.223 -2.6534 -0.7263 -1.2887
  370MOL0     H49896  11.878   6.761   6.309 -2.9266  3.0200  1.0789
  370MOL0     H49897  12.099   6.812   6.099 -1.3200  0.4612 -0.4224
  370MOL0     H49898  12.088   6.681   6.217 -0.3466 -0.3337 -0.3753
  370MOL0     H49899  12.107   6.975   6.317 -1.0339 -0.6575  2.1724
  370MOL0     H49900  12.133   6.827   6.402  2.5424  3.5691  1.2959
  370MOL0     H49901  12.310   7.019   6.112  0.2095  0.2643 -0.5999
  370MOL0     H49902  12.669   6.893   6.069 -1.2986 -1.2171  1.5244
  370MOL0     H49903  12.587   7.044   6.020  3.5918 -0.6829 -1.4319
  370MOL0     H49904  12.722   6.984   6.279 -0.3737 -1.1952 -1.9526
  370MOL0     H49905  12.780   7.103   6.170  1.0192  0.4451  2.8072
  370MOL0     H49906  12.567   7.112   6.374  1.8741 -0.7408  1.4052
  370MOL0     H49907  12.552   7.226   6.239 -0.8399  0.0608  3.3146
  370MOL0     H49908  12.672   7.295   6.448  0.6809  0.6576 -0.2151
  370MOL0     H49909  12.755   7.318   6.291  2.9342  0.9100  2.2551
  370MOL0     H49910  12.861   7.436   6.467  0.6879 -1.3549 -3.1782
  370MOL0     H49911  13.062   7.534   6.529  0.8014  0.2871  1.3032
  370MOL0     H49912  13.399   7.762   6.473  0.5884  2.6006 -0.4248
  370MOL0     H49913  13.551   7.921   6.563 -1.0366  0.9221  1.7457
  370MOL0     H49914  13.709   8.037   6.686  1.2958 -0.6932 -0.0103
  370MOL0     H49915  13.597   8.060   6.823 -0.8100 -0.5946 -1.9043
  370MOL0     H49916  13.777   8.179   6.900  0.7877  1.6520 -1.5548
  370MOL0     H49917  13.815   8.022   6.980  2.5032  0.8582 -0.8929
  370MOL0     H49918  13.951   7.949   6.787 -0.3619  0.3178  0.5963
  370MOL0     H49919  13.942   8.113   6.713 -0.6403  0.1666 -0.1019
  370MOL0     H49920  14.038   8.058   7.003 -1.3276 -1.0129 -0.0565
  370MOL0     H49921  14.035   8.214   6.917  1.3001  0.3319  0.2543
  370MOL0     H49922  14.217   8.104   6.772 -0.9457 -0.6649 -0.0074
  370MOL0     H49923  14.201   7.962   6.869 -2.3662  0.4282 -1.5193
  370MOL0     H49924  14.300   8.233   6.968  2.3359  0.2657  2.2526
  370MOL0     H49925  14.268   8.096   7.071  1.8119 -0.9965  0.0900
  370MOL0     H49926  14.428   8.027   6.838 -1.1468 -0.8793  0.7326
  370MOL0     H49927  14.450   7.971   7.003  1.6183  0.1468 -0.7933
  370MOL0     H49928  14.538   8.218   7.066 -0.8329 -2.1955  0.7939
  370MOL0     H49929  14.642   8.125   6.953  1.5977  2.6928  0.3357
  370MOL0     H49930  13.617   7.673   6.897 -1.4927 -0.1166  0.2698
  370MOL0     H49931  13.444   7.504   6.808  0.6417 -1.0525  0.2555
  370MOL0     H49932  13.238   7.146   6.581 -1.7293 -2.9376  2.0744
  370MOL0     H49933  13.044   7.043   6.504  1.3518 -0.0061  0.7555
  370MOL0     H49934  11.560   6.252   6.239 -2.1567  1.4376  1.2649
  370MOL0     H49935  11.311   6.180   6.210 -0.6821  0.9005 -0.6508
  370MOL0     H49936  10.976   6.191   5.904 -2.5773  0.7956 -2.1263
  370MOL0     H49937  10.736   6.167   5.855  1.1952 -0.8027 -0.4377
  370MOL0     H49938  10.397   5.923   5.962  0.0494 -0.6386  2.0544
  370MOL0     H49939  10.525   5.883   6.076  3.3047  0.8906 -1.5850
  370MOL0     H49940  10.443   5.671   5.972 -2.4064 -1.1131 -1.1194
  370MOL0     H49941  10.589   5.715   5.872 -1.8029 -0.6541 -1.5065
  370MOL0     H49942  10.486   5.719   5.688 -0.2390 -0.6044  1.0655
  370MOL0     H49943  10.377   5.845   5.738  0.6375 -0.4981 -1.2712
  370MOL0     H49944  10.333   5.558   5.815  1.0112  0.6284  0.6296
  370MOL0     H49945  10.214   5.693   5.823 -1.4582 -2.2017 -0.4321
  370MOL0     H49946  10.258   5.595   5.402 -0.8102  2.2095 -0.4846
  370MOL0     H49947  10.719   5.801   6.072  0.9089 -1.3932  0.1486
  370MOL0     H49948  10.869   5.743   6.211 -0.4004  0.0756  1.0137
  370MOL0     H49949  11.032   5.723   6.136  0.2590  1.7608 -0.8770
  370MOL0     H49950  10.996   5.842   6.255  0.3390  2.5516 -2.6428
  371MOL0     O49951   9.274   9.962   8.076  0.3660 -0.3135  0.2633
  371MOL0     C49952   9.267   9.837   8.076  0.1966 -0.7540  0.0946
  371MOL0     O49953   9.372   9.753   8.108  0.4614 -0.1379 -0.3336
  371MOL0     C49954   9.488   9.812   8.089 -1.0424 -0.9565 -0.3808
  371MOL0     C49955   9.561   9.858   8.206 -0.0254 -0.6688 -0.3307
  371MOL0     C49956   9.689   9.921   8.192  0.1272  0.2290 -0.5418
  371MOL0     C49957   9.751   9.925   8.074 -0.4414  0.5254  0.8524
  371MOL0     O49958   9.877   9.972   8.055 -0.2867  0.3191  0.1513
  371MOL0     C49959   9.937  10.055   8.157  0.1333  0.0284 -0.7333
  371MOL0     C49960  10.059  10.117   8.102 -0.6314  0.4048 -0.3769
  371MOL0     C49961  10.100  10.235   8.185 -0.2161 -0.5543  0.5083
  371MOL0     C49962  10.232  10.299   8.156 -0.3004 -0.0337 -0.1139
  371MOL0     C49963  10.260  10.416   8.255 -0.1483 -0.4525 -1.5720
  371MOL0     C49964  10.363  10.519   8.194 -0.8479  0.5510  0.3969
  371MOL0     C49965  10.364  10.645   8.279 -0.0397 -0.2610 -0.5842
  371MOL0     C49966  10.412  10.626   8.424 -0.6216  0.0845  0.0073
  371MOL0     N49967  10.543  10.561   8.423 -0.1767 -0.0253 -0.2331
  371MOL0     C49968  10.664  10.620   8.396  0.1692  0.5157 -0.1733
  371MOL0     C49969  10.753  10.518   8.410  0.0116  0.1810 -0.4274
  371MOL0     C49970  10.889  10.500   8.362 -0.1853 -0.5709 -0.5468
  371MOL0     C49971  10.980  10.628   8.392 -0.3626 -0.2203 -0.0921
  371MOL0     C49972  11.125  10.593   8.398 -0.7725 -0.1886 -0.1597
  371MOL0     C49973  11.223  10.705   8.417  0.0675 -0.3352  0.1391
  371MOL0     O49974  11.355  10.656   8.419  0.0115 -0.0781 -0.5895
  371MOL0     C49975  11.453  10.728   8.349 -0.1175  0.1267  1.2775
  371MOL0     C49976  11.475  10.707   8.212  0.1415 -0.8010  0.0600
  371MOL0     C49977  11.572  10.783   8.147  1.0078 -0.6618  0.3942
  371MOL0     C49978  11.633  10.891   8.215 -0.1483  0.5633  0.1978
  371MOL0     C49979  11.738  10.971   8.154 -0.1244  0.2068 -0.2153
  371MOL0     O49980  11.840  11.011   8.239  0.1398 -0.9656 -0.7727
  371MOL0     C49981  11.962  11.057   8.192 -0.2955 -0.8956  0.0850
  371MOL0     C49982  12.088  11.017   8.241  1.0014  0.4969 -0.1136
  371MOL0     C49983  12.213  11.051   8.194  0.1953  0.8938 -0.0020
  371MOL0     C49984  12.226  11.139   8.082  0.0939 -0.2427  0.1009
  371MOL0     O49985  12.347  11.180   8.028 -0.4162 -0.1448 -0.3100
  371MOL0     C49986  12.357  11.268   7.912 -0.0041 -0.2258 -0.2711
  371MOL0     C49987  12.501  11.314   7.889 -0.2183  0.3545  1.2369
  371MOL0     C49988  12.572  11.363   8.013 -0.4077  0.1266 -0.4883
  371MOL0     C49989  12.698  11.437   7.985 -0.4409 -1.1773  0.3686
  371MOL0     C49990  12.793  11.461   8.114 -0.0611 -0.2165 -0.8604
  371MOL0     C49991  12.912  11.558   8.072  0.3489 -0.5644 -0.3817
  371MOL0     C49992  13.029  11.496   7.989 -0.3337  0.9142  0.0203
  371MOL0     C49993  13.133  11.595   7.933  1.3221 -0.1522 -0.1082
  371MOL0    Cl49994  13.196  11.693   8.064  0.0916 -0.2802  0.2880
  371MOL0     C49995  12.104  11.178   8.039  0.1036  0.1057  0.0925
  371MOL0     C49996  11.974  11.140   8.082  0.0234  0.7751  0.4594
  371MOL0     O49997  11.736  10.986   8.034 -0.2136  0.6997  0.1663
  371MOL0     C49998  11.599  10.918   8.350 -0.1788 -0.5096 -0.4158
  371MOL0     C49999  11.508  10.841   8.408 -0.3120  1.3712 -0.6877
  371MOL0     N50000  10.690  10.406   8.476 -0.0910  0.3995  0.0884
  371MOL0     N50001  10.570  10.426   8.467  0.3656 -0.4470  0.4109
  371MOL0     C50002   9.677   9.889   7.957  0.8573  0.2162  1.2237
  371MOL0     C50003   9.556   9.826   7.973  1.0589  1.2288 -0.6231
  371MOL0     C50004   9.144   9.755   8.055 -0.2854 -0.7898 -0.4553
  371MOL0     C50005   9.148   9.614   8.032  0.4316  0.7178 -0.0935
  371MOL0     C50006   9.032   9.540   8.011  0.3727 -0.2847 -0.3220
  371MOL0     C50007   8.910   9.610   7.993  0.6904  0.4514  0.2071
  371MOL0     O50008   8.807   9.518   7.982 -0.3345  0.2084  0.1601
  371MOL0     C50009   8.676   9.568   7.984 -0.5571  0.3132  0.0036
  371MOL0     C50010   8.572   9.452   7.982  0.1490  0.0447  0.2024
  371MOL0     C50011   8.428   9.510   8.002 -0.1665 -0.1121  1.1069
  371MOL0     C50012   8.320   9.407   7.989 -0.4965 -0.2140  0.1446
  371MOL0     C50013   8.241   9.428   7.867 -0.1216 -0.9343 -0.2473
  371MOL0     C50014   8.187   9.426   7.758  0.1961 -0.6836 -0.1858
  371MOL0     C50015   8.904   9.750   8.011 -0.5274 -0.5310 -0.3541
  371MOL0     C50016   9.016   9.822   8.045  0.3570 -0.9649 -0.0448
  371MOL0     C50017   8.990   9.964   8.044  0.4128  0.2426 -1.0196
  371MOL0     H50018   9.515   9.843   8.302 -0.3532 -0.9417 -0.5272
  371MOL0     H50019   9.734   9.954   8.285  0.6555 -1.3913 -0.1868
  371MOL0     H50020   9.868  10.135   8.187 -0.2771 -0.6475  0.1709
  371MOL0     H50021   9.961   9.990   8.242 -0.5834  0.3542 -0.2711
  371MOL0     H50022  10.055  10.159   8.001  0.2387  1.5448  0.0432
  371MOL0     H50023  10.141  10.045   8.101  0.3325  1.4750 -0.4278
  371MOL0     H50024  10.112  10.190   8.285  1.1802 -0.7686  0.2605
  371MOL0     H50025  10.018  10.308   8.181  0.6671  0.4425  0.3598
  371MOL0     H50026  10.316  10.230   8.168  0.1013  0.9472  5.0091
  371MOL0     H50027  10.218  10.340   8.056  0.9335 -0.7852 -0.6196
  371MOL0     H50028  10.162  10.462   8.274  0.4381 -0.2233  1.2770
  371MOL0     H50029  10.295  10.378   8.351 -1.0337  0.8395 -0.7013
  371MOL0     H50030  10.462  10.473   8.196 -0.2500  1.6850 -1.1600
  371MOL0     H50031  10.347  10.535   8.087 -2.0310 -1.0923  0.2884
  371MOL0     H50032  10.260  10.679   8.279  0.3011  0.8864 -1.5169
  371MOL0     H50033  10.416  10.729   8.231  0.4700  0.6185  1.4149
  371MOL0     H50034  10.422  10.720   8.479 -0.3746 -0.2218  0.4929
  371MOL0     H50035  10.350  10.554   8.479  2.8298 -2.9635  0.3399
  371MOL0     H50036  10.687  10.709   8.338 -3.9633 -0.0243 -3.0795
  371MOL0     H50037  10.932  10.414   8.416 -2.8772 -0.8543  1.3318
  371MOL0     H50038  10.893  10.471   8.257  1.6155  1.5422 -1.1331
  371MOL0     H50039  10.969  10.703   8.313  3.1751  1.8075  1.0960
  371MOL0     H50040  10.952  10.653   8.494 -0.8188 -0.7007 -0.0939
  371MOL0     H50041  11.153  10.540   8.307  1.1606 -0.0273  0.2921
  371MOL0     H50042  11.139  10.518   8.477 -1.1342  1.1417  1.2310
  371MOL0     H50043  11.207  10.769   8.504  2.1382  2.7093 -1.5058
  371MOL0     H50044  11.217  10.768   8.327  1.9162 -2.6291 -1.7358
  371MOL0     H50045  11.429  10.629   8.153 -5.9043  2.7416 -0.8000
  371MOL0     H50046  11.591  10.772   8.041  1.8924  2.7678  0.0657
  371MOL0     H50047  12.079  10.950   8.325 -2.4535  0.3703 -0.4531
  371MOL0     H50048  12.294  11.000   8.245  1.4102  0.1382 -2.5297
  371MOL0     H50049  12.327  11.230   7.814 -2.4996  0.9342 -0.0332
  371MOL0     H50050  12.291  11.350   7.941 -0.8504 -1.1235  0.4042
  371MOL0     H50051  12.554  11.226   7.851  0.2598  2.0486 -2.5321
  371MOL0     H50052  12.503  11.379   7.801  1.1614 -1.5534 -0.2269
  371MOL0     H50053  12.505  11.425   8.074  0.7942  0.2728  0.7319
  371MOL0     H50054  12.591  11.273   8.072  0.8920 -0.2910 -1.5022
  371MOL0     H50055  12.667  11.532   7.942  1.8294 -1.5696 -2.4138
  371MOL0     H50056  12.750  11.389   7.902  0.6673  0.5973 -0.0050
  371MOL0     H50057  12.832  11.368   8.156  0.6673  0.9673  1.2427
  371MOL0     H50058  12.727  11.503   8.189  0.8655 -1.1836  0.5439
  371MOL0     H50059  12.863  11.642   8.023 -0.0365 -0.0535  0.8302
  371MOL0     H50060  12.943  11.591   8.172 -0.5755  0.2790 -0.3626
  371MOL0     H50061  12.984  11.439   7.907  2.1113 -0.2357 -0.6003
  371MOL0     H50062  13.088  11.423   8.045  0.7423  0.6630 -1.4012
  371MOL0     H50063  13.211  11.537   7.882 -1.6752 -0.4652 -5.0827
  371MOL0     H50064  13.083  11.659   7.859  0.4269  0.6186  1.1368
  371MOL0     H50065  12.099  11.246   7.954  0.0564 -0.1023 -0.0732
  371MOL0     H50066  11.892  11.201   8.044 -0.4855 -0.2541 -0.1315
  371MOL0     H50067  11.656  10.993   8.404  0.9860 -2.3857  1.1354
  371MOL0     H50068  11.498  10.867   8.513  0.6560 -1.0210  0.0701
  371MOL0     H50069   9.720   9.878   7.858  1.0493  3.9956  0.7713
  371MOL0     H50070   9.498   9.788   7.889 -0.0559 -1.0962  1.0924
  371MOL0     H50071   9.237   9.553   8.044 -1.0303 -1.1977  1.9569
  371MOL0     H50072   9.052   9.434   8.010  1.6540 -0.0628 -1.0333
  371MOL0     H50073   8.653   9.641   7.907 -0.7927 -0.0207 -0.2437
  371MOL0     H50074   8.663   9.621   8.079 -0.8416 -0.8763  0.6556
  371MOL0     H50075   8.603   9.378   8.057  6.1871  1.8978  0.0059
  371MOL0     H50076   8.564   9.404   7.884 -1.3219  1.3639 -0.3680
  371MOL0     H50077   8.413   9.591   7.930 -2.9629 -2.0091 -0.6367
  371MOL0     H50078   8.416   9.553   8.102 -0.7195 -1.2384  1.5499
  371MOL0     H50079   8.371   9.311   7.997 -0.3757 -0.1305  0.4170
  371MOL0     H50080   8.242   9.421   8.065 -1.8903  0.8567 -1.4198
  371MOL0     H50081   8.146   9.415   7.659 -1.0154 -0.6099  0.2928
  371MOL0     H50082   8.809   9.801   7.997 -0.2242 -0.1525 -1.0453
  371MOL0     H50083   9.051  10.008   7.964  3.4526 -1.2831  0.3088
  371MOL0     H50084   8.884   9.984   8.030  0.9471  2.1024 -2.8661
  371MOL0     H50085   9.023  10.007   8.139  0.6018 -0.1657 -0.8988
  372MOL0     O50086   8.986   5.108   9.706 -0.2989 -0.3207 -0.0595
  372MOL0     C50087   9.057   5.192   9.760 -0.0364  0.5786 -0.7148
  372MOL0     O50088   9.183   5.172   9.797  0.2639  0.0205  0.0001
  372MOL0     C50089   9.236   5.048   9.789  0.7131  0.3829  0.6565
  372MOL0     C50090   9.171   4.924   9.819  0.2451 -0.3702  0.4862
  372MOL0     C50091   9.240   4.809   9.810 -0.4665  0.6564  0.4293
  372MOL0     C50092   9.377   4.800   9.773  0.5585 -1.1413  0.5848
  372MOL0     O50093   9.448   4.688   9.761  0.4189  0.2298  0.2225
  372MOL0     C50094   9.496   4.627   9.893 -0.3188 -0.0003  0.9264
  372MOL0     C50095   9.648   4.612   9.890  0.2104 -0.5305  0.2559
  372MOL0     C50096   9.717   4.751   9.899  0.5151  0.3250  0.1990
  372MOL0     C50097   9.858   4.735   9.962 -0.3936  0.3508  0.1955
  372MOL0     C50098   9.928   4.871   9.980 -1.3625 -0.0864  0.7740
  372MOL0     C50099  10.060   4.848  10.049  0.0381 -0.6109  0.2508
  372MOL0     C50100  10.141   4.980  10.058  0.4299  0.1674 -0.0618
  372MOL0     C50101  10.283   4.954  10.097 -0.3478 -0.5800 -0.4141
  372MOL0     N50102  10.348   5.066  10.164  0.1458 -0.6891 -0.4178
  372MOL0     C50103  10.338   5.201  10.157 -0.5057 -1.2022  0.0268
  372MOL0     C50104  10.425   5.247  10.249  0.3363  0.0220 -0.5791
  372MOL0     C50105  10.425   5.386  10.311  0.1997 -0.3822  0.2553
  372MOL0     C50106  10.449   5.483  10.193 -0.3331  0.1419  0.3659
  372MOL0     C50107  10.531   5.606  10.246  0.0135 -0.7414 -0.1876
  372MOL0     C50108  10.448   5.699  10.334 -0.7258 -0.1614  0.7472
  372MOL0     O50109  10.523   5.816  10.346  0.3892 -0.5444  0.6101
  372MOL0     C50110  10.633   5.847  10.418  0.0951 -0.5363 -0.0644
  372MOL0     C50111  10.698   5.974  10.388  0.2058  0.2204 -0.4099
  372MOL0     C50112  10.815   6.015  10.455  0.0672  0.0702 -0.5127
  372MOL0     C50113  10.867   5.930  10.558 -0.0099  0.3481 -0.8060
  372MOL0     C50114  10.996   5.961  10.625 -0.1115 -0.0193 -0.2114
  372MOL0     O50115  11.030   5.884  10.739 -0.2244  0.3296 -0.2206
  372MOL0     C50116  11.135   5.936  10.814 -0.9692 -0.2368  0.9633
  372MOL0     C50117  11.239   5.851  10.838 -0.3656  0.3283  0.0053
  372MOL0     C50118  11.356   5.899  10.906  0.2931 -0.3035 -0.2938
  372MOL0     C50119  11.364   6.034  10.953  0.5738  0.2482 -0.3401
  372MOL0     O50120  11.471   6.094  11.012 -0.5562  0.8513 -0.7058
  372MOL0     C50121  11.531   6.023  11.125  0.0872 -0.7120 -0.5300
  372MOL0     C50122  11.650   6.118  11.182  0.8217 -0.5246  0.0243
  372MOL0     C50123  11.690   6.084  11.324 -0.4324 -0.0679  0.1791
  372MOL0     C50124  11.810   6.172  11.361  0.6143  0.4420  0.5536
  372MOL0     C50125  11.798   6.206  11.509  0.5133 -0.4339  0.1751
  372MOL0     C50126  11.892   6.326  11.536 -0.0031 -0.2358 -0.5963
  372MOL0     C50127  11.878   6.381  11.684 -0.4525  0.0510 -1.0953
  372MOL0     C50128  11.992   6.487  11.697 -0.1334 -0.3356  0.2393
  372MOL0    Cl50129  12.146   6.403  11.705 -0.0841 -0.0486 -0.0077
  372MOL0     C50130  11.261   6.117  10.926  0.1718  0.5859  0.5124
  372MOL0     C50131  11.145   6.067  10.869 -0.5704  0.0854  0.9146
  372MOL0     O50132  11.050   6.058  10.577  0.1120 -0.5794 -0.1993
  372MOL0     C50133  10.798   5.809  10.588  0.0105 -0.1011  0.4965
  372MOL0     C50134  10.687   5.764  10.524  0.1750 -0.7518  0.4763
  372MOL0     N50135  10.490   5.144  10.308  0.2102 -0.1784  0.1138
  372MOL0     N50136  10.446   5.036  10.251 -0.2922  0.7276  0.4970
  372MOL0     C50137   9.440   4.919   9.742 -0.9268 -0.6383 -0.8496
  372MOL0     C50138   9.377   5.038   9.762  1.0233  0.5127  0.9175
  372MOL0     C50139   8.991   5.309   9.810  0.3640 -0.3317  0.3843
  372MOL0     C50140   9.077   5.423   9.842 -0.2003 -0.8023  0.4777
  372MOL0     C50141   9.032   5.527   9.914 -0.4643 -0.3036 -0.2127
  372MOL0     C50142   8.902   5.539   9.935  0.5478 -0.2534 -0.9555
  372MOL0     O50143   8.868   5.655  10.004 -0.1967 -0.3712 -0.4515
  372MOL0     C50144   8.732   5.691  10.043 -0.9756  0.7021 -0.0983
  372MOL0     C50145   8.671   5.777   9.934  0.0221  0.5373 -0.4325
  372MOL0     C50146   8.746   5.905   9.922  0.0547 -0.0017  0.5108
  372MOL0     C50147   8.713   6.000   9.806 -0.6777  0.4669  0.4166
  372MOL0     C50148   8.576   6.029   9.786  0.3560 -0.0479 -0.4143
  372MOL0     C50149   8.458   6.048   9.766 -0.2094  0.1916 -0.9881
  372MOL0     C50150   8.805   5.440   9.893 -0.5087  0.2618  0.8179
  372MOL0     C50151   8.851   5.324   9.837  0.4674  0.9608  0.0159
  372MOL0     C50152   8.749   5.216   9.787  0.5313 -0.7280 -0.1928
  372MOL0     H50153   9.066   4.910   9.844 -0.2142  1.6232 -0.1699
  372MOL0     H50154   9.191   4.715   9.835  0.5374  0.0859  0.2945
  372MOL0     H50155   9.458   4.694   9.971 -0.8515 -0.8262  1.3814
  372MOL0     H50156   9.440   4.534   9.905 -0.6109 -0.4249 -2.6044
  372MOL0     H50157   9.684   4.544   9.812 -1.9479 -1.0763 -0.3416
  372MOL0     H50158   9.671   4.555   9.980  2.2853  1.0409  0.7906
  372MOL0     H50159   9.660   4.814   9.968  0.0995 -0.8099  0.9325
  372MOL0     H50160   9.709   4.804   9.804 -0.6164  1.7320  1.0474
  372MOL0     H50161   9.844   4.676  10.053 -0.8850 -0.8819 -0.6524
  372MOL0     H50162   9.919   4.675   9.894 -0.1809 -0.7106  1.2970
  372MOL0     H50163   9.945   4.917   9.883 -1.8420  3.1956  2.0984
  372MOL0     H50164   9.869   4.945  10.037 -0.2327  1.0490  0.5110
  372MOL0     H50165  10.053   4.799  10.147  1.4868 -0.2183  0.5735
  372MOL0     H50166  10.120   4.776   9.993  0.8896  0.8032 -0.7198
  372MOL0     H50167  10.089   5.055  10.118 -3.0484 -3.0022  1.2886
  372MOL0     H50168  10.142   5.026   9.958  0.7328  0.8139  0.2300
  372MOL0     H50169  10.296   4.865  10.159  0.6787 -0.3925 -0.3471
  372MOL0     H50170  10.334   4.939  10.001  1.1323  2.9311 -0.3180
  372MOL0     H50171  10.261   5.257  10.104 -1.4016  1.4241  3.6856
  372MOL0     H50172  10.329   5.399  10.363 -0.5540 -1.6760 -0.7456
  372MOL0     H50173  10.507   5.384  10.384  0.8092  0.8239 -0.3641
  372MOL0     H50174  10.504   5.440  10.109  0.1705  1.0053  0.2478
  372MOL0     H50175  10.353   5.518  10.153 -1.3333 -1.7506  0.9796
  372MOL0     H50176  10.566   5.669  10.164 -1.9470  2.4896  1.2969
  372MOL0     H50177  10.621   5.578  10.301  0.9402  1.0382 -0.7222
  372MOL0     H50178  10.425   5.657  10.433 -0.7946  0.2345  0.9032
  372MOL0     H50179  10.356   5.714  10.277  0.4120 -0.5961 -1.2845
  372MOL0     H50180  10.657   6.031  10.305 -0.7335 -0.3186 -0.3340
  372MOL0     H50181  10.853   6.114  10.433 -0.7162  0.1158 -1.7709
  372MOL0     H50182  11.240   5.748  10.804 -0.3227 -0.2980  1.7980
  372MOL0     H50183  11.443   5.834  10.913  0.4751  0.0638  1.2079
  372MOL0     H50184  11.459   6.008  11.207  1.0095  1.1527  0.6823
  372MOL0     H50185  11.572   5.924  11.102 -0.3759 -0.9245 -0.4688
  372MOL0     H50186  11.729   6.090  11.111 -0.1103 -0.9246 -0.8835
  372MOL0     H50187  11.627   6.225  11.178  1.1070 -0.3545  1.9099
  372MOL0     H50188  11.605   6.101  11.390  1.4884  2.1752  2.2491
  372MOL0     H50189  11.723   5.980  11.334  0.6516  0.1423 -0.8178
  372MOL0     H50190  11.808   6.265  11.303  1.1877 -0.3270 -0.7528
  372MOL0     H50191  11.897   6.111  11.336 -1.5019 -1.6290 -2.4232
  372MOL0     H50192  11.824   6.113  11.559 -3.0000 -0.8077  1.5886
  372MOL0     H50193  11.694   6.230  11.535  1.4091 -0.0020  3.7704
  372MOL0     H50194  11.994   6.296  11.510 -0.9487 -0.3352 -4.8568
  372MOL0     H50195  11.873   6.409  11.467  1.4661 -1.3833 -2.4776
  372MOL0     H50196  11.899   6.299  11.753  1.6935 -0.4696 -2.2721
  372MOL0     H50197  11.784   6.427  11.715  0.8698  1.2412  1.5421
  372MOL0     H50198  11.983   6.564  11.620 -2.1656 -1.0049 -0.2527
  372MOL0     H50199  11.977   6.548  11.786 -1.7781 -0.4684  0.0735
  372MOL0     H50200  11.250   6.222  10.952 -0.6033  0.5451  0.3514
  372MOL0     H50201  11.058   6.133  10.865 -0.5292  0.1955  1.6925
  372MOL0     H50202  10.839   5.737  10.657  0.8318 -0.0267  0.0981
  372MOL0     H50203  10.642   5.666  10.541  2.0464 -2.2472 -2.3694
  372MOL0     H50204   9.542   4.902   9.708 -0.8629 -0.1833 -0.8931
  372MOL0     H50205   9.428   5.131   9.737 -0.0892  1.3789  1.8171
  372MOL0     H50206   9.184   5.415   9.831 -0.2217  0.7102 -1.0994
  372MOL0     H50207   9.114   5.590   9.947 -0.1853 -0.3974 -0.7174
  372MOL0     H50208   8.721   5.737  10.141  1.3167 -0.7890  0.9386
  372MOL0     H50209   8.670   5.602  10.061  0.5267  0.1187  2.6669
  372MOL0     H50210   8.567   5.799   9.960 -0.4333 -1.1605 -0.6874
  372MOL0     H50211   8.669   5.726   9.837 -1.5844 -2.3890  1.0222
  372MOL0     H50212   8.852   5.880   9.905 -0.5849 -3.5033  0.9214
  372MOL0     H50213   8.737   5.957  10.018  0.0023  0.3060  0.3410
  372MOL0     H50214   8.775   6.090   9.814  1.1570 -0.7084  0.2411
  372MOL0     H50215   8.749   5.944   9.719  4.1733  1.2225  1.6384
  372MOL0     H50216   8.356   6.063   9.736 -0.4617  0.4677 -0.0167
  372MOL0     H50217   8.703   5.463   9.924 -0.5110 -2.3068  3.0750
  372MOL0     H50218   8.652   5.248   9.826  0.1570 -1.9963 -0.0194
  372MOL0     H50219   8.763   5.213   9.679 -2.1377 -1.5609 -0.5948
  372MOL0     H50220   8.755   5.113   9.824  0.1552 -0.2394  1.3108
  373MOL0     O50221   4.757   3.900   1.759  0.6246 -0.2086  1.1797
  373MOL0     C50222   4.768   3.778   1.758 -0.5162  0.2100  0.3124
  373MOL0     O50223   4.884   3.703   1.772  0.3158  0.1799 -0.9664
  373MOL0     C50224   4.994   3.779   1.814 -0.7662  0.8904  0.3576
  373MOL0     C50225   5.033   3.769   1.952  0.0000 -0.4981 -0.2121
  373MOL0     C50226   5.133   3.852   2.002 -0.8394 -0.2783 -0.5082
  373MOL0     C50227   5.200   3.955   1.930  0.7010  0.1391 -0.0004
  373MOL0     O50228   5.316   4.032   1.973  0.5169 -0.0480 -0.1412
  373MOL0     C50229   5.365   3.998   2.102  0.3678  0.2965 -0.9989
  373MOL0     C50230   5.477   4.096   2.149  0.3869  0.3428 -0.5757
  373MOL0     C50231   5.444   4.243   2.153 -0.6972 -0.0704  0.1459
  373MOL0     C50232   5.574   4.324   2.148 -0.5963 -0.5825  0.3260
  373MOL0     C50233   5.547   4.469   2.169  1.0338 -0.2198  0.1482
  373MOL0     C50234   5.465   4.537   2.056  0.2547  0.1184  0.0547
  373MOL0     C50235   5.485   4.693   2.059  0.1445  0.2360 -0.0275
  373MOL0     C50236   5.376   4.754   1.980 -0.1625  0.1499 -0.1685
  373MOL0     N50237   5.396   4.900   1.963 -0.3249 -0.5915 -0.4590
  373MOL0     C50238   5.503   4.962   1.899 -0.0163 -0.3195 -0.1001
  373MOL0     C50239   5.491   5.089   1.941 -0.5812  0.4626  0.1431
  373MOL0     C50240   5.564   5.215   1.920  0.0085 -0.0810  0.1746
  373MOL0     C50241   5.654   5.249   2.037  1.8662  1.0657 -0.0804
  373MOL0     C50242   5.769   5.151   2.052 -0.5781 -0.3152  0.3224
  373MOL0     C50243   5.860   5.193   2.174  0.0427 -0.7564 -0.9911
  373MOL0     O50244   5.929   5.311   2.124  0.0604  0.7507 -0.6118
  373MOL0     C50245   6.022   5.379   2.201 -0.6896  0.1402 -0.0062
  373MOL0     C50246   6.087   5.483   2.136  0.0594 -0.1969  0.4157
  373MOL0     C50247   6.184   5.557   2.199 -0.2925 -1.0938 -1.1439
  373MOL0     C50248   6.238   5.540   2.334 -0.5827 -0.1643 -0.0360
  373MOL0     C50249   6.341   5.623   2.396  0.9059 -0.4371  0.4576
  373MOL0     O50250   6.414   5.565   2.494 -0.3339 -0.5443 -0.6777
  373MOL0     C50251   6.543   5.608   2.533  0.9074  0.5961 -0.0022
  373MOL0     C50252   6.589   5.739   2.531  0.1685 -0.2262 -0.2512
  373MOL0     C50253   6.716   5.765   2.583  0.2218 -0.4188 -0.5375
  373MOL0     C50254   6.802   5.652   2.613  0.7169 -1.6539  0.1467
  373MOL0     O50255   6.921   5.693   2.663 -0.1339 -0.1548 -0.0435
  373MOL0     C50256   7.029   5.590   2.678  0.3407  0.0698 -1.0571
  373MOL0     C50257   7.157   5.661   2.728  0.1054 -0.8322  0.7199
  373MOL0     C50258   7.144   5.741   2.857 -1.1185 -0.0967  1.7075
  373MOL0     C50259   7.259   5.702   2.957  0.2122 -0.4604 -0.3803
  373MOL0     C50260   7.401   5.713   2.918  0.5303  0.1248  0.2071
  373MOL0     C50261   7.446   5.861   2.874  0.0303  1.6416 -0.0647
  373MOL0     C50262   7.591   5.879   2.837  0.2918 -0.3991 -0.0276
  373MOL0     C50263   7.632   5.779   2.728 -0.0140 -0.7134  0.3953
  373MOL0    Cl50264   7.777   5.834   2.640  0.4612  0.0284 -0.5569
  373MOL0     C50265   6.753   5.528   2.613  0.2601 -0.2798  0.1440
  373MOL0     C50266   6.622   5.504   2.577  0.5879 -0.3400  0.7180
  373MOL0     O50267   6.377   5.721   2.324 -0.2721  0.2495 -0.1895
  373MOL0     C50268   6.172   5.430   2.391 -0.7611 -0.2196 -0.3321
  373MOL0     C50269   6.074   5.350   2.327 -0.1665 -0.1995 -0.2670
  373MOL0     N50270   5.391   5.093   2.034  1.2807  0.7913 -0.3172
  373MOL0     N50271   5.332   4.982   2.047  0.1206  0.1882 -0.5948
  373MOL0     C50272   5.162   3.964   1.792 -0.2557 -0.9454 -0.3057
  373MOL0     C50273   5.062   3.874   1.739  1.1242 -0.1674 -0.1777
  373MOL0     C50274   4.634   3.704   1.748  1.0362  0.5185 -0.1831
  373MOL0     C50275   4.519   3.776   1.789 -0.2545 -0.2344 -0.7143
  373MOL0     C50276   4.388   3.728   1.762 -0.2014  0.1094 -0.3614
  373MOL0     C50277   4.370   3.612   1.689  0.3421  0.7048  0.7064
  373MOL0     O50278   4.242   3.564   1.657  0.5988  0.8757 -1.2553
  373MOL0     C50279   4.196   3.631   1.542 -1.0919  0.7285 -0.5906
  373MOL0     C50280   4.106   3.533   1.467 -0.2058  0.3490 -0.0499
  373MOL0     C50281   3.986   3.495   1.549  0.3285 -1.0419  0.2401
  373MOL0     C50282   3.855   3.435   1.481  0.5254 -0.0085 -0.0417
  373MOL0     C50283   3.773   3.358   1.577 -0.2577  0.3684 -0.1684
  373MOL0     C50284   3.706   3.285   1.654  0.3737  0.7504  0.1630
  373MOL0     C50285   4.484   3.535   1.653 -0.3449 -0.2620  0.1092
  373MOL0     C50286   4.615   3.584   1.670  0.0308 -0.5914 -1.0087
  373MOL0     C50287   4.729   3.495   1.620  0.0715  0.0204 -0.4808
  373MOL0     H50288   4.983   3.704   2.023  2.4855 -2.2897  0.0320
  373MOL0     H50289   5.178   3.834   2.099 -0.7286 -1.1404 -0.7124
  373MOL0     H50290   5.286   4.011   2.176 -1.3692  1.1964 -2.8902
  373MOL0     H50291   5.398   3.894   2.103 -2.2482 -0.7152  3.0330
  373MOL0     H50292   5.558   4.080   2.077  0.4832  0.2137 -0.4395
  373MOL0     H50293   5.521   4.061   2.243  2.9019  1.3248 -1.3075
  373MOL0     H50294   5.389   4.257   2.246 -1.0806  1.3049 -0.2634
  373MOL0     H50295   5.380   4.272   2.069 -1.4251 -1.3113  0.2438
  373MOL0     H50296   5.642   4.285   2.223 -0.2874  1.7488  1.3621
  373MOL0     H50297   5.616   4.310   2.048  1.5044  0.8652  0.9561
  373MOL0     H50298   5.479   4.478   2.255 -1.0676 -2.1208 -1.1941
  373MOL0     H50299   5.645   4.516   2.173  0.7096  0.4110  1.0396
  373MOL0     H50300   5.505   4.502   1.960  0.7966  2.0976 -0.4865
  373MOL0     H50301   5.362   4.499   2.061  1.0411 -2.3568 -0.7951
  373MOL0     H50302   5.587   4.719   2.029  1.6906 -3.3239  1.5658
  373MOL0     H50303   5.484   4.718   2.165 -0.6176 -1.4171  0.3828
  373MOL0     H50304   5.366   4.718   1.877 -2.3967  2.0395 -0.7191
  373MOL0     H50305   5.279   4.753   2.029 -1.9014  1.9984 -3.1887
  373MOL0     H50306   5.573   4.918   1.828  0.3494 -1.8339  1.1430
  373MOL0     H50307   5.629   5.199   1.834  1.5698  3.2717  0.5630
  373MOL0     H50308   5.490   5.293   1.900 -1.0710 -1.3844 -1.1647
  373MOL0     H50309   5.698   5.345   2.007  3.1450  0.7278  0.6268
  373MOL0     H50310   5.599   5.260   2.130 -0.2669 -4.2436 -0.3822
  373MOL0     H50311   5.820   5.140   1.955  0.3347 -2.2656  0.9717
  373MOL0     H50312   5.732   5.052   2.080  1.0224 -0.8654  0.6136
  373MOL0     H50313   5.929   5.113   2.201 -0.3310 -1.4659 -2.0676
  373MOL0     H50314   5.800   5.226   2.259  1.4234  2.6220 -1.1804
  373MOL0     H50315   6.063   5.511   2.034 -1.7075 -0.1195  0.8210
  373MOL0     H50316   6.237   5.641   2.154 -1.0008  1.2072  1.9507
  373MOL0     H50317   6.532   5.822   2.492  3.2612  1.3623 -1.7478
  373MOL0     H50318   6.741   5.870   2.584 -2.5747  0.3484 -1.7274
  373MOL0     H50319   7.000   5.508   2.744  1.3238  0.6853  0.1725
  373MOL0     H50320   7.055   5.547   2.581  1.6237 -1.7031  0.0154
  373MOL0     H50321   7.229   5.579   2.739  1.0802  0.1666  2.2258
  373MOL0     H50322   7.204   5.727   2.656 -0.1673  0.2883  1.5450
  373MOL0     H50323   7.142   5.847   2.829 -0.9819 -0.7705 -1.2009
  373MOL0     H50324   7.046   5.724   2.904 -2.1522  0.0569 -0.2715
  373MOL0     H50325   7.241   5.602   2.997 -0.8063 -1.0224 -2.1529
  373MOL0     H50326   7.258   5.773   3.041  1.1999  0.3755 -1.0551
  373MOL0     H50327   7.426   5.644   2.837 -0.3368  0.9499 -0.7985
  373MOL0     H50328   7.464   5.681   3.002  1.0468 -1.4413 -0.7473
  373MOL0     H50329   7.388   5.895   2.789  1.4916  2.3725 -0.8136
  373MOL0     H50330   7.428   5.938   2.950  2.3660  2.4964 -0.2850
  373MOL0     H50331   7.658   5.850   2.919  0.0884 -1.7056 -0.3160
  373MOL0     H50332   7.602   5.983   2.804  1.1223 -0.2593  0.6414
  373MOL0     H50333   7.641   5.677   2.767 -1.1789 -1.1466 -0.4299
  373MOL0     H50334   7.553   5.766   2.654 -0.4963 -0.3127  0.8318
  373MOL0     H50335   6.810   5.444   2.652  0.0384  0.6057  2.5246
  373MOL0     H50336   6.592   5.400   2.583  1.2914 -0.5383  0.9615
  373MOL0     H50337   6.191   5.400   2.494 -0.7193 -0.7413 -0.4891
  373MOL0     H50338   6.034   5.268   2.385 -0.8589  0.3184  0.0018
  373MOL0     H50339   5.191   4.047   1.729 -0.5104 -0.0753  0.7061
  373MOL0     H50340   5.041   3.885   1.633  2.8691 -5.1291 -1.3127
  373MOL0     H50341   4.532   3.873   1.834 -1.9570  0.7661 -2.2609
  373MOL0     H50342   4.304   3.793   1.785 -0.5148 -0.4141 -0.0035
  373MOL0     H50343   4.278   3.668   1.479 -1.8690  1.5752 -1.1368
  373MOL0     H50344   4.145   3.722   1.575  0.0589  1.5020 -0.8814
  373MOL0     H50345   4.168   3.444   1.451  1.1304  1.0935  0.8003
  373MOL0     H50346   4.079   3.589   1.378  4.2253  2.8572 -0.1041
  373MOL0     H50347   3.955   3.591   1.591 -0.8198 -1.0356 -0.5739
  373MOL0     H50348   4.013   3.418   1.622 -1.4754 -1.2305  0.7504
  373MOL0     H50349   3.799   3.511   1.427 -0.6205 -0.2831  0.7137
  373MOL0     H50350   3.880   3.364   1.401 -2.5045 -0.1060 -1.0214
  373MOL0     H50351   3.636   3.228   1.712  0.5847  0.7369  0.4076
  373MOL0     H50352   4.472   3.438   1.608  3.8331 -0.7016 -0.5113
  373MOL0     H50353   4.785   3.446   1.700  0.3652  3.2513  1.4770
  373MOL0     H50354   4.691   3.416   1.555 -0.5933 -1.7882  1.9588
  373MOL0     H50355   4.809   3.553   1.573  1.5325 -1.8731 -0.4456
  374MOL0     O50356   1.560   2.112   7.301  0.5822  0.8990 -0.8814
  374MOL0     C50357   1.485   2.124   7.404  0.1783 -0.0605 -0.2663
  374MOL0     O50358   1.520   2.082   7.529 -0.5669  0.2674  0.1064
  374MOL0     C50359   1.617   1.986   7.534  0.0340  0.2283  0.3768
  374MOL0     C50360   1.762   1.996   7.503  0.3869 -0.0008 -0.6603
  374MOL0     C50361   1.843   1.880   7.514  0.1045 -0.5433 -0.1522
  374MOL0     C50362   1.788   1.752   7.528  0.3522  0.5104 -0.1760
  374MOL0     O50363   1.851   1.630   7.532  1.0490  1.0954  0.1741
  374MOL0     C50364   1.993   1.630   7.503 -0.7357 -0.0242 -0.0736
  374MOL0     C50365   2.014   1.590   7.356  0.1193  0.4685 -0.0803
  374MOL0     C50366   2.154   1.535   7.338 -1.2809 -0.4284  0.4826
  374MOL0     C50367   2.252   1.664   7.318 -0.3221 -0.1345 -0.0068
  374MOL0     C50368   2.319   1.733   7.429  0.4749 -0.1407 -0.0908
  374MOL0     C50369   2.363   1.634   7.542  0.0282 -0.4544 -0.7234
  374MOL0     C50370   2.425   1.707   7.657 -0.4094 -0.6649 -1.0086
  374MOL0     C50371   2.574   1.718   7.637  1.2438  0.2531  0.3510
  374MOL0     N50372   2.651   1.772   7.753 -0.1462  0.0374  0.5284
  374MOL0     C50373   2.744   1.711   7.835 -0.2882 -0.1338 -0.7896
  374MOL0     C50374   2.777   1.811   7.926 -0.6570  0.7817  0.0124
  374MOL0     C50375   2.863   1.790   8.047  0.2464 -0.3008  0.7031
  374MOL0     C50376   3.007   1.815   8.009 -0.3240 -0.3325  0.0346
  374MOL0     C50377   3.031   1.970   7.979 -0.3541 -0.0113  0.3448
  374MOL0     C50378   3.177   1.998   7.968 -0.4543 -0.7458 -0.2475
  374MOL0     O50379   3.194   2.125   7.910  0.1584 -0.2872  0.1445
  374MOL0     C50380   3.296   2.211   7.931 -0.9040  0.9830  0.0587
  374MOL0     C50381   3.272   2.337   7.915 -0.0497  0.3265  0.0069
  374MOL0     C50382   3.370   2.429   7.941 -0.7621  0.5137 -0.1012
  374MOL0     C50383   3.501   2.393   7.991 -1.2246  0.0743  0.5408
  374MOL0     C50384   3.615   2.489   8.012  0.0059 -0.0739  0.1289
  374MOL0     O50385   3.747   2.453   8.010  0.6288  0.1545  0.4465
  374MOL0     C50386   3.839   2.548   8.043  0.3761  0.3845  0.1992
  374MOL0     C50387   3.862   2.582   8.172  0.0761 -0.2663  0.1257
  374MOL0     C50388   3.953   2.680   8.205 -0.0314  0.6628  0.2293
  374MOL0     C50389   4.036   2.746   8.109 -0.6366  0.4162  0.4132
  374MOL0     O50390   4.106   2.858   8.130 -0.1489  0.3091 -0.0174
  374MOL0     C50391   4.168   2.866   8.255 -0.0341 -0.3052 -0.0838
  374MOL0     C50392   4.217   3.016   8.289  0.0203  0.6467 -0.3171
  374MOL0     C50393   4.313   3.027   8.404 -0.5725  0.7033 -1.0875
  374MOL0     C50394   4.327   3.177   8.438  0.1643  0.4822 -0.4685
  374MOL0     C50395   4.468   3.180   8.505 -0.7015 -0.1169 -1.2311
  374MOL0     C50396   4.512   3.328   8.523 -0.1114 -0.1031 -0.3389
  374MOL0     C50397   4.639   3.342   8.604 -0.3964  0.9848  0.1368
  374MOL0     C50398   4.683   3.487   8.620  0.6309  0.5407  0.2430
  374MOL0    Cl50399   4.831   3.511   8.720  0.0177 -0.2671 -0.2397
  374MOL0     C50400   4.019   2.699   7.977 -0.2321  0.5384 -0.1653
  374MOL0     C50401   3.914   2.606   7.951 -0.4581 -0.5458  0.0153
  374MOL0     O50402   3.573   2.606   8.020 -0.5852 -0.5896  0.0650
  374MOL0     C50403   3.530   2.255   8.010  0.6283 -1.2043  0.1926
  374MOL0     C50404   3.424   2.163   7.987  0.0528  0.7638  0.0862
  374MOL0     N50405   2.707   1.924   7.890  1.0657 -0.5036  1.2698
  374MOL0     N50406   2.639   1.901   7.788  0.5159 -0.2962 -0.5571
  374MOL0     C50407   1.656   1.747   7.577  0.0231 -1.3410 -0.6600
  374MOL0     C50408   1.574   1.871   7.586  0.2442 -0.4742 -0.4271
  374MOL0     C50409   1.367   2.210   7.391  0.4297  0.0244 -0.4502
  374MOL0     C50410   1.366   2.290   7.275  0.0776 -0.9860 -0.5013
  374MOL0     C50411   1.254   2.379   7.258  0.0277 -0.5104 -0.1206
  374MOL0     C50412   1.136   2.381   7.340 -0.1890  0.3181 -0.1408
  374MOL0     O50413   1.026   2.459   7.320 -0.0129 -0.0008 -0.0760
  374MOL0     C50414   1.041   2.553   7.214 -1.0662  0.0324 -0.4052
  374MOL0     C50415   0.939   2.669   7.244  0.8557 -0.0506 -0.2520
  374MOL0     C50416   0.786   2.629   7.249 -0.1045 -0.5025 -0.6694
  374MOL0     C50417   0.706   2.755   7.263  0.2757  0.0946 -0.5504
  374MOL0     C50418   0.677   2.813   7.132  0.1862  1.1248 -0.3148
  374MOL0     C50419   0.654   2.856   7.023 -0.4678 -0.8233 -0.1241
  374MOL0     C50420   1.139   2.286   7.439 -0.2927 -0.1053 -0.1965
  374MOL0     C50421   1.250   2.207   7.472  1.3893  1.2851  0.3555
  374MOL0     C50422   1.220   2.095   7.571  0.1725 -0.5862 -0.1550
  374MOL0     H50423   1.792   2.095   7.471  2.2143 -0.1802  0.3516
  374MOL0     H50424   1.950   1.893   7.507  0.4428 -2.8490 -0.2628
  374MOL0     H50425   2.048   1.721   7.532 -1.4928  0.3542  0.2043
  374MOL0     H50426   2.029   1.549   7.567 -1.7520 -0.5901 -0.1993
  374MOL0     H50427   1.978   1.661   7.281  2.5742 -0.1321 -1.9630
  374MOL0     H50428   1.948   1.502   7.356  0.4626  0.2071  0.1447
  374MOL0     H50429   2.159   1.471   7.250 -3.0454 -2.0037  1.4642
  374MOL0     H50430   2.183   1.467   7.419  1.2920 -1.2734 -1.0332
  374MOL0     H50431   2.327   1.629   7.247 -1.8300 -0.9529 -1.2579
  374MOL0     H50432   2.196   1.739   7.261 -0.0832  0.8330  1.0021
  374MOL0     H50433   2.402   1.794   7.391 -0.2505  0.4578 -0.7260
  374MOL0     H50434   2.245   1.802   7.472  1.6516  0.5671  0.8947
  374MOL0     H50435   2.270   1.593   7.583  0.7469 -0.8960  0.5450
  374MOL0     H50436   2.419   1.545   7.513 -0.6122 -1.5036  1.0865
  374MOL0     H50437   2.413   1.651   7.750  1.7211 -2.0911 -1.5095
  374MOL0     H50438   2.381   1.805   7.675 -1.4193 -1.4177  0.8205
  374MOL0     H50439   2.609   1.618   7.610 -0.4830 -0.2557 -0.1099
  374MOL0     H50440   2.590   1.780   7.548 -1.5362 -2.3475 -2.1893
  374MOL0     H50441   2.777   1.608   7.827 -2.2184 -0.9709  1.2619
  374MOL0     H50442   2.839   1.868   8.119 -2.4942 -0.3943 -0.0055
  374MOL0     H50443   2.849   1.691   8.092  2.0889 -1.1377 -0.4287
  374MOL0     H50444   3.058   1.787   8.102  0.3641  1.8107  0.3553
  374MOL0     H50445   3.057   1.755   7.932 -0.4147  1.4109 -1.4449
  374MOL0     H50446   2.980   2.033   8.052  0.5160  1.3852 -0.2230
  374MOL0     H50447   3.002   1.984   7.875  0.7075  2.1471  0.2840
  374MOL0     H50448   3.225   1.932   7.895  2.4390  1.3442 -0.4529
  374MOL0     H50449   3.228   1.998   8.065  0.5091  0.6749 -0.7136
  374MOL0     H50450   3.172   2.374   7.891  0.5823  0.2781 -3.0361
  374MOL0     H50451   3.347   2.532   7.913 -4.1652 -0.0985 -0.0492
  374MOL0     H50452   3.807   2.537   8.254 -1.3309 -2.3054 -1.8087
  374MOL0     H50453   3.945   2.714   8.308 -0.4349 -0.3587  0.5490
  374MOL0     H50454   4.110   2.828   8.339  2.0089 -4.1710 -0.1805
  374MOL0     H50455   4.259   2.806   8.255  0.6253  0.6225  1.8982
  374MOL0     H50456   4.265   3.064   8.203  1.4269  0.4173  0.3241
  374MOL0     H50457   4.123   3.071   8.301 -0.4796  0.1588 -1.7611
  374MOL0     H50458   4.277   2.976   8.494  2.9317 -1.5171 -0.7330
  374MOL0     H50459   4.408   2.978   8.380 -0.0301  0.4577  1.2557
  374MOL0     H50460   4.243   3.186   8.507 -0.6280 -2.2085 -0.9626
  374MOL0     H50461   4.328   3.239   8.348  2.8638 -0.1533 -0.9615
  374MOL0     H50462   4.544   3.129   8.444  1.9082  1.2013  0.7189
  374MOL0     H50463   4.463   3.135   8.605 -0.8517  0.1162 -1.1332
  374MOL0     H50464   4.526   3.371   8.423  1.9310 -1.5149 -0.7331
  374MOL0     H50465   4.434   3.377   8.581  0.1161 -1.3191  1.0532
  374MOL0     H50466   4.719   3.272   8.577 -2.6967 -3.2504  3.2199
  374MOL0     H50467   4.609   3.301   8.701  1.3699  0.7044  0.6037
  374MOL0     H50468   4.694   3.524   8.518 -2.4403  1.8726  0.2655
  374MOL0     H50469   4.597   3.537   8.667 -2.9586 -1.8982 -3.1224
  374MOL0     H50470   4.087   2.738   7.902  3.1142 -2.1102  1.2190
  374MOL0     H50471   3.891   2.572   7.851 -2.0786 -1.5391  0.6904
  374MOL0     H50472   3.629   2.219   8.037  1.8310 -1.0336 -3.4517
  374MOL0     H50473   3.448   2.057   7.997 -1.9214  0.3170  0.5963
  374MOL0     H50474   1.619   1.656   7.624  0.3006 -0.4181  1.4597
  374MOL0     H50475   1.470   1.865   7.614  0.1555 -2.9124 -1.0923
  374MOL0     H50476   1.445   2.289   7.202  1.1608  1.1342  0.5391
  374MOL0     H50477   1.271   2.461   7.189 -0.6356  0.2772  0.6371
  374MOL0     H50478   1.016   2.502   7.121 -0.4751  0.4021 -0.7748
  374MOL0     H50479   1.138   2.602   7.203  0.8174 -2.7474  2.1184
  374MOL0     H50480   0.950   2.742   7.163 -1.4408 -0.0422 -0.6100
  374MOL0     H50481   0.946   2.720   7.340 -3.3180 -0.8870  0.6843
  374MOL0     H50482   0.766   2.559   7.331  2.0768 -1.7594 -1.1050
  374MOL0     H50483   0.753   2.574   7.160  1.2593 -0.1333 -1.4261
  374MOL0     H50484   0.609   2.733   7.307 -0.0118  2.2775  0.0473
  374MOL0     H50485   0.753   2.829   7.330  0.6060 -0.2894 -0.3483
  374MOL0     H50486   0.629   2.900   6.928  0.6985 -1.3449 -0.6887
  374MOL0     H50487   1.045   2.267   7.489 -1.1312  2.2062 -0.7763
  374MOL0     H50488   1.299   2.094   7.647  1.9580  2.3313 -1.7664
  374MOL0     H50489   1.123   2.105   7.621 -0.2268 -1.9149 -0.6396
  374MOL0     H50490   1.218   1.999   7.520  2.3212 -0.5440 -0.4140
  375MOL0     O50491   7.625   5.676   9.470 -0.4549  0.2326 -1.0028
  375MOL0     C50492   7.531   5.643   9.542  0.1732  0.3676 -0.6276
  375MOL0     O50493   7.532   5.642   9.685 -1.0313  0.0821 -0.0728
  375MOL0     C50494   7.643   5.706   9.735  0.1101  0.2735  0.4088
  375MOL0     C50495   7.644   5.842   9.743  0.4991 -0.8710  0.0436
  375MOL0     C50496   7.754   5.919   9.793  0.7949 -0.6827  0.1660
  375MOL0     C50497   7.861   5.847   9.829  0.1436 -1.1149  0.7738
  375MOL0     O50498   7.971   5.913   9.873  0.4875 -0.3428  0.4558
  375MOL0     C50499   7.985   5.929  10.011 -0.1602 -1.0631 -0.2279
  375MOL0     C50500   8.127   5.978  10.039 -0.2212  1.3274 -0.1477
  375MOL0     C50501   8.230   5.872  10.004 -0.2410 -0.3884 -0.1088
  375MOL0     C50502   8.204   5.728  10.043 -0.1740  0.0675 -0.6052
  375MOL0     C50503   8.168   5.711  10.193  0.1751 -0.0865 -0.3721
  375MOL0     C50504   8.137   5.568  10.243 -0.1110  0.7273 -0.8629
  375MOL0     C50505   8.060   5.477  10.148  0.3380 -0.0369  0.5684
  375MOL0     C50506   7.919   5.525  10.110  0.4226  0.3526  0.6033
  375MOL0     N50507   7.827   5.420  10.058 -0.4549 -0.2333  0.1119
  375MOL0     C50508   7.694   5.399  10.097 -1.1694 -0.2681 -0.1403
  375MOL0     C50509   7.658   5.298  10.012 -0.6455  1.1482  0.5029
  375MOL0     C50510   7.526   5.237  10.009 -0.2430  0.0560 -0.7094
  375MOL0     C50511   7.540   5.083  10.041  0.5370 -0.2351  0.2329
  375MOL0     C50512   7.578   5.055  10.189  0.7015  0.3635  0.0499
  375MOL0     C50513   7.722   5.021  10.200 -0.0439 -1.3349  0.4650
  375MOL0     O50514   7.748   4.965  10.328 -0.1941 -0.0264  0.1352
  375MOL0     C50515   7.871   4.983  10.378 -0.2073 -0.1597  0.0959
  375MOL0     C50516   7.983   5.039  10.312 -0.2499 -0.2041 -0.1787
  375MOL0     C50517   8.117   5.031  10.374  0.5241 -0.4906  0.3241
  375MOL0     C50518   8.122   4.981  10.506  0.7633  0.6608  0.3676
  375MOL0     C50519   8.250   4.960  10.577  0.3800 -0.2471  0.2065
  375MOL0     O50520   8.364   4.942  10.497  0.3724 -0.2292  0.1907
  375MOL0     C50521   8.467   4.866  10.546 -0.4733 -0.7406 -1.2033
  375MOL0     C50522   8.457   4.752  10.618  0.7147  0.2034  0.0294
  375MOL0     C50523   8.566   4.676  10.649  0.0079  0.3484 -0.4697
  375MOL0     C50524   8.691   4.713  10.597  0.6781  1.0271 -0.7421
  375MOL0     O50525   8.793   4.634  10.649  0.0067 -0.0542  0.5741
  375MOL0     C50526   8.929   4.678  10.654 -0.1365  0.3521 -0.6616
  375MOL0     C50527   9.027   4.592  10.735  1.0079  0.3326 -0.8652
  375MOL0     C50528   9.160   4.674  10.736 -0.7518  0.2190 -0.3634
  375MOL0     C50529   9.287   4.592  10.786 -1.0799  0.2708  0.8523
  375MOL0     C50530   9.405   4.680  10.784 -0.9318 -0.2654  0.5635
  375MOL0     C50531   9.539   4.615  10.830 -0.3361 -0.1449 -0.7560
  375MOL0     C50532   9.576   4.486  10.748  0.2812 -0.5378  0.1698
  375MOL0     C50533   9.718   4.435  10.755  0.6248 -0.4986 -0.8633
  375MOL0    Cl50534   9.823   4.555  10.677 -0.1536 -0.1705  0.3344
  375MOL0     C50535   8.704   4.825  10.515  0.1541 -0.1336 -0.1263
  375MOL0     C50536   8.589   4.899  10.488 -0.6517 -0.0278 -0.1425
  375MOL0     O50537   8.244   4.930  10.697 -0.5016 -0.0925 -0.1052
  375MOL0     C50538   8.006   4.928  10.567 -0.8251 -0.0475 -1.4194
  375MOL0     C50539   7.883   4.924  10.502  0.1098  0.1569  0.1491
  375MOL0     N50540   7.761   5.260   9.933 -0.8097  0.3033  0.5788
  375MOL0     N50541   7.862   5.326   9.963 -0.2120  0.6341 -0.7233
  375MOL0     C50542   7.870   5.706   9.823  0.2981 -1.1095  0.7197
  375MOL0     C50543   7.752   5.639   9.788 -0.1285  0.2437  0.3748
  375MOL0     C50544   7.403   5.615   9.473  0.5483  0.1221 -1.1794
  375MOL0     C50545   7.389   5.670   9.345 -0.4062  0.0385  0.5744
  375MOL0     C50546   7.270   5.651   9.276 -0.4857 -0.3934 -0.2932
  375MOL0     C50547   7.162   5.577   9.331  0.1247 -0.0558 -0.2537
  375MOL0     O50548   7.043   5.542   9.268 -0.0544 -0.1815 -0.9336
  375MOL0     C50549   7.064   5.451   9.166  0.0722 -0.5961  0.3646
  375MOL0     C50550   6.994   5.499   9.027  0.0959 -0.7907 -0.0753
  375MOL0     C50551   6.969   5.375   8.943 -1.0898  0.3369 -0.0927
  375MOL0     C50552   6.897   5.405   8.806 -0.0838 -0.2757 -0.4694
  375MOL0     C50553   6.841   5.277   8.762  0.3305  0.2955 -0.2610
  375MOL0     C50554   6.785   5.168   8.739  0.3806 -0.1573 -0.0475
  375MOL0     C50555   7.182   5.508   9.448 -0.4952 -0.2295  0.2275
  375MOL0     C50556   7.306   5.523   9.519  0.4693 -0.0570  0.7673
  375MOL0     C50557   7.305   5.453   9.652 -0.0578  1.0296  0.4636
  375MOL0     H50558   7.551   5.885   9.708  0.1256 -0.6625  1.2487
  375MOL0     H50559   7.754   6.028   9.789  2.4683 -0.6882 -0.8962
  375MOL0     H50560   7.908   6.001  10.041 -2.6036 -3.0175 -1.3987
  375MOL0     H50561   7.958   5.835  10.061 -1.2370 -0.6592 -0.0230
  375MOL0     H50562   8.130   6.006  10.145 -2.8537  0.6584  0.1952
  375MOL0     H50563   8.139   6.070   9.982  1.2828  2.4120  1.8148
  375MOL0     H50564   8.329   5.900  10.042 -0.5667  1.1908 -0.3275
  375MOL0     H50565   8.231   5.870   9.895  2.2527 -2.8133 -0.1506
  375MOL0     H50566   8.118   5.686   9.990  1.0551 -0.8727 -1.9364
  375MOL0     H50567   8.291   5.669  10.015  2.2599  3.4390 -0.7709
  375MOL0     H50568   8.244   5.762  10.253 -0.8809  2.0418 -0.7545
  375MOL0     H50569   8.083   5.775  10.217 -0.0746 -0.3971 -0.4360
  375MOL0     H50570   8.224   5.512  10.278 -1.2700 -0.8870 -0.4346
  375MOL0     H50571   8.073   5.589  10.329 -1.6320  2.0424 -2.2442
  375MOL0     H50572   8.057   5.378  10.194  1.0071 -0.0013  0.7048
  375MOL0     H50573   8.123   5.468  10.059  2.8098  0.0383  2.2170
  375MOL0     H50574   7.879   5.563  10.204  0.6256 -0.7756  1.1691
  375MOL0     H50575   7.923   5.613  10.045  0.8466  1.4319  2.0444
  375MOL0     H50576   7.636   5.446  10.176 -0.2392 -0.4695  0.6777
  375MOL0     H50577   7.460   5.280  10.086 -0.0397 -0.8333 -0.0160
  375MOL0     H50578   7.473   5.263   9.917 -1.7956 -0.8717 -0.1218
  375MOL0     H50579   7.444   5.036  10.019 -1.6089  2.1329  3.6113
  375MOL0     H50580   7.617   5.044   9.973  0.3697  3.4535 -2.3947
  375MOL0     H50581   7.518   4.968  10.217  0.1982  1.4753  2.7234
  375MOL0     H50582   7.545   5.142  10.247  0.3930 -0.2772  0.8497
  375MOL0     H50583   7.772   5.117  10.183 -1.9040 -0.1288  1.4528
  375MOL0     H50584   7.746   4.943  10.127 -2.9985 -2.5136  0.6242
  375MOL0     H50585   7.983   5.079  10.212  1.2664  0.4889  0.0738
  375MOL0     H50586   8.208   5.066  10.327  0.0945 -1.5809 -1.4415
  375MOL0     H50587   8.358   4.721  10.651 -0.0419  1.2421 -1.1583
  375MOL0     H50588   8.563   4.582  10.704  1.5843  0.1548 -0.6654
  375MOL0     H50589   8.958   4.685  10.548 -0.4221  0.3777 -0.7410
  375MOL0     H50590   8.925   4.775  10.704  4.1201  1.1039 -1.4070
  375MOL0     H50591   8.999   4.589  10.841  0.0514  0.1203 -1.1110
  375MOL0     H50592   9.026   4.498  10.679 -1.6693 -0.6884  0.7281
  375MOL0     H50593   9.176   4.705  10.632 -1.9373  0.7999 -0.3862
  375MOL0     H50594   9.150   4.765  10.795 -0.3074 -0.9176  1.5379
  375MOL0     H50595   9.292   4.501  10.725 -1.2567  2.8368 -3.3863
  375MOL0     H50596   9.262   4.559  10.888 -1.3717 -1.1470  0.3407
  375MOL0     H50597   9.395   4.770  10.846 -0.8278 -1.9830  3.2330
  375MOL0     H50598   9.413   4.694  10.676 -0.9595 -0.8218  0.4899
  375MOL0     H50599   9.618   4.683  10.797  0.3578 -1.6024 -2.2169
  375MOL0     H50600   9.551   4.595  10.937 -1.7626  0.0676 -0.5272
  375MOL0     H50601   9.557   4.501  10.642 -0.5264 -0.1608  0.3532
  375MOL0     H50602   9.520   4.398  10.782  0.6126 -1.0901 -0.7014
  375MOL0     H50603   9.751   4.411  10.857 -0.3923  1.1581 -0.1088
  375MOL0     H50604   9.726   4.345  10.694  0.3570 -1.4166  0.4219
  375MOL0     H50605   8.792   4.858  10.461 -0.3809  1.6307  0.0145
  375MOL0     H50606   8.609   4.976  10.414 -0.6038 -1.3052 -1.5168
  375MOL0     H50607   8.012   4.884  10.666 -0.4645  1.3029 -0.8143
  375MOL0     H50608   7.799   4.873  10.549 -0.4741  0.8334 -0.1519
  375MOL0     H50609   7.966   5.657   9.839 -0.5473 -3.4716 -0.8862
  375MOL0     H50610   7.742   5.536   9.820 -0.1297  0.4771  1.1308
  375MOL0     H50611   7.470   5.716   9.288 -1.5991  1.2611 -0.1891
  375MOL0     H50612   7.259   5.694   9.177 -0.7707  1.3807  0.4797
  375MOL0     H50613   7.016   5.359   9.201  1.7290 -1.4659  0.4454
  375MOL0     H50614   7.169   5.435   9.142  0.8302  3.3430  0.3796
  375MOL0     H50615   7.052   5.578   8.978  0.6990 -0.4645  1.1292
  375MOL0     H50616   6.903   5.547   9.063  0.5987  0.7997 -0.8270
  375MOL0     H50617   6.903   5.314   9.004  0.1610 -2.5813 -1.4684
  375MOL0     H50618   7.063   5.319   8.938 -1.2340 -0.0078  0.8949
  375MOL0     H50619   6.821   5.479   8.831  0.9901  0.9889 -0.8122
  375MOL0     H50620   6.964   5.449   8.732 -0.0521 -1.4408 -1.1570
  375MOL0     H50621   6.738   5.072   8.732 -0.3961  0.0761  1.4903
  375MOL0     H50622   7.099   5.449   9.485  1.1781 -1.5084  2.1728
  375MOL0     H50623   7.240   5.517   9.713 -0.2792  2.1967 -0.9379
  375MOL0     H50624   7.268   5.351   9.640 -1.7289  1.7040 -0.5076
  375MOL0     H50625   7.401   5.449   9.704 -1.7813  3.3344  4.2415
  376MOL0     O50626   0.051   1.004  10.402 -0.3334  0.2761 -0.2293
  376MOL0     C50627   0.113   1.097  10.354  0.8494  0.6793 -0.0178
  376MOL0     O50628   0.042   1.206  10.296  0.2315  0.8513  0.2459
  376MOL0     C50629  -0.100   1.211  10.292 -0.2771  0.2418 -0.0289
  376MOL0     C50630  -0.164   1.250  10.175 -0.7183  0.1323  0.4344
  376MOL0     C50631  -0.298   1.276  10.171 -0.2937  0.3742 -1.0487
  376MOL0     C50632  -0.379   1.261  10.279 -0.7595 -1.0652  0.8870
  376MOL0     O50633  -0.508   1.306  10.262  0.7197  0.0088 -0.3822
  376MOL0     C50634  -0.610   1.230  10.340 -0.4789  0.4731  0.4095
  376MOL0     C50635  -0.745   1.234  10.268 -0.8820  0.5468  0.1788
  376MOL0     C50636  -0.762   1.170  10.132 -0.5446  0.6618  0.2921
  376MOL0     C50637  -0.904   1.178  10.084 -0.6122 -0.5932 -0.0624
  376MOL0     C50638  -0.939   1.150   9.936  0.4002 -0.5116 -0.0029
  376MOL0     C50639  -0.860   1.234   9.835 -0.2587 -0.3740  0.1220
  376MOL0     C50640  -0.888   1.214   9.683  0.0727 -1.0216  0.9549
  376MOL0     C50641  -1.029   1.237   9.630 -0.3917 -0.6678 -0.6360
  376MOL0     N50642  -1.069   1.379   9.647 -0.2858 -0.2210 -0.8264
  376MOL0     C50643  -1.139   1.427   9.753  0.2235  0.3569 -0.2422
  376MOL0     C50644  -1.166   1.558   9.732  0.3358 -0.1743  0.5405
  376MOL0     C50645  -1.212   1.656   9.831  0.2421 -0.0074 -0.6603
  376MOL0     C50646  -1.100   1.714   9.923 -1.4395 -0.0454  1.3035
  376MOL0     C50647  -0.984   1.615   9.959 -0.0122 -0.2598  0.5016
  376MOL0     C50648  -0.856   1.688  10.015  0.9241 -0.4696  0.8772
  376MOL0     O50649  -0.738   1.600  10.029 -0.1014 -0.1675  0.5826
  376MOL0     C50650  -0.680   1.567   9.914 -0.4175  0.3037  0.1262
  376MOL0     C50651  -0.580   1.476   9.920  0.5399  0.2201  0.4171
  376MOL0     C50652  -0.518   1.424   9.806 -0.5534 -0.4950  0.8833
  376MOL0     C50653  -0.551   1.470   9.677  0.2538  0.1844 -0.1463
  376MOL0     C50654  -0.482   1.412   9.560 -0.8780  0.4084 -0.1364
  376MOL0     O50655  -0.409   1.300   9.582  0.3779 -0.7330  0.2693
  376MOL0     C50656  -0.385   1.206   9.489 -0.2968 -0.4486 -0.5441
  376MOL0     C50657  -0.449   1.182   9.365  1.0521  0.5972  0.3016
  376MOL0     C50658  -0.403   1.070   9.287 -0.1885  1.0822  0.0248
  376MOL0     C50659  -0.292   0.989   9.317  0.4758 -0.3439 -0.5736
  376MOL0     O50660  -0.240   0.890   9.238 -0.1637  0.0515  0.8141
  376MOL0     C50661  -0.250   0.895   9.096 -0.0398 -0.2325  0.0369
  376MOL0     C50662  -0.145   0.803   9.046 -0.0238  0.9652  0.3119
  376MOL0     C50663  -0.133   0.801   8.892 -0.4634  0.2185 -0.0240
  376MOL0     C50664  -0.046   0.682   8.851 -0.3697  0.2612  0.0018
  376MOL0     C50665  -0.046   0.660   8.696 -0.0612  0.5718 -0.1352
  376MOL0     C50666  -0.182   0.667   8.625  0.4000  0.4334 -0.0245
  376MOL0     C50667  -0.174   0.630   8.477 -0.0627 -0.4129  0.7441
  376MOL0     C50668  -0.305   0.708   8.414  0.1289  1.4472  0.7059
  376MOL0    Cl50669  -0.331   0.667   8.246  0.0195 -0.3521  0.2248
  376MOL0     C50670  -0.240   1.012   9.439  0.0102  0.1509 -0.1518
  376MOL0     C50671  -0.279   1.122   9.527  0.2465 -0.4113 -0.1604
  376MOL0     O50672  -0.505   1.471   9.459 -0.2766  0.4634  0.2765
  376MOL0     C50673  -0.647   1.572   9.666 -0.3663  0.2708  0.1204
  376MOL0     C50674  -0.709   1.618   9.784 -0.8941  1.3192  0.4266
  376MOL0     N50675  -1.128   1.589   9.600  0.0050  0.4845  0.1311
  376MOL0     N50676  -1.085   1.470   9.554  0.4697 -0.5285  0.5412
  376MOL0     C50677  -0.321   1.220  10.403 -0.3276 -0.4268 -0.2271
  376MOL0     C50678  -0.185   1.192  10.412  0.1369  0.2306 -1.5057
  376MOL0     C50679   0.259   1.089  10.355  0.1003 -0.1063 -0.6978
  376MOL0     C50680   0.326   0.981  10.415  1.1341 -0.4609  0.4360
  376MOL0     C50681   0.468   0.973  10.411 -0.3361  0.2228  0.7921
  376MOL0     C50682   0.540   1.080  10.366  0.4945 -0.1193 -0.0373
  376MOL0     O50683   0.679   1.089  10.364  0.2269  0.2642 -0.9965
  376MOL0     C50684   0.763   0.999  10.442  0.1986  0.4982 -0.0963
  376MOL0     C50685   0.911   1.036  10.429  0.9976 -1.0039  0.1877
  376MOL0     C50686   0.983   0.981  10.559 -0.8022  0.1390  0.1530
  376MOL0     C50687   1.136   0.972  10.543  0.1220 -0.4549 -0.0103
  376MOL0     C50688   1.211   1.099  10.530  0.2527  0.6096  1.5760
  376MOL0     C50689   1.259   1.210  10.506 -0.6030  0.1663  0.1075
  376MOL0     C50690   0.470   1.186  10.316  0.0668  0.3125  0.2625
  376MOL0     C50691   0.336   1.196  10.308 -0.2746 -0.6791  0.0652
  376MOL0     C50692   0.281   1.329  10.260 -0.0887  0.2802 -0.2945
  376MOL0     H50693  -0.102   1.273  10.090  1.4022 -3.2966  0.8662
  376MOL0     H50694  -0.350   1.313  10.084 -1.4474 -0.0153 -0.5498
  376MOL0     H50695  -0.593   1.123  10.352 -1.1967  0.5996  3.3319
  376MOL0     H50696  -0.618   1.262  10.444 -4.5627  1.6044 -0.0510
  376MOL0     H50697  -0.762   1.342  10.258  0.7216  0.7773 -0.3347
  376MOL0     H50698  -0.819   1.196  10.339 -1.8192 -0.0932 -1.1004
  376MOL0     H50699  -0.732   1.065  10.131 -1.3734  0.4114 -0.6938
  376MOL0     H50700  -0.697   1.219  10.059  0.7959  0.5580  1.3849
  376MOL0     H50701  -0.957   1.117  10.157  0.2514  2.3131  3.2802
  376MOL0     H50702  -0.934   1.282  10.104 -0.6687 -1.1261  3.0347
  376MOL0     H50703  -0.917   1.044   9.920  3.5237  0.4480 -3.6426
  376MOL0     H50704  -1.046   1.159   9.915  0.0522 -2.3668  0.7601
  376MOL0     H50705  -0.859   1.339   9.867  1.4181 -0.0270 -0.9125
  376MOL0     H50706  -0.754   1.207   9.839 -0.9494 -3.1662  1.8204
  376MOL0     H50707  -0.877   1.106   9.670  0.8974 -1.0126  1.5209
  376MOL0     H50708  -0.821   1.271   9.618 -0.3699 -0.9346  0.5650
  376MOL0     H50709  -1.046   1.222   9.523 -1.7114  0.9927 -0.6950
  376MOL0     H50710  -1.106   1.186   9.688  1.0189 -3.6882 -1.2370
  376MOL0     H50711  -1.167   1.377   9.845 -0.6783 -1.4873 -1.4667
  376MOL0     H50712  -1.276   1.737   9.794  0.3197 -0.8400 -2.7225
  376MOL0     H50713  -1.281   1.602   9.897  0.8376  0.3386  0.2715
  376MOL0     H50714  -1.056   1.804   9.877 -1.3099 -1.1869 -0.9806
  376MOL0     H50715  -1.152   1.757  10.009 -2.2413  1.4783  0.1202
  376MOL0     H50716  -0.958   1.558   9.869 -1.3134  0.2926 -0.2447
  376MOL0     H50717  -1.017   1.548  10.039 -1.9400 -3.0995 -2.3955
  376MOL0     H50718  -0.885   1.740  10.107 -2.1540 -0.0557 -0.1944
  376MOL0     H50719  -0.834   1.771   9.947 -1.2059  0.4499  1.2207
  376MOL0     H50720  -0.547   1.437  10.017 -1.8519 -3.7325 -0.1233
  376MOL0     H50721  -0.454   1.337   9.816  0.6004  0.3760  1.3229
  376MOL0     H50722  -0.534   1.241   9.333  1.4565  0.2028 -1.6152
  376MOL0     H50723  -0.457   1.063   9.193  1.0619  2.1854 -0.8133
  376MOL0     H50724  -0.353   0.866   9.074 -0.8043  1.5026  1.0997
  376MOL0     H50725  -0.225   0.995   9.059 -2.0927  0.5043  0.5055
  376MOL0     H50726  -0.048   0.829   9.089  0.9829 -0.4412 -0.9906
  376MOL0     H50727  -0.164   0.704   9.089  1.4435 -0.0875 -1.3261
  376MOL0     H50728  -0.234   0.791   8.852 -0.4046 -2.9279  0.3620
  376MOL0     H50729  -0.071   0.885   8.857  2.5537 -1.8960 -0.2007
  376MOL0     H50730  -0.090   0.591   8.894  1.5245 -1.2412 -1.0914
  376MOL0     H50731   0.060   0.688   8.877 -0.0147  1.0745 -1.5622
  376MOL0     H50732  -0.007   0.560   8.673 -0.3827  0.7535 -1.5357
  376MOL0     H50733   0.026   0.737   8.667  0.6747  0.7435  1.9379
  376MOL0     H50734  -0.258   0.616   8.685 -1.4772  3.5563  0.4702
  376MOL0     H50735  -0.212   0.770   8.641 -3.2493 -0.7648  1.9164
  376MOL0     H50736  -0.187   0.523   8.461  0.9976 -0.2305 -1.8091
  376MOL0     H50737  -0.085   0.659   8.420  0.7625  0.4269  2.3817
  376MOL0     H50738  -0.398   0.687   8.469 -1.6161 -0.1036 -2.5526
  376MOL0     H50739  -0.284   0.815   8.425  3.1119  1.0531 -0.4140
  376MOL0     H50740  -0.165   0.941   9.473  1.4964  2.6229  2.1851
  376MOL0     H50741  -0.238   1.146   9.624  0.8261  1.4498 -0.8356
  376MOL0     H50742  -0.672   1.596   9.563 -0.9115 -1.8324 -0.2992
  376MOL0     H50743  -0.785   1.688   9.752  0.2886  2.3939 -0.0772
  376MOL0     H50744  -0.382   1.205  10.491 -0.0437 -0.6746 -0.0683
  376MOL0     H50745  -0.135   1.169  10.506  1.0144  1.8664 -1.5384
  376MOL0     H50746   0.267   0.895  10.446 -0.7213  0.1404 -1.2106
  376MOL0     H50747   0.522   0.889  10.453  1.5219 -0.0646 -1.9116
  376MOL0     H50748   0.749   0.901  10.395  0.9335  0.4430 -0.2146
  376MOL0     H50749   0.732   0.996  10.547  0.5819  3.0064  0.1537
  376MOL0     H50750   0.925   1.144  10.419  1.8160 -0.9992  1.1931
  376MOL0     H50751   0.945   0.985  10.338  1.2269  0.1082 -0.3674
  376MOL0     H50752   0.964   0.874  10.572 -2.3210  0.5669  1.7776
  376MOL0     H50753   0.968   1.048  10.643  3.3173  0.1240  1.1333
  376MOL0     H50754   1.175   0.923  10.633 -3.6082 -3.6283  0.1360
  376MOL0     H50755   1.163   0.914  10.454 -0.7426 -0.4457 -0.2858
  376MOL0     H50756   1.287   1.313  10.496  3.2963 -0.5938  1.3705
  376MOL0     H50757   0.548   1.259  10.295  1.8891 -1.1713  1.5467
  376MOL0     H50758   0.361   1.394  10.224 -0.1867  0.7530  0.3151
  376MOL0     H50759   0.200   1.325  10.187  0.0655 -1.4121 -0.4058
  376MOL0     H50760   0.236   1.374  10.349 -0.7249  0.8633 -0.9016
  377MOL0     O50761   8.693   5.524   6.001 -0.1590  0.6079 -0.3814
  377MOL0     C50762   8.781   5.504   6.078 -0.3436 -0.5550 -0.4566
  377MOL0     O50763   8.797   5.387   6.157  0.4010 -0.5040 -0.0395
  377MOL0     C50764   8.700   5.292   6.164 -0.4271 -0.5398  0.4531
  377MOL0     C50765   8.595   5.301   6.259 -0.6640 -0.4531 -0.9913
  377MOL0     C50766   8.501   5.203   6.271  1.2281  0.3065  0.7384
  377MOL0     C50767   8.509   5.088   6.194  0.2711  0.6126 -0.5703
  377MOL0     O50768   8.416   4.982   6.205 -0.8931 -0.2414  0.5415
  377MOL0     C50769   8.305   5.005   6.295 -0.7321  0.5459 -0.2775
  377MOL0     C50770   8.207   4.885   6.268 -0.5947  0.0564  0.5541
  377MOL0     C50771   8.270   4.743   6.268 -0.2578 -0.1544  0.1360
  377MOL0     C50772   8.359   4.720   6.389 -0.2564  0.2530 -0.3340
  377MOL0     C50773   8.426   4.579   6.381 -0.1597 -0.4332  0.3979
  377MOL0     C50774   8.541   4.539   6.485 -1.9122  0.0808  0.6135
  377MOL0     C50775   8.577   4.399   6.487  0.1886  0.0292  0.0192
  377MOL0     C50776   8.666   4.375   6.607  1.0815 -0.6824  0.7370
  377MOL0     N50777   8.712   4.236   6.607  0.1298 -0.0108 -0.2255
  377MOL0     C50778   8.821   4.186   6.534 -0.4780 -0.2552  0.0297
  377MOL0     C50779   8.822   4.054   6.550  0.3938 -0.3583 -0.0293
  377MOL0     C50780   8.934   3.962   6.491  0.1014 -0.3979 -0.7822
  377MOL0     C50781   9.074   3.989   6.566  1.5307 -0.2765 -0.7212
  377MOL0     C50782   9.187   3.898   6.532  0.0503 -0.3922  1.1286
  377MOL0     C50783   9.303   3.905   6.630 -0.5979  0.4564 -0.6456
  377MOL0     O50784   9.387   3.796   6.612 -0.6407  0.0180 -0.4740
  377MOL0     C50785   9.526   3.807   6.626  0.5731 -0.6416  0.4010
  377MOL0     C50786   9.598   3.685   6.618  0.4104 -0.2067  0.3303
  377MOL0     C50787   9.743   3.688   6.608  0.2287  0.5074 -0.3395
  377MOL0     C50788   9.822   3.803   6.616  0.2835 -0.2895  0.5085
  377MOL0     C50789   9.967   3.806   6.599 -0.9876  1.1647 -0.4229
  377MOL0     O50790  10.036   3.923   6.592  0.2207 -0.4222 -0.0095
  377MOL0     C50791  10.161   3.924   6.531 -0.0131 -0.2954 -0.1513
  377MOL0     C50792  10.239   4.038   6.557  0.2218 -0.2940  0.0902
  377MOL0     C50793  10.361   4.059   6.492 -0.2976 -0.1664 -0.6603
  377MOL0     C50794  10.405   3.969   6.392 -0.4421  0.0098 -0.3733
  377MOL0     O50795  10.525   3.987   6.325 -0.6944  0.4264  1.1011
  377MOL0     C50796  10.618   4.085   6.371  0.0454 -0.2367 -0.7667
  377MOL0     C50797  10.761   4.049   6.326  1.2123 -0.6692  0.2865
  377MOL0     C50798  10.828   3.967   6.434  0.4654  0.3121 -0.0756
  377MOL0     C50799  10.916   4.049   6.532  0.5330 -0.4615 -0.1535
  377MOL0     C50800  11.046   4.101   6.482 -0.5859  0.3909  0.1317
  377MOL0     C50801  11.132   4.182   6.584  0.2682 -0.0067  0.1947
  377MOL0     C50802  11.188   4.084   6.698  0.2713  0.9215  1.0138
  377MOL0     C50803  11.295   4.150   6.779  0.6006 -0.3119 -0.2503
  377MOL0    Cl50804  11.432   4.215   6.696 -0.2699  0.3486 -0.2099
  377MOL0     C50805  10.330   3.861   6.366  0.0749 -0.8809  0.4048
  377MOL0     C50806  10.203   3.840   6.424 -0.5208  0.7669 -0.1717
  377MOL0     O50807  10.018   3.693   6.598  0.7302  0.2252  0.7099
  377MOL0     C50808   9.746   3.919   6.642 -0.8057  0.2911  1.0100
  377MOL0     C50809   9.606   3.925   6.640  0.3520  0.3140  0.0739
  377MOL0     N50810   8.709   4.024   6.631 -0.6372  0.3777 -0.9500
  377MOL0     N50811   8.646   4.129   6.665 -0.5309 -0.2395  0.0446
  377MOL0     C50812   8.606   5.079   6.094 -0.0591 -0.1146 -0.7401
  377MOL0     C50813   8.696   5.186   6.078 -0.4580 -0.0590 -0.4749
  377MOL0     C50814   8.875   5.624   6.114  0.1137 -0.7152 -0.0215
  377MOL0     C50815   8.941   5.618   6.238 -0.1716  0.3591  0.1243
  377MOL0     C50816   9.024   5.726   6.283 -0.2515 -0.6636  0.1800
  377MOL0     C50817   9.039   5.845   6.213 -0.0542  0.6792  0.7154
  377MOL0     O50818   9.108   5.944   6.274 -0.6327 -0.2459  0.2224
  377MOL0     C50819   9.167   6.052   6.201 -0.4177  0.2073 -0.8778
  377MOL0     C50820   9.098   6.190   6.216  0.0045 -0.2865  0.3791
  377MOL0     C50821   9.064   6.233   6.363 -0.3261  0.0509  0.2565
  377MOL0     C50822   9.003   6.372   6.370  0.6601  0.2140  0.1684
  377MOL0     C50823   9.086   6.474   6.307  0.3558 -0.8664 -0.5014
  377MOL0     C50824   9.160   6.575   6.272  0.1178 -0.1430  0.2000
  377MOL0     C50825   8.969   5.856   6.089 -0.2673  0.5333  0.2141
  377MOL0     C50826   8.890   5.747   6.039 -0.1845 -0.4120 -0.2123
  377MOL0     C50827   8.850   5.744   5.892 -0.3638  0.6941 -0.6587
  377MOL0     H50828   8.600   5.396   6.312  0.5137 -0.3674 -1.2261
  377MOL0     H50829   8.432   5.215   6.354  0.1318 -3.7595  0.6121
  377MOL0     H50830   8.346   5.011   6.396  0.0152  0.5725 -0.5738
  377MOL0     H50831   8.255   5.096   6.262  2.5096  1.2625 -3.9171
  377MOL0     H50832   8.159   4.886   6.169  1.2447 -3.3024 -0.5536
  377MOL0     H50833   8.126   4.885   6.342  0.4160  1.1144  1.6885
  377MOL0     H50834   8.343   4.743   6.187  2.8071  1.2087  2.6713
  377MOL0     H50835   8.200   4.661   6.246  0.6405 -0.4976 -1.6394
  377MOL0     H50836   8.439   4.794   6.392 -0.1929  0.1807  2.4576
  377MOL0     H50837   8.301   4.719   6.482  2.2121  0.7462  1.3291
  377MOL0     H50838   8.358   4.493   6.384  0.0778 -0.6334  0.1117
  377MOL0     H50839   8.475   4.569   6.284  2.7702  0.8445  1.5933
  377MOL0     H50840   8.624   4.594   6.440 -1.1838 -2.1649 -0.9561
  377MOL0     H50841   8.519   4.568   6.588  0.6811 -2.2159  1.9510
  377MOL0     H50842   8.625   4.366   6.394  1.6186 -2.9605  1.6709
  377MOL0     H50843   8.487   4.339   6.501  1.2106 -1.7286 -0.6003
  377MOL0     H50844   8.751   4.444   6.614 -0.1905  1.0057  0.3141
  377MOL0     H50845   8.615   4.391   6.702  1.0396 -0.3145  0.6544
  377MOL0     H50846   8.902   4.236   6.482 -0.6137  0.4827  0.5152
  377MOL0     H50847   8.908   3.856   6.496  3.3204 -1.2648  3.4898
  377MOL0     H50848   8.946   3.983   6.384 -2.8872 -2.3160 -1.6308
  377MOL0     H50849   9.102   4.092   6.542 -0.0441 -0.0943 -2.0013
  377MOL0     H50850   9.054   3.980   6.673 -0.1080  1.0586 -0.8646
  377MOL0     H50851   9.216   3.921   6.429 -0.9707  0.1962  0.9527
  377MOL0     H50852   9.156   3.793   6.530  0.0467 -0.4282  2.4437
  377MOL0     H50853   9.266   3.901   6.733  0.8755 -1.5931 -0.1365
  377MOL0     H50854   9.352   4.003   6.628  2.7212 -1.0940 -1.3252
  377MOL0     H50855   9.533   3.601   6.599  0.8352 -0.4259 -0.2047
  377MOL0     H50856   9.795   3.593   6.614 -0.2337  0.2156 -0.8295
  377MOL0     H50857  10.197   4.091   6.642  1.5900 -0.9485  1.2086
  377MOL0     H50858  10.419   4.145   6.524 -1.3432 -0.4322  2.2057
  377MOL0     H50859  10.593   4.182   6.328 -0.2538 -0.8570 -2.0322
  377MOL0     H50860  10.629   4.088   6.480  0.6640 -3.9547 -0.6078
  377MOL0     H50861  10.757   4.005   6.226 -2.5774  0.7661 -0.3326
  377MOL0     H50862  10.819   4.139   6.304  1.4556 -0.9479 -0.2448
  377MOL0     H50863  10.755   3.897   6.474 -0.1186  0.1702 -1.3250
  377MOL0     H50864  10.894   3.898   6.381 -0.5945 -0.5387 -0.3135
  377MOL0     H50865  10.946   3.983   6.614  0.5886 -0.2293  0.0162
  377MOL0     H50866  10.854   4.125   6.581 -0.3857 -1.5298  0.3874
  377MOL0     H50867  11.025   4.164   6.395 -0.4154 -1.5254 -1.3565
  377MOL0     H50868  11.097   4.011   6.449 -0.1549  0.7983 -0.3291
  377MOL0     H50869  11.213   4.230   6.527 -1.5618  1.7208 -1.1264
  377MOL0     H50870  11.072   4.262   6.629 -0.7325 -0.1368 -0.8645
  377MOL0     H50871  11.226   3.998   6.643  1.3644  1.0537  1.5417
  377MOL0     H50872  11.105   4.045   6.758 -0.8664 -2.6292 -2.4551
  377MOL0     H50873  11.243   4.231   6.832 -1.5282 -1.0900 -1.0304
  377MOL0     H50874  11.305   4.086   6.867  0.3338  1.8106  1.4024
  377MOL0     H50875  10.366   3.786   6.296  1.2579  0.0781 -0.0511
  377MOL0     H50876  10.148   3.747   6.409  0.8508 -0.3999  1.6195
  377MOL0     H50877   9.801   4.012   6.633  1.5211 -0.9622  1.3923
  377MOL0     H50878   9.560   4.021   6.661 -1.0578 -0.3882  0.2600
  377MOL0     H50879   8.610   4.998   6.023 -1.6007  1.4569 -2.7351
  377MOL0     H50880   8.770   5.184   5.999  3.8738  1.2558  3.0717
  377MOL0     H50881   8.932   5.537   6.310 -1.1172  1.6817  1.5541
  377MOL0     H50882   9.067   5.713   6.382 -1.5486 -1.8908  0.6129
  377MOL0     H50883   9.167   6.021   6.096  2.1678  0.2665 -0.9609
  377MOL0     H50884   9.275   6.069   6.208 -0.2498 -0.8408 -0.7419
  377MOL0     H50885   9.013   6.179   6.147 -0.1776 -0.3779  0.6178
  377MOL0     H50886   9.168   6.256   6.164  1.2776 -1.7257  0.2096
  377MOL0     H50887   9.156   6.214   6.419 -0.5773  1.4242  1.1836
  377MOL0     H50888   8.992   6.165   6.409  0.6808  0.2702  2.2427
  377MOL0     H50889   8.905   6.379   6.320  0.7221  2.5392  0.2724
  377MOL0     H50890   8.974   6.404   6.471 -1.2885 -1.8333  0.3447
  377MOL0     H50891   9.222   6.660   6.249  1.3932 -1.4592 -1.5098
  377MOL0     H50892   8.967   5.950   6.033  0.1389  0.5319  0.1952
  377MOL0     H50893   8.742   5.757   5.891 -0.2805  1.4156 -0.7025
  377MOL0     H50894   8.905   5.821   5.837  3.8637 -0.4945  1.4650
  377MOL0     H50895   8.870   5.644   5.852  0.5941  0.5028  0.2271
  378MOL0     O50896   3.103   3.622   5.549  0.6916 -0.2009  0.0280
  378MOL0     C50897   3.117   3.548   5.454 -0.7111  0.1826 -0.0353
  378MOL0     O50898   3.224   3.546   5.373  0.4015 -0.1284  0.2453
  378MOL0     C50899   3.310   3.646   5.382  0.8412  0.1528  0.2967
  378MOL0     C50900   3.432   3.619   5.438  0.6673 -0.0964  0.6978
  378MOL0     C50901   3.520   3.719   5.471 -0.0564 -0.5811 -0.0137
  378MOL0     C50902   3.495   3.850   5.434 -0.8103 -0.9710 -0.1998
  378MOL0     O50903   3.582   3.957   5.456  0.5747 -0.1855  0.2661
  378MOL0     C50904   3.708   3.925   5.520  0.5782 -0.5887  0.3871
  378MOL0     C50905   3.807   4.037   5.489  0.3032 -0.3619 -0.2488
  378MOL0     C50906   3.751   4.180   5.527  0.3662 -0.1056 -0.5849
  378MOL0     C50907   3.853   4.286   5.502 -0.1864  0.1733  0.2814
  378MOL0     C50908   3.953   4.297   5.627 -0.3954  0.0035  0.3356
  378MOL0     C50909   4.062   4.409   5.590  0.0076 -0.1445  0.2789
  378MOL0     C50910   4.201   4.375   5.654 -0.2912  0.4567  0.6501
  378MOL0     C50911   4.208   4.369   5.810  0.9501  0.4420 -0.5413
  378MOL0     N50912   4.237   4.500   5.868  0.4829  0.2006 -0.3427
  378MOL0     C50913   4.362   4.542   5.897  0.0856  0.7398  0.5059
  378MOL0     C50914   4.348   4.672   5.926 -0.4455 -0.1821  0.1487
  378MOL0     C50915   4.469   4.750   5.952 -0.3150 -0.5623 -0.8537
  378MOL0     C50916   4.550   4.709   6.076  0.2799 -1.2713  0.8273
  378MOL0     C50917   4.669   4.810   6.085  0.7586 -0.5226  0.0396
  378MOL0     C50918   4.763   4.768   6.191  0.4163  0.3503  0.1261
  378MOL0     O50919   4.881   4.848   6.203 -0.0222 -0.3951 -0.9359
  378MOL0     C50920   4.980   4.833   6.115  0.5241 -0.0855 -0.0292
  378MOL0     C50921   4.998   4.754   6.010  0.0397  1.0568  0.7063
  378MOL0     C50922   5.115   4.743   5.943  0.4698  0.2818  0.9725
  378MOL0     C50923   5.237   4.800   5.979 -0.4146 -0.5852 -0.1165
  378MOL0     C50924   5.363   4.790   5.901  0.0920  0.4706  0.1574
  378MOL0     O50925   5.347   4.750   5.769  0.2951  0.4990 -0.4312
  378MOL0     C50926   5.456   4.736   5.682  0.0289  0.1323  0.0069
  378MOL0     C50927   5.420   4.703   5.551 -0.2437 -0.2571 -0.4165
  378MOL0     C50928   5.522   4.686   5.453 -0.2766  0.7714  0.1811
  378MOL0     C50929   5.656   4.679   5.481  0.4515 -0.6821 -0.2457
  378MOL0     O50930   5.746   4.658   5.375  0.3207 -0.0962 -0.1498
  378MOL0     C50931   5.884   4.636   5.426  0.3771 -0.0284 -0.2013
  378MOL0     C50932   5.988   4.611   5.319  0.2478 -0.5881 -0.4350
  378MOL0     C50933   6.106   4.536   5.390  0.6086 -0.1677  0.0336
  378MOL0     C50934   6.231   4.562   5.311  0.0208  0.1892  0.3230
  378MOL0     C50935   6.342   4.488   5.382  0.2240  0.4623 -0.3940
  378MOL0     C50936   6.485   4.527   5.357  0.2417 -1.0490 -0.7461
  378MOL0     C50937   6.522   4.504   5.212  0.3329  0.8865 -0.1912
  378MOL0     C50938   6.655   4.581   5.177  0.3068  0.5000  0.2713
  378MOL0    Cl50939   6.787   4.546   5.277  0.5175  0.0276 -0.0026
  378MOL0     C50940   5.691   4.699   5.621 -0.7668 -0.7353  0.3364
  378MOL0     C50941   5.591   4.724   5.715  0.2212 -0.0750  0.1647
  378MOL0     O50942   5.464   4.809   5.961  0.5241  0.3491  0.1701
  378MOL0     C50943   5.222   4.881   6.097 -0.1260 -0.2533  0.6472
  378MOL0     C50944   5.101   4.906   6.150  0.2103  0.3411 -1.7588
  378MOL0     N50945   4.212   4.712   5.936 -0.1520  0.2802 -0.0974
  378MOL0     N50946   4.146   4.601   5.897  0.6574  0.5337  0.2814
  378MOL0     C50947   3.382   3.881   5.369  0.3470 -0.4000  0.0087
  378MOL0     C50948   3.291   3.779   5.340  0.7075 -0.5040 -0.7288
  378MOL0     C50949   3.035   3.431   5.439  0.1068  0.5345  0.5658
  378MOL0     C50950   3.094   3.303   5.395  0.6660 -0.2286 -0.3805
  378MOL0     C50951   3.012   3.187   5.376  0.0833 -0.1719 -0.7695
  378MOL0     C50952   2.875   3.188   5.396 -0.0507 -0.0184 -0.3482
  378MOL0     O50953   2.797   3.070   5.373 -0.0315  0.6636  0.0902
  378MOL0     C50954   2.852   2.959   5.294 -0.7776 -0.1319  0.7869
  378MOL0     C50955   2.738   2.888   5.211 -0.6151  0.6596 -1.1037
  378MOL0     C50956   2.686   2.967   5.103 -0.2121 -0.9964 -0.2411
  378MOL0     C50957   2.543   2.918   5.068  0.4919 -0.4906 -0.1481
  378MOL0     C50958   2.530   2.783   5.012  0.2576 -0.4995 -0.3683
  378MOL0     C50959   2.526   2.673   4.969  0.0576 -0.7337 -0.2015
  378MOL0     C50960   2.822   3.306   5.459  0.2675  1.3203  0.1577
  378MOL0     C50961   2.898   3.421   5.472  0.0650 -0.6768 -0.4470
  378MOL0     C50962   2.820   3.529   5.557  0.5115  0.5575 -0.0149
  378MOL0     H50963   3.446   3.519   5.477 -0.7502 -0.6566 -0.1241
  378MOL0     H50964   3.600   3.684   5.534 -3.0985 -2.6086  3.1273
  378MOL0     H50965   3.698   3.922   5.629 -1.5041 -1.4905  0.2088
  378MOL0     H50966   3.756   3.830   5.493  4.5358  1.3442 -0.1946
  378MOL0     H50967   3.833   4.039   5.383 -0.9283 -3.1029 -0.7123
  378MOL0     H50968   3.896   4.012   5.547  0.3188 -0.7260 -0.4205
  378MOL0     H50969   3.714   4.173   5.630 -1.1956  0.4986 -1.0631
  378MOL0     H50970   3.661   4.209   5.471 -0.0846 -1.7239 -0.7587
  378MOL0     H50971   3.905   4.262   5.409 -0.3107  0.0945  0.2333
  378MOL0     H50972   3.798   4.380   5.491 -0.9987 -0.3335 -0.0982
  378MOL0     H50973   3.901   4.315   5.722  2.3401 -2.7613  2.5555
  378MOL0     H50974   4.013   4.207   5.640 -1.3497 -0.3755  2.3580
  378MOL0     H50975   4.074   4.394   5.483 -0.2941 -2.6949  0.5384
  378MOL0     H50976   4.027   4.510   5.614  0.6276 -0.5588  3.3813
  378MOL0     H50977   4.272   4.449   5.617  1.2662  0.9777  4.2469
  378MOL0     H50978   4.230   4.276   5.618 -1.8918  0.2190 -0.0631
  378MOL0     H50979   4.121   4.336   5.868  1.7617 -1.8061 -0.4949
  378MOL0     H50980   4.285   4.295   5.835 -1.0016 -1.3383  0.5750
  378MOL0     H50981   4.451   4.481   5.889 -2.4299 -3.2175 -0.2474
  378MOL0     H50982   4.542   4.736   5.872  1.9774 -1.1656  1.2317
  378MOL0     H50983   4.445   4.857   5.947 -0.6925 -0.6285 -0.5090
  378MOL0     H50984   4.487   4.701   6.165 -0.4447 -1.5393  0.3008
  378MOL0     H50985   4.598   4.613   6.055 -0.4213 -0.9288 -2.9337
  378MOL0     H50986   4.642   4.913   6.110  1.1241 -0.0224 -1.5247
  378MOL0     H50987   4.717   4.819   5.988  2.8436  3.2765  1.2295
  378MOL0     H50988   4.799   4.666   6.179  0.0609 -0.1714  2.8337
  378MOL0     H50989   4.710   4.777   6.287  1.7626 -2.0031  1.1812
  378MOL0     H50990   4.909   4.702   5.976 -0.5772  1.5081  1.5987
  378MOL0     H50991   5.111   4.693   5.846  0.0885 -0.4591  1.3592
  378MOL0     H50992   5.314   4.706   5.526 -1.1159  0.7421  2.8546
  378MOL0     H50993   5.488   4.696   5.351 -0.0073 -3.8251 -0.5437
  378MOL0     H50994   5.925   4.710   5.496  3.2295 -0.0848 -1.6684
  378MOL0     H50995   5.876   4.542   5.481 -1.1743 -0.5016 -1.1887
  378MOL0     H50996   5.950   4.550   5.236 -3.2173  0.3925  0.2988
  378MOL0     H50997   6.022   4.709   5.287  1.4719 -1.2712 -1.3372
  378MOL0     H50998   6.133   4.573   5.489  1.4280 -0.2374 -0.1541
  378MOL0     H50999   6.079   4.430   5.386 -1.8326  0.3658  0.4007
  378MOL0     H51000   6.253   4.669   5.305 -1.3581  0.4798  0.3259
  378MOL0     H51001   6.227   4.519   5.210 -0.3246  2.3778 -0.6393
  378MOL0     H51002   6.332   4.383   5.352  0.2442  1.2340 -3.5405
  378MOL0     H51003   6.328   4.501   5.489 -1.3909 -1.4421 -0.3192
  378MOL0     H51004   6.498   4.635   5.374  0.7364 -1.0622 -1.0131
  378MOL0     H51005   6.547   4.465   5.423  1.3230  1.4380  0.7277
  378MOL0     H51006   6.443   4.552   5.153 -2.4091 -0.8194  1.8310
  378MOL0     H51007   6.521   4.396   5.194 -0.4595  0.8498  0.0085
  378MOL0     H51008   6.658   4.559   5.070 -1.1717 -0.9366  0.4779
  378MOL0     H51009   6.633   4.686   5.197  2.0375  0.4662  2.8187
  378MOL0     H51010   5.793   4.682   5.655  0.6751 -1.0461 -3.6610
  378MOL0     H51011   5.609   4.740   5.821  0.4273  0.5057  0.0486
  378MOL0     H51012   5.308   4.941   6.127  1.1560 -0.2346 -2.6981
  378MOL0     H51013   5.082   4.977   6.230 -4.2024 -0.9615 -1.4043
  378MOL0     H51014   3.353   3.985   5.355  0.6839 -0.1003  1.3734
  378MOL0     H51015   3.196   3.794   5.291  0.9648 -0.1651 -1.1343
  378MOL0     H51016   3.198   3.278   5.373  0.4277 -2.1599  0.4856
  378MOL0     H51017   3.057   3.096   5.337 -6.0057 -2.9761 -2.4985
  378MOL0     H51018   2.903   2.891   5.362 -1.0129  1.3620  2.5192
  378MOL0     H51019   2.930   2.990   5.222 -0.6021 -0.3126  0.8979
  378MOL0     H51020   2.657   2.875   5.283  0.7106  1.6851  0.6508
  378MOL0     H51021   2.769   2.792   5.169 -0.9056  1.2462 -2.7288
  378MOL0     H51022   2.753   2.945   5.019  0.2470 -1.1967  0.1685
  378MOL0     H51023   2.696   3.073   5.126  0.2052 -1.1221  0.1701
  378MOL0     H51024   2.467   2.928   5.146 -0.4914 -1.2821 -0.9706
  378MOL0     H51025   2.512   2.988   4.990 -0.9665 -1.6775 -0.6784
  378MOL0     H51026   2.528   2.570   4.940  2.7605 -1.1575  1.1828
  378MOL0     H51027   2.715   3.314   5.476  0.5896  2.3573  1.9939
  378MOL0     H51028   2.858   3.626   5.525  1.0815  1.1186  2.1991
  378MOL0     H51029   2.712   3.526   5.543  0.2306 -2.3802  1.9207
  378MOL0     H51030   2.852   3.522   5.661  1.7798  2.5814 -0.2223
  379MOL0     O51031  10.823   5.633   5.706  0.2572 -0.6648 -0.6018
  379MOL0     C51032  10.859   5.582   5.812  0.9111 -0.2132 -0.0048
  379MOL0     O51033  10.979   5.613   5.875  0.3673  0.2196  0.1755
  379MOL0     C51034  11.066   5.700   5.812 -0.1011  0.5360  0.3908
  379MOL0     C51035  11.025   5.809   5.742 -0.0220  0.0266 -0.0862
  379MOL0     C51036  11.126   5.885   5.673  0.4604  0.0244 -0.2762
  379MOL0     C51037  11.261   5.854   5.680  0.3134  0.2610 -0.2172
  379MOL0     O51038  11.339   5.934   5.602  0.1854  0.2315  0.2206
  379MOL0     C51039  11.484   5.941   5.590  0.5200 -0.0939  0.6204
  379MOL0     C51040  11.541   5.807   5.537 -0.1788  0.2303 -0.0387
  379MOL0     C51041  11.692   5.816   5.489  1.1753  1.3168 -0.0647
  379MOL0     C51042  11.713   5.898   5.358 -0.2246  0.1590  0.1023
  379MOL0     C51043  11.854   5.892   5.290  0.3964  0.5041  0.0758
  379MOL0     C51044  11.916   5.756   5.303 -0.1639 -0.4456 -0.0963
  379MOL0     C51045  12.041   5.752   5.209  0.1543 -0.4660  1.3604
  379MOL0     C51046  12.119   5.616   5.229 -0.0275 -0.3852 -0.2441
  379MOL0     N51047  12.242   5.605   5.155 -0.6167 -0.5847  0.4231
  379MOL0     C51048  12.241   5.604   5.016  0.3833 -0.4439 -0.2411
  379MOL0     C51049  12.377   5.601   4.991  0.4681  0.0395 -0.2709
  379MOL0     C51050  12.438   5.573   4.851  0.0193  0.3300  0.0325
  379MOL0     C51051  12.556   5.479   4.837 -1.0776 -0.1907 -0.4071
  379MOL0     C51052  12.532   5.343   4.903  0.5061 -0.0792  0.3861
  379MOL0     C51053  12.438   5.253   4.823  0.6523  0.0722  0.0179
  379MOL0     O51054  12.496   5.208   4.696 -0.0441 -0.1045  0.2237
  379MOL0     C51055  12.599   5.126   4.712 -0.1556 -0.6078  0.9824
  379MOL0     C51056  12.629   5.037   4.817  0.0575  0.2945  0.3360
  379MOL0     C51057  12.743   4.960   4.828 -0.4678 -0.3038  0.3450
  379MOL0     C51058  12.837   4.967   4.713  1.5794 -0.4091  0.0452
  379MOL0     C51059  12.962   4.896   4.722 -0.1084 -0.4325 -0.7537
  379MOL0     O51060  12.976   4.793   4.811  0.5321  0.2390 -0.3096
  379MOL0     C51061  13.093   4.733   4.849 -0.2597 -0.5259 -0.2092
  379MOL0     C51062  13.066   4.618   4.929 -0.5628 -0.0160 -0.7111
  379MOL0     C51063  13.175   4.556   4.985 -0.1808  0.5483  0.0244
  379MOL0     C51064  13.305   4.593   4.947 -0.1802  0.2420 -0.1421
  379MOL0     O51065  13.416   4.531   5.002  0.2012  0.6206 -0.3688
  379MOL0     C51066  13.420   4.390   4.975  0.3086 -0.0514 -0.7280
  379MOL0     C51067  13.560   4.325   4.977 -0.1540 -0.5692 -1.0626
  379MOL0     C51068  13.645   4.380   4.871  0.3172  0.3176  0.2092
  379MOL0     C51069  13.794   4.343   4.891  0.0572 -0.5671 -0.3850
  379MOL0     C51070  13.875   4.422   4.790  0.2242  0.2131  0.6231
  379MOL0     C51071  14.014   4.373   4.779 -0.9029  0.0264  0.3696
  379MOL0     C51072  14.099   4.480   4.706  0.4351 -0.3839 -0.9284
  379MOL0     C51073  14.125   4.604   4.790 -0.8868  0.2783 -0.6103
  379MOL0    Cl51074  14.259   4.677   4.711 -0.1233 -0.3170 -0.4017
  379MOL0     C51075  13.332   4.698   4.859  0.8348 -0.2165 -0.5770
  379MOL0     C51076  13.221   4.764   4.812 -0.3525 -0.6665  0.6816
  379MOL0     O51077  13.052   4.928   4.638  0.9428  0.0639 -0.3610
  379MOL0     C51078  12.796   5.054   4.607 -1.3665  0.5476 -0.1493
  379MOL0     C51079  12.689   5.127   4.602  0.3307  0.7460 -0.6625
  379MOL0     N51080  12.451   5.604   5.109 -0.6300  0.4110  0.2203
  379MOL0     N51081  12.366   5.592   5.208  0.0938  0.7553  1.5686
  379MOL0     C51082  11.305   5.750   5.756  0.3886  0.2447  1.3848
  379MOL0     C51083  11.198   5.670   5.814 -0.4476  0.0070  0.2774
  379MOL0     C51084  10.760   5.498   5.882 -0.0729  0.1337 -0.4550
  379MOL0     C51085  10.771   5.500   6.022 -1.0707  0.4020  0.6003
  379MOL0     C51086  10.675   5.437   6.091  0.1568 -0.2555 -0.3263
  379MOL0     C51087  10.573   5.356   6.028 -0.3044 -0.7257  0.2995
  379MOL0     O51088  10.480   5.282   6.095  0.0392  0.4970  0.5836
  379MOL0     C51089  10.493   5.265   6.241 -0.4105  0.0445 -0.3478
  379MOL0     C51090  10.364   5.194   6.290  0.6690 -0.5626  0.9989
  379MOL0     C51091  10.346   5.205   6.444 -0.4861  0.7843 -0.0356
  379MOL0     C51092  10.417   5.095   6.522  0.2604 -0.5753 -0.4778
  379MOL0     C51093  10.364   4.967   6.485  0.3475 -0.1200  0.9364
  379MOL0     C51094  10.335   4.864   6.427 -0.4629  1.2320  0.7757
  379MOL0     C51095  10.570   5.353   5.890  0.4174  0.4795 -0.0501
  379MOL0     C51096  10.663   5.426   5.816 -0.7187  0.5099  0.8785
  379MOL0     C51097  10.636   5.422   5.663 -0.0680 -0.1232  0.1871
  379MOL0     H51098  10.921   5.838   5.742  0.3734  1.5426 -0.2568
  379MOL0     H51099  11.099   5.965   5.605  1.4137  2.8729  2.4665
  379MOL0     H51100  11.508   6.017   5.515 -2.0279  1.1553  0.9324
  379MOL0     H51101  11.518   5.963   5.692 -4.1209 -1.9170  2.8498
  379MOL0     H51102  11.479   5.776   5.452  1.4848 -0.1934 -1.1636
  379MOL0     H51103  11.541   5.730   5.615 -0.1676 -0.5661 -0.7980
  379MOL0     H51104  11.729   5.715   5.466 -3.1927 -0.0401 -2.3474
  379MOL0     H51105  11.750   5.872   5.563 -1.4080  1.2086  2.1883
  379MOL0     H51106  11.629   5.867   5.296 -0.6801 -0.5945  1.0720
  379MOL0     H51107  11.694   6.004   5.377  0.3151  0.3978 -0.6579
  379MOL0     H51108  11.856   5.913   5.182 -1.3009  0.4116 -0.0026
  379MOL0     H51109  11.918   5.971   5.329  2.4567 -1.4276  0.8333
  379MOL0     H51110  11.936   5.741   5.409 -2.0308  0.1157  0.3846
  379MOL0     H51111  11.855   5.671   5.269 -1.2449 -0.7959  2.4872
  379MOL0     H51112  12.115   5.825   5.241 -3.0912  2.8952  1.9197
  379MOL0     H51113  12.025   5.768   5.102  2.4742 -0.1868  1.0100
  379MOL0     H51114  12.144   5.602   5.334  1.2255 -0.8923 -0.5924
  379MOL0     H51115  12.054   5.535   5.195  1.0379 -1.1074 -0.6048
  379MOL0     H51116  12.155   5.584   4.952  0.5006 -0.3749 -0.4203
  379MOL0     H51117  12.358   5.542   4.784 -1.1445  2.0855  0.5360
  379MOL0     H51118  12.470   5.666   4.804  1.5856  0.2319  0.8278
  379MOL0     H51119  12.583   5.467   4.731  2.2810 -0.0274  0.3020
  379MOL0     H51120  12.646   5.527   4.877  0.4692  1.0451 -4.7378
  379MOL0     H51121  12.484   5.346   5.001 -4.4387  0.2367 -1.7336
  379MOL0     H51122  12.626   5.288   4.909 -1.0799 -3.1718 -0.4414
  379MOL0     H51123  12.336   5.292   4.825 -0.4667 -2.4621  4.1422
  379MOL0     H51124  12.426   5.172   4.895  1.7298 -0.1447 -0.0298
  379MOL0     H51125  12.550   5.017   4.888 -2.8894 -1.6290 -3.1284
  379MOL0     H51126  12.745   4.900   4.917  0.3885 -0.0846  0.4834
  379MOL0     H51127  12.965   4.585   4.953 -0.4024  0.6817  1.1272
  379MOL0     H51128  13.168   4.471   5.052 -2.4933 -0.5440 -1.4807
  379MOL0     H51129  13.354   4.340   5.047  1.3668 -0.3723  0.0501
  379MOL0     H51130  13.383   4.373   4.874  0.3863 -1.2438 -0.5820
  379MOL0     H51131  13.603   4.340   5.076 -2.1279 -0.8456 -0.1102
  379MOL0     H51132  13.564   4.217   4.967  1.7593 -0.3748 -2.9655
  379MOL0     H51133  13.615   4.338   4.775 -0.4389  2.0718 -0.3540
  379MOL0     H51134  13.622   4.487   4.871 -1.4722  0.0723  3.3752
  379MOL0     H51135  13.814   4.238   4.865 -0.4052  0.0106 -3.5018
  379MOL0     H51136  13.838   4.366   4.988 -1.2433  2.3428 -0.3986
  379MOL0     H51137  13.873   4.526   4.826 -2.2998  1.4104 -2.3930
  379MOL0     H51138  13.830   4.416   4.690  1.8838 -0.8357 -0.0849
  379MOL0     H51139  14.057   4.351   4.877  0.6992 -0.1182 -0.3396
  379MOL0     H51140  14.025   4.277   4.727 -1.8603 -0.4641  1.0446
  379MOL0     H51141  14.046   4.500   4.612 -0.3925 -1.5672 -0.7485
  379MOL0     H51142  14.188   4.425   4.673 -1.0469 -1.6058 -3.1897
  379MOL0     H51143  14.046   4.678   4.805 -2.0260 -1.5723  4.5186
  379MOL0     H51144  14.157   4.577   4.891  0.9343  0.0693 -1.2135
  379MOL0     H51145  13.436   4.714   4.834  1.6496  2.5832  3.6593
  379MOL0     H51146  13.240   4.854   4.753 -1.6887 -0.3020  0.7845
  379MOL0     H51147  12.867   5.072   4.527 -0.7646  0.7929  0.4346
  379MOL0     H51148  12.668   5.190   4.516  1.7300  1.9327 -0.1703
  379MOL0     H51149  11.411   5.739   5.776  1.2041  0.7623 -1.9243
  379MOL0     H51150  11.225   5.585   5.876  0.1642  3.0353  4.6290
  379MOL0     H51151  10.838   5.562   6.081 -1.3518  0.1564  1.1901
  379MOL0     H51152  10.677   5.437   6.199  0.0886  1.0634 -0.3137
  379MOL0     H51153  10.478   5.360   6.293  1.7241 -0.9905  2.4543
  379MOL0     H51154  10.584   5.222   6.284 -0.5252  2.0312  2.1254
  379MOL0     H51155  10.364   5.096   6.242  2.5629 -0.0877 -0.0538
  379MOL0     H51156  10.283   5.247   6.239 -0.2744 -2.5317  0.3607
  379MOL0     H51157  10.240   5.198   6.472 -0.8037 -1.0976 -1.4742
  379MOL0     H51158  10.378   5.306   6.469 -4.3363  2.7005 -1.9500
  379MOL0     H51159  10.524   5.103   6.503  0.9156 -1.6470  2.3821
  379MOL0     H51160  10.407   5.110   6.630  1.5537  2.4718 -0.6785
  379MOL0     H51161  10.334   4.769   6.376  3.9147  2.6137 -2.5578
  379MOL0     H51162  10.484   5.314   5.836 -0.6338  2.5931 -0.0252
  379MOL0     H51163  10.610   5.522   5.628 -0.3958 -0.3617 -0.2619
  379MOL0     H51164  10.720   5.384   5.605 -2.8125 -1.8032 -3.0679
  379MOL0     H51165  10.549   5.358   5.642  0.3825 -0.6800  0.0043
  380MOL0     O51166   5.444   2.739   9.287  0.7585 -0.5194 -0.0400
  380MOL0     C51167   5.517   2.730   9.188  0.5959 -0.4213  0.2723
  380MOL0     O51168   5.461   2.724   9.060  0.6270  0.0967  0.4403
  380MOL0     C51169   5.325   2.735   9.041  0.4210  0.9923 -0.1848
  380MOL0     C51170   5.240   2.619   9.039  0.1141  0.2695 -0.3974
  380MOL0     C51171   5.110   2.634   9.008 -0.3092 -0.1513  0.7879
  380MOL0     C51172   5.049   2.762   9.000 -0.2295  0.2433 -0.0882
  380MOL0     O51173   4.909   2.778   8.989 -0.8847  0.1771 -0.5227
  380MOL0     C51174   4.853   2.880   9.065 -0.8632 -0.9364 -0.7463
  380MOL0     C51175   4.702   2.870   9.075  0.6678 -0.3308 -0.5211
  380MOL0     C51176   4.653   2.928   9.211 -0.8989  0.0355 -0.6582
  380MOL0     C51177   4.498   2.914   9.239 -0.8815 -0.0171 -0.7704
  380MOL0     C51178   4.466   2.977   9.372 -0.2686  0.0001  0.3718
  380MOL0     C51179   4.315   2.949   9.394  0.9074  0.4824  0.7873
  380MOL0     C51180   4.254   2.989   9.528  0.3211  0.0331 -0.6237
  380MOL0     C51181   4.108   2.967   9.530 -0.3992  0.1900 -0.1053
  380MOL0     N51182   4.070   2.869   9.632  1.0051  0.5259 -0.0583
  380MOL0     C51183   4.039   2.894   9.765  0.3583 -0.4010  0.5745
  380MOL0     C51184   3.996   2.779   9.824 -0.0740  0.3774  0.0408
  380MOL0     C51185   3.947   2.761   9.962  0.8056 -0.0312  0.7695
  380MOL0     C51186   3.794   2.798   9.985 -0.1862 -0.4429  0.4974
  380MOL0     C51187   3.784   2.950   9.980  0.7999 -0.3591 -0.0446
  380MOL0     C51188   3.646   2.992  10.013  1.3274  0.4032 -0.0742
  380MOL0     O51189   3.620   2.964  10.153  0.2239 -0.2244  0.0883
  380MOL0     C51190   3.495   2.969  10.207 -0.3534 -0.8620  0.8878
  380MOL0     C51191   3.376   2.988  10.141 -0.3749 -0.5170 -0.1077
  380MOL0     C51192   3.256   3.004  10.205  0.3343 -0.7924  0.5251
  380MOL0     C51193   3.245   3.007  10.343  0.6798  0.4181  0.4754
  380MOL0     C51194   3.110   3.000  10.403  1.2131  1.1720  0.3180
  380MOL0     O51195   3.098   2.971  10.538  0.2307 -0.1633 -0.4638
  380MOL0     C51196   2.989   3.007  10.612  0.7118 -0.0899  0.0956
  380MOL0     C51197   2.861   2.958  10.591 -0.9953  0.5370  0.4107
  380MOL0     C51198   2.758   2.999  10.676  1.1105 -0.5932  0.1964
  380MOL0     C51199   2.776   3.113  10.768 -0.4288  1.1773  0.7613
  380MOL0     O51200   2.659   3.148  10.829  0.7112  0.9546  0.0712
  380MOL0     C51201   2.667   3.203  10.965 -0.4892  0.7927  0.2237
  380MOL0     C51202   2.544   3.160  11.045  0.9020  0.3474 -0.2635
  380MOL0     C51203   2.410   3.206  10.968 -0.0793  1.1093  0.6398
  380MOL0     C51204   2.383   3.353  11.014  0.0717 -0.1035 -0.3170
  380MOL0     C51205   2.286   3.424  10.923  0.3569 -0.4443  0.0486
  380MOL0     C51206   2.156   3.352  10.947 -0.6005  0.0699  0.3419
  380MOL0     C51207   2.038   3.447  10.912  0.1860 -0.7240  0.0440
  380MOL0     C51208   1.922   3.357  10.876 -0.5995 -0.2051 -0.4267
  380MOL0    Cl51209   1.854   3.245  11.007  0.0177  0.2605 -0.3125
  380MOL0     C51210   2.903   3.170  10.774  0.0398  0.4313  0.2821
  380MOL0     C51211   3.009   3.125  10.697 -0.0586  0.7528  0.7245
  380MOL0     O51212   3.013   3.021  10.327 -0.3689  0.0259 -0.3633
  380MOL0     C51213   3.366   2.986  10.410 -0.2645 -0.0727  0.0316
  380MOL0     C51214   3.492   2.956  10.346 -0.6457 -0.2261  0.3793
  380MOL0     N51215   4.010   2.686   9.723  0.3842  0.0879  0.3274
  380MOL0     N51216   4.045   2.739   9.616  0.7983 -0.0668 -0.3789
  380MOL0     C51217   5.132   2.873   8.998  0.4106  0.9054  0.3098
  380MOL0     C51218   5.267   2.859   9.020 -0.5142  0.2206 -0.7431
  380MOL0     C51219   5.664   2.726   9.216 -0.0512  0.1086 -0.0923
  380MOL0     C51220   5.740   2.699   9.107  0.0706  0.5245  0.7099
  380MOL0     C51221   5.874   2.715   9.112  0.0178  0.3889 -0.2397
  380MOL0     C51222   5.943   2.741   9.229 -0.8297 -0.3383 -0.2382
  380MOL0     O51223   6.082   2.756   9.219  0.0294  1.0549 -0.6023
  380MOL0     C51224   6.171   2.764   9.337  0.0243 -1.4873  0.2038
  380MOL0     C51225   6.307   2.824   9.297  0.3714  0.3740 -0.3788
  380MOL0     C51226   6.383   2.733   9.200 -0.8263  0.2875 -0.3581
  380MOL0     C51227   6.519   2.819   9.167 -0.0186  0.4474 -0.0780
  380MOL0     C51228   6.609   2.837   9.284 -0.1933 -0.5795 -0.0118
  380MOL0     C51229   6.686   2.873   9.374  0.4513 -0.3190  0.6924
  380MOL0     C51230   5.870   2.755   9.344 -1.2201 -0.3266 -0.5345
  380MOL0     C51231   5.731   2.764   9.337 -0.3529 -0.0206 -0.0999
  380MOL0     C51232   5.653   2.805   9.465  0.5543 -0.4755  0.4624
  380MOL0     H51233   5.278   2.520   9.061  2.1397  1.3469  1.3862
  380MOL0     H51234   5.052   2.543   8.999 -1.8182  0.9207 -1.4811
  380MOL0     H51235   4.902   2.881   9.163  0.8367 -0.3622 -1.5578
  380MOL0     H51236   4.874   2.977   9.019  1.7428 -1.5696 -1.0654
  380MOL0     H51237   4.656   2.772   9.061 -2.4410  0.6658  1.7440
  380MOL0     H51238   4.664   2.937   8.997  1.6931  1.6475  0.6044
  380MOL0     H51239   4.679   3.034   9.222  3.7630 -1.1912  4.7226
  380MOL0     H51240   4.717   2.884   9.288  0.3750  3.1779  0.2417
  380MOL0     H51241   4.439   2.956   9.156 -1.3905  1.5337  0.3277
  380MOL0     H51242   4.481   2.806   9.243  2.5686 -0.6177  1.7575
  380MOL0     H51243   4.518   2.926   9.453 -2.4355 -3.1656 -0.0804
  380MOL0     H51244   4.492   3.084   9.377 -1.3686  0.2818  0.2391
  380MOL0     H51245   4.262   2.999   9.313  2.5926 -2.1384 -2.1719
  380MOL0     H51246   4.294   2.842   9.385 -5.8473  1.5656 -2.0265
  380MOL0     H51247   4.289   3.091   9.549 -0.2229  0.0701  0.1306
  380MOL0     H51248   4.292   2.925   9.607  0.0543  0.8509  0.1815
  380MOL0     H51249   4.057   3.060   9.557 -1.0617 -0.1641 -0.1039
  380MOL0     H51250   4.077   2.931   9.431  1.8681 -2.0792 -0.1001
  380MOL0     H51251   4.037   2.992   9.813 -0.3970 -0.1731  0.0902
  380MOL0     H51252   3.958   2.654   9.983  0.0952 -0.1182  0.7248
  380MOL0     H51253   4.008   2.818  10.032  0.8440  0.7175  0.1281
  380MOL0     H51254   3.738   2.746   9.907  2.5990 -0.9763 -1.3049
  380MOL0     H51255   3.775   2.757  10.085  0.3500  0.9265  1.1947
  380MOL0     H51256   3.797   2.978   9.875 -1.0521 -0.5132 -0.3439
  380MOL0     H51257   3.861   2.999  10.041 -0.0305 -1.2209  1.7758
  380MOL0     H51258   3.576   2.930   9.957  0.1078 -1.1283  2.9238
  380MOL0     H51259   3.628   3.096   9.984 -1.0439 -0.4271 -1.8329
  380MOL0     H51260   3.366   2.998  10.033 -0.7301  2.4623  0.0969
  380MOL0     H51261   3.175   3.020  10.135 -0.4256 -0.6044  1.4331
  380MOL0     H51262   2.863   2.875  10.522 -2.3582  1.3523 -0.6670
  380MOL0     H51263   2.658   2.959  10.662  2.0903 -2.8420 -1.0638
  380MOL0     H51264   2.751   3.148  11.009  1.1820  2.8690 -0.1943
  380MOL0     H51265   2.679   3.311  10.962  0.0759  0.7491 -2.7076
  380MOL0     H51266   2.546   3.051  11.044 -2.8493  0.1373 -1.6296
  380MOL0     H51267   2.551   3.195  11.148  0.5445 -0.0719 -0.0988
  380MOL0     H51268   2.421   3.200  10.860 -1.2889 -1.3472  0.5833
  380MOL0     H51269   2.334   3.132  10.994  0.4109  0.0935 -0.6764
  380MOL0     H51270   2.477   3.409  11.012  0.1209  0.2784  3.6784
  380MOL0     H51271   2.334   3.358  11.112  1.1767 -1.6643  0.3500
  380MOL0     H51272   2.308   3.423  10.816 -1.1096  1.4960 -0.3148
  380MOL0     H51273   2.286   3.527  10.961  1.6363 -0.4908  0.2247
  380MOL0     H51274   2.149   3.270  10.874 -2.1095  0.1904  0.3348
  380MOL0     H51275   2.149   3.315  11.050  4.0386  0.2454  0.9394
  380MOL0     H51276   2.067   3.515  10.831 -1.6263  1.9348  1.4592
  380MOL0     H51277   2.007   3.510  10.996  0.4860 -0.8374  0.2424
  380MOL0     H51278   1.838   3.417  10.839  0.0730  0.3783 -1.0442
  380MOL0     H51279   1.960   3.299  10.791  1.0118 -0.3566  0.3700
  380MOL0     H51280   2.920   3.262  10.830 -0.8569  0.6589  0.1937
  380MOL0     H51281   3.112   3.160  10.697  0.7046 -1.3582  0.4847
  380MOL0     H51282   3.373   2.976  10.518  0.5730  1.7917  0.1787
  380MOL0     H51283   3.573   2.921  10.409 -1.6148  1.3048  2.6201
  380MOL0     H51284   5.094   2.972   8.980  0.4260  0.8203 -0.2107
  380MOL0     H51285   5.334   2.944   9.035  2.2972 -1.2560 -3.6562
  380MOL0     H51286   5.687   2.689   9.013  0.3431 -0.3049  0.6364
  380MOL0     H51287   5.940   2.685   9.031  0.0024 -1.8491  0.5246
  380MOL0     H51288   6.184   2.666   9.383 -1.9312 -1.1790  1.5648
  380MOL0     H51289   6.122   2.833   9.407  1.1185  0.5555 -0.9587
  380MOL0     H51290   6.367   2.836   9.387 -0.0823  0.8839 -0.1388
  380MOL0     H51291   6.286   2.921   9.250 -2.7260 -1.3434 -3.0314
  380MOL0     H51292   6.320   2.706   9.115  0.4775  1.0525 -1.6067
  380MOL0     H51293   6.418   2.638   9.244 -0.1972  0.5610 -0.2569
  380MOL0     H51294   6.574   2.774   9.084  0.2463  3.4988 -1.6758
  380MOL0     H51295   6.493   2.922   9.139 -1.5983 -0.1197 -0.8630
  380MOL0     H51296   6.744   2.909   9.457 -1.0267  1.4224  1.0355
  380MOL0     H51297   5.923   2.757   9.439  1.2061 -2.2820 -1.7047
  380MOL0     H51298   5.571   2.736   9.487 -1.3286  0.8667 -1.9025
  380MOL0     H51299   5.724   2.794   9.548  0.9592  0.4561  0.2547
  380MOL0     H51300   5.608   2.904   9.461 -2.1641 -1.6845 -1.4804
  381MOL0     O51301   5.512  10.518   0.193 -0.1986 -0.3220  0.3858
  381MOL0     C51302   5.468  10.409   0.218 -0.6492  0.7622 -0.4174
  381MOL0     O51303   5.546  10.292   0.221  0.4550 -0.2475 -0.8077
  381MOL0     C51304   5.671  10.297   0.168  0.4271 -0.3066 -0.0621
  381MOL0     C51305   5.694  10.364   0.047 -0.6269  0.0083 -0.6267
  381MOL0     C51306   5.816  10.351  -0.017 -0.3550  0.0297 -0.8111
  381MOL0     C51307   5.914  10.273   0.038 -0.5977 -0.9069  0.0071
  381MOL0     O51308   6.026  10.257  -0.040  0.3908  1.2436  0.2282
  381MOL0     C51309   6.135  10.175   0.002  0.6872 -0.1412  0.0695
  381MOL0     C51310   6.223  10.160  -0.123 -0.1997 -0.6869  0.8252
  381MOL0     C51311   6.341  10.066  -0.075  0.2578  0.0158  0.4113
  381MOL0     C51312   6.452  10.059  -0.182  0.1014 -0.1197 -0.3651
  381MOL0     C51313   6.576   9.974  -0.132 -0.3316  0.8732  0.4862
  381MOL0     C51314   6.690   9.968  -0.239 -0.1164 -0.2527 -0.7163
  381MOL0     C51315   6.822   9.919  -0.167 -0.0520 -1.1488 -0.3098
  381MOL0     C51316   6.921   9.881  -0.277 -0.5962  0.5581  0.3603
  381MOL0     N51317   6.985   9.994  -0.336  0.8472 -0.2902 -0.7283
  381MOL0     C51318   7.120  10.025  -0.329 -0.5988  0.2889 -0.2545
  381MOL0     C51319   7.135  10.134  -0.404 -0.4460  0.3861  0.5809
  381MOL0     C51320   7.254  10.228  -0.413  0.1789 -0.3016 -0.6077
  381MOL0     C51321   7.341  10.186  -0.530 -0.2423  0.8563 -0.8631
  381MOL0     C51322   7.419  10.057  -0.504  0.3767 -0.5689 -0.6055
  381MOL0     C51323   7.516  10.037  -0.619  0.8347 -0.3054 -0.5957
  381MOL0     O51324   7.553   9.895  -0.629  1.2461 -0.7569  0.2539
  381MOL0     C51325   7.678   9.860  -0.654  0.1118 -0.3712 -0.6311
  381MOL0     C51326   7.788   9.930  -0.594 -0.5102 -0.3390  0.1095
  381MOL0     C51327   7.919   9.892  -0.618 -0.1388  0.5198  0.6982
  381MOL0     C51328   7.947   9.778  -0.701 -0.2048  0.0216  0.1639
  381MOL0     C51329   8.087   9.726  -0.705  0.9479 -0.5089 -0.1208
  381MOL0     O51330   8.176   9.789  -0.621  0.2195 -0.1663  0.3017
  381MOL0     C51331   8.302   9.734  -0.598  0.3187  0.2557  0.8811
  381MOL0     C51332   8.309   9.621  -0.510  0.6648 -0.8256  0.3991
  381MOL0     C51333   8.428   9.557  -0.486 -0.1689  1.6316 -0.4653
  381MOL0     C51334   8.541   9.613  -0.542 -0.0479  0.2021  0.2818
  381MOL0     O51335   8.658   9.542  -0.521 -0.4854 -0.6645  0.1295
  381MOL0     C51336   8.777   9.620  -0.493 -0.5761  0.3355 -0.1928
  381MOL0     C51337   8.879   9.523  -0.448 -0.3897  0.2190 -0.2048
  381MOL0     C51338   9.008   9.586  -0.394 -0.0879 -0.6025 -0.6560
  381MOL0     C51339   9.131   9.494  -0.388 -0.0401 -0.2263 -0.2500
  381MOL0     C51340   9.248   9.569  -0.326  0.1039  0.3241 -0.4072
  381MOL0     C51341   9.225   9.610  -0.171 -0.3718 -0.8104 -0.1221
  381MOL0     C51342   9.334   9.718  -0.128  1.2176 -0.7611 -0.5309
  381MOL0     C51343   9.307   9.777   0.003 -0.2234  0.0131 -0.3463
  381MOL0    Cl51344   9.471   9.799   0.094 -0.0723 -0.1542  0.3814
  381MOL0     C51345   8.540   9.728  -0.619  0.6769 -0.3061 -0.3660
  381MOL0     C51346   8.422   9.796  -0.648  0.3390  0.4288  0.1154
  381MOL0     O51347   8.112   9.620  -0.768 -0.3241  0.0303  0.1578
  381MOL0     C51348   7.839   9.721  -0.769 -0.7505  0.3266 -0.8742
  381MOL0     C51349   7.707   9.763  -0.746 -0.5283  0.6696 -0.7585
  381MOL0     N51350   7.013  10.164  -0.467  0.1461  0.1961  0.3782
  381MOL0     N51351   6.928  10.074  -0.422 -0.6026  0.1975  0.3294
  381MOL0     C51352   5.901  10.224   0.166 -0.1102 -0.6894 -0.2733
  381MOL0     C51353   5.774  10.234   0.229  0.5669  0.0619 -0.2834
  381MOL0     C51354   5.336  10.385   0.281  0.2568 -0.1714  1.1475
  381MOL0     C51355   5.325  10.296   0.387  0.9372  0.0672 -0.9383
  381MOL0     C51356   5.191  10.260   0.425 -0.3769  0.7902 -0.1574
  381MOL0     C51357   5.078  10.310   0.363  0.1212 -0.1905 -0.2726
  381MOL0     O51358   4.945  10.280   0.395 -0.0777  0.0390 -0.7432
  381MOL0     C51359   4.922  10.251   0.526  0.3337  0.3571  0.7681
  381MOL0     C51360   4.808  10.346   0.560  0.6231  0.4927 -0.7439
  381MOL0     C51361   4.851  10.470   0.644 -0.3064  0.8999 -0.2739
  381MOL0     C51362   4.876  10.440   0.791 -0.0864 -0.3522 -0.4655
  381MOL0     C51363   4.757  10.388   0.852  0.4847  0.4956 -0.6507
  381MOL0     C51364   4.660  10.342   0.905  0.0234  0.0712  0.3960
  381MOL0     C51365   5.102  10.391   0.250 -0.6431 -0.2928  0.6392
  381MOL0     C51366   5.226  10.440   0.206  0.2599  0.0250 -0.3699
  381MOL0     C51367   5.233  10.534   0.098  0.8102  0.1892  0.0387
  381MOL0     H51368   5.619  10.426  -0.000 -0.6201  0.7994  0.3468
  381MOL0     H51369   5.838  10.394  -0.114 -0.1918 -0.1291 -0.8428
  381MOL0     H51370   6.187  10.199   0.096  2.1894  0.8505 -0.9749
  381MOL0     H51371   6.094  10.075   0.019 -0.0051 -0.5563 -3.4009
  381MOL0     H51372   6.262  10.252  -0.168 -3.0135 -0.2154 -0.9096
  381MOL0     H51373   6.168  10.114  -0.206  2.0081 -0.0628 -1.0724
  381MOL0     H51374   6.305   9.967  -0.047  3.1729 -0.8332  1.5828
  381MOL0     H51375   6.392  10.098   0.016  0.1439 -0.6487  0.7144
  381MOL0     H51376   6.416  10.005  -0.270  1.3853 -1.0349 -0.3558
  381MOL0     H51377   6.489  10.157  -0.213 -3.1078  0.6771 -2.1184
  381MOL0     H51378   6.616  10.023  -0.043  1.7385 -0.1278  0.1635
  381MOL0     H51379   6.544   9.872  -0.107  0.0959  0.8174  0.8191
  381MOL0     H51380   6.660   9.899  -0.319 -0.7391  0.1452 -0.8315
  381MOL0     H51381   6.705  10.066  -0.285 -0.1602  0.0581 -0.0845
  381MOL0     H51382   6.794   9.838  -0.098 -1.1883 -1.9744 -1.7013
  381MOL0     H51383   6.858   9.992  -0.093 -2.5551 -0.2003  0.0813
  381MOL0     H51384   7.000   9.827  -0.224  0.8434  0.5756 -1.6722
  381MOL0     H51385   6.862   9.813  -0.339 -1.1010  1.0348  0.3151
  381MOL0     H51386   7.195   9.981  -0.263 -0.6996 -1.2031 -1.0918
  381MOL0     H51387   7.240  10.331  -0.446  0.0792  0.3927  1.4545
  381MOL0     H51388   7.299  10.234  -0.313 -0.5944 -2.2900 -0.0911
  381MOL0     H51389   7.280  10.171  -0.620 -0.8457  0.1108 -0.3378
  381MOL0     H51390   7.409  10.269  -0.552  0.6956 -0.0761 -1.6206
  381MOL0     H51391   7.352   9.971  -0.497  2.6631 -2.4725 -1.1693
  381MOL0     H51392   7.478  10.055  -0.412 -2.5291 -3.3765  1.4385
  381MOL0     H51393   7.601  10.104  -0.607 -0.1297  1.6801 -3.6170
  381MOL0     H51394   7.471  10.080  -0.709  0.3012  1.8361  0.6192
  381MOL0     H51395   7.770  10.017  -0.531 -1.3579 -0.8967  0.6542
  381MOL0     H51396   7.994   9.951  -0.565 -0.4909 -1.3936  3.5104
  381MOL0     H51397   8.216   9.593  -0.461 -1.0291  0.4148 -1.9431
  381MOL0     H51398   8.419   9.472  -0.418 -0.1216  1.1863 -1.0105
  381MOL0     H51399   8.810   9.670  -0.585  0.5763  0.0600  0.0507
  381MOL0     H51400   8.751   9.705  -0.430 -0.4843 -0.7188  1.3225
  381MOL0     H51401   8.841   9.450  -0.376  2.1769 -0.5123  0.5251
  381MOL0     H51402   8.914   9.463  -0.532  2.8187  3.3115 -1.2941
  381MOL0     H51403   9.041   9.672  -0.453  2.5156 -1.1422 -0.1033
  381MOL0     H51404   8.973   9.616  -0.294  0.7103 -3.0009  0.3994
  381MOL0     H51405   9.159   9.467  -0.490 -0.6470 -2.0437  0.0327
  381MOL0     H51406   9.122   9.398  -0.336 -1.4387 -0.8524 -1.5657
  381MOL0     H51407   9.268   9.655  -0.391  1.8844 -0.4971 -1.0102
  381MOL0     H51408   9.336   9.505  -0.340  0.2514  0.7791 -1.6910
  381MOL0     H51409   9.128   9.652  -0.141  0.1546 -1.1887  2.2957
  381MOL0     H51410   9.225   9.521  -0.108 -2.5871 -1.9128 -1.5619
  381MOL0     H51411   9.359   9.801  -0.193 -2.3010  0.7359 -0.1929
  381MOL0     H51412   9.435   9.677  -0.121  2.6217  2.5730  0.4817
  381MOL0     H51413   9.252   9.872  -0.006 -0.9735 -0.5138 -1.4612
  381MOL0     H51414   9.236   9.715   0.059 -1.2307  0.8815 -0.6221
  381MOL0     H51415   8.629   9.775  -0.661 -0.1625 -0.5145 -2.4876
  381MOL0     H51416   8.411   9.883  -0.712  2.4520  1.3197  0.8795
  381MOL0     H51417   7.857   9.645  -0.845  2.4242 -0.8665  0.8802
  381MOL0     H51418   7.623   9.713  -0.792  0.7994 -1.7005 -0.7309
  381MOL0     H51419   5.979  10.175   0.225 -0.7888  0.8966  2.0842
  381MOL0     H51420   5.745  10.192   0.325  0.0264  0.8240 -0.1033
  381MOL0     H51421   5.402  10.249   0.448 -2.2625  0.8567  4.3735
  381MOL0     H51422   5.190  10.183   0.502  2.7939 -0.3979 -1.1467
  381MOL0     H51423   5.009  10.277   0.588  1.4468  2.6782 -1.5848
  381MOL0     H51424   4.893  10.146   0.527 -2.5409  1.0725  1.2799
  381MOL0     H51425   4.736  10.287   0.617  0.4645  0.2498 -1.1913
  381MOL0     H51426   4.750  10.380   0.474  0.1612  0.7028 -0.3573
  381MOL0     H51427   4.785  10.554   0.624 -0.4665  0.1402 -3.5285
  381MOL0     H51428   4.939  10.507   0.591 -0.3120 -0.3388 -1.2017
  381MOL0     H51429   4.954  10.363   0.793  1.6003  1.2612 -0.9136
  381MOL0     H51430   4.925  10.521   0.845  2.7603 -2.4537  0.3994
  381MOL0     H51431   4.569  10.320   0.956 -1.6432 -1.9520 -3.0687
  381MOL0     H51432   5.014  10.426   0.196 -0.5859  1.4614  1.6036
  381MOL0     H51433   5.314  10.499   0.034  0.3018 -1.2144  0.1229
  381MOL0     H51434   5.135  10.532   0.048  0.8013 -0.4606  0.0733
  381MOL0     H51435   5.251  10.639   0.123  1.8856 -0.0229  0.1797
  382MOL0     O51436   4.947   0.774   2.138 -0.0850 -0.6649  0.0123
  382MOL0     C51437   4.883   0.726   2.047 -0.3085  0.1894 -0.2543
  382MOL0     O51438   4.924   0.622   1.971 -0.5303 -0.6006 -0.7040
  382MOL0     C51439   5.053   0.573   1.969 -0.1675  0.1033 -0.9990
  382MOL0     C51440   5.128   0.601   1.858  1.2520  0.4424  0.1719
  382MOL0     C51441   5.259   0.572   1.855  0.4279  0.0492  0.2755
  382MOL0     C51442   5.329   0.503   1.955  0.0370  0.2606 -0.5112
  382MOL0     O51443   5.459   0.475   1.928  0.0825 -0.1756 -0.4215
  382MOL0     C51444   5.546   0.467   2.050  0.0621  0.1883 -0.0748
  382MOL0     C51445   5.675   0.412   1.995 -0.4275  0.3141 -0.4355
  382MOL0     C51446   5.804   0.408   2.084 -0.2709  0.7037  0.5766
  382MOL0     C51447   5.904   0.332   2.012 -0.9591 -0.2156  0.0419
  382MOL0     C51448   6.022   0.308   2.112  0.0692  0.0804 -1.4173
  382MOL0     C51449   6.103   0.186   2.054  0.3668  0.3463  0.0710
  382MOL0     C51450   6.242   0.202   2.117 -0.1140  0.2707 -0.1538
  382MOL0     C51451   6.348   0.261   2.025 -0.3805  0.0752  0.6032
  382MOL0     N51452   6.487   0.197   2.043  1.0017 -0.4461 -0.6718
  382MOL0     C51453   6.555   0.198   2.165 -0.5525  0.2256  0.4441
  382MOL0     C51454   6.633   0.087   2.157 -0.2422 -1.0311  0.6613
  382MOL0     C51455   6.717   0.052   2.276 -0.1989  0.5093  0.3952
  382MOL0     C51456   6.871   0.054   2.244 -0.2017  1.3329  1.0483
  382MOL0     C51457   6.941  -0.048   2.330 -0.5045  0.3271  0.0529
  382MOL0     C51458   7.082  -0.046   2.293  0.9971  0.2608  0.6455
  382MOL0     O51459   7.141   0.082   2.326  0.1534  0.0640  0.1679
  382MOL0     C51460   7.278   0.078   2.346  0.1204  0.0434  0.1007
  382MOL0     C51461   7.356  -0.016   2.273  0.0101  0.4454  0.0554
  382MOL0     C51462   7.496  -0.017   2.287 -0.5439  0.1691  0.6321
  382MOL0     C51463   7.561   0.078   2.367  0.6593  0.5838 -0.0454
  382MOL0     C51464   7.710   0.085   2.379 -0.0639  0.4490 -0.1319
  382MOL0     O51465   7.787  -0.004   2.305 -0.0860 -0.6070 -0.1379
  382MOL0     C51466   7.917  -0.005   2.275  1.1387  0.5548  1.5466
  382MOL0     C51467   7.963  -0.128   2.225 -0.0304  0.3027 -0.6069
  382MOL0     C51468   8.095  -0.148   2.205 -0.0884  0.6387  0.4207
  382MOL0     C51469   8.191  -0.051   2.212  0.2712  0.5709  0.0188
  382MOL0     O51470   8.321  -0.067   2.175 -0.4447  0.1382  0.1522
  382MOL0     C51471   8.363  -0.180   2.103  0.2684 -0.1885 -0.7394
  382MOL0     C51472   8.506  -0.181   2.053  0.2733 -0.3255 -0.2570
  382MOL0     C51473   8.530  -0.299   1.965 -0.8696 -0.4851  0.3518
  382MOL0     C51474   8.684  -0.323   1.954  0.8503 -0.6484  0.0939
  382MOL0     C51475   8.774  -0.212   1.884 -0.0165 -0.5788  0.2550
  382MOL0     C51476   8.713  -0.184   1.741  0.0174  0.6275  0.1232
  382MOL0     C51477   8.812  -0.104   1.661 -0.2989 -0.5214  1.0265
  382MOL0     C51478   8.822   0.035   1.725 -0.4227  0.4785  0.4175
  382MOL0    Cl51479   8.884   0.152   1.600 -0.1550 -0.0315 -0.3257
  382MOL0     C51480   8.139   0.075   2.237 -0.3021 -0.7341  0.2855
  382MOL0     C51481   8.010   0.101   2.282 -0.0281 -1.0723 -0.9200
  382MOL0     O51482   7.751   0.176   2.456 -0.0308 -0.5224  0.2522
  382MOL0     C51483   7.480   0.167   2.431 -0.6039 -0.2025 -0.5593
  382MOL0     C51484   7.341   0.169   2.419  0.3694 -0.4632 -0.4557
  382MOL0     N51485   6.620   0.021   2.035  0.1385  0.0956 -1.1699
  382MOL0     N51486   6.534   0.086   1.970 -0.0743 -0.7339 -0.1324
  382MOL0     C51487   5.252   0.462   2.060  0.3938 -0.2791 -0.1069
  382MOL0     C51488   5.114   0.492   2.067 -0.8199 -0.3605  0.0857
  382MOL0     C51489   4.743   0.781   2.026  0.2410 -0.2437 -0.0808
  382MOL0     C51490   4.656   0.713   1.952  0.8883 -0.1072  0.2609
  382MOL0     C51491   4.530   0.759   1.919  1.1558 -0.3806  0.2295
  382MOL0     C51492   4.492   0.886   1.952 -0.6193 -0.1694  0.0068
  382MOL0     O51493   4.363   0.912   1.913  0.3746  0.1734  0.0929
  382MOL0     C51494   4.310   1.046   1.934 -0.0946  0.6741 -0.2600
  382MOL0     C51495   4.185   1.078   1.853 -0.3138  0.4424 -0.5699
  382MOL0     C51496   4.165   1.229   1.852  0.3259  0.0187 -0.2368
  382MOL0     C51497   4.028   1.266   1.781 -0.1387  0.1947 -0.3284
  382MOL0     C51498   3.916   1.210   1.856  0.4540 -0.3651 -0.1269
  382MOL0     C51499   3.825   1.156   1.916 -0.2476 -0.1101  0.4124
  382MOL0     C51500   4.576   0.965   2.031 -0.1712  0.3111  0.1012
  382MOL0     C51501   4.697   0.915   2.069 -0.6740  0.4566 -0.6841
  382MOL0     C51502   4.789   1.006   2.157  0.3891  0.2414  0.4787
  382MOL0     H51503   5.078   0.654   1.777  2.0272  1.1734  0.1620
  382MOL0     H51504   5.311   0.608   1.767  0.5198  2.1723  1.1314
  382MOL0     H51505   5.555   0.568   2.090 -2.2360  0.4903 -0.1395
  382MOL0     H51506   5.512   0.395   2.126  1.5429 -0.1564  0.2959
  382MOL0     H51507   5.703   0.478   1.912  0.5810  3.8746  2.4609
  382MOL0     H51508   5.648   0.313   1.959 -0.8174  1.2127 -2.8102
  382MOL0     H51509   5.778   0.353   2.175  1.3163  0.3730  0.8432
  382MOL0     H51510   5.839   0.508   2.111  0.0322  0.6727  0.3001
  382MOL0     H51511   5.861   0.240   1.971  0.0668 -1.1843  1.0340
  382MOL0     H51512   5.954   0.385   1.930 -0.7447 -0.8039 -0.2156
  382MOL0     H51513   6.084   0.398   2.107  0.6205 -0.2407 -0.6310
  382MOL0     H51514   6.001   0.278   2.215  2.2320  0.6569 -0.7495
  382MOL0     H51515   6.061   0.092   2.091 -0.7494 -0.5366 -3.0430
  382MOL0     H51516   6.104   0.180   1.944  3.1581  1.7340 -0.0608
  382MOL0     H51517   6.273   0.101   2.147 -1.4887 -0.4681 -1.0904
  382MOL0     H51518   6.252   0.262   2.208  0.2563  1.2257 -0.8100
  382MOL0     H51519   6.321   0.267   1.919 -0.0556 -1.0001  0.4440
  382MOL0     H51520   6.353   0.368   2.049  1.1140 -0.0170  0.8481
  382MOL0     H51521   6.545   0.258   2.254 -0.0476 -0.8418  1.2394
  382MOL0     H51522   6.698   0.115   2.363 -1.4028 -2.4616  2.4445
  382MOL0     H51523   6.691  -0.049   2.309 -3.3354  0.9180 -0.4876
  382MOL0     H51524   6.879   0.039   2.136  0.3134  1.6295  1.0439
  382MOL0     H51525   6.908   0.154   2.266  2.2190  1.1389 -1.5661
  382MOL0     H51526   6.894  -0.145   2.316 -0.0652  0.2805 -1.3076
  382MOL0     H51527   6.929  -0.006   2.430  0.1916  2.6079 -0.7568
  382MOL0     H51528   7.089  -0.072   2.187  2.0361  0.0473  0.7521
  382MOL0     H51529   7.128  -0.132   2.342 -0.6527  0.4411  2.6121
  382MOL0     H51530   7.304  -0.075   2.198 -0.1787 -1.0793  1.3396
  382MOL0     H51531   7.552  -0.090   2.228 -1.8885 -0.2127 -0.2214
  382MOL0     H51532   7.885  -0.203   2.214 -0.3325 -0.1255  3.0520
  382MOL0     H51533   8.121  -0.252   2.187 -0.0821  0.5158  1.1466
  382MOL0     H51534   8.347  -0.262   2.173 -0.5104  0.9277  0.4262
  382MOL0     H51535   8.291  -0.197   2.023 -0.8960  0.7905  0.0707
  382MOL0     H51536   8.525  -0.085   2.005  0.0643 -0.4458 -0.5878
  382MOL0     H51537   8.559  -0.193   2.148 -3.5623 -2.8381  1.8389
  382MOL0     H51538   8.484  -0.388   2.008  0.2026 -0.9318  0.5959
  382MOL0     H51539   8.490  -0.283   1.864  2.0871  2.1753 -0.5699
  382MOL0     H51540   8.702  -0.415   1.897  0.3177 -0.3753 -0.5375
  382MOL0     H51541   8.736  -0.335   2.049  1.9520 -0.3433 -0.4497
  382MOL0     H51542   8.881  -0.233   1.879  0.6817  2.0996  2.2378
  382MOL0     H51543   8.763  -0.117   1.936 -0.9800 -1.0882  1.0415
  382MOL0     H51544   8.692  -0.285   1.706 -0.0446 -0.7480  3.6727
  382MOL0     H51545   8.614  -0.138   1.752 -1.6594 -2.5286 -0.8144
  382MOL0     H51546   8.774  -0.085   1.561  1.0278  0.9103  0.7626
  382MOL0     H51547   8.915  -0.140   1.657  0.1131  0.5186  1.8203
  382MOL0     H51548   8.726   0.064   1.768 -0.1785  3.6860 -0.8638
  382MOL0     H51549   8.899   0.029   1.802  0.0857  0.2268 -0.1032
  382MOL0     H51550   8.199   0.166   2.230 -1.1004 -0.3506 -3.1865
  382MOL0     H51551   7.993   0.198   2.330  1.2625 -1.7708  1.0599
  382MOL0     H51552   7.515   0.242   2.502 -1.7230 -1.6097  1.6169
  382MOL0     H51553   7.275   0.237   2.472  0.2558 -0.0384 -1.1314
  382MOL0     H51554   5.288   0.385   2.127 -0.3345  0.0929  0.7266
  382MOL0     H51555   5.068   0.482   2.165  4.1712 -0.6265  2.7334
  382MOL0     H51556   4.679   0.611   1.923  1.1506  0.4463 -1.5756
  382MOL0     H51557   4.471   0.699   1.851  2.8681 -0.5150 -1.2050
  382MOL0     H51558   4.389   1.119   1.911  1.6877  0.0620  3.2382
  382MOL0     H51559   4.282   1.063   2.038  1.1508 -0.4478  0.2883
  382MOL0     H51560   4.102   1.026   1.902  0.9055 -0.1342  0.9597
  382MOL0     H51561   4.185   1.046   1.749 -4.4439 -2.9441  0.1738
  382MOL0     H51562   4.240   1.280   1.791 -0.9820  2.4108  0.0262
  382MOL0     H51563   4.174   1.270   1.953 -0.4290  1.8239 -0.8689
  382MOL0     H51564   4.005   1.373   1.780 -0.4744  0.1516  0.7973
  382MOL0     H51565   4.024   1.254   1.673  1.3902  3.1269 -0.8212
  382MOL0     H51566   3.753   1.106   1.977 -2.4103  0.6653 -1.4015
  382MOL0     H51567   4.542   1.060   2.070  2.1669  1.2503 -0.0135
  382MOL0     H51568   4.816   0.962   2.254 -0.7198  1.2078  1.2536
  382MOL0     H51569   4.881   1.024   2.101 -0.8174  1.2739 -1.2480
  382MOL0     H51570   4.748   1.106   2.172  1.4250  0.9727 -1.3612
  383MOL0     O51571   5.942   2.058   0.859 -0.2428 -0.4345 -0.0492
  383MOL0     C51572   5.884   2.162   0.893 -0.7689  0.2006  0.1351
  383MOL0     O51573   5.960   2.275   0.925  0.2363 -0.5256  0.0036
  383MOL0     C51574   6.094   2.279   0.887  0.2143 -0.1472  0.0006
  383MOL0     C51575   6.197   2.266   0.979  0.3278  0.1565 -0.2157
  383MOL0     C51576   6.329   2.284   0.929 -0.0528 -0.2507  0.8518
  383MOL0     C51577   6.358   2.288   0.788  0.4406 -0.8269  0.2840
  383MOL0     O51578   6.482   2.302   0.736  0.5659  0.5063  0.6439
  383MOL0     C51579   6.580   2.233   0.809 -0.8955  0.2508  0.8892
  383MOL0     C51580   6.697   2.186   0.724 -0.5128 -1.2884  0.1171
  383MOL0     C51581   6.817   2.288   0.733  0.0204  0.1652  0.2663
  383MOL0     C51582   6.945   2.240   0.663 -0.6353 -0.5299 -0.4976
  383MOL0     C51583   7.066   2.340   0.664  0.3188  0.6708 -0.7660
  383MOL0     C51584   7.102   2.400   0.809 -0.2089  0.1452 -0.1694
  383MOL0     C51585   7.244   2.461   0.805  0.6659  0.3088 -0.4376
  383MOL0     C51586   7.285   2.512   0.940  0.8029 -0.0264  0.5040
  383MOL0     N51587   7.415   2.577   0.948 -0.1296  0.1903 -0.7404
  383MOL0     C51588   7.430   2.710   0.914 -0.4447 -0.4014  0.2736
  383MOL0     C51589   7.551   2.745   0.960  0.3910  0.4344 -0.2674
  383MOL0     C51590   7.623   2.872   0.932 -1.0568 -0.1310 -0.3252
  383MOL0     C51591   7.781   2.850   0.940  0.2689 -1.1654 -0.1701
  383MOL0     C51592   7.848   2.984   0.936 -0.2277  0.5409 -1.0190
  383MOL0     C51593   7.998   2.974   0.892  0.0483 -1.3213 -0.7722
  383MOL0     O51594   8.090   2.968   1.001 -0.7771  0.7306  0.7474
  383MOL0     C51595   8.169   2.850   1.022  0.6548 -0.4633 -0.3834
  383MOL0     C51596   8.253   2.856   1.135 -0.2441 -0.0486  0.1886
  383MOL0     C51597   8.341   2.754   1.165  0.2306 -0.2509  0.3386
  383MOL0     C51598   8.329   2.632   1.097 -1.2282  0.2246  0.4189
  383MOL0     C51599   8.407   2.510   1.133 -0.9171  0.4034 -0.1582
  383MOL0     O51600   8.435   2.425   1.036  0.2244 -0.7469  0.1455
  383MOL0     C51601   8.536   2.336   1.050 -0.5724  0.2456 -1.2536
  383MOL0     C51602   8.562   2.251   1.163 -0.0802 -0.1391 -0.4926
  383MOL0     C51603   8.657   2.147   1.153 -0.3723  0.6619  0.6870
  383MOL0     C51604   8.741   2.135   1.039  0.6004 -0.8215  0.3261
  383MOL0     O51605   8.828   2.037   1.015  0.0292  0.0531 -0.2178
  383MOL0     C51606   8.839   1.935   1.109 -0.1558  0.2357 -0.0678
  383MOL0     C51607   8.942   1.827   1.074  0.4718  0.6548 -0.3867
  383MOL0     C51608   9.081   1.879   1.038  1.1838  0.6014 -1.0731
  383MOL0     C51609   9.198   1.784   1.064  0.7507 -0.1765  0.0431
  383MOL0     C51610   9.325   1.851   1.011  1.0140 -0.3496 -1.1586
  383MOL0     C51611   9.446   1.751   1.019  0.7967  0.2242  0.5935
  383MOL0     C51612   9.575   1.800   0.960 -0.0391  0.0346  0.0474
  383MOL0     C51613   9.646   1.920   1.032 -0.4013 -0.0508  0.7244
  383MOL0    Cl51614   9.719   1.877   1.187 -0.0981  0.1865  0.1992
  383MOL0     C51615   8.713   2.221   0.930 -0.0903 -0.6159  0.1878
  383MOL0     C51616   8.618   2.322   0.941  0.4722 -0.1740  0.2525
  383MOL0     O51617   8.461   2.498   1.246 -0.4394  0.8773 -0.7977
  383MOL0     C51618   8.246   2.625   0.985 -0.7295  0.1140 -0.4013
  383MOL0     C51619   8.166   2.729   0.944  0.7376 -0.5215  0.0686
  383MOL0     N51620   7.607   2.623   1.024 -0.5076 -0.9876 -0.3391
  383MOL0     N51621   7.522   2.537   1.025  0.6008  0.8264 -0.0410
  383MOL0     C51622   6.253   2.296   0.706  0.5740 -0.4780  0.1549
  383MOL0     C51623   6.120   2.291   0.746  0.4753  0.7241  0.7880
  383MOL0     C51624   5.741   2.181   0.881  0.5588  0.6628 -0.8334
  383MOL0     C51625   5.682   2.302   0.865  0.7970 -0.6638 -0.1734
  383MOL0     C51626   5.540   2.328   0.881 -0.3169 -0.3663  1.0126
  383MOL0     C51627   5.457   2.216   0.893  0.0015 -0.0644 -0.6641
  383MOL0     O51628   5.328   2.230   0.934  0.5634 -0.2724 -0.2307
  383MOL0     C51629   5.229   2.127   0.955 -0.0417  0.1188  0.3484
  383MOL0     C51630   5.165   2.111   0.817  0.8492  0.8809 -0.2922
  383MOL0     C51631   5.047   2.201   0.783 -0.2809  0.1049 -0.6529
  383MOL0     C51632   5.097   2.349   0.764  0.2687 -0.2331  0.4716
  383MOL0     C51633   4.980   2.436   0.741 -0.3466 -0.7000 -0.4752
  383MOL0     C51634   4.883   2.513   0.767  0.3533  0.8575 -0.2291
  383MOL0     C51635   5.518   2.090   0.902 -0.3729  0.7554 -1.0691
  383MOL0     C51636   5.657   2.066   0.888 -1.0365 -0.0721  0.3733
  383MOL0     C51637   5.697   1.923   0.905 -0.4277 -0.4130  0.2223
  383MOL0     H51638   6.173   2.253   1.084  0.2411  3.0520  0.2088
  383MOL0     H51639   6.402   2.287   1.009  2.8060 -1.5920 -1.5359
  383MOL0     H51640   6.623   2.299   0.885  0.5438  1.7123 -1.0741
  383MOL0     H51641   6.538   2.152   0.869  2.0878 -1.6130  0.7108
  383MOL0     H51642   6.666   2.173   0.620  0.6096  0.9477 -0.5532
  383MOL0     H51643   6.730   2.087   0.758 -0.9843 -3.6419 -5.2148
  383MOL0     H51644   6.841   2.313   0.837  1.8875 -1.4451  0.2769
  383MOL0     H51645   6.773   2.373   0.680 -1.2004 -1.2844 -1.1387
  383MOL0     H51646   6.973   2.150   0.718 -3.1441  0.1377  2.1237
  383MOL0     H51647   6.918   2.220   0.558 -4.9163  1.0085  0.0945
  383MOL0     H51648   7.152   2.293   0.617 -1.2136  0.6477 -3.8560
  383MOL0     H51649   7.042   2.422   0.596  0.1064  1.2266 -0.0394
  383MOL0     H51650   7.033   2.480   0.836  0.6415  1.0550 -0.6127
  383MOL0     H51651   7.090   2.319   0.882 -0.0117  0.3902  0.1376
  383MOL0     H51652   7.236   2.539   0.727 -2.6468  3.1103  2.3627
  383MOL0     H51653   7.322   2.387   0.785 -0.9656 -1.3683 -0.7798
  383MOL0     H51654   7.197   2.564   0.979  0.5111 -1.4963  1.8800
  383MOL0     H51655   7.280   2.428   1.010 -2.8593 -0.0980  0.3624
  383MOL0     H51656   7.364   2.772   0.854  0.0206  1.0538  1.2214
  383MOL0     H51657   7.595   2.923   0.840  0.8085  1.4742 -0.0739
  383MOL0     H51658   7.595   2.946   1.007  2.4702  1.4429 -0.3685
  383MOL0     H51659   7.816   2.800   1.030 -0.7869  0.8720  1.4664
  383MOL0     H51660   7.811   2.798   0.848 -1.2464  0.7588 -1.8692
  383MOL0     H51661   7.844   3.034   1.034 -2.6172 -0.0808 -0.7313
  383MOL0     H51662   7.793   3.053   0.872 -0.3985  3.3897  1.9009
  383MOL0     H51663   8.026   3.074   0.859 -0.1500  0.3339  3.3655
  383MOL0     H51664   8.016   2.906   0.809  0.9278  0.0376 -1.7415
  383MOL0     H51665   8.266   2.939   1.203  2.5425 -1.0107  0.9778
  383MOL0     H51666   8.415   2.763   1.244 -0.6253 -0.9701  1.2642
  383MOL0     H51667   8.509   2.258   1.258  2.5654  0.7358  1.0160
  383MOL0     H51668   8.669   2.074   1.232  1.6676  2.0518  1.7293
  383MOL0     H51669   8.874   1.985   1.199  0.0518 -0.5985  0.3305
  383MOL0     H51670   8.741   1.894   1.132 -1.8914  4.2160  0.4272
  383MOL0     H51671   8.943   1.749   1.151  0.3959 -0.5721 -1.5816
  383MOL0     H51672   8.901   1.776   0.986 -1.1027 -0.9838  1.2127
  383MOL0     H51673   9.079   1.900   0.931  1.1764 -1.8972 -1.6150
  383MOL0     H51674   9.109   1.966   1.099  0.6028 -0.0578  0.1744
  383MOL0     H51675   9.189   1.696   0.999 -0.8359  1.6417 -2.3911
  383MOL0     H51676   9.203   1.759   1.170 -0.5095  0.5795  0.2953
  383MOL0     H51677   9.356   1.938   1.070  0.4680 -0.4347 -0.7397
  383MOL0     H51678   9.310   1.889   0.909 -1.1673  1.1641 -0.3429
  383MOL0     H51679   9.458   1.714   1.121 -2.6232 -1.5355  0.5076
  383MOL0     H51680   9.415   1.660   0.966 -0.0137 -0.7200  2.5990
  383MOL0     H51681   9.540   1.840   0.865  1.8656  0.3760 -0.5501
  383MOL0     H51682   9.636   1.709   0.950 -0.2137 -0.3499  2.0688
  383MOL0     H51683   9.736   1.945   0.974  0.4209 -1.5758  1.2768
  383MOL0     H51684   9.579   2.003   1.051 -1.3535 -1.0306  1.8111
  383MOL0     H51685   8.777   2.205   0.844  0.0149  0.2729  0.0867
  383MOL0     H51686   8.604   2.404   0.871  1.5318 -0.9833 -0.9342
  383MOL0     H51687   8.240   2.538   0.920  2.0856  0.2522 -1.0040
  383MOL0     H51688   8.100   2.726   0.858  2.0076  1.8092 -1.0690
  383MOL0     H51689   6.288   2.302   0.603 -1.1137  2.3923 -0.3667
  383MOL0     H51690   6.040   2.297   0.674  0.8448 -0.6522  0.2376
  383MOL0     H51691   5.752   2.379   0.834  0.5886 -0.5214 -0.2893
  383MOL0     H51692   5.498   2.428   0.881  2.5328  0.9445 -0.9097
  383MOL0     H51693   5.149   2.143   1.028 -1.4903 -2.1903 -0.6181
  383MOL0     H51694   5.273   2.027   0.969  0.1186  0.3651  1.7423
  383MOL0     H51695   5.131   2.007   0.816  1.2698  0.7326 -1.9454
  383MOL0     H51696   5.235   2.128   0.735 -0.4269  0.2816 -1.5413
  383MOL0     H51697   4.975   2.199   0.866  0.3158  0.8903 -0.0920
  383MOL0     H51698   5.001   2.164   0.691  2.1048 -2.0774 -1.0936
  383MOL0     H51699   5.143   2.393   0.852 -1.5436  1.6556  0.5661
  383MOL0     H51700   5.170   2.345   0.683 -0.1855 -0.4840  0.0670
  383MOL0     H51701   4.799   2.578   0.775 -0.4620 -0.2132  0.1524
  383MOL0     H51702   5.456   2.001   0.913  2.2379 -1.5874 -3.6682
  383MOL0     H51703   5.606   1.863   0.915 -0.6970 -0.1083 -0.4084
  383MOL0     H51704   5.753   1.890   0.818 -0.8015 -1.9624  0.5399
  383MOL0     H51705   5.764   1.917   0.992  1.0097  1.5315 -0.6890
  384MOL0     O51706   0.038   9.182   9.037 -0.3737 -0.2858 -0.4000
  384MOL0     C51707   0.060   9.076   9.083 -0.4610  0.4719 -0.3368
  384MOL0     O51708  -0.008   8.959   9.060 -0.4829 -0.1898  0.0479
  384MOL0     C51709  -0.121   8.986   8.990  0.9238 -0.6328  0.2251
  384MOL0     C51710  -0.120   8.981   8.854  0.3125  1.4652  0.0545
  384MOL0     C51711  -0.249   8.969   8.785  0.6615  0.0876  0.1738
  384MOL0     C51712  -0.375   8.983   8.859  0.2644 -0.1313  0.3240
  384MOL0     O51713  -0.501   9.001   8.805 -0.3402  0.0543  0.3746
  384MOL0     C51714  -0.511   8.941   8.675 -0.0810 -0.0383  0.5244
  384MOL0     C51715  -0.656   8.943   8.630 -0.1237 -0.2546  0.6910
  384MOL0     C51716  -0.739   8.846   8.707  0.6356 -0.0701  0.5093
  384MOL0     C51717  -0.890   8.869   8.660  1.0752  0.6730  0.1333
  384MOL0     C51718  -0.984   8.762   8.703  0.4880 -1.1334 -0.5546
  384MOL0     C51719  -1.130   8.799   8.658  0.3590  0.2360 -0.2426
  384MOL0     C51720  -1.235   8.742   8.757  0.0493 -1.2249  0.3249
  384MOL0     C51721  -1.211   8.593   8.786  0.3123 -0.9656  0.4323
  384MOL0     N51722  -1.204   8.510   8.659  0.3771 -0.2903  0.2112
  384MOL0     C51723  -1.277   8.536   8.547 -0.2154  0.8071 -0.0022
  384MOL0     C51724  -1.261   8.422   8.471 -0.4473  0.3205 -0.9493
  384MOL0     C51725  -1.317   8.401   8.332 -0.1255 -0.4112  0.3073
  384MOL0     C51726  -1.467   8.377   8.338 -0.7787  0.3548 -0.0777
  384MOL0     C51727  -1.512   8.303   8.219  0.4742  0.0350 -0.1529
  384MOL0     C51728  -1.526   8.153   8.247 -0.1468 -0.4583  0.4243
  384MOL0     O51729  -1.403   8.093   8.223 -0.0577  0.8359  0.4918
  384MOL0     C51730  -1.389   7.969   8.275  0.1652  0.1822  0.1731
  384MOL0     C51731  -1.438   7.858   8.204  0.9066  0.3379 -1.2215
  384MOL0     C51732  -1.412   7.725   8.238 -0.1626  0.3434 -0.1684
  384MOL0     C51733  -1.347   7.699   8.356  0.1809 -0.4073 -0.6881
  384MOL0     C51734  -1.295   7.572   8.388 -0.4168  0.0665 -1.5348
  384MOL0     O51735  -1.292   7.473   8.286 -0.5320 -0.4619  0.0165
  384MOL0     C51736  -1.207   7.371   8.298  0.0917  0.2446 -0.6878
  384MOL0     C51737  -1.083   7.369   8.242  0.0311 -0.2080 -0.4158
  384MOL0     C51738  -0.987   7.268   8.266 -0.1293 -1.0770 -0.8830
  384MOL0     C51739  -1.013   7.158   8.355 -0.0208  0.9934  0.3015
  384MOL0     O51740  -0.910   7.071   8.393 -0.0195 -0.2514  1.0453
  384MOL0     C51741  -0.852   6.996   8.286  0.0178 -0.3086  0.6434
  384MOL0     C51742  -0.777   6.875   8.334  0.7198 -0.0994  1.0011
  384MOL0     C51743  -0.647   6.917   8.406 -0.0482  0.7315 -0.8991
  384MOL0     C51744  -0.574   6.788   8.430 -0.6894 -0.4495  0.4131
  384MOL0     C51745  -0.432   6.808   8.490 -0.4656  0.3341  0.0863
  384MOL0     C51746  -0.326   6.861   8.388 -0.2919  0.5862  1.0333
  384MOL0     C51747  -0.192   6.903   8.456  0.4140  0.0032 -0.6004
  384MOL0     C51748  -0.112   6.997   8.363  0.2383 -1.1639  0.5404
  384MOL0    Cl51749  -0.210   7.140   8.314  0.0927 -0.1087  0.3048
  384MOL0     C51750  -1.146   7.159   8.416 -0.6884 -0.1666 -0.4264
  384MOL0     C51751  -1.237   7.257   8.375  0.2185  0.6156  0.2098
  384MOL0     O51752  -1.234   7.562   8.497  0.3320  0.0581 -0.7878
  384MOL0     C51753  -1.304   7.808   8.434 -0.6254  0.5848 -0.6056
  384MOL0     C51754  -1.314   7.942   8.393 -0.7126  0.7679  0.7911
  384MOL0     N51755  -1.173   8.337   8.535  0.2050  0.1074  0.7428
  384MOL0     N51756  -1.141   8.391   8.653  0.3326 -0.5696  0.3866
  384MOL0     C51757  -0.371   8.991   9.002  0.3224 -0.3241  0.2662
  384MOL0     C51758  -0.244   8.979   9.059 -0.2012  0.1112 -0.6163
  384MOL0     C51759   0.179   9.062   9.178  0.2223 -0.5473 -0.2300
  384MOL0     C51760   0.216   8.927   9.215 -0.6090 -0.9660  1.3866
  384MOL0     C51761   0.311   8.904   9.321 -0.6897 -0.6000  0.6314
  384MOL0     C51762   0.374   9.013   9.380 -0.6258  0.2423 -0.6550
  384MOL0     O51763   0.474   8.968   9.472 -0.1439 -0.1572 -0.4383
  384MOL0     C51764   0.516   9.053   9.572 -0.5574 -0.0556  0.8700
  384MOL0     C51765   0.428   9.042   9.696  0.4769 -0.2449 -0.2283
  384MOL0     C51766   0.494   9.112   9.824  0.3531 -0.6551  0.0443
  384MOL0     C51767   0.406   9.136   9.947 -0.1783 -0.9519 -0.2779
  384MOL0     C51768   0.316   9.024   9.988 -1.0334  0.1052  0.5355
  384MOL0     C51769   0.242   8.937  10.013  0.7975  0.2447  0.8637
  384MOL0     C51770   0.347   9.143   9.333  0.2363  0.8028 -0.4955
  384MOL0     C51771   0.246   9.166   9.237 -0.3439 -0.5843 -0.2135
  384MOL0     C51772   0.211   9.313   9.213  0.3892  0.5098  0.1140
  384MOL0     H51773  -0.027   8.971   8.798  0.8270  2.1365  0.7696
  384MOL0     H51774  -0.258   8.956   8.677 -0.5907 -0.3532  0.3120
  384MOL0     H51775  -0.447   8.995   8.605  1.2798  1.3074  2.6832
  384MOL0     H51776  -0.481   8.836   8.680  2.7078  0.6215 -0.6144
  384MOL0     H51777  -0.664   8.912   8.526  1.1331  3.5205 -0.7123
  384MOL0     H51778  -0.688   9.046   8.650  3.4610  0.5809  2.9867
  384MOL0     H51779  -0.726   8.851   8.815 -1.2369 -1.9580  0.8904
  384MOL0     H51780  -0.703   8.749   8.673  1.7849  0.4050  0.3245
  384MOL0     H51781  -0.922   8.968   8.695  1.9055  0.8871  0.3074
  384MOL0     H51782  -0.891   8.873   8.551  3.5103  0.6651  0.0624
  384MOL0     H51783  -0.939   8.671   8.664  3.6382  0.4192 -0.8686
  384MOL0     H51784  -0.991   8.764   8.813 -1.0220 -1.6777 -0.6183
  384MOL0     H51785  -1.147   8.904   8.635 -0.0391 -0.3950 -3.2356
  384MOL0     H51786  -1.153   8.760   8.558  2.2412 -0.1770 -0.5586
  384MOL0     H51787  -1.332   8.742   8.708  0.0729 -1.4839  0.2798
  384MOL0     H51788  -1.229   8.802   8.848  4.0360  0.0037 -0.5294
  384MOL0     H51789  -1.118   8.585   8.844  1.4761  2.4265 -0.7229
  384MOL0     H51790  -1.296   8.549   8.839  0.2260 -0.9540  0.3016
  384MOL0     H51791  -1.324   8.625   8.508  1.4850  1.5094 -0.5313
  384MOL0     H51792  -1.301   8.479   8.256  0.3325 -1.8510 -1.1304
  384MOL0     H51793  -1.263   8.312   8.299  1.1317  0.6640 -0.6952
  384MOL0     H51794  -1.494   8.314   8.424 -1.8880  0.0518 -0.6355
  384MOL0     H51795  -1.519   8.473   8.333 -0.1790  0.6080 -2.8145
  384MOL0     H51796  -1.464   8.331   8.125  1.2137  4.4619  1.2659
  384MOL0     H51797  -1.615   8.336   8.200  0.0862 -1.8073 -1.4933
  384MOL0     H51798  -1.604   8.122   8.177 -0.9379  0.1166  1.0194
  384MOL0     H51799  -1.564   8.133   8.348  0.1091  0.0284  0.6211
  384MOL0     H51800  -1.492   7.850   8.110  0.2171 -1.3749 -0.7198
  384MOL0     H51801  -1.452   7.645   8.177  3.5986 -0.1470 -2.2849
  384MOL0     H51802  -1.055   7.458   8.186 -3.9155  2.6562  1.6770
  384MOL0     H51803  -0.888   7.283   8.225  1.1218 -3.6003  0.8827
  384MOL0     H51804  -0.924   6.963   8.211  1.3172  0.5808 -1.0521
  384MOL0     H51805  -0.775   7.056   8.237  0.0347  0.4432  1.5482
  384MOL0     H51806  -0.838   6.813   8.401 -1.8724  1.3402  0.1402
  384MOL0     H51807  -0.760   6.810   8.248 -2.6833 -1.9833  1.5314
  384MOL0     H51808  -0.581   6.987   8.353  0.3641  0.7740 -0.3445
  384MOL0     H51809  -0.670   6.953   8.506  1.5875  1.7050 -0.8375
  384MOL0     H51810  -0.568   6.728   8.339 -0.0126  1.5659 -0.9554
  384MOL0     H51811  -0.624   6.733   8.510  0.6923 -2.2331  0.1160
  384MOL0     H51812  -0.413   6.706   8.523  0.4963  0.2407 -0.7044
  384MOL0     H51813  -0.439   6.869   8.581 -0.4124  2.9014 -1.5150
  384MOL0     H51814  -0.311   6.788   8.308  0.4193  1.1477  0.6351
  384MOL0     H51815  -0.360   6.954   8.342 -3.4960  0.5481  2.9957
  384MOL0     H51816  -0.128   6.823   8.496  0.7461  1.1247  1.2285
  384MOL0     H51817  -0.213   6.961   8.546 -0.2666 -1.9355  0.5527
  384MOL0     H51818  -0.017   7.030   8.404  0.9851 -2.3358 -0.1603
  384MOL0     H51819  -0.082   6.941   8.274  1.6192  0.6497 -0.1925
  384MOL0     H51820  -1.180   7.086   8.488 -0.7311 -1.3881 -1.6361
  384MOL0     H51821  -1.340   7.254   8.410 -0.3651  0.0028 -1.4713
  384MOL0     H51822  -1.258   7.790   8.530 -0.1536  4.0272 -0.0361
  384MOL0     H51823  -1.267   8.023   8.447 -0.1842 -0.5828  2.4392
  384MOL0     H51824  -0.459   8.993   9.067 -0.5005  0.3927 -0.8392
  384MOL0     H51825  -0.238   8.989   9.167 -1.4625  3.5406 -0.7231
  384MOL0     H51826   0.179   8.834   9.172  0.4425 -2.4056  3.4452
  384MOL0     H51827   0.345   8.807   9.355  2.6238  0.6061  1.0634
  384MOL0     H51828   0.507   9.156   9.537 -1.4319 -0.1439  0.8167
  384MOL0     H51829   0.620   9.021   9.590 -0.1250  0.6048 -0.3655
  384MOL0     H51830   0.406   8.941   9.732 -1.6369 -0.0009 -0.7074
  384MOL0     H51831   0.328   9.082   9.676  0.4098 -0.3583 -0.1190
  384MOL0     H51832   0.524   9.213   9.795 -2.7557 -0.2911 -2.5162
  384MOL0     H51833   0.585   9.056   9.845  0.8929 -0.0206 -0.5412
  384MOL0     H51834   0.471   9.162  10.031  0.2912 -0.6732 -0.7228
  384MOL0     H51835   0.344   9.223   9.922 -1.0486 -0.7358  2.3375
  384MOL0     H51836   0.154   8.880  10.035 -0.0334 -0.2393 -3.0025
  384MOL0     H51837   0.378   9.233   9.385 -0.4846  1.1757 -0.7056
  384MOL0     H51838   0.109   9.328   9.249 -0.6294 -1.5295 -1.6700
  384MOL0     H51839   0.286   9.373   9.266  1.5067  0.0496 -0.8896
  384MOL0     H51840   0.215   9.349   9.110  0.7010  1.3914  0.4280
  385MOL0     O51841  10.969   3.222  10.935 -0.9200 -0.4479 -0.2603
  385MOL0     C51842  10.929   3.225  11.054  0.2321 -0.6136 -0.4019
  385MOL0     O51843  11.001   3.260  11.170 -0.3567 -0.3820  0.2506
  385MOL0     C51844  11.137   3.276  11.156 -0.0250 -0.0236 -0.2683
  385MOL0     C51845  11.205   3.343  11.048 -0.3684  1.1682 -0.2515
  385MOL0     C51846  11.353   3.342  11.040  0.2002 -0.5617 -0.7219
  385MOL0     C51847  11.430   3.276  11.141  0.7694 -0.3338  0.3176
  385MOL0     O51848  11.571   3.274  11.117  0.4535 -0.9044  0.8556
  385MOL0     C51849  11.651   3.189  11.203  0.3988  0.4210  0.0233
  385MOL0     C51850  11.804   3.185  11.159  0.3239 -0.5162  0.0791
  385MOL0     C51851  11.813   3.084  11.040  1.2710 -0.5390  0.5783
  385MOL0     C51852  11.955   3.054  11.003 -0.6173 -0.2717 -0.2102
  385MOL0     C51853  11.967   2.945  10.889  0.6026 -0.2147  1.2649
  385MOL0     C51854  11.963   2.798  10.938 -0.3891 -0.3512  0.3384
  385MOL0     C51855  11.966   2.710  10.811 -0.0996  0.5535 -0.1309
  385MOL0     C51856  12.107   2.665  10.749 -0.3495  0.2303 -1.2205
  385MOL0     N51857  12.125   2.731  10.620  0.5407 -0.3226  0.2371
  385MOL0     C51858  12.195   2.846  10.590 -0.3060 -0.3644  0.5055
  385MOL0     C51859  12.226   2.836  10.453 -0.4646 -0.2674 -0.0826
  385MOL0     C51860  12.306   2.932  10.374 -0.5940 -0.2526 -0.7655
  385MOL0     C51861  12.244   3.073  10.358  0.5772 -0.2555 -0.5680
  385MOL0     C51862  12.296   3.146  10.228  0.0407  0.8043 -0.0546
  385MOL0     C51863  12.277   3.063  10.096 -0.1952 -0.2926 -0.9814
  385MOL0     O51864  12.287   3.155   9.989  0.2357 -0.9061  0.1575
  385MOL0     C51865  12.409   3.216   9.959 -0.2532 -0.6625  0.5560
  385MOL0     C51866  12.407   3.340   9.903 -0.6014  0.1316 -0.2075
  385MOL0     C51867  12.525   3.394   9.844 -0.1867  0.7003 -0.5315
  385MOL0     C51868  12.649   3.328   9.854  0.4398  0.7180 -0.4740
  385MOL0     C51869  12.773   3.374   9.780  0.3191  1.0435  0.4965
  385MOL0     O51870  12.886   3.300   9.799  0.0721  0.3731 -0.0499
  385MOL0     C51871  13.000   3.350   9.747 -0.0538  0.3370 -0.1491
  385MOL0     C51872  13.046   3.482   9.788  0.1886  0.6829  0.7346
  385MOL0     C51873  13.160   3.530   9.723  1.0161 -0.7592  1.0221
  385MOL0     C51874  13.224   3.455   9.629 -0.8190 -0.3720  0.2023
  385MOL0     O51875  13.336   3.503   9.569  0.9053  0.8160 -0.2162
  385MOL0     C51876  13.457   3.434   9.603  0.2220  0.1871  0.8572
  385MOL0     C51877  13.566   3.542   9.600 -0.2574 -0.4811 -0.6227
  385MOL0     C51878  13.565   3.611   9.457  0.9703  0.2644 -0.5650
  385MOL0     C51879  13.683   3.696   9.428  0.3732  1.0850 -0.0575
  385MOL0     C51880  13.790   3.617   9.357 -1.1023  0.5816  0.1062
  385MOL0     C51881  13.910   3.713   9.322 -0.2971  0.1729  0.1280
  385MOL0     C51882  14.010   3.630   9.233 -0.3691 -0.4688  0.1030
  385MOL0     C51883  14.099   3.733   9.158  0.3145 -0.1165 -0.8036
  385MOL0    Cl51884  14.256   3.657   9.126  0.2085 -0.0184  0.4427
  385MOL0     C51885  13.181   3.332   9.599 -0.8971  0.3544 -0.1397
  385MOL0     C51886  13.073   3.274   9.657 -0.1840 -0.1671  0.0937
  385MOL0     O51887  12.763   3.474   9.707 -0.3109 -0.4393  0.6208
  385MOL0     C51888  12.645   3.211   9.923 -0.2139  0.6169  0.3525
  385MOL0     C51889  12.529   3.156   9.983  0.2544  0.3616 -0.4130
  385MOL0     N51890  12.152   2.730  10.406 -0.2744  0.9333  0.5555
  385MOL0     N51891  12.101   2.665  10.510  1.3302 -0.0698  0.6609
  385MOL0     C51892  11.352   3.219  11.251 -0.4013 -0.4435  0.3273
  385MOL0     C51893  11.212   3.227  11.262 -0.1042  0.4218 -0.1572
  385MOL0     C51894  10.777   3.211  11.062  0.1098 -0.2221 -0.6105
  385MOL0     C51895  10.709   3.220  10.936 -0.0715  0.2244  0.7343
  385MOL0     C51896  10.572   3.227  10.927 -0.3231  0.3658 -0.6393
  385MOL0     C51897  10.489   3.206  11.042  0.4668  0.2836  0.3587
  385MOL0     O51898  10.349   3.210  11.032  0.2410 -0.6449  0.2336
  385MOL0     C51899  10.293   3.158  10.909 -0.2104 -0.5799  0.3980
  385MOL0     C51900  10.140   3.136  10.909 -0.1419  0.8806  0.4132
  385MOL0     C51901  10.087   3.083  11.043 -0.0336 -0.3125 -0.5968
  385MOL0     C51902   9.947   3.022  11.024 -0.4838  0.4653 -0.1802
  385MOL0     C51903   9.905   2.943  11.141  0.4080  0.0488  0.2290
  385MOL0     C51904   9.876   2.901  11.249 -0.0096 -0.0187  0.0705
  385MOL0     C51905  10.553   3.193  11.161 -0.4497 -0.3867 -0.5267
  385MOL0     C51906  10.692   3.199  11.180 -0.0377  0.8293 -0.4540
  385MOL0     C51907  10.751   3.220  11.313  0.4980  0.5957  0.0766
  385MOL0     H51908  11.150   3.396  10.971  0.5553  0.5992 -1.3444
  385MOL0     H51909  11.396   3.389  10.952 -0.9906  1.9446 -0.0569
  385MOL0     H51910  11.656   3.227  11.306  1.5272 -0.6003  0.3701
  385MOL0     H51911  11.603   3.091  11.205  0.3846  0.4155 -0.5479
  385MOL0     H51912  11.868   3.149  11.239  1.2345  0.6306 -0.1030
  385MOL0     H51913  11.845   3.281  11.126  0.1953 -1.3763 -2.8962
  385MOL0     H51914  11.753   3.120  10.957  1.0955  0.6089  1.1826
  385MOL0     H51915  11.770   2.986  11.064 -1.3406  0.0178 -1.4308
  385MOL0     H51916  12.005   3.142  10.961 -2.9128  0.1055 -2.3920
  385MOL0     H51917  12.002   3.021  11.096 -0.8977 -0.6713 -0.2067
  385MOL0     H51918  11.879   2.965  10.828  1.6336  0.6618 -0.0022
  385MOL0     H51919  12.056   2.967  10.829 -2.0628  1.4121 -2.4562
  385MOL0     H51920  12.047   2.798  11.009 -0.3875  1.0667  0.3791
  385MOL0     H51921  11.878   2.768  10.999 -0.0443 -1.2203  0.4066
  385MOL0     H51922  11.908   2.754  10.729 -0.5531  0.5048  0.1571
  385MOL0     H51923  11.926   2.612  10.838 -0.2074 -0.1232 -2.5844
  385MOL0     H51924  12.184   2.708  10.814 -1.1631 -0.3427  0.1568
  385MOL0     H51925  12.109   2.557  10.762 -1.4058  0.4424  1.3443
  385MOL0     H51926  12.235   2.922  10.657  1.5009 -1.9436  1.3129
  385MOL0     H51927  12.404   2.946  10.423 -0.5442 -0.6523 -0.7470
  385MOL0     H51928  12.333   2.883  10.280  0.1163  0.8836 -1.1758
  385MOL0     H51929  12.136   3.065  10.340  0.1079  2.7004  0.3498
  385MOL0     H51930  12.263   3.129  10.450  0.9885 -1.2507 -0.0341
  385MOL0     H51931  12.390   3.194  10.255 -0.7980  0.8776  3.1410
  385MOL0     H51932  12.229   3.232  10.222  0.4259  1.0930 -0.2332
  385MOL0     H51933  12.174   3.025  10.096 -0.7860  0.8164  2.6917
  385MOL0     H51934  12.343   2.978  10.078  1.4944  1.1521 -1.9264
  385MOL0     H51935  12.322   3.405   9.882  1.6652  2.4183 -3.4992
  385MOL0     H51936  12.518   3.486   9.788 -0.2073 -0.2340 -2.1331
  385MOL0     H51937  13.007   3.534   9.875 -2.9686 -1.1291  0.5709
  385MOL0     H51938  13.189   3.630   9.755 -1.6981  1.6210 -3.0027
  385MOL0     H51939  13.443   3.371   9.692  1.0539 -0.2152  0.7138
  385MOL0     H51940  13.467   3.375   9.511 -0.7601  0.0674  0.8183
  385MOL0     H51941  13.535   3.614   9.677 -1.2372  2.4178 -3.4942
  385MOL0     H51942  13.664   3.505   9.631 -1.3619 -1.1813  2.3733
  385MOL0     H51943  13.565   3.529   9.385  0.9566 -0.0512 -0.2126
  385MOL0     H51944  13.471   3.667   9.454  0.7018 -0.1503  0.0615
  385MOL0     H51945  13.724   3.724   9.526  0.7418  0.5059 -0.0414
  385MOL0     H51946  13.655   3.788   9.377  1.1007  0.5332 -1.4870
  385MOL0     H51947  13.751   3.566   9.269 -3.4438  0.3282  1.2294
  385MOL0     H51948  13.821   3.538   9.425 -2.6990 -0.5164 -0.3807
  385MOL0     H51949  13.881   3.801   9.264  1.6949  1.3829  0.8405
  385MOL0     H51950  13.966   3.757   9.406  1.0994 -1.9362  0.3984
  385MOL0     H51951  13.953   3.566   9.165 -0.1125 -2.5256  1.7167
  385MOL0     H51952  14.064   3.551   9.286 -0.6296  0.2841  1.5566
  385MOL0     H51953  14.054   3.770   9.066  0.9523  0.4488 -0.9028
  385MOL0     H51954  14.114   3.821   9.222 -1.3093 -0.8546  0.6711
  385MOL0     H51955  13.236   3.278   9.522 -0.1178 -1.5735  1.6625
  385MOL0     H51956  13.026   3.180   9.630  1.1378 -1.0402  0.7254
  385MOL0     H51957  12.725   3.140   9.937  0.8390  1.6903  0.0079
  385MOL0     H51958  12.541   3.059  10.032  0.6595  1.5508  2.0108
  385MOL0     H51959  11.413   3.177  11.330  1.5848 -1.0518 -1.4192
  385MOL0     H51960  11.161   3.176  11.343  0.7437  1.3865  1.0260
  385MOL0     H51961  10.761   3.228  10.841  1.8661 -1.6326  1.5512
  385MOL0     H51962  10.520   3.221  10.832 -0.9071 -1.6934 -0.2536
  385MOL0     H51963  10.357   3.070  10.894 -0.5232 -0.5754 -1.0593
  385MOL0     H51964  10.319   3.228  10.830  0.5646 -2.5452 -1.1969
  385MOL0     H51965  10.117   3.068  10.826 -0.8493  1.1010  0.4202
  385MOL0     H51966  10.094   3.234  10.892 -2.6319 -0.2161  0.3204
  385MOL0     H51967  10.090   3.154  11.126  1.2321  0.1091 -0.9770
  385MOL0     H51968  10.163   3.008  11.066  1.6186  1.0625 -1.2551
  385MOL0     H51969   9.873   3.098  10.996 -0.5803  0.4387 -0.0033
  385MOL0     H51970   9.957   2.954  10.939 -1.6819 -1.8743  1.4316
  385MOL0     H51971   9.856   2.869  11.349 -0.1412 -1.8374 -0.4962
  385MOL0     H51972  10.486   3.182  11.246  0.1741  1.1215  0.2038
  385MOL0     H51973  10.829   3.145  11.329 -0.2884 -0.2691 -0.0540
  385MOL0     H51974  10.795   3.319  11.325 -1.5421  1.5402  0.1297
  385MOL0     H51975  10.672   3.217  11.388  0.1684 -0.5205 -0.2855
  386MOL0     O51976   1.887   0.508   8.996  0.0594 -0.0046 -0.2208
  386MOL0     C51977   1.857   0.514   9.112 -0.3519 -0.2685 -0.9106
  386MOL0     O51978   1.953   0.515   9.215  0.4154  0.3414  0.2504
  386MOL0     C51979   2.088   0.500   9.187  0.0360  0.1114 -0.0649
  386MOL0     C51980   2.146   0.389   9.129 -0.2000  1.0702 -0.2922
  386MOL0     C51981   2.286   0.386   9.107  0.2076  0.0346  0.3577
  386MOL0     C51982   2.370   0.489   9.147 -0.0909 -0.1874 -0.3286
  386MOL0     O51983   2.507   0.495   9.144  0.2421  0.4724 -0.2966
  386MOL0     C51984   2.576   0.397   9.059 -0.0226  0.2133  0.1718
  386MOL0     C51985   2.728   0.420   9.082  0.2839  0.6435 -0.4927
  386MOL0     C51986   2.824   0.348   8.986  1.1453 -0.6541 -0.1665
  386MOL0     C51987   2.972   0.402   8.991  0.5644 -0.2897 -0.2599
  386MOL0     C51988   3.057   0.303   8.924 -0.0386  0.3263 -0.5767
  386MOL0     C51989   3.191   0.358   8.897 -0.1974  0.3045 -1.0942
  386MOL0     C51990   3.289   0.256   8.833  1.2895 -0.1917 -0.0619
  386MOL0     C51991   3.389   0.323   8.739  0.9471 -0.6069 -0.4233
  386MOL0     N51992   3.469   0.425   8.808  0.2125  0.2049 -0.6379
  386MOL0     C51993   3.524   0.408   8.929 -0.4234  0.1804 -0.0818
  386MOL0     C51994   3.638   0.482   8.938  0.6217  0.0050 -0.1126
  386MOL0     C51995   3.727   0.484   9.058  0.4403  0.4605 -0.5354
  386MOL0     C51996   3.864   0.440   9.030 -0.1549 -0.2766  0.5636
  386MOL0     C51997   3.960   0.545   8.984  1.2438 -0.5040  0.3833
  386MOL0     C51998   4.097   0.478   9.001 -0.3914  0.5537 -0.8512
  386MOL0     O51999   4.191   0.570   8.947  0.2145  0.2888 -0.3020
  386MOL0     C52000   4.325   0.542   8.966  0.3384  0.3546 -0.0040
  386MOL0     C52001   4.383   0.414   8.971  0.0791  0.0770 -0.3579
  386MOL0     C52002   4.530   0.411   8.986 -0.1538  0.6568  0.3642
  386MOL0     C52003   4.608   0.527   8.990 -0.2100 -0.6024  0.7467
  386MOL0     C52004   4.752   0.521   9.011  0.3615 -0.4042 -0.6291
  386MOL0     O52005   4.796   0.396   9.039 -0.1286 -0.1707 -0.4246
  386MOL0     C52006   4.929   0.370   9.065  0.5305  0.4211  0.2110
  386MOL0     C52007   4.938   0.248   9.124 -0.2201  0.9641 -0.3216
  386MOL0     C52008   5.063   0.200   9.163 -0.7858  0.6727 -0.3738
  386MOL0     C52009   5.177   0.266   9.138  0.2082  0.6333  0.4198
  386MOL0     O52010   5.296   0.196   9.167  0.4258 -0.5147  0.2915
  386MOL0     C52011   5.410   0.272   9.152 -0.1417  0.6875  0.6516
  386MOL0     C52012   5.533   0.190   9.196 -0.5418  0.2007 -0.2101
  386MOL0     C52013   5.570   0.226   9.341  0.0027  0.1068  0.9095
  386MOL0     C52014   5.680   0.133   9.397 -0.2207 -0.0607  0.3763
  386MOL0     C52015   5.680   0.128   9.557 -0.0211 -0.6420  0.5390
  386MOL0     C52016   5.558   0.067   9.626 -0.2727  0.1652  0.4190
  386MOL0     C52017   5.590   0.050   9.779 -0.1005 -0.1375  0.3914
  386MOL0     C52018   5.492  -0.047   9.849 -0.2088  0.4922  0.2562
  386MOL0    Cl52019   5.363   0.038   9.931 -0.0912  0.1899 -0.2236
  386MOL0     C52020   5.169   0.389   9.075 -0.4160  0.0496  0.4360
  386MOL0     C52021   5.042   0.438   9.030 -1.2767  0.1271  1.3181
  386MOL0     O52022   4.822   0.623   8.996  0.8355 -0.4534 -0.0401
  386MOL0     C52023   4.542   0.652   8.969  0.3216  0.3523 -0.3723
  386MOL0     C52024   4.403   0.655   8.962  0.0865 -0.5391 -0.4112
  386MOL0     N52025   3.655   0.547   8.818  0.3866  0.0248  0.2325
  386MOL0     N52026   3.554   0.511   8.747 -0.3642  0.1553  0.1113
  386MOL0     C52027   2.321   0.606   9.198  0.0935 -0.5128 -0.3904
  386MOL0     C52028   2.174   0.608   9.223  0.3262  0.6308  0.0328
  386MOL0     C52029   1.716   0.523   9.157  0.4477  0.1361  0.8178
  386MOL0     C52030   1.694   0.535   9.295  0.3855  0.6391 -0.4680
  386MOL0     C52031   1.562   0.542   9.347  0.2706  1.2560  1.0825
  386MOL0     C52032   1.443   0.548   9.263  0.8999 -0.4218  0.3433
  386MOL0     O52033   1.323   0.559   9.326 -0.1106  0.0762 -0.0056
  386MOL0     C52034   1.212   0.593   9.233 -0.0390 -0.0639  0.1393
  386MOL0     C52035   1.089   0.603   9.326  0.2342  0.3860  0.4149
  386MOL0     C52036   1.024   0.461   9.350 -0.1844  0.1439 -0.3273
  386MOL0     C52037   0.900   0.467   9.438  0.6210  0.0977  0.9331
  386MOL0     C52038   0.831   0.340   9.441 -0.1166  0.3058  0.0578
  386MOL0     C52039   0.781   0.225   9.437  0.0639 -0.2480  0.6247
  386MOL0     C52040   1.475   0.545   9.120  0.0938  0.3831 -0.1083
  386MOL0     C52041   1.602   0.532   9.076  0.0420 -0.3411  0.4491
  386MOL0     C52042   1.612   0.530   8.918  0.1893  0.4458  0.2261
  386MOL0     H52043   2.085   0.306   9.093  0.2815  0.6429 -0.1454
  386MOL0     H52044   2.316   0.296   9.055 -2.1859 -0.7135  0.1386
  386MOL0     H52045   2.553   0.295   9.089  1.8661 -0.3519 -0.1885
  386MOL0     H52046   2.557   0.419   8.953  2.9568  4.3464  0.2482
  386MOL0     H52047   2.752   0.399   9.186 -1.2502  0.2446 -0.1982
  386MOL0     H52048   2.747   0.527   9.069  3.9043 -0.1381 -3.5385
  386MOL0     H52049   2.798   0.367   8.881 -2.4770 -1.2938  0.5004
  386MOL0     H52050   2.822   0.239   8.997  0.1756 -0.5148  1.2458
  386MOL0     H52051   2.973   0.500   8.942  0.0675 -0.8088 -1.3684
  386MOL0     H52052   3.002   0.407   9.096 -0.7962  0.5838  0.1095
  386MOL0     H52053   3.054   0.211   8.984 -0.5994  0.3854 -0.5161
  386MOL0     H52054   3.014   0.295   8.824  0.0871  3.7039 -1.0108
  386MOL0     H52055   3.182   0.441   8.827  0.5036  0.1747 -1.3488
  386MOL0     H52056   3.239   0.394   8.989  1.4903  1.1288 -2.2554
  386MOL0     H52057   3.229   0.187   8.773  0.8883  1.5114 -1.7223
  386MOL0     H52058   3.343   0.202   8.911 -1.3145 -2.1306  0.5516
  386MOL0     H52059   3.457   0.245   8.703 -0.3459 -2.0251  0.0610
  386MOL0     H52060   3.342   0.367   8.651 -1.7528  0.8171  1.5907
  386MOL0     H52061   3.485   0.335   9.000  0.7125  0.7296  1.1450
  386MOL0     H52062   3.737   0.586   9.097  2.0664 -0.0113  0.4028
  386MOL0     H52063   3.677   0.433   9.141  2.2874 -3.2485 -1.4736
  386MOL0     H52064   3.895   0.399   9.126 -0.6808  1.9489  1.7562
  386MOL0     H52065   3.862   0.369   8.946  0.6189 -0.6286  0.8363
  386MOL0     H52066   3.963   0.628   9.055  1.6996  0.5590 -0.8330
  386MOL0     H52067   3.932   0.587   8.886 -0.5561 -0.0934  1.0373
  386MOL0     H52068   4.105   0.381   8.952 -0.8286 -0.2390  0.5864
  386MOL0     H52069   4.119   0.468   9.108  0.2794 -2.3525 -1.1717
  386MOL0     H52070   4.334   0.317   8.972 -0.0839  0.1491  1.6893
  386MOL0     H52071   4.578   0.313   8.989 -0.5939  0.3629 -1.2683
  386MOL0     H52072   4.849   0.191   9.148 -1.0922  3.0836  1.9758
  386MOL0     H52073   5.078   0.110   9.222 -1.7746  0.9003  0.2501
  386MOL0     H52074   5.420   0.287   9.044 -2.9146  1.4107  0.3994
  386MOL0     H52075   5.405   0.365   9.211 -0.3718 -0.2017  2.0944
  386MOL0     H52076   5.515   0.083   9.187  0.5609 -0.1179  0.9397
  386MOL0     H52077   5.615   0.218   9.129  1.2918 -1.9954  1.0026
  386MOL0     H52078   5.595   0.332   9.350  2.0633 -0.3576  1.3388
  386MOL0     H52079   5.477   0.206   9.394  1.3699  1.2154  3.9473
  386MOL0     H52080   5.780   0.165   9.368  0.7887 -1.3611  2.2451
  386MOL0     H52081   5.660   0.036   9.351 -0.5911  0.3946 -0.4343
  386MOL0     H52082   5.702   0.229   9.592  1.5304 -1.2201  1.3247
  386MOL0     H52083   5.766   0.066   9.585  1.7610  1.2338 -0.4490
  386MOL0     H52084   5.471   0.133   9.615  0.3241  0.9994  0.5795
  386MOL0     H52085   5.532  -0.025   9.573 -6.0062  2.0784 -0.7825
  386MOL0     H52086   5.580   0.145   9.832  1.6888  0.7309 -0.7349
  386MOL0     H52087   5.695   0.032   9.802  0.2599  1.0378 -0.2493
  386MOL0     H52088   5.452  -0.118   9.776  0.4253  1.5804 -1.2194
  386MOL0     H52089   5.552  -0.101   9.923  2.2280  1.7051 -0.6928
  386MOL0     H52090   5.256   0.442   9.038 -2.2251  0.5805 -3.4699
  386MOL0     H52091   5.051   0.527   8.969 -0.8228 -1.4706 -1.0993
  386MOL0     H52092   4.591   0.748   8.979 -0.8926  0.9061  0.6361
  386MOL0     H52093   4.361   0.754   8.944 -0.6187 -0.7904 -0.2178
  386MOL0     H52094   2.382   0.694   9.219  2.2195 -1.7595 -1.1448
  386MOL0     H52095   2.121   0.700   9.246 -0.3212  1.1377 -3.0476
  386MOL0     H52096   1.768   0.531   9.374  0.2226  2.5750 -0.1626
  386MOL0     H52097   1.545   0.552   9.454 -1.1436 -3.6163  1.5590
  386MOL0     H52098   1.205   0.525   9.148  2.3641 -0.6252  0.3243
  386MOL0     H52099   1.238   0.689   9.187  0.9204 -0.9404 -1.2444
  386MOL0     H52100   1.010   0.654   9.269 -2.7378 -1.1102  2.8857
  386MOL0     H52101   1.104   0.655   9.421 -1.3340  0.8643  0.4307
  386MOL0     H52102   1.097   0.395   9.398 -1.3498 -0.1734  1.1124
  386MOL0     H52103   0.989   0.408   9.262 -2.1951 -1.6368  1.4274
  386MOL0     H52104   0.938   0.490   9.538  4.2779 -0.3669 -0.1842
  386MOL0     H52105   0.831   0.543   9.401  0.6575 -0.4702 -0.3457
  386MOL0     H52106   0.739   0.126   9.441 -0.1240 -0.1357  2.3554
  386MOL0     H52107   1.391   0.532   9.052 -0.8577 -2.2740  1.4155
  386MOL0     H52108   1.696   0.595   8.889  2.6353 -2.8423 -0.6589
  386MOL0     H52109   1.632   0.431   8.876  1.2125  0.1394  1.3432
  386MOL0     H52110   1.522   0.566   8.867  0.8182  0.1259 -1.1531
  387MOL0     O52111  10.828  11.110  11.264  0.2905 -0.0642 -0.8369
  387MOL0     C52112  10.791  11.148  11.157 -0.1894 -0.4459 -1.0862
  387MOL0     O52113  10.848  11.111  11.039 -0.0833 -0.0116 -0.2911
  387MOL0     C52114  10.942  11.017  11.042 -0.8398 -0.3730  0.4396
  387MOL0     C52115  11.076  11.045  11.074 -0.4378  0.1109 -0.6585
  387MOL0     C52116  11.175  10.949  11.078 -0.5744 -0.0656 -0.2148
  387MOL0     C52117  11.142  10.812  11.056  0.8945 -0.7082 -0.5428
  387MOL0     O52118  11.221  10.700  11.058 -0.1242 -0.0267 -0.0630
  387MOL0     C52119  11.363  10.725  11.052  0.6258 -0.7779 -0.0185
  387MOL0     C52120  11.423  10.753  10.911 -0.5757 -0.8722 -0.3215
  387MOL0     C52121  11.566  10.817  10.904  1.2808  0.4382 -0.1566
  387MOL0     C52122  11.678  10.713  10.936  0.1369 -0.1659 -0.1537
  387MOL0     C52123  11.826  10.777  10.928  0.5017  0.6657  0.6152
  387MOL0     C52124  11.931  10.659  10.946  0.5400 -0.0675  0.1257
  387MOL0     C52125  12.078  10.713  10.927 -0.1579 -0.0924 -0.0892
  387MOL0     C52126  12.118  10.777  11.052  1.0598 -0.0023 -0.0366
  387MOL0     N52127  12.248  10.827  11.063  0.1451 -0.6733  0.3426
  387MOL0     C52128  12.362  10.764  11.022 -0.5370 -0.2665  0.4451
  387MOL0     C52129  12.455  10.859  11.012  0.1408 -0.8374  0.0490
  387MOL0     C52130  12.601  10.859  10.975  0.1932  0.3960 -0.3438
  387MOL0     C52131  12.703  10.849  11.094 -0.4571 -0.7318 -0.3030
  387MOL0     C52132  12.840  10.878  11.036  0.0688  0.4967 -0.0116
  387MOL0     C52133  12.944  10.836  11.142 -0.6245 -0.5475  0.9069
  387MOL0     O52134  12.981  10.951  11.225  0.5555 -0.1006  0.1155
  387MOL0     C52135  13.116  10.981  11.203  0.0980 -0.8234 -0.3243
  387MOL0     C52136  13.209  10.968  11.300  0.4787 -0.1999 -0.5954
  387MOL0     C52137  13.345  10.999  11.279 -0.3169 -0.1180 -0.4310
  387MOL0     C52138  13.381  11.051  11.152  0.2670  0.4043  0.0655
  387MOL0     C52139  13.525  11.087  11.136 -0.2022  1.4050  0.6462
  387MOL0     O52140  13.619  11.043  11.227 -0.9119  0.4540  0.0983
  387MOL0     C52141  13.750  11.065  11.210  0.7727 -0.7758  0.4548
  387MOL0     C52142  13.836  11.058  11.095  0.3048 -0.2577  0.1657
  387MOL0     C52143  13.974  11.087  11.103  0.0407  0.5398 -0.2748
  387MOL0     C52144  14.041  11.126  11.220  0.6917 -0.2218 -0.3984
  387MOL0     O52145  14.176  11.142  11.241 -0.5446  0.2504  0.3443
  387MOL0     C52146  14.273  11.095  11.151  0.6178 -0.2629 -0.0664
  387MOL0     C52147  14.408  11.144  11.182 -0.5296 -0.0538  0.1390
  387MOL0     C52148  14.502  11.144  11.069 -0.6189  0.7301 -0.6893
  387MOL0     C52149  14.635  11.209  11.118  0.7191 -0.5649  0.7107
  387MOL0     C52150  14.729  11.233  10.991 -0.3559 -0.9182 -0.4769
  387MOL0     C52151  14.851  11.154  11.025 -1.0820 -0.2277 -0.4890
  387MOL0     C52152  14.956  11.160  10.903 -0.1863  0.3815 -0.6679
  387MOL0     C52153  15.094  11.168  10.966 -1.0149  0.6837  0.4174
  387MOL0    Cl52154  15.229  11.217  10.849  0.3327 -0.3186 -0.3680
  387MOL0     C52155  13.944  11.137  11.329 -0.2267  0.4313  0.4202
  387MOL0     C52156  13.809  11.099  11.329  0.3489 -0.0590  0.3042
  387MOL0     O52157  13.557  11.123  11.025  0.5171 -0.1364 -0.0122
  387MOL0     C52158  13.291  11.058  11.050 -0.0464 -0.1821  1.1012
  387MOL0     C52159  13.157  11.031  11.079 -0.6670 -0.3083  0.5516
  387MOL0     N52160  12.401  10.983  11.057 -0.3845  0.2168 -0.0807
  387MOL0     N52161  12.279  10.952  11.093  0.9260  0.6917 -0.1462
  387MOL0     C52162  11.010  10.786  11.020 -0.4375  0.4226  0.0942
  387MOL0     C52163  10.910  10.889  11.009  0.5304  0.9541 -0.0662
  387MOL0     C52164  10.666  11.243  11.157 -0.2966 -0.0538 -0.3704
  387MOL0     C52165  10.589  11.260  11.040  0.3368  0.8122  0.3114
  387MOL0     C52166  10.494  11.363  11.029 -0.3338  0.6471 -0.1867
  387MOL0     C52167  10.464  11.442  11.139 -0.1738 -0.7427  0.2456
  387MOL0     O52168  10.370  11.546  11.130  0.0463 -0.5973  0.3131
  387MOL0     C52169  10.308  11.587  11.002  0.0690 -0.2286  0.2738
  387MOL0     C52170  10.227  11.717  11.025 -0.0478  1.0693  0.0530
  387MOL0     C52171  10.333  11.823  11.050 -0.8956 -0.3016 -0.5800
  387MOL0     C52172  10.263  11.962  11.058  0.6343 -0.4022  0.7273
  387MOL0     C52173  10.266  12.024  10.924 -0.0393 -0.5812 -0.4672
  387MOL0     C52174  10.240  12.069  10.816 -0.7666  1.0474  0.8359
  387MOL0     C52175  10.535  11.420  11.249  0.2799  0.2963  0.5830
  387MOL0     C52176  10.642  11.327  11.266 -0.2765 -0.4193 -0.0679
  387MOL0     C52177  10.727  11.332  11.389  0.4578 -0.2690 -0.6051
  387MOL0     H52178  11.107  11.142  11.110  0.4137  0.4783 -2.2707
  387MOL0     H52179  11.274  10.985  11.105  0.2060 -1.3352 -1.2242
  387MOL0     H52180  11.402  10.806  11.114 -1.6783  0.8550 -0.5792
  387MOL0     H52181  11.409  10.637  11.097  2.5157  1.4815  2.8003
  387MOL0     H52182  11.364  10.835  10.870  0.1518  2.1004  3.9697
  387MOL0     H52183  11.413  10.666  10.845 -0.5388  0.3231 -1.9600
  387MOL0     H52184  11.559  10.906  10.968  0.9957 -0.9393  1.8323
  387MOL0     H52185  11.590  10.856  10.805  1.8894  0.8629  0.1510
  387MOL0     H52186  11.661  10.673  11.036 -0.9329 -2.9690 -1.3491
  387MOL0     H52187  11.662  10.629  10.867 -1.5747  2.0860 -2.7232
  387MOL0     H52188  11.835  10.827  10.832 -1.1650 -1.5344 -0.8062
  387MOL0     H52189  11.839  10.854  11.004 -0.2163  0.6770  0.7389
  387MOL0     H52190  11.912  10.626  11.048  1.6817  1.3570  0.8479
  387MOL0     H52191  11.907  10.587  10.867 -1.7883  1.3886 -0.5948
  387MOL0     H52192  12.066  10.783  10.845 -2.2947 -0.0843  0.1635
  387MOL0     H52193  12.142  10.626  10.905  0.0016 -0.0723  0.2933
  387MOL0     H52194  12.045  10.860  11.056 -0.6480 -1.3049 -2.0427
  387MOL0     H52195  12.090  10.697  11.121 -2.5558 -0.5054 -1.8036
  387MOL0     H52196  12.373  10.658  10.998 -0.1755  0.1901 -1.6140
  387MOL0     H52197  12.614  10.779  10.901 -0.5954 -0.2835  0.2194
  387MOL0     H52198  12.628  10.946  10.915 -0.2294 -1.0095 -2.6869
  387MOL0     H52199  12.680  10.931  11.163 -0.4832 -1.9900  1.2390
  387MOL0     H52200  12.707  10.758  11.154  0.5412 -1.7288 -1.8220
  387MOL0     H52201  12.839  10.980  10.997 -2.9526  0.8942  0.8832
  387MOL0     H52202  12.852  10.817  10.946  0.8398 -0.1017  0.4894
  387MOL0     H52203  13.017  10.765  11.101  0.9169  1.2572  0.4095
  387MOL0     H52204  12.896  10.772  11.217 -0.9350  0.4399  1.5728
  387MOL0     H52205  13.174  10.930  11.395  1.5065 -1.0973 -0.5539
  387MOL0     H52206  13.419  10.968  11.352  1.3899  0.5355 -1.7973
  387MOL0     H52207  13.789  11.035  11.000 -0.4696  1.8135  0.0052
  387MOL0     H52208  14.039  11.079  11.017  1.3999 -0.3423  0.8073
  387MOL0     H52209  14.283  10.987  11.137 -3.1728 -0.6321 -1.0009
  387MOL0     H52210  14.251  11.133  11.051  2.8415 -1.1847 -0.9686
  387MOL0     H52211  14.399  11.246  11.220 -1.0092 -0.8669  2.3605
  387MOL0     H52212  14.446  11.078  11.261 -1.2719  1.3766  1.7642
  387MOL0     H52213  14.525  11.039  11.049  3.3056  0.7494  2.5618
  387MOL0     H52214  14.470  11.195  10.977 -1.2668 -0.8899 -1.4106
  387MOL0     H52215  14.687  11.162  11.202  0.2469  0.7360  1.7588
  387MOL0     H52216  14.622  11.310  11.157 -1.8504 -1.5729  2.7424
  387MOL0     H52217  14.741  11.341  10.982 -2.3201 -0.6964 -0.9058
  387MOL0     H52218  14.680  11.211  10.896  1.9880  1.2563 -2.3131
  387MOL0     H52219  14.893  11.190  11.119 -2.0367 -1.1449  0.3056
  387MOL0     H52220  14.816  11.052  11.041  0.3780 -0.9502 -1.6026
  387MOL0     H52221  14.941  11.250  10.843  1.3507  0.0607 -1.6153
  387MOL0     H52222  14.945  11.070  10.841  2.1657 -2.1580  2.2249
  387MOL0     H52223  15.103  11.239  11.049 -0.9463  0.9338  0.1961
  387MOL0     H52224  15.122  11.073  11.013  0.5559  1.5540  1.3592
  387MOL0     H52225  13.998  11.137  11.423  0.9627  2.6789 -0.1762
  387MOL0     H52226  13.756  11.097  11.423 -0.3766 -3.3206 -0.0734
  387MOL0     H52227  13.329  11.093  10.955  0.6729  1.5206  1.9780
  387MOL0     H52228  13.081  11.045  11.003 -3.0528  0.7494  2.9455
  387MOL0     H52229  10.982  10.683  10.999 -2.9855  1.0165  0.2206
  387MOL0     H52230  10.807  10.867  10.985  0.1321  3.0438 -0.5343
  387MOL0     H52231  10.609  11.184  10.965 -0.8530 -0.2560  1.0401
  387MOL0     H52232  10.444  11.361  10.933  0.3385 -1.5360 -0.5413
  387MOL0     H52233  10.248  11.509  10.956  1.3904  0.9994 -4.0108
  387MOL0     H52234  10.390  11.603  10.931 -0.2896 -2.1520 -0.6098
  387MOL0     H52235  10.164  11.709  11.114  0.9878  0.8560  0.7959
  387MOL0     H52236  10.169  11.743  10.937  0.2917 -0.1934 -0.5691
  387MOL0     H52237  10.398  11.823  10.961  0.2119  1.8214  0.1611
  387MOL0     H52238  10.393  11.801  11.139  1.4334  1.0970 -1.7037
  387MOL0     H52239  10.155  11.950  11.072  0.3552 -0.4973 -1.3059
  387MOL0     H52240  10.310  12.020  11.137  2.3304  0.1388 -0.6371
  387MOL0     H52241  10.204  12.109  10.723 -5.0389  1.1306  2.3258
  387MOL0     H52242  10.515  11.495  11.324 -2.6469 -1.1476  1.3807
  387MOL0     H52243  10.710  11.250  11.459  0.1844  1.7379  1.8580
  387MOL0     H52244  10.832  11.347  11.362  0.8002  1.3923  1.3826
  387MOL0     H52245  10.703  11.424  11.444 -1.9615  0.2541 -2.3518
  388MOL0     O52246   8.991   0.510  10.855  0.7586 -0.4129 -0.0923
  388MOL0     C52247   8.963   0.418  10.776  0.7512 -0.8540  0.8730
  388MOL0     O52248   9.051   0.367  10.685 -0.4118 -0.3307 -0.4893
  388MOL0     C52249   9.172   0.434  10.689 -0.5682  0.8621  0.7233
  388MOL0     C52250   9.175   0.553  10.611  0.0205 -0.2986 -0.1915
  388MOL0     C52251   9.298   0.618  10.602  0.0693 -0.0489  0.1765
  388MOL0     C52252   9.414   0.570  10.658 -0.5012  0.1613 -0.0080
  388MOL0     O52253   9.537   0.628  10.649  0.5019  0.2864  0.1368
  388MOL0     C52254   9.547   0.740  10.565 -0.3612 -0.5327  0.6409
  388MOL0     C52255   9.695   0.776  10.543 -0.9333 -0.1049 -0.2104
  388MOL0     C52256   9.743   0.863  10.655 -0.4376  0.3906 -0.2856
  388MOL0     C52257   9.893   0.892  10.653  0.2608 -0.2983 -1.0208
  388MOL0     C52258   9.932   0.951  10.791  0.8930 -0.7319  0.5604
  388MOL0     C52259  10.079   1.009  10.776  0.7962 -0.2742  0.2452
  388MOL0     C52260  10.144   1.013  10.918  0.1904  0.6612  0.7008
  388MOL0     C52261  10.293   1.055  10.908  0.1044  0.7271  0.0546
  388MOL0     N52262  10.365   1.055  11.036 -0.1482  0.3954 -0.1860
  388MOL0     C52263  10.421   0.946  11.101 -0.0695 -0.5491 -0.7791
  388MOL0     C52264  10.487   1.000  11.201 -0.7632 -0.2980 -0.3175
  388MOL0     C52265  10.574   0.928  11.307 -1.0839 -0.4626 -0.1795
  388MOL0     C52266  10.718   0.973  11.287 -0.0617 -0.8156 -0.4826
  388MOL0     C52267  10.811   0.925  11.397 -0.6487  0.2658  0.3284
  388MOL0     C52268  10.953   0.944  11.361 -0.6105 -0.1527 -0.0953
  388MOL0     O52269  11.019   0.991  11.483  0.6913  1.0429  0.4699
  388MOL0     C52270  11.157   0.982  11.489 -0.3785 -0.0941  0.0875
  388MOL0     C52271  11.225   0.954  11.610  0.4858 -0.0688 -0.6623
  388MOL0     C52272  11.358   0.963  11.617 -0.4647  0.0123 -0.5447
  388MOL0     C52273  11.435   1.006  11.505 -0.7223  0.5722 -0.3614
  388MOL0     C52274  11.587   1.008  11.519 -0.0998  0.6746  1.1868
  388MOL0     O52275  11.666   1.004  11.403 -0.0100 -0.7881  0.5880
  388MOL0     C52276  11.803   1.011  11.430  0.0669 -0.3250  1.3311
  388MOL0     C52277  11.866   1.122  11.487 -0.3598  0.2181 -0.2551
  388MOL0     C52278  12.005   1.141  11.499  0.4069  0.3762  0.0590
  388MOL0     C52279  12.091   1.045  11.437 -0.8811 -0.3089  0.7461
  388MOL0     O52280  12.220   1.075  11.422 -0.6695  0.6972  0.2031
  388MOL0     C52281  12.270   1.207  11.426 -0.7305  0.5101  0.0183
  388MOL0     C52282  12.393   1.221  11.344 -0.0160 -0.8713  0.3669
  388MOL0     C52283  12.491   1.326  11.401  0.1736 -1.2607  0.0009
  388MOL0     C52284  12.617   1.321  11.323  0.4051 -0.5176  0.2429
  388MOL0     C52285  12.730   1.420  11.370  0.8881  0.2461  0.2736
  388MOL0     C52286  12.857   1.414  11.279  0.1114 -0.0250  0.7550
  388MOL0     C52287  12.953   1.523  11.319 -0.4415  0.3196  0.7105
  388MOL0     C52288  13.055   1.537  11.207 -0.0316  0.4749  1.7042
  388MOL0    Cl52289  12.984   1.642  11.080 -0.2836 -0.5342 -0.1381
  388MOL0     C52290  12.029   0.937  11.380  0.0781  0.1050 -0.7262
  388MOL0     C52291  11.891   0.914  11.377  0.3870  0.5556 -0.4184
  388MOL0     O52292  11.626   1.010  11.635  0.1265 -0.1518  0.2621
  388MOL0     C52293  11.367   1.031  11.389  0.2889 -0.2077 -0.5890
  388MOL0     C52294  11.229   1.018  11.375  0.1544 -0.0043  0.0486
  388MOL0     N52295  10.461   1.140  11.195 -0.6969 -0.0965 -0.4873
  388MOL0     N52296  10.384   1.172  11.096 -0.1149  0.0667 -0.3133
  388MOL0     C52297   9.410   0.446  10.730 -0.6339 -0.2498  0.7576
  388MOL0     C52298   9.292   0.381  10.754  0.7555  0.6932 -0.0494
  388MOL0     C52299   8.832   0.352  10.761 -0.0259 -1.3968 -0.1827
  388MOL0     C52300   8.828   0.215  10.717  0.0954 -0.7451  0.1203
  388MOL0     C52301   8.713   0.140  10.722  0.8223 -0.4673  0.3779
  388MOL0     C52302   8.600   0.191  10.772  0.1995 -0.0379 -0.3225
  388MOL0     O52303   8.490   0.109  10.773  0.1186 -0.5974 -0.1288
  388MOL0     C52304   8.368   0.141  10.843 -0.4259 -0.5984  0.1568
  388MOL0     C52305   8.269   0.034  10.815  0.3389 -0.6773 -0.3108
  388MOL0     C52306   8.139   0.070  10.890 -0.3552  0.7781  0.3250
  388MOL0     C52307   8.069  -0.059  10.930 -0.4632  0.1084  0.0561
  388MOL0     C52308   7.923  -0.032  10.953 -0.0503 -0.0605 -0.8419
  388MOL0     C52309   7.812  -0.010  10.994  0.8340  0.3311 -0.8616
  388MOL0     C52310   8.598   0.321  10.820  0.4183  0.0688 -0.2466
  388MOL0     C52311   8.712   0.403  10.810  0.5153 -0.0022 -0.3865
  388MOL0     C52312   8.697   0.549  10.847 -0.7639 -0.2512 -0.3048
  388MOL0     H52313   9.104   0.591  10.539 -0.1823 -0.7053 -0.2115
  388MOL0     H52314   9.309   0.718  10.559 -0.6375 -0.1567 -0.2667
  388MOL0     H52315   9.512   0.712  10.466 -1.5450 -0.5906  1.0708
  388MOL0     H52316   9.493   0.821  10.615  1.5801 -0.6731  3.1867
  388MOL0     H52317   9.687   0.828  10.447 -3.4367  1.0173  0.5093
  388MOL0     H52318   9.761   0.690  10.528  0.2745  0.6184  0.8018
  388MOL0     H52319   9.706   0.812  10.744 -1.6826 -1.0051 -1.5254
  388MOL0     H52320   9.687   0.957  10.646  0.0272  0.6973  0.0304
  388MOL0     H52321   9.946   0.797  10.646  1.7757  0.2738  1.5264
  388MOL0     H52322   9.925   0.960  10.573 -0.5884  2.0881  0.5451
  388MOL0     H52323   9.863   1.034  10.809  2.7917  1.3119 -0.9668
  388MOL0     H52324   9.918   0.879  10.872 -0.0906  0.0289  1.0917
  388MOL0     H52325  10.124   0.939  10.705  1.1160 -0.1787  0.3502
  388MOL0     H52326  10.079   1.107  10.726 -3.0585  0.1578  0.8138
  388MOL0     H52327  10.143   0.917  10.970  0.2913  2.2213  3.7773
  388MOL0     H52328  10.087   1.094  10.965 -2.5578 -0.7384  0.0052
  388MOL0     H52329  10.347   0.982  10.848 -1.5612 -0.8613  0.4013
  388MOL0     H52330  10.283   1.158  10.873 -3.4387  0.1511 -1.0300
  388MOL0     H52331  10.420   0.838  11.087 -0.3465 -0.7912  0.9455
  388MOL0     H52332  10.544   0.957  11.409  1.9125  0.7903  0.4867
  388MOL0     H52333  10.565   0.820  11.295  2.4529 -1.4019  3.3818
  388MOL0     H52334  10.760   0.946  11.190  0.0042 -2.8992  0.0706
  388MOL0     H52335  10.721   1.082  11.293  3.1116 -0.8484  0.5426
  388MOL0     H52336  10.800   0.818  11.418 -2.2430 -0.1352 -2.0939
  388MOL0     H52337  10.778   0.975  11.488  0.6426  0.0377  0.9400
  388MOL0     H52338  10.963   1.026  11.289 -0.0215 -1.1698 -1.2041
  388MOL0     H52339  10.990   0.849  11.323  0.0340  0.2080 -0.3950
  388MOL0     H52340  11.174   0.918  11.698  1.6485 -2.5597 -0.9140
  388MOL0     H52341  11.400   0.940  11.714 -1.0890  1.4966  0.0896
  388MOL0     H52342  11.804   1.197  11.535 -0.1572  0.6279 -0.6290
  388MOL0     H52343  12.034   1.228  11.556 -1.2260  0.2652  1.1490
  388MOL0     H52344  12.200   1.281  11.387 -1.0509 -1.3801 -3.3635
  388MOL0     H52345  12.290   1.215  11.533  0.7772  0.9330 -0.2702
  388MOL0     H52346  12.439   1.121  11.338 -0.8694 -1.2151 -0.8658
  388MOL0     H52347  12.363   1.243  11.241 -2.9951 -0.4573  1.2489
  388MOL0     H52348  12.436   1.420  11.397  0.9330 -0.8352 -2.3466
  388MOL0     H52349  12.518   1.313  11.506 -2.0238  0.4229  0.8436
  388MOL0     H52350  12.603   1.335  11.216 -1.5214  0.7093  0.6097
  388MOL0     H52351  12.650   1.217  11.336 -1.8626 -1.3634 -0.1643
  388MOL0     H52352  12.758   1.387  11.470  0.9113 -0.5666  0.0085
  388MOL0     H52353  12.696   1.524  11.364 -0.0006  0.0164  1.1855
  388MOL0     H52354  12.905   1.316  11.291  2.2829  1.1291  2.1917
  388MOL0     H52355  12.828   1.415  11.173 -1.5241  0.0444  1.1848
  388MOL0     H52356  13.004   1.493  11.411 -0.8520  1.9838  1.5123
  388MOL0     H52357  12.897   1.611  11.351 -3.3045 -0.5003 -1.5873
  388MOL0     H52358  13.149   1.578  11.244  0.7496 -0.9238  1.3606
  388MOL0     H52359  13.085   1.436  11.178  1.7311  1.0943  1.2877
  388MOL0     H52360  12.093   0.861  11.336 -1.0090 -1.0358 -0.4042
  388MOL0     H52361  11.866   0.829  11.314 -1.4617  1.6669 -1.2833
  388MOL0     H52362  11.420   1.077  11.306 -0.0062  1.3335  0.0510
  388MOL0     H52363  11.175   1.055  11.289 -2.9101 -1.1071  1.3602
  388MOL0     H52364   9.508   0.407  10.756 -1.1096 -2.1167 -0.0428
  388MOL0     H52365   9.283   0.294  10.819 -1.0456  1.0840  0.2760
  388MOL0     H52366   8.917   0.181  10.665 -0.0086  1.7665 -1.9172
  388MOL0     H52367   8.712   0.036  10.689 -0.8943 -0.5134  0.4919
  388MOL0     H52368   8.349   0.244  10.811 -0.6349  0.6031  3.7226
  388MOL0     H52369   8.382   0.151  10.951  0.6649  0.7258 -0.0817
  388MOL0     H52370   8.312  -0.065  10.834  0.6080 -0.1923  1.8522
  388MOL0     H52371   8.252   0.042  10.707  2.4569  1.0174 -0.5910
  388MOL0     H52372   8.082   0.125  10.814  0.3732  1.0159 -0.0553
  388MOL0     H52373   8.158   0.138  10.973  2.7345 -0.9875  1.2259
  388MOL0     H52374   8.094  -0.134  10.854 -1.1723 -0.0495 -0.0323
  388MOL0     H52375   8.117  -0.089  11.024  1.5505 -1.5324 -1.4032
  388MOL0     H52376   7.720   0.006  11.046  1.0319 -1.6084  0.1739
  388MOL0     H52377   8.515   0.363  10.877  1.9629  0.5523  1.7904
  388MOL0     H52378   8.757   0.580  10.933  0.1442 -0.1911 -0.9348
  388MOL0     H52379   8.726   0.612  10.762  0.1924 -1.1752 -0.6879
  388MOL0     H52380   8.598   0.582  10.879 -0.2605 -1.9194  3.5452
  389MOL0     O52381   7.913   2.769   8.839 -0.0495 -0.7459  0.2471
  389MOL0     C52382   7.969   2.686   8.758  0.1409 -0.4455  0.7473
  389MOL0     O52383   8.102   2.653   8.756  0.1763  0.7964  0.1583
  389MOL0     C52384   8.204   2.727   8.801 -1.0725 -0.4609 -0.0644
  389MOL0     C52385   8.336   2.692   8.763  0.6760 -0.1545 -0.3398
  389MOL0     C52386   8.449   2.762   8.803 -0.5375  0.2590  0.2086
  389MOL0     C52387   8.436   2.875   8.885 -0.3037  0.1968  0.2612
  389MOL0     O52388   8.548   2.941   8.923  0.8544  0.7921 -0.5432
  389MOL0     C52389   8.655   2.948   8.824  0.7489 -0.1997 -0.6786
  389MOL0     C52390   8.748   3.067   8.843  0.4005 -0.1158 -0.3464
  389MOL0     C52391   8.854   3.060   8.951  0.3384 -0.1982 -0.7900
  389MOL0     C52392   8.967   2.956   8.931 -0.5298 -0.4140 -0.0964
  389MOL0     C52393   9.096   2.993   9.011  0.0080 -0.0388  0.0274
  389MOL0     C52394   9.212   2.893   9.004  0.7864 -0.2733  0.2669
  389MOL0     C52395   9.306   2.892   9.116  0.0861  0.1195  0.9237
  389MOL0     C52396   9.455   2.906   9.068  0.1654 -0.6044 -0.6885
  389MOL0     N52397   9.553   2.873   9.171 -0.2432  0.2557 -0.5319
  389MOL0     C52398   9.633   2.969   9.230  0.1773  0.4707 -0.2890
  389MOL0     C52399   9.706   2.897   9.319  0.7312  0.0628  0.2010
  389MOL0     C52400   9.817   2.954   9.400 -0.1026  0.1730  0.1601
  389MOL0     C52401   9.946   2.867   9.385  0.1488 -0.1379  1.1733
  389MOL0     C52402  10.041   2.895   9.506 -0.3276 -0.5543  0.4413
  389MOL0     C52403  10.128   3.020   9.494 -0.1479  0.3282 -0.1602
  389MOL0     O52404  10.189   3.020   9.362  0.7659 -0.1274  0.4372
  389MOL0     C52405  10.324   2.984   9.353 -0.3077 -0.4872  0.7849
  389MOL0     C52406  10.396   3.050   9.257  0.6212 -0.1131  0.4125
  389MOL0     C52407  10.530   3.049   9.237 -1.2180 -0.3548 -0.7067
  389MOL0     C52408  10.615   2.986   9.332 -0.1770  0.2290 -0.4343
  389MOL0     C52409  10.764   2.978   9.323  0.3807  0.4045  0.2530
  389MOL0     O52410  10.815   3.047   9.213  0.0463  0.2169 -0.4352
  389MOL0     C52411  10.945   3.042   9.178 -0.2717 -0.5914  0.9772
  389MOL0     C52412  10.998   2.967   9.069 -0.2171 -0.1325 -0.9485
  389MOL0     C52413  11.139   2.939   9.060 -0.3761  0.1264 -0.2974
  389MOL0     C52414  11.226   3.009   9.153  0.7626  1.2017 -0.0336
  389MOL0     O52415  11.358   2.997   9.154  0.4843 -0.5539  0.2035
  389MOL0     C52416  11.416   2.898   9.072  0.0645 -0.1949  0.8620
  389MOL0     C52417  11.571   2.903   9.117 -0.2013  0.2319  0.7636
  389MOL0     C52418  11.629   2.782   9.050  0.0585  0.9878  0.2048
  389MOL0     C52419  11.779   2.784   9.059  0.6148 -0.4344  0.0011
  389MOL0     C52420  11.848   2.668   8.983 -0.4614 -0.2490  0.9688
  389MOL0     C52421  11.977   2.705   8.905 -0.3473  0.4055  0.3570
  389MOL0     C52422  12.100   2.745   8.987 -0.1687 -0.6409 -0.5337
  389MOL0     C52423  12.223   2.715   8.908 -1.2007  0.3849  0.5996
  389MOL0    Cl52424  12.373   2.776   8.985 -0.1845 -0.2131 -0.1657
  389MOL0     C52425  11.175   3.085   9.260 -0.1242  0.0941  0.1957
  389MOL0     C52426  11.037   3.110   9.262 -0.2246  0.5188 -0.4818
  389MOL0     O52427  10.831   2.919   9.407  0.5541 -0.0587  0.3669
  389MOL0     C52428  10.544   2.912   9.430  0.3851  1.1196  0.6884
  389MOL0     C52429  10.404   2.906   9.433  0.8881 -1.1824 -0.5183
  389MOL0     N52430   9.661   2.765   9.327 -0.0338  0.2725  0.9279
  389MOL0     N52431   9.575   2.743   9.230 -0.2275 -0.4152 -0.4244
  389MOL0     C52432   8.310   2.922   8.916  0.4147  0.5926  0.0183
  389MOL0     C52433   8.196   2.848   8.883 -0.1954  0.0686 -0.3442
  389MOL0     C52434   7.868   2.622   8.679 -0.3701  0.7048 -0.0714
  389MOL0     C52435   7.734   2.657   8.699 -0.1151 -0.2859 -0.2916
  389MOL0     C52436   7.631   2.611   8.622  0.4470  0.2709  0.3236
  389MOL0     C52437   7.659   2.532   8.508  0.2979 -0.6485 -0.3415
  389MOL0     O52438   7.567   2.487   8.412  0.3340  0.4324 -0.4124
  389MOL0     C52439   7.424   2.487   8.437  0.2855 -0.2012  0.0087
  389MOL0     C52440   7.362   2.381   8.357  0.7198  0.0874  1.0574
  389MOL0     C52441   7.363   2.233   8.411  0.1310 -0.1634  0.4949
  389MOL0     C52442   7.502   2.169   8.396 -0.2578 -0.1935  0.1460
  389MOL0     C52443   7.485   2.032   8.451 -0.1030 -1.0360  0.0893
  389MOL0     C52444   7.464   1.924   8.508  0.5974 -0.0428 -0.1930
  389MOL0     C52445   7.794   2.509   8.481 -0.5277 -0.2883  0.3557
  389MOL0     C52446   7.898   2.539   8.568  0.6702  0.6123 -0.6616
  389MOL0     C52447   8.034   2.480   8.539  0.7326 -0.3195 -0.4284
  389MOL0     H52448   8.334   2.595   8.714  0.3653 -1.5391  2.2457
  389MOL0     H52449   8.551   2.730   8.783  0.0617  2.1945 -0.0554
  389MOL0     H52450   8.709   2.853   8.828 -0.4306 -0.8453  0.3629
  389MOL0     H52451   8.627   2.949   8.718  3.5019 -4.6943 -1.7419
  389MOL0     H52452   8.685   3.155   8.860 -0.2267 -0.3118 -1.6034
  389MOL0     H52453   8.793   3.097   8.748 -2.2439  0.1263 -1.5942
  389MOL0     H52454   8.808   3.039   9.048 -1.6004  2.7298 -0.9253
  389MOL0     H52455   8.886   3.165   8.953 -2.9453  0.9703 -1.7184
  389MOL0     H52456   8.939   2.855   8.961  0.4609 -1.3384 -2.0391
  389MOL0     H52457   8.984   2.953   8.823 -1.2337  2.5698 -0.3672
  389MOL0     H52458   9.126   3.091   8.974 -2.1449  0.5614 -0.2875
  389MOL0     H52459   9.081   3.001   9.119  0.6182 -2.7038  0.3970
  389MOL0     H52460   9.167   2.793   9.004  1.0867 -0.4081  0.0848
  389MOL0     H52461   9.268   2.905   8.911  2.2839  1.6126  1.3342
  389MOL0     H52462   9.295   2.797   9.170  0.4528 -0.2866  0.3047
  389MOL0     H52463   9.280   2.971   9.186 -1.8064 -2.2172  3.0634
  389MOL0     H52464   9.466   2.837   8.983 -0.5575  0.8208 -1.9741
  389MOL0     H52465   9.480   3.002   9.023 -1.0896  0.8632  1.5802
  389MOL0     H52466   9.635   3.069   9.189  0.8491  0.2838 -0.7304
  389MOL0     H52467   9.843   3.058   9.383 -1.6032  0.5334 -0.0553
  389MOL0     H52468   9.779   2.955   9.503 -0.9140 -0.9089 -0.1078
  389MOL0     H52469   9.932   2.759   9.393  0.8093 -0.3460 -0.1127
  389MOL0     H52470   9.993   2.873   9.286 -2.2090 -1.4062 -0.1089
  389MOL0     H52471  10.112   2.813   9.519  1.3883  0.8709  0.4191
  389MOL0     H52472   9.984   2.909   9.598 -1.3882  0.3262 -0.3240
  389MOL0     H52473  10.205   3.025   9.571  0.5471  2.2375 -0.9206
  389MOL0     H52474  10.063   3.108   9.502 -0.2041  0.3562 -0.8549
  389MOL0     H52475  10.340   3.114   9.190  0.7926  0.3696  0.7270
  389MOL0     H52476  10.570   3.094   9.147 -1.2352 -0.5447 -0.8077
  389MOL0     H52477  10.923   2.925   9.002 -0.4154  1.1551 -1.5631
  389MOL0     H52478  11.176   2.882   8.975 -0.6039 -1.2378  0.4937
  389MOL0     H52479  11.381   2.795   9.079 -1.3593 -0.2504 -3.8192
  389MOL0     H52480  11.414   2.940   8.971 -0.9990  1.0226  1.3586
  389MOL0     H52481  11.618   2.993   9.075 -0.7299  0.1657  0.0079
  389MOL0     H52482  11.597   2.897   9.223 -0.1628 -0.8442  0.7058
  389MOL0     H52483  11.581   2.694   9.095 -1.1061  2.1789  1.4038
  389MOL0     H52484  11.596   2.787   8.946 -1.1828  0.9148  0.5765
  389MOL0     H52485  11.787   2.797   9.167  0.0641  0.6466 -0.0691
  389MOL0     H52486  11.820   2.870   9.005  2.8063  0.1107  2.3781
  389MOL0     H52487  11.780   2.619   8.913 -0.1676 -0.1310  0.5987
  389MOL0     H52488  11.876   2.598   9.062  0.8687 -0.4683  0.3322
  389MOL0     H52489  12.013   2.617   8.851  2.6117 -1.2821  4.5161
  389MOL0     H52490  11.958   2.785   8.833 -0.0392 -0.4281 -0.6726
  389MOL0     H52491  12.102   2.684   9.078  1.1559 -2.7476 -1.8676
  389MOL0     H52492  12.105   2.850   9.016  0.6745 -1.7038  3.7697
  389MOL0     H52493  12.233   2.607   8.905 -0.7816  0.3830  1.6409
  389MOL0     H52494  12.213   2.760   8.809 -0.3344 -0.1445  0.2705
  389MOL0     H52495  11.236   3.125   9.340 -0.4959 -2.0702  1.6413
  389MOL0     H52496  11.013   3.176   9.344  1.6125  0.5977  0.0384
  389MOL0     H52497  10.608   2.856   9.499  1.0983  1.9618  0.7206
  389MOL0     H52498  10.363   2.841   9.510 -1.1756  1.0362  0.3951
  389MOL0     H52499   8.299   3.012   8.975 -2.0329  0.2698  0.1931
  389MOL0     H52500   8.102   2.874   8.930 -0.6140 -0.5275 -0.8294
  389MOL0     H52501   7.702   2.728   8.775  2.7029 -0.8319  1.5677
  389MOL0     H52502   7.526   2.616   8.647  0.5714 -2.1057  1.6462
  389MOL0     H52503   7.375   2.580   8.405 -0.5615 -0.4946  0.4003
  389MOL0     H52504   7.401   2.474   8.543 -1.5849 -1.0766 -0.4495
  389MOL0     H52505   7.415   2.390   8.261  0.4058 -2.4130  0.5928
  389MOL0     H52506   7.256   2.403   8.340  0.2353 -0.1554  3.4117
  389MOL0     H52507   7.281   2.184   8.359  1.2898 -1.5237 -0.1165
  389MOL0     H52508   7.338   2.237   8.517  1.8400 -1.1472  0.9848
  389MOL0     H52509   7.536   2.163   8.293  0.2537  0.9057  0.2374
  389MOL0     H52510   7.570   2.227   8.459 -1.2116 -0.2239  1.2430
  389MOL0     H52511   7.453   1.829   8.558  3.3078 -1.2038 -1.5814
  389MOL0     H52512   7.808   2.464   8.383 -0.3681  0.3979  0.0592
  389MOL0     H52513   8.083   2.440   8.628  1.6828 -0.7844 -1.1403
  389MOL0     H52514   8.023   2.397   8.467 -0.7848 -1.1310  0.6601
  389MOL0     H52515   8.085   2.567   8.497 -2.6387  0.7793 -2.6547
  390MOL0     O52516   8.177   3.242   4.045  0.1036 -0.0915 -0.0492
  390MOL0     C52517   8.250   3.269   4.139 -0.0244  0.4427  0.3237
  390MOL0     O52518   8.206   3.287   4.272  0.4207 -0.3571 -0.5904
  390MOL0     C52519   8.081   3.260   4.322 -0.1617 -0.4501 -0.1275
  390MOL0     C52520   8.042   3.321   4.436  0.8619  0.4733 -0.4366
  390MOL0     C52521   7.924   3.287   4.498 -0.5970  0.3401 -0.7537
  390MOL0     C52522   7.836   3.193   4.441  1.1906 -0.2698 -0.3803
  390MOL0     O52523   7.723   3.151   4.500 -0.5985 -0.0951  0.7833
  390MOL0     C52524   7.630   3.250   4.560  0.1957  0.2096 -0.3338
  390MOL0     C52525   7.556   3.194   4.683  0.7557 -0.2981 -0.3768
  390MOL0     C52526   7.470   3.290   4.759 -0.1953 -0.3312 -0.4283
  390MOL0     C52527   7.439   3.258   4.906 -0.5072  0.8972  0.3421
  390MOL0     C52528   7.341   3.141   4.930  0.2072  0.0552 -0.0396
  390MOL0     C52529   7.193   3.185   4.919 -0.3124  0.1278 -0.0128
  390MOL0     C52530   7.085   3.079   4.915 -0.2112 -0.2241 -1.0207
  390MOL0     C52531   7.106   2.961   5.011  0.2418  0.1372 -0.1486
  390MOL0     N52532   7.089   3.000   5.153  0.1715 -0.0104 -0.2449
  390MOL0     C52533   6.986   3.073   5.191  0.4212  0.4505  0.7322
  390MOL0     C52534   7.012   3.124   5.307 -0.2702 -0.6565 -0.3389
  390MOL0     C52535   6.936   3.214   5.399 -0.5029  0.3756  0.0124
  390MOL0     C52536   6.827   3.129   5.462  0.6139  0.5570  1.1594
  390MOL0     C52537   6.711   3.192   5.536 -0.4436 -1.2479  0.2980
  390MOL0     C52538   6.749   3.282   5.653 -0.6105  0.6361  1.5513
  390MOL0     O52539   6.847   3.218   5.738 -0.0309 -0.8914  0.6893
  390MOL0     C52540   6.945   3.294   5.795 -0.6030 -0.6202 -0.9803
  390MOL0     C52541   7.070   3.226   5.817 -0.6560  0.4637  0.6502
  390MOL0     C52542   7.170   3.289   5.880  0.3826  0.3342  0.9952
  390MOL0     C52543   7.147   3.416   5.937  0.3220  0.6470  0.3346
  390MOL0     C52544   7.252   3.476   6.017 -0.0861 -0.5043  0.1763
  390MOL0     O52545   7.369   3.417   6.009  0.5224  0.4941  0.1569
  390MOL0     C52546   7.485   3.473   6.062 -0.1437 -0.1362 -0.3737
  390MOL0     C52547   7.573   3.379   6.114 -0.4643  0.1589 -0.5016
  390MOL0     C52548   7.699   3.426   6.165  0.2314 -0.6799 -0.9615
  390MOL0     C52549   7.733   3.562   6.164 -0.7501  0.2344 -0.8667
  390MOL0     O52550   7.867   3.595   6.201  0.1142 -0.5042  0.7282
  390MOL0     C52551   7.925   3.726   6.177  0.7943  0.0201  0.5345
  390MOL0     C52552   8.073   3.732   6.162  0.5659 -0.3811  0.4707
  390MOL0     C52553   8.116   3.674   6.022 -0.4717  0.1922 -0.0919
  390MOL0     C52554   8.273   3.668   6.013  0.1937  0.7474 -0.7087
  390MOL0     C52555   8.306   3.585   5.887 -0.0281  0.1739 -0.4260
  390MOL0     C52556   8.458   3.582   5.868  0.5579  0.0411 -0.5363
  390MOL0     C52557   8.496   3.514   5.741  2.1109  0.1373  0.2118
  390MOL0     C52558   8.644   3.537   5.706  0.7402 -0.1900 -0.5608
  390MOL0    Cl52559   8.754   3.500   5.840  0.0828  0.0855  0.8114
  390MOL0     C52560   7.640   3.658   6.109  0.6846  0.3149  0.1581
  390MOL0     C52561   7.519   3.610   6.055 -0.1498 -0.2099 -0.1893
  390MOL0     O52562   7.230   3.582   6.075  0.0772 -0.4481  0.2223
  390MOL0     C52563   7.024   3.483   5.917  0.1142 -0.2250 -0.7902
  390MOL0     C52564   6.930   3.425   5.836 -0.2826  0.3405 -0.1686
  390MOL0     N52565   7.135   3.083   5.341 -0.4612  0.5782 -0.0135
  390MOL0     N52566   7.183   3.009   5.244  0.3232 -0.3741  0.0684
  390MOL0     C52567   7.871   3.130   4.322  0.0328 -0.1298  0.5684
  390MOL0     C52568   7.999   3.150   4.268  0.7928 -1.1673  0.6560
  390MOL0     C52569   8.392   3.301   4.096 -0.3298  0.3128 -0.0342
  390MOL0     C52570   8.426   3.305   3.958  0.6063  0.4638 -0.3138
  390MOL0     C52571   8.554   3.331   3.914 -0.5003 -1.1070  0.6493
  390MOL0     C52572   8.655   3.364   4.003 -0.6991  0.4564  0.5843
  390MOL0     O52573   8.775   3.389   3.939  0.2177 -0.0205  0.4847
  390MOL0     C52574   8.878   3.465   4.006 -0.4472  0.3039  0.2751
  390MOL0     C52575   8.969   3.544   3.909  0.2799  0.2694  0.2366
  390MOL0     C52576   9.080   3.616   3.983 -0.7461  0.3331 -0.4356
  390MOL0     C52577   9.188   3.523   4.055 -0.5221  0.3205 -0.2626
  390MOL0     C52578   9.311   3.597   4.091  0.6345  0.4366  1.0348
  390MOL0     C52579   9.403   3.669   4.110  1.0095  0.3507 -0.3309
  390MOL0     C52580   8.624   3.364   4.142  0.0356  0.5544 -0.0842
  390MOL0     C52581   8.493   3.322   4.188 -0.9907 -0.1062  0.3538
  390MOL0     C52582   8.483   3.318   4.332  0.6399  0.2322 -0.2644
  390MOL0     H52583   8.103   3.397   4.483 -0.5068  0.5391  1.3206
  390MOL0     H52584   7.900   3.338   4.591  0.9692 -0.3589  0.0667
  390MOL0     H52585   7.686   3.342   4.579 -0.2494  0.3262  0.4636
  390MOL0     H52586   7.556   3.279   4.486 -0.0407 -0.2977 -0.3037
  390MOL0     H52587   7.631   3.160   4.755  0.6502  1.3656  0.5763
  390MOL0     H52588   7.505   3.101   4.656  0.5095 -0.4001  0.4264
  390MOL0     H52589   7.378   3.309   4.703 -1.1347 -1.3614  0.6982
  390MOL0     H52590   7.534   3.379   4.756 -0.1373 -0.2259  2.1581
  390MOL0     H52591   7.530   3.224   4.956 -1.8369 -1.9162  1.0716
  390MOL0     H52592   7.407   3.347   4.961 -0.0765  1.5796 -0.4974
  390MOL0     H52593   7.369   3.066   4.856 -3.0106  1.3553 -2.8270
  390MOL0     H52594   7.368   3.103   5.029  0.6555  2.0529  0.6678
  390MOL0     H52595   7.173   3.247   5.007 -2.7052 -1.3086  0.5535
  390MOL0     H52596   7.184   3.239   4.824  1.8214 -1.2911 -1.0936
  390MOL0     H52597   7.079   3.044   4.811  2.0300  0.3111 -1.3953
  390MOL0     H52598   6.994   3.132   4.943  0.3379  0.4990 -0.5785
  390MOL0     H52599   7.044   2.873   4.988  1.5287 -0.2654 -2.4057
  390MOL0     H52600   7.205   2.915   5.007 -0.4857 -1.5342 -0.0355
  390MOL0     H52601   6.893   3.083   5.135  0.5666 -0.1431  0.3666
  390MOL0     H52602   7.003   3.249   5.477 -0.2127  0.6718 -0.3647
  390MOL0     H52603   6.893   3.304   5.355  2.2594  1.2674 -1.0686
  390MOL0     H52604   6.775   3.086   5.376 -0.4928  0.1298  2.0156
  390MOL0     H52605   6.870   3.048   5.522  0.4893 -0.2012  0.2388
  390MOL0     H52606   6.651   3.112   5.580  1.1614 -2.5075  0.3049
  390MOL0     H52607   6.646   3.246   5.466  0.4728  0.1884  0.5144
  390MOL0     H52608   6.665   3.317   5.713 -0.8448  1.0399  0.9971
  390MOL0     H52609   6.798   3.371   5.611 -0.4249 -0.8287 -1.6436
  390MOL0     H52610   7.083   3.124   5.781  2.7737  1.1875 -0.5889
  390MOL0     H52611   7.264   3.234   5.885 -1.4696 -3.0737  0.7649
  390MOL0     H52612   7.547   3.275   6.099  0.2126  0.0952 -1.3431
  390MOL0     H52613   7.776   3.361   6.205  0.0287  0.1587  0.9125
  390MOL0     H52614   7.881   3.753   6.081  1.1594 -3.4011 -0.7222
  390MOL0     H52615   7.891   3.790   6.259 -2.5012  0.2968 -0.8660
  390MOL0     H52616   8.109   3.835   6.170  1.5957 -0.6031 -0.8878
  390MOL0     H52617   8.121   3.676   6.243 -2.1532 -0.9899  1.7846
  390MOL0     H52618   8.070   3.577   6.001 -0.1918 -0.0013  0.2001
  390MOL0     H52619   8.083   3.746   5.946 -1.5997  2.5855  2.4827
  390MOL0     H52620   8.320   3.611   6.094 -0.3589  2.0877  0.5969
  390MOL0     H52621   8.321   3.766   6.009  2.1211 -0.1715 -1.5922
  390MOL0     H52622   8.262   3.632   5.799  1.2320  1.4627 -0.4009
  390MOL0     H52623   8.270   3.483   5.904  3.2585 -0.5571  4.6522
  390MOL0     H52624   8.494   3.685   5.880  0.1335 -0.0732  2.0716
  390MOL0     H52625   8.504   3.534   5.955 -2.9382 -2.0804  0.3583
  390MOL0     H52626   8.426   3.549   5.665 -2.4784 -2.4560  2.7765
  390MOL0     H52627   8.484   3.406   5.755  0.8188  0.1812 -0.4067
  390MOL0     H52628   8.670   3.461   5.632  1.3143  0.0952 -0.6545
  390MOL0     H52629   8.644   3.644   5.683 -1.6467  1.3134  4.7467
  390MOL0     H52630   7.658   3.765   6.106  1.9853  0.1389  0.9575
  390MOL0     H52631   7.457   3.692   6.022 -3.4885 -2.6132 -0.3324
  390MOL0     H52632   7.001   3.576   5.969  1.5335  0.5154 -1.4146
  390MOL0     H52633   6.840   3.485   5.825  1.3272  2.7456 -0.9346
  390MOL0     H52634   7.812   3.054   4.272  2.1900 -0.9921 -0.7962
  390MOL0     H52635   8.038   3.095   4.183  1.5276  1.2512 -0.6836
  390MOL0     H52636   8.347   3.287   3.886  0.0052 -1.2544  0.6914
  390MOL0     H52637   8.573   3.318   3.808 -2.1141  1.7929 -0.0983
  390MOL0     H52638   8.948   3.398   4.056 -1.9808 -0.2910  1.6865
  390MOL0     H52639   8.833   3.528   4.083 -2.2454  1.0182 -1.2681
  390MOL0     H52640   8.914   3.618   3.851 -0.9229  0.1501  1.1747
  390MOL0     H52641   9.010   3.479   3.831  1.3404  0.4664  0.6213
  390MOL0     H52642   9.029   3.681   4.054 -4.4820 -1.2064 -1.4409
  390MOL0     H52643   9.135   3.680   3.913  0.6786 -0.7568 -0.3562
  390MOL0     H52644   9.161   3.477   4.151  1.6987  2.9352  1.7853
  390MOL0     H52645   9.217   3.446   3.983 -1.0130  1.0241 -1.2325
  390MOL0     H52646   9.496   3.722   4.115  1.0369  0.9004 -3.9863
  390MOL0     H52647   8.701   3.387   4.215 -1.4491  2.0293  1.0929
  390MOL0     H52648   8.420   3.230   4.350 -0.9024  0.8548 -2.1781
  390MOL0     H52649   8.583   3.303   4.373  1.4425  0.6645 -1.9547
  390MOL0     H52650   8.441   3.405   4.384  2.0532 -0.1083  1.5380
  391MOL0     O52651   5.430   8.926   2.365 -0.0996 -0.4998 -0.4996
  391MOL0     C52652   5.420   9.027   2.298 -0.7097  0.2231  0.6871
  391MOL0     O52653   5.516   9.123   2.284 -0.7447 -0.5785 -0.9135
  391MOL0     C52654   5.642   9.092   2.319 -0.7334  0.0957  0.2582
  391MOL0     C52655   5.707   8.981   2.262  0.3201  0.5856  0.3052
  391MOL0     C52656   5.844   8.962   2.287  0.1561  0.6201 -0.3172
  391MOL0     C52657   5.925   9.060   2.349 -1.1428  0.3438  0.1061
  391MOL0     O52658   6.061   9.049   2.343 -0.2436 -0.6745 -0.3706
  391MOL0     C52659   6.132   9.135   2.437 -0.9896 -0.1962 -0.0870
  391MOL0     C52660   6.279   9.075   2.442  0.0233  0.7054 -0.7279
  391MOL0     C52661   6.390   9.178   2.467 -0.1133 -0.3027  0.5382
  391MOL0     C52662   6.530   9.122   2.491  0.1709  0.1507  0.0435
  391MOL0     C52663   6.641   9.226   2.514 -0.5429  0.2122  0.2353
  391MOL0     C52664   6.772   9.157   2.540  0.0501 -0.4340  0.1983
  391MOL0     C52665   6.876   9.267   2.585 -0.2036 -0.2274  0.4325
  391MOL0     C52666   6.994   9.191   2.650 -0.2355  0.0915  0.1720
  391MOL0     N52667   7.086   9.288   2.717 -0.1618 -0.3589  0.2887
  391MOL0     C52668   7.048   9.364   2.828  0.4489  0.1678  0.0798
  391MOL0     C52669   7.128   9.474   2.819 -0.2650 -0.3562 -0.1968
  391MOL0     C52670   7.128   9.593   2.911 -0.7655  0.4698  0.1765
  391MOL0     C52671   7.253   9.606   2.999 -0.3401 -0.0108  0.1793
  391MOL0     C52672   7.254   9.498   3.114  0.5513 -0.2526  0.5710
  391MOL0     C52673   7.381   9.501   3.197 -0.4820  0.5523 -0.5912
  391MOL0     O52674   7.369   9.395   3.295 -0.0548 -0.6061 -0.7288
  391MOL0     C52675   7.483   9.359   3.370  0.9259 -0.4285  0.1801
  391MOL0     C52676   7.479   9.240   3.436 -0.5962  0.6902  0.1954
  391MOL0     C52677   7.595   9.212   3.518 -0.6693  0.2079  0.2415
  391MOL0     C52678   7.701   9.301   3.524 -0.4588 -0.1670 -0.7957
  391MOL0     C52679   7.805   9.269   3.615 -0.1050  0.2792 -0.9287
  391MOL0     O52680   7.836   9.139   3.642  0.0910  0.2193  0.8497
  391MOL0     C52681   7.949   9.106   3.712  0.2030 -0.0212  0.6381
  391MOL0     C52682   7.950   9.116   3.850 -0.1133 -0.3358 -0.4587
  391MOL0     C52683   8.047   9.050   3.920 -0.2943 -0.2853  0.7686
  391MOL0     C52684   8.160   9.005   3.854  0.4635  0.0650 -0.5882
  391MOL0     O52685   8.257   8.935   3.924 -0.7676 -0.2177 -0.3195
  391MOL0     C52686   8.399   8.976   3.906  0.2536 -0.3270  0.5653
  391MOL0     C52687   8.461   9.076   4.004  0.0512 -0.5776 -0.4572
  391MOL0     C52688   8.390   9.211   3.999 -0.3693 -0.6134  0.1031
  391MOL0     C52689   8.399   9.296   4.118  0.0330 -0.8526  0.4572
  391MOL0     C52690   8.319   9.418   4.093 -0.3066  0.6231  0.1620
  391MOL0     C52691   8.387   9.532   4.163 -1.0930 -0.0296 -0.2023
  391MOL0     C52692   8.369   9.524   4.313  0.2943  0.1168 -0.4112
  391MOL0     C52693   8.440   9.633   4.392 -0.2752  0.8750  0.1121
  391MOL0    Cl52694   8.427   9.584   4.567 -0.3490  0.1044 -0.0129
  391MOL0     C52695   8.165   9.014   3.713 -0.6320 -0.5150 -0.0268
  391MOL0     C52696   8.052   9.058   3.644 -0.3550  1.0867  0.6431
  391MOL0     O52697   7.853   9.364   3.679  0.3632  0.2678  0.7125
  391MOL0     C52698   7.699   9.421   3.453  0.1395  0.2876  0.3483
  391MOL0     C52699   7.586   9.448   3.382 -0.0192 -0.1085 -0.2908
  391MOL0     N52700   7.216   9.463   2.715  0.0010 -0.0332  0.1977
  391MOL0     N52701   7.183   9.350   2.651 -0.0884 -0.1254  0.5170
  391MOL0     C52702   5.850   9.170   2.398  0.0944 -0.7539 -0.4959
  391MOL0     C52703   5.708   9.182   2.402 -0.7438  0.1276  0.7343
  391MOL0     C52704   5.284   9.043   2.236 -0.8902 -0.6890  0.1650
  391MOL0     C52705   5.172   8.963   2.273  0.6695 -0.6476  0.0386
  391MOL0     C52706   5.052   8.966   2.208  0.5799  0.0696 -0.3250
  391MOL0     C52707   5.022   9.052   2.107 -0.2985  0.5694  0.2691
  391MOL0     O52708   4.894   9.061   2.058 -0.2597  0.7793 -0.3382
  391MOL0     C52709   4.833   9.187   2.071  0.2548 -0.0821 -0.1603
  391MOL0     C52710   4.749   9.205   2.207  0.0274 -0.3994  1.0262
  391MOL0     C52711   4.648   9.086   2.241  0.4442 -0.4645  0.3152
  391MOL0     C52712   4.546   9.075   2.136  0.8388  0.4604  0.4749
  391MOL0     C52713   4.455   8.962   2.156 -0.1393  0.0986 -0.0995
  391MOL0     C52714   4.388   8.859   2.172 -0.4018 -0.7505  0.7067
  391MOL0     C52715   5.127   9.126   2.054  0.3855 -0.3503 -0.7552
  391MOL0     C52716   5.262   9.110   2.113  0.2603  0.3894  0.2886
  391MOL0     C52717   5.371   9.180   2.029  0.0572 -0.4346 -0.7312
  391MOL0     H52718   5.645   8.915   2.202 -0.0305  0.8722  0.3453
  391MOL0     H52719   5.901   8.884   2.239  0.0871  2.0539 -2.8901
  391MOL0     H52720   6.140   9.240   2.407 -0.0841  0.1376  1.2507
  391MOL0     H52721   6.098   9.141   2.540 -0.0436 -2.8085  0.4788
  391MOL0     H52722   6.300   9.017   2.352  2.1554 -2.4154  1.5608
  391MOL0     H52723   6.279   9.010   2.530 -0.1697  3.6468  1.6265
  391MOL0     H52724   6.373   9.245   2.552 -0.1349 -0.6086  0.7794
  391MOL0     H52725   6.404   9.246   2.383 -0.7124  2.5602  2.6263
  391MOL0     H52726   6.515   9.070   2.587  1.3331  2.2252  1.4318
  391MOL0     H52727   6.560   9.056   2.409 -0.3297 -0.4434  0.3324
  391MOL0     H52728   6.654   9.293   2.429  2.2603  1.8994  1.8576
  391MOL0     H52729   6.610   9.288   2.599  1.0048  1.2391  0.0708
  391MOL0     H52730   6.763   9.085   2.622  1.0858  1.2608  1.8951
  391MOL0     H52731   6.804   9.100   2.453  1.4339  0.9674 -0.2476
  391MOL0     H52732   6.823   9.331   2.656 -1.1196 -0.3080 -0.1632
  391MOL0     H52733   6.913   9.325   2.500 -1.3312  0.6158  0.5053
  391MOL0     H52734   6.962   9.113   2.720  1.4384 -0.4297  0.4045
  391MOL0     H52735   7.060   9.137   2.581  2.2243 -0.3089  2.6549
  391MOL0     H52736   6.959   9.351   2.889 -0.1459  4.5207  0.4253
  391MOL0     H52737   7.139   9.680   2.847 -1.3668 -2.2604 -4.0170
  391MOL0     H52738   7.033   9.597   2.965  0.8617  2.9639  3.1554
  391MOL0     H52739   7.348   9.591   2.948  0.2404  3.5617 -0.0410
  391MOL0     H52740   7.262   9.706   3.042  1.5648 -0.8124  1.7852
  391MOL0     H52741   7.248   9.397   3.073 -1.0063  0.0532 -0.0172
  391MOL0     H52742   7.173   9.513   3.187  1.4763 -2.0056  2.0661
  391MOL0     H52743   7.397   9.597   3.246 -1.9315  0.3295  0.3799
  391MOL0     H52744   7.457   9.489   3.119  0.5215  1.7945  0.1665
  391MOL0     H52745   7.405   9.163   3.420 -0.1328  0.4023 -0.6851
  391MOL0     H52746   7.588   9.119   3.572  0.0431 -0.7587 -1.2743
  391MOL0     H52747   7.874   9.157   3.916 -1.4482 -0.1187 -2.0630
  391MOL0     H52748   8.049   9.037   4.028 -0.1206 -1.4284  0.6466
  391MOL0     H52749   8.471   8.894   3.911  2.2719  0.9361 -3.3384
  391MOL0     H52750   8.408   9.018   3.805  2.0276  0.8803  1.1625
  391MOL0     H52751   8.461   9.027   4.102  2.0836 -1.5528 -0.8877
  391MOL0     H52752   8.560   9.087   3.959 -1.6437 -0.7441 -4.7113
  391MOL0     H52753   8.448   9.264   3.922  0.5320 -1.1954  0.3696
  391MOL0     H52754   8.285   9.208   3.971 -0.7774  2.4754  0.8389
  391MOL0     H52755   8.499   9.314   4.157 -0.9402  1.6616  2.0145
  391MOL0     H52756   8.354   9.237   4.198 -1.4861 -1.6166 -0.8984
  391MOL0     H52757   8.215   9.407   4.126 -0.7733  0.6067 -1.2470
  391MOL0     H52758   8.314   9.430   3.984  0.0317  1.3110  0.2196
  391MOL0     H52759   8.489   9.543   4.124 -2.0407  2.7468 -2.2984
  391MOL0     H52760   8.336   9.621   4.125  1.6870  1.8625  0.1610
  391MOL0     H52761   8.402   9.429   4.356 -2.2572 -0.0707  1.3537
  391MOL0     H52762   8.263   9.537   4.335  0.7152 -0.1134  2.1216
  391MOL0     H52763   8.548   9.636   4.373 -0.3670  0.6515 -0.4428
  391MOL0     H52764   8.400   9.734   4.375 -3.1954 -0.4774 -1.7774
  391MOL0     H52765   8.256   8.972   3.670 -0.2110  0.0357  0.3048
  391MOL0     H52766   8.049   9.068   3.536  0.2466 -0.1551  0.4947
  391MOL0     H52767   7.779   9.493   3.460  2.6380 -2.0357 -1.8145
  391MOL0     H52768   7.587   9.542   3.328  0.7088 -1.9011 -3.6961
  391MOL0     H52769   5.908   9.255   2.432  3.3745 -3.4353  1.2657
  391MOL0     H52770   5.650   9.262   2.448 -2.8185 -0.9475  0.1567
  391MOL0     H52771   5.181   8.911   2.368  3.0945  0.0363  0.2561
  391MOL0     H52772   4.966   8.912   2.246  2.1739 -1.4908  1.2865
  391MOL0     H52773   4.766   9.206   1.986  0.8643 -1.1725 -0.8918
  391MOL0     H52774   4.903   9.271   2.061 -1.0574  0.9968 -0.6890
  391MOL0     H52775   4.691   9.297   2.196 -1.5170 -1.2258  1.9538
  391MOL0     H52776   4.826   9.210   2.285  2.0656 -1.1399 -0.8253
  391MOL0     H52777   4.602   9.108   2.337  1.4996 -1.9689  1.2043
  391MOL0     H52778   4.689   8.985   2.252 -0.6300 -1.4806 -3.4632
  391MOL0     H52779   4.484   9.165   2.136 -1.1293 -0.7472 -2.1626
  391MOL0     H52780   4.586   9.062   2.035 -0.3146  0.1779  0.0441
  391MOL0     H52781   4.336   8.766   2.185  0.9775 -2.0138 -2.0684
  391MOL0     H52782   5.120   9.199   1.973  2.5867  2.1500  1.1218
  391MOL0     H52783   5.384   9.285   2.059 -1.0868  0.6945 -3.7397
  391MOL0     H52784   5.462   9.123   2.046 -1.3256 -2.2571  1.0501
  391MOL0     H52785   5.349   9.181   1.922  2.3463 -1.8069 -1.2757
  392MOL0     O52786   3.127  10.953  10.088 -0.3845 -0.0489 -0.3047
  392MOL0     C52787   3.110  10.843  10.136  0.4381  0.5157 -0.2349
  392MOL0     O52788   3.176  10.729  10.106  0.3607  0.6536  0.5315
  392MOL0     C52789   3.273  10.749  10.015  0.3967  0.2837  0.9570
  392MOL0     C52790   3.249  10.735   9.876  1.6955 -0.4954 -0.6608
  392MOL0     C52791   3.354  10.761   9.786  0.8455  0.1670 -0.6690
  392MOL0     C52792   3.481  10.789   9.834  1.0254 -0.0872  0.1198
  392MOL0     O52793   3.576  10.822   9.735  0.7529 -0.3654  0.0786
  392MOL0     C52794   3.579  10.740   9.617  0.0574 -0.4006  0.6315
  392MOL0     C52795   3.724  10.747   9.561  0.0329  0.1416 -0.6911
  392MOL0     C52796   3.834  10.702   9.660 -0.4400 -0.3730  0.5175
  392MOL0     C52797   3.962  10.706   9.585 -0.0037  0.1067 -0.2918
  392MOL0     C52798   4.089  10.695   9.670 -0.7474  0.2806  0.3279
  392MOL0     C52799   4.105  10.591   9.783  0.4722 -0.5717  0.2116
  392MOL0     C52800   4.248  10.586   9.844 -0.6042 -0.2034 -0.0290
  392MOL0     C52801   4.288  10.442   9.888 -0.0814  0.5147 -0.2977
  392MOL0     N52802   4.296  10.347   9.780  0.5518  0.2230 -0.3006
  392MOL0     C52803   4.251  10.222   9.779  0.6307  0.6479  0.6111
  392MOL0     C52804   4.296  10.164   9.672 -0.7709  0.7773  0.1070
  392MOL0     C52805   4.292  10.023   9.631 -0.1271  0.6241 -0.0617
  392MOL0     C52806   4.256   9.930   9.754 -0.1071 -0.3271  0.3251
  392MOL0     C52807   4.112   9.937   9.787  0.0164  0.9023  0.6374
  392MOL0     C52808   4.081   9.872   9.925 -0.5782  0.3880  0.8951
  392MOL0     O52809   4.098   9.727   9.929  0.3392 -0.4669 -0.2273
  392MOL0     C52810   3.999   9.631   9.900 -0.2921 -0.8809  0.0723
  392MOL0     C52811   3.884   9.671   9.835 -0.3850 -0.8548  0.6022
  392MOL0     C52812   3.777   9.575   9.817  0.3014 -0.5461 -0.3074
  392MOL0     C52813   3.786   9.438   9.857  0.4976  0.1817  0.5763
  392MOL0     C52814   3.666   9.356   9.852 -0.5775 -0.0581 -0.3548
  392MOL0     O52815   3.672   9.241   9.933  0.2465 -0.3056  0.5018
  392MOL0     C52816   3.551   9.165   9.942 -0.7915  0.4319  0.0491
  392MOL0     C52817   3.513   9.130  10.075 -0.1465 -0.4228  0.0056
  392MOL0     C52818   3.386   9.068  10.090 -0.1836  0.1663 -0.4265
  392MOL0     C52819   3.313   9.031   9.978 -0.3050  1.2837  0.3898
  392MOL0     O52820   3.205   8.952   9.981 -0.8295  0.2743 -0.7423
  392MOL0     C52821   3.135   8.958  10.112  0.3144  1.3269  0.2075
  392MOL0     C52822   3.011   8.874  10.128 -0.1431  0.4506  0.0793
  392MOL0     C52823   3.054   8.724  10.118 -0.2940 -0.7814  0.2771
  392MOL0     C52824   2.950   8.617  10.110 -0.0944  0.0573  0.5974
  392MOL0     C52825   2.826   8.638  10.204  0.6084 -0.2889 -0.2052
  392MOL0     C52826   2.747   8.505  10.233 -0.1522 -1.1343  0.4941
  392MOL0     C52827   2.657   8.542  10.351  0.1198  0.5137 -0.4149
  392MOL0     C52828   2.571   8.421  10.407 -0.6487  0.1454  0.0853
  392MOL0    Cl52829   2.686   8.295  10.479  0.0376  0.6440 -0.2875
  392MOL0     C52830   3.365   9.059   9.850  0.0867  0.5921  0.1158
  392MOL0     C52831   3.480   9.128   9.827  0.9280 -0.0510 -0.9022
  392MOL0     O52832   3.571   9.389   9.785 -0.9299  0.1629  0.0450
  392MOL0     C52833   3.909   9.394   9.906  0.7835  0.6037 -0.1169
  392MOL0     C52834   4.003   9.488   9.926 -0.6493 -0.0669 -0.5602
  392MOL0     N52835   4.361  10.264   9.603 -0.6950 -0.5738  0.7447
  392MOL0     N52836   4.362  10.373   9.670  1.3887 -0.5979  0.1557
  392MOL0     C52837   3.505  10.790   9.976  0.1896 -0.3000  0.2872
  392MOL0     C52838   3.402  10.757  10.067 -0.9653  0.0268 -1.0956
  392MOL0     C52839   2.998  10.819  10.220  0.3520  0.9485 -0.3016
  392MOL0     C52840   3.009  10.803  10.359  0.6728  0.5056 -0.3742
  392MOL0     C52841   2.889  10.771  10.429  0.0958  0.9746 -0.4106
  392MOL0     C52842   2.764  10.757  10.367  0.8168  0.1764 -1.1746
  392MOL0     O52843   2.646  10.730  10.450 -0.0122 -0.4533 -0.1917
  392MOL0     C52844   2.520  10.685  10.394 -0.4906 -0.1197  0.1848
  392MOL0     C52845   2.412  10.668  10.497 -0.2993  0.3277  0.7259
  392MOL0     C52846   2.274  10.626  10.450  0.4150  0.1474 -0.4495
  392MOL0     C52847   2.275  10.480  10.417 -0.6852  0.6314  0.9430
  392MOL0     C52848   2.157  10.415  10.366  0.1234 -1.0480 -0.6423
  392MOL0     C52849   2.046  10.375  10.334  0.7246 -0.1512  0.1867
  392MOL0     C52850   2.751  10.780  10.227  0.1121 -0.0227 -0.6675
  392MOL0     C52851   2.866  10.816  10.152 -0.5143  1.1186  0.2724
  392MOL0     C52852   2.851  10.830  10.003  0.5847 -0.4139 -0.1649
  392MOL0     H52853   3.145  10.729   9.846  0.9704  3.7145  0.3191
  392MOL0     H52854   3.325  10.762   9.681  0.2374 -0.4695 -0.5140
  392MOL0     H52855   3.559  10.636   9.642 -0.3833  0.1523  2.8428
  392MOL0     H52856   3.517  10.779   9.536  1.7498 -1.1600 -1.1066
  392MOL0     H52857   3.747  10.847   9.524  0.4411 -0.3150 -1.7338
  392MOL0     H52858   3.720  10.679   9.475 -1.1713 -0.2695 -0.3261
  392MOL0     H52859   3.808  10.597   9.680 -0.0119 -1.5224 -3.9388
  392MOL0     H52860   3.824  10.762   9.751  1.1942  1.2233 -0.2974
  392MOL0     H52861   3.969  10.634   9.503  1.0778 -0.0761 -0.0571
  392MOL0     H52862   3.966  10.802   9.533 -2.5536  2.9547  4.0781
  392MOL0     H52863   4.177  10.682   9.607  0.5095 -3.8179  2.5334
  392MOL0     H52864   4.107  10.794   9.713  1.2057  0.2945 -0.4507
  392MOL0     H52865   4.032  10.604   9.863  1.2339 -2.7457  1.3461
  392MOL0     H52866   4.087  10.492   9.738 -4.0220  0.0207  0.3024
  392MOL0     H52867   4.242  10.653   9.930  1.0711 -4.5379  3.8952
  392MOL0     H52868   4.313  10.620   9.764 -1.2214 -2.6713 -1.7116
  392MOL0     H52869   4.390  10.455   9.925 -0.1264  0.2905 -0.0904
  392MOL0     H52870   4.228  10.404   9.971  2.0511  0.3212  1.2486
  392MOL0     H52871   4.203  10.167   9.860 -0.1430 -0.2579 -0.4339
  392MOL0     H52872   4.214   9.997   9.559 -0.0176 -2.5788  0.8125
  392MOL0     H52873   4.387   9.986   9.590 -0.2406 -1.6934  1.5478
  392MOL0     H52874   4.290   9.826   9.751  1.4739  0.0821  2.0442
  392MOL0     H52875   4.305   9.978   9.839 -1.0710  1.5026 -0.0942
  392MOL0     H52876   4.068   9.870   9.713  0.8809  0.3646  0.6005
  392MOL0     H52877   4.071  10.038   9.780 -0.1849  1.0996  3.3942
  392MOL0     H52878   3.982   9.893   9.967 -0.5506  0.1415  1.0924
  392MOL0     H52879   4.155   9.915   9.993  1.2354  0.0458 -0.7821
  392MOL0     H52880   3.867   9.770   9.795 -0.5891 -0.8207  0.7722
  392MOL0     H52881   3.693   9.630   9.778  0.7160 -0.5349 -1.2137
  392MOL0     H52882   3.582   9.165  10.151  1.1397  0.4371 -1.4906
  392MOL0     H52883   3.368   9.044  10.194  1.3386 -0.7938 -0.3546
  392MOL0     H52884   3.198   8.908  10.186 -0.5439 -3.6971 -2.0286
  392MOL0     H52885   3.116   9.064  10.127  2.0669  1.7792 -0.5383
  392MOL0     H52886   2.979   8.895  10.230 -1.4262 -2.4083  0.3549
  392MOL0     H52887   2.934   8.909  10.058  1.1682  5.1346  0.6766
  392MOL0     H52888   3.113   8.715  10.026 -2.3617 -2.0724 -0.9846
  392MOL0     H52889   3.112   8.697  10.207 -0.2910  2.1032  1.2570
  392MOL0     H52890   3.009   8.534  10.149  0.9731  0.5497  0.0605
  392MOL0     H52891   2.912   8.589  10.011 -1.0240  1.3609  0.5549
  392MOL0     H52892   2.754   8.703  10.154 -1.8454 -0.8595  2.3399
  392MOL0     H52893   2.862   8.685  10.296  0.8389 -0.5640 -0.1490
  392MOL0     H52894   2.691   8.493  10.140  3.0225  1.1542 -1.9199
  392MOL0     H52895   2.801   8.412  10.254  0.1334 -1.5249 -1.7464
  392MOL0     H52896   2.580   8.615  10.323 -0.9016 -0.1273  0.6228
  392MOL0     H52897   2.707   8.573  10.444 -1.7893 -1.4214  1.3826
  392MOL0     H52898   2.497   8.449  10.482 -2.3475 -0.5409 -1.2612
  392MOL0     H52899   2.517   8.380  10.321  0.3450 -0.2245 -0.3810
  392MOL0     H52900   3.316   8.997   9.776  1.6367  1.4753 -1.7524
  392MOL0     H52901   3.514   9.141   9.725  0.3440  2.1868 -0.8636
  392MOL0     H52902   3.942   9.291   9.913 -2.5756 -0.6177 -0.2737
  392MOL0     H52903   4.093   9.445   9.968 -0.2804 -0.0580 -1.3293
  392MOL0     H52904   3.607  10.821   9.998  1.2414 -1.7567 -2.1277
  392MOL0     H52905   3.422  10.759  10.173 -2.4299 -0.0460 -0.8021
  392MOL0     H52906   3.095  10.837  10.416 -0.9678  3.7012  0.4232
  392MOL0     H52907   2.885  10.765  10.537 -4.8468 -0.5711 -0.4135
  392MOL0     H52908   2.544  10.596  10.335 -1.3965 -0.4433  0.2907
  392MOL0     H52909   2.492  10.759  10.319  3.0456  0.4102 -0.8154
  392MOL0     H52910   2.393  10.762  10.549 -0.2595  0.3061  0.7791
  392MOL0     H52911   2.445  10.589  10.566  1.0674  0.6560  0.4734
  392MOL0     H52912   2.245  10.697  10.372 -0.2863  0.8542  0.4220
  392MOL0     H52913   2.205  10.641  10.534 -0.7156 -3.8471 -0.4688
  392MOL0     H52914   2.343  10.473  10.331 -4.2455 -4.0971 -2.0570
  392MOL0     H52915   2.313  10.418  10.499 -1.6344 -1.8278 -0.3517
  392MOL0     H52916   1.943  10.351  10.320  0.6566  0.4680 -0.4427
  392MOL0     H52917   2.653  10.779  10.180 -0.2765  0.9543  0.0840
  392MOL0     H52918   2.746  10.850   9.981 -0.2339 -1.3515  2.4717
  392MOL0     H52919   2.910  10.911   9.959 -1.6424  2.0975  1.1985
  392MOL0     H52920   2.880  10.736   9.956  0.0962 -0.7068  0.1105
  393MOL0     O52921   0.503   9.127   4.581  0.4222 -0.1180  0.7272
  393MOL0     C52922   0.585   9.169   4.665 -0.1989 -1.0872 -0.3530
  393MOL0     O52923   0.635   9.295   4.677  0.2319 -0.1939  0.0386
  393MOL0     C52924   0.570   9.379   4.587 -0.2718 -0.1925  0.1287
  393MOL0     C52925   0.430   9.406   4.591 -0.4928  0.3903 -0.1901
  393MOL0     C52926   0.365   9.488   4.493  0.0159 -0.6135  0.0009
  393MOL0     C52927   0.442   9.561   4.392 -0.0415  0.1676 -0.0150
  393MOL0     O52928   0.377   9.639   4.297  0.6502 -0.0003 -0.1237
  393MOL0     C52929   0.450   9.713   4.207 -0.4307 -0.5528  0.0969
  393MOL0     C52930   0.352   9.809   4.142 -0.8772  0.7514 -0.3119
  393MOL0     C52931   0.255   9.738   4.045  0.1403 -0.0501  0.3720
  393MOL0     C52932   0.322   9.714   3.906  0.6007  0.3079  1.1253
  393MOL0     C52933   0.223   9.663   3.793  0.3628 -0.0020  0.0250
  393MOL0     C52934   0.288   9.632   3.660 -0.3119  0.1513 -0.6064
  393MOL0     C52935   0.368   9.757   3.602  0.6520  0.2979  0.5469
  393MOL0     C52936   0.285   9.883   3.615 -0.5551  0.1323 -0.2354
  393MOL0     N52937   0.362   9.984   3.542  0.0726  0.2193  0.5791
  393MOL0     C52938   0.391   9.979   3.412 -0.6312 -0.2155  0.0038
  393MOL0     C52939   0.480  10.081   3.398  0.1417  0.3625  0.1419
  393MOL0     C52940   0.540  10.112   3.268 -0.7377 -0.0949 -0.0629
  393MOL0     C52941   0.693  10.090   3.272 -0.5387 -0.0738  0.8291
  393MOL0     C52942   0.748  10.090   3.121 -0.2276  0.6857 -0.2969
  393MOL0     C52943   0.903  10.091   3.128  0.0018 -0.6925 -0.0723
  393MOL0     O52944   0.952  10.047   2.996  0.1787  0.3085 -0.1335
  393MOL0     C52945   1.086  10.055   2.953  0.4109  0.3068  0.4870
  393MOL0     C52946   1.192  10.117   3.028  0.0070 -0.8977 -0.2274
  393MOL0     C52947   1.326  10.121   2.995  0.0248  0.0188  0.1485
  393MOL0     C52948   1.354  10.048   2.875 -0.7628 -0.1638  0.0084
  393MOL0     C52949   1.498  10.033   2.830  0.5661 -0.2004  0.4300
  393MOL0     O52950   1.514   9.956   2.717 -0.4721  0.5282 -0.1584
  393MOL0     C52951   1.639   9.933   2.662 -0.2976 -0.3391 -0.1183
  393MOL0     C52952   1.705   9.812   2.696  0.0973  0.2015 -0.1706
  393MOL0     C52953   1.847   9.794   2.663  0.1879 -0.7024 -0.4181
  393MOL0     C52954   1.920   9.894   2.602  0.4751  0.0690 -0.2359
  393MOL0     O52955   2.055   9.881   2.588 -0.3690 -0.3571  0.1112
  393MOL0     C52956   2.138   9.991   2.554  0.1620 -0.0642  0.3961
  393MOL0     C52957   2.281   9.942   2.562  0.6814 -0.5682 -0.5251
  393MOL0     C52958   2.358   9.981   2.691  0.3681  0.6121  0.9071
  393MOL0     C52959   2.502   9.922   2.680 -0.0362  0.8907 -0.9331
  393MOL0     C52960   2.589  10.016   2.594 -0.1726 -0.3624  0.3018
  393MOL0     C52961   2.732   9.955   2.574 -0.3040  0.1584  0.4190
  393MOL0     C52962   2.832  10.051   2.507 -0.2737 -0.2267 -0.3380
  393MOL0     C52963   2.965   9.978   2.511 -0.3148 -0.6720 -0.7291
  393MOL0    Cl52964   3.096  10.085   2.444 -0.1563 -0.1164 -0.2591
  393MOL0     C52965   1.840  10.012   2.556  0.4422  0.0397 -0.0918
  393MOL0     C52966   1.703  10.029   2.580 -0.0870  0.2054 -0.7877
  393MOL0     O52967   1.587  10.086   2.894 -0.0683 -0.2755 -0.0742
  393MOL0     C52968   1.259   9.978   2.806  0.1824  0.1045  0.0142
  393MOL0     C52969   1.122   9.973   2.843 -0.5710 -0.5467 -0.1110
  393MOL0     N52970   0.501  10.152   3.512  0.7655 -0.6336 -0.4042
  393MOL0     N52971   0.428  10.087   3.597  0.9220  0.2346  0.1716
  393MOL0     C52972   0.586   9.531   4.388  0.4727 -0.0198 -0.7211
  393MOL0     C52973   0.647   9.441   4.482 -0.6706 -0.6357  0.7695
  393MOL0     C52974   0.623   9.066   4.770 -0.0522 -0.4163 -0.1411
  393MOL0     C52975   0.749   9.077   4.833  0.7267 -0.3517  0.3353
  393MOL0     C52976   0.791   8.982   4.921  0.3248 -0.0778 -0.3836
  393MOL0     C52977   0.698   8.892   4.976 -0.5667 -0.0190  0.4991
  393MOL0     O52978   0.742   8.806   5.075 -0.0333 -0.7057 -0.1322
  393MOL0     C52979   0.753   8.668   5.036 -0.9410  0.2970 -0.0067
  393MOL0     C52980   0.842   8.586   5.138  0.0634  0.5495  0.3693
  393MOL0     C52981   0.972   8.644   5.194  0.0757  0.6559  0.6113
  393MOL0     C52982   1.070   8.671   5.078 -0.7897 -0.1488 -0.1352
  393MOL0     C52983   1.189   8.741   5.123  1.1890  0.0658 -0.6449
  393MOL0     C52984   1.288   8.783   5.180  0.2896  0.3914  0.5219
  393MOL0     C52985   0.564   8.887   4.926 -1.0239  0.9295  0.1499
  393MOL0     C52986   0.531   8.975   4.825  0.3422 -0.4887  0.0168
  393MOL0     C52987   0.383   8.947   4.785 -0.9963 -0.0211 -0.1285
  393MOL0     H52988   0.380   9.347   4.668 -0.7850 -1.4017 -1.6841
  393MOL0     H52989   0.259   9.508   4.506  0.6668  2.0165  2.3424
  393MOL0     H52990   0.518   9.761   4.278 -1.8981 -4.4061  4.6905
  393MOL0     H52991   0.501   9.653   4.131  0.5628 -1.5446  1.4946
  393MOL0     H52992   0.405   9.896   4.104 -1.5588  1.9468  1.3464
  393MOL0     H52993   0.297   9.845   4.230 -1.3573  0.7753 -0.6205
  393MOL0     H52994   0.160   9.792   4.037  0.5730  0.4142 -3.1357
  393MOL0     H52995   0.243   9.637   4.085 -1.2257 -0.6196 -1.3338
  393MOL0     H52996   0.368   9.805   3.868  0.6279  0.3659  1.2973
  393MOL0     H52997   0.410   9.651   3.914 -0.9538 -2.2237 -0.4073
  393MOL0     H52998   0.181   9.573   3.838  0.6967  0.7834  1.9946
  393MOL0     H52999   0.142   9.732   3.766  0.4994  0.1764  0.0651
  393MOL0     H53000   0.362   9.554   3.678 -0.3170  0.5870  1.5094
  393MOL0     H53001   0.215   9.595   3.587 -0.9467 -2.0963  1.0503
  393MOL0     H53002   0.401   9.722   3.504  0.2013 -0.9404  0.8188
  393MOL0     H53003   0.458   9.773   3.661  0.3622  2.8516  0.3984
  393MOL0     H53004   0.180   9.865   3.588 -0.9735  0.0980  1.3003
  393MOL0     H53005   0.284   9.919   3.718  1.3350 -1.8909  0.5778
  393MOL0     H53006   0.348   9.920   3.332 -1.7997 -0.4717  0.7977
  393MOL0     H53007   0.494  10.055   3.187 -1.6150  0.5074  0.0022
  393MOL0     H53008   0.513  10.211   3.232  0.0484 -0.7985 -2.8297
  393MOL0     H53009   0.751  10.168   3.322  1.8165 -0.3233 -1.2747
  393MOL0     H53010   0.718   9.999   3.327  0.3722 -0.2837  0.0997
  393MOL0     H53011   0.701  10.165   3.057 -0.8776 -1.9212 -3.0847
  393MOL0     H53012   0.720   9.993   3.079  2.5859 -1.5530  2.5323
  393MOL0     H53013   0.943  10.030   3.209  0.3383  2.3333  2.2149
  393MOL0     H53014   0.930  10.193   3.154 -0.5566 -1.6103  5.0059
  393MOL0     H53015   1.161  10.184   3.107 -2.7978  0.0121 -1.9574
  393MOL0     H53016   1.410  10.158   3.053  1.2206 -1.3269 -0.6719
  393MOL0     H53017   1.666   9.746   2.773  0.7152  0.6360  0.5285
  393MOL0     H53018   1.906   9.704   2.679 -0.3983 -1.3180 -1.6048
  393MOL0     H53019   2.111  10.026   2.454 -1.5616 -2.3623 -0.0229
  393MOL0     H53020   2.111  10.076   2.619 -3.3600 -1.4645  1.0029
  393MOL0     H53021   2.270   9.834   2.561 -1.5466 -0.4104 -0.0948
  393MOL0     H53022   2.323   9.994   2.475 -0.5289  0.4850 -0.5295
  393MOL0     H53023   2.360  10.089   2.708 -1.6555  0.4441  2.5361
  393MOL0     H53024   2.307   9.937   2.776  0.4872  0.1528  0.7421
  393MOL0     H53025   2.502   9.820   2.640  0.3717  0.5611 -0.1200
  393MOL0     H53026   2.542   9.917   2.782 -3.5511 -2.1534  0.5412
  393MOL0     H53027   2.595  10.112   2.646 -0.0376  0.0740 -0.4918
  393MOL0     H53028   2.549  10.039   2.494 -2.4237  2.0793  1.6433
  393MOL0     H53029   2.773   9.953   2.676 -1.3523  2.6497  0.9568
  393MOL0     H53030   2.736   9.854   2.533 -0.1356  0.1116  0.5497
  393MOL0     H53031   2.832  10.152   2.549  1.5732 -1.0596  1.8339
  393MOL0     H53032   2.800  10.049   2.402  0.2739  1.8529 -0.5962
  393MOL0     H53033   3.001   9.943   2.609  1.1885  1.1729 -0.5517
  393MOL0     H53034   2.959   9.887   2.451  0.7827 -2.2261  1.3533
  393MOL0     H53035   1.893  10.093   2.506  2.0741 -0.1928  1.1831
  393MOL0     H53036   1.646  10.114   2.543  1.9838  1.7161 -0.7260
  393MOL0     H53037   1.277   9.927   2.712 -0.1551 -1.1812  0.6274
  393MOL0     H53038   1.057   9.916   2.778 -1.8780  2.6622 -1.8232
  393MOL0     H53039   0.645   9.565   4.304  2.6444 -1.7784 -0.0005
  393MOL0     H53040   0.755   9.437   4.489 -0.6923 -1.3227  0.7965
  393MOL0     H53041   0.823   9.146   4.794  1.2538 -2.6087 -3.0908
  393MOL0     H53042   0.892   8.988   4.961  1.1255  2.6110 -2.4706
  393MOL0     H53043   0.791   8.654   4.935  0.4273  1.0638  0.3745
  393MOL0     H53044   0.658   8.614   5.044  0.8143 -2.9062  1.0175
  393MOL0     H53045   0.849   8.489   5.089 -1.1005 -0.6505  2.4003
  393MOL0     H53046   0.779   8.561   5.224  1.4237  1.1312  1.5791
  393MOL0     H53047   1.019   8.572   5.262  1.3144  1.4654  0.6454
  393MOL0     H53048   0.933   8.727   5.254 -0.4035  0.4048  0.6476
  393MOL0     H53049   1.108   8.582   5.027  4.1346  1.8635 -0.5318
  393MOL0     H53050   1.011   8.739   5.016  0.2067 -0.4677 -1.4770
  393MOL0     H53051   1.370   8.816   5.239 -0.8411 -0.8967  2.9864
  393MOL0     H53052   0.492   8.814   4.959 -1.7862  1.0235 -1.2496
  393MOL0     H53053   0.372   8.930   4.678 -1.9280  0.6600 -0.1518
  393MOL0     H53054   0.340   8.857   4.829 -1.0545 -0.1075 -0.3641
  393MOL0     H53055   0.317   9.033   4.804  0.7156  1.2479  0.3545
  394MOL0     O53056   8.098   1.289   7.439  0.0391 -0.4914  0.0588
  394MOL0     C53057   8.130   1.240   7.545  0.2434  0.4311 -0.0334
  394MOL0     O53058   8.262   1.221   7.599 -0.1103  0.0991  0.2573
  394MOL0     C53059   8.366   1.286   7.533 -0.0773  0.2377 -0.7109
  394MOL0     C53060   8.483   1.212   7.494 -0.5596  0.3069  0.0017
  394MOL0     C53061   8.593   1.283   7.435 -0.1064 -0.5342  0.0657
  394MOL0     C53062   8.588   1.424   7.409  0.3997 -0.2078  0.3010
  394MOL0     O53063   8.688   1.491   7.348  0.2641 -0.1500  0.4760
  394MOL0     C53064   8.693   1.634   7.335 -0.5447  0.0394 -0.1527
  394MOL0     C53065   8.821   1.675   7.259 -0.2640 -0.3020  0.8606
  394MOL0     C53066   8.827   1.639   7.106  0.3962  0.9458 -0.1102
  394MOL0     C53067   8.952   1.692   7.039 -0.0574  0.4084 -0.2317
  394MOL0     C53068   8.976   1.645   6.887 -0.0177 -0.1108 -0.0917
  394MOL0     C53069   8.981   1.489   6.879 -1.1027 -0.1229  0.2784
  394MOL0     C53070   9.004   1.455   6.735 -0.2184  0.2483  0.2609
  394MOL0     C53071   9.034   1.302   6.722  0.7078 -0.1065  0.0340
  394MOL0     N53072   9.167   1.263   6.757  0.2574  0.3718  0.2507
  394MOL0     C53073   9.221   1.244   6.884  1.0490  0.4582  0.0525
  394MOL0     C53074   9.342   1.176   6.862  0.2472 -0.4114  0.0811
  394MOL0     C53075   9.446   1.160   6.966  0.4842  0.2670  0.6871
  394MOL0     C53076   9.503   1.299   7.000 -0.2623  0.5338  0.0672
  394MOL0     C53077   9.614   1.342   6.908 -0.6777 -0.5485  0.0674
  394MOL0     C53078   9.699   1.455   6.969 -0.4570  0.5258  1.4416
  394MOL0     O53079   9.791   1.477   6.861 -0.0133  0.1047  0.2257
  394MOL0     C53080   9.892   1.572   6.864  0.7327 -0.2674 -0.5529
  394MOL0     C53081   9.957   1.608   6.750 -0.2239  0.0937  0.3649
  394MOL0     C53082  10.066   1.698   6.753 -1.1081  0.1538  0.6250
  394MOL0     C53083  10.102   1.762   6.876 -0.6482  0.6546  0.5082
  394MOL0     C53084  10.234   1.826   6.891 -0.3091 -0.0575 -0.5991
  394MOL0     O53085  10.286   1.869   6.767 -0.3775 -0.4238  0.6961
  394MOL0     C53086  10.419   1.900   6.752 -0.1379  0.5312  0.2153
  394MOL0     C53087  10.475   2.014   6.802 -0.3195 -0.1862 -0.5569
  394MOL0     C53088  10.611   2.039   6.774  0.0796  0.7490 -0.5333
  394MOL0     C53089  10.692   1.951   6.694  0.6034 -0.3308  0.5575
  394MOL0     O53090  10.819   1.963   6.647  0.4853 -0.2463 -0.6308
  394MOL0     C53091  10.875   2.100   6.639 -0.8831 -0.6231 -0.2564
  394MOL0     C53092  11.029   2.100   6.650 -0.3398  0.5862  0.0428
  394MOL0     C53093  11.110   2.066   6.520  0.2164 -0.6073  0.1209
  394MOL0     C53094  11.259   2.062   6.561 -0.2374  0.4692 -0.2352
  394MOL0     C53095  11.357   2.046   6.432 -0.1104  1.1055 -0.6954
  394MOL0     C53096  11.502   2.026   6.470 -0.9008 -0.3317 -0.2145
  394MOL0     C53097  11.591   2.022   6.346 -0.0653  0.1469 -0.0221
  394MOL0     C53098  11.566   1.917   6.239 -0.6603 -0.3100 -0.4965
  394MOL0    Cl53099  11.591   1.760   6.306 -0.5278  0.2737  0.1144
  394MOL0     C53100  10.629   1.835   6.648 -0.8132 -0.4757 -0.5107
  394MOL0     C53101  10.497   1.806   6.688  0.6375  0.9966  0.0922
  394MOL0     O53102  10.296   1.822   6.994 -0.0151 -0.4705  0.5496
  394MOL0     C53103  10.022   1.736   6.991  0.0863  0.1021  0.0709
  394MOL0     C53104   9.920   1.644   6.991  0.4569  0.5699 -0.4021
  394MOL0     N53105   9.353   1.160   6.724 -0.0388 -0.4420  0.7114
  394MOL0     N53106   9.243   1.200   6.664 -1.2577  0.1740  0.0662
  394MOL0     C53107   8.458   1.489   7.430 -1.1089  0.5449 -0.2443
  394MOL0     C53108   8.357   1.424   7.499 -0.1732 -0.9975  0.2477
  394MOL0     C53109   8.031   1.193   7.637  0.9672 -0.0242  0.5085
  394MOL0     C53110   8.059   1.171   7.771 -0.9247 -0.2522  0.0656
  394MOL0     C53111   7.973   1.114   7.866  0.2018  0.6407 -0.2150
  394MOL0     C53112   7.850   1.066   7.824  0.1683 -0.2268 -0.1645
  394MOL0     O53113   7.776   0.996   7.908  0.3279 -0.2484 -0.5553
  394MOL0     C53114   7.700   0.883   7.864 -0.8807 -1.0864  0.8156
  394MOL0     C53115   7.724   0.770   7.953 -0.5188  0.1263 -0.5083
  394MOL0     C53116   7.853   0.697   7.912 -1.1302  1.1072  0.2353
  394MOL0     C53117   7.931   0.608   8.017 -0.0561  1.1616 -0.2337
  394MOL0     C53118   7.992   0.694   8.122  0.3102  0.5537  0.1758
  394MOL0     C53119   8.047   0.775   8.191 -0.3056 -0.8409 -0.3238
  394MOL0     C53120   7.818   1.080   7.687 -0.2570 -1.0717  0.1842
  394MOL0     C53121   7.901   1.152   7.597  0.1574 -0.3044  0.1376
  394MOL0     C53122   7.845   1.156   7.453 -0.0669  0.4033  0.2881
  394MOL0     H53123   8.509   1.124   7.552  2.7850  1.6736  0.8387
  394MOL0     H53124   8.690   1.236   7.419  0.3246  0.9226 -2.1759
  394MOL0     H53125   8.604   1.674   7.286 -0.0788  0.7700 -0.4234
  394MOL0     H53126   8.696   1.668   7.439  0.0606 -0.7351  0.0881
  394MOL0     H53127   8.908   1.630   7.307  1.9087  1.2570 -1.3673
  394MOL0     H53128   8.833   1.783   7.264 -2.5596  0.0204  0.7295
  394MOL0     H53129   8.743   1.680   7.048 -1.5821 -0.6183  1.5204
  394MOL0     H53130   8.820   1.530   7.100 -2.1778  0.9780  0.9415
  394MOL0     H53131   8.955   1.801   7.044  1.8691  0.3530  0.8179
  394MOL0     H53132   9.041   1.669   7.100 -0.4237  0.5291  0.3581
  394MOL0     H53133   8.886   1.666   6.828  0.1309  1.4991  0.1844
  394MOL0     H53134   9.067   1.691   6.846  0.4387 -2.1950 -1.5495
  394MOL0     H53135   9.062   1.449   6.940 -1.1126 -0.1669  0.2620
  394MOL0     H53136   8.888   1.441   6.912 -1.5609  0.0212 -0.7547
  394MOL0     H53137   9.084   1.515   6.689 -1.3274  2.5558  1.1501
  394MOL0     H53138   8.914   1.471   6.675 -1.0360 -0.3751  1.3013
  394MOL0     H53139   8.963   1.239   6.775  0.8884 -2.3643 -2.2483
  394MOL0     H53140   9.012   1.273   6.619  3.3354 -1.5768 -0.2000
  394MOL0     H53141   9.192   1.280   6.983  3.1956  1.3131  0.4157
  394MOL0     H53142   9.405   1.105   7.052 -0.9882  2.7549  1.6790
  394MOL0     H53143   9.527   1.102   6.920 -0.0516  0.3171 -0.3301
  394MOL0     H53144   9.424   1.374   6.995  0.5776  1.3721 -1.1792
  394MOL0     H53145   9.544   1.291   7.101 -0.6249 -0.6143  0.1339
  394MOL0     H53146   9.568   1.382   6.817  0.0843 -0.3464 -0.2376
  394MOL0     H53147   9.684   1.262   6.885  0.4396  0.3687  0.1428
  394MOL0     H53148   9.743   1.436   7.068 -0.0225  2.1359  1.5774
  394MOL0     H53149   9.632   1.539   6.988 -2.0589  0.0745 -1.6023
  394MOL0     H53150   9.930   1.557   6.658 -2.4414  4.2857 -1.5588
  394MOL0     H53151  10.133   1.714   6.669 -1.4166  1.5268  0.6080
  394MOL0     H53152  10.411   2.093   6.839  0.6350  0.9412 -1.2176
  394MOL0     H53153  10.656   2.132   6.808 -3.5422  2.1016  1.0814
  394MOL0     H53154  10.838   2.133   6.542  0.9737  1.6177 -0.2658
  394MOL0     H53155  10.834   2.172   6.711 -1.9766 -1.0448 -0.4324
  394MOL0     H53156  11.060   2.196   6.691 -0.0469  1.0430 -1.2107
  394MOL0     H53157  11.038   2.019   6.723 -3.9184  0.0974  0.1463
  394MOL0     H53158  11.076   1.974   6.470 -3.8504  0.0343  1.3593
  394MOL0     H53159  11.102   2.144   6.444  0.7551  0.8819  1.5518
  394MOL0     H53160  11.284   1.980   6.629 -1.6618 -1.8344 -2.3306
  394MOL0     H53161  11.288   2.161   6.597  2.5203  0.1712 -1.4002
  394MOL0     H53162  11.334   2.126   6.361 -0.4180  1.7675  0.1320
  394MOL0     H53163  11.327   1.952   6.385  2.9700 -0.3651 -0.0241
  394MOL0     H53164  11.535   2.103   6.540 -0.6217  0.0953 -0.8048
  394MOL0     H53165  11.523   1.934   6.524  0.9838  0.4048  0.3677
  394MOL0     H53166  11.691   1.994   6.380  0.2317 -1.5430 -2.1186
  394MOL0     H53167  11.599   2.119   6.297 -1.5887 -0.8965 -2.5138
  394MOL0     H53168  11.462   1.925   6.206 -1.1978  1.7102  1.4266
  394MOL0     H53169  11.627   1.932   6.150  0.1196 -2.2340 -0.3383
  394MOL0     H53170  10.678   1.758   6.588  0.7653  0.5725 -0.6439
  394MOL0     H53171  10.443   1.719   6.653 -1.5597  0.9108  3.2833
  394MOL0     H53172  10.032   1.789   7.085  1.3231 -1.4429  0.8407
  394MOL0     H53173   9.858   1.632   7.079  2.3574 -1.6921  0.7359
  394MOL0     H53174   8.444   1.596   7.414 -1.4921  0.7758  1.5016
  394MOL0     H53175   8.267   1.480   7.523 -1.2361 -3.2077  1.8066
  394MOL0     H53176   8.150   1.209   7.816 -0.4512  1.8446 -2.4360
  394MOL0     H53177   8.006   1.107   7.970 -0.0750  2.2366 -0.0025
  394MOL0     H53178   7.721   0.857   7.759  3.9913  2.6374  0.5194
  394MOL0     H53179   7.592   0.891   7.878 -1.1525 -0.6724 -1.1502
  394MOL0     H53180   7.649   0.690   7.963 -0.2623  0.0024  0.5355
  394MOL0     H53181   7.718   0.810   8.054 -0.8993  0.3018 -0.5965
  394MOL0     H53182   7.930   0.773   7.894  0.6416 -0.6326  0.0644
  394MOL0     H53183   7.833   0.649   7.816 -1.8825  0.4834  0.6917
  394MOL0     H53184   7.867   0.535   8.067  1.1003 -1.2256 -2.0212
  394MOL0     H53185   8.003   0.553   7.955 -0.8620  0.7545 -0.8301
  394MOL0     H53186   8.098   0.847   8.251  0.2416  0.0102 -1.7429
  394MOL0     H53187   7.719   1.058   7.648 -0.7716  2.7653 -1.1129
  394MOL0     H53188   7.920   1.110   7.388 -2.0514 -0.6945 -1.3307
  394MOL0     H53189   7.754   1.096   7.446  1.4697 -2.1854  1.1259
  394MOL0     H53190   7.832   1.257   7.412  1.3841 -0.1795 -1.8119
  395MOL0     O53191  10.918  11.009   0.983  0.0467 -0.5695  0.6399
  395MOL0     C53192  10.817  11.001   0.910 -1.0071  0.8617  1.3789
  395MOL0     O53193  10.796  11.077   0.804 -0.6473  0.2480  0.2381
  395MOL0     C53194  10.898  11.172   0.764  0.6775 -0.4526 -1.5565
  395MOL0     C53195  10.994  11.140   0.670 -0.0513  0.4892 -0.6328
  395MOL0     C53196  11.081  11.245   0.619 -0.1613  0.4260 -0.1244
  395MOL0     C53197  11.085  11.371   0.680 -0.1320 -0.5154  0.3206
  395MOL0     O53198  11.150  11.484   0.627  0.3916 -0.0143 -0.1832
  395MOL0     C53199  11.220  11.468   0.502 -0.2051 -0.6769  0.2523
  395MOL0     C53200  11.363  11.425   0.531  0.0801  0.1212  0.0168
  395MOL0     C53201  11.441  11.518   0.623  0.0262 -0.1364 -0.4558
  395MOL0     C53202  11.585  11.469   0.623 -0.0866 -0.0497 -0.1227
  395MOL0     C53203  11.678  11.548   0.711 -0.5238  0.6240 -0.3445
  395MOL0     C53204  11.702  11.693   0.655 -0.3234 -0.7135 -1.1906
  395MOL0     C53205  11.823  11.758   0.716 -0.1703 -0.0089  0.1615
  395MOL0     C53206  11.945  11.671   0.746  0.2161 -0.2843  1.0119
  395MOL0     N53207  12.065  11.758   0.761  0.3691 -0.1350  0.2905
  395MOL0     C53208  12.141  11.822   0.660  0.2596  0.1539 -0.3107
  395MOL0     C53209  12.262  11.847   0.725  1.2934  0.6557  0.4628
  395MOL0     C53210  12.382  11.910   0.667  0.3124 -0.6777  0.5153
  395MOL0     C53211  12.347  12.052   0.626  0.0347 -0.6595  0.3575
  395MOL0     C53212  12.465  12.087   0.535  0.2587  0.9111 -0.3533
  395MOL0     C53213  12.467  12.228   0.470 -0.5994 -0.4870  0.5141
  395MOL0     O53214  12.609  12.271   0.473 -0.5153  0.7103 -0.0710
  395MOL0     C53215  12.638  12.404   0.472 -0.7705 -0.5030 -0.6169
  395MOL0     C53216  12.550  12.509   0.451  0.7324 -0.4722 -0.5660
  395MOL0     C53217  12.590  12.636   0.464 -0.0503 -0.9792 -0.1621
  395MOL0     C53218  12.723  12.668   0.486  0.2251 -0.3328 -0.4300
  395MOL0     C53219  12.752  12.813   0.486 -0.0691 -0.2486  0.7202
  395MOL0     O53220  12.665  12.906   0.437 -0.4068  0.0505 -0.0885
  395MOL0     C53221  12.680  13.041   0.460 -0.0038 -0.2878 -1.0027
  395MOL0     C53222  12.619  13.089   0.581 -0.0408 -0.0870 -0.1700
  395MOL0     C53223  12.613  13.235   0.616 -0.1812 -0.4541  0.0658
  395MOL0     C53224  12.688  13.327   0.542 -0.8193  0.2206  0.1630
  395MOL0     O53225  12.685  13.463   0.567 -0.8381  0.4251 -0.5214
  395MOL0     C53226  12.640  13.534   0.452  0.6067 -1.1113  0.8205
  395MOL0     C53227  12.596  13.675   0.514  1.1579  0.8709 -0.8155
  395MOL0     C53228  12.498  13.672   0.625  0.0409 -0.9507 -0.8229
  395MOL0     C53229  12.355  13.623   0.588  0.1810  1.1512  0.9412
  395MOL0     C53230  12.235  13.681   0.667 -0.3487 -0.5059  0.3815
  395MOL0     C53231  12.201  13.833   0.630  0.5318 -0.3203 -0.4380
  395MOL0     C53232  12.106  13.886   0.748 -0.0905  1.0918  0.3337
  395MOL0     C53233  11.959  13.836   0.738 -0.7546  0.8111 -0.1432
  395MOL0    Cl53234  11.887  13.858   0.900  0.1878 -0.2559  0.0526
  395MOL0     C53235  12.759  13.272   0.431  0.6014  0.5160  0.4007
  395MOL0     C53236  12.756  13.132   0.389 -0.6224  0.0974  0.7094
  395MOL0     O53237  12.858  12.842   0.548  0.2083  0.6334  0.3564
  395MOL0     C53238  12.817  12.569   0.503  0.1529 -0.5556  0.7753
  395MOL0     C53239  12.773  12.440   0.498  0.8020  0.3373 -0.9665
  395MOL0     N53240  12.245  11.807   0.851  0.0125  0.7857  0.4941
  395MOL0     N53241  12.135  11.755   0.879 -0.4285  0.1531  0.1842
  395MOL0     C53242  11.004  11.393   0.789  0.1938 -0.0801  0.8443
  395MOL0     C53243  10.900  11.299   0.829 -0.2121  0.4404 -0.2485
  395MOL0     C53244  10.738  10.876   0.930  1.1319  0.4006  0.8082
  395MOL0     C53245  10.804  10.765   0.968  0.0374  0.4427 -0.7532
  395MOL0     C53246  10.749  10.642   0.994 -0.8146  1.2249  0.3071
  395MOL0     C53247  10.612  10.624   0.960  0.3092 -0.2377  0.3566
  395MOL0     O53248  10.543  10.500   0.957 -0.6442  0.4529 -0.4755
  395MOL0     C53249  10.607  10.390   1.004  0.1940  0.1826 -0.1861
  395MOL0     C53250  10.682  10.298   0.907 -0.1908 -0.1651  0.7755
  395MOL0     C53251  10.787  10.212   0.976  0.4444 -0.9784  0.2375
  395MOL0     C53252  10.914  10.204   0.890  0.3256  0.5854 -1.1720
  395MOL0     C53253  11.006  10.131   0.969 -0.5160  0.3888  0.2213
  395MOL0     C53254  11.092  10.093   1.046 -0.4194 -0.8884 -0.3324
  395MOL0     C53255  10.537  10.736   0.925 -0.3662 -0.0694  0.7142
  395MOL0     C53256  10.593  10.867   0.907 -0.6428 -0.1238  0.2398
  395MOL0     C53257  10.512  10.980   0.872 -0.1372 -0.5005 -0.4151
  395MOL0     H53258  11.006  11.043   0.624  2.9710  0.7290 -0.5662
  395MOL0     H53259  11.145  11.208   0.539  2.8581  0.4855  2.0958
  395MOL0     H53260  11.178  11.388   0.441  2.7437 -1.4786 -0.8545
  395MOL0     H53261  11.223  11.560   0.443 -0.0208 -1.0943 -0.3966
  395MOL0     H53262  11.423  11.411   0.440  1.6937 -0.5896  1.1519
  395MOL0     H53263  11.355  11.328   0.580 -0.5560  1.5370  2.9312
  395MOL0     H53264  11.402  11.506   0.724  2.2068  1.7629  0.7301
  395MOL0     H53265  11.434  11.625   0.597 -0.3645 -0.1956 -0.6049
  395MOL0     H53266  11.589  11.362   0.645 -3.5160 -0.5942 -1.5157
  395MOL0     H53267  11.620  11.466   0.519 -0.9040  0.4814 -0.4260
  395MOL0     H53268  11.651  11.551   0.817  2.1813 -1.3777  0.5056
  395MOL0     H53269  11.773  11.494   0.711 -0.8019  0.1320 -0.4269
  395MOL0     H53270  11.732  11.687   0.550 -2.3725 -0.4336 -1.8243
  395MOL0     H53271  11.614  11.756   0.662  0.0774 -0.1130 -1.4884
  395MOL0     H53272  11.799  11.803   0.813  0.8581  2.7224 -0.7611
  395MOL0     H53273  11.862  11.837   0.652 -0.5145  0.9573  1.0981
  395MOL0     H53274  11.908  11.619   0.835 -1.4629  1.7875  1.6117
  395MOL0     H53275  11.967  11.610   0.658  0.5973 -1.5912  1.9898
  395MOL0     H53276  12.118  11.839   0.556  0.6634  0.3421 -0.3709
  395MOL0     H53277  12.462  11.901   0.741  0.4177 -2.0584  0.2567
  395MOL0     H53278  12.405  11.844   0.583 -0.7451 -0.7351  0.2566
  395MOL0     H53279  12.254  12.066   0.570 -0.5944 -1.4528  1.1551
  395MOL0     H53280  12.348  12.120   0.711  1.6591 -0.3621  0.1359
  395MOL0     H53281  12.462  12.014   0.453 -1.0557 -0.8843  1.2163
  395MOL0     H53282  12.554  12.062   0.593  0.7507  1.1935 -0.9829
  395MOL0     H53283  12.401  12.298   0.522 -1.3823 -1.8499  1.4336
  395MOL0     H53284  12.431  12.229   0.367  0.9941 -0.4192 -0.0819
  395MOL0     H53285  12.446  12.488   0.428  0.0629 -1.2991  2.6404
  395MOL0     H53286  12.518  12.712   0.435  0.3594 -0.3187  0.5388
  395MOL0     H53287  12.573  13.015   0.647  0.1321 -0.9030 -0.9492
  395MOL0     H53288  12.542  13.272   0.689  0.8377 -1.2212  1.5085
  395MOL0     H53289  12.715  13.550   0.375 -1.3354  1.3325 -0.6867
  395MOL0     H53290  12.548  13.496   0.407  0.5626  1.0484 -1.0786
  395MOL0     H53291  12.688  13.720   0.554 -0.9714  1.2186  4.4414
  395MOL0     H53292  12.569  13.744   0.433  2.4317  1.1658 -1.0179
  395MOL0     H53293  12.534  13.617   0.712  0.5389  0.4122 -0.1339
  395MOL0     H53294  12.475  13.773   0.661  2.6958  0.8539 -3.6918
  395MOL0     H53295  12.360  13.515   0.605 -0.0181  1.2114  1.4049
  395MOL0     H53296  12.346  13.645   0.482  1.0283  0.0305  0.6197
  395MOL0     H53297  12.260  13.675   0.773 -2.3568  0.0074  0.9259
  395MOL0     H53298  12.158  13.608   0.638  0.7364 -1.0506 -1.2823
  395MOL0     H53299  12.294  13.889   0.623  0.8669 -0.6300  1.0513
  395MOL0     H53300  12.145  13.830   0.537 -2.3663 -1.5449  1.1948
  395MOL0     H53301  12.110  13.995   0.737  1.3169  1.1469  1.2171
  395MOL0     H53302  12.154  13.863   0.843  1.3456  1.8814 -0.1717
  395MOL0     H53303  11.908  13.884   0.654 -0.6894  2.1363  0.5494
  395MOL0     H53304  11.967  13.728   0.722  0.5985  1.0873 -1.6214
  395MOL0     H53305  12.809  13.344   0.367 -0.3980 -0.3079 -1.3797
  395MOL0     H53306  12.819  13.095   0.308  1.4153  1.8854  1.3785
  395MOL0     H53307  12.922  12.595   0.515  0.1847  0.1708 -0.8130
  395MOL0     H53308  12.848  12.368   0.531  1.1732 -0.7050 -3.7585
  395MOL0     H53309  11.006  11.492   0.833  0.5940  0.6084 -0.6557
  395MOL0     H53310  10.822  11.324   0.900  1.3277  1.1462  1.2708
  395MOL0     H53311  10.913  10.768   0.973 -0.0286  0.7770  1.0487
  395MOL0     H53312  10.829  10.574   1.023 -0.4712  1.6665  0.3984
  395MOL0     H53313  10.527  10.332   1.051  1.4860 -2.0420 -0.5824
  395MOL0     H53314  10.676  10.423   1.082  0.1518  1.2112 -0.5754
  395MOL0     H53315  10.722  10.361   0.827  0.4169 -1.3833  0.0895
  395MOL0     H53316  10.621  10.226   0.852  0.1388  0.9395 -1.1110
  395MOL0     H53317  10.748  10.111   0.989 -1.2441 -0.1758  1.9396
  395MOL0     H53318  10.816  10.248   1.075  0.6128 -4.2192  1.4879
  395MOL0     H53319  10.892  10.151   0.797  1.5516  1.3676 -1.9286
  395MOL0     H53320  10.949  10.307   0.879  1.1236  0.5047  0.3625
  395MOL0     H53321  11.165  10.043   1.108  1.6631  0.6485 -1.4196
  395MOL0     H53322  10.432  10.723   0.902 -0.9974  0.9231  2.7782
  395MOL0     H53323  10.411  10.954   0.839  0.3828  0.1944 -2.7745
  395MOL0     H53324  10.504  11.052   0.954 -0.1224 -0.0876 -0.7696
  395MOL0     H53325  10.567  11.036   0.795 -2.0354  0.4853 -1.1330
  396MOL0     O53326   1.861   6.045   5.875  0.8365 -0.4652 -0.0876
  396MOL0     C53327   1.871   5.931   5.920 -0.5273 -0.3259 -0.2539
  396MOL0     O53328   1.987   5.869   5.972  0.0712  0.1683  0.3646
  396MOL0     C53329   2.106   5.936   5.968  0.0889  0.1114  0.6169
  396MOL0     C53330   2.150   6.033   5.865 -0.9037 -1.1245 -0.0756
  396MOL0     C53331   2.279   6.089   5.884  0.0350 -0.6115 -0.8294
  396MOL0     C53332   2.368   6.053   5.996 -0.0309  0.1978  0.4866
  396MOL0     O53333   2.493   6.110   5.995 -0.2991 -0.9122  0.7066
  396MOL0     C53334   2.600   6.076   6.084  0.0877  0.2479  0.3279
  396MOL0     C53335   2.720   6.173   6.049  0.7541 -0.2405  0.2685
  396MOL0     C53336   2.856   6.141   6.115  0.3846  0.1659 -0.1096
  396MOL0     C53337   2.976   6.166   6.024 -0.3652 -0.1840 -0.5175
  396MOL0     C53338   3.106   6.152   6.108  0.5656  0.2848  0.2537
  396MOL0     C53339   3.226   6.211   6.042 -1.2287  0.0490  0.0854
  396MOL0     C53340   3.342   6.221   6.150 -0.2216 -0.0182  0.1599
  396MOL0     C53341   3.482   6.193   6.088 -1.0261 -0.1729  0.1906
  396MOL0     N53342   3.587   6.144   6.182 -0.5835 -0.6601 -0.0254
  396MOL0     C53343   3.646   6.195   6.288  0.2322 -0.3851 -1.1967
  396MOL0     C53344   3.756   6.118   6.315 -0.2443 -0.1244 -0.5170
  396MOL0     C53345   3.851   6.127   6.434 -0.1675  0.4703  1.1583
  396MOL0     C53346   3.837   6.260   6.511  0.9172  1.2507 -0.9866
  396MOL0     C53347   3.937   6.254   6.629  0.3055 -0.1802 -0.0954
  396MOL0     C53348   4.073   6.274   6.589  0.0265 -0.2192 -0.9181
  396MOL0     O53349   4.092   6.386   6.489  0.9125  0.5937 -0.1721
  396MOL0     C53350   4.223   6.382   6.442 -0.3111  0.5466  0.7375
  396MOL0     C53351   4.240   6.462   6.330  0.4237  0.4338 -0.7491
  396MOL0     C53352   4.363   6.473   6.277 -0.3358  0.0097  0.3129
  396MOL0     C53353   4.475   6.407   6.331  0.0987  0.0181  0.4278
  396MOL0     C53354   4.601   6.398   6.266 -0.6729 -0.4028  1.0955
  396MOL0     O53355   4.687   6.297   6.294  0.3607 -0.8881 -0.2258
  396MOL0     C53356   4.808   6.310   6.226  0.3707 -0.4577  0.6503
  396MOL0     C53357   4.840   6.224   6.115  1.2573 -1.2264 -1.0182
  396MOL0     C53358   4.968   6.224   6.055 -0.7889  0.1626  0.2289
  396MOL0     C53359   5.069   6.315   6.109 -0.0228 -0.1689  0.1041
  396MOL0     O53360   5.204   6.310   6.063  0.1795 -0.2798  0.2169
  396MOL0     C53361   5.249   6.218   5.959 -0.3672 -0.6135  0.4137
  396MOL0     C53362   5.364   6.284   5.884  0.3683  0.2023 -0.0250
  396MOL0     C53363   5.474   6.358   5.962  0.3751  0.0654  0.8714
  396MOL0     C53364   5.583   6.387   5.860 -0.2836 -0.0225  1.0304
  396MOL0     C53365   5.708   6.450   5.929  0.5309  0.4201  0.8151
  396MOL0     C53366   5.837   6.462   5.838 -0.9574  0.3756  0.2850
  396MOL0     C53367   5.957   6.377   5.892 -0.9287 -0.4110  0.6143
  396MOL0     C53368   6.094   6.422   5.838  0.3317 -0.7332 -0.1946
  396MOL0    Cl53369   6.226   6.327   5.912  0.0330  0.0690 -0.2289
  396MOL0     C53370   5.033   6.395   6.220  0.1975  0.1236 -0.1077
  396MOL0     C53371   4.909   6.386   6.282 -0.3079 -0.3004 -0.0093
  396MOL0     O53372   4.625   6.500   6.197 -0.0607  0.1387 -0.1495
  396MOL0     C53373   4.456   6.335   6.453 -0.3656 -0.1515  0.3386
  396MOL0     C53374   4.330   6.320   6.510 -0.9294 -0.0529  0.2429
  396MOL0     N53375   3.763   6.013   6.227  0.7570  0.1282 -0.4583
  396MOL0     N53376   3.656   6.027   6.150 -1.0744 -0.0042  0.0322
  396MOL0     C53377   2.318   5.960   6.094  0.0622  0.2633 -0.2112
  396MOL0     C53378   2.191   5.896   6.074 -0.0915 -0.1199  0.3337
  396MOL0     C53379   1.743   5.857   5.928 -0.4159 -0.2533 -0.3295
  396MOL0     C53380   1.755   5.717   5.915  0.4388 -0.2378 -0.0252
  396MOL0     C53381   1.653   5.630   5.908  0.6103 -0.0351  0.0743
  396MOL0     C53382   1.524   5.666   5.912  0.5397 -0.6634 -0.2610
  396MOL0     O53383   1.424   5.578   5.919  0.4167  0.2033 -0.6956
  396MOL0     C53384   1.304   5.610   5.989  0.0321  0.5698 -0.5447
  396MOL0     C53385   1.181   5.646   5.901  1.0397 -0.6999  0.8038
  396MOL0     C53386   1.045   5.599   5.964 -0.5445  0.1392  0.1438
  396MOL0     C53387   0.913   5.664   5.919 -0.1403  0.0051  0.4461
  396MOL0     C53388   0.793   5.596   5.980  0.2303 -0.5480 -0.6504
  396MOL0     C53389   0.692   5.532   6.016  0.1498 -0.5931  0.1657
  396MOL0     C53390   1.500   5.808   5.919  0.0972  0.1092  0.0691
  396MOL0     C53391   1.609   5.901   5.918  0.2299 -0.4086 -0.5887
  396MOL0     C53392   1.574   6.048   5.905  0.1871 -1.2213 -0.2151
  396MOL0     H53393   2.088   6.063   5.781  0.7935  1.8406 -0.4005
  396MOL0     H53394   2.305   6.156   5.803 -2.2134  0.0141 -1.0886
  396MOL0     H53395   2.561   6.099   6.184 -1.6947 -2.2057  0.2699
  396MOL0     H53396   2.624   5.971   6.067 -0.5610 -0.0237  1.0115
  396MOL0     H53397   2.682   6.274   6.067 -0.2003 -0.6647  0.6810
  396MOL0     H53398   2.730   6.157   5.941 -0.9806 -1.2519  0.2158
  396MOL0     H53399   2.857   6.036   6.147  2.9590  0.3908  0.7606
  396MOL0     H53400   2.875   6.197   6.207  0.5712 -3.0016  1.9128
  396MOL0     H53401   2.988   6.103   5.935  3.3921 -0.3199 -0.0967
  396MOL0     H53402   2.976   6.272   5.995 -0.3033 -0.4979 -1.7158
  396MOL0     H53403   3.084   6.201   6.203  1.5468 -1.4033  1.3997
  396MOL0     H53404   3.118   6.044   6.117 -0.5544 -0.0214 -1.3493
  396MOL0     H53405   3.270   6.146   5.965 -2.4919 -0.1376 -0.4975
  396MOL0     H53406   3.220   6.310   5.995  0.4168 -0.3273 -1.0229
  396MOL0     H53407   3.331   6.137   6.218  4.2461 -0.8700  0.0989
  396MOL0     H53408   3.328   6.312   6.209  0.6084  0.9757 -1.1252
  396MOL0     H53409   3.472   6.125   6.003 -2.1061  3.6663 -3.1093
  396MOL0     H53410   3.524   6.284   6.044  0.3755 -0.5359  0.7418
  396MOL0     H53411   3.626   6.280   6.353  0.1128 -2.3276  1.4890
  396MOL0     H53412   3.835   6.043   6.502  1.3570  0.2709  1.2957
  396MOL0     H53413   3.954   6.115   6.398 -0.6664  0.4455 -0.3456
  396MOL0     H53414   3.847   6.343   6.441 -1.5159  2.5509  0.0774
  396MOL0     H53415   3.736   6.264   6.553 -0.0838  0.2758 -3.1771
  396MOL0     H53416   3.933   6.158   6.682  4.0932  1.1405  3.0557
  396MOL0     H53417   3.929   6.339   6.696  1.7701 -0.2409  0.1853
  396MOL0     H53418   4.116   6.180   6.554 -0.8961 -1.1867  0.4217
  396MOL0     H53419   4.132   6.294   6.679 -0.9787 -0.7955 -0.1088
  396MOL0     H53420   4.155   6.521   6.295  1.5543  1.6525 -1.5351
  396MOL0     H53421   4.366   6.541   6.193 -1.5847  3.3490  2.7761
  396MOL0     H53422   4.766   6.150   6.084  1.6961 -1.4858 -1.4405
  396MOL0     H53423   4.978   6.161   5.967 -1.2619 -1.6286  1.4091
  396MOL0     H53424   5.278   6.129   6.015  1.3928  0.7867  1.9034
  396MOL0     H53425   5.165   6.204   5.891  0.3050  0.2226 -0.6312
  396MOL0     H53426   5.400   6.203   5.820  1.3663  1.3958 -1.0171
  396MOL0     H53427   5.322   6.356   5.814  1.2173  0.0682 -0.6945
  396MOL0     H53428   5.430   6.447   6.008 -1.3830  0.0142 -0.5650
  396MOL0     H53429   5.521   6.301   6.042 -0.0114 -0.5683  0.6557
  396MOL0     H53430   5.550   6.458   5.783  0.7146 -0.3453  0.2818
  396MOL0     H53431   5.611   6.297   5.805 -1.2210 -0.8026  1.7868
  396MOL0     H53432   5.728   6.401   6.025 -0.8025 -1.7155  0.0667
  396MOL0     H53433   5.681   6.553   5.953  1.3897  0.5804  1.1594
  396MOL0     H53434   5.818   6.427   5.736  3.9881  1.6978 -1.3770
  396MOL0     H53435   5.871   6.565   5.824  2.4016 -0.7807 -1.1576
  396MOL0     H53436   5.947   6.273   5.858 -2.4712  0.2512 -1.1038
  396MOL0     H53437   5.951   6.371   6.002  1.4188  0.2794  0.8334
  396MOL0     H53438   6.106   6.431   5.730 -1.0041  0.2632 -0.2927
  396MOL0     H53439   6.109   6.524   5.874  3.0205 -0.3418 -2.1567
  396MOL0     H53440   5.108   6.469   6.245  2.0360 -0.0873 -4.2944
  396MOL0     H53441   4.882   6.452   6.364 -3.0240  0.7049 -1.5710
  396MOL0     H53442   4.545   6.290   6.495  1.5930  2.0763 -1.1701
  396MOL0     H53443   4.322   6.264   6.603 -0.6721 -1.6563 -0.6563
  396MOL0     H53444   2.371   5.920   6.180 -0.6335  0.3097  0.2469
  396MOL0     H53445   2.153   5.822   6.144 -1.9181  0.6308  0.2080
  396MOL0     H53446   1.857   5.681   5.903  1.3904  2.6759 -1.9592
  396MOL0     H53447   1.672   5.524   5.919  0.8586 -0.0509 -0.4750
  396MOL0     H53448   1.315   5.692   6.060  1.7542  0.5401 -0.7337
  396MOL0     H53449   1.281   5.519   6.046  2.9164 -0.1392 -0.3388
  396MOL0     H53450   1.190   5.603   5.801  0.6050 -1.1713  0.9618
  396MOL0     H53451   1.169   5.753   5.886  0.9618 -1.1247 -3.1664
  396MOL0     H53452   1.036   5.615   6.072  0.8420 -2.4379  0.7269
  396MOL0     H53453   1.036   5.492   5.943 -0.6429 -0.5359  3.1167
  396MOL0     H53454   0.908   5.771   5.941 -3.3924 -0.2173  1.3426
  396MOL0     H53455   0.894   5.645   5.813 -1.9807 -2.1380  1.0977
  396MOL0     H53456   0.603   5.481   6.047 -0.6893 -0.8324 -2.3805
  396MOL0     H53457   1.395   5.833   5.910 -0.0857 -0.8375 -0.5620
  396MOL0     H53458   1.611   6.093   5.998 -0.8145 -3.3089  1.2756
  396MOL0     H53459   1.620   6.092   5.816 -0.5935 -0.9507 -0.4935
  396MOL0     H53460   1.466   6.061   5.891  0.7303  2.7428 -2.1137
  397MOL0     O53461  10.728  10.601   4.035 -0.8974  0.4647 -0.4112
  397MOL0     C53462  10.668  10.495   4.033  0.3024 -0.1364 -0.0907
  397MOL0     O53463  10.537  10.470   3.991  0.3754 -0.0013 -0.7475
  397MOL0     C53464  10.498  10.560   3.899 -0.4651  0.8012 -0.1450
  397MOL0     C53465  10.384  10.631   3.927 -0.5863 -0.4722  0.4076
  397MOL0     C53466  10.323  10.721   3.829 -0.3109  0.0755  0.1783
  397MOL0     C53467  10.390  10.747   3.707  0.1974 -0.7054  1.4652
  397MOL0     O53468  10.337  10.833   3.609 -0.5360  1.5273  0.6348
  397MOL0     C53469  10.235  10.765   3.529 -0.4834  0.1563 -0.4924
  397MOL0     C53470  10.168  10.859   3.427 -0.7088  0.1337 -0.3159
  397MOL0     C53471  10.132  11.012   3.461  0.2679 -0.3600  0.0724
  397MOL0     C53472  10.014  11.008   3.563  0.8367  0.2550  1.1285
  397MOL0     C53473   9.986  11.150   3.593  0.2497  0.4321 -0.1558
  397MOL0     C53474   9.862  11.181   3.677  0.2256  0.3335 -1.2326
  397MOL0     C53475   9.823  11.067   3.775  0.4923  0.0072  0.1743
  397MOL0     C53476   9.733  11.114   3.901  0.3942 -0.3909  0.8569
  397MOL0     N53477   9.803  11.197   4.006  0.9526  0.3078  0.6507
  397MOL0     C53478   9.802  11.336   4.019  0.3615 -0.3929  0.2312
  397MOL0     C53479   9.889  11.372   4.120  0.8727  0.0726 -0.2642
  397MOL0     C53480   9.911  11.507   4.196  0.5014  0.3431  0.8722
  397MOL0     C53481  10.057  11.519   4.245  0.3638  0.1080 -0.3016
  397MOL0     C53482  10.167  11.516   4.132 -1.0245 -0.0260  0.5508
  397MOL0     C53483  10.314  11.515   4.167  0.1041 -0.6419 -0.4479
  397MOL0     O53484  10.395  11.488   4.051 -0.1506 -0.6057 -0.1464
  397MOL0     C53485  10.529  11.465   4.073  0.5831  0.5551 -0.5480
  397MOL0     C53486  10.597  11.408   3.967  0.4173  0.9883  0.0432
  397MOL0     C53487  10.733  11.376   3.978  0.1821  0.0786 -0.8070
  397MOL0     C53488  10.799  11.402   4.099 -0.2001 -0.5556  0.3292
  397MOL0     C53489  10.951  11.375   4.111 -0.2582  0.0682  0.0520
  397MOL0     O53490  11.024  11.453   4.194  0.5439 -0.2416 -1.0589
  397MOL0     C53491  11.158  11.453   4.191  0.3976 -0.2575 -0.3689
  397MOL0     C53492  11.226  11.389   4.291  0.0706  0.4209  0.4141
  397MOL0     C53493  11.359  11.366   4.270  0.3646  0.4420  0.4935
  397MOL0     C53494  11.427  11.425   4.164 -0.4109  1.0052  0.0485
  397MOL0     O53495  11.557  11.399   4.136 -0.5352  0.0143 -0.1795
  397MOL0     C53496  11.641  11.352   4.235  0.1356 -0.3333  0.0760
  397MOL0     C53497  11.787  11.324   4.174  0.1750 -0.2422 -0.1511
  397MOL0     C53498  11.896  11.444   4.180  0.1373 -0.6784  1.2187
  397MOL0     C53499  11.978  11.452   4.306  0.9724  0.4508 -0.7809
  397MOL0     C53500  12.099  11.367   4.282 -0.6719 -0.3243 -0.4739
  397MOL0     C53501  12.187  11.338   4.403 -0.1779 -0.0318  0.4488
  397MOL0     C53502  12.321  11.282   4.364 -1.0108  1.1646 -0.6831
  397MOL0     C53503  12.399  11.221   4.483 -0.9661 -0.2222  0.5691
  397MOL0    Cl53504  12.393  11.310   4.630 -0.2319 -0.3699 -0.3865
  397MOL0     C53505  11.358  11.490   4.067  0.0341 -0.2021  0.6862
  397MOL0     C53506  11.223  11.510   4.084  0.4764 -0.5890  0.1314
  397MOL0     O53507  11.002  11.296   4.026  0.3663  0.1752  0.1891
  397MOL0     C53508  10.731  11.449   4.209  0.0671  0.2145  0.4376
  397MOL0     C53509  10.594  11.481   4.191  0.1290  0.2871  0.2263
  397MOL0     N53510   9.929  11.250   4.180 -0.0872  0.1007 -0.0654
  397MOL0     N53511   9.869  11.154   4.115  0.4684 -0.0395  0.1473
  397MOL0     C53512  10.508  10.673   3.681  0.4890 -0.1425  0.2971
  397MOL0     C53513  10.554  10.576   3.772  0.1908 -0.2231  0.5844
  397MOL0     C53514  10.744  10.370   4.048 -0.0240 -0.4574  0.2457
  397MOL0     C53515  10.689  10.270   4.126  0.8117  0.1611  0.0158
  397MOL0     C53516  10.761  10.152   4.146  0.2142 -0.5024 -0.5192
  397MOL0     C53517  10.881  10.118   4.080 -0.2090  0.3898 -0.1729
  397MOL0     O53518  10.934   9.991   4.097  0.6265  0.2994 -0.8514
  397MOL0     C53519  11.049   9.955   4.010  0.8322 -0.0297 -0.3737
  397MOL0     C53520  11.100   9.817   4.020 -0.5719  0.5885 -0.2864
  397MOL0     C53521  11.010   9.714   3.945  0.5001  0.0293 -0.0329
  397MOL0     C53522  10.952   9.592   4.032  0.1310 -0.2131  0.7033
  397MOL0     C53523  10.845   9.649   4.121  0.8954  0.2017  0.2334
  397MOL0     C53524  10.748   9.683   4.179  0.2130  0.6588 -0.6474
  397MOL0     C53525  10.946  10.225   4.014  0.0738  0.1502  0.3102
  397MOL0     C53526  10.878  10.351   4.002 -0.0647  0.3139 -0.7188
  397MOL0     C53527  10.966  10.459   3.944  0.1144 -0.3294  0.4297
  397MOL0     H53528  10.344  10.635   4.028 -1.4417  0.8083  0.0444
  397MOL0     H53529  10.233  10.775   3.856 -3.1730 -2.7434 -2.8327
  397MOL0     H53530  10.277  10.680   3.475 -1.0228 -0.2130 -0.3343
  397MOL0     H53531  10.156  10.740   3.601 -0.0709  3.7289  1.4762
  397MOL0     H53532  10.079  10.802   3.398 -1.0644 -0.6854  2.2044
  397MOL0     H53533  10.246  10.858   3.350  0.7270 -0.2229  1.0981
  397MOL0     H53534  10.114  11.066   3.368  2.1353 -0.5335 -0.4320
  397MOL0     H53535  10.223  11.047   3.511  1.5984 -1.2361 -1.6506
  397MOL0     H53536   9.922  10.961   3.527  1.0429  1.7330 -1.5426
  397MOL0     H53537  10.042  10.956   3.655  1.0616  0.6683  1.2951
  397MOL0     H53538  10.061  11.198   3.656  1.5995 -1.1378 -0.5093
  397MOL0     H53539   9.993  11.207   3.500  1.4197  0.9919  0.2637
  397MOL0     H53540   9.885  11.267   3.741  1.3685 -0.3478 -0.6950
  397MOL0     H53541   9.775  11.215   3.619 -0.2987 -0.3693 -0.8702
  397MOL0     H53542   9.911  11.019   3.818 -0.4834 -0.5547  1.6283
  397MOL0     H53543   9.770  10.987   3.724  0.6734  0.8093 -1.3523
  397MOL0     H53544   9.659  11.178   3.853  0.9605 -1.2788 -1.3424
  397MOL0     H53545   9.685  11.024   3.940 -1.9075  1.3498  2.2805
  397MOL0     H53546   9.751  11.414   3.962  0.2371  1.1955  2.4208
  397MOL0     H53547   9.899  11.589   4.124  1.5420 -0.2961 -0.0641
  397MOL0     H53548   9.837  11.506   4.277 -2.2622 -1.2264 -1.4982
  397MOL0     H53549  10.069  11.608   4.307 -0.8907  1.2868 -1.6636
  397MOL0     H53550  10.084  11.436   4.311  1.3336  1.9667  1.7710
  397MOL0     H53551  10.143  11.598   4.064 -1.8489 -2.0552 -1.7931
  397MOL0     H53552  10.155  11.422   4.075 -3.0543  0.9104 -0.6802
  397MOL0     H53553  10.337  11.441   4.244  0.2213 -1.8934 -1.6368
  397MOL0     H53554  10.338  11.618   4.196  2.2025 -0.8825 -1.1401
  397MOL0     H53555  10.537  11.392   3.878  0.8331  0.9253 -0.2246
  397MOL0     H53556  10.781  11.330   3.892 -0.3377 -0.1208 -0.9965
  397MOL0     H53557  11.178  11.341   4.375  3.7011 -1.9772  1.3577
  397MOL0     H53558  11.420  11.308   4.339 -1.5607 -1.9840  0.2754
  397MOL0     H53559  11.649  11.422   4.318 -0.3224 -2.9081  2.4367
  397MOL0     H53560  11.591  11.263   4.275 -3.2179  1.1378 -0.4400
  397MOL0     H53561  11.826  11.238   4.229  1.6722  0.1184 -0.5912
  397MOL0     H53562  11.774  11.291   4.071 -0.9427 -0.9828  0.2070
  397MOL0     H53563  11.956  11.425   4.090 -2.5178 -1.5311 -0.5207
  397MOL0     H53564  11.842  11.537   4.158  0.6110 -0.5873  0.3942
  397MOL0     H53565  11.916  11.418   4.388 -0.1915  2.5604 -0.7182
  397MOL0     H53566  12.003  11.556   4.330  1.8048  1.0359 -3.7343
  397MOL0     H53567  12.156  11.418   4.204 -0.4458  0.4862  0.2018
  397MOL0     H53568  12.065  11.272   4.239  2.6521 -1.7820 -0.2149
  397MOL0     H53569  12.196  11.430   4.462 -2.3824  0.2868  0.3812
  397MOL0     H53570  12.133  11.266   4.465 -2.7321  0.3245 -1.1890
  397MOL0     H53571  12.383  11.363   4.324  0.3704  0.9256  0.8783
  397MOL0     H53572  12.313  11.204   4.288 -1.2135  0.7312 -0.2227
  397MOL0     H53573  12.359  11.120   4.501 -0.9306 -0.6479 -1.5198
  397MOL0     H53574  12.502  11.212   4.450 -1.1919 -0.3714 -0.1143
  397MOL0     H53575  11.415  11.517   3.978  2.2254  0.5622  2.2352
  397MOL0     H53576  11.160  11.567   4.016  0.8273  0.7171  0.8559
  397MOL0     H53577  10.786  11.456   4.302 -0.5366 -2.1716  1.0428
  397MOL0     H53578  10.536  11.528   4.271  0.7625  1.4998  0.0019
  397MOL0     H53579  10.525  10.680   3.574 -1.1170  5.1409  0.1015
  397MOL0     H53580  10.647  10.523   3.751 -0.1982 -0.3238 -1.0650
  397MOL0     H53581  10.601  10.281   4.188  0.5617 -1.1025 -0.0832
  397MOL0     H53582  10.719  10.069   4.202 -0.0843 -1.7942 -2.5825
  397MOL0     H53583  11.136  10.017   4.034 -1.0114  1.1386  4.4192
  397MOL0     H53584  11.022   9.975   3.906 -1.4604 -1.7520 -0.1999
  397MOL0     H53585  11.132   9.793   4.122 -0.2865  4.1833  0.5834
  397MOL0     H53586  11.189   9.818   3.957  0.3310  3.4638  0.8739
  397MOL0     H53587  11.072   9.663   3.871  1.1462 -0.3447  0.7567
  397MOL0     H53588  10.948   9.783   3.887  1.1533  0.8748  0.2650
  397MOL0     H53589  10.913   9.519   3.961  1.7688  0.5324 -1.0289
  397MOL0     H53590  11.021   9.538   4.097  1.3158  1.0752  0.5528
  397MOL0     H53591  10.665   9.699   4.245  0.1884  1.7610 -0.9284
  397MOL0     H53592  11.039  10.223   3.959  0.4182  2.2889  0.7261
  397MOL0     H53593  11.055  10.422   3.891 -0.3897  0.2014 -0.8471
  397MOL0     H53594  10.905  10.505   3.866  1.1975 -1.7569 -1.3485
  397MOL0     H53595  10.990  10.530   4.023  1.0310  0.1191 -0.2387
  398MOL0     O53596   2.984   6.967   7.505  0.4140 -0.6653  0.2884
  398MOL0     C53597   2.940   6.873   7.431  0.7322 -0.0493 -0.4460
  398MOL0     O53598   3.007   6.771   7.379  0.3146  0.7451  0.3040
  398MOL0     C53599   3.140   6.730   7.400 -0.7973 -0.7132  0.5463
  398MOL0     C53600   3.182   6.595   7.365 -0.1857  0.3495  0.2634
  398MOL0     C53601   3.314   6.550   7.401 -0.1988  1.1822  0.7352
  398MOL0     C53602   3.404   6.631   7.455  0.6370 -0.2724 -0.5953
  398MOL0     O53603   3.538   6.604   7.479  0.2710 -0.1052  0.3320
  398MOL0     C53604   3.605   6.496   7.399  0.1998 -0.2129 -0.9554
  398MOL0     C53605   3.740   6.484   7.460 -0.2572  0.0679 -0.5157
  398MOL0     C53606   3.813   6.624   7.452 -0.1082  1.1737  0.6605
  398MOL0     C53607   3.964   6.599   7.485 -0.8667  0.9533  0.0737
  398MOL0     C53608   4.051   6.713   7.427 -0.6172 -0.5573 -0.6899
  398MOL0     C53609   4.203   6.705   7.447  0.2026 -0.7762  0.7840
  398MOL0     C53610   4.284   6.833   7.380 -0.3534  0.5676 -0.2213
  398MOL0     C53611   4.420   6.782   7.343  0.8393 -0.3480 -0.1912
  398MOL0     N53612   4.508   6.885   7.275 -0.2023  0.6934 -0.7617
  398MOL0     C53613   4.550   7.005   7.324  0.2007 -0.3101 -0.4431
  398MOL0     C53614   4.603   7.075   7.225  0.3405 -0.5524 -0.4635
  398MOL0     C53615   4.650   7.216   7.232 -0.8716  0.0732 -0.0463
  398MOL0     C53616   4.792   7.237   7.301 -0.3167 -0.2289  0.1851
  398MOL0     C53617   4.802   7.387   7.327 -0.0090  0.1689  0.4803
  398MOL0     C53618   4.938   7.406   7.395 -0.1044  1.4799 -0.3513
  398MOL0     O53619   4.953   7.547   7.396 -0.6364  0.3717 -0.2273
  398MOL0     C53620   5.072   7.586   7.356  0.1754 -0.2562  0.1050
  398MOL0     C53621   5.080   7.643   7.225  0.4572  0.9898 -0.7839
  398MOL0     C53622   5.200   7.682   7.167 -1.7845 -0.3507 -0.2833
  398MOL0     C53623   5.322   7.671   7.241 -0.1429  0.6218 -0.5322
  398MOL0     C53624   5.453   7.705   7.187  0.4461  0.2191  0.0639
  398MOL0     O53625   5.443   7.749   7.059  0.1694 -0.1543 -0.4023
  398MOL0     C53626   5.548   7.799   6.986  0.9947 -1.3994  0.2836
  398MOL0     C53627   5.665   7.735   6.953 -1.0863  0.1972  0.1693
  398MOL0     C53628   5.760   7.788   6.866  0.6000 -0.3965  0.2816
  398MOL0     C53629   5.729   7.919   6.817  0.1521  0.0375 -0.5505
  398MOL0     O53630   5.829   7.968   6.738  0.4787  0.0483 -0.2013
  398MOL0     C53631   5.933   8.042   6.799  0.3321 -0.1405  0.0058
  398MOL0     C53632   6.058   8.067   6.704  0.2859  0.4799 -0.4414
  398MOL0     C53633   6.154   7.941   6.699  0.0851  1.1755 -0.6371
  398MOL0     C53634   6.262   7.954   6.592  1.0630 -0.3056  0.3643
  398MOL0     C53635   6.323   8.086   6.582 -0.0032  0.5682  0.1381
  398MOL0     C53636   6.426   8.097   6.469  0.1577  0.6571 -0.1981
  398MOL0     C53637   6.498   8.232   6.457 -0.2880 -0.8870  0.0139
  398MOL0     C53638   6.604   8.215   6.347  0.8944  0.2139  0.7345
  398MOL0    Cl53639   6.740   8.120   6.420 -0.3748  0.3843 -0.1956
  398MOL0     C53640   5.622   7.999   6.864  0.2256  0.3060 -0.0920
  398MOL0     C53641   5.536   7.932   6.949  0.4802 -0.8054  0.1435
  398MOL0     O53642   5.554   7.705   7.257 -0.0307 -0.1219 -0.1806
  398MOL0     C53643   5.318   7.615   7.369  0.0259  0.2661 -0.6911
  398MOL0     C53644   5.193   7.568   7.427 -0.6810  0.5542  0.8171
  398MOL0     N53645   4.613   6.988   7.112 -0.1951  0.8639 -0.6287
  398MOL0     N53646   4.547   6.881   7.145  0.0928 -0.0707  0.5049
  398MOL0     C53647   3.363   6.761   7.486  0.2144  0.5127  0.8554
  398MOL0     C53648   3.233   6.810   7.462 -0.7592  0.0241  0.4053
  398MOL0     C53649   2.792   6.879   7.413  0.2186 -0.1574  0.8779
  398MOL0     C53650   2.716   6.967   7.488 -0.6869  0.3892 -0.7368
  398MOL0     C53651   2.579   6.978   7.477 -0.1791  0.6051 -0.8532
  398MOL0     C53652   2.505   6.903   7.390  0.5218 -0.0903 -0.3829
  398MOL0     O53653   2.374   6.907   7.367  0.0907 -0.3847 -0.8517
  398MOL0     C53654   2.291   6.919   7.483  0.0970  0.5159  0.1041
  398MOL0     C53655   2.151   6.901   7.436 -0.7969  0.9413 -0.4303
  398MOL0     C53656   2.051   6.882   7.552 -0.5930  0.4890 -0.0946
  398MOL0     C53657   1.928   6.820   7.502 -0.5577  0.1286 -0.4129
  398MOL0     C53658   1.862   6.893   7.393  0.9890  0.5023  0.2654
  398MOL0     C53659   1.818   6.949   7.295 -0.8933 -0.4510 -0.2227
  398MOL0     C53660   2.579   6.815   7.310  0.6799  0.9139  0.3947
  398MOL0     C53661   2.721   6.803   7.322  0.3457  0.3806 -0.1119
  398MOL0     C53662   2.790   6.717   7.227  0.4382  0.0560 -0.5216
  398MOL0     H53663   3.117   6.528   7.310  2.3187 -3.3257  1.4381
  398MOL0     H53664   3.338   6.445   7.392  1.0058  1.2064  2.9177
  398MOL0     H53665   3.546   6.404   7.410 -0.0958  0.2154  1.5846
  398MOL0     H53666   3.613   6.527   7.294  0.3581 -3.4132 -2.0073
  398MOL0     H53667   3.801   6.410   7.409  1.3858 -0.5923  2.2070
  398MOL0     H53668   3.732   6.450   7.564  1.1602 -1.4489 -0.8700
  398MOL0     H53669   3.766   6.697   7.520 -2.1392 -2.2861  3.3004
  398MOL0     H53670   3.796   6.663   7.352 -1.5415  0.1234  0.4513
  398MOL0     H53671   3.970   6.582   7.593 -0.4107 -1.6054 -0.2712
  398MOL0     H53672   4.003   6.509   7.437 -2.3701 -0.5120  1.4470
  398MOL0     H53673   4.025   6.735   7.323 -1.0048  0.3889 -0.4077
  398MOL0     H53674   4.020   6.805   7.479  1.0782  1.3449 -2.8187
  398MOL0     H53675   4.228   6.699   7.553 -1.3547 -0.4389  1.1942
  398MOL0     H53676   4.236   6.612   7.399  0.9076  0.1603 -0.6091
  398MOL0     H53677   4.295   6.910   7.457  0.4108 -0.4366  0.6860
  398MOL0     H53678   4.234   6.867   7.288 -0.5125 -0.2583 -0.4462
  398MOL0     H53679   4.473   6.749   7.433  2.6425  1.4943 -0.4975
  398MOL0     H53680   4.414   6.696   7.275 -1.6968  0.1539 -0.6822
  398MOL0     H53681   4.540   7.046   7.424  0.2215  3.5297 -1.8395
  398MOL0     H53682   4.659   7.246   7.128 -1.5654  1.5791  0.2992
  398MOL0     H53683   4.583   7.282   7.288  1.5936  1.2602  1.7090
  398MOL0     H53684   4.800   7.192   7.400  2.7635  1.0809  0.6484
  398MOL0     H53685   4.869   7.193   7.236 -0.7412 -0.0252 -0.4629
  398MOL0     H53686   4.718   7.421   7.388  0.5023  0.3557  1.0972
  398MOL0     H53687   4.809   7.431   7.227  2.6382 -1.0239  0.0585
  398MOL0     H53688   5.018   7.355   7.340 -0.3344  1.6636 -0.8615
  398MOL0     H53689   4.926   7.366   7.496 -0.7001  1.0691 -0.5822
  398MOL0     H53690   4.985   7.655   7.173 -1.5087 -2.4145  1.6673
  398MOL0     H53691   5.196   7.727   7.069 -0.3001 -2.8507 -1.6014
  398MOL0     H53692   5.687   7.642   7.004 -0.3174  1.4826  2.2675
  398MOL0     H53693   5.849   7.737   6.831  1.4788  2.8956 -2.7892
  398MOL0     H53694   5.902   8.142   6.830  1.1406  0.4362 -0.9826
  398MOL0     H53695   5.956   7.989   6.892  2.2573 -0.4070 -0.5707
  398MOL0     H53696   6.016   8.079   6.604 -0.7979 -2.3699 -0.4242
  398MOL0     H53697   6.122   8.148   6.742  3.0374 -2.2098  1.1431
  398MOL0     H53698   6.205   7.942   6.796 -1.4363  2.4091  0.2014
  398MOL0     H53699   6.099   7.848   6.687  2.3755 -0.0334 -2.5179
  398MOL0     H53700   6.204   7.934   6.502 -2.6612 -3.0367  3.0299
  398MOL0     H53701   6.330   7.869   6.589 -0.9828 -2.0090 -0.2411
  398MOL0     H53702   6.367   8.115   6.678  0.1634  0.0977  0.2053
  398MOL0     H53703   6.247   8.163   6.562 -1.5040 -1.1377 -1.0830
  398MOL0     H53704   6.495   8.012   6.479  0.6250  0.8871 -1.3442
  398MOL0     H53705   6.374   8.092   6.374  0.3433 -0.3904 -0.2626
  398MOL0     H53706   6.551   8.259   6.549  1.0397 -2.7177 -0.1630
  398MOL0     H53707   6.418   8.295   6.418  1.1461  0.1042 -1.4473
  398MOL0     H53708   6.566   8.175   6.253 -2.7520  0.9109  1.7528
  398MOL0     H53709   6.643   8.311   6.312 -1.5145  0.0791 -2.8350
  398MOL0     H53710   5.614   8.102   6.832 -1.8437  0.4448  0.7421
  398MOL0     H53711   5.453   7.985   6.995 -0.1626  1.5262 -3.2921
  398MOL0     H53712   5.406   7.617   7.432 -0.6599  0.5274  0.3023
  398MOL0     H53713   5.191   7.533   7.530 -0.9138  1.5376  1.1551
  398MOL0     H53714   3.441   6.815   7.538  0.6447 -0.2774  1.0474
  398MOL0     H53715   3.205   6.913   7.483  1.1674  1.1054 -1.7884
  398MOL0     H53716   2.743   7.051   7.551 -1.2011 -0.4350  0.6249
  398MOL0     H53717   2.513   7.045   7.532  1.6435  0.7792  1.2579
  398MOL0     H53718   2.304   7.018   7.527  0.2013  1.4510 -1.9011
  398MOL0     H53719   2.322   6.838   7.550  1.2496  0.1257 -0.8586
  398MOL0     H53720   2.153   6.813   7.370  0.9064 -0.1790  1.0096
  398MOL0     H53721   2.136   6.990   7.374  0.9164  2.3923  1.1260
  398MOL0     H53722   2.033   6.977   7.602  0.8769  1.0519 -0.5955
  398MOL0     H53723   2.093   6.817   7.630 -1.6432 -2.5781 -1.9085
  398MOL0     H53724   1.941   6.718   7.467 -1.4247  0.0262 -0.4730
  398MOL0     H53725   1.868   6.811   7.593  2.3879  3.3984  2.1412
  398MOL0     H53726   1.765   6.996   7.215  0.5072  2.7118  0.5690
  398MOL0     H53727   2.522   6.757   7.239  0.0235 -0.0428  1.6545
  398MOL0     H53728   2.875   6.772   7.186  2.2255 -0.7928  1.7835
  398MOL0     H53729   2.841   6.635   7.279  3.6603  1.6372 -0.9011
  398MOL0     H53730   2.721   6.695   7.145 -0.6979  1.3651  0.0380
  399MOL0     O53731   2.804   9.796   6.068  0.0369  0.3872 -0.1018
  399MOL0     C53732   2.797   9.796   5.940 -0.2450 -0.5780  0.7459
  399MOL0     O53733   2.898   9.839   5.851 -0.4888 -0.4537 -0.2171
  399MOL0     C53734   3.019   9.891   5.896  0.2587 -0.2073  0.1048
  399MOL0     C53735   3.096   9.840   6.003  0.2550 -0.3068 -0.2983
  399MOL0     C53736   3.222   9.889   6.029  0.3229  0.6732  0.4406
  399MOL0     C53737   3.277   9.990   5.943  0.2612  0.8942  0.0000
  399MOL0     O53738   3.397  10.044   5.968 -0.0213  0.7799  0.0511
  399MOL0     C53739   3.491   9.961   5.911 -0.7333  0.2723  0.3228
  399MOL0     C53740   3.632  10.017   5.923 -0.2397 -0.4727  0.1666
  399MOL0     C53741   3.738   9.916   5.900 -1.1623 -0.0331  0.3196
  399MOL0     C53742   3.876   9.981   5.871  0.9210 -0.4951 -0.3892
  399MOL0     C53743   3.981   9.876   5.881 -0.2908  0.7847  0.1314
  399MOL0     C53744   4.125   9.932   5.860  0.4503  0.0833 -0.5371
  399MOL0     C53745   4.163   9.939   5.710  0.0800 -0.5656 -0.2279
  399MOL0     C53746   4.172   9.805   5.646 -0.0601 -1.1414  0.7312
  399MOL0     N53747   4.300   9.744   5.637  0.1683  0.2275 -0.4572
  399MOL0     C53748   4.390   9.793   5.555  0.2871  0.1626 -0.4728
  399MOL0     C53749   4.469   9.694   5.513  0.1372 -0.0950  0.3006
  399MOL0     C53750   4.578   9.712   5.416 -0.7649  1.0357 -0.1615
  399MOL0     C53751   4.725   9.688   5.471  0.3214  0.0178  0.0492
  399MOL0     C53752   4.806   9.615   5.372  0.0449 -0.0920 -0.2377
  399MOL0     C53753   4.944   9.594   5.437 -0.7346 -0.3285  1.3500
  399MOL0     O53754   5.010   9.707   5.493 -0.1818 -0.1040 -0.3771
  399MOL0     C53755   5.141   9.708   5.523 -0.0852  0.1435 -0.6906
  399MOL0     C53756   5.199   9.823   5.580 -0.7910 -0.1226 -0.9509
  399MOL0     C53757   5.334   9.846   5.585 -0.0976 -0.4511  0.0348
  399MOL0     C53758   5.425   9.743   5.548 -0.8128 -0.4990  0.4590
  399MOL0     C53759   5.569   9.761   5.566 -0.6684 -0.0936  0.0765
  399MOL0     O53760   5.659   9.659   5.536 -0.1781  0.1327 -0.3556
  399MOL0     C53761   5.799   9.676   5.538 -0.7348  0.4116  0.1513
  399MOL0     C53762   5.871   9.738   5.424  1.2505  0.1348  0.0235
  399MOL0     C53763   6.016   9.734   5.414 -0.1507 -0.2641 -0.0922
  399MOL0     C53764   6.083   9.662   5.514 -1.0228 -0.0188 -0.6100
  399MOL0     O53765   6.224   9.654   5.522 -0.0918  0.5691  0.4248
  399MOL0     C53766   6.300   9.680   5.404  0.2429 -0.1631  0.3107
  399MOL0     C53767   6.443   9.662   5.441  0.2923  0.3514 -0.3304
  399MOL0     C53768   6.544   9.654   5.325  0.8362  0.5172  0.7388
  399MOL0     C53769   6.678   9.623   5.379 -0.1033 -0.3065  0.0748
  399MOL0     C53770   6.783   9.639   5.262 -1.0886 -0.5068  0.0645
  399MOL0     C53771   6.924   9.605   5.319  0.0506  0.2102  0.2835
  399MOL0     C53772   6.991   9.721   5.397  0.0072 -0.2772  0.0913
  399MOL0     C53773   7.115   9.666   5.478  0.4391 -0.3726  0.4064
  399MOL0    Cl53774   7.275   9.679   5.396 -0.3345 -0.1869  0.2450
  399MOL0     C53775   6.015   9.614   5.631 -0.1688 -0.0633 -0.3308
  399MOL0     C53776   5.879   9.617   5.641 -0.1266  0.0258 -0.3173
  399MOL0     O53777   5.601   9.873   5.598  0.0274  0.1283  0.8341
  399MOL0     C53778   5.380   9.616   5.509  0.0333  0.3676 -0.4120
  399MOL0     C53779   5.233   9.604   5.491 -0.4770  1.0554  0.0696
  399MOL0     N53780   4.423   9.570   5.574  0.1328 -0.1584 -0.4827
  399MOL0     N53781   4.316   9.606   5.641  0.4222 -0.2734  0.1002
  399MOL0     C53782   3.212  10.032   5.825  0.3514 -0.5843  0.5075
  399MOL0     C53783   3.082   9.981   5.802  0.3637 -0.7583 -0.3521
  399MOL0     C53784   2.680   9.745   5.872 -0.8791 -1.1467 -0.1622
  399MOL0     C53785   2.672   9.761   5.730  0.3474 -0.6216 -0.5538
  399MOL0     C53786   2.566   9.719   5.655  0.6232 -0.2501 -0.2391
  399MOL0     C53787   2.460   9.656   5.716  0.1865  0.4858 -1.1787
  399MOL0     O53788   2.359   9.591   5.652  0.9182  0.5255  0.0797
  399MOL0     C53789   2.256   9.684   5.631 -0.2362  0.3355  0.3080
  399MOL0     C53790   2.137   9.593   5.585 -0.0240  0.0492 -0.4396
  399MOL0     C53791   2.079   9.640   5.452  0.1512 -0.3357  0.8258
  399MOL0     C53792   1.945   9.566   5.437  0.4237  0.0962  0.1734
  399MOL0     C53793   1.907   9.563   5.298  0.0071  0.1993 -0.2659
  399MOL0     C53794   1.868   9.541   5.187 -0.5227 -0.2177  0.2661
  399MOL0     C53795   2.468   9.636   5.856  0.5877 -0.0465 -0.0814
  399MOL0     C53796   2.575   9.683   5.936  0.3010 -0.4538  0.3426
  399MOL0     C53797   2.557   9.653   6.083 -0.3397 -0.7254 -0.5001
  399MOL0     H53798   3.058   9.763   6.069 -2.0844  1.4785  0.5759
  399MOL0     H53799   3.282   9.843   6.107 -0.5190 -0.2466  0.5679
  399MOL0     H53800   3.490   9.866   5.965  3.5989  0.3197  0.8269
  399MOL0     H53801   3.471   9.933   5.807 -1.8609 -0.4269  0.7108
  399MOL0     H53802   3.651  10.069   6.018  4.2973  4.1779 -2.7644
  399MOL0     H53803   3.637  10.095   5.847  0.3706 -1.4446 -0.8092
  399MOL0     H53804   3.718   9.845   5.819  0.7221 -1.9474  1.4273
  399MOL0     H53805   3.752   9.856   5.990  1.1136  3.6688  2.6948
  399MOL0     H53806   3.880  10.023   5.770  0.4796 -0.7156 -0.4996
  399MOL0     H53807   3.897  10.058   5.946  1.2980  1.3018 -2.2439
  399MOL0     H53808   3.980   9.831   5.981  0.8587 -2.4689 -1.2011
  399MOL0     H53809   3.963   9.795   5.810  1.6434  3.4268 -3.7643
  399MOL0     H53810   4.131  10.032   5.904 -0.7409 -1.0580  2.5560
  399MOL0     H53811   4.200   9.864   5.903 -1.8419 -2.6991 -0.6763
  399MOL0     H53812   4.248  10.007   5.692  0.9874 -0.8919  2.4144
  399MOL0     H53813   4.076   9.991   5.670 -0.1977 -1.8505 -1.3680
  399MOL0     H53814   4.105   9.734   5.695 -1.2891  0.7749  1.9765
  399MOL0     H53815   4.136   9.827   5.545 -1.4974  0.2287  1.4913
  399MOL0     H53816   4.405   9.899   5.537 -0.2894  0.9066  2.7027
  399MOL0     H53817   4.566   9.635   5.339  3.9250  2.9531 -3.2565
  399MOL0     H53818   4.566   9.811   5.369 -0.0519  1.2988  0.1894
  399MOL0     H53819   4.770   9.786   5.489 -0.4790  0.3327  0.4160
  399MOL0     H53820   4.718   9.629   5.563  0.1095 -1.3557 -0.8273
  399MOL0     H53821   4.827   9.673   5.281  1.0656  0.2659  0.2118
  399MOL0     H53822   4.766   9.517   5.346  3.9035 -1.7073 -0.8927
  399MOL0     H53823   5.001   9.561   5.349  0.1953  1.1799  1.3486
  399MOL0     H53824   4.931   9.513   5.508  0.4134 -0.3534  1.5485
  399MOL0     H53825   5.132   9.902   5.612 -0.5103  1.1163 -3.2430
  399MOL0     H53826   5.357   9.939   5.635 -0.9451 -1.5039  2.5589
  399MOL0     H53827   5.799   9.780   5.354  0.3932  0.6037  1.1706
  399MOL0     H53828   6.067   9.790   5.337 -0.0139 -0.2880 -0.0190
  399MOL0     H53829   6.267   9.612   5.325  0.0204  1.1464 -0.7618
  399MOL0     H53830   6.286   9.779   5.361  0.7353 -0.8543 -1.5421
  399MOL0     H53831   6.465   9.747   5.506 -2.8599  0.4360  0.7470
  399MOL0     H53832   6.457   9.570   5.498  4.9477  0.5449 -0.7475
  399MOL0     H53833   6.505   9.584   5.250  0.0962  2.1480 -0.4367
  399MOL0     H53834   6.538   9.747   5.268 -2.3449  0.3589  0.6134
  399MOL0     H53835   6.675   9.520   5.415 -1.2795 -0.3479 -0.1084
  399MOL0     H53836   6.699   9.686   5.466  0.7132 -0.4084 -0.0346
  399MOL0     H53837   6.795   9.742   5.229  0.3268 -0.1291  1.6134
  399MOL0     H53838   6.753   9.571   5.181  0.8854 -0.0415 -1.1142
  399MOL0     H53839   6.918   9.520   5.388 -1.0094 -1.3650 -1.6447
  399MOL0     H53840   7.000   9.578   5.245  0.1725 -1.7394  1.0627
  399MOL0     H53841   6.919   9.772   5.461  0.9575  0.5079  0.5645
  399MOL0     H53842   7.015   9.791   5.317 -2.2189 -2.9110 -3.1773
  399MOL0     H53843   7.144   9.726   5.565  3.5069 -1.5377  0.2928
  399MOL0     H53844   7.083   9.570   5.519 -1.3357  0.1281  0.2820
  399MOL0     H53845   6.073   9.570   5.711  1.3309 -1.1465 -1.9288
  399MOL0     H53846   5.826   9.560   5.717 -0.9898 -0.5837 -1.3392
  399MOL0     H53847   5.460   9.551   5.474  0.5265  1.6370 -1.7834
  399MOL0     H53848   5.199   9.508   5.453  0.7243  0.4294  0.4944
  399MOL0     H53849   3.259  10.099   5.753 -4.1039 -0.4609 -2.7135
  399MOL0     H53850   3.018  10.022   5.725  3.3539 -1.2390 -3.3101
  399MOL0     H53851   2.747   9.819   5.677  0.5173 -0.4408 -0.1148
  399MOL0     H53852   2.563   9.731   5.547 -1.7710 -1.0747 -0.3151
  399MOL0     H53853   2.290   9.754   5.553  1.0306  0.4509  0.9290
  399MOL0     H53854   2.234   9.738   5.724  1.4771 -0.7734  1.4105
  399MOL0     H53855   2.068   9.584   5.669  0.6335 -4.3928 -0.1452
  399MOL0     H53856   2.170   9.490   5.573  0.0545  0.0686 -0.3775
  399MOL0     H53857   2.149   9.626   5.369  0.0727 -0.1657  0.7326
  399MOL0     H53858   2.052   9.746   5.449 -0.5854 -0.5267  0.5228
  399MOL0     H53859   1.948   9.462   5.471  0.3324 -1.2473 -3.4446
  399MOL0     H53860   1.867   9.618   5.492 -0.7804 -0.5042 -0.9025
  399MOL0     H53861   1.839   9.547   5.084  2.7303  1.0180 -0.6788
  399MOL0     H53862   2.390   9.581   5.908  1.1792 -1.5087 -0.6842
  399MOL0     H53863   2.461   9.604   6.100 -0.3949 -1.3142 -2.2722
  399MOL0     H53864   2.638   9.585   6.113  2.6764  2.7897  0.1790
  399MOL0     H53865   2.558   9.739   6.151 -1.6787 -1.8222  0.9799
  400MOL0     O53866  10.466   3.494   6.931 -0.5997 -0.4483  0.1680
  400MOL0     C53867  10.416   3.381   6.923 -0.2378  0.0109 -0.1869
  400MOL0     O53868  10.485   3.267   6.949  0.3688 -0.5967 -1.1788
  400MOL0     C53869  10.619   3.266   6.986  0.0842 -0.1385 -0.1815
  400MOL0     C53870  10.667   3.353   7.083 -0.3226 -0.8028  1.1606
  400MOL0     C53871  10.802   3.350   7.116  0.1186 -0.1123  0.6368
  400MOL0     C53872  10.885   3.253   7.057  0.4576 -0.0720  0.6886
  400MOL0     O53873  11.012   3.256   7.104  0.3196 -0.3912 -0.8425
  400MOL0     C53874  11.125   3.238   7.017 -0.5228 -0.0632  0.1793
  400MOL0     C53875  11.256   3.262   7.101  0.4422  0.0732  0.1037
  400MOL0     C53876  11.261   3.416   7.138  0.3216  0.5786 -0.9779
  400MOL0     C53877  11.398   3.446   7.199 -0.6509 -0.5257 -0.1253
  400MOL0     C53878  11.399   3.590   7.260  0.6894  0.2149 -0.1461
  400MOL0     C53879  11.536   3.631   7.312  0.2497 -0.0374  0.9496
  400MOL0     C53880  11.525   3.774   7.385 -0.2780  0.3939 -0.2382
  400MOL0     C53881  11.553   3.888   7.284  0.7226  0.3244  0.3191
  400MOL0     N53882  11.438   3.993   7.284  1.0370 -0.0912  0.1992
  400MOL0     C53883  11.446   4.123   7.329  0.0799  0.3043  0.2094
  400MOL0     C53884  11.328   4.176   7.291 -0.2602  0.2684  0.4205
  400MOL0     C53885  11.293   4.324   7.309 -0.2456 -0.4365 -0.4594
  400MOL0     C53886  11.331   4.402   7.177  0.0717 -0.4445 -0.0039
  400MOL0     C53887  11.473   4.377   7.114 -0.3037  0.5343  0.7143
  400MOL0     C53888  11.514   4.470   7.000  0.2849  0.6295 -0.5122
  400MOL0     O53889  11.537   4.600   7.054  0.1962 -0.0863  0.1385
  400MOL0     C53890  11.612   4.688   6.973 -0.6546  0.1417 -0.5360
  400MOL0     C53891  11.665   4.650   6.845  0.2468  0.6391  0.5089
  400MOL0     C53892  11.728   4.752   6.777 -0.0410 -0.2021  0.3292
  400MOL0     C53893  11.741   4.886   6.822  0.6849  0.1113  0.4299
  400MOL0     C53894  11.812   4.978   6.727  0.4694  0.5996 -0.2165
  400MOL0     O53895  11.881   4.926   6.631 -0.1079  0.2294  0.5827
  400MOL0     C53896  11.984   5.005   6.579 -0.1293  0.1678 -0.6051
  400MOL0     C53897  11.947   5.096   6.477 -0.1750  0.4288 -0.2042
  400MOL0     C53898  12.044   5.184   6.429  0.3477  0.6280 -0.1277
  400MOL0     C53899  12.175   5.191   6.464 -0.3978  0.9099 -0.5858
  400MOL0     O53900  12.263   5.282   6.419  0.4959 -0.3358 -0.5495
  400MOL0     C53901  12.215   5.408   6.377 -0.7279 -0.0806  0.3690
  400MOL0     C53902  12.323   5.505   6.362  0.6826 -0.3269  0.4305
  400MOL0     C53903  12.388   5.531   6.498 -0.3071  0.3237 -0.6629
  400MOL0     C53904  12.504   5.629   6.470  0.5306 -0.3112 -0.2404
  400MOL0     C53905  12.607   5.641   6.590 -0.0307  0.3928  0.5599
  400MOL0     C53906  12.550   5.668   6.729 -0.3229 -0.2600 -0.8841
  400MOL0     C53907  12.653   5.686   6.844 -0.8920 -1.2008  0.5262
  400MOL0     C53908  12.604   5.629   6.981 -0.0590 -0.5206  0.1948
  400MOL0    Cl53909  12.647   5.454   6.984  0.5046 -0.1173 -0.0864
  400MOL0     C53910  12.210   5.104   6.565 -0.4530  0.3129  0.0020
  400MOL0     C53911  12.121   5.007   6.619 -0.2237  0.6629 -0.2029
  400MOL0     O53912  11.793   5.100   6.750 -0.0174  0.2815 -0.1228
  400MOL0     C53913  11.684   4.926   6.942  0.3395  0.6017 -0.5690
  400MOL0     C53914  11.614   4.828   7.014 -0.5372  0.9122  0.0444
  400MOL0     N53915  11.241   4.093   7.223 -0.0364  0.3385  0.0085
  400MOL0     N53916  11.311   3.985   7.221 -0.2615 -0.4826 -0.2721
  400MOL0     C53917  10.832   3.169   6.955 -0.5912 -0.7224  0.1240
  400MOL0     C53918  10.701   3.179   6.925  0.7420  0.3258  0.4031
  400MOL0     C53919  10.273   3.357   6.874 -0.7524  0.1842 -1.2653
  400MOL0     C53920  10.245   3.226   6.829 -0.5238 -0.5373 -0.3805
  400MOL0     C53921  10.121   3.202   6.767  0.5725 -0.8052 -0.3316
  400MOL0     C53922  10.021   3.293   6.744  0.5336 -1.0306 -0.3034
  400MOL0     O53923   9.899   3.279   6.685  0.1444  0.1594  0.4323
  400MOL0     C53924   9.859   3.166   6.605  0.6351  0.5513  0.3683
  400MOL0     C53925   9.776   3.084   6.714 -0.1370  0.0559  0.0636
  400MOL0     C53926   9.729   2.954   6.651  0.7685  0.1511 -0.9170
  400MOL0     C53927   9.646   2.858   6.741 -0.4226 -0.5430 -0.3590
  400MOL0     C53928   9.521   2.912   6.783  0.4977 -0.1183  1.1541
  400MOL0     C53929   9.417   2.966   6.802 -0.0414 -0.1817 -0.1681
  400MOL0     C53930  10.048   3.424   6.797 -1.3417 -0.5232 -0.2137
  400MOL0     C53931  10.172   3.461   6.854  0.0337  0.7278 -1.0806
  400MOL0     C53932  10.197   3.607   6.898 -0.2994  0.0193 -0.4007
  400MOL0     H53933  10.613   3.429   7.138 -1.6808 -0.0789 -1.0813
  400MOL0     H53934  10.850   3.423   7.181  1.9799 -0.9253  0.2426
  400MOL0     H53935  11.117   3.137   6.977 -0.3200  0.6292 -1.6912
  400MOL0     H53936  11.129   3.304   6.930  3.0889 -0.0024  0.2519
  400MOL0     H53937  11.332   3.248   7.023  1.3777 -1.1437  1.1876
  400MOL0     H53938  11.274   3.193   7.184 -1.6190 -3.0785 -1.8575
  400MOL0     H53939  11.184   3.435   7.213  0.0172 -1.4717 -0.6888
  400MOL0     H53940  11.248   3.469   7.044 -1.9605  0.8843 -0.5361
  400MOL0     H53941  11.419   3.378   7.282 -1.1720 -0.2869  0.2110
  400MOL0     H53942  11.469   3.451   7.117  0.9724  2.9999  1.2985
  400MOL0     H53943  11.377   3.663   7.182  0.9005 -0.0880 -0.4954
  400MOL0     H53944  11.319   3.600   7.334  1.3655  1.5354  0.4230
  400MOL0     H53945  11.565   3.549   7.378  0.7518  0.5633  1.4855
  400MOL0     H53946  11.609   3.628   7.230 -2.8413 -1.9050 -2.0244
  400MOL0     H53947  11.594   3.783   7.470 -0.5326  0.6168 -0.0513
  400MOL0     H53948  11.430   3.788   7.438  0.3162  2.8071  0.3206
  400MOL0     H53949  11.646   3.942   7.301  2.0464 -1.3442 -1.3368
  400MOL0     H53950  11.546   3.848   7.183  0.6653  2.2885 -0.5103
  400MOL0     H53951  11.521   4.177   7.386 -0.5588 -0.7140  2.1016
  400MOL0     H53952  11.189   4.343   7.336 -0.8263  0.1127 -2.8304
  400MOL0     H53953  11.356   4.371   7.385 -0.3563 -1.0358  0.0111
  400MOL0     H53954  11.248   4.378   7.110 -1.2202  0.9294  1.0212
  400MOL0     H53955  11.324   4.507   7.209  1.1927 -0.3177 -0.1326
  400MOL0     H53956  11.469   4.278   7.067  0.1455  1.4779 -1.4180
  400MOL0     H53957  11.554   4.386   7.188  0.0267  3.6005  0.0943
  400MOL0     H53958  11.434   4.481   6.926  0.2760  2.2244 -0.3039
  400MOL0     H53959  11.605   4.431   6.953  0.9628  1.3201  0.1895
  400MOL0     H53960  11.665   4.554   6.795  1.8098  0.7615  0.2142
  400MOL0     H53961  11.779   4.723   6.686  0.8327  1.8088  0.1240
  400MOL0     H53962  11.846   5.092   6.437 -1.2151  1.3209  2.1728
  400MOL0     H53963  12.009   5.251   6.351 -0.2466  0.8477  0.3196
  400MOL0     H53964  12.154   5.390   6.288 -0.6028  1.8857 -0.1724
  400MOL0     H53965  12.148   5.447   6.454 -0.2655 -0.0007  0.7328
  400MOL0     H53966  12.389   5.463   6.285  0.6911  0.7908 -0.1974
  400MOL0     H53967  12.283   5.591   6.308  0.1912  1.1395  2.9727
  400MOL0     H53968  12.320   5.554   6.580 -0.0712 -1.5062  0.0973
  400MOL0     H53969  12.440   5.438   6.524  0.0707  0.5692 -0.5442
  400MOL0     H53970  12.451   5.725   6.466  0.4641 -0.3615 -0.6019
  400MOL0     H53971  12.553   5.616   6.373 -1.9615 -0.9815 -1.5032
  400MOL0     H53972  12.665   5.728   6.559  1.0454  0.2163  1.9656
  400MOL0     H53973  12.673   5.555   6.576 -1.0049 -0.5275  1.4453
  400MOL0     H53974  12.474   5.746   6.731  2.1722  2.3349  0.4289
  400MOL0     H53975  12.498   5.576   6.758  1.5931 -0.8438  0.9576
  400MOL0     H53976  12.663   5.795   6.849 -0.0599 -1.1675 -1.0687
  400MOL0     H53977  12.748   5.635   6.824  1.8305  3.7274 -0.8774
  400MOL0     H53978  12.652   5.678   7.066  2.8192 -0.9938 -1.0327
  400MOL0     H53979  12.495   5.635   6.989 -0.3735 -1.8310 -2.2122
  400MOL0     H53980  12.312   5.103   6.600 -1.0940 -0.1794  1.9844
  400MOL0     H53981  12.155   4.936   6.694  0.2013  3.0135  1.9734
  400MOL0     H53982  11.677   5.031   6.970 -0.9894  0.6736 -1.0792
  400MOL0     H53983  11.554   4.849   7.101  0.0613  2.9190  0.0103
  400MOL0     H53984  10.900   3.112   6.893 -0.1726 -0.8974  0.7378
  400MOL0     H53985  10.669   3.118   6.841  0.3073  0.5030  0.4350
  400MOL0     H53986  10.308   3.140   6.852 -1.2917 -1.6053 -2.1171
  400MOL0     H53987  10.112   3.103   6.721  2.1735 -1.0751 -0.1152
  400MOL0     H53988   9.945   3.110   6.566 -0.0913 -2.3089  2.5396
  400MOL0     H53989   9.793   3.192   6.522 -0.0335  1.3852  1.1341
  400MOL0     H53990   9.687   3.139   6.745  0.6783  1.8356 -0.6530
  400MOL0     H53991   9.829   3.067   6.808  0.2652 -1.0507 -0.3443
  400MOL0     H53992   9.824   2.906   6.624  1.1570  0.5057 -0.2137
  400MOL0     H53993   9.677   2.976   6.557 -1.8025  2.4859  0.9207
  400MOL0     H53994   9.625   2.758   6.702 -1.7730 -0.9394  1.2647
  400MOL0     H53995   9.709   2.833   6.827  1.4569  0.9991 -1.2166
  400MOL0     H53996   9.325   3.016   6.827 -0.4500 -1.4490  1.0106
  400MOL0     H53997   9.964   3.490   6.777 -2.5294 -2.1226 -0.7068
  400MOL0     H53998  10.295   3.650   6.876  0.0645  1.8891  3.9471
  400MOL0     H53999  10.126   3.671   6.844  0.4305 -0.3600 -1.8529
  400MOL0     H54000  10.183   3.620   7.006  1.7610 -0.1776 -0.0646
  401MOL0     O54001   1.012  10.132   6.738  0.2786 -0.3634 -0.1169
  401MOL0     C54002   1.001  10.020   6.696 -0.1901 -0.0867 -0.8508
  401MOL0     O54003   1.063   9.905   6.741  0.7884 -0.3539  0.0660
  401MOL0     C54004   1.159   9.933   6.838 -0.5341  0.2647 -0.2136
  401MOL0     C54005   1.128   9.993   6.963  0.0892  1.0536  0.5207
  401MOL0     C54006   1.231   9.997   7.059 -0.6330  0.0845 -0.4366
  401MOL0     C54007   1.359   9.951   7.039 -1.0497 -0.1133  0.0193
  401MOL0     O54008   1.460   9.965   7.134  0.9086 -0.4770  0.5556
  401MOL0     C54009   1.493   9.846   7.202  1.0204  0.4701  0.8252
  401MOL0     C54010   1.523   9.882   7.349 -0.1586 -0.3689 -0.7435
  401MOL0     C54011   1.617   9.992   7.374 -0.8843 -0.5079  0.0277
  401MOL0     C54012   1.642   9.996   7.528  0.2548  0.9253 -0.2309
  401MOL0     C54013   1.727  10.105   7.572  0.0385 -0.5686 -0.3803
  401MOL0     C54014   1.742  10.119   7.727 -0.1418  0.7481  1.3299
  401MOL0     C54015   1.858  10.033   7.792  0.2010  0.7103  1.2310
  401MOL0     C54016   1.863  10.056   7.932  0.7646 -0.1581 -0.3071
  401MOL0     N54017   1.996  10.022   7.979  0.7227 -0.0520 -0.0023
  401MOL0     C54018   2.106  10.110   7.988 -0.2131 -0.0776  1.1131
  401MOL0     C54019   2.199  10.036   8.057  0.6219  0.0298  0.0764
  401MOL0     C54020   2.331  10.083   8.111  0.1718  0.6653 -0.1921
  401MOL0     C54021   2.453  10.003   8.061  0.0352  0.2725  0.0768
  401MOL0     C54022   2.455   9.998   7.905 -0.1806 -0.5794 -0.9612
  401MOL0     C54023   2.599   9.967   7.854  0.3415  0.0135  0.0430
  401MOL0     O54024   2.687  10.055   7.917 -0.6513 -0.3991  0.0915
  401MOL0     C54025   2.820  10.026   7.897  0.1165 -0.0723  0.3580
  401MOL0     C54026   2.876   9.922   7.818 -0.3063  0.8381 -0.0155
  401MOL0     C54027   3.011   9.916   7.799  0.6653 -0.1340 -0.1920
  401MOL0     C54028   3.097   9.990   7.879  0.7137 -0.0802 -0.1126
  401MOL0     C54029   3.243   9.963   7.870 -0.1896 -0.4226 -0.5294
  401MOL0     O54030   3.291   9.863   7.785 -0.5114 -0.4100  0.2603
  401MOL0     C54031   3.418   9.813   7.788  0.8499  0.8151 -1.4675
  401MOL0     C54032   3.422   9.685   7.750 -0.0770  0.3496 -0.1854
  401MOL0     C54033   3.542   9.613   7.749  0.6283  0.6123 -0.5789
  401MOL0     C54034   3.660   9.673   7.801  0.7908  0.1328 -0.2049
  401MOL0     O54035   3.782   9.617   7.800  0.1422 -0.7606  0.6307
  401MOL0     C54036   3.869   9.622   7.915  0.5703 -0.1477 -0.7023
  401MOL0     C54037   3.890   9.482   7.983 -0.1585 -0.3724  0.4597
  401MOL0     C54038   4.023   9.414   7.926  0.3198 -0.4691 -1.1240
  401MOL0     C54039   4.067   9.297   8.013 -0.2097  0.5457  0.4010
  401MOL0     C54040   4.184   9.230   7.943  0.0334 -0.4047  0.3329
  401MOL0     C54041   4.269   9.156   8.044  0.3408  0.1911 -0.0297
  401MOL0     C54042   4.387   9.091   7.972 -0.2078 -0.5177 -0.2340
  401MOL0     C54043   4.515   9.083   8.063 -0.5210 -0.2611  0.1728
  401MOL0    Cl54044   4.663   9.090   7.949  0.3593 -0.4300  0.2063
  401MOL0     C54045   3.655   9.810   7.843  0.3542  0.4752 -1.0386
  401MOL0     C54046   3.535   9.877   7.831  1.0988 -0.3812  0.7162
  401MOL0     O54047   3.312  10.021   7.948 -0.9913  0.0383 -0.5983
  401MOL0     C54048   3.042  10.084   7.967  0.3304 -0.2312  0.4698
  401MOL0     C54049   2.908  10.104   7.973  1.4157  1.1849  0.4655
  401MOL0     N54050   2.145   9.909   8.083  0.1680 -0.1886  0.3292
  401MOL0     N54051   2.028   9.901   8.024 -0.2434 -0.5950 -0.0544
  401MOL0     C54052   1.388   9.891   6.912 -0.4170 -0.6107 -0.4223
  401MOL0     C54053   1.294   9.897   6.811 -0.2475  0.2760  0.2464
  401MOL0     C54054   0.903   9.991   6.590  0.1265  0.1343  0.3932
  401MOL0     C54055   0.830   9.869   6.583  0.0593  0.5180 -0.2294
  401MOL0     C54056   0.739   9.839   6.489  0.9457  0.0519  0.1419
  401MOL0     C54057   0.706   9.924   6.387 -0.6742 -0.4065  0.4033
  401MOL0     O54058   0.623   9.909   6.278  0.0171 -0.1976 -0.3228
  401MOL0     C54059   0.537   9.794   6.286  0.1439  0.5182 -0.0398
  401MOL0     C54060   0.414   9.813   6.196  0.3597 -0.6150  0.0018
  401MOL0     C54061   0.461   9.781   6.051 -0.1611 -0.0541  0.3450
  401MOL0     C54062   0.357   9.814   5.949 -0.6547 -0.2005  0.4520
  401MOL0     C54063   0.424   9.761   5.821 -0.3613 -0.6899 -0.1565
  401MOL0     C54064   0.509   9.731   5.733  0.8819 -0.2364 -0.9006
  401MOL0     C54065   0.774  10.047   6.391  0.6624 -0.0064  1.0659
  401MOL0     C54066   0.868  10.087   6.487 -0.1578  0.2495 -0.0259
  401MOL0     C54067   0.946  10.208   6.458 -0.9899 -1.2896 -0.7833
  401MOL0     H54068   1.027  10.026   6.986  0.0393  1.0356  0.3330
  401MOL0     H54069   1.204  10.050   7.150 -1.7200  1.3183 -1.4250
  401MOL0     H54070   1.396   9.796   7.198  0.0658  2.1072  2.3450
  401MOL0     H54071   1.559   9.778   7.147 -1.2731 -0.4183 -1.0068
  401MOL0     H54072   1.556   9.793   7.404  1.9610  0.4214 -0.6648
  401MOL0     H54073   1.430   9.921   7.393  1.0087  1.5597  0.1265
  401MOL0     H54074   1.583  10.089   7.335  0.1016 -0.2380 -0.1952
  401MOL0     H54075   1.715   9.973   7.329 -0.2935  0.5455  0.8089
  401MOL0     H54076   1.543  10.009   7.572  0.4556  0.7247  0.2912
  401MOL0     H54077   1.688   9.900   7.555 -0.5205  0.2036 -1.3813
  401MOL0     H54078   1.829  10.080   7.539  1.1336 -0.9733  2.8805
  401MOL0     H54079   1.691  10.197   7.524  1.8505  0.3382 -0.0951
  401MOL0     H54080   1.769  10.222   7.748 -2.1575  1.9193 -1.2298
  401MOL0     H54081   1.645  10.104   7.776 -0.5274  1.3468  0.7581
  401MOL0     H54082   1.955  10.063   7.753  1.6395 -1.7365  2.6962
  401MOL0     H54083   1.831   9.929   7.770  0.2298  0.7630  0.9498
  401MOL0     H54084   1.847  10.162   7.956  0.6731 -0.2861  0.2030
  401MOL0     H54085   1.782  10.006   7.986 -1.1350  1.7911 -1.1544
  401MOL0     H54086   2.118  10.216   7.968 -1.3952 -0.0183  0.5974
  401MOL0     H54087   2.340  10.190   8.089  0.6644  0.8161  0.7064
  401MOL0     H54088   2.328  10.067   8.219 -0.4045 -1.0187 -0.4294
  401MOL0     H54089   2.540  10.047   8.111  1.9033 -1.8609 -1.1048
  401MOL0     H54090   2.443   9.898   8.090  0.5627 -0.6081 -2.6707
  401MOL0     H54091   2.425  10.099   7.874 -3.3806  0.2109  3.5363
  401MOL0     H54092   2.377   9.930   7.870 -0.5721 -1.1960  0.9552
  401MOL0     H54093   2.602   9.979   7.745  1.3559  1.6199  0.2210
  401MOL0     H54094   2.626   9.862   7.870  1.4151 -0.5138 -4.1111
  401MOL0     H54095   2.823   9.859   7.746 -0.9081  1.0531  0.2341
  401MOL0     H54096   3.057   9.830   7.751  2.2189 -0.9225  2.4666
  401MOL0     H54097   3.329   9.634   7.726  0.6536 -1.0426 -0.1583
  401MOL0     H54098   3.547   9.509   7.717  0.3704  0.3225  0.2973
  401MOL0     H54099   3.963   9.669   7.884  0.7640 -0.3521 -0.4238
  401MOL0     H54100   3.825   9.681   7.996  0.2985 -0.8197 -0.3582
  401MOL0     H54101   3.884   9.492   8.092 -0.5881 -0.8461  0.4849
  401MOL0     H54102   3.809   9.419   7.945  1.1086 -0.9771 -1.3763
  401MOL0     H54103   4.007   9.393   7.820 -0.6373  2.2252 -1.5892
  401MOL0     H54104   4.098   9.493   7.935 -2.5095  2.2628  0.6886
  401MOL0     H54105   3.986   9.229   8.041  0.1628 -0.7607 -1.4593
  401MOL0     H54106   4.098   9.348   8.105 -1.2649  0.6079  0.7296
  401MOL0     H54107   4.242   9.305   7.888 -0.5896 -0.5376 -0.5437
  401MOL0     H54108   4.155   9.158   7.866  0.2878  1.7283 -1.8879
  401MOL0     H54109   4.314   9.235   8.105  0.6038  0.4545 -0.5538
  401MOL0     H54110   4.213   9.092   8.112 -0.3033  1.0843  0.2951
  401MOL0     H54111   4.407   9.147   7.880  3.9883 -1.4509 -0.0900
  401MOL0     H54112   4.364   8.992   7.930  3.8886 -1.5371 -0.5526
  401MOL0     H54113   4.519   9.167   8.133 -1.2986  0.3132 -0.4500
  401MOL0     H54114   4.511   8.995   8.127 -1.4713 -1.5242 -1.5466
  401MOL0     H54115   3.744   9.870   7.862 -0.8646  1.6912  1.2387
  401MOL0     H54116   3.530   9.979   7.866 -1.2252 -0.7961  1.7684
  401MOL0     H54117   3.103  10.137   8.039  2.2345  0.4005 -1.4963
  401MOL0     H54118   2.867  10.179   8.040 -1.4507  0.7235 -0.6359
  401MOL0     H54119   1.492   9.887   6.882 -0.5812  0.8435 -1.2634
  401MOL0     H54120   1.326   9.872   6.710  0.1116  1.1848  0.1268
  401MOL0     H54121   0.846   9.810   6.673  0.3544  1.6197  0.4493
  401MOL0     H54122   0.693   9.746   6.520 -2.6690  1.6445  0.0991
  401MOL0     H54123   0.493   9.784   6.386 -0.4132 -0.5392 -0.3670
  401MOL0     H54124   0.586   9.698   6.265 -0.2050  0.0148  1.2913
  401MOL0     H54125   0.378   9.916   6.202  0.5778 -0.3779 -1.9132
  401MOL0     H54126   0.334   9.748   6.233 -1.6317  0.3606 -2.3268
  401MOL0     H54127   0.506   9.681   6.041 -0.6986 -0.2034 -0.6221
  401MOL0     H54128   0.547   9.847   6.033  0.5057 -1.1881 -0.8134
  401MOL0     H54129   0.258   9.772   5.967 -0.3845 -2.1324 -1.9838
  401MOL0     H54130   0.338   9.922   5.946 -2.5743 -0.5290 -1.2994
  401MOL0     H54131   0.578   9.712   5.653  1.9224 -0.9283  0.1283
  401MOL0     H54132   0.750  10.124   6.318  0.0184 -0.5762  0.6643
  401MOL0     H54133   0.927  10.274   6.543 -0.2513 -1.4976 -0.4541
  401MOL0     H54134   1.048  10.169   6.455 -0.6408 -0.4425 -0.2114
  401MOL0     H54135   0.933  10.264   6.365  2.0223  2.7116  0.8889
  402MOL0     O54136   4.828  10.657   9.919  0.7440 -0.4716  0.0352
  402MOL0     C54137   4.783  10.588  10.009 -0.6723  0.0263 -0.7955
  402MOL0     O54138   4.784  10.622  10.144 -0.5438  0.1315 -0.4956
  402MOL0     C54139   4.864  10.732  10.179  0.2318  0.2019 -0.5066
  402MOL0     C54140   4.814  10.821  10.264 -0.6751 -0.2192  0.7537
  402MOL0     C54141   4.894  10.922  10.317 -0.1991 -0.0770 -0.7022
  402MOL0     C54142   5.031  10.936  10.291  1.1046 -0.5747 -0.2207
  402MOL0     O54143   5.095  11.041  10.363 -0.4043 -0.2663  0.5438
  402MOL0     C54144   5.234  11.057  10.356 -0.1514 -0.0260  0.8409
  402MOL0     C54145   5.289  11.133  10.238 -0.2540 -0.1682 -0.4259
  402MOL0     C54146   5.444  11.112  10.219 -0.1438 -0.0335  0.5203
  402MOL0     C54147   5.530  11.175  10.324 -0.0958 -0.2049  0.7506
  402MOL0     C54148   5.676  11.121  10.295  0.6663 -0.2184 -0.1126
  402MOL0     C54149   5.777  11.224  10.363  0.6897 -1.0582  1.4174
  402MOL0     C54150   5.915  11.212  10.299  0.2425 -0.0151 -0.4593
  402MOL0     C54151   5.988  11.116  10.389 -0.4541  1.1256  0.1712
  402MOL0     N54152   6.109  11.079  10.316 -0.2989 -0.4122  0.0677
  402MOL0     C54153   6.119  10.970  10.230  0.3386 -0.6748 -1.0960
  402MOL0     C54154   6.241  10.989  10.179  1.1916 -0.9157  0.2236
  402MOL0     C54155   6.305  10.905  10.080  0.5237 -0.2121 -0.0835
  402MOL0     C54156   6.252  10.949   9.942  0.2100 -0.1949 -0.6519
  402MOL0     C54157   6.291  10.865   9.831  0.2042  0.7087  0.9952
  402MOL0     C54158   6.444  10.873   9.790  0.5931 -0.1866  0.5481
  402MOL0     O54159   6.482  11.017   9.784  0.1275  0.0064 -0.2444
  402MOL0     C54160   6.615  11.044   9.771 -0.4941  0.7761  0.7543
  402MOL0     C54161   6.713  10.957   9.726 -1.1051  0.1007  0.7382
  402MOL0     C54162   6.842  10.993   9.727 -0.5655  0.2631  0.4670
  402MOL0     C54163   6.894  11.111   9.786  0.0370 -0.1714 -0.1195
  402MOL0     C54164   7.034  11.135   9.815 -0.2078 -0.4839 -0.1041
  402MOL0     O54165   7.121  11.075   9.733  0.2496 -0.0230  0.1177
  402MOL0     C54166   7.234  11.017   9.771 -0.6127 -0.9012 -0.2153
  402MOL0     C54167   7.349  11.013   9.693  0.1416 -0.3587 -0.3605
  402MOL0     C54168   7.458  10.944   9.732 -0.0250 -0.0709  0.0668
  402MOL0     C54169   7.467  10.884   9.859 -0.2059 -0.1628  0.0681
  402MOL0     O54170   7.580  10.833   9.921  0.4984  0.1538 -0.1148
  402MOL0     C54171   7.702  10.830   9.851 -0.2152  0.3360 -0.2444
  402MOL0     C54172   7.796  10.720   9.903  0.6378  0.0001  0.2573
  402MOL0     C54173   7.941  10.752   9.896  0.4251 -0.3265  0.8138
  402MOL0     C54174   7.999  10.708   9.755 -0.1153  0.1287 -0.2965
  402MOL0     C54175   8.146  10.681   9.764 -0.0369 -0.1424  0.3089
  402MOL0     C54176   8.207  10.683   9.627  0.3561 -0.2230  0.7082
  402MOL0     C54177   8.338  10.611   9.608 -0.0137 -0.3660  0.0985
  402MOL0     C54178   8.365  10.480   9.686  0.0194 -0.4548 -0.5558
  402MOL0    Cl54179   8.244  10.352   9.631 -0.0029 -0.2149  0.2428
  402MOL0     C54180   7.368  10.898   9.944  0.7578  1.2515 -0.1241
  402MOL0     C54181   7.246  10.955   9.901 -0.7405  0.3004  1.0232
  402MOL0     O54182   7.055  11.203   9.912 -0.0986  0.1345  0.2883
  402MOL0     C54183   6.800  11.202   9.838  0.6788  0.5472  0.0938
  402MOL0     C54184   6.665  11.161   9.828 -0.8372 -0.3043 -0.8491
  402MOL0     N54185   6.296  11.108  10.216 -0.0787 -0.4985  0.5175
  402MOL0     N54186   6.222  11.162  10.309 -0.6316 -0.2128  0.5562
  402MOL0     C54187   5.085  10.846  10.198  0.4657 -0.3880 -0.1433
  402MOL0     C54188   5.003  10.742  10.152  0.0485 -0.4532 -0.4564
  402MOL0     C54189   4.741  10.452   9.984  0.5531 -0.6847  0.1963
  402MOL0     C54190   4.742  10.357  10.090 -0.2420  0.0848 -0.2279
  402MOL0     C54191   4.690  10.231  10.075 -0.2148 -0.5246  0.3311
  402MOL0     C54192   4.637  10.187   9.953  0.4972  0.3443  0.0389
  402MOL0     O54193   4.581  10.066   9.932  0.3647 -0.2426  0.2548
  402MOL0     C54194   4.670   9.958   9.938 -0.9989  0.1579 -0.2148
  402MOL0     C54195   4.606   9.816   9.955 -0.1369 -0.5627 -0.3395
  402MOL0     C54196   4.525   9.812  10.086 -0.1832 -0.0732  0.8887
  402MOL0     C54197   4.483   9.670  10.122  0.4430  1.1903 -0.1559
  402MOL0     C54198   4.442   9.647  10.261  0.0728 -0.5524  0.7881
  402MOL0     C54199   4.430   9.606  10.374  0.6669  0.9520 -0.0485
  402MOL0     C54200   4.638  10.277   9.845  0.2036 -0.1871 -0.1416
  402MOL0     C54201   4.681  10.415   9.862 -0.2193  0.1040  0.5904
  402MOL0     C54202   4.672  10.506   9.733  0.1116 -0.4941 -1.3380
  402MOL0     H54203   4.710  10.802  10.287 -0.5948 -0.3262  1.0423
  402MOL0     H54204   4.841  10.992  10.381 -1.2160 -0.3652 -1.2040
  402MOL0     H54205   5.269  11.104  10.448  1.8928  0.9264 -0.3546
  402MOL0     H54206   5.272  10.954  10.353 -1.4408 -0.6819  3.4696
  402MOL0     H54207   5.278  11.240  10.260  2.1131  0.4863 -1.9912
  402MOL0     H54208   5.239  11.110  10.143 -0.7440  0.5940 -0.3636
  402MOL0     H54209   5.460  11.169  10.127 -1.1990 -0.7875 -0.1541
  402MOL0     H54210   5.464  11.005  10.208  1.5992  0.3276 -0.0262
  402MOL0     H54211   5.524  11.284  10.328  0.0383 -0.0993 -1.1850
  402MOL0     H54212   5.494  11.136  10.420 -3.5812 -0.8824 -0.6907
  402MOL0     H54213   5.687  11.020  10.335 -1.4781 -0.6911 -0.5858
  402MOL0     H54214   5.693  11.110  10.187  3.4061 -2.9399  0.4479
  402MOL0     H54215   5.744  11.324  10.332 -1.2461 -2.3868 -1.2010
  402MOL0     H54216   5.782  11.215  10.472 -0.5232  0.5827  1.6584
  402MOL0     H54217   5.966  11.309  10.293  1.7644 -0.8134 -1.2535
  402MOL0     H54218   5.902  11.180  10.195 -4.7874 -0.3389  0.0492
  402MOL0     H54219   6.021  11.157  10.485  1.0378 -0.1525  0.2593
  402MOL0     H54220   5.934  11.021  10.399  0.1994  0.8034  0.7977
  402MOL0     H54221   6.048  10.891  10.209  0.7397 -1.0864 -0.9159
  402MOL0     H54222   6.414  10.912  10.076  0.5590 -1.0414 -1.3556
  402MOL0     H54223   6.274  10.802  10.096  0.7444 -0.5826 -1.8132
  402MOL0     H54224   6.145  10.930   9.941 -0.7402  4.1268 -0.3163
  402MOL0     H54225   6.253  11.058   9.928 -0.1720 -0.3168 -1.7042
  402MOL0     H54226   6.229  10.885   9.743  1.3345 -0.3293 -0.0824
  402MOL0     H54227   6.255  10.761   9.834 -1.2607  1.1083 -0.7471
  402MOL0     H54228   6.454  10.820   9.695  1.0125 -1.7061  1.4067
  402MOL0     H54229   6.501  10.823   9.869 -0.5419 -1.4901  0.5796
  402MOL0     H54230   6.690  10.860   9.684  0.1292 -1.1484  2.7802
  402MOL0     H54231   6.915  10.933   9.673  0.8477  2.3391 -0.0460
  402MOL0     H54232   7.335  11.059   9.596 -0.6028  1.5802  0.6076
  402MOL0     H54233   7.540  10.918   9.666  0.8659  1.8366  0.3534
  402MOL0     H54234   7.697  10.819   9.743 -1.6606  1.4439 -0.3280
  402MOL0     H54235   7.755  10.925   9.866  0.6437  0.0883 -1.5807
  402MOL0     H54236   7.766  10.699  10.006 -0.8658 -3.1656 -0.7202
  402MOL0     H54237   7.780  10.625   9.852  1.1718  0.3910 -0.6549
  402MOL0     H54238   7.969  10.854   9.925  1.6233 -0.7240  1.1124
  402MOL0     H54239   7.983  10.690   9.976  0.5169  0.1286  1.1249
  402MOL0     H54240   7.986  10.790   9.684  0.9734  2.1385  1.6887
  402MOL0     H54241   7.947  10.619   9.717 -3.1920  0.8371  1.9011
  402MOL0     H54242   8.157  10.581   9.808  2.8371 -0.1246 -0.2211
  402MOL0     H54243   8.196  10.759   9.822  0.3180 -1.3894  1.7661
  402MOL0     H54244   8.129  10.640   9.564 -0.2100  2.3365 -0.4852
  402MOL0     H54245   8.226  10.784   9.589  0.3713 -0.5666 -0.2261
  402MOL0     H54246   8.413  10.687   9.633 -1.5523  0.8066  1.3527
  402MOL0     H54247   8.347  10.600   9.500  0.6626  3.5029 -0.3890
  402MOL0     H54248   8.465  10.442   9.662 -1.5259 -3.8195 -2.4245
  402MOL0     H54249   8.356  10.502   9.793 -2.0517 -3.1189 -0.0545
  402MOL0     H54250   7.371  10.868  10.048  0.3888  0.8095 -0.2412
  402MOL0     H54251   7.160  10.950   9.966 -0.7140  0.2165  1.0522
  402MOL0     H54252   6.820  11.296   9.887 -2.0548  1.0500  0.4204
  402MOL0     H54253   6.594  11.238   9.857  0.7030  1.0126 -0.4620
  402MOL0     H54254   5.188  10.852  10.165  0.1897  0.6450 -0.8448
  402MOL0     H54255   5.052  10.681  10.076  0.4222  1.5127 -1.8775
  402MOL0     H54256   4.789  10.383  10.184 -0.6000 -0.6890  0.1748
  402MOL0     H54257   4.693  10.156  10.153 -1.2542  0.5658  1.4681
  402MOL0     H54258   4.742   9.985  10.015 -0.3856 -0.1530 -0.6639
  402MOL0     H54259   4.732   9.944   9.849 -0.1568 -0.4372  0.4517
  402MOL0     H54260   4.679   9.735   9.961 -0.8388 -1.0758  2.5227
  402MOL0     H54261   4.542   9.800   9.867  0.8378  0.0113 -1.1836
  402MOL0     H54262   4.432   9.865  10.063  1.3253  3.8707  2.9876
  402MOL0     H54263   4.573   9.868  10.166 -1.4772  1.1973  0.8207
  402MOL0     H54264   4.392   9.653  10.063  0.1658  0.3657  0.4859
  402MOL0     H54265   4.560   9.595  10.100 -2.2889 -1.7757 -0.2904
  402MOL0     H54266   4.403   9.562  10.468  0.1838  0.8125 -0.2483
  402MOL0     H54267   4.609  10.250   9.744 -0.6257  0.6753 -0.1517
  402MOL0     H54268   4.767  10.532   9.686  0.0910  1.4296 -0.4371
  402MOL0     H54269   4.598  10.470   9.661  0.5978 -0.5405 -1.8178
  402MOL0     H54270   4.619  10.597   9.765 -0.1792 -2.1249  3.7451
  403MOL0     O54271   1.149   0.973   6.580 -0.8302  0.0987  0.6313
  403MOL0     C54272   1.145   1.085   6.620  0.1728 -0.1041  0.1040
  403MOL0     O54273   1.236   1.151   6.688 -0.6243  0.5302 -0.2332
  403MOL0     C54274   1.371   1.121   6.702  0.0148 -0.6454  0.8365
  403MOL0     C54275   1.447   1.224   6.757  1.2063  0.1501 -0.4604
  403MOL0     C54276   1.588   1.203   6.759 -0.2506 -0.0651  0.5730
  403MOL0     C54277   1.652   1.090   6.709  0.3641  0.3384 -0.7286
  403MOL0     O54278   1.787   1.076   6.716  0.5015  0.7297  0.3211
  403MOL0     C54279   1.869   1.118   6.605 -0.5710  0.2286  0.8649
  403MOL0     C54280   2.002   1.101   6.660  0.1038 -0.0089 -0.2998
  403MOL0     C54281   2.042   0.955   6.670 -0.1942 -0.6104  0.2597
  403MOL0     C54282   2.190   0.933   6.733 -0.0498  1.4374 -0.0703
  403MOL0     C54283   2.262   0.798   6.699  0.9624  0.2987  0.9495
  403MOL0     C54284   2.177   0.671   6.694 -0.6220 -1.3625 -0.0220
  403MOL0     C54285   2.275   0.553   6.696  0.6301  0.3187  0.0218
  403MOL0     C54286   2.395   0.575   6.594 -0.3180  1.1438  0.6073
  403MOL0     N54287   2.488   0.456   6.583  0.2172  0.3408 -0.2097
  403MOL0     C54288   2.452   0.329   6.529 -0.1424  0.1576  1.2850
  403MOL0     C54289   2.560   0.251   6.543 -0.1452 -0.0790  0.1814
  403MOL0     C54290   2.572   0.108   6.520  0.0825 -0.0818 -0.8529
  403MOL0     C54291   2.540   0.064   6.373 -0.1071  0.2909 -0.2251
  403MOL0     C54292   2.640   0.113   6.269  0.1452  0.4494 -0.1008
  403MOL0     C54293   2.774   0.058   6.267 -0.6795 -0.5738 -0.4582
  403MOL0     O54294   2.851   0.072   6.387 -0.2838 -0.4610 -0.4607
  403MOL0     C54295   2.985   0.092   6.386  0.5040  0.2283  0.9469
  403MOL0     C54296   3.045   0.121   6.505 -0.6144 -0.0518  0.0601
  403MOL0     C54297   3.182   0.148   6.519 -0.6656 -0.4296 -0.1898
  403MOL0     C54298   3.263   0.139   6.413  0.0809 -0.2650  0.7154
  403MOL0     C54299   3.411   0.145   6.434 -0.0290  0.6417 -0.2382
  403MOL0     O54300   3.445   0.140   6.569 -0.4856  0.5577  0.5100
  403MOL0     C54301   3.568   0.188   6.601 -0.0634 -0.3276  0.1232
  403MOL0     C54302   3.650   0.114   6.685 -0.3319 -0.0327  1.2373
  403MOL0     C54303   3.774   0.169   6.724  0.1667 -0.3950  1.0156
  403MOL0     C54304   3.814   0.294   6.674  0.2372 -0.0810 -0.7865
  403MOL0     O54305   3.933   0.349   6.722  0.5291  0.6605  0.1026
  403MOL0     C54306   4.036   0.266   6.770  0.1957 -0.3704 -0.1130
  403MOL0     C54307   4.163   0.364   6.794  0.9265  0.3538 -0.5725
  403MOL0     C54308   4.287   0.284   6.856 -0.2126  0.0348  0.3272
  403MOL0     C54309   4.406   0.378   6.863  0.2124  0.6627 -0.0147
  403MOL0     C54310   4.537   0.325   6.932 -0.4851 -0.4709  0.5187
  403MOL0     C54311   4.620   0.230   6.849 -0.5197 -0.6828 -0.0749
  403MOL0     C54312   4.750   0.169   6.915  0.2648  0.0591  0.1598
  403MOL0     C54313   4.845   0.271   6.966  0.3524 -1.1035 -0.7723
  403MOL0    Cl54314   4.892   0.380   6.836 -0.5598 -0.1073  0.0024
  403MOL0     C54315   3.728   0.372   6.597 -0.4453 -0.2226 -0.5047
  403MOL0     C54316   3.601   0.316   6.564 -1.2011  0.9549 -0.8237
  403MOL0     O54317   3.490   0.142   6.336 -0.1109 -0.3963  0.1014
  403MOL0     C54318   3.203   0.129   6.283 -0.6634  0.2147  0.4419
  403MOL0     C54319   3.072   0.088   6.271  0.0018  0.9177 -0.5504
  403MOL0     N54320   2.657   0.334   6.608  0.4586  0.4216  0.3843
  403MOL0     N54321   2.616   0.452   6.622 -0.1719  0.4605  0.4821
  403MOL0     C54322   1.580   0.994   6.657  0.0861 -1.1394  0.0216
  403MOL0     C54323   1.438   1.007   6.667 -0.3476  0.4233 -0.5702
  403MOL0     C54324   1.040   1.177   6.580 -0.1842 -0.4284 -0.3564
  403MOL0     C54325   1.000   1.176   6.446  0.2620  0.2336 -0.2185
  403MOL0     C54326   0.898   1.263   6.399  0.2370  0.5165 -0.2838
  403MOL0     C54327   0.837   1.353   6.488 -0.1393 -0.1263  0.4380
  403MOL0     O54328   0.734   1.438   6.457 -0.4105 -0.5990  0.3543
  403MOL0     C54329   0.707   1.453   6.318  0.8842 -0.0897  0.2523
  403MOL0     C54330   0.615   1.569   6.282  1.0979  0.5800  0.5915
  403MOL0     C54331   0.543   1.545   6.142  0.0055  0.5182 -0.3961
  403MOL0     C54332   0.640   1.566   6.025  0.2670 -0.0730  0.9489
  403MOL0     C54333   0.646   1.455   5.928  0.6121 -0.1712  0.0717
  403MOL0     C54334   0.640   1.361   5.849  0.0447 -0.4450 -0.2249
  403MOL0     C54335   0.874   1.349   6.618 -0.4342 -0.0394 -0.2881
  403MOL0     C54336   0.975   1.265   6.667  0.3781  0.4870 -0.4069
  403MOL0     C54337   1.018   1.277   6.813  0.2454 -0.4180  0.1800
  403MOL0     H54338   1.389   1.307   6.796  2.2493  0.7123 -0.0559
  403MOL0     H54339   1.647   1.280   6.808  0.0732 -0.0742  0.2006
  403MOL0     H54340   1.863   1.051   6.519  1.7359 -0.4302  1.1388
  403MOL0     H54341   1.842   1.222   6.581 -2.3327 -0.7504 -1.9254
  403MOL0     H54342   2.011   1.152   6.756 -2.8768 -0.8175  0.4967
  403MOL0     H54343   2.080   1.139   6.594  3.1102 -2.9142  1.2624
  403MOL0     H54344   2.033   0.914   6.569 -3.4711 -0.3553  0.3188
  403MOL0     H54345   1.972   0.893   6.727  1.4705 -4.1541 -1.2099
  403MOL0     H54346   2.261   1.008   6.696  0.7872 -0.2017 -2.0022
  403MOL0     H54347   2.183   0.945   6.841 -2.4984  1.3182 -0.1631
  403MOL0     H54348   2.317   0.807   6.605  3.0646  1.0340  2.1747
  403MOL0     H54349   2.341   0.787   6.774  3.4983 -1.6471 -1.8013
  403MOL0     H54350   2.103   0.671   6.776  0.1707  0.0349  0.7215
  403MOL0     H54351   2.129   0.659   6.596 -0.0200 -0.9163 -0.3734
  403MOL0     H54352   2.213   0.465   6.679  0.5464 -0.4361  3.4013
  403MOL0     H54353   2.314   0.535   6.797  2.7478  0.7296 -0.6686
  403MOL0     H54354   2.344   0.588   6.498  0.8206 -1.2830 -0.4096
  403MOL0     H54355   2.465   0.655   6.618  2.7648 -1.4783  1.0204
  403MOL0     H54356   2.352   0.305   6.494  0.9508 -3.0358  0.0259
  403MOL0     H54357   2.669   0.078   6.559 -0.3625 -0.5769 -0.1077
  403MOL0     H54358   2.504   0.052   6.585 -0.8397 -1.0732 -2.5851
  403MOL0     H54359   2.524  -0.044   6.362 -2.3761  0.5187  0.2245
  403MOL0     H54360   2.444   0.107   6.343 -1.0356 -2.1504 -1.0496
  403MOL0     H54361   2.637   0.222   6.284 -1.6227  0.4073  0.0741
  403MOL0     H54362   2.594   0.103   6.170 -0.0759  0.2736  0.0198
  403MOL0     H54363   2.835   0.095   6.184  0.9317  1.6396  1.5452
  403MOL0     H54364   2.762  -0.047   6.239  1.8346 -0.5202 -2.0782
  403MOL0     H54365   2.976   0.134   6.588  0.6286  0.5911  1.0321
  403MOL0     H54366   3.215   0.162   6.622 -2.1703 -0.7895  0.3788
  403MOL0     H54367   3.607   0.016   6.705  0.8445 -0.1408  3.4992
  403MOL0     H54368   3.838   0.097   6.773  0.6519 -1.6313 -1.2795
  403MOL0     H54369   4.003   0.233   6.869  1.3896 -1.0302  0.0814
  403MOL0     H54370   4.067   0.181   6.709  4.0226  0.1186  0.8660
  403MOL0     H54371   4.189   0.422   6.705  1.3453 -1.8294 -1.9425
  403MOL0     H54372   4.134   0.447   6.860 -2.5726  0.6267 -2.2424
  403MOL0     H54373   4.255   0.257   6.958 -1.1064  0.3273  0.1350
  403MOL0     H54374   4.304   0.193   6.797  0.0099  0.8919 -0.9664
  403MOL0     H54375   4.375   0.469   6.915  1.4868  0.1919  1.6525
  403MOL0     H54376   4.438   0.405   6.761  1.7130 -1.8401 -0.3126
  403MOL0     H54377   4.504   0.279   7.025 -1.4087  2.2643  1.6589
  403MOL0     H54378   4.593   0.410   6.973 -0.5583  0.1891 -0.6808
  403MOL0     H54379   4.560   0.146   6.811 -0.5761 -0.8459  0.3753
  403MOL0     H54380   4.663   0.273   6.758  2.1168 -0.0193  1.3761
  403MOL0     H54381   4.809   0.110   6.844  2.1023  1.2924  0.6099
  403MOL0     H54382   4.706   0.108   6.995 -1.1950  1.4536  0.4690
  403MOL0     H54383   4.785   0.328   7.038 -0.0550 -0.5977 -1.5044
  403MOL0     H54384   4.929   0.230   7.024 -0.2417 -0.6860  0.4288
  403MOL0     H54385   3.763   0.468   6.559 -1.1476 -0.0641 -0.7654
  403MOL0     H54386   3.546   0.382   6.498  1.0049  0.4672 -3.3508
  403MOL0     H54387   3.264   0.127   6.193  0.4971  0.1549  1.2197
  403MOL0     H54388   3.036   0.051   6.176  3.1290 -2.4339 -0.6087
  403MOL0     H54389   1.627   0.910   6.608  2.9866 -1.0837  2.4225
  403MOL0     H54390   1.382   0.924   6.625  0.6527 -0.0686 -0.9834
  403MOL0     H54391   1.038   1.106   6.372 -1.3684 -0.1948 -0.7006
  403MOL0     H54392   0.868   1.259   6.294 -1.8040  1.5694  0.2097
  403MOL0     H54393   0.660   1.361   6.280 -0.4045 -0.6978  3.0518
  403MOL0     H54394   0.799   1.472   6.263  0.1699  2.0949 -0.2876
  403MOL0     H54395   0.668   1.664   6.276  1.5828  0.3527  1.1632
  403MOL0     H54396   0.538   1.578   6.359 -0.0869  1.7381 -0.6678
  403MOL0     H54397   0.479   1.632   6.125  0.2657  0.5845 -1.0765
  403MOL0     H54398   0.480   1.456   6.131  0.6225  0.3263 -3.0501
  403MOL0     H54399   0.609   1.656   5.970  0.5304 -0.5136  0.0572
  403MOL0     H54400   0.743   1.575   6.062  0.1070 -0.9662  1.6499
  403MOL0     H54401   0.625   1.271   5.793  0.5296 -0.6344 -0.0571
  403MOL0     H54402   0.814   1.413   6.682 -2.0063 -1.4437 -0.2675
  403MOL0     H54403   1.114   1.326   6.828 -0.6108  0.6972  2.5752
  403MOL0     H54404   0.947   1.347   6.859 -0.6061 -0.7391 -0.6235
  403MOL0     H54405   1.016   1.180   6.865 -2.5875  1.0235  3.1802
  404MOL0     O54406   2.757   7.725   0.368  0.4632 -0.4958 -0.9865
  404MOL0     C54407   2.788   7.625   0.301 -0.1398 -0.6094  0.1138
  404MOL0     O54408   2.913   7.601   0.239  0.3935  0.1729 -0.0859
  404MOL0     C54409   3.034   7.671   0.258 -0.0144  0.1871  1.4252
  404MOL0     C54410   3.152   7.617   0.204  0.8060 -0.0861  0.1818
  404MOL0     C54411   3.273   7.675   0.231 -0.3165  0.3068  0.6487
  404MOL0     C54412   3.282   7.789   0.301  0.0203 -0.1415  0.1783
  404MOL0     O54413   3.412   7.833   0.302  0.5357 -0.0109  0.4855
  404MOL0     C54414   3.437   7.973   0.305  0.1613  0.3510  0.3167
  404MOL0     C54415   3.579   7.998   0.254 -0.5496 -0.9356  0.5316
  404MOL0     C54416   3.679   7.976   0.361 -0.7664  0.3765 -0.6142
  404MOL0     C54417   3.717   8.107   0.441  0.2946  0.0358 -0.0481
  404MOL0     C54418   3.797   8.205   0.358 -0.1962  1.1854  1.1412
  404MOL0     C54419   3.946   8.166   0.350  1.0228  0.3477  0.5956
  404MOL0     C54420   4.014   8.223   0.225 -0.1512  0.2218 -0.6007
  404MOL0     C54421   4.056   8.370   0.237 -0.6039  1.1445 -0.8359
  404MOL0     N54422   4.128   8.400   0.112 -0.8949  0.1712  0.4173
  404MOL0     C54423   4.086   8.466  -0.002 -0.3057  0.2096  0.5011
  404MOL0     C54424   4.197   8.486  -0.071  0.5316 -0.5408 -0.9556
  404MOL0     C54425   4.197   8.537  -0.216 -0.9847 -0.4771 -0.1041
  404MOL0     C54426   4.240   8.684  -0.228 -0.1842  0.0515  0.6802
  404MOL0     C54427   4.256   8.742  -0.377 -0.5316 -0.0388  0.2876
  404MOL0     C54428   4.386   8.681  -0.441 -0.6428 -0.1358 -0.3282
  404MOL0     O54429   4.498   8.695  -0.349  0.2109  0.1065 -0.5031
  404MOL0     C54430   4.619   8.671  -0.397 -0.2934 -0.3295 -0.0216
  404MOL0     C54431   4.647   8.639  -0.532 -0.2174  0.3633  0.1962
  404MOL0     C54432   4.778   8.608  -0.575 -0.7933  0.0010 -0.2367
  404MOL0     C54433   4.891   8.611  -0.487  0.1267  0.3605 -0.9195
  404MOL0     C54434   5.027   8.612  -0.540 -0.1504 -0.4334  0.4087
  404MOL0     O54435   5.130   8.642  -0.440  1.0768  0.6961  0.9233
  404MOL0     C54436   5.268   8.615  -0.464  0.2640 -1.4172  0.0803
  404MOL0     C54437   5.368   8.693  -0.398  0.4637  0.6323  0.1692
  404MOL0     C54438   5.502   8.647  -0.413  1.5774  0.5694 -2.0561
  404MOL0     C54439   5.537   8.534  -0.487 -0.2248 -0.5037 -0.0968
  404MOL0     O54440   5.662   8.484  -0.484 -1.0766  0.8051  0.3899
  404MOL0     C54441   5.767   8.576  -0.504  0.1457  0.3548 -0.2757
  404MOL0     C54442   5.888   8.515  -0.572  0.1352  0.6724  0.4015
  404MOL0     C54443   5.993   8.631  -0.604  0.3928  0.2453 -0.5167
  404MOL0     C54444   6.111   8.573  -0.679  0.2171  0.0402  0.2575
  404MOL0     C54445   6.221   8.676  -0.712  0.5658  0.1369 -0.1520
  404MOL0     C54446   6.348   8.599  -0.735  0.4683 -0.5800 -0.4660
  404MOL0     C54447   6.467   8.703  -0.753 -0.2701 -0.2991 -0.6928
  404MOL0     C54448   6.494   8.733  -0.906 -0.2036  0.2281  0.2415
  404MOL0    Cl54449   6.371   8.849  -0.950 -0.1761 -0.3552  0.5203
  404MOL0     C54450   5.434   8.465  -0.543  0.0366 -0.1025  0.5981
  404MOL0     C54451   5.305   8.509  -0.539 -0.4833  0.3735  0.2548
  404MOL0     O54452   5.045   8.585  -0.655 -0.2726  0.0582 -0.1442
  404MOL0     C54453   4.856   8.625  -0.347  0.1302  0.9738  0.2137
  404MOL0     C54454   4.721   8.645  -0.307  0.8909  0.1209 -0.2649
  404MOL0     N54455   4.306   8.458   0.003  0.0287  0.1835  0.1543
  404MOL0     N54456   4.264   8.395   0.109  0.3376  0.3730  0.9087
  404MOL0     C54457   3.162   7.847   0.349 -0.1395 -0.3421 -0.7672
  404MOL0     C54458   3.041   7.784   0.332 -0.5222  0.6413  0.3572
  404MOL0     C54459   2.681   7.521   0.274 -0.0754  0.8706  1.0962
  404MOL0     C54460   2.664   7.467   0.147  0.0284  0.6757 -0.3421
  404MOL0     C54461   2.574   7.367   0.116  0.5044 -0.4197 -0.1883
  404MOL0     C54462   2.493   7.320   0.220  0.1032 -0.3782  0.1901
  404MOL0     O54463   2.399   7.226   0.206  0.4394  0.8625  0.4608
  404MOL0     C54464   2.372   7.153   0.087 -0.0928 -0.3722 -0.0855
  404MOL0     C54465   2.226   7.120   0.075  0.4201  0.0598  0.1754
  404MOL0     C54466   2.185   7.123  -0.074  0.2275  0.0836 -0.2939
  404MOL0     C54467   2.039   7.086  -0.104  0.8096 -0.1474 -0.0204
  404MOL0     C54468   2.037   7.025  -0.242  0.4106 -0.6349  0.5298
  404MOL0     C54469   2.056   6.998  -0.365  0.3163  0.0958 -0.1195
  404MOL0     C54470   2.492   7.385   0.336  0.4668  0.0532  0.2509
  404MOL0     C54471   2.580   7.491   0.370  0.2251  0.7290 -0.4687
  404MOL0     C54472   2.566   7.563   0.511  0.2005  0.0873 -0.1520
  404MOL0     H54473   3.142   7.530   0.140 -0.5102 -0.9281  1.4494
  404MOL0     H54474   3.360   7.625   0.190 -1.8720 -2.7954  0.8769
  404MOL0     H54475   3.368   8.030   0.242 -0.0543 -2.0068 -1.7122
  404MOL0     H54476   3.418   8.009   0.407  4.1435  1.3383  0.8704
  404MOL0     H54477   3.582   8.102   0.221 -1.9094 -1.3200 -0.9363
  404MOL0     H54478   3.595   7.934   0.167 -1.3688  0.6530 -0.8472
  404MOL0     H54479   3.773   7.927   0.333 -0.3913  0.2588  0.7485
  404MOL0     H54480   3.636   7.907   0.434 -4.7612 -1.8337 -4.6180
  404MOL0     H54481   3.624   8.162   0.462  0.3163 -0.0769  0.3552
  404MOL0     H54482   3.782   8.084   0.526  1.7502  1.7858 -0.6087
  404MOL0     H54483   3.751   8.215   0.260  0.1166  1.4741  1.0235
  404MOL0     H54484   3.796   8.308   0.395 -1.1111  1.3485  0.7024
  404MOL0     H54485   4.007   8.173   0.440  1.1672 -3.0472  0.8946
  404MOL0     H54486   3.941   8.059   0.327  0.2322  0.5296 -0.1047
  404MOL0     H54487   3.951   8.209   0.137 -2.6749  1.0076  0.9445
  404MOL0     H54488   4.104   8.163   0.213 -0.1012  0.2229 -0.2649
  404MOL0     H54489   3.977   8.445   0.253 -1.0776  0.5885 -0.5362
  404MOL0     H54490   4.126   8.377   0.320  2.2399 -2.7078 -2.5879
  404MOL0     H54491   3.986   8.485  -0.038  0.5469  1.9977 -1.1207
  404MOL0     H54492   4.264   8.470  -0.271 -1.0487 -1.3207  0.8035
  404MOL0     H54493   4.096   8.518  -0.255 -1.8680 -0.6920  2.1390
  404MOL0     H54494   4.169   8.746  -0.174 -0.7295 -1.6409  1.9835
  404MOL0     H54495   4.338   8.690  -0.179 -0.8470  1.6557  1.8723
  404MOL0     H54496   4.284   8.848  -0.372 -0.2213  0.0930 -2.4695
  404MOL0     H54497   4.163   8.735  -0.434 -1.3616  1.2383  1.4519
  404MOL0     H54498   4.415   8.738  -0.530 -2.5794  1.5145  0.0311
  404MOL0     H54499   4.375   8.576  -0.466  1.8861 -0.5414 -0.0230
  404MOL0     H54500   4.573   8.635  -0.612 -0.2469  3.2926 -0.0450
  404MOL0     H54501   4.795   8.584  -0.680 -0.5046 -0.7662 -0.0242
  404MOL0     H54502   5.339   8.778  -0.338 -0.5142  0.5345 -0.1419
  404MOL0     H54503   5.575   8.708  -0.360  0.4287 -0.7561  1.2690
  404MOL0     H54504   5.731   8.656  -0.570 -0.6965 -1.0537 -1.5675
  404MOL0     H54505   5.799   8.615  -0.407 -2.8107 -0.0398  0.9672
  404MOL0     H54506   5.924   8.441  -0.500  0.3587  0.3492 -0.0400
  404MOL0     H54507   5.852   8.457  -0.657 -1.0193  0.1010  1.2469
  404MOL0     H54508   5.935   8.699  -0.666  0.1605 -0.2169 -0.8125
  404MOL0     H54509   6.021   8.686  -0.514 -0.3905 -1.1459  0.6151
  404MOL0     H54510   6.087   8.522  -0.773 -1.0151  0.6653  0.2033
  404MOL0     H54511   6.154   8.499  -0.610  0.5427 -0.4510 -0.4593
  404MOL0     H54512   6.224   8.756  -0.637  2.2720  0.5025 -0.5676
  404MOL0     H54513   6.195   8.723  -0.807  1.8100  1.3291  0.0698
  404MOL0     H54514   6.366   8.540  -0.645 -0.7227 -0.0544  0.1541
  404MOL0     H54515   6.332   8.534  -0.821 -3.6731 -0.6835  0.1553
  404MOL0     H54516   6.553   8.645  -0.720 -1.1084 -1.2748 -0.1610
  404MOL0     H54517   6.460   8.794  -0.692 -0.3409  0.8351 -2.3045
  404MOL0     H54518   6.595   8.773  -0.919 -0.4089  0.5287 -0.4768
  404MOL0     H54519   6.474   8.637  -0.955  0.0208 -0.3592  1.2750
  404MOL0     H54520   5.460   8.368  -0.584 -0.4966  0.8164 -2.1299
  404MOL0     H54521   5.223   8.454  -0.585 -0.7686  1.1052 -0.1208
  404MOL0     H54522   4.934   8.619  -0.272 -1.4771 -2.2322  1.8517
  404MOL0     H54523   4.707   8.655  -0.200 -1.8569  0.2440 -0.5631
  404MOL0     H54524   3.170   7.942   0.401  2.3948 -1.2768  0.7164
  404MOL0     H54525   2.954   7.835   0.372 -0.2739  1.1266  0.2896
  404MOL0     H54526   2.737   7.488   0.069  1.3088 -1.2168  0.2949
  404MOL0     H54527   2.573   7.333   0.013  1.3576  0.8912 -0.6537
  404MOL0     H54528   2.429   7.060   0.088  0.0276 -0.3222 -0.9736
  404MOL0     H54529   2.388   7.221   0.003 -2.6919 -0.2587 -0.5906
  404MOL0     H54530   2.169   7.196   0.128  1.4066  0.0825  1.2359
  404MOL0     H54531   2.218   7.022   0.122  1.4383 -0.9532 -1.6263
  404MOL0     H54532   2.253   7.065  -0.137 -2.1339 -0.6056 -2.3543
  404MOL0     H54533   2.188   7.229  -0.101  0.8091  1.0448  3.0448
  404MOL0     H54534   2.003   7.007  -0.038 -0.0756  0.1099 -0.1885
  404MOL0     H54535   1.977   7.175  -0.088 -2.5253 -2.5335  1.4681
  404MOL0     H54536   2.079   6.952  -0.459 -0.6779 -2.2235  0.7022
  404MOL0     H54537   2.427   7.339   0.410 -2.9636 -0.2686 -2.6603
  404MOL0     H54538   2.662   7.574   0.561 -1.1262 -0.2216  2.6348
  404MOL0     H54539   2.516   7.660   0.506  0.0298  0.0523  0.7328
  404MOL0     H54540   2.504   7.511   0.585  0.6007 -1.4053 -0.8161
  405MOL0     O54541   7.047   4.830   1.991 -0.6915  0.1009 -0.8936
  405MOL0     C54542   6.970   4.925   1.988  0.8963  0.0793  0.6137
  405MOL0     O54543   6.999   5.060   1.975 -0.3441  0.4535 -0.3979
  405MOL0     C54544   7.126   5.104   1.962 -0.0462  1.0335 -1.0180
  405MOL0     C54545   7.177   5.162   2.070  0.3838 -0.2036 -0.3034
  405MOL0     C54546   7.303   5.212   2.076  0.8610  0.1800  0.0188
  405MOL0     C54547   7.385   5.216   1.958 -0.8146  0.8333 -0.2980
  405MOL0     O54548   7.509   5.275   1.950 -0.6759 -0.7076  0.2608
  405MOL0     C54549   7.594   5.300   2.069 -0.0562  0.5120  0.2392
  405MOL0     C54550   7.704   5.397   2.031  0.5081  0.8596  0.7764
  405MOL0     C54551   7.786   5.340   1.914  1.1878  0.6098  0.1838
  405MOL0     C54552   7.918   5.411   1.902 -0.4923 -1.1208 -0.9334
  405MOL0     C54553   8.016   5.380   2.013 -0.5039 -0.0973 -0.0105
  405MOL0     C54554   8.128   5.477   2.008  0.5931 -0.2933 -0.4308
  405MOL0     C54555   8.229   5.434   2.118 -0.5906 -1.0262 -0.0088
  405MOL0     C54556   8.320   5.554   2.152  0.2471  1.2950 -0.1554
  405MOL0     N54557   8.437   5.520   2.229 -0.0151 -0.1260 -0.6073
  405MOL0     C54558   8.539   5.435   2.197 -0.3451  0.6162  0.2794
  405MOL0     C54559   8.621   5.438   2.308 -0.4770 -0.1952  0.1334
  405MOL0     C54560   8.747   5.354   2.323  0.2662 -0.0849 -0.2760
  405MOL0     C54561   8.771   5.276   2.452  1.0547 -0.5691  0.7763
  405MOL0     C54562   8.859   5.368   2.551  0.5650  0.7970  0.2423
  405MOL0     C54563   8.856   5.305   2.692 -0.8741  0.1072  0.7730
  405MOL0     O54564   8.884   5.164   2.696 -0.3179  0.6592 -0.7171
  405MOL0     C54565   9.011   5.119   2.690  0.6976  0.5818 -0.2981
  405MOL0     C54566   9.021   4.982   2.680 -0.5314 -0.1064 -0.4267
  405MOL0     C54567   9.142   4.921   2.673 -0.7505  0.0067 -0.3032
  405MOL0     C54568   9.266   4.989   2.691 -0.0950  0.4632  0.5288
  405MOL0     C54569   9.403   4.934   2.692 -0.2790 -0.0655 -0.4774
  405MOL0     O54570   9.510   5.012   2.717 -0.6233 -0.0827  0.1535
  405MOL0     C54571   9.634   4.973   2.684  0.2486  0.8510  0.4082
  405MOL0     C54572   9.665   4.967   2.545  1.0347 -0.0396 -0.0063
  405MOL0     C54573   9.790   4.921   2.500 -0.5296  0.5872 -0.1749
  405MOL0     C54574   9.890   4.871   2.592 -0.3799 -0.5383  1.4389
  405MOL0     O54575  10.005   4.824   2.535 -0.1356  0.3182 -0.1090
  405MOL0     C54576  10.003   4.721   2.441  0.4377  0.5051  0.0766
  405MOL0     C54577  10.043   4.591   2.507  0.0828 -1.4467  0.4245
  405MOL0     C54578  10.064   4.503   2.381 -0.8619 -1.0145  0.5291
  405MOL0     C54579  10.098   4.358   2.413 -0.8472 -0.5782 -0.2289
  405MOL0     C54580  10.149   4.261   2.298 -1.4507  0.3728 -0.3737
  405MOL0     C54581  10.039   4.222   2.195  0.1105 -0.4167 -1.1010
  405MOL0     C54582  10.096   4.153   2.070 -0.6172 -0.6989 -1.4758
  405MOL0     C54583   9.997   4.088   1.978  0.1488 -0.4088  0.3211
  405MOL0    Cl54584   9.884   4.198   1.898 -0.0333 -0.2996 -0.2660
  405MOL0     C54585   9.860   4.878   2.729 -0.6191 -0.4659 -0.2554
  405MOL0     C54586   9.731   4.927   2.777 -0.3083  0.3795 -0.7205
  405MOL0     O54587   9.407   4.814   2.663 -0.0015 -0.4192 -0.0103
  405MOL0     C54588   9.259   5.126   2.701  0.5524 -0.2740  0.1303
  405MOL0     C54589   9.131   5.193   2.693  0.0294 -0.0977  0.0730
  405MOL0     N54590   8.577   5.536   2.395  0.8669  0.6999  0.2480
  405MOL0     N54591   8.470   5.586   2.350 -0.4725  0.0601  0.0320
  405MOL0     C54592   7.335   5.153   1.842 -0.2172 -0.1711  0.0742
  405MOL0     C54593   7.202   5.096   1.853 -0.2506  0.7268  0.0260
  405MOL0     C54594   6.824   4.886   1.971  0.4156  0.5170 -0.3889
  405MOL0     C54595   6.740   4.960   1.885  0.1198  0.8325  0.6830
  405MOL0     C54596   6.610   4.933   1.858  0.0664  0.2920 -0.0270
  405MOL0     C54597   6.549   4.827   1.923  0.1634  0.7551  0.0911
  405MOL0     O54598   6.420   4.799   1.881 -0.3434 -0.0391  0.3101
  405MOL0     C54599   6.367   4.667   1.875 -0.0468 -0.3016  0.2370
  405MOL0     C54600   6.392   4.605   1.747  0.1894 -0.0662  0.1588
  405MOL0     C54601   6.322   4.676   1.629 -0.6498  0.2631 -0.1637
  405MOL0     C54602   6.356   4.631   1.483 -0.6383  0.1033 -0.3899
  405MOL0     C54603   6.313   4.491   1.458 -0.2319 -0.0269 -0.5645
  405MOL0     C54604   6.262   4.385   1.433 -0.4122  0.8556 -0.2210
  405MOL0     C54605   6.631   4.745   2.008 -0.0603  0.8101 -0.4271
  405MOL0     C54606   6.764   4.781   2.040 -0.6321  0.8435  1.0748
  405MOL0     C54607   6.845   4.677   2.114 -0.5152 -0.6770  0.4794
  405MOL0     H54608   7.113   5.172   2.158 -0.4294 -2.4956 -0.5628
  405MOL0     H54609   7.339   5.263   2.165 -1.3634 -0.2459  1.2322
  405MOL0     H54610   7.541   5.346   2.153  0.2574  3.2107 -0.9529
  405MOL0     H54611   7.634   5.202   2.098  1.6839  1.3693  0.8281
  405MOL0     H54612   7.766   5.420   2.118 -0.1074 -1.0419  1.7836
  405MOL0     H54613   7.656   5.492   2.006 -0.5193  0.6277  1.7487
  405MOL0     H54614   7.736   5.350   1.817  1.7648  1.1148 -0.0766
  405MOL0     H54615   7.790   5.232   1.930 -2.7493  0.3474  0.3907
  405MOL0     H54616   7.971   5.385   1.810 -1.4343 -0.3868 -1.7002
  405MOL0     H54617   7.896   5.518   1.896 -0.3411 -1.1161 -1.4878
  405MOL0     H54618   7.975   5.381   2.115 -1.5202 -0.5348 -0.4112
  405MOL0     H54619   8.053   5.277   2.003  2.3268  0.8924 -0.7809
  405MOL0     H54620   8.177   5.468   1.911 -1.3117 -1.1746 -1.3821
  405MOL0     H54621   8.093   5.579   2.029  0.8857 -0.3900  0.5640
  405MOL0     H54622   8.292   5.355   2.077  0.1422 -0.9199  0.8871
  405MOL0     H54623   8.186   5.398   2.211  2.5564 -0.7265  1.6918
  405MOL0     H54624   8.358   5.601   2.061 -0.3703  0.6085 -0.7881
  405MOL0     H54625   8.264   5.631   2.207  0.1431 -0.3101  2.1215
  405MOL0     H54626   8.547   5.366   2.113 -0.4673 -0.0138  0.7749
  405MOL0     H54627   8.752   5.282   2.241  3.5188  0.0587 -0.3179
  405MOL0     H54628   8.830   5.420   2.297 -0.3056  0.2856 -1.2449
  405MOL0     H54629   8.678   5.231   2.488  0.0335 -1.2996 -2.4280
  405MOL0     H54630   8.814   5.178   2.428 -0.7135 -0.7702 -2.0542
  405MOL0     H54631   8.818   5.469   2.552 -1.4813  0.1350 -2.6458
  405MOL0     H54632   8.961   5.372   2.512  0.0711 -0.0753 -1.2025
  405MOL0     H54633   8.762   5.327   2.743 -0.2890 -0.4111  2.1208
  405MOL0     H54634   8.935   5.364   2.739 -0.4547  1.9337 -2.0075
  405MOL0     H54635   8.927   4.935   2.655 -0.5106 -1.6368  2.0021
  405MOL0     H54636   9.144   4.812   2.669  1.9416 -0.0723  0.9787
  405MOL0     H54637   9.593   4.999   2.471 -0.4581 -1.9689  0.5294
  405MOL0     H54638   9.824   4.900   2.399  2.3338 -0.8969  0.9994
  405MOL0     H54639   9.904   4.717   2.394  1.9733 -0.7797 -3.4044
  405MOL0     H54640  10.075   4.756   2.366  0.7915  0.4865  0.4101
  405MOL0     H54641  10.139   4.603   2.558  1.3503 -0.4876 -2.0315
  405MOL0     H54642   9.965   4.554   2.574  0.4738  0.7019  2.1886
  405MOL0     H54643   9.969   4.501   2.326  0.2763  0.0510 -1.5638
  405MOL0     H54644  10.138   4.546   2.313 -1.0150 -1.1882  0.2475
  405MOL0     H54645  10.010   4.318   2.464 -2.6932  0.7083 -2.1866
  405MOL0     H54646  10.178   4.365   2.487  0.1344  2.2295 -1.4109
  405MOL0     H54647  10.180   4.166   2.342 -0.4426  0.9571  0.2218
  405MOL0     H54648  10.225   4.299   2.230  1.3405 -1.1087  1.7116
  405MOL0     H54649   9.964   4.155   2.238 -1.0948 -0.0888 -2.6027
  405MOL0     H54650   9.976   4.305   2.161  0.4206 -0.4778 -1.8556
  405MOL0     H54651  10.165   4.078   2.109 -2.5131 -1.8802 -0.1576
  405MOL0     H54652  10.154   4.221   2.007  0.8158 -1.5955 -1.1664
  405MOL0     H54653  10.049   4.026   1.903  0.5573 -1.3589  1.3572
  405MOL0     H54654   9.935   4.024   2.042 -0.4256  0.1403  0.3217
  405MOL0     H54655   9.924   4.842   2.808  0.9577  0.9205 -0.8384
  405MOL0     H54656   9.713   4.949   2.882 -0.2885  3.0259 -1.1927
  405MOL0     H54657   9.355   5.175   2.710  1.1569 -1.3581 -0.2107
  405MOL0     H54658   9.136   5.301   2.686  2.0841 -0.0636  1.2976
  405MOL0     H54659   7.385   5.143   1.746  1.6020 -0.8554  1.0495
  405MOL0     H54660   7.163   5.045   1.766  1.4048  0.3305 -0.5355
  405MOL0     H54661   6.776   5.051   1.838  0.1694 -0.1678 -1.3690
  405MOL0     H54662   6.552   5.005   1.802 -0.5331  1.7530  2.3081
  405MOL0     H54663   6.260   4.661   1.898  0.1989  0.0519  1.5561
  405MOL0     H54664   6.409   4.607   1.956  1.3951 -0.0296 -0.2899
  405MOL0     H54665   6.371   4.498   1.756  0.4988 -0.2466 -1.0868
  405MOL0     H54666   6.499   4.607   1.726  0.2922  0.0202  0.6934
  405MOL0     H54667   6.353   4.780   1.638 -2.6460  0.9035 -0.1322
  405MOL0     H54668   6.213   4.665   1.641 -0.7729  1.0327 -0.4889
  405MOL0     H54669   6.301   4.700   1.420  0.7887 -0.0856 -1.9285
  405MOL0     H54670   6.463   4.635   1.460  0.1866 -0.2331  2.8720
  405MOL0     H54671   6.209   4.299   1.396 -0.8017  1.5031 -1.2394
  405MOL0     H54672   6.579   4.672   2.069  1.1914 -2.4171 -2.9023
  405MOL0     H54673   6.901   4.623   2.037 -1.1693  0.2780 -0.7149
  405MOL0     H54674   6.899   4.726   2.196  0.6065 -1.0907  0.0131
  405MOL0     H54675   6.781   4.602   2.161 -1.1498  0.2754  1.1747
  406MOL0     O54676   0.276   4.689   0.029 -0.3243  0.2394 -0.4917
  406MOL0     C54677   0.214   4.770   0.101  0.3718  0.5944 -0.2202
  406MOL0     O54678   0.260   4.838   0.211  0.0624 -0.2647  0.2108
  406MOL0     C54679   0.388   4.801   0.244 -0.4500  0.1027 -0.0149
  406MOL0     C54680   0.494   4.888   0.223 -0.6700 -0.9279  0.5552
  406MOL0     C54681   0.623   4.857   0.262 -0.3216  0.2695  0.7560
  406MOL0     C54682   0.652   4.732   0.311  0.4518 -0.1307  0.1408
  406MOL0     O54683   0.793   4.707   0.321 -0.4700 -0.4648  1.2758
  406MOL0     C54684   0.830   4.575   0.328 -0.2973 -0.6004  0.9372
  406MOL0     C54685   0.982   4.561   0.330  0.1339 -0.4842  0.5928
  406MOL0     C54686   1.041   4.634   0.449  1.1349 -0.2598  0.5910
  406MOL0     C54687   1.195   4.631   0.446 -0.0892  0.3515 -0.3805
  406MOL0     C54688   1.263   4.653   0.582  0.5486  0.0651 -0.1069
  406MOL0     C54689   1.409   4.680   0.568  0.1901 -0.2458  0.0688
  406MOL0     C54690   1.490   4.647   0.692  0.1061 -0.7004 -0.5346
  406MOL0     C54691   1.469   4.749   0.800  0.5996  0.0379 -0.1241
  406MOL0     N54692   1.590   4.823   0.841 -0.3147 -1.3282 -0.0736
  406MOL0     C54693   1.711   4.767   0.888 -0.7176 -0.1502 -0.5267
  406MOL0     C54694   1.785   4.884   0.914  0.1383 -0.5850  0.5128
  406MOL0     C54695   1.918   4.897   0.982 -0.5542 -0.1918 -0.2188
  406MOL0     C54696   1.907   4.862   1.133 -0.5509  0.7199 -0.2316
  406MOL0     C54697   2.028   4.923   1.213  0.7039  1.0372  0.7738
  406MOL0     C54698   2.167   4.878   1.159 -0.1618 -0.8021  0.8483
  406MOL0     O54699   2.223   4.969   1.059 -0.0891  0.1812 -0.8390
  406MOL0     C54700   2.346   4.940   1.011  0.4378 -0.2111 -0.0556
  406MOL0     C54701   2.385   5.025   0.910 -0.5739  0.3200 -0.1777
  406MOL0     C54702   2.513   5.015   0.849 -0.1343 -0.6945  0.2615
  406MOL0     C54703   2.599   4.909   0.895  0.4268 -0.5113  0.8744
  406MOL0     C54704   2.729   4.886   0.826 -0.4434 -0.0550  0.8963
  406MOL0     O54705   2.755   4.985   0.728 -0.0337 -1.0766  0.7490
  406MOL0     C54706   2.882   5.004   0.695  0.1513  0.0670  0.2415
  406MOL0     C54707   2.945   5.118   0.744 -0.3870  0.1630 -0.5190
  406MOL0     C54708   3.086   5.121   0.730  0.8401 -0.1046  0.2733
  406MOL0     C54709   3.155   5.029   0.649  1.1471 -0.3352  0.0665
  406MOL0     O54710   3.291   5.056   0.658  0.6889  0.3883  0.4653
  406MOL0     C54711   3.370   4.985   0.564 -0.3440  0.3736 -0.0814
  406MOL0     C54712   3.516   5.016   0.575 -0.7814  0.4561 -1.1530
  406MOL0     C54713   3.543   5.162   0.557 -0.3568 -0.9437  0.2820
  406MOL0     C54714   3.527   5.208   0.407  0.9592  0.0519 -0.1340
  406MOL0     C54715   3.570   5.351   0.393 -0.4400  0.1305  0.0743
  406MOL0     C54716   3.561   5.391   0.246 -0.6818  0.9805 -0.1033
  406MOL0     C54717   3.675   5.485   0.192 -0.2304 -0.4943 -0.1836
  406MOL0     C54718   3.681   5.480   0.031  0.2540 -1.0329  0.0479
  406MOL0    Cl54719   3.808   5.586  -0.036 -0.5752  0.4171 -0.1236
  406MOL0     C54720   3.087   4.942   0.572 -0.3268 -0.0769  0.0007
  406MOL0     C54721   2.952   4.922   0.602  1.2730 -0.1594 -0.4510
  406MOL0     O54722   2.797   4.783   0.841 -0.6897 -0.2728  0.3648
  406MOL0     C54723   2.556   4.824   1.003 -0.4044 -0.4857 -0.5776
  406MOL0     C54724   2.436   4.845   1.062  0.4635 -0.1169 -0.6585
  406MOL0     N54725   1.710   4.995   0.886 -1.0652  0.3513  0.4240
  406MOL0     N54726   1.594   4.961   0.842  0.3138 -0.9688 -0.3775
  406MOL0     C54727   0.543   4.645   0.338 -0.1253 -0.4897  0.0685
  406MOL0     C54728   0.412   4.677   0.313  0.5621 -1.1485 -0.6299
  406MOL0     C54729   0.075   4.793   0.067  0.7102  0.1320 -0.1750
  406MOL0     C54730   0.015   4.914   0.097  0.8371 -0.4287 -0.4719
  406MOL0     C54731  -0.110   4.959   0.055  0.7808  0.3524  1.3106
  406MOL0     C54732  -0.173   4.879  -0.040  0.3633 -1.8245  0.0733
  406MOL0     O54733  -0.288   4.935  -0.096  0.0871 -0.2743 -0.3825
  406MOL0     C54734  -0.362   4.860  -0.194  0.0491 -0.3139 -0.0350
  406MOL0     C54735  -0.456   4.956  -0.270 -0.4724 -0.4835  0.7999
  406MOL0     C54736  -0.543   4.877  -0.376  0.5375 -0.2942  0.5101
  406MOL0     C54737  -0.683   4.934  -0.398 -0.4464 -0.6363  1.1677
  406MOL0     C54738  -0.788   4.827  -0.397 -0.4874 -1.1138  0.4208
  406MOL0     C54739  -0.869   4.734  -0.391 -0.5858  0.3154 -0.3212
  406MOL0     C54740  -0.117   4.750  -0.068  0.3513 -0.0074  0.1594
  406MOL0     C54741   0.002   4.700  -0.014 -0.3729 -0.0875  0.4721
  406MOL0     C54742   0.049   4.557  -0.052 -0.6220 -0.1881 -0.2414
  406MOL0     H54743   0.470   4.991   0.199  0.0255 -1.0588 -0.7760
  406MOL0     H54744   0.706   4.925   0.243 -0.8005  1.0007  1.2404
  406MOL0     H54745   0.782   4.539   0.419  1.3216 -0.6425  1.8049
  406MOL0     H54746   0.789   4.519   0.243  2.4029 -1.1997 -0.0721
  406MOL0     H54747   1.018   4.604   0.236 -1.7376 -0.0057  0.0452
  406MOL0     H54748   1.020   4.460   0.310 -1.1423 -0.7628 -0.5914
  406MOL0     H54749   1.005   4.599   0.546  0.1194 -1.7278 -0.2835
  406MOL0     H54750   1.015   4.741   0.446  1.4950 -0.1875 -1.2158
  406MOL0     H54751   1.222   4.537   0.397 -1.1561 -0.4958  0.6111
  406MOL0     H54752   1.235   4.711   0.382 -1.4071  0.9500 -0.4814
  406MOL0     H54753   1.216   4.742   0.627 -1.4422 -0.4118 -1.1123
  406MOL0     H54754   1.243   4.575   0.656 -0.6339 -2.0047 -2.4754
  406MOL0     H54755   1.437   4.618   0.482 -1.5976 -3.1813  1.4558
  406MOL0     H54756   1.435   4.782   0.537  0.3394 -0.4142 -0.3728
  406MOL0     H54757   1.597   4.637   0.670  1.7944  1.6698  4.8902
  406MOL0     H54758   1.460   4.550   0.732 -0.1261 -0.1336  0.7162
  406MOL0     H54759   1.399   4.823   0.759 -1.3285 -1.4381  0.3522
  406MOL0     H54760   1.427   4.692   0.883 -0.6674  1.8996  0.5788
  406MOL0     H54761   1.740   4.664   0.904 -0.7562 -0.2747 -1.2043
  406MOL0     H54762   1.986   4.824   0.936 -0.2984 -0.1837  0.1358
  406MOL0     H54763   1.949   5.002   0.976  1.6671 -0.8733 -2.6630
  406MOL0     H54764   1.816   4.902   1.179 -0.9255 -1.7163  1.3045
  406MOL0     H54765   1.903   4.754   1.143 -1.6791  0.6312 -1.4374
  406MOL0     H54766   2.017   4.907   1.321 -2.9531 -1.3248  0.2174
  406MOL0     H54767   2.011   5.030   1.198  1.3689  0.8996 -1.2118
  406MOL0     H54768   2.167   4.778   1.114  2.0394 -1.0994  1.4048
  406MOL0     H54769   2.238   4.863   1.241  0.1612 -2.9530  0.2396
  406MOL0     H54770   2.321   5.109   0.884 -0.9170  0.2579  0.4510
  406MOL0     H54771   2.546   5.087   0.776  1.5753 -2.5340 -0.8747
  406MOL0     H54772   2.894   5.185   0.812  0.5761  0.3814  0.0165
  406MOL0     H54773   3.138   5.203   0.779  4.1035 -1.3268 -0.8622
  406MOL0     H54774   3.356   4.877   0.565  0.7802  0.1812 -1.5955
  406MOL0     H54775   3.342   5.018   0.464  2.4377 -1.0110 -1.4326
  406MOL0     H54776   3.539   4.987   0.678  0.1856 -0.1244 -1.5206
  406MOL0     H54777   3.566   4.955   0.499  1.6655 -3.2256  2.9621
  406MOL0     H54778   3.493   5.219   0.636 -1.0123 -0.2253 -0.6341
  406MOL0     H54779   3.646   5.170   0.594 -1.1637 -1.3617  2.7602
  406MOL0     H54780   3.428   5.191   0.363  1.5697  2.0754 -2.5037
  406MOL0     H54781   3.595   5.158   0.338 -0.3849  2.2638 -3.3119
  406MOL0     H54782   3.673   5.365   0.429 -1.2466  3.3142  1.4654
  406MOL0     H54783   3.510   5.415   0.458 -0.3909 -0.0814  0.3298
  406MOL0     H54784   3.581   5.295   0.197 -0.8191 -0.4859  2.5366
  406MOL0     H54785   3.461   5.427   0.220 -0.5645  0.2334 -1.7565
  406MOL0     H54786   3.764   5.449   0.243 -1.0299 -0.4862  1.2899
  406MOL0     H54787   3.650   5.581   0.239 -0.0117  0.5863 -2.1382
  406MOL0     H54788   3.702   5.380  -0.007 -1.0426 -0.9614 -0.9134
  406MOL0     H54789   3.582   5.505  -0.006  0.6490  0.0310 -0.3446
  406MOL0     H54790   3.130   4.881   0.494 -0.3873 -0.5876  0.3615
  406MOL0     H54791   2.894   4.836   0.571  0.4494 -0.0736  0.7987
  406MOL0     H54792   2.611   4.742   1.048  1.4190  1.1151  0.2339
  406MOL0     H54793   2.416   4.771   1.139 -2.7550 -0.8220 -2.0073
  406MOL0     H54794   0.567   4.546   0.376  0.9258  0.5033  2.1857
  406MOL0     H54795   0.322   4.621   0.337  0.1005 -0.0799  0.2473
  406MOL0     H54796   0.068   4.976   0.169  1.8647 -0.4230 -1.2027
  406MOL0     H54797  -0.149   5.057   0.079  1.2092 -0.1479  4.5483
  406MOL0     H54798  -0.425   4.784  -0.148  1.2685 -0.8693  0.7689
  406MOL0     H54799  -0.299   4.807  -0.267 -0.4810 -0.1189 -0.6446
  406MOL0     H54800  -0.401   5.032  -0.325  1.9162 -0.7856  2.6376
  406MOL0     H54801  -0.527   5.007  -0.204 -2.0702  0.1330 -1.2915
  406MOL0     H54802  -0.544   4.776  -0.334  1.4834 -0.5122  0.0278
  406MOL0     H54803  -0.489   4.885  -0.471  0.3714  5.1178  0.5436
  406MOL0     H54804  -0.711   5.013  -0.327 -1.3919  0.1130 -0.0021
  406MOL0     H54805  -0.686   4.976  -0.499 -1.3103 -1.3887  0.8668
  406MOL0     H54806  -0.930   4.646  -0.381 -0.7293 -0.0376 -3.2007
  406MOL0     H54807  -0.162   4.678  -0.136 -3.1277  1.0110  1.1954
  406MOL0     H54808   0.106   4.569  -0.145  1.2068 -1.1298  0.6891
  406MOL0     H54809   0.121   4.499   0.008 -1.9930 -0.9217  0.7487
  406MOL0     H54810  -0.038   4.491  -0.060  0.3925 -1.4922 -1.0701
  407MOL0     O54811   4.743   3.361   6.054  0.4074 -0.0625  0.6720
  407MOL0     C54812   4.729   3.239   6.060  0.4433  0.4738 -0.4597
  407MOL0     O54813   4.622   3.166   6.021  0.5907 -0.0848 -0.4690
  407MOL0     C54814   4.530   3.208   5.921  0.1496  0.8027 -1.1147
  407MOL0     C54815   4.513   3.328   5.847 -0.0967  0.2984 -0.5952
  407MOL0     C54816   4.419   3.344   5.745 -0.6571  0.0154 -0.5192
  407MOL0     C54817   4.333   3.230   5.711  0.4897 -0.3906 -0.8409
  407MOL0     O54818   4.246   3.249   5.614  0.8701 -0.7446 -0.3687
  407MOL0     C54819   4.228   3.152   5.513  0.3013  0.6443 -0.2608
  407MOL0     C54820   4.229   3.202   5.377 -0.1361 -0.6389  0.2552
  407MOL0     C54821   4.364   3.255   5.335  1.2785 -0.1981  0.5148
  407MOL0     C54822   4.391   3.215   5.187 -0.3861 -0.2796  0.7978
  407MOL0     C54823   4.516   3.268   5.129  0.2225  0.0502  0.3683
  407MOL0     C54824   4.557   3.199   4.986 -0.2540  0.5606  0.4094
  407MOL0     C54825   4.701   3.254   4.936  0.0350 -0.3341  0.0468
  407MOL0     C54826   4.770   3.159   4.836 -0.1412 -0.2296 -0.0312
  407MOL0     N54827   4.912   3.172   4.818 -0.1240 -0.1234 -0.2321
  407MOL0     C54828   5.006   3.108   4.888 -0.7242  0.1603  0.4080
  407MOL0     C54829   5.115   3.114   4.812 -0.9249  0.0408 -0.2150
  407MOL0     C54830   5.240   3.063   4.881 -0.3100 -0.3351  1.2683
  407MOL0     C54831   5.351   3.163   4.854  0.3806 -0.3231 -0.4639
  407MOL0     C54832   5.489   3.108   4.901  0.7194  0.4760  0.1442
  407MOL0     C54833   5.543   2.992   4.810  0.3485 -0.0171  1.1338
  407MOL0     O54834   5.619   2.899   4.880  0.3347 -0.2245  0.0457
  407MOL0     C54835   5.744   2.952   4.928  0.6044 -0.0671  0.6068
  407MOL0     C54836   5.806   3.078   4.885  0.6344 -0.5978 -0.2934
  407MOL0     C54837   5.931   3.112   4.938  0.0620  0.3810  0.3176
  407MOL0     C54838   5.999   3.023   5.029  0.0283 -0.4068  0.6749
  407MOL0     C54839   6.130   3.055   5.074 -0.1418  0.0710 -0.0140
  407MOL0     O54840   6.193   3.170   5.031  0.0814  0.2828  0.0071
  407MOL0     C54841   6.329   3.198   5.054 -0.6296  0.3805  0.2484
  407MOL0     C54842   6.429   3.107   5.089 -0.2158 -0.0224 -0.3833
  407MOL0     C54843   6.563   3.145   5.111  0.1472 -0.1205 -0.2339
  407MOL0     C54844   6.598   3.283   5.097  0.4264 -0.6045  0.1790
  407MOL0     O54845   6.736   3.312   5.110 -0.1706 -0.1455 -0.3894
  407MOL0     C54846   6.797   3.437   5.062 -0.5570 -0.1283  0.0503
  407MOL0     C54847   6.951   3.427   5.054 -0.4127  0.5376  0.6282
  407MOL0     C54848   7.015   3.556   5.053  0.3280 -0.6965  0.6650
  407MOL0     C54849   7.171   3.533   5.018 -0.4343  0.3788  0.7558
  407MOL0     C54850   7.257   3.658   5.026 -0.1610  0.3890 -0.0037
  407MOL0     C54851   7.408   3.652   5.035 -0.2840 -0.3163 -0.2274
  407MOL0     C54852   7.456   3.793   5.047 -0.4139 -0.0408 -0.7181
  407MOL0     C54853   7.607   3.801   5.041 -0.5553 -1.1729 -0.1603
  407MOL0    Cl54854   7.669   3.772   4.868 -0.4565  0.0672  0.1961
  407MOL0     C54855   6.494   3.376   5.057  0.2587 -0.6962 -0.4874
  407MOL0     C54856   6.363   3.335   5.036 -0.5873 -0.2577 -0.2754
  407MOL0     O54857   6.183   2.974   5.150  0.3787 -0.7226  0.6353
  407MOL0     C54858   5.926   2.908   5.066 -0.0422 -0.4902 -0.4240
  407MOL0     C54859   5.809   2.876   5.015 -0.5269 -0.7149  0.1479
  407MOL0     N54860   5.090   3.186   4.697  0.5141  1.3205 -0.2293
  407MOL0     N54861   4.969   3.222   4.704 -0.0271  0.4781  0.9154
  407MOL0     C54862   4.346   3.103   5.780  0.0792 -0.8505  0.0469
  407MOL0     C54863   4.447   3.093   5.883  0.2871  0.4048 -0.2850
  407MOL0     C54864   4.817   3.171   6.148  0.9803  0.1392 -1.0353
  407MOL0     C54865   4.757   3.075   6.236  0.1266  0.8327  0.3426
  407MOL0     C54866   4.843   2.999   6.323 -0.3258 -0.2736 -0.4655
  407MOL0     C54867   4.981   3.015   6.321  0.7885  0.2513  0.1903
  407MOL0     O54868   5.053   2.936   6.404  0.1393  0.6570 -0.6805
  407MOL0     C54869   5.198   2.938   6.394 -0.7613  0.1507 -0.1523
  407MOL0     C54870   5.270   3.051   6.463 -1.2543 -0.4323 -0.1035
  407MOL0     C54871   5.421   3.047   6.467  0.4809 -0.0379 -0.7835
  407MOL0     C54872   5.488   3.050   6.328 -0.8891  0.2688 -0.4678
  407MOL0     C54873   5.635   3.084   6.314 -0.4716 -0.1213 -0.3693
  407MOL0     C54874   5.755   3.081   6.318 -0.0869  0.0791  0.4148
  407MOL0     C54875   5.029   3.100   6.233  0.2914  0.1775 -0.1291
  407MOL0     C54876   4.954   3.179   6.145 -0.2669  0.5530 -0.4230
  407MOL0     C54877   5.035   3.253   6.041  0.4836  0.0697  0.0444
  407MOL0     H54878   4.570   3.414   5.881 -0.5139  0.4846 -0.3655
  407MOL0     H54879   4.434   3.433   5.685 -0.1600  0.3226  0.0426
  407MOL0     H54880   4.317   3.088   5.518 -0.8904 -0.9986  1.1467
  407MOL0     H54881   4.147   3.080   5.527  1.6725 -0.4908  2.7070
  407MOL0     H54882   4.145   3.271   5.368 -0.3556 -1.1847 -2.6957
  407MOL0     H54883   4.194   3.122   5.311  1.4584  0.1386 -1.6352
  407MOL0     H54884   4.440   3.208   5.398  0.3470 -0.2965  1.5769
  407MOL0     H54885   4.366   3.363   5.347 -1.8166 -0.1333  1.2343
  407MOL0     H54886   4.397   3.106   5.179 -2.1641 -0.4007  0.6349
  407MOL0     H54887   4.305   3.229   5.121  1.1592 -0.6497 -1.4238
  407MOL0     H54888   4.516   3.375   5.106  3.0816  0.0043 -0.2027
  407MOL0     H54889   4.598   3.255   5.200  0.2226  0.5373  0.4639
  407MOL0     H54890   4.554   3.090   4.984  1.1872  0.5061  0.0796
  407MOL0     H54891   4.484   3.237   4.914 -0.5030  2.8108  1.7658
  407MOL0     H54892   4.765   3.260   5.025  0.3704 -1.1832 -0.1271
  407MOL0     H54893   4.704   3.348   4.882  1.4055 -1.0264 -1.1469
  407MOL0     H54894   4.752   3.054   4.859  0.4637 -0.9484 -2.4371
  407MOL0     H54895   4.736   3.175   4.733 -1.7461 -0.4980  0.4289
  407MOL0     H54896   5.006   3.058   4.984 -0.4592  1.6347  1.2205
  407MOL0     H54897   5.229   3.045   4.989  1.6506 -1.1699  1.3688
  407MOL0     H54898   5.264   2.973   4.825  0.7190  1.7882 -1.9539
  407MOL0     H54899   5.362   3.193   4.749  4.3629  0.2110 -0.0375
  407MOL0     H54900   5.318   3.250   4.911  0.1695 -0.9730  0.4308
  407MOL0     H54901   5.499   3.056   4.996  1.6654 -1.8638 -1.1508
  407MOL0     H54902   5.568   3.183   4.896  0.3950  0.9514  1.7834
  407MOL0     H54903   5.599   3.026   4.722 -0.5201  0.1715  0.6408
  407MOL0     H54904   5.463   2.932   4.765  1.1712  0.1295 -0.6098
  407MOL0     H54905   5.765   3.142   4.807 -1.5805 -0.3389  1.0200
  407MOL0     H54906   5.984   3.198   4.899 -0.2979  0.4936  0.0687
  407MOL0     H54907   6.403   3.005   5.117  1.9052 -0.7093 -0.7432
  407MOL0     H54908   6.650   3.089   5.145  0.9002  0.9234 -0.3714
  407MOL0     H54909   6.752   3.459   4.965  0.4692  1.0779 -0.1757
  407MOL0     H54910   6.773   3.507   5.142  0.1108 -1.0179  1.0684
  407MOL0     H54911   6.980   3.377   5.147  0.8802  1.6379  0.8401
  407MOL0     H54912   6.983   3.362   4.972 -0.6071 -0.1779  1.1074
  407MOL0     H54913   6.976   3.619   4.972  2.6157 -3.2616 -2.7270
  407MOL0     H54914   6.999   3.607   5.149 -2.3674  0.4342 -0.2901
  407MOL0     H54915   7.203   3.480   4.928  1.4560 -2.8371  3.1139
  407MOL0     H54916   7.202   3.463   5.097 -0.5344  0.0515  0.5060
  407MOL0     H54917   7.234   3.711   5.119 -0.4162  1.5161 -0.6956
  407MOL0     H54918   7.233   3.726   4.943  0.0940 -0.0587 -0.4514
  407MOL0     H54919   7.450   3.593   5.116  0.0515  1.5411  1.0232
  407MOL0     H54920   7.443   3.617   4.937  0.4677  0.3713 -0.2161
  407MOL0     H54921   7.428   3.826   5.147 -1.7049 -0.2074 -1.0096
  407MOL0     H54922   7.415   3.865   4.976 -0.8120  0.0180 -0.4297
  407MOL0     H54923   7.629   3.900   5.083 -3.5342 -0.8732  0.8992
  407MOL0     H54924   7.659   3.735   5.110 -0.3180 -0.9643 -0.1352
  407MOL0     H54925   6.531   3.475   5.033 -0.1830 -0.6219 -0.8830
  407MOL0     H54926   6.278   3.395   5.005  0.8207  1.5546 -0.8359
  407MOL0     H54927   5.963   2.836   5.139 -3.4120 -1.7210  0.2642
  407MOL0     H54928   5.774   2.779   5.049 -0.0743 -0.7375  0.5685
  407MOL0     H54929   4.276   3.024   5.755  0.4905 -1.4560  0.7820
  407MOL0     H54930   4.449   2.993   5.925 -2.6197 -0.3090 -1.5973
  407MOL0     H54931   4.649   3.077   6.248  0.0810 -0.5345  0.2861
  407MOL0     H54932   4.802   2.934   6.400  1.1475  2.2012  2.6159
  407MOL0     H54933   5.225   2.930   6.288 -0.9787  2.2265 -0.3991
  407MOL0     H54934   5.231   2.847   6.445  2.0999  1.0027 -0.3289
  407MOL0     H54935   5.244   3.063   6.568 -1.6354  1.8769 -0.4090
  407MOL0     H54936   5.237   3.146   6.419  1.4780  1.0911  0.9036
  407MOL0     H54937   5.455   2.957   6.518 -0.2035 -0.7736 -1.5957
  407MOL0     H54938   5.450   3.127   6.536 -1.1151 -0.8654  0.9280
  407MOL0     H54939   5.465   2.954   6.279 -1.2093 -2.0015  3.6417
  407MOL0     H54940   5.433   3.125   6.271 -0.5223 -0.7279 -2.1860
  407MOL0     H54941   5.860   3.060   6.322 -0.0876  0.2063  1.3135
  407MOL0     H54942   5.137   3.101   6.236  0.3360 -1.8471  1.3658
  407MOL0     H54943   4.987   3.351   6.033  1.4701  0.6534  0.9691
  407MOL0     H54944   5.141   3.262   6.067  0.7528 -2.0995 -0.1447
  407MOL0     H54945   5.026   3.201   5.945  1.1091  0.1203 -0.0492
  408MOL0     O54946  10.742   2.640  10.524 -0.6114 -0.0803 -0.1850
  408MOL0     C54947  10.821   2.544  10.534 -0.3921 -0.7380 -0.3764
  408MOL0     O54948  10.789   2.412  10.524 -0.6935 -0.4724  0.6543
  408MOL0     C54949  10.661   2.369  10.511 -0.3986  0.1473 -0.7749
  408MOL0     C54950  10.641   2.235  10.472 -0.2988 -0.4563 -0.0069
  408MOL0     C54951  10.515   2.172  10.466 -0.7442  0.1091 -0.2007
  408MOL0     C54952  10.397   2.241  10.507  1.1098 -0.6672 -1.3555
  408MOL0     O54953  10.272   2.195  10.501  0.0150 -0.1332  0.4439
  408MOL0     C54954  10.253   2.053  10.507  0.0569  0.1635 -0.7548
  408MOL0     C54955  10.103   2.023  10.494 -0.0156 -0.6521 -0.9324
  408MOL0     C54956  10.021   2.111  10.598  0.5367  0.7869  0.2793
  408MOL0     C54957   9.880   2.045  10.608  0.7673  1.0934  0.0262
  408MOL0     C54958   9.806   2.108  10.720  0.3617 -0.0160  0.0867
  408MOL0     C54959   9.688   2.031  10.781  0.2240  1.0289 -0.0028
  408MOL0     C54960   9.717   1.940  10.901 -0.2077  0.1868 -0.4423
  408MOL0     C54961   9.603   1.848  10.923 -0.2213 -0.6945 -0.0983
  408MOL0     N54962   9.469   1.910  10.930 -0.1682 -0.4110  0.0326
  408MOL0     C54963   9.373   1.931  11.030 -0.6168 -0.3764  0.9455
  408MOL0     C54964   9.261   1.967  10.962  0.0316  0.5966 -0.0508
  408MOL0     C54965   9.128   1.987  11.030  0.0053 -0.2941  0.5600
  408MOL0     C54966   9.027   1.893  10.963 -0.3843  0.3756  1.2389
  408MOL0     C54967   8.890   1.906  11.029 -0.0803  1.4617 -0.2489
  408MOL0     C54968   8.810   2.025  10.966  0.2684  0.8818 -0.3497
  408MOL0     O54969   8.672   2.033  11.002 -0.9701 -0.1640 -0.1705
  408MOL0     C54970   8.575   1.950  10.958 -0.1725 -0.1798 -1.6033
  408MOL0     C54971   8.591   1.843  10.866  0.4809  0.1834 -0.3732
  408MOL0     C54972   8.479   1.782  10.802 -0.6013 -0.5202 -0.5934
  408MOL0     C54973   8.348   1.817  10.847 -0.3924  0.2060 -1.1088
  408MOL0     C54974   8.220   1.775  10.779  1.1115  0.9463  0.0233
  408MOL0     O54975   8.227   1.708  10.661  0.3589  0.1584  0.6990
  408MOL0     C54976   8.113   1.660  10.595 -0.2198 -0.3575  0.1682
  408MOL0     C54977   8.116   1.646  10.462  0.1156 -0.9276  0.8407
  408MOL0     C54978   7.996   1.611  10.387 -0.3868  0.0400 -0.4279
  408MOL0     C54979   7.879   1.586  10.449 -0.1523  0.3723  1.5716
  408MOL0     O54980   7.759   1.581  10.378 -0.0642 -0.8410 -0.3189
  408MOL0     C54981   7.759   1.548  10.245 -0.7808 -0.6832  0.3284
  408MOL0     C54982   7.623   1.500  10.195 -0.1222  0.5854  0.5752
  408MOL0     C54983   7.523   1.615  10.216  0.3797 -0.9964 -0.0203
  408MOL0     C54984   7.388   1.582  10.140 -0.4111 -0.0728  0.3285
  408MOL0     C54985   7.311   1.468  10.205 -0.0026  0.7661 -0.1499
  408MOL0     C54986   7.186   1.442  10.120  1.1950  0.5118  0.1370
  408MOL0     C54987   7.104   1.319  10.167  0.3866  0.0006  0.3233
  408MOL0     C54988   6.992   1.273  10.068 -0.0216 -0.0087  0.4360
  408MOL0    Cl54989   7.055   1.220   9.910  0.5440  0.0541  0.0902
  408MOL0     C54990   7.884   1.569  10.590  1.0559  0.6169 -0.4994
  408MOL0     C54991   7.998   1.602  10.666 -0.7299 -1.6890  0.3805
  408MOL0     O54992   8.117   1.797  10.843  0.4816  0.2856 -0.1682
  408MOL0     C54993   8.336   1.918  10.944 -0.2830 -0.0293 -0.7123
  408MOL0     C54994   8.447   1.987  11.001  0.7720 -0.7033  0.1474
  408MOL0     N54995   9.290   1.965  10.825  0.4563  0.1538 -0.2933
  408MOL0     N54996   9.412   1.931  10.810 -0.1544  0.0828  0.3346
  408MOL0     C54997  10.416   2.373  10.548 -1.0988  0.2122 -0.7962
  408MOL0     C54998  10.545   2.431  10.558  0.5933 -0.1631 -0.0649
  408MOL0     C54999  10.971   2.569  10.533  0.6721  0.6364  0.2723
  408MOL0     C55000  11.048   2.450  10.517 -0.1792  0.1805  0.0932
  408MOL0     C55001  11.184   2.466  10.496 -0.5183  1.0139 -0.0832
  408MOL0     C55002  11.254   2.583  10.505  0.2820 -0.1372  0.5745
  408MOL0     O55003  11.396   2.595  10.497  0.1473 -0.4926 -0.0403
  408MOL0     C55004  11.460   2.469  10.466 -0.4882 -0.2841 -0.0114
  408MOL0     C55005  11.613   2.485  10.471 -0.3308  0.0100 -0.5864
  408MOL0     C55006  11.684   2.362  10.409 -0.5333 -0.0570 -0.3168
  408MOL0     C55007  11.837   2.380  10.402 -0.1682  0.5248 -0.3829
  408MOL0     C55008  11.889   2.256  10.340 -0.0027 -0.3570 -0.6641
  408MOL0     C55009  11.930   2.164  10.278 -0.4463 -0.1773 -0.1867
  408MOL0     C55010  11.178   2.697  10.528 -0.4908  0.1583  0.6188
  408MOL0     C55011  11.037   2.691  10.541 -0.1096 -0.5408 -0.6021
  408MOL0     C55012  10.970   2.814  10.591 -0.0446  0.0371 -0.5807
  408MOL0     H55013  10.734   2.184  10.451  0.5406 -0.4821  3.2564
  408MOL0     H55014  10.514   2.069  10.430  0.1798  0.3263 -0.8837
  408MOL0     H55015  10.299   1.998  10.425 -0.9243 -1.0538 -0.5242
  408MOL0     H55016  10.289   2.018  10.604  1.0874 -1.6862 -1.7688
  408MOL0     H55017  10.093   1.916  10.517  0.3118 -0.7191 -1.1083
  408MOL0     H55018  10.065   2.042  10.393  1.1238 -0.5048 -1.3425
  408MOL0     H55019  10.005   2.216  10.570  1.3403  0.5434 -1.1884
  408MOL0     H55020  10.079   2.106  10.691  1.5855 -3.0030 -0.4145
  408MOL0     H55021   9.819   2.039  10.518 -0.9143 -0.5284  1.2105
  408MOL0     H55022   9.892   1.940  10.636  2.6750  1.1795 -0.3099
  408MOL0     H55023   9.877   2.121  10.802  0.0495 -5.4405  1.5877
  408MOL0     H55024   9.765   2.200  10.676  1.8470  0.3437 -0.6108
  408MOL0     H55025   9.613   2.105  10.813  0.2957  1.3408 -0.5344
  408MOL0     H55026   9.642   1.978  10.696 -1.6081  0.5317  1.2352
  408MOL0     H55027   9.732   2.005  10.988 -1.0971  0.0819 -0.1953
  408MOL0     H55028   9.803   1.883  10.864 -1.0921  0.0944 -2.5029
  408MOL0     H55029   9.614   1.771  10.846  0.6408  0.0236 -0.7048
  408MOL0     H55030   9.611   1.787  11.014  2.4694 -0.5359 -0.1608
  408MOL0     H55031   9.395   1.917  11.135 -0.0968 -0.3254  0.8481
  408MOL0     H55032   9.142   1.964  11.136  0.8879 -1.8149  0.1392
  408MOL0     H55033   9.106   2.094  11.020  3.9963  0.5254 -1.2774
  408MOL0     H55034   9.020   1.926  10.859 -3.3484  0.7489  1.4798
  408MOL0     H55035   9.071   1.794  10.950 -1.1556 -0.0211  1.5946
  408MOL0     H55036   8.909   1.918  11.136  0.6077  0.2252 -0.2055
  408MOL0     H55037   8.839   1.812  11.005  0.8476  1.0511 -0.6574
  408MOL0     H55038   8.820   2.041  10.858 -2.5322  0.9413 -0.6718
  408MOL0     H55039   8.855   2.118  11.002  1.2483 -0.7035  2.8110
  408MOL0     H55040   8.694   1.812  10.854  0.3234 -1.9753  2.6902
  408MOL0     H55041   8.491   1.702  10.730  1.1653 -1.8948  1.1525
  408MOL0     H55042   8.199   1.687  10.405 -1.4161 -2.9698 -3.3176
  408MOL0     H55043   8.005   1.624  10.279  0.8260 -0.1834 -0.3675
  408MOL0     H55044   7.801   1.632  10.189  2.7458 -3.5829 -1.8966
  408MOL0     H55045   7.827   1.466  10.220  0.2734 -0.2917  1.8277
  408MOL0     H55046   7.632   1.474  10.089  1.9621  1.2255  0.5470
  408MOL0     H55047   7.582   1.412  10.246 -1.4873  0.7206 -0.2334
  408MOL0     H55048   7.505   1.629  10.323  0.8451  1.3625 -0.2013
  408MOL0     H55049   7.557   1.712  10.179  1.1642 -0.7452  1.3075
  408MOL0     H55050   7.418   1.558  10.037 -2.2271  2.5174 -0.9002
  408MOL0     H55051   7.322   1.669  10.140 -1.8483 -1.1219  0.8106
  408MOL0     H55052   7.291   1.506  10.305 -0.9926 -0.6678  0.2129
  408MOL0     H55053   7.374   1.380  10.221 -2.8243 -1.2940  0.2855
  408MOL0     H55054   7.120   1.525  10.145 -0.6318 -1.8282  4.0058
  408MOL0     H55055   7.201   1.435  10.012  0.4664 -3.6453  0.1565
  408MOL0     H55056   7.055   1.348  10.261 -3.0610 -0.1061 -1.3126
  408MOL0     H55057   7.173   1.234  10.181  0.6171  0.6085  3.8737
  408MOL0     H55058   6.926   1.199  10.113  0.1842 -0.7065 -0.3736
  408MOL0     H55059   6.923   1.357  10.055 -0.2604 -0.3669 -0.7838
  408MOL0     H55060   7.795   1.543  10.647  0.7567 -0.0360 -1.2523
  408MOL0     H55061   8.011   1.594  10.773  2.7416  0.7527  0.3012
  408MOL0     H55062   8.242   1.957  10.983 -0.7795 -0.8857 -1.0209
  408MOL0     H55063   8.432   2.072  11.066  0.7452 -1.9997  1.9181
  408MOL0     H55064  10.326   2.419  10.587 -1.9501 -2.2423  0.2739
  408MOL0     H55065  10.543   2.523  10.615 -1.1262 -0.7932  0.9608
  408MOL0     H55066  11.010   2.349  10.505  2.2890 -1.0403  1.7445
  408MOL0     H55067  11.223   2.367  10.474  0.4921  1.3331  0.2643
  408MOL0     H55068  11.426   2.429  10.370  1.2548 -1.7366 -0.0677
  408MOL0     H55069  11.437   2.399  10.547 -1.1539  1.0566  0.9877
  408MOL0     H55070  11.642   2.497  10.576 -1.1028  0.8984 -0.4668
  408MOL0     H55071  11.629   2.575  10.411 -4.4769  2.4134  1.4428
  408MOL0     H55072  11.641   2.353  10.309  1.7154  1.7247 -1.5363
  408MOL0     H55073  11.658   2.275  10.471 -0.2632  0.6273  0.7881
  408MOL0     H55074  11.862   2.462  10.335 -0.9854  1.2868  0.2252
  408MOL0     H55075  11.891   2.395  10.496 -0.7068 -0.0576  0.0288
  408MOL0     H55076  11.971   2.086  10.217 -0.9137 -2.5782  2.3666
  408MOL0     H55077  11.231   2.789  10.547  1.3137 -0.6914 -0.0355
  408MOL0     H55078  10.903   2.853  10.514  1.0978  3.1529 -0.1426
  408MOL0     H55079  10.921   2.790  10.686  2.5983  1.8453  1.3739
  408MOL0     H55080  11.046   2.888  10.620 -0.9318  0.5444  0.5262
  409MOL0     O55081   1.290   3.270   2.834  0.2631  0.4533 -0.7130
  409MOL0     C55082   1.229   3.255   2.944  0.0066  0.6633  0.6478
  409MOL0     O55083   1.289   3.241   3.063 -0.0267 -0.3973 -0.5936
  409MOL0     C55084   1.411   3.182   3.060  0.7850  0.5303  0.2908
  409MOL0     C55085   1.417   3.048   3.092  0.1252  0.5901 -0.1533
  409MOL0     C55086   1.540   2.980   3.105 -0.0721 -0.1075 -0.3092
  409MOL0     C55087   1.657   3.047   3.068 -0.2752 -0.4499 -0.7185
  409MOL0     O55088   1.771   2.969   3.049 -0.4484 -0.3844  0.1851
  409MOL0     C55089   1.836   2.978   2.923  0.5739 -0.5204  0.7088
  409MOL0     C55090   1.935   2.858   2.922 -0.4496 -1.8040 -0.2104
  409MOL0     C55091   2.038   2.876   2.807  0.0771  0.0604  0.2661
  409MOL0     C55092   2.154   2.783   2.820  0.0958 -0.1206 -0.0204
  409MOL0     C55093   2.285   2.823   2.748 -0.3918 -0.6569  0.0214
  409MOL0     C55094   2.254   2.803   2.599  0.2001 -0.9531  0.9637
  409MOL0     C55095   2.386   2.824   2.533 -0.6190 -0.4590 -0.0450
  409MOL0     C55096   2.413   2.970   2.496 -0.0085 -0.0006 -0.0186
  409MOL0     N55097   2.516   2.992   2.386  0.2513  0.6166 -0.6173
  409MOL0     C55098   2.554   2.915   2.278 -0.2696 -0.3304 -0.4637
  409MOL0     C55099   2.667   2.972   2.235  0.2279  0.0637  0.0268
  409MOL0     C55100   2.757   2.915   2.128  0.1468  0.6086  0.1576
  409MOL0     C55101   2.805   3.003   2.007 -0.4951  0.1105 -0.0384
  409MOL0     C55102   2.942   3.067   2.046  0.1970  0.3927 -0.4436
  409MOL0     C55103   3.007   3.144   1.933  0.7388 -0.0517 -0.2390
  409MOL0     O55104   3.085   3.055   1.855  0.4248  0.1217  0.5651
  409MOL0     C55105   3.175   3.117   1.763 -0.1375  0.5239  0.0824
  409MOL0     C55106   3.242   3.033   1.675  0.1395 -0.1397  0.5048
  409MOL0     C55107   3.339   3.081   1.580 -0.1052 -0.3705 -0.4764
  409MOL0     C55108   3.366   3.217   1.573  0.5376 -0.8127  0.6521
  409MOL0     C55109   3.450   3.268   1.464 -0.4203  0.2794  0.5318
  409MOL0     O55110   3.529   3.177   1.397 -0.7919  0.4380  0.4511
  409MOL0     C55111   3.623   3.204   1.290 -0.4727 -0.1424 -0.0987
  409MOL0     C55112   3.729   3.111   1.273 -0.4504 -0.3896 -0.5288
  409MOL0     C55113   3.829   3.130   1.177 -0.2786  0.5655  0.2740
  409MOL0     C55114   3.817   3.245   1.088 -0.3249  0.2508 -0.3516
  409MOL0     O55115   3.905   3.276   0.983 -0.0499 -0.0045  0.5630
  409MOL0     C55116   3.994   3.179   0.934 -0.1871 -0.2594 -0.4704
  409MOL0     C55117   4.106   3.243   0.841 -0.0279 -0.8015 -0.2043
  409MOL0     C55118   4.166   3.143   0.749 -0.0668  0.1327  0.0080
  409MOL0     C55119   4.257   3.209   0.638 -0.1068 -0.3554 -0.2669
  409MOL0     C55120   4.323   3.104   0.539  0.0490  1.0527  0.5427
  409MOL0     C55121   4.395   3.164   0.423 -0.3559 -0.3553  0.7562
  409MOL0     C55122   4.475   3.050   0.361 -0.6793  0.3184 -0.2555
  409MOL0     C55123   4.558   3.086   0.239 -0.1240 -0.4251  0.3591
  409MOL0    Cl55124   4.470   3.168   0.105  0.1571 -0.1247 -0.0625
  409MOL0     C55125   3.720   3.344   1.111 -0.0262  0.2604 -0.6952
  409MOL0     C55126   3.627   3.324   1.207 -0.7702  0.3441 -0.1389
  409MOL0     O55127   3.449   3.386   1.441 -0.1591  0.2167 -0.4062
  409MOL0     C55128   3.305   3.303   1.665  0.3624  0.2413 -0.8392
  409MOL0     C55129   3.222   3.250   1.763  0.2599 -0.3231  0.2226
  409MOL0     N55130   2.697   3.075   2.316  0.4133 -0.0564  0.2302
  409MOL0     N55131   2.611   3.083   2.406  0.3416 -0.6297 -0.3424
  409MOL0     C55132   1.646   3.184   3.036  0.2715 -0.2966 -0.5933
  409MOL0     C55133   1.528   3.252   3.027  0.3425  0.0508 -0.1708
  409MOL0     C55134   1.076   3.251   2.942  0.5757 -0.3180  0.1527
  409MOL0     C55135   1.013   3.198   3.059  0.6782  0.3891 -0.2035
  409MOL0     C55136   0.873   3.181   3.064 -0.0243  0.6514  0.7499
  409MOL0     C55137   0.794   3.224   2.955  0.0599  0.3433 -0.2403
  409MOL0     O55138   0.658   3.227   2.960 -0.5838  0.0312  0.2317
  409MOL0     C55139   0.589   3.111   2.929 -0.1209  0.8578 -0.2157
  409MOL0     C55140   0.573   3.091   2.773 -0.3302  0.4715 -0.6184
  409MOL0     C55141   0.478   3.203   2.716 -0.1394  0.2136 -0.1709
  409MOL0     C55142   0.495   3.217   2.567 -0.1571  0.0621  0.2517
  409MOL0     C55143   0.630   3.272   2.534 -0.3005 -0.0074  0.7143
  409MOL0     C55144   0.732   3.326   2.493 -0.8728 -0.1789  0.6752
  409MOL0     C55145   0.852   3.280   2.839 -0.9184 -0.4689 -0.2547
  409MOL0     C55146   0.996   3.290   2.827  0.0168  0.1580 -0.2936
  409MOL0     C55147   1.053   3.340   2.701  0.2876 -0.5206 -0.1645
  409MOL0     H55148   1.325   2.995   3.115 -0.9285  1.1711 -2.6416
  409MOL0     H55149   1.543   2.873   3.126  0.8549 -0.1076 -0.3835
  409MOL0     H55150   1.764   2.972   2.841 -1.3465  0.1406  2.2620
  409MOL0     H55151   1.891   3.072   2.912  0.6828 -0.5432  1.0450
  409MOL0     H55152   1.891   2.758   2.927 -1.3629 -1.3671  0.7394
  409MOL0     H55153   1.996   2.882   3.010 -3.5826 -0.2730  1.7133
  409MOL0     H55154   2.070   2.980   2.817  2.3258 -0.5966  0.5808
  409MOL0     H55155   1.984   2.863   2.713  2.2103  0.4519 -1.0752
  409MOL0     H55156   2.180   2.764   2.925  0.8592 -0.2558 -0.2285
  409MOL0     H55157   2.123   2.686   2.781 -2.6745 -0.7004  3.1146
  409MOL0     H55158   2.311   2.927   2.768 -2.8850  0.3182 -1.2840
  409MOL0     H55159   2.367   2.758   2.780 -0.9628 -1.6264 -0.4315
  409MOL0     H55160   2.227   2.698   2.586  2.6502 -1.3496 -2.0859
  409MOL0     H55161   2.175   2.869   2.563  0.3010 -0.9672  0.7132
  409MOL0     H55162   2.380   2.754   2.449 -2.0927 -0.4099  0.0079
  409MOL0     H55163   2.475   2.791   2.587 -0.0253 -1.2685 -1.4376
  409MOL0     H55164   2.318   3.021   2.478  0.5445  1.6836  1.5592
  409MOL0     H55165   2.447   3.031   2.580 -0.3980  0.6342 -0.3076
  409MOL0     H55166   2.511   2.825   2.236  0.8054  0.0538 -2.5427
  409MOL0     H55167   2.840   2.856   2.170  0.2085 -1.3147 -2.4004
  409MOL0     H55168   2.704   2.839   2.070  1.6691 -0.6141  0.2893
  409MOL0     H55169   2.835   2.937   1.925 -0.8414  1.4399 -1.2651
  409MOL0     H55170   2.725   3.070   1.977 -1.2859 -0.2010  1.2842
  409MOL0     H55171   3.013   2.990   2.075  0.9236  1.1600 -0.1198
  409MOL0     H55172   2.923   3.142   2.124 -2.4450  2.2431 -2.6646
  409MOL0     H55173   3.074   3.214   1.983  0.1991  1.5153 -1.5909
  409MOL0     H55174   2.928   3.197   1.878 -1.2226 -0.7567  1.7391
  409MOL0     H55175   3.211   2.930   1.664  0.3297 -0.1782  0.3060
  409MOL0     H55176   3.381   3.007   1.513 -1.8055 -0.2995 -1.6922
  409MOL0     H55177   3.730   3.032   1.347 -1.2102 -2.0259 -2.1787
  409MOL0     H55178   3.918   3.068   1.179 -0.1115  0.6616 -1.6209
  409MOL0     H55179   4.044   3.131   1.019  3.5787  2.1571 -1.0717
  409MOL0     H55180   3.955   3.095   0.876  2.1965 -0.5869 -1.7262
  409MOL0     H55181   4.060   3.320   0.778  0.0378  0.3586  1.1193
  409MOL0     H55182   4.177   3.296   0.905 -0.5512 -0.1092 -0.1840
  409MOL0     H55183   4.222   3.066   0.802 -0.8115  0.2690  1.0250
  409MOL0     H55184   4.087   3.086   0.698 -1.3368  0.8375  1.1226
  409MOL0     H55185   4.338   3.262   0.688  0.8611 -0.9790 -1.1363
  409MOL0     H55186   4.198   3.280   0.580  0.7425  2.3974  2.0445
  409MOL0     H55187   4.237   3.053   0.496 -0.4187  0.4881  2.0702
  409MOL0     H55188   4.387   3.030   0.587 -1.4440 -0.4758  0.2602
  409MOL0     H55189   4.327   3.213   0.353  2.1863  2.8790  0.2805
  409MOL0     H55190   4.462   3.246   0.454  1.4516 -2.1395  1.8440
  409MOL0     H55191   4.397   2.982   0.326 -0.3772 -1.5197  2.4192
  409MOL0     H55192   4.540   2.998   0.431  0.6253  2.0756 -0.0862
  409MOL0     H55193   4.640   3.152   0.270 -1.2634  1.7529 -1.0238
  409MOL0     H55194   4.609   2.997   0.202  1.0883  0.7224 -0.8520
  409MOL0     H55195   3.709   3.427   1.041  0.0644 -0.3969 -1.5064
  409MOL0     H55196   3.560   3.407   1.230 -1.7122 -0.2777 -0.5984
  409MOL0     H55197   3.325   3.410   1.666 -1.1776  0.5727  1.6671
  409MOL0     H55198   3.183   3.312   1.844 -1.0642 -0.1762 -0.4989
  409MOL0     H55199   1.741   3.232   3.013  0.7755 -1.0080 -0.0127
  409MOL0     H55200   1.530   3.357   3.002  0.2837  0.1426  0.2022
  409MOL0     H55201   1.068   3.171   3.148 -0.8024 -1.1436  0.3029
  409MOL0     H55202   0.820   3.149   3.153 -0.0365 -0.5670  0.3220
  409MOL0     H55203   0.489   3.110   2.973 -0.6077 -0.8212 -1.2299
  409MOL0     H55204   0.640   3.024   2.971 -1.7228 -1.9625 -3.5704
  409MOL0     H55205   0.531   2.992   2.752 -0.5731  0.8211 -1.8405
  409MOL0     H55206   0.669   3.100   2.722  1.2108 -2.0667  1.5295
  409MOL0     H55207   0.508   3.297   2.763  2.3162  0.2091 -1.5722
  409MOL0     H55208   0.373   3.185   2.743  0.4909 -0.6542  1.8918
  409MOL0     H55209   0.492   3.123   2.509 -2.1276 -1.3269  2.4445
  409MOL0     H55210   0.425   3.294   2.534 -0.5545 -1.1183 -1.9339
  409MOL0     H55211   0.818   3.377   2.454 -0.8201 -0.6728  0.1309
  409MOL0     H55212   0.775   3.319   2.773 -1.8274  0.3616  1.2348
  409MOL0     H55213   1.128   3.417   2.721  0.7053 -0.0955 -2.9421
  409MOL0     H55214   1.105   3.267   2.638 -1.6950 -1.4613 -0.7781
  409MOL0     H55215   0.988   3.397   2.633  1.3647  1.8407  0.6609
  410MOL0     O55216   9.436   6.473   3.615  0.3947 -0.4350 -0.1727
  410MOL0     C55217   9.354   6.445   3.706 -0.0911  0.4334  0.4404
  410MOL0     O55218   9.370   6.349   3.799 -0.4451  0.5489  0.1857
  410MOL0     C55219   9.500   6.324   3.842  1.1600 -0.8492  0.2688
  410MOL0     C55220   9.554   6.212   3.787  0.5592  0.5420 -0.4944
  410MOL0     C55221   9.671   6.161   3.847 -0.9577 -0.3469  0.1220
  410MOL0     C55222   9.739   6.218   3.958  0.3983 -0.4327 -0.3857
  410MOL0     O55223   9.858   6.175   4.008 -0.6823 -0.2695 -0.0063
  410MOL0     C55224   9.892   6.038   4.010 -0.2178 -0.7802  0.0672
  410MOL0     C55225  10.038   6.024   4.025  0.1257  0.1942 -0.1802
  410MOL0     C55226  10.089   6.116   4.142 -0.6578  0.2215 -0.0561
  410MOL0     C55227  10.230   6.073   4.190 -0.3678  0.3197 -0.2937
  410MOL0     C55228  10.260   6.178   4.302 -0.2358  0.6650 -0.6478
  410MOL0     C55229  10.236   6.125   4.450 -0.0379 -0.6712 -0.6908
  410MOL0     C55230  10.238   6.235   4.551  1.2040 -1.2874  0.6470
  410MOL0     C55231  10.182   6.188   4.689 -0.5463  0.0933 -0.3953
  410MOL0     N55232  10.261   6.091   4.759 -0.6323  0.2185  0.7751
  410MOL0     C55233  10.360   6.128   4.845 -0.5516  0.4899  0.9303
  410MOL0     C55234  10.421   6.015   4.880  1.1480  0.6165 -1.1361
  410MOL0     C55235  10.536   6.028   4.981  0.1225  0.7281  0.0087
  410MOL0     C55236  10.654   5.939   4.951 -0.9922  0.2459  0.2296
  410MOL0     C55237  10.725   5.979   4.816 -1.0059  0.8582 -0.7250
  410MOL0     C55238  10.805   6.109   4.830  0.0408 -0.1033 -0.1436
  410MOL0     O55239  10.881   6.146   4.713 -0.3030 -0.2916 -0.2951
  410MOL0     C55240  10.984   6.065   4.663 -1.0853  0.2772 -0.5661
  410MOL0     C55241  10.998   6.054   4.526 -0.0187 -0.1218 -0.5503
  410MOL0     C55242  11.105   5.982   4.465  0.5560 -0.3139 -0.1024
  410MOL0     C55243  11.184   5.899   4.539  0.1811 -0.0678 -0.2369
  410MOL0     C55244  11.285   5.810   4.471  0.2611  0.1094 -0.1396
  410MOL0     O55245  11.341   5.718   4.554  0.0808 -0.2739 -0.0996
  410MOL0     C55246  11.446   5.640   4.513  0.7320 -0.6356 -0.1988
  410MOL0     C55247  11.554   5.677   4.430  0.2258 -0.7043 -0.3659
  410MOL0     C55248  11.647   5.586   4.396 -0.6076 -0.2104 -0.6995
  410MOL0     C55249  11.636   5.453   4.442 -0.5526 -0.3914 -0.3010
  410MOL0     O55250  11.728   5.376   4.393  0.6939 -0.5309  0.6907
  410MOL0     C55251  11.755   5.258   4.468 -0.6245 -0.1483  0.6811
  410MOL0     C55252  11.887   5.180   4.446 -0.7876 -0.0692 -0.0649
  410MOL0     C55253  11.907   5.081   4.563 -0.5277  0.0304  0.6686
  410MOL0     C55254  12.053   5.044   4.567 -0.6259  0.5619 -0.0459
  410MOL0     C55255  12.082   4.940   4.687 -1.0219 -0.2105 -0.2805
  410MOL0     C55256  12.235   4.923   4.708 -0.3332 -0.8795  0.1727
  410MOL0     C55257  12.274   4.852   4.841 -0.2564 -0.6062 -0.4609
  410MOL0     C55258  12.241   4.703   4.841  0.3797  0.1532  0.3510
  410MOL0    Cl55259  12.350   4.613   4.709 -0.2354  0.4425 -0.0443
  410MOL0     C55260  11.532   5.416   4.528 -0.1150 -0.0995 -0.6768
  410MOL0     C55261  11.438   5.510   4.568  0.6341  0.6010 -0.1590
  410MOL0     O55262  11.310   5.823   4.351 -0.1296  1.0621 -0.1927
  410MOL0     C55263  11.173   5.914   4.685  0.1188  0.2351 -0.2137
  410MOL0     C55264  11.072   5.986   4.740 -0.9519  0.2571 -0.6259
  410MOL0     N55265  10.358   5.906   4.815 -0.0878  0.0109  0.5837
  410MOL0     N55266  10.268   5.955   4.741  0.3096  0.2839  0.2347
  410MOL0     C55267   9.687   6.340   4.001  0.0910 -0.3711  0.4212
  410MOL0     C55268   9.562   6.389   3.944 -0.2940 -0.9565  0.8167
  410MOL0     C55269   9.212   6.502   3.703  0.7824 -0.2072  0.1121
  410MOL0     C55270   9.114   6.425   3.756  0.2113 -0.1555  0.0020
  410MOL0     C55271   8.989   6.463   3.749  0.2524  0.7447 -0.0487
  410MOL0     C55272   8.950   6.586   3.687 -0.6299 -0.1192  0.2889
  410MOL0     O55273   8.815   6.611   3.675  0.9893  0.8295 -0.6980
  410MOL0     C55274   8.769   6.750   3.652  0.2833  0.1528  0.0019
  410MOL0     C55275   8.622   6.755   3.681  0.8032  0.1853  0.2145
  410MOL0     C55276   8.589   6.719   3.828 -0.3180 -0.3547  0.1995
  410MOL0     C55277   8.454   6.788   3.872 -1.2425  0.1168  0.2052
  410MOL0     C55278   8.407   6.751   4.004 -0.1662 -0.5825 -0.0063
  410MOL0     C55279   8.391   6.722   4.117  0.1568  0.1334  0.0163
  410MOL0     C55280   9.052   6.678   3.647 -0.1765 -0.7231  0.0424
  410MOL0     C55281   9.191   6.635   3.662  0.2328 -0.0126 -0.3820
  410MOL0     C55282   9.299   6.740   3.640 -0.1068  0.0363 -0.0651
  410MOL0     H55283   9.514   6.169   3.696  0.5701  1.4880 -0.9567
  410MOL0     H55284   9.711   6.070   3.804 -1.6253 -0.1616 -0.9188
  410MOL0     H55285   9.831   6.001   4.093 -0.2460 -1.0067 -0.0541
  410MOL0     H55286   9.863   5.975   3.925  2.1813 -0.2127 -1.2670
  410MOL0     H55287  10.086   6.052   3.931 -3.0917 -0.5123 -2.1940
  410MOL0     H55288  10.043   5.915   4.029 -1.1461  0.0412 -1.6550
  410MOL0     H55289  10.021   6.103   4.226 -0.8190 -0.2268 -0.2532
  410MOL0     H55290  10.092   6.216   4.097  1.4164 -0.0510 -0.6511
  410MOL0     H55291  10.238   5.970   4.227 -0.5982  1.0551  1.9507
  410MOL0     H55292  10.303   6.082   4.110  0.6818 -0.7288  0.5110
  410MOL0     H55293  10.365   6.207   4.298  0.2068 -1.0097 -1.9459
  410MOL0     H55294  10.204   6.269   4.281 -0.4106  0.4177 -1.2778
  410MOL0     H55295  10.139   6.076   4.463 -1.3376  2.1696  1.2501
  410MOL0     H55296  10.313   6.057   4.486 -0.0238 -1.6775 -2.4972
  410MOL0     H55297  10.162   6.308   4.523  2.0212  0.0284  1.6867
  410MOL0     H55298  10.334   6.288   4.560  0.1399  0.4328  3.2042
  410MOL0     H55299  10.179   6.280   4.748 -0.3028  1.0839 -1.8749
  410MOL0     H55300  10.078   6.154   4.685 -0.0869 -1.2987 -1.2699
  410MOL0     H55301  10.391   6.227   4.876 -0.5465  1.1602 -1.0607
  410MOL0     H55302  10.561   6.135   4.979 -1.0053  1.0472  1.4364
  410MOL0     H55303  10.506   6.000   5.083  1.6869 -2.0532 -0.1873
  410MOL0     H55304  10.723   5.939   5.036  0.8813  0.7333 -1.2414
  410MOL0     H55305  10.615   5.837   4.947 -0.7169  0.0836  1.3540
  410MOL0     H55306  10.665   5.975   4.724  2.0504 -2.5009 -2.8373
  410MOL0     H55307  10.799   5.901   4.794 -1.4987  0.3437 -0.5887
  410MOL0     H55308  10.873   6.112   4.916  0.3789  2.6201 -0.4317
  410MOL0     H55309  10.728   6.186   4.843 -0.0862  0.3685 -3.0778
  410MOL0     H55310  10.932   6.116   4.466 -0.5369  0.1282  0.2668
  410MOL0     H55311  11.124   5.985   4.358 -2.0154 -1.2562 -0.6618
  410MOL0     H55312  11.564   5.777   4.391 -3.2970  0.2095  0.7805
  410MOL0     H55313  11.733   5.614   4.336  1.2939  0.1947  1.9896
  410MOL0     H55314  11.763   5.280   4.575  3.3487 -3.2971  1.2748
  410MOL0     H55315  11.679   5.181   4.453  0.1203 -0.7111 -0.3053
  410MOL0     H55316  11.882   5.128   4.350 -0.6597 -1.2883  0.5685
  410MOL0     H55317  11.966   5.255   4.435 -1.1184  0.2716 -0.1545
  410MOL0     H55318  11.888   5.130   4.659  1.8600  0.5944  0.9138
  410MOL0     H55319  11.841   4.995   4.545  2.3717 -1.8806 -1.8821
  410MOL0     H55320  12.113   5.132   4.591  1.1424 -0.8780  1.0675
  410MOL0     H55321  12.080   4.992   4.474 -0.6288  0.3649  0.0631
  410MOL0     H55322  12.045   4.844   4.651  1.7663 -0.6789 -2.2665
  410MOL0     H55323  12.027   4.972   4.775  0.0287  3.4268 -0.7713
  410MOL0     H55324  12.284   4.871   4.625  0.2507 -0.6347  0.3571
  410MOL0     H55325  12.269   5.026   4.721 -0.4824 -1.0590  2.3568
  410MOL0     H55326  12.221   4.895   4.927  0.3495 -0.5882 -0.0914
  410MOL0     H55327  12.381   4.860   4.860 -0.1686 -2.0383 -0.2422
  410MOL0     H55328  12.263   4.652   4.935  0.1579  1.0356  0.8974
  410MOL0     H55329  12.137   4.681   4.815 -0.4787 -0.5815  3.9152
  410MOL0     H55330  11.521   5.316   4.569  2.4297 -1.0926 -2.1742
  410MOL0     H55331  11.357   5.479   4.633  1.8873  0.0132  1.1686
  410MOL0     H55332  11.241   5.859   4.749 -0.1299 -0.1008 -0.2361
  410MOL0     H55333  11.050   5.992   4.846 -1.1682  1.4846 -0.7254
  410MOL0     H55334   9.731   6.385   4.089 -0.9820  1.2865  0.1541
  410MOL0     H55335   9.525   6.472   4.004 -1.0702 -0.3997 -0.4107
  410MOL0     H55336   9.130   6.338   3.819 -3.7594 -0.9666  0.1460
  410MOL0     H55337   8.909   6.406   3.795 -3.2082  4.0115 -1.3990
  410MOL0     H55338   8.789   6.781   3.550  2.5366  0.5750  0.5159
  410MOL0     H55339   8.829   6.825   3.705 -1.7638  1.9252 -0.0668
  410MOL0     H55340   8.564   6.691   3.613  3.7185 -0.3346 -1.9460
  410MOL0     H55341   8.583   6.853   3.654 -0.5632  0.4586  2.8161
  410MOL0     H55342   8.668   6.758   3.894 -1.4146 -2.4575  2.9702
  410MOL0     H55343   8.585   6.611   3.842 -0.6480 -1.1682 -4.5492
  410MOL0     H55344   8.459   6.897   3.882 -0.9296  0.0698  0.5936
  410MOL0     H55345   8.383   6.769   3.791  0.9542  1.0022 -2.0426
  410MOL0     H55346   8.354   6.688   4.211 -2.4540 -1.2812 -1.3944
  410MOL0     H55347   9.019   6.769   3.600  0.0927  0.0181  1.2465
  410MOL0     H55348   9.349   6.722   3.544  0.0229 -3.1274  0.4960
  410MOL0     H55349   9.263   6.843   3.634 -1.2651 -0.3373  0.1857
  410MOL0     H55350   9.375   6.720   3.716  0.0683 -1.5247 -0.6160
  411MOL0     O55351   4.189   3.295   4.727 -0.6515 -0.1727  0.2576
  411MOL0     C55352   4.128   3.341   4.822  0.4981 -0.1780  0.8194
  411MOL0     O55353   4.173   3.415   4.925 -0.2594  0.8598 -0.0895
  411MOL0     C55354   4.289   3.483   4.921  0.1900  0.6137  0.0195
  411MOL0     C55355   4.382   3.484   4.821  0.3145 -0.3685  0.2464
  411MOL0     C55356   4.499   3.569   4.821  0.4588  0.8098 -0.2814
  411MOL0     C55357   4.521   3.640   4.943  0.7209  0.1402  0.0472
  411MOL0     O55358   4.646   3.707   4.951  0.5356  0.3768 -0.2793
  411MOL0     C55359   4.653   3.832   5.016 -0.3506 -0.6325 -0.1125
  411MOL0     C55360   4.787   3.904   4.993  0.1530  1.4033 -0.0233
  411MOL0     C55361   4.848   3.970   5.112  0.3433 -0.4827  0.3512
  411MOL0     C55362   4.900   3.886   5.226 -0.1722 -0.0346  0.3651
  411MOL0     C55363   4.970   3.965   5.335 -0.1697 -0.2401 -0.5310
  411MOL0     C55364   4.889   4.048   5.431  0.2471 -0.3874  0.0440
  411MOL0     C55365   4.796   3.957   5.514  0.0098  0.5957 -0.2611
  411MOL0     C55366   4.673   4.032   5.556  0.5277 -0.2198  1.0934
  411MOL0     N55367   4.567   4.029   5.452  0.5816 -0.6917  0.4064
  411MOL0     C55368   4.425   4.006   5.477 -0.7837  0.2095  0.2495
  411MOL0     C55369   4.357   4.055   5.369  0.1093  0.0180  0.1594
  411MOL0     C55370   4.215   4.080   5.361  0.3956 -0.2940 -0.1635
  411MOL0     C55371   4.130   3.961   5.304 -0.1727  0.7203 -0.5688
  411MOL0     C55372   4.138   3.830   5.379  0.1760 -0.4966 -0.1727
  411MOL0     C55373   4.033   3.728   5.328  0.5635  0.1320 -0.7190
  411MOL0     O55374   4.015   3.633   5.437  0.6329 -0.2325 -0.9589
  411MOL0     C55375   3.910   3.546   5.422  0.3701 -0.1916  0.8910
  411MOL0     C55376   3.911   3.434   5.498  0.8897 -0.3704 -0.5334
  411MOL0     C55377   3.807   3.338   5.488 -0.0752  0.3080 -0.4740
  411MOL0     C55378   3.710   3.344   5.383  0.3309 -0.2049 -0.6356
  411MOL0     C55379   3.592   3.254   5.367  0.1099 -0.0142 -0.1906
  411MOL0     O55380   3.615   3.134   5.429 -0.5133  0.1804 -0.3769
  411MOL0     C55381   3.503   3.047   5.436  0.2603  0.2479 -1.1012
  411MOL0     C55382   3.466   2.978   5.324 -0.9693  0.0392 -0.1059
  411MOL0     C55383   3.369   2.876   5.333  0.1890 -0.5169  0.4918
  411MOL0     C55384   3.287   2.866   5.446 -0.5813 -0.1607 -0.3246
  411MOL0     O55385   3.184   2.777   5.479  0.5430 -0.0332  0.3511
  411MOL0     C55386   3.135   2.704   5.366  0.4046 -1.0406 -0.3698
  411MOL0     C55387   3.037   2.597   5.430 -0.1564 -0.6313 -0.3379
  411MOL0     C55388   3.116   2.473   5.488 -0.0759 -0.4782  1.1049
  411MOL0     C55389   3.031   2.393   5.574  1.0618 -0.1793 -0.0682
  411MOL0     C55390   2.971   2.275   5.503 -1.1289 -0.2730 -0.5946
  411MOL0     C55391   2.881   2.193   5.593  0.2957  0.9186 -0.4934
  411MOL0     C55392   2.819   2.070   5.515 -0.4681  0.5825  0.0738
  411MOL0     C55393   2.688   2.034   5.583 -0.5259 -0.0935  1.4879
  411MOL0    Cl55394   2.625   1.901   5.484  0.3033 -0.0457 -0.0222
  411MOL0     C55395   3.310   2.963   5.544  0.1846  0.2307 -0.2838
  411MOL0     C55396   3.422   3.049   5.548  0.2358  0.5228  0.4785
  411MOL0     O55397   3.491   3.284   5.308  0.3786  0.0047 -0.1746
  411MOL0     C55398   3.715   3.463   5.303 -0.2925 -0.1306  0.3946
  411MOL0     C55399   3.809   3.562   5.326  0.1753 -0.2591  0.8683
  411MOL0     N55400   4.451   4.084   5.269 -0.4138 -0.7211  0.7442
  411MOL0     N55401   4.574   4.069   5.316  0.3931 -0.4233  0.0650
  411MOL0     C55402   4.423   3.633   5.045 -0.3696 -0.2381 -0.1604
  411MOL0     C55403   4.305   3.563   5.036 -0.1716  0.3037 -0.1711
  411MOL0     C55404   3.988   3.295   4.835  0.4323  0.0233  0.0240
  411MOL0     C55405   3.919   3.256   4.712 -0.1462 -0.6138  0.6782
  411MOL0     C55406   3.794   3.205   4.721  0.3580 -0.0524 -0.1924
  411MOL0     C55407   3.728   3.201   4.845 -0.7381  0.4790 -0.4085
  411MOL0     O55408   3.599   3.149   4.854  0.0865 -0.0019  0.6083
  411MOL0     C55409   3.535   3.087   4.739  0.7404  0.2364 -0.7626
  411MOL0     C55410   3.393   3.039   4.786 -0.7682  0.2039  0.0141
  411MOL0     C55411   3.378   2.965   4.923 -0.5487 -0.3803  0.2365
  411MOL0     C55412   3.235   2.916   4.946  0.2125 -0.3631 -0.6552
  411MOL0     C55413   3.140   3.020   4.978  0.1984 -0.1706  0.5175
  411MOL0     C55414   3.054   3.107   4.983  0.2281  0.1318 -0.3796
  411MOL0     C55415   3.794   3.235   4.963  0.2263  0.3211  0.2177
  411MOL0     C55416   3.922   3.283   4.956  0.8922 -0.1634  0.7809
  411MOL0     C55417   3.981   3.307   5.094 -0.3899 -0.8875  0.2148
  411MOL0     H55418   4.378   3.409   4.743  0.9512  0.4560 -0.5979
  411MOL0     H55419   4.571   3.577   4.741  0.5121 -3.7723 -0.9778
  411MOL0     H55420   4.568   3.893   4.982  0.2548  1.1042  1.3308
  411MOL0     H55421   4.642   3.820   5.124  1.8033  4.0616  0.8629
  411MOL0     H55422   4.785   3.968   4.904 -0.4311 -0.2131 -1.2229
  411MOL0     H55423   4.857   3.827   4.957  0.0517  2.2437 -2.1745
  411MOL0     H55424   4.772   4.040   5.147 -0.9728 -1.5768 -0.2283
  411MOL0     H55425   4.933   4.023   5.069 -0.9207 -0.1939 -1.9705
  411MOL0     H55426   4.822   3.816   5.259 -1.2277  0.2144 -1.4661
  411MOL0     H55427   4.986   3.834   5.184  2.1582  2.4444  1.7741
  411MOL0     H55428   5.020   3.892   5.399  1.1744  1.9010  1.0123
  411MOL0     H55429   5.039   4.038   5.292  0.2628  0.3767  1.1116
  411MOL0     H55430   4.957   4.101   5.498 -3.0748  1.2500  2.4597
  411MOL0     H55431   4.832   4.120   5.371 -0.8107 -1.5077 -0.3424
  411MOL0     H55432   4.841   3.922   5.607 -0.0054 -0.3491 -0.6036
  411MOL0     H55433   4.756   3.873   5.457  1.2142 -0.4239  0.3712
  411MOL0     H55434   4.635   3.991   5.649 -1.6380  2.6385  1.6282
  411MOL0     H55435   4.701   4.137   5.566  0.9624 -0.0729 -1.0131
  411MOL0     H55436   4.396   3.968   5.574 -1.2493  0.1368  0.0825
  411MOL0     H55437   4.178   4.105   5.462  2.3608  0.4178  0.4210
  411MOL0     H55438   4.192   4.166   5.297  2.4720  0.1544 -0.3520
  411MOL0     H55439   4.025   3.989   5.311 -0.6581 -0.8567 -1.3065
  411MOL0     H55440   4.157   3.945   5.199 -1.3181  1.6602 -1.0359
  411MOL0     H55441   4.123   3.854   5.485 -0.4939 -1.4656 -0.0316
  411MOL0     H55442   4.235   3.779   5.371  0.3886 -0.3253  1.1246
  411MOL0     H55443   4.074   3.699   5.231  0.4217 -0.3668 -0.6315
  411MOL0     H55444   3.943   3.788   5.311 -0.2002 -0.8185 -0.1670
  411MOL0     H55445   3.980   3.427   5.581 -1.3482  3.7079  1.9726
  411MOL0     H55446   3.801   3.252   5.553 -1.9187  0.2949 -0.6139
  411MOL0     H55447   3.522   2.985   5.231  0.8666  1.4735  1.0233
  411MOL0     H55448   3.360   2.802   5.255 -2.6566  1.2774 -1.0841
  411MOL0     H55449   3.080   2.770   5.298  1.4172 -1.4720 -1.6616
  411MOL0     H55450   3.217   2.657   5.311 -0.9459 -2.7244 -1.0537
  411MOL0     H55451   2.975   2.647   5.505  1.0002  3.2710 -1.7285
  411MOL0     H55452   2.968   2.552   5.358 -2.1904  1.0329  0.4691
  411MOL0     H55453   3.154   2.416   5.402  1.8694 -0.4402  1.8841
  411MOL0     H55454   3.197   2.503   5.556  0.4132  0.8128 -0.0022
  411MOL0     H55455   2.950   2.456   5.611  1.4417  0.1288  0.2538
  411MOL0     H55456   3.090   2.358   5.660 -1.2065  0.9142  2.0713
  411MOL0     H55457   3.051   2.205   5.476 -1.4470 -2.4283  3.3389
  411MOL0     H55458   2.919   2.298   5.410  0.6032  1.2812 -1.2453
  411MOL0     H55459   2.943   2.169   5.680  1.0818  1.9346 -0.7542
  411MOL0     H55460   2.794   2.252   5.624 -0.8312  0.0838 -1.9688
  411MOL0     H55461   2.894   1.992   5.503  0.8594  1.7205  0.7014
  411MOL0     H55462   2.801   2.089   5.409  2.1601 -1.1704 -0.7733
  411MOL0     H55463   2.693   2.010   5.689  0.1093  0.0907  1.5051
  411MOL0     H55464   2.622   2.120   5.568 -0.7045 -0.4569 -0.0874
  411MOL0     H55465   3.240   2.962   5.627  1.9098  0.1492  1.2419
  411MOL0     H55466   3.440   3.104   5.640 -3.6412  2.4945  0.2634
  411MOL0     H55467   3.648   3.485   5.220  1.6611  3.2051 -0.4631
  411MOL0     H55468   3.813   3.661   5.281  1.2104 -0.7163 -0.0823
  411MOL0     H55469   4.434   3.699   5.130 -0.0580  0.3855 -0.6798
  411MOL0     H55470   4.227   3.558   5.111 -0.4437  1.6987 -0.3312
  411MOL0     H55471   3.966   3.281   4.618  1.0533 -0.1710  1.3675
  411MOL0     H55472   3.739   3.187   4.630  1.7919 -0.3767 -1.0323
  411MOL0     H55473   3.598   3.006   4.701  2.2029  1.5183 -1.1989
  411MOL0     H55474   3.512   3.162   4.662  0.9494  0.1238 -0.9350
  411MOL0     H55475   3.340   2.974   4.716 -0.1819  1.1073 -1.3084
  411MOL0     H55476   3.328   3.127   4.788  1.7109  2.1295  0.7180
  411MOL0     H55477   3.414   3.025   5.007 -1.4873 -1.4658  1.4534
  411MOL0     H55478   3.439   2.875   4.918 -1.1826 -0.8350  0.5723
  411MOL0     H55479   3.195   2.880   4.851 -3.4838  0.4274  0.4517
  411MOL0     H55480   3.219   2.834   5.017 -2.6659  0.3226 -0.3944
  411MOL0     H55481   2.978   3.181   4.997  0.6588  0.6462 -0.7094
  411MOL0     H55482   3.738   3.223   5.055 -0.8125  1.3539 -0.2620
  411MOL0     H55483   4.084   3.273   5.105 -0.1801 -1.1074 -2.0235
  411MOL0     H55484   3.982   3.413   5.120 -0.3703 -0.6759 -0.6292
  411MOL0     H55485   3.915   3.265   5.171 -2.0391  2.6776  0.9386
  412MOL0     O55486   5.065   7.666   3.169  0.2911  0.8850  0.8093
  412MOL0     C55487   5.123   7.577   3.224 -0.6866 -0.5060  0.4613
  412MOL0     O55488   5.252   7.541   3.199  0.0031  0.7846  0.3011
  412MOL0     C55489   5.315   7.581   3.084 -0.0656 -0.2154  0.1303
  412MOL0     C55490   5.249   7.591   2.968  0.2735 -0.2010  0.5371
  412MOL0     C55491   5.318   7.622   2.846  0.1489  0.0759  0.5524
  412MOL0     C55492   5.453   7.672   2.856  0.7023  0.0755 -0.7139
  412MOL0     O55493   5.530   7.706   2.749 -0.4528  0.5932 -1.0463
  412MOL0     C55494   5.475   7.698   2.616 -0.4784 -0.0651 -0.6904
  412MOL0     C55495   5.563   7.788   2.521 -0.1720 -0.3662 -0.3897
  412MOL0     C55496   5.714   7.747   2.520 -0.0149  0.3795  0.9717
  412MOL0     C55497   5.799   7.854   2.446  0.3482  0.3547 -0.2574
  412MOL0     C55498   5.949   7.812   2.428 -0.2047 -0.1873 -0.5790
  412MOL0     C55499   6.025   7.937   2.372  0.1881 -0.3896 -0.5195
  412MOL0     C55500   6.158   7.904   2.308  0.2348 -0.0511 -0.0312
  412MOL0     C55501   6.238   8.033   2.283 -0.5346 -1.8945  0.0517
  412MOL0     N55502   6.268   8.102   2.407 -0.4686  0.6204 -0.5670
  412MOL0     C55503   6.362   8.059   2.496  0.5951 -0.6768 -0.3644
  412MOL0     C55504   6.374   8.153   2.588 -0.3309 -0.1001 -0.0017
  412MOL0     C55505   6.461   8.134   2.701 -0.5315  0.1357 -0.8418
  412MOL0     C55506   6.608   8.170   2.678  0.6028  0.2897 -0.9640
  412MOL0     C55507   6.680   8.152   2.806 -0.5342 -0.1642 -0.2088
  412MOL0     C55508   6.829   8.108   2.799  0.5381  1.1815 -1.5016
  412MOL0     O55509   6.916   8.194   2.722 -0.3170 -0.1860 -0.3130
  412MOL0     C55510   7.018   8.260   2.778  0.3636 -0.5446  0.0314
  412MOL0     C55511   7.123   8.291   2.692 -0.4720 -0.0134  0.4618
  412MOL0     C55512   7.239   8.354   2.732 -0.4587 -0.6535  0.0708
  412MOL0     C55513   7.248   8.402   2.871  0.0330 -0.6298  0.6077
  412MOL0     C55514   7.368   8.466   2.927 -0.3368  0.5820  0.1183
  412MOL0     O55515   7.450   8.517   2.828 -0.3226 -0.1096  0.1883
  412MOL0     C55516   7.550   8.605   2.859  0.1133 -0.4737  0.1563
  412MOL0     C55517   7.647   8.630   2.757  0.1678 -0.2037 -0.1968
  412MOL0     C55518   7.746   8.720   2.785  0.0615 -0.1655  0.3309
  412MOL0     C55519   7.766   8.778   2.910 -0.3204 -0.0052  0.5067
  412MOL0     O55520   7.859   8.871   2.937 -0.0277  0.0393  0.5372
  412MOL0     C55521   7.901   8.960   2.837 -0.3315 -0.1176 -0.0008
  412MOL0     C55522   7.998   9.063   2.901  0.3104  0.7348 -0.0604
  412MOL0     C55523   8.143   9.029   2.882  0.2732  0.3494  0.4025
  412MOL0     C55524   8.245   9.116   2.967  0.2867  0.3016 -0.4272
  412MOL0     C55525   8.250   9.259   2.933 -0.3203  0.8733  0.0021
  412MOL0     C55526   8.313   9.286   2.798 -0.5618 -0.6802  0.1031
  412MOL0     C55527   8.328   9.440   2.788  0.1089  0.1752 -0.4363
  412MOL0     C55528   8.399   9.486   2.650  0.4581 -0.3990 -0.2399
  412MOL0    Cl55529   8.554   9.407   2.646  0.3159 -0.4857 -0.3112
  412MOL0     C55530   7.679   8.752   3.008 -0.2729 -0.7875  1.0952
  412MOL0     C55531   7.564   8.672   2.981 -0.7438 -0.2833  0.5120
  412MOL0     O55532   7.391   8.449   3.051  0.2722 -0.1111  0.5181
  412MOL0     C55533   7.149   8.353   2.953 -0.0340 -1.2821 -0.5417
  412MOL0     C55534   7.039   8.282   2.915  0.1657 -0.0415  0.2642
  412MOL0     N55535   6.279   8.247   2.554 -0.2878 -0.4853  0.0424
  412MOL0     N55536   6.222   8.221   2.442 -0.5315 -0.4657 -0.3347
  412MOL0     C55537   5.503   7.676   2.980  0.7285  0.2232  0.2136
  412MOL0     C55538   5.446   7.619   3.092  0.9525 -0.0031 -0.6816
  412MOL0     C55539   5.073   7.500   3.341 -0.1575 -0.8906  0.0107
  412MOL0     C55540   5.141   7.377   3.380  0.5302 -0.0071 -0.5537
  412MOL0     C55541   5.093   7.312   3.496 -0.1249 -0.1806 -0.5229
  412MOL0     C55542   4.980   7.347   3.565  0.1115 -0.1114  0.9101
  412MOL0     O55543   4.926   7.277   3.664 -0.7195  0.6188  0.0388
  412MOL0     C55544   4.942   7.318   3.801  0.1090 -0.1071  0.0395
  412MOL0     C55545   5.093   7.347   3.821  0.7191  0.2511 -0.0087
  412MOL0     C55546   5.142   7.219   3.890 -0.6195  0.4634  0.3677
  412MOL0     C55547   5.294   7.208   3.891  0.7482 -1.3336 -0.2243
  412MOL0     C55548   5.340   7.162   3.759  0.2584  0.0627 -0.2330
  412MOL0     C55549   5.384   7.121   3.650 -0.5306 -0.5494  0.0982
  412MOL0     C55550   4.916   7.465   3.526 -0.1005  0.4849 -0.0531
  412MOL0     C55551   4.963   7.535   3.420  0.0624 -0.8867  0.5662
  412MOL0     C55552   4.899   7.675   3.398  0.0407  0.8286 -0.9527
  412MOL0     H55553   5.153   7.545   2.950  1.2949 -2.2036 -0.1449
  412MOL0     H55554   5.283   7.602   2.746  0.5008  0.1260  0.4180
  412MOL0     H55555   5.481   7.593   2.585 -0.5262 -0.4035  0.4163
  412MOL0     H55556   5.372   7.735   2.608  0.2179  2.2788  0.1952
  412MOL0     H55557   5.563   7.891   2.559  2.8796 -0.3212 -0.2375
  412MOL0     H55558   5.537   7.778   2.415 -2.0084 -0.3058  0.0229
  412MOL0     H55559   5.716   7.654   2.462 -2.0108 -0.1065  1.6064
  412MOL0     H55560   5.764   7.740   2.617 -2.9241  1.5576  2.6541
  412MOL0     H55561   5.755   7.875   2.349 -2.8491 -0.2423  0.9255
  412MOL0     H55562   5.799   7.944   2.508  1.5630  0.6427 -0.6577
  412MOL0     H55563   5.989   7.796   2.528  0.0604  0.9672 -0.4851
  412MOL0     H55564   5.952   7.720   2.370 -1.2317  0.1992 -1.2821
  412MOL0     H55565   5.973   7.974   2.283 -0.1126 -1.1433 -0.6595
  412MOL0     H55566   6.021   8.009   2.455 -0.4003  0.8108 -1.5594
  412MOL0     H55567   6.151   7.835   2.223  2.0599  0.6364 -0.8009
  412MOL0     H55568   6.225   7.849   2.375  1.2540  3.2134  1.9063
  412MOL0     H55569   6.333   8.023   2.230 -0.9605 -0.5925 -1.0270
  412MOL0     H55570   6.180   8.101   2.220  1.3317  0.2462  0.4846
  412MOL0     H55571   6.422   7.968   2.493  2.2977  0.4222 -0.7337
  412MOL0     H55572   6.433   8.193   2.788  1.7886  2.9554 -1.8353
  412MOL0     H55573   6.450   8.028   2.728  2.3271 -0.4870 -1.6905
  412MOL0     H55574   6.661   8.107   2.606  0.9897  0.0206 -0.4529
  412MOL0     H55575   6.608   8.276   2.653 -1.2114  0.2353 -1.3562
  412MOL0     H55576   6.627   8.086   2.876  0.1907  1.4687  1.9700
  412MOL0     H55577   6.690   8.248   2.858  0.6561  1.3405 -2.9820
  412MOL0     H55578   6.826   8.015   2.742 -0.7007 -0.6513  1.3577
  412MOL0     H55579   6.876   8.083   2.894  1.2916  0.1026 -2.1330
  412MOL0     H55580   7.113   8.266   2.587  2.7360 -0.6164  0.1821
  412MOL0     H55581   7.320   8.355   2.660  0.4675 -1.3418  1.0757
  412MOL0     H55582   7.641   8.578   2.662 -0.6664  0.0652 -0.2986
  412MOL0     H55583   7.816   8.745   2.705 -0.1695  1.7891  0.7031
  412MOL0     H55584   7.964   8.903   2.767 -2.1557  0.5780 -2.3615
  412MOL0     H55585   7.816   8.998   2.780  0.1675 -0.4239 -0.9740
  412MOL0     H55586   7.985   9.167   2.868  0.0446  2.0527  3.7434
  412MOL0     H55587   7.978   9.058   3.008 -0.7058  2.1248 -0.1636
  412MOL0     H55588   8.153   8.923   2.909 -2.4699 -0.8989 -2.7226
  412MOL0     H55589   8.172   9.033   2.777  0.4323  3.2492  0.4823
  412MOL0     H55590   8.350   9.085   2.965  1.0221  2.6188 -1.0759
  412MOL0     H55591   8.211   9.105   3.071 -0.2757  0.1088 -0.6277
  412MOL0     H55592   8.316   9.305   3.007 -0.0491  4.2546 -2.1133
  412MOL0     H55593   8.151   9.306   2.936 -0.7916 -0.0097 -0.8191
  412MOL0     H55594   8.412   9.240   2.787  0.2592  1.4536 -2.4546
  412MOL0     H55595   8.252   9.238   2.721  1.0976 -0.0032 -1.7051
  412MOL0     H55596   8.389   9.482   2.869  2.1924  0.2237 -1.9507
  412MOL0     H55597   8.226   9.479   2.796 -0.6473 -1.4950 -1.4594
  412MOL0     H55598   8.338   9.445   2.569  1.2757 -1.1631 -0.4853
  412MOL0     H55599   8.407   9.592   2.623  1.4107 -0.4893 -0.3332
  412MOL0     H55600   7.690   8.794   3.108  5.0093  1.9245 -0.2729
  412MOL0     H55601   7.482   8.673   3.053  0.4923 -0.0187  1.9592
  412MOL0     H55602   7.167   8.378   3.057 -0.3947 -0.6370 -0.6290
  412MOL0     H55603   6.962   8.258   2.988 -1.2673 -1.3902 -1.5977
  412MOL0     H55604   5.609   7.694   2.997  0.6057  1.7494 -0.5667
  412MOL0     H55605   5.492   7.609   3.190 -1.4997  0.1191  0.5515
  412MOL0     H55606   5.228   7.331   3.335  1.2341  1.3338 -0.6263
  412MOL0     H55607   5.147   7.224   3.530 -0.9385 -0.9440 -1.1623
  412MOL0     H55608   4.902   7.244   3.871  1.7793 -3.4660 -2.2966
  412MOL0     H55609   4.892   7.415   3.816  1.4893  0.6555 -0.0958
  412MOL0     H55610   5.091   7.431   3.891 -0.3120 -1.6091  2.3328
  412MOL0     H55611   5.156   7.377   3.737  0.7566 -1.9052 -0.8039
  412MOL0     H55612   5.103   7.132   3.835  0.4037  0.8858 -1.0911
  412MOL0     H55613   5.100   7.222   3.991  0.5310  2.2537  0.8235
  412MOL0     H55614   5.353   7.296   3.916 -2.4957  0.3431  2.1285
  412MOL0     H55615   5.314   7.131   3.966  2.1840 -0.9672 -0.2010
  412MOL0     H55616   5.430   7.089   3.559  1.6706  1.5868  0.3527
  412MOL0     H55617   4.833   7.498   3.588 -0.5617  2.2352 -1.5402
  412MOL0     H55618   4.832   7.693   3.483 -0.4945 -2.5077 -0.5247
  412MOL0     H55619   4.965   7.761   3.395 -3.8233  4.0710 -3.2211
  412MOL0     H55620   4.839   7.673   3.306 -0.9072 -2.6351 -0.4180
  413MOL0     O55621   2.197   3.108   0.002 -0.1561  0.1709 -0.0490
  413MOL0     C55622   2.104   3.032   0.010  0.4512  0.0644  0.0400
  413MOL0     O55623   2.117   2.892   0.001  0.0994 -0.4764  0.0304
  413MOL0     C55624   2.220   2.849  -0.076 -1.0690  0.7119  0.3718
  413MOL0     C55625   2.252   2.901  -0.202 -0.3207 -0.7919 -0.5824
  413MOL0     C55626   2.366   2.853  -0.269 -1.4910 -1.1749 -0.6548
  413MOL0     C55627   2.442   2.749  -0.225  0.2478 -0.3331 -0.5184
  413MOL0     O55628   2.546   2.687  -0.290 -0.2382 -0.7327  1.0105
  413MOL0     C55629   2.644   2.773  -0.359 -0.5857  0.8594 -0.1659
  413MOL0     C55630   2.759   2.680  -0.379  0.3011  0.5243  0.4227
  413MOL0     C55631   2.881   2.772  -0.385 -0.2081 -0.1018  0.9721
  413MOL0     C55632   2.986   2.715  -0.478  0.0370 -0.2091  0.3897
  413MOL0     C55633   3.121   2.772  -0.435  1.1455  0.4063 -0.6170
  413MOL0     C55634   3.239   2.678  -0.492  1.0598 -0.3892 -0.0523
  413MOL0     C55635   3.384   2.731  -0.482 -0.2203 -0.0715 -0.6084
  413MOL0     C55636   3.412   2.815  -0.606 -0.2154 -0.3012  0.1046
  413MOL0     N55637   3.553   2.850  -0.610  0.2636  0.3012 -0.6992
  413MOL0     C55638   3.611   2.937  -0.520 -0.1148  0.4681 -0.6735
  413MOL0     C55639   3.743   2.943  -0.548 -0.1437  0.1106  0.1582
  413MOL0     C55640   3.862   3.016  -0.483  0.5191  1.0981  0.0088
  413MOL0     C55641   3.952   2.922  -0.401  0.4369 -0.0647 -0.3284
  413MOL0     C55642   3.866   2.865  -0.276 -0.9450  0.6307  0.0230
  413MOL0     C55643   3.954   2.789  -0.178 -0.1978 -0.6019 -0.3663
  413MOL0     O55644   4.060   2.870  -0.122  0.2232 -0.1930  0.4508
  413MOL0     C55645   4.160   2.807  -0.048 -0.2460  0.4420  0.7841
  413MOL0     C55646   4.249   2.889   0.014  0.6597 -0.4020  0.0413
  413MOL0     C55647   4.357   2.835   0.083  0.6128 -0.1089  0.8614
  413MOL0     C55648   4.379   2.693   0.099 -0.0552  0.7908  0.2383
  413MOL0     C55649   4.506   2.637   0.150 -0.6707 -0.2899 -0.0128
  413MOL0     O55650   4.515   2.505   0.143 -0.4731  0.2049  0.1365
  413MOL0     C55651   4.628   2.438   0.190  0.0118  0.0702 -0.5524
  413MOL0     C55652   4.629   2.356   0.308  0.2252  0.0667 -0.0261
  413MOL0     C55653   4.741   2.297   0.354 -0.4107  0.9259 -0.4321
  413MOL0     C55654   4.862   2.312   0.293  0.6585 -0.2344  0.0733
  413MOL0     O55655   4.973   2.260   0.355  0.3391 -0.4823 -0.2257
  413MOL0     C55656   5.007   2.138   0.296 -0.0630  1.2504  0.8897
  413MOL0     C55657   5.124   2.074   0.375  0.3086 -0.0676  0.0483
  413MOL0     C55658   5.266   2.129   0.333  0.5475  0.7840 -0.5560
  413MOL0     C55659   5.381   2.066   0.415  0.0643  0.8245  0.3609
  413MOL0     C55660   5.512   2.055   0.337  0.4967 -0.2360 -0.6709
  413MOL0     C55661   5.603   1.953   0.401  0.2055 -0.2103 -0.1945
  413MOL0     C55662   5.671   1.993   0.528  0.0507  0.4178  0.6180
  413MOL0     C55663   5.821   1.970   0.533 -0.3931 -0.4190 -0.3091
  413MOL0    Cl55664   5.919   2.105   0.452  0.6383 -0.1944 -0.0498
  413MOL0     C55665   4.868   2.386   0.172  0.3381 -0.0035  0.2966
  413MOL0     C55666   4.753   2.445   0.123  0.4330 -0.9941  0.0666
  413MOL0     O55667   4.600   2.713   0.183  0.5292 -0.0183 -0.2669
  413MOL0     C55668   4.267   2.616   0.054  0.1262  0.2296 -0.3907
  413MOL0     C55669   4.162   2.669  -0.018  0.3321  0.5283 -0.5085
  413MOL0     N55670   3.771   2.858  -0.656 -0.2771 -0.1593 -0.1588
  413MOL0     N55671   3.657   2.802  -0.685  0.2087 -0.8466  0.0729
  413MOL0     C55672   2.411   2.703  -0.094  0.4580  0.6909 -0.2892
  413MOL0     C55673   2.300   2.747  -0.027  0.8896  0.4393 -0.8890
  413MOL0     C55674   1.972   3.084   0.034 -0.5289 -0.4630 -0.2859
  413MOL0     C55675   1.961   3.221   0.021  0.2941 -0.0091  0.3556
  413MOL0     C55676   1.837   3.279   0.042  0.1595  0.1804 -0.1814
  413MOL0     C55677   1.727   3.206   0.072  0.9282  0.2040 -1.2926
  413MOL0     O55678   1.605   3.269   0.070  0.1927  0.7308 -0.4193
  413MOL0     C55679   1.499   3.226   0.166  0.2534 -0.4476  0.2389
  413MOL0     C55680   1.523   3.297   0.297 -0.3033 -0.7434 -1.1971
  413MOL0     C55681   1.646   3.235   0.375 -0.1278  0.9967 -0.6201
  413MOL0     C55682   1.663   3.278   0.522 -0.0059 -1.1745  0.8998
  413MOL0     C55683   1.640   3.166   0.607 -0.4703  0.0167  0.4527
  413MOL0     C55684   1.641   3.086   0.698  0.8332 -0.5585 -0.3842
  413MOL0     C55685   1.736   3.063   0.087 -0.0829 -0.6726  0.0953
  413MOL0     C55686   1.859   3.002   0.070  0.1817 -0.0417  0.0364
  413MOL0     C55687   1.856   2.855   0.083  0.3708  0.3745  0.7328
  413MOL0     H55688   2.195   2.982  -0.246 -0.8844  0.0900  1.6394
  413MOL0     H55689   2.398   2.896  -0.364 -1.4129 -1.6375 -0.8406
  413MOL0     H55690   2.624   2.812  -0.459  0.8662 -0.7645 -1.1395
  413MOL0     H55691   2.685   2.850  -0.293 -0.0522  1.3624 -1.0568
  413MOL0     H55692   2.742   2.627  -0.474  0.6813  1.6430 -0.2796
  413MOL0     H55693   2.776   2.598  -0.308  2.0543 -1.1009 -1.7183
  413MOL0     H55694   2.921   2.794  -0.286 -0.1274 -0.0154  0.9195
  413MOL0     H55695   2.854   2.866  -0.435  1.7029  0.0054  0.0640
  413MOL0     H55696   2.993   2.607  -0.461  0.8705 -0.7030 -2.5086
  413MOL0     H55697   2.967   2.733  -0.584  0.9329 -0.1185  0.2372
  413MOL0     H55698   3.144   2.870  -0.477  0.8200  0.0835 -1.5738
  413MOL0     H55699   3.123   2.763  -0.326 -0.3513  0.3368 -0.5632
  413MOL0     H55700   3.238   2.584  -0.435 -1.3715 -1.7317 -2.1092
  413MOL0     H55701   3.223   2.644  -0.594  0.5118 -1.3597  0.3429
  413MOL0     H55702   3.457   2.651  -0.470  0.4752  0.8224  1.6699
  413MOL0     H55703   3.407   2.786  -0.390  1.6760 -0.7482 -0.6502
  413MOL0     H55704   3.397   2.756  -0.697  4.4173 -2.2843  0.3201
  413MOL0     H55705   3.347   2.902  -0.597 -1.9318 -1.7651  4.0029
  413MOL0     H55706   3.556   2.993  -0.445  2.1436  0.9055  0.7377
  413MOL0     H55707   3.935   3.063  -0.550  1.5243  0.5870  0.7224
  413MOL0     H55708   3.830   3.098  -0.417 -0.7515  0.3703  0.3313
  413MOL0     H55709   3.990   2.842  -0.465  2.2260 -1.3218  2.1319
  413MOL0     H55710   4.041   2.972  -0.359 -0.1057  2.8584 -2.3659
  413MOL0     H55711   3.787   2.796  -0.307  0.0118  0.0414 -1.2315
  413MOL0     H55712   3.826   2.959  -0.237 -1.4033  0.2536  0.4735
  413MOL0     H55713   3.977   2.699  -0.236 -2.0204 -0.9099 -0.6508
  413MOL0     H55714   3.890   2.757  -0.096  0.1332 -1.4108 -0.4161
  413MOL0     H55715   4.230   2.996   0.013 -2.2110 -0.7994  1.5077
  413MOL0     H55716   4.441   2.893   0.121 -0.3317  1.6826  0.3161
  413MOL0     H55717   4.544   2.352   0.375  1.1497  3.1846  1.5379
  413MOL0     H55718   4.735   2.245   0.449  0.9890  0.5620 -0.5279
  413MOL0     H55719   4.926   2.065   0.297  0.1204  1.0202 -0.0051
  413MOL0     H55720   5.030   2.148   0.189  1.8815 -1.6655  0.8959
  413MOL0     H55721   5.112   2.096   0.482 -0.3797 -1.4299  0.2753
  413MOL0     H55722   5.127   1.965   0.367  0.1683  0.0245 -1.5396
  413MOL0     H55723   5.277   2.130   0.225  0.1965  1.0207 -0.5926
  413MOL0     H55724   5.273   2.234   0.363  0.7588  0.4145  0.7389
  413MOL0     H55725   5.340   1.968   0.440 -1.3654  1.7956  2.0906
  413MOL0     H55726   5.394   2.111   0.514  2.2127 -0.0816  0.5487
  413MOL0     H55727   5.567   2.147   0.314  2.5506 -1.0873  0.5726
  413MOL0     H55728   5.490   2.009   0.240 -1.3262  1.0890 -0.9219
  413MOL0     H55729   5.540   1.866   0.425 -1.6010  1.0262 -0.2746
  413MOL0     H55730   5.676   1.923   0.326  0.2538  0.9690 -0.6362
  413MOL0     H55731   5.627   1.927   0.602  0.1820 -0.7854 -0.3459
  413MOL0     H55732   5.659   2.099   0.552  0.3088  0.7273 -0.5372
  413MOL0     H55733   5.858   1.971   0.636 -0.6568 -0.4667 -0.2146
  413MOL0     H55734   5.853   1.880   0.479 -2.4124 -3.9975  3.8094
  413MOL0     H55735   4.962   2.397   0.118  0.8315 -0.1398  1.1255
  413MOL0     H55736   4.760   2.505   0.033 -2.1595 -0.9205 -0.1410
  413MOL0     H55737   4.265   2.508   0.065  1.8868  0.2033 -0.0737
  413MOL0     H55738   4.093   2.600  -0.067 -1.2189 -1.0827  3.5004
  413MOL0     H55739   2.475   2.623  -0.058  0.5475  0.6810 -0.4678
  413MOL0     H55740   2.268   2.710   0.070 -2.1239  3.0612 -0.7302
  413MOL0     H55741   2.044   3.285  -0.007 -0.3407  1.2855  1.3175
  413MOL0     H55742   1.823   3.384   0.019  0.2868  0.4907  1.0970
  413MOL0     H55743   1.499   3.119   0.186 -0.2339 -0.8343 -1.6346
  413MOL0     H55744   1.400   3.250   0.127 -0.6565 -1.0394  2.0705
  413MOL0     H55745   1.437   3.278   0.362  2.4657 -1.1378  2.7253
  413MOL0     H55746   1.540   3.403   0.280  1.3321 -0.5726  1.0302
  413MOL0     H55747   1.734   3.274   0.323 -0.7997  2.7205 -0.5415
  413MOL0     H55748   1.663   3.127   0.367  2.0656  1.4026 -3.2633
  413MOL0     H55749   1.767   3.307   0.541  0.5950 -2.2303 -0.5622
  413MOL0     H55750   1.593   3.361   0.536  0.4816 -0.6607  0.3607
  413MOL0     H55751   1.646   3.025   0.786 -1.6995  3.2803  2.7411
  413MOL0     H55752   1.652   3.004   0.121 -0.0978 -1.5790 -1.4230
  413MOL0     H55753   1.908   2.822   0.174 -0.7067 -2.1635  0.5037
  413MOL0     H55754   1.750   2.829   0.090  0.1675  0.4393 -1.3703
  413MOL0     H55755   1.897   2.815  -0.010 -0.6955 -0.1255  0.4660
  414MOL0     O55756  10.421   2.256   4.441  0.0940 -0.0087  0.6362
  414MOL0     C55757  10.387   2.375   4.447  0.8697 -0.0456  0.2271
  414MOL0     O55758  10.465   2.476   4.511  0.0542  0.9566 -0.2416
  414MOL0     C55759  10.570   2.443   4.592  0.0322  0.2330 -0.2223
  414MOL0     C55760  10.594   2.321   4.662  0.1485  1.0593 -0.0633
  414MOL0     C55761  10.704   2.297   4.743 -0.5468 -0.0836 -0.7763
  414MOL0     C55762  10.799   2.393   4.766 -0.3516  0.1329 -0.3739
  414MOL0     O55763  10.915   2.355   4.832  0.1437  0.3636  0.2277
  414MOL0     C55764  10.989   2.457   4.896 -0.7041  0.7346 -0.0719
  414MOL0     C55765  11.114   2.383   4.944 -0.2991 -1.2144 -1.3748
  414MOL0     C55766  11.209   2.487   5.026  0.0016 -0.7618  0.6127
  414MOL0     C55767  11.322   2.414   5.096 -0.1107  0.1141  0.2783
  414MOL0     C55768  11.405   2.513   5.184  0.2516  0.2502  0.0746
  414MOL0     C55769  11.470   2.612   5.089 -0.6794  0.5745  1.1170
  414MOL0     C55770  11.615   2.645   5.137  0.1795  0.1069 -0.6690
  414MOL0     C55771  11.676   2.744   5.045 -0.3534  1.1433  0.4832
  414MOL0     N55772  11.820   2.753   5.062  0.0815 -0.3407 -0.0682
  414MOL0     C55773  11.889   2.806   5.167 -0.4349 -0.6758 -0.2396
  414MOL0     C55774  12.023   2.771   5.143  1.0685 -0.9154 -0.1744
  414MOL0     C55775  12.128   2.786   5.238  0.2996 -0.0176 -0.6952
  414MOL0     C55776  12.258   2.713   5.201  0.9601 -1.0248  0.0342
  414MOL0     C55777  12.388   2.750   5.281  0.6826 -0.6233 -0.2559
  414MOL0     C55778  12.516   2.679   5.230 -0.6506 -0.2963  0.4876
  414MOL0     O55779  12.614   2.697   5.328  0.8219  0.9518 -0.4864
  414MOL0     C55780  12.739   2.655   5.291  0.3854 -0.4345 -0.2026
  414MOL0     C55781  12.828   2.679   5.387 -0.2704  0.3036 -0.8179
  414MOL0     C55782  12.967   2.636   5.373 -0.0362 -0.5632 -0.1700
  414MOL0     C55783  13.016   2.587   5.256  0.0929 -0.2153  0.7289
  414MOL0     C55784  13.159   2.554   5.232 -0.5679  0.1513  0.3168
  414MOL0     O55785  13.188   2.511   5.109 -0.0132  0.8087 -0.0843
  414MOL0     C55786  13.315   2.457   5.088  1.7720  0.3191  0.2780
  414MOL0     C55787  13.400   2.548   5.016  0.1370 -0.4129 -1.3278
  414MOL0     C55788  13.529   2.506   4.988  0.0468 -0.3355  0.5518
  414MOL0     C55789  13.573   2.375   5.023 -0.0121 -0.0221  0.3912
  414MOL0     O55790  13.706   2.343   4.993 -0.0713  0.1931  0.0959
  414MOL0     C55791  13.756   2.210   5.016 -0.1593 -1.0192 -0.3126
  414MOL0     C55792  13.908   2.208   4.982 -0.5063  0.2687 -1.2139
  414MOL0     C55793  13.991   2.286   5.081  0.2404  0.7836 -0.0742
  414MOL0     C55794  14.115   2.331   5.008 -0.8046 -0.1082 -0.0910
  414MOL0     C55795  14.228   2.375   5.090  0.1401  0.2088 -0.2887
  414MOL0     C55796  14.350   2.423   5.001  0.5316  0.1838 -0.8096
  414MOL0     C55797  14.453   2.486   5.094  0.2394  0.8096 -0.7511
  414MOL0     C55798  14.569   2.529   5.014 -0.2227 -0.0913  0.6794
  414MOL0    Cl55799  14.707   2.548   5.118  0.4045 -0.1630  0.3439
  414MOL0     C55800  13.488   2.293   5.100  0.2380  0.0145 -0.8545
  414MOL0     C55801  13.357   2.333   5.136 -0.1923  0.5725 -0.7156
  414MOL0     O55802  13.236   2.551   5.331 -0.0349 -0.5503  1.1597
  414MOL0     C55803  12.917   2.562   5.156  1.2628  0.0670  0.2221
  414MOL0     C55804  12.780   2.592   5.177  0.0035 -0.7515 -0.2947
  414MOL0     N55805  12.026   2.712   5.021  0.6813  0.3762  0.9236
  414MOL0     N55806  11.910   2.709   4.968  0.4642  0.1305  0.2392
  414MOL0     C55807  10.781   2.516   4.696 -0.4040  0.1791  1.9424
  414MOL0     C55808  10.669   2.543   4.617 -0.6566 -0.6071 -0.6495
  414MOL0     C55809  10.253   2.417   4.384  1.2360 -1.0513  0.0327
  414MOL0     C55810  10.140   2.338   4.421  0.7555 -0.5965  0.8910
  414MOL0     C55811  10.012   2.369   4.380 -0.8291 -0.6973  1.0984
  414MOL0     C55812   9.996   2.479   4.287  0.3810  0.9909 -0.0025
  414MOL0     O55813   9.867   2.511   4.245 -0.1424  0.2168 -0.5826
  414MOL0     C55814   9.829   2.596   4.135 -0.4433  0.1378 -0.5864
  414MOL0     C55815   9.705   2.556   4.054 -0.2514  0.2211  0.0796
  414MOL0     C55816   9.580   2.612   4.111 -0.4073  0.0663 -0.9027
  414MOL0     C55817   9.558   2.577   4.265 -0.4128  0.3331 -0.4913
  414MOL0     C55818   9.412   2.581   4.300  0.9789 -0.5033  0.7453
  414MOL0     C55819   9.292   2.582   4.330 -0.1260 -0.1062  0.2784
  414MOL0     C55820  10.108   2.562   4.253  0.6296  0.0777  0.2286
  414MOL0     C55821  10.234   2.523   4.301  0.1462 -1.0127 -0.6083
  414MOL0     C55822  10.339   2.629   4.273 -0.0448  0.7667  0.0212
  414MOL0     H55823  10.516   2.247   4.651  0.8056  0.3621 -0.1170
  414MOL0     H55824  10.716   2.198   4.785 -3.2105 -0.2275 -0.2097
  414MOL0     H55825  11.013   2.542   4.832 -3.8040  0.8647 -1.2420
  414MOL0     H55826  10.924   2.489   4.978 -1.3311  1.0027 -0.6629
  414MOL0     H55827  11.171   2.330   4.867 -0.4759 -0.9441 -1.6922
  414MOL0     H55828  11.082   2.307   5.016  1.4552  0.1326  0.9607
  414MOL0     H55829  11.150   2.538   5.102 -0.6361  0.7015 -0.8175
  414MOL0     H55830  11.252   2.563   4.960  0.5521  0.1585  1.9890
  414MOL0     H55831  11.275   2.337   5.157  0.0147  0.7003  1.1372
  414MOL0     H55832  11.389   2.371   5.022  0.6658  2.5104 -0.5244
  414MOL0     H55833  11.324   2.560   5.241 -1.8309 -1.8641 -0.9343
  414MOL0     H55834  11.487   2.466   5.239  0.8261  2.2118  0.9459
  414MOL0     H55835  11.492   2.565   4.993  0.0231 -0.2190  1.6466
  414MOL0     H55836  11.408   2.703   5.089 -2.1683 -0.2244  4.7611
  414MOL0     H55837  11.671   2.552   5.145 -0.0087 -0.2302 -2.6070
  414MOL0     H55838  11.607   2.691   5.236  0.5583  3.5963 -2.0938
  414MOL0     H55839  11.661   2.727   4.939  2.1471 -2.6501  0.5584
  414MOL0     H55840  11.634   2.841   5.075 -1.0569  0.6811  1.0308
  414MOL0     H55841  11.859   2.846   5.263  3.5332  0.5887  0.6570
  414MOL0     H55842  12.162   2.890   5.245 -0.9232  0.3004  1.1212
  414MOL0     H55843  12.092   2.759   5.338  1.9718 -0.0461 -0.0717
  414MOL0     H55844  12.244   2.605   5.210 -1.2926 -0.6974  1.1436
  414MOL0     H55845  12.303   2.733   5.103 -0.3168 -2.7586 -0.9539
  414MOL0     H55846  12.371   2.724   5.386  1.9783 -1.4264 -0.2257
  414MOL0     H55847  12.408   2.856   5.265  0.3669 -0.7347 -1.4821
  414MOL0     H55848  12.538   2.739   5.142  0.4694  1.9264  2.1912
  414MOL0     H55849  12.502   2.572   5.213 -1.0442  0.0189 -1.4145
  414MOL0     H55850  12.795   2.704   5.488  2.4315 -0.4204  0.3541
  414MOL0     H55851  13.037   2.649   5.456 -1.6437  0.6305  1.0672
  414MOL0     H55852  13.366   2.649   4.999 -3.0160 -0.9501  0.9864
  414MOL0     H55853  13.598   2.571   4.934 -0.1070 -0.0806  0.6620
  414MOL0     H55854  13.736   2.176   5.118 -3.9596 -1.2889 -0.9979
  414MOL0     H55855  13.719   2.143   4.938 -1.1616  0.9420 -1.6077
  414MOL0     H55856  13.938   2.103   4.993  0.0344  0.5211 -0.1114
  414MOL0     H55857  13.932   2.235   4.879 -1.2214 -1.2194 -1.8021
  414MOL0     H55858  13.931   2.372   5.111 -0.4832  0.0205  0.6982
  414MOL0     H55859  14.022   2.221   5.164 -0.5614  0.2139 -0.2116
  414MOL0     H55860  14.091   2.412   4.939 -0.8214  0.3251  0.4172
  414MOL0     H55861  14.160   2.249   4.950 -1.1163 -2.2045  2.4384
  414MOL0     H55862  14.259   2.298   5.160  0.4277  0.2520 -0.3674
  414MOL0     H55863  14.197   2.463   5.149 -1.3052 -0.1770 -0.4395
  414MOL0     H55864  14.386   2.341   4.938 -3.5728 -2.1439 -0.4607
  414MOL0     H55865  14.324   2.500   4.927  2.1502  0.7263 -0.8538
  414MOL0     H55866  14.490   2.403   5.155  2.0004  0.0004 -2.8068
  414MOL0     H55867  14.404   2.565   5.151 -1.7887 -1.5531  1.0329
  414MOL0     H55868  14.596   2.453   4.940  0.1588  0.2499  0.4640
  414MOL0     H55869  14.545   2.615   4.951  1.5873 -1.9978 -2.9722
  414MOL0     H55870  13.522   2.190   5.115 -3.3779 -1.2273 -0.2340
  414MOL0     H55871  13.297   2.262   5.193  2.4300 -1.2813 -0.0706
  414MOL0     H55872  12.947   2.511   5.065  1.1350 -0.2507  0.3556
  414MOL0     H55873  12.708   2.562   5.101  0.0399 -1.0085 -0.2298
  414MOL0     H55874  10.850   2.600   4.699 -0.6412  0.5831 -0.9147
  414MOL0     H55875  10.646   2.636   4.565 -0.0447  1.0047  1.7713
  414MOL0     H55876  10.147   2.257   4.494 -0.7957 -1.1121  0.5078
  414MOL0     H55877   9.932   2.314   4.428 -2.1783  0.0527 -0.2075
  414MOL0     H55878   9.905   2.582   4.057  0.1701  0.3725 -0.0424
  414MOL0     H55879   9.809   2.700   4.165  0.4939 -0.4110  2.2305
  414MOL0     H55880   9.691   2.447   4.051 -1.4668  0.3027  1.5300
  414MOL0     H55881   9.708   2.589   3.950  1.4793 -1.3308 -0.4357
  414MOL0     H55882   9.494   2.568   4.060 -0.9158  2.6724 -2.4789
  414MOL0     H55883   9.576   2.718   4.082  0.7279 -0.2248 -2.1826
  414MOL0     H55884   9.603   2.479   4.285  1.0704  0.9137 -0.8355
  414MOL0     H55885   9.618   2.650   4.320 -1.9750  0.6267  0.8614
  414MOL0     H55886   9.188   2.564   4.344  0.1691 -1.7699  0.5049
  414MOL0     H55887  10.087   2.646   4.188 -0.1614 -1.2178 -1.2492
  414MOL0     H55888  10.310   2.691   4.188 -0.8128  1.1456  0.5432
  414MOL0     H55889  10.370   2.693   4.357  0.3785  3.7224 -2.2190
  414MOL0     H55890  10.426   2.565   4.256 -1.9239 -2.0224  0.1575
  415MOL0     O55891   1.692   7.546   8.690  0.5691 -0.7187  0.6033
  415MOL0     C55892   1.671   7.464   8.601 -0.9528 -0.4108  0.0354
  415MOL0     O55893   1.728   7.343   8.597  0.3673  0.3922  0.4462
  415MOL0     C55894   1.847   7.306   8.656 -0.5622 -0.1816 -0.3187
  415MOL0     C55895   1.878   7.173   8.691 -0.6364  0.7586 -0.1042
  415MOL0     C55896   1.999   7.140   8.756 -0.2758  0.3983  0.7620
  415MOL0     C55897   2.090   7.237   8.789  0.3760 -0.5773 -0.2910
  415MOL0     O55898   2.218   7.202   8.840 -0.2922 -0.2249 -0.1107
  415MOL0     C55899   2.319   7.225   8.744 -0.2114  0.2638 -0.2534
  415MOL0     C55900   2.421   7.118   8.747  0.6507  0.1051  0.1519
  415MOL0     C55901   2.519   7.126   8.629 -1.1409  0.3320 -0.3513
  415MOL0     C55902   2.626   7.016   8.643 -0.1402 -0.2166  0.3831
  415MOL0     C55903   2.737   7.005   8.540 -0.1016  0.2652  0.1591
  415MOL0     C55904   2.819   7.135   8.526 -0.4205 -0.1691  1.0852
  415MOL0     C55905   2.941   7.105   8.439  0.0867 -0.3351  0.0841
  415MOL0     C55906   3.028   7.231   8.411  0.1733  0.0578 -0.1120
  415MOL0     N55907   3.150   7.197   8.339 -0.2886 -0.0730 -0.9007
  415MOL0     C55908   3.252   7.108   8.373 -0.7323  1.3796  0.0434
  415MOL0     C55909   3.336   7.119   8.272  0.0099  0.2725  0.7702
  415MOL0     C55910   3.464   7.039   8.254 -0.2576  0.4324 -0.2240
  415MOL0     C55911   3.567   7.119   8.333  0.8672 -0.4666  0.0882
  415MOL0     C55912   3.712   7.085   8.295 -0.3691 -0.1130 -0.1443
  415MOL0     C55913   3.757   6.936   8.304 -0.1343 -0.2598 -0.1376
  415MOL0     O55914   3.897   6.939   8.254 -0.4751  0.4168 -0.1327
  415MOL0     C55915   3.963   6.857   8.342 -0.7442  0.7428 -0.0087
  415MOL0     C55916   4.003   6.735   8.286 -0.6288  0.6325  0.0248
  415MOL0     C55917   4.075   6.645   8.357 -0.0481  0.3991 -1.3662
  415MOL0     C55918   4.100   6.667   8.491 -1.6833  0.8101  0.1312
  415MOL0     C55919   4.152   6.550   8.570 -0.6400  0.3742 -0.1140
  415MOL0     O55920   4.130   6.419   8.508  0.6778 -0.2202 -0.1644
  415MOL0     C55921   4.136   6.313   8.591  0.4925 -0.8085  0.1723
  415MOL0     C55922   4.255   6.250   8.608 -0.0528 -0.1519 -1.1652
  415MOL0     C55923   4.257   6.143   8.699  0.1552  0.2804  0.1882
  415MOL0     C55924   4.143   6.107   8.772  0.4520 -1.3028  0.1080
  415MOL0     O55925   4.158   6.001   8.866 -0.4872  0.0022 -0.2664
  415MOL0     C55926   4.094   6.015   8.986 -0.1030  0.2420  0.0322
  415MOL0     C55927   3.957   5.943   8.995  0.3774 -0.0556 -0.0794
  415MOL0     C55928   3.881   5.951   9.129  0.3059  0.5639  0.1860
  415MOL0     C55929   3.746   5.879   9.113 -0.7724  0.8742  0.3259
  415MOL0     C55930   3.668   5.869   9.240 -0.7541  0.0636  0.0443
  415MOL0     C55931   3.540   5.791   9.219  0.5386  1.0461 -1.2823
  415MOL0     C55932   3.453   5.806   9.346 -0.2794 -0.3075 -0.4389
  415MOL0     C55933   3.305   5.787   9.322  0.6032 -0.2045 -0.5790
  415MOL0    Cl55934   3.237   5.912   9.204  0.1321  0.4000 -0.3174
  415MOL0     C55935   4.021   6.176   8.746  0.2143 -0.5695 -0.2072
  415MOL0     C55936   4.020   6.279   8.655 -0.2888 -0.0891 -1.2472
  415MOL0     O55937   4.185   6.569   8.686  0.5450  0.3156 -0.3915
  415MOL0     C55938   4.077   6.794   8.551 -0.3764 -0.0088  0.0568
  415MOL0     C55939   3.998   6.886   8.473  0.2012 -0.5202  0.1816
  415MOL0     N55940   3.301   7.219   8.183  0.0914 -0.9177 -0.5128
  415MOL0     N55941   3.189   7.262   8.235  0.1336  0.3173  0.1522
  415MOL0     C55942   2.056   7.371   8.769 -0.2154  0.3432 -0.0760
  415MOL0     C55943   1.936   7.402   8.695 -0.3673  0.0144  0.0615
  415MOL0     C55944   1.595   7.502   8.472 -0.5115  0.4426  0.8392
  415MOL0     C55945   1.630   7.445   8.352 -0.3148  0.4070  0.5784
  415MOL0     C55946   1.564   7.463   8.238  0.0543 -0.0988 -0.3382
  415MOL0     C55947   1.466   7.565   8.234 -0.7804 -0.2817 -0.4318
  415MOL0     O55948   1.395   7.612   8.128 -0.1601  0.5784 -0.0955
  415MOL0     C55949   1.439   7.565   7.995 -0.1690  0.1112  0.0488
  415MOL0     C55950   1.344   7.616   7.890 -0.3566  0.0024  0.1874
  415MOL0     C55951   1.367   7.762   7.853  0.4767  0.7083  0.7983
  415MOL0     C55952   1.279   7.875   7.922 -0.0262  1.2659  0.4308
  415MOL0     C55953   1.137   7.852   7.900 -0.1150  0.9425  0.2785
  415MOL0     C55954   1.009   7.854   7.889  0.1688  1.2830  0.4813
  415MOL0     C55955   1.431   7.631   8.349 -0.3922 -0.1177 -0.0579
  415MOL0     C55956   1.494   7.601   8.471  0.0094 -0.2401 -0.6705
  415MOL0     C55957   1.452   7.688   8.592  0.4462 -0.5573 -0.0192
  415MOL0     H55958   1.801   7.102   8.662 -0.8569  1.1470 -0.4868
  415MOL0     H55959   2.033   7.037   8.755 -0.5670  0.2943 -1.1656
  415MOL0     H55960   2.268   7.239   8.649 -1.3777  0.1140  0.3314
  415MOL0     H55961   2.377   7.313   8.775 -0.0101 -0.6723  2.2973
  415MOL0     H55962   2.361   7.028   8.734  0.1321  0.5980 -1.0081
  415MOL0     H55963   2.488   7.105   8.832 -1.9414 -1.3126  2.1334
  415MOL0     H55964   2.574   7.221   8.627  0.1209 -0.3666  0.2528
  415MOL0     H55965   2.458   7.130   8.538  0.5807 -1.5889 -1.6655
  415MOL0     H55966   2.680   7.024   8.738  3.2509 -1.3420 -1.2629
  415MOL0     H55967   2.568   6.925   8.631  2.2523 -1.5239 -3.1927
  415MOL0     H55968   2.803   6.922   8.567 -0.7913 -0.5561 -0.6161
  415MOL0     H55969   2.688   6.984   8.444 -2.3718 -0.4710  1.4086
  415MOL0     H55970   2.752   7.201   8.469 -0.0385 -0.1234  0.6809
  415MOL0     H55971   2.847   7.179   8.622  1.2009 -0.7965  0.9208
  415MOL0     H55972   2.903   7.064   8.345  1.4687  0.7276 -0.9733
  415MOL0     H55973   3.005   7.025   8.478 -0.1064 -1.2888 -1.4759
  415MOL0     H55974   2.973   7.309   8.358  0.5227  0.6829  0.4310
  415MOL0     H55975   3.066   7.280   8.501  1.7753 -1.8745  0.3172
  415MOL0     H55976   3.257   7.047   8.462 -2.2599  1.0472 -0.0751
  415MOL0     H55977   3.450   6.943   8.304 -0.1996  1.1934  1.3225
  415MOL0     H55978   3.503   7.034   8.152  0.9054  0.7175  0.1948
  415MOL0     H55979   3.559   7.226   8.314 -0.6370 -0.9547 -2.4687
  415MOL0     H55980   3.550   7.096   8.438 -0.3806 -3.5387 -0.6809
  415MOL0     H55981   3.770   7.127   8.378  1.3391 -0.0653 -1.2956
  415MOL0     H55982   3.746   7.132   8.202  0.9638 -2.2615 -0.8179
  415MOL0     H55983   3.685   6.877   8.246 -2.5760  1.2776  1.1557
  415MOL0     H55984   3.746   6.896   8.405  1.8377  0.1542  0.2793
  415MOL0     H55985   3.975   6.695   8.188  0.1495 -0.2694  0.1573
  415MOL0     H55986   4.099   6.557   8.299  2.2373  0.2545 -0.3012
  415MOL0     H55987   4.340   6.277   8.546  1.0413  0.8518  0.6716
  415MOL0     H55988   4.350   6.093   8.722 -0.0571 -0.2143 -0.0255
  415MOL0     H55989   4.159   5.974   9.064  0.2646 -1.1928 -1.0021
  415MOL0     H55990   4.070   6.119   9.011 -2.6120 -0.1778 -0.3648
  415MOL0     H55991   3.900   5.972   8.906  0.5080 -0.0257 -0.1543
  415MOL0     H55992   3.987   5.841   8.971 -1.8910 -0.0239 -3.7803
  415MOL0     H55993   3.946   5.908   9.206  0.3365  2.2445  1.1553
  415MOL0     H55994   3.861   6.054   9.160 -0.4724  0.6981 -0.7297
  415MOL0     H55995   3.779   5.776   9.093 -1.9411  0.9396 -2.3860
  415MOL0     H55996   3.674   5.919   9.041 -1.7199  0.5972  1.1045
  415MOL0     H55997   3.633   5.972   9.255 -3.3781 -0.4093 -1.9499
  415MOL0     H55998   3.738   5.834   9.316 -0.7748  0.3585  0.2014
  415MOL0     H55999   3.499   5.836   9.128  1.8475  1.1635 -1.8397
  415MOL0     H56000   3.572   5.687   9.208  1.2960  1.3552 -2.0805
  415MOL0     H56001   3.457   5.904   9.393  1.1869 -0.6672  0.2370
  415MOL0     H56002   3.493   5.724   9.407  0.2136  0.7198  0.6554
  415MOL0     H56003   3.274   5.687   9.289  1.2935 -0.4159 -0.6044
  415MOL0     H56004   3.271   5.789   9.426  0.1195  2.6234 -0.7132
  415MOL0     H56005   3.923   6.164   8.792 -1.6679 -0.9817 -3.9323
  415MOL0     H56006   3.926   6.330   8.637 -1.4241 -1.7868 -0.4440
  415MOL0     H56007   4.092   6.808   8.658 -0.5606  0.4175  0.0318
  415MOL0     H56008   3.956   6.982   8.502  1.0217  0.8745 -2.7567
  415MOL0     H56009   2.133   7.439   8.804 -1.6248  1.9494  0.0112
  415MOL0     H56010   1.916   7.508   8.678  1.5753  0.2909 -0.7444
  415MOL0     H56011   1.703   7.365   8.345 -0.4401  0.4191 -2.2812
  415MOL0     H56012   1.591   7.413   8.146  0.4991  2.7612 -1.8904
  415MOL0     H56013   1.432   7.456   7.992 -2.2671  0.1819  0.4517
  415MOL0     H56014   1.543   7.598   7.985  0.3957 -1.0303  1.7593
  415MOL0     H56015   1.242   7.615   7.930 -1.4685  3.2469 -2.1341
  415MOL0     H56016   1.345   7.556   7.798  0.7666  0.8204 -0.3545
  415MOL0     H56017   1.348   7.783   7.748 -1.5948  1.2514  1.2499
  415MOL0     H56018   1.468   7.793   7.882  0.9818  1.2301 -1.3947
  415MOL0     H56019   1.308   7.868   8.028  1.5507 -0.1490 -0.0462
  415MOL0     H56020   1.294   7.977   7.888 -1.5007  2.2578  2.5263
  415MOL0     H56021   0.902   7.853   7.885 -0.0422  0.4541  3.5742
  415MOL0     H56022   1.349   7.701   8.340  0.3329  0.7732  0.0638
  415MOL0     H56023   1.375   7.762   8.567  1.1211  0.5878  1.1673
  415MOL0     H56024   1.403   7.629   8.671 -0.5924 -0.6216 -0.6884
  415MOL0     H56025   1.545   7.739   8.619  1.1930 -2.3121  0.8707
  416MOL0     O56026  10.880  10.739  10.615  0.6335 -0.7373  0.3353
  416MOL0     C56027  10.867  10.852  10.652  0.4799 -0.0548 -0.2023
  416MOL0     O56028  10.976  10.934  10.695 -0.6400 -0.2007  0.4369
  416MOL0     C56029  11.106  10.922  10.644  0.0229  0.6923 -0.5694
  416MOL0     C56030  11.143  10.852  10.532 -0.2509 -0.7506  0.8312
  416MOL0     C56031  11.273  10.860  10.479 -0.3665  0.6193  0.0660
  416MOL0     C56032  11.377  10.923  10.542 -0.5517 -1.2682 -0.5659
  416MOL0     O56033  11.509  10.912  10.517  0.7768  0.1125  0.5544
  416MOL0     C56034  11.548  10.841  10.397 -0.7192  0.4447  0.5368
  416MOL0     C56035  11.699  10.852  10.366  0.4122 -0.0237  1.1716
  416MOL0     C56036  11.792  10.819  10.482 -0.7703 -0.4538 -0.0637
  416MOL0     C56037  11.921  10.898  10.464  0.1111  0.1837 -1.3815
  416MOL0     C56038  12.016  10.882  10.585  0.1714  0.8676  1.0552
  416MOL0     C56039  12.153  10.970  10.567  0.2131  0.4092  0.4458
  416MOL0     C56040  12.231  10.984  10.700 -0.2031  0.6769 -0.0574
  416MOL0     C56041  12.341  11.095  10.704  0.7627  1.2621 -0.3756
  416MOL0     N56042  12.443  11.100  10.597  0.2707 -0.2391  0.5670
  416MOL0     C56043  12.513  11.215  10.541  0.4680  0.7658  0.3440
  416MOL0     C56044  12.576  11.163  10.434 -0.8325 -0.3216  0.0709
  416MOL0     C56045  12.659  11.242  10.336 -0.0572  0.5990  0.0981
  416MOL0     C56046  12.790  11.298  10.390 -0.8165 -0.6181  0.5143
  416MOL0     C56047  12.868  11.370  10.281 -0.2325  0.1232 -0.2540
  416MOL0     C56048  12.994  11.436  10.337 -0.7247  0.2228  0.1828
  416MOL0     O56049  13.090  11.332  10.355 -0.4100  0.2119  0.7174
  416MOL0     C56050  13.224  11.378  10.376 -0.1106  0.3139 -0.0327
  416MOL0     C56051  13.249  11.485  10.465 -0.4687  0.6427  0.3917
  416MOL0     C56052  13.380  11.528  10.490  0.8559  0.4133 -0.0664
  416MOL0     C56053  13.489  11.447  10.448  0.0846 -0.2268  0.4864
  416MOL0     C56054  13.620  11.475  10.488  0.0409 -0.5988 -0.0419
  416MOL0     O56055  13.727  11.386  10.476  0.0050  0.5294  0.3807
  416MOL0     C56056  13.854  11.436  10.506  0.3469 -0.7624 -0.5689
  416MOL0     C56057  13.900  11.509  10.626 -0.4607  0.2640  0.6093
  416MOL0     C56058  14.027  11.556  10.637 -0.3610 -0.1857  1.0053
  416MOL0     C56059  14.129  11.533  10.543 -0.5302 -0.7130  0.7247
  416MOL0     O56060  14.259  11.556  10.581  0.1322 -0.2432 -0.0152
  416MOL0     C56061  14.356  11.452  10.541  0.1809  0.3587  0.0254
  416MOL0     C56062  14.498  11.503  10.523  0.0178 -0.4941 -0.5224
  416MOL0     C56063  14.560  11.486  10.658 -0.1165 -0.2376 -0.2666
  416MOL0     C56064  14.658  11.600  10.695 -0.1639 -0.1342 -0.3581
  416MOL0     C56065  14.756  11.559  10.802 -0.6634  0.0100 -0.5344
  416MOL0     C56066  14.845  11.663  10.853  0.8278  0.5112 -1.1526
  416MOL0     C56067  14.960  11.605  10.930 -0.1658  0.1435  0.0379
  416MOL0     C56068  15.068  11.700  10.962  0.3075  0.3102  0.8573
  416MOL0    Cl56069  15.201  11.615  11.042 -0.0360 -0.1301 -0.4644
  416MOL0     C56070  14.089  11.454  10.430  0.5260 -0.6883  0.5891
  416MOL0     C56071  13.955  11.415  10.405 -0.6826  0.0780  0.6284
  416MOL0     O56072  13.627  11.587  10.543 -0.7231  0.0492 -0.0490
  416MOL0     C56073  13.466  11.342  10.362 -0.1839 -0.4307  0.0589
  416MOL0     C56074  13.339  11.310  10.322  0.2574  0.9100 -0.2950
  416MOL0     N56075  12.551  11.029  10.429 -0.5535 -0.0639  0.4623
  416MOL0     N56076  12.462  10.991  10.519 -0.3722 -0.2096  0.2415
  416MOL0     C56077  11.345  10.986  10.666  0.1834 -0.0655 -0.5528
  416MOL0     C56078  11.208  10.991  10.712 -0.2854  0.1036  0.3626
  416MOL0     C56079  10.734  10.907  10.684  0.3553  0.3487  0.0899
  416MOL0     C56080  10.701  11.039  10.645  0.0222  0.0853  0.4235
  416MOL0     C56081  10.581  11.100  10.692 -0.1370 -0.8701 -0.0784
  416MOL0     C56082  10.492  11.032  10.774 -0.4696  0.2662 -0.0325
  416MOL0     O56083  10.386  11.095  10.831 -0.0966 -0.1347 -0.5403
  416MOL0     C56084  10.349  11.046  10.972 -0.1050 -0.7207  0.1624
  416MOL0     C56085  10.218  11.127  11.016  0.3710  0.1127  0.0606
  416MOL0     C56086  10.204  11.127  11.162  0.0809  0.1122 -0.2808
  416MOL0     C56087  10.094  11.225  11.217  0.0323 -0.3725 -0.7674
  416MOL0     C56088   9.959  11.184  11.167 -0.2431  0.4625 -0.1518
  416MOL0     C56089   9.852  11.169  11.129 -0.5879 -0.1215 -0.7052
  416MOL0     C56090  10.523  10.891  10.795  0.4256 -0.7438 -0.5009
  416MOL0     C56091  10.637  10.825  10.748  0.0211 -0.4168 -0.0984
  416MOL0     C56092  10.657  10.683  10.791  0.3739  0.4147  0.6676
  416MOL0     H56093  11.061  10.802  10.481 -0.7189 -0.7450  1.5588
  416MOL0     H56094  11.294  10.791  10.398  4.8786  0.3251  1.3241
  416MOL0     H56095  11.529  10.734  10.407 -1.2740  0.4993  0.0795
  416MOL0     H56096  11.486  10.875  10.314  1.8208  3.8574 -0.1607
  416MOL0     H56097  11.730  10.950  10.327 -0.6167  0.4046  1.4030
  416MOL0     H56098  11.718  10.772  10.294 -1.1612  0.3388  0.3135
  416MOL0     H56099  11.819  10.713  10.472  0.1058 -0.6098  2.8776
  416MOL0     H56100  11.741  10.845  10.575 -0.8675 -3.9468  1.0026
  416MOL0     H56101  11.964  10.869  10.368  0.5078  0.0728 -1.1748
  416MOL0     H56102  11.903  11.005  10.453  1.6332  0.4869 -1.0934
  416MOL0     H56103  11.976  10.921  10.679  2.5563  0.5348  2.2762
  416MOL0     H56104  12.044  10.778  10.604  0.5854  1.3814  3.6243
  416MOL0     H56105  12.219  10.935  10.487 -0.5152 -1.5417  0.6275
  416MOL0     H56106  12.128  11.075  10.548 -0.0005  0.9982  3.4588
  416MOL0     H56107  12.288  10.891  10.711 -0.4521  0.4111 -0.8978
  416MOL0     H56108  12.159  11.010  10.779  1.8433  3.9931  0.9109
  416MOL0     H56109  12.289  11.190  10.720 -0.5077  0.4549  0.4510
  416MOL0     H56110  12.397  11.082  10.797  1.2714 -1.7251 -0.9954
  416MOL0     H56111  12.508  11.317  10.577  2.2160  0.7325  0.8017
  416MOL0     H56112  12.693  11.181  10.252  1.9615  0.1580  1.1707
  416MOL0     H56113  12.602  11.323  10.289  0.6811  0.2715 -1.4152
  416MOL0     H56114  12.766  11.367  10.471  1.1691  0.8748 -0.0841
  416MOL0     H56115  12.856  11.225  10.438 -0.1286  2.4509  4.7862
  416MOL0     H56116  12.811  11.458  10.249  0.6831  1.7635  2.3236
  416MOL0     H56117  12.879  11.308  10.192 -2.4982 -0.5069 -0.1625
  416MOL0     H56118  12.977  11.481  10.435  0.2970 -0.0716  0.4971
  416MOL0     H56119  13.039  11.509  10.268  0.1343  0.0749  0.5806
  416MOL0     H56120  13.163  11.538  10.505  0.3083  2.0883  0.2215
  416MOL0     H56121  13.402  11.615  10.553 -0.4454  0.4266  0.4091
  416MOL0     H56122  13.826  11.525  10.704 -0.8326  0.6366  0.1873
  416MOL0     H56123  14.039  11.599  10.735  0.8632  0.8448  0.4383
  416MOL0     H56124  14.354  11.360  10.600 -0.8322 -0.5477 -1.3666
  416MOL0     H56125  14.340  11.422  10.437 -1.7794 -0.4692  0.5191
  416MOL0     H56126  14.546  11.449  10.441  0.6649 -1.0524  0.2203
  416MOL0     H56127  14.495  11.608  10.489  0.3172 -0.6290 -0.9678
  416MOL0     H56128  14.485  11.491  10.737 -1.4320 -1.5631 -1.3801
  416MOL0     H56129  14.608  11.388  10.661 -1.4627 -0.8993  2.1209
  416MOL0     H56130  14.601  11.690  10.720  0.4977  0.4589 -0.9492
  416MOL0     H56131  14.724  11.629  10.612  0.2401  0.1136  0.0486
  416MOL0     H56132  14.809  11.469  10.773 -1.7355 -0.9086  0.2789
  416MOL0     H56133  14.691  11.542  10.888  0.9282  0.9104  0.9068
  416MOL0     H56134  14.891  11.716  10.769  0.4478 -1.8522 -2.9573
  416MOL0     H56135  14.784  11.726  10.917  2.2614 -0.1773  1.0151
  416MOL0     H56136  15.010  11.531  10.866 -0.7611 -0.6517  0.4724
  416MOL0     H56137  14.930  11.551  11.020  3.9247 -1.9294  0.4372
  416MOL0     H56138  15.113  11.756  10.880  0.7496 -1.3104 -0.0434
  416MOL0     H56139  15.021  11.773  11.029  0.7465  1.4913 -0.0943
  416MOL0     H56140  14.148  11.420  10.346 -2.4593 -1.3834 -1.3840
  416MOL0     H56141  13.924  11.344  10.329 -0.0495  0.2449  0.2153
  416MOL0     H56142  13.552  11.280  10.339 -0.6008 -1.2560  0.6773
  416MOL0     H56143  13.323  11.236  10.244 -1.4544  0.6167  0.2931
  416MOL0     H56144  11.426  11.036  10.718  0.6695 -1.5540  0.1557
  416MOL0     H56145  11.198  11.049  10.803 -2.9829 -0.0963  0.2613
  416MOL0     H56146  10.768  11.098  10.582  0.4141  1.8337  2.3755
  416MOL0     H56147  10.567  11.201  10.656  1.4975 -0.5424  0.1631
  416MOL0     H56148  10.430  11.058  11.045 -1.3172  1.0908  1.2960
  416MOL0     H56149  10.318  10.942  10.960 -3.0718  0.3871 -3.4252
  416MOL0     H56150  10.135  11.073  10.970 -0.7053  2.7253 -1.2603
  416MOL0     H56151  10.222  11.229  10.975  0.1354  0.5187  1.0149
  416MOL0     H56152  10.297  11.165  11.205 -0.2100  0.5984 -0.0709
  416MOL0     H56153  10.177  11.029  11.203 -2.1297  0.8991  0.3211
  416MOL0     H56154  10.073  11.215  11.324 -2.1749  0.4848 -1.0649
  416MOL0     H56155  10.121  11.328  11.192  0.1181  0.6112  2.8906
  416MOL0     H56156   9.750  11.150  11.104  0.0462 -3.8009 -1.1368
  416MOL0     H56157  10.453  10.833  10.854  0.3859  1.2864  1.6057
  416MOL0     H56158  10.561  10.643  10.824 -0.8711  1.5887 -1.3185
  416MOL0     H56159  10.701  10.614  10.718 -0.0445 -0.1672  0.9579
  416MOL0     H56160  10.720  10.689  10.881  2.5238 -4.2657 -0.2241
  417MOL0     O56161   7.947  11.347   3.607  0.2964  0.0926  0.2265
  417MOL0     C56162   7.920  11.237   3.660 -0.4014 -0.2308  0.0797
  417MOL0     O56163   8.000  11.161   3.743  0.3319  0.1448  0.2754
  417MOL0     C56164   8.104  11.224   3.808 -0.4161 -0.8274 -0.7565
  417MOL0     C56165   8.235  11.207   3.753 -0.3594 -0.2145 -0.2166
  417MOL0     C56166   8.349  11.265   3.813  0.4121 -0.3735 -0.2832
  417MOL0     C56167   8.336  11.337   3.932  0.5999  0.7022  1.1554
  417MOL0     O56168   8.444  11.392   3.997 -0.1799  0.8952  1.2225
  417MOL0     C56169   8.564  11.422   3.929 -0.5018 -0.1645  0.4931
  417MOL0     C56170   8.669  11.467   4.030  0.4798  0.0171 -0.3731
  417MOL0     C56171   8.799  11.529   3.975 -0.6227  0.4515 -0.4514
  417MOL0     C56172   8.917  11.477   4.069 -0.3854 -0.0162  0.3759
  417MOL0     C56173   8.912  11.545   4.207 -0.0882 -0.5954 -0.8342
  417MOL0     C56174   9.030  11.501   4.286 -0.4606 -0.2492 -0.8485
  417MOL0     C56175   9.009  11.566   4.433 -0.3759 -0.0891 -0.5254
  417MOL0     C56176   9.106  11.521   4.548  0.1783 -0.0130 -0.0948
  417MOL0     N56177   9.246  11.570   4.527  0.0591 -0.5885 -0.2897
  417MOL0     C56178   9.297  11.695   4.555  0.4379  0.4535 -1.2972
  417MOL0     C56179   9.426  11.690   4.505  0.0617 -0.0863 -0.6295
  417MOL0     C56180   9.542  11.781   4.517 -0.0439  0.0491  0.0325
  417MOL0     C56181   9.562  11.841   4.664  0.7003 -0.2340 -0.1607
  417MOL0     C56182   9.661  11.968   4.675 -0.6586  0.1695  0.5562
  417MOL0     C56183   9.795  11.968   4.589 -0.0606 -0.9040  0.3324
  417MOL0     O56184   9.859  11.839   4.580 -0.1120  0.4040  0.3966
  417MOL0     C56185   9.998  11.822   4.567  0.0386 -0.2720  0.4262
  417MOL0     C56186  10.052  11.693   4.575 -0.7931  0.6438 -0.2269
  417MOL0     C56187  10.185  11.661   4.541 -0.4433 -0.6255 -0.6559
  417MOL0     C56188  10.265  11.768   4.497 -0.5045 -0.7957  0.1237
  417MOL0     C56189  10.407  11.744   4.455 -0.0052  0.8076  0.6751
  417MOL0     O56190  10.485  11.848   4.418 -0.3892 -0.6950  0.6610
  417MOL0     C56191  10.617  11.843   4.364 -0.0685  0.3109  0.0893
  417MOL0     C56192  10.722  11.760   4.422  0.3148  0.3168 -0.1221
  417MOL0     C56193  10.848  11.767   4.368  0.6424  0.1887  0.4916
  417MOL0     C56194  10.882  11.865   4.270 -0.2143 -0.8788  0.4496
  417MOL0     O56195  11.013  11.870   4.220 -0.6171  0.4139  0.2346
  417MOL0     C56196  11.128  11.848   4.306  0.7814 -0.4917 -0.1931
  417MOL0     C56197  11.245  11.887   4.214 -0.4016  1.1509 -1.0862
  417MOL0     C56198  11.372  11.818   4.256  0.2441 -1.1373 -1.1659
  417MOL0     C56199  11.474  11.844   4.149 -0.9592 -0.1090  0.2313
  417MOL0     C56200  11.612  11.787   4.176  0.2175 -0.7246 -0.0245
  417MOL0     C56201  11.668  11.842   4.313 -0.1893  0.3879 -0.7569
  417MOL0     C56202  11.818  11.813   4.318 -0.5762 -0.2183  0.7220
  417MOL0     C56203  11.909  11.892   4.422  0.1424 -1.2580 -0.3957
  417MOL0    Cl56204  12.080  11.905   4.374  0.0031 -0.0127 -0.0022
  417MOL0     C56205  10.785  11.947   4.215  0.2073  0.1740  0.4271
  417MOL0     C56206  10.655  11.937   4.261  0.6963 -0.2369 -0.4400
  417MOL0     O56207  10.445  11.626   4.453 -0.1071  0.2625 -0.2483
  417MOL0     C56208  10.216  11.903   4.504  0.0586 -0.8175 -0.8175
  417MOL0     C56209  10.086  11.930   4.534 -0.9948 -0.0765 -0.5250
  417MOL0     N56210   9.451  11.566   4.451 -0.1027 -0.0679 -0.4708
  417MOL0     N56211   9.339  11.499   4.464 -0.4241 -0.5940  0.8586
  417MOL0     C56212   8.210  11.350   3.992 -0.7777 -0.2940  0.3846
  417MOL0     C56213   8.101  11.295   3.930  0.0675 -1.5993 -0.6632
  417MOL0     C56214   7.784  11.188   3.654  0.0718 -0.4438 -0.1741
  417MOL0     C56215   7.706  11.187   3.764  0.2308 -0.5790  0.4570
  417MOL0     C56216   7.570  11.138   3.757 -0.7925  0.2044 -0.0107
  417MOL0     C56217   7.516  11.103   3.638 -0.0047  0.0068  0.8019
  417MOL0     O56218   7.392  11.062   3.643  0.5887  0.1377 -0.0208
  417MOL0     C56219   7.308  11.146   3.553 -0.2535  0.3153 -0.7925
  417MOL0     C56220   7.159  11.154   3.601  0.3438  0.5161  0.6721
  417MOL0     C56221   7.079  11.026   3.583 -0.0988  1.2927 -0.9748
  417MOL0     C56222   7.046  10.994   3.433 -0.7108 -0.0174 -1.1258
  417MOL0     C56223   6.975  10.874   3.420  0.1316  0.6189  0.1834
  417MOL0     C56224   6.918  10.762   3.389 -0.8802  0.2511 -0.5584
  417MOL0     C56225   7.598  11.115   3.520  0.2230  0.4004  0.2622
  417MOL0     C56226   7.739  11.134   3.533  0.2788  0.3140  0.2034
  417MOL0     C56227   7.823  11.124   3.402  0.4024  0.2979 -0.7386
  417MOL0     H56228   8.243  11.147   3.663 -0.3995 -1.5912  0.6702
  417MOL0     H56229   8.446  11.235   3.775  0.1860 -0.4248 -0.8310
  417MOL0     H56230   8.610  11.332   3.885 -0.3322  0.0690  0.1835
  417MOL0     H56231   8.551  11.496   3.849  1.3505 -1.6049 -1.2622
  417MOL0     H56232   8.688  11.380   4.093 -0.1860  1.4532  1.9377
  417MOL0     H56233   8.625  11.538   4.100  0.8308  3.0170 -2.9763
  417MOL0     H56234   8.797  11.639   3.974 -1.9199  0.4351 -1.8530
  417MOL0     H56235   8.816  11.493   3.874 -3.9553  1.0780 -1.3457
  417MOL0     H56236   8.913  11.369   4.080 -0.0877 -0.1414 -0.6153
  417MOL0     H56237   9.008  11.508   4.015 -1.4027  1.6808 -0.4617
  417MOL0     H56238   8.916  11.654   4.197  1.1088 -0.3983  1.2677
  417MOL0     H56239   8.821  11.513   4.259 -1.4617 -0.5986 -3.0984
  417MOL0     H56240   9.029  11.392   4.292 -1.3796 -0.2400 -0.7374
  417MOL0     H56241   9.121  11.545   4.244  0.1983 -1.0521 -0.3034
  417MOL0     H56242   8.905  11.569   4.466  0.2320 -0.8918  1.6725
  417MOL0     H56243   9.025  11.674   4.419  0.0887 -0.2997 -1.6939
  417MOL0     H56244   9.064  11.562   4.641  0.9488 -0.3578  0.4134
  417MOL0     H56245   9.104  11.412   4.546  1.3139 -0.1856 -5.4031
  417MOL0     H56246   9.261  11.777   4.615  2.6395 -0.3634  1.3397
  417MOL0     H56247   9.629  11.720   4.494  1.3120  1.1887  1.8702
  417MOL0     H56248   9.529  11.861   4.443  2.2410  0.5541  0.1053
  417MOL0     H56249   9.463  11.873   4.700  0.3296 -1.0032 -0.4595
  417MOL0     H56250   9.604  11.755   4.717  1.6832  0.1791 -0.2482
  417MOL0     H56251   9.691  11.970   4.780 -0.9969  1.5177  0.6568
  417MOL0     H56252   9.603  12.061   4.668 -1.9894 -0.7510 -3.6675
  417MOL0     H56253   9.858  12.044   4.636 -0.8572 -1.4736  2.4134
  417MOL0     H56254   9.775  12.008   4.489 -0.1990 -1.0844  0.2874
  417MOL0     H56255   9.980  11.613   4.592  1.2505 -1.1591  0.3026
  417MOL0     H56256  10.211  11.556   4.543 -0.0393 -0.5819  3.2290
  417MOL0     H56257  10.684  11.685   4.491 -1.3127 -1.5431 -2.8274
  417MOL0     H56258  10.915  11.689   4.402 -0.1424 -0.2837  0.9851
  417MOL0     H56259  11.119  11.916   4.391  0.1532  3.2902 -3.0367
  417MOL0     H56260  11.131  11.740   4.324 -3.4545 -0.5772  1.0339
  417MOL0     H56261  11.221  11.845   4.116  4.3487 -0.4416 -1.8092
  417MOL0     H56262  11.259  11.994   4.204  2.2867  1.1268  1.1818
  417MOL0     H56263  11.396  11.852   4.357 -2.0735 -1.8737 -0.2868
  417MOL0     H56264  11.351  11.710   4.252 -2.4524 -0.7705  0.5781
  417MOL0     H56265  11.477  11.950   4.124  1.1694 -0.2471 -0.3507
  417MOL0     H56266  11.440  11.796   4.057  1.0732 -3.3972  1.0149
  417MOL0     H56267  11.673  11.829   4.096 -1.4848  0.0296 -0.9838
  417MOL0     H56268  11.611  11.679   4.157 -0.7926 -0.1771 -3.9320
  417MOL0     H56269  11.646  11.947   4.336 -2.7786 -0.4798  1.1688
  417MOL0     H56270  11.613  11.783   4.386  0.6583  1.8949  1.1725
  417MOL0     H56271  11.858  11.851   4.224 -1.9336 -1.1135 -0.2645
  417MOL0     H56272  11.831  11.704   4.318  1.1591 -0.1613 -2.9871
  417MOL0     H56273  11.884  11.998   4.425  1.5466 -0.9188  2.0527
  417MOL0     H56274  11.895  11.856   4.525 -3.1982  0.1789 -0.2039
  417MOL0     H56275  10.813  12.016   4.136 -1.1310  0.9727  0.6104
  417MOL0     H56276  10.571  11.998   4.229 -0.0162 -0.8108  0.2907
  417MOL0     H56277  10.284  11.979   4.465 -0.1445 -1.0848 -1.7203
  417MOL0     H56278  10.047  12.031   4.531  2.8108  1.5658 -1.0413
  417MOL0     H56279   8.198  11.414   4.078 -1.1995  0.7891 -0.4523
  417MOL0     H56280   8.002  11.308   3.974  0.8033  0.6357  0.4650
  417MOL0     H56281   7.748  11.224   3.857 -1.8557  1.5804  0.6206
  417MOL0     H56282   7.513  11.131   3.849 -0.2628 -0.1613  0.2961
  417MOL0     H56283   7.312  11.106   3.451 -0.2770 -0.0913 -0.6362
  417MOL0     H56284   7.348  11.247   3.559 -2.1724  1.0165  2.3104
  417MOL0     H56285   7.110  11.239   3.553 -1.7368  0.8449  3.1606
  417MOL0     H56286   7.165  11.189   3.705  1.5925  2.5320 -0.0064
  417MOL0     H56287   6.986  11.042   3.639 -0.1631  1.9072 -1.2420
  417MOL0     H56288   7.129  10.934   3.614 -0.0379  1.1150 -1.5997
  417MOL0     H56289   6.985  11.072   3.386 -2.6431 -1.3095 -0.8503
  417MOL0     H56290   7.146  10.977   3.390  0.2306  0.0077  0.9496
  417MOL0     H56291   6.874  10.669   3.362 -1.4758 -0.5875  2.7983
  417MOL0     H56292   7.554  11.091   3.424 -0.0610  2.8828 -0.2865
  417MOL0     H56293   7.926  11.095   3.426  0.7321  0.5476 -1.8058
  417MOL0     H56294   7.780  11.042   3.343 -0.1852 -0.2501  0.4214
  417MOL0     H56295   7.812  11.219   3.350  2.6168  1.8080  1.3155
  418MOL0     O56296   1.988   6.432   9.171  0.1321 -0.4928  0.0565
  418MOL0     C56297   1.880   6.385   9.220  0.1079 -0.0713 -0.1693
  418MOL0     O56298   1.863   6.255   9.271  0.2724 -0.6184 -0.3609
  418MOL0     C56299   1.976   6.187   9.314  0.5441 -0.0839 -0.6456
  418MOL0     C56300   1.976   6.137   9.446 -1.0711 -0.0278  0.8326
  418MOL0     C56301   2.076   6.044   9.484  0.3165  0.4535  0.0938
  418MOL0     C56302   2.185   6.009   9.400  0.1944 -0.2040 -0.2544
  418MOL0     O56303   2.292   5.931   9.434  0.6351 -0.4141 -0.1663
  418MOL0     C56304   2.315   5.891   9.572 -0.4299 -0.1860  0.2480
  418MOL0     C56305   2.434   5.792   9.574  0.3612  0.6725  0.6813
  418MOL0     C56306   2.568   5.846   9.521 -0.0728 -0.5366 -0.4258
  418MOL0     C56307   2.618   5.967   9.593  1.0034  0.2755 -0.1092
  418MOL0     C56308   2.777   5.962   9.587 -0.4305  0.4311  0.7036
  418MOL0     C56309   2.827   5.887   9.705  0.1540 -0.3846 -0.5343
  418MOL0     C56310   2.978   5.856   9.709 -0.2923 -0.3991 -0.4866
  418MOL0     C56311   3.002   5.756   9.824 -0.6391  0.1898 -0.2490
  418MOL0     N56312   3.133   5.701   9.819 -0.1518  0.2056 -0.0021
  418MOL0     C56313   3.247   5.781   9.844  0.0403  0.1039 -0.5284
  418MOL0     C56314   3.351   5.696   9.818  0.1957 -0.3971 -0.3152
  418MOL0     C56315   3.492   5.734   9.832  0.0786  0.1544  0.1038
  418MOL0     C56316   3.574   5.649   9.728  0.3551  0.1820 -0.2649
  418MOL0     C56317   3.715   5.703   9.722  0.3416 -0.2666  1.2265
  418MOL0     C56318   3.741   5.835   9.647  0.3202 -0.6655 -0.6082
  418MOL0     O56319   3.868   5.829   9.591 -0.1817  0.9614  0.2261
  418MOL0     C56320   3.923   5.934   9.520  1.5156  0.4861  0.2630
  418MOL0     C56321   3.843   6.042   9.470 -0.0533  0.3249 -0.5249
  418MOL0     C56322   3.913   6.146   9.407  0.0500  0.5579  0.5831
  418MOL0     C56323   4.051   6.127   9.378  0.4219  0.4449  0.8062
  418MOL0     C56324   4.124   6.234   9.293 -0.4607  0.8409  0.3865
  418MOL0     O56325   4.265   6.215   9.280  0.2897  0.8021  0.2494
  418MOL0     C56326   4.328   6.316   9.201 -0.5739  0.4563  0.1589
  418MOL0     C56327   4.348   6.443   9.243 -0.1515 -0.1193  0.3848
  418MOL0     C56328   4.413   6.535   9.162 -0.0848 -0.2716 -0.2518
  418MOL0     C56329   4.472   6.504   9.036 -0.7443  0.6251 -0.2871
  418MOL0     O56330   4.526   6.608   8.969 -0.0354 -0.4791 -0.5032
  418MOL0     C56331   4.526   6.596   8.828 -1.6400  1.2894 -0.7902
  418MOL0     C56332   4.502   6.731   8.775  0.9467  0.5492  0.6185
  418MOL0     C56333   4.612   6.829   8.803 -0.5842  0.1838 -0.5470
  418MOL0     C56334   4.590   6.977   8.768  0.1298  0.8839  0.5503
  418MOL0     C56335   4.463   7.035   8.828  0.4769 -0.6665  0.4539
  418MOL0     C56336   4.461   7.038   8.986 -0.3511  0.6229  0.3848
  418MOL0     C56337   4.570   7.122   9.055  0.2992  0.0011  0.6039
  418MOL0     C56338   4.544   7.110   9.207  0.3406  0.4555  0.7904
  418MOL0    Cl56339   4.556   6.934   9.250  0.4208 -0.4161  0.2675
  418MOL0     C56340   4.454   6.370   9.002  0.2211 -0.7459  0.0866
  418MOL0     C56341   4.369   6.282   9.071 -0.2079  0.6192 -0.4378
  418MOL0     O56342   4.066   6.333   9.253  0.1474 -0.1617  0.2612
  418MOL0     C56343   4.119   6.012   9.412  0.0429  0.2107  0.0878
  418MOL0     C56344   4.052   5.920   9.489  0.0740  0.0968 -0.1330
  418MOL0     N56345   3.300   5.567   9.797  0.4325  0.2058  0.0502
  418MOL0     N56346   3.175   5.573   9.794 -0.7075 -0.1742 -0.7277
  418MOL0     C56347   2.182   6.059   9.275  0.2419 -0.3198  0.4850
  418MOL0     C56348   2.081   6.149   9.227 -0.5799 -0.0035 -0.4312
  418MOL0     C56349   1.761   6.473   9.214 -0.3046  0.2503  1.1164
  418MOL0     C56350   1.771   6.606   9.161 -0.4202  0.8299 -0.2064
  418MOL0     C56351   1.660   6.688   9.157 -0.2206 -0.1550  0.3046
  418MOL0     C56352   1.529   6.643   9.183 -0.0402 -0.1065  0.0429
  418MOL0     O56353   1.421   6.732   9.164  0.0658 -0.3239  0.0366
  418MOL0     C56354   1.305   6.718   9.249  0.3917  0.3050 -0.3367
  418MOL0     C56355   1.213   6.830   9.196 -0.3719  0.1594  0.3351
  418MOL0     C56356   1.080   6.845   9.273  0.6517 -0.5005 -0.3906
  418MOL0     C56357   0.958   6.776   9.204 -0.4814 -0.5385 -0.1417
  418MOL0     C56358   0.926   6.861   9.086  0.7377  0.1131 -0.0405
  418MOL0     C56359   0.904   6.921   8.980 -0.2130  0.5119  0.6079
  418MOL0     C56360   1.519   6.514   9.232  0.5543 -0.4667  0.5199
  418MOL0     C56361   1.627   6.437   9.256 -0.3314 -0.2862 -0.0081
  418MOL0     C56362   1.595   6.304   9.319 -0.3251  0.3052  0.4223
  418MOL0     H56363   1.893   6.171   9.508 -0.9745  1.5158  0.1774
  418MOL0     H56364   2.083   5.998   9.582  0.1947  1.6256  0.6715
  418MOL0     H56365   2.325   5.969   9.648  0.9124 -0.3976  0.3087
  418MOL0     H56366   2.227   5.834   9.606  0.0237  0.1976  2.1656
  418MOL0     H56367   2.409   5.713   9.503 -0.7413  0.9433  0.7413
  418MOL0     H56368   2.449   5.755   9.676  3.6935  0.2058  0.1199
  418MOL0     H56369   2.551   5.883   9.419 -7.3495  1.0658  0.8483
  418MOL0     H56370   2.644   5.768   9.517  2.2438  1.6059 -0.4893
  418MOL0     H56371   2.582   6.060   9.549  0.4568  1.8959  3.4372
  418MOL0     H56372   2.578   5.958   9.694 -0.2956  1.2370 -0.5154
  418MOL0     H56373   2.809   5.919   9.492 -2.9377  1.2852 -0.6252
  418MOL0     H56374   2.820   6.062   9.593 -1.5375  0.9827 -0.1488
  418MOL0     H56375   2.791   5.933   9.798  1.9525  0.4432 -0.2012
  418MOL0     H56376   2.767   5.796   9.693 -1.7877  0.9546 -1.5605
  418MOL0     H56377   3.032   5.945   9.744  0.2280 -1.6581  2.1221
  418MOL0     H56378   3.011   5.818   9.612 -0.4313 -1.3514 -0.1655
  418MOL0     H56379   2.981   5.811   9.915 -3.0013 -0.4750 -0.3051
  418MOL0     H56380   2.928   5.676   9.811 -0.8889  0.6001 -1.5852
  418MOL0     H56381   3.254   5.885   9.874  0.3857 -0.4391  1.3812
  418MOL0     H56382   3.509   5.840   9.807 -1.6311  0.6066  0.7277
  418MOL0     H56383   3.531   5.706   9.931 -1.8161 -1.6409  0.3956
  418MOL0     H56384   3.568   5.545   9.760 -0.1797  0.5663  0.9841
  418MOL0     H56385   3.537   5.661   9.626 -0.1512 -0.3551 -0.1480
  418MOL0     H56386   3.784   5.632   9.677  1.3434  1.0245  0.6513
  418MOL0     H56387   3.759   5.707   9.822 -0.8555 -0.3837  1.7753
  418MOL0     H56388   3.737   5.922   9.714  0.9072  0.2194 -1.6875
  418MOL0     H56389   3.661   5.860   9.577  0.9256  2.4086 -0.3598
  418MOL0     H56390   3.735   6.048   9.478  0.0059  0.6325  0.0835
  418MOL0     H56391   3.868   6.245   9.398 -4.1538 -1.1225  0.8154
  418MOL0     H56392   4.321   6.472   9.344  1.8277 -0.6002  1.0946
  418MOL0     H56393   4.412   6.638   9.195 -1.1928 -0.0825 -0.8175
  418MOL0     H56394   4.619   6.551   8.793 -2.5954  0.8169 -2.8761
  418MOL0     H56395   4.441   6.532   8.802 -0.5631 -0.8778  0.7434
  418MOL0     H56396   4.488   6.725   8.667  0.1045  3.0815  0.5070
  418MOL0     H56397   4.407   6.766   8.816  0.4878  0.3866 -0.2946
  418MOL0     H56398   4.620   6.824   8.912 -1.2492 -0.7707 -0.5251
  418MOL0     H56399   4.701   6.797   8.748  0.1320  2.9490 -1.1600
  418MOL0     H56400   4.587   6.985   8.659  1.1605 -2.2791  0.1844
  418MOL0     H56401   4.672   7.040   8.806  0.3462  1.3764 -0.6853
  418MOL0     H56402   4.374   6.991   8.783  1.3878  0.1922 -2.4064
  418MOL0     H56403   4.448   7.138   8.795 -0.9870 -0.0434  2.8069
  418MOL0     H56404   4.358   7.069   9.004 -1.2399 -0.4416 -2.2999
  418MOL0     H56405   4.466   6.935   9.023  2.7602  0.1763 -0.9466
  418MOL0     H56406   4.575   7.221   9.009 -0.1014 -0.9244 -1.5523
  418MOL0     H56407   4.674   7.089   9.051  0.8507  1.0152  3.9290
  418MOL0     H56408   4.614   7.174   9.260  0.8342  1.2429 -0.7458
  418MOL0     H56409   4.445   7.145   9.237  0.4411 -0.3112  2.1093
  418MOL0     H56410   4.481   6.347   8.900 -0.5834  1.5101 -0.6891
  418MOL0     H56411   4.344   6.180   9.043 -1.6320  0.3265  1.7272
  418MOL0     H56412   4.214   5.980   9.371 -1.6525 -4.5246 -0.8274
  418MOL0     H56413   4.103   5.827   9.514 -0.7591 -0.6020 -0.9837
  418MOL0     H56414   2.266   6.048   9.206 -0.3906  1.8133 -0.7448
  418MOL0     H56415   2.085   6.212   9.139 -0.1954  1.9144  0.8943
  418MOL0     H56416   1.864   6.650   9.126  0.4962 -0.3747  0.6453
  418MOL0     H56417   1.671   6.789   9.120  1.9422 -0.6751 -0.5894
  418MOL0     H56418   1.326   6.738   9.355 -1.8675 -1.6114  0.5640
  418MOL0     H56419   1.267   6.616   9.244  0.1378  0.1343  2.7909
  418MOL0     H56420   1.200   6.810   9.089  1.0684  0.8078  0.0170
  418MOL0     H56421   1.267   6.925   9.207  0.0740  0.0524 -0.7778
  418MOL0     H56422   1.052   6.950   9.286 -0.9274 -0.5598 -2.6846
  418MOL0     H56423   1.095   6.788   9.365 -0.2792 -2.0595 -1.1557
  418MOL0     H56424   0.987   6.674   9.175  0.1131  0.3924 -3.0773
  418MOL0     H56425   0.873   6.764   9.272 -0.9566  0.4665 -0.5420
  418MOL0     H56426   0.885   6.951   8.879  3.8879 -2.5967 -1.4273
  418MOL0     H56427   1.421   6.477   9.260 -0.1506  1.9525  1.5859
  418MOL0     H56428   1.490   6.294   9.347 -0.7823  2.7282 -0.1807
  418MOL0     H56429   1.614   6.215   9.258  0.1861  2.0583 -2.1443
  418MOL0     H56430   1.656   6.291   9.408 -1.1085  2.8158  1.4022
  419MOL0     O56431   6.151   3.732  10.014  0.0359  0.3729  0.1399
  419MOL0     C56432   6.107   3.666  10.112  0.2658 -0.5346 -0.1310
  419MOL0     O56433   6.171   3.664  10.236 -0.3135 -0.0851 -0.3896
  419MOL0     C56434   6.307   3.690  10.247 -0.3011  0.5296  0.7181
  419MOL0     C56435   6.379   3.600  10.329 -1.3265  0.1793  0.6629
  419MOL0     C56436   6.523   3.608  10.335  0.0119 -0.1413 -0.0340
  419MOL0     C56437   6.593   3.715  10.277 -0.0499 -0.1063  0.1725
  419MOL0     O56438   6.722   3.722  10.307  0.3898  0.1728  0.1735
  419MOL0     C56439   6.802   3.846  10.308  0.2747 -0.2773  0.1858
  419MOL0     C56440   6.860   3.894  10.178 -0.2434 -0.4758  0.4356
  419MOL0     C56441   6.974   3.993  10.203  1.6366  0.1415 -0.3739
  419MOL0     C56442   7.075   3.972  10.096  0.7032 -0.1888  0.2358
  419MOL0     C56443   7.181   4.074  10.126 -0.1231  0.4777 -0.0012
  419MOL0     C56444   7.290   4.071  10.013  0.6135 -0.6756 -0.1615
  419MOL0     C56445   7.382   4.189  10.023  0.0107  1.2229 -0.4296
  419MOL0     C56446   7.434   4.231   9.885 -0.9405  0.2986  0.3342
  419MOL0     N56447   7.511   4.353   9.905 -0.3396  0.1111  0.1018
  419MOL0     C56448   7.638   4.354   9.960  0.5622  0.5983 -0.7101
  419MOL0     C56449   7.677   4.479   9.964  0.4336 -0.5273 -0.4644
  419MOL0     C56450   7.806   4.520  10.021  0.2854  0.3092 -0.4508
  419MOL0     C56451   7.816   4.671  10.037 -0.6434  0.3960 -0.7438
  419MOL0     C56452   7.945   4.718  10.104 -0.2587 -0.9908  0.0562
  419MOL0     C56453   8.073   4.658  10.038  0.5811  0.2099  0.5676
  419MOL0     O56454   8.091   4.521  10.071  0.4331  1.3590  0.4181
  419MOL0     C56455   8.115   4.492  10.202 -0.4232  0.3932 -0.1794
  419MOL0     C56456   8.178   4.575  10.299 -0.2510  0.5640  0.2129
  419MOL0     C56457   8.177   4.539  10.436 -0.1860 -0.1846 -0.0092
  419MOL0     C56458   8.130   4.415  10.477 -0.7466 -0.4591  0.4726
  419MOL0     C56459   8.125   4.387  10.623  0.9603 -0.5535  0.1155
  419MOL0     O56460   8.175   4.490  10.700  0.7519  0.0182 -0.1925
  419MOL0     C56461   8.208   4.480  10.837  0.6774  0.0535  0.3866
  419MOL0     C56462   8.213   4.370  10.921  0.1071 -1.1568 -0.0745
  419MOL0     C56463   8.252   4.372  11.062  0.2128  0.1267  0.4094
  419MOL0     C56464   8.284   4.493  11.112  0.6056  0.5132 -0.7506
  419MOL0     O56465   8.334   4.494  11.244  0.3719 -0.1106  0.3166
  419MOL0     C56466   8.268   4.596  11.328  0.1496 -0.1428  0.5171
  419MOL0     C56467   8.131   4.548  11.388 -0.2099  0.3934  0.1290
  419MOL0     C56468   8.011   4.560  11.296 -0.0473 -0.0568 -0.3955
  419MOL0     C56469   7.949   4.696  11.250  1.3485 -0.5777  0.0132
  419MOL0     C56470   7.848   4.669  11.129  0.4491  0.2314 -0.5913
  419MOL0     C56471   7.897   4.620  10.988  0.8093 -0.3180 -0.4855
  419MOL0     C56472   7.798   4.629  10.869  0.3016  0.2695 -0.6053
  419MOL0     C56473   7.862   4.563  10.746 -0.6196  0.1405 -0.1168
  419MOL0    Cl56474   7.768   4.582  10.597 -0.0543  0.4287  0.5034
  419MOL0     C56475   8.289   4.614  11.030  1.6302 -0.2756  0.4414
  419MOL0     C56476   8.246   4.601  10.897  0.4089  0.0773 -0.2599
  419MOL0     O56477   8.086   4.273  10.665 -0.1955 -0.3065 -0.0995
  419MOL0     C56478   8.076   4.328  10.377  0.1381 -0.0373  0.1077
  419MOL0     C56479   8.066   4.367  10.245  0.3151  0.2816 -0.1031
  419MOL0     N56480   7.577   4.564   9.914 -0.0262 -0.4885 -0.2487
  419MOL0     N56481   7.477   4.484   9.891  0.8636  0.3393 -0.4291
  419MOL0     C56482   6.514   3.809  10.211 -0.2671  0.3491  0.0239
  419MOL0     C56483   6.377   3.796  10.193 -1.3757 -0.2192  0.1614
  419MOL0     C56484   5.973   3.596  10.104 -0.9036  0.7533 -0.7113
  419MOL0     C56485   5.921   3.557  10.229  0.5366 -0.2928  0.3332
  419MOL0     C56486   5.788   3.507  10.245 -0.1895 -1.2102  0.1395
  419MOL0     C56487   5.702   3.511  10.136 -0.5104  0.3089  0.1752
  419MOL0     O56488   5.580   3.466  10.170 -0.3373  0.4961 -1.1677
  419MOL0     C56489   5.483   3.454  10.070 -1.1299 -0.4794  0.1501
  419MOL0     C56490   5.433   3.602  10.047 -0.2562 -0.0107  0.5901
  419MOL0     C56491   5.330   3.610   9.936  0.1912  0.5427  0.8487
  419MOL0     C56492   5.190   3.631   9.989  0.4924 -0.2820  0.3623
  419MOL0     C56493   5.151   3.510  10.057  0.7752  0.1928 -0.1918
  419MOL0     C56494   5.108   3.406  10.115 -1.2489  0.0390  0.6249
  419MOL0     C56495   5.749   3.546  10.011 -0.9531  1.1092 -0.3402
  419MOL0     C56496   5.880   3.592   9.996  0.2133 -0.2542  0.3541
  419MOL0     C56497   5.908   3.659   9.865  0.5685 -0.6368  0.7314
  419MOL0     H56498   6.335   3.535  10.404  0.9330 -0.6849  1.3184
  419MOL0     H56499   6.573   3.525  10.385  2.7325  1.1508 -0.4253
  419MOL0     H56500   6.746   3.915  10.372  2.1124 -0.8861  2.6144
  419MOL0     H56501   6.882   3.831  10.381  1.2121  2.6558 -0.1096
  419MOL0     H56502   6.777   3.940  10.124 -0.1955  0.6465  1.2833
  419MOL0     H56503   6.887   3.814  10.109 -0.8496  1.6214 -2.4399
  419MOL0     H56504   7.020   3.983  10.302 -0.5685 -0.4540  0.6672
  419MOL0     H56505   6.922   4.090  10.204  1.1782 -0.0947  1.1142
  419MOL0     H56506   7.117   3.875  10.124 -0.0142  0.6844  5.2698
  419MOL0     H56507   7.032   3.977   9.995  0.1564  3.2078  0.5442
  419MOL0     H56508   7.130   4.171  10.129  0.5957  0.8808 -0.4679
  419MOL0     H56509   7.225   4.059  10.225  2.8673 -1.5280 -1.4677
  419MOL0     H56510   7.347   3.978  10.003  0.1547 -0.8662 -1.1973
  419MOL0     H56511   7.233   4.079   9.920 -0.2910  0.2014  0.4526
  419MOL0     H56512   7.462   4.160  10.092 -1.4716  0.9701  1.2408
  419MOL0     H56513   7.331   4.278  10.061  1.3348  2.2467 -0.9759
  419MOL0     H56514   7.490   4.152   9.836  0.1476 -0.1794  2.2545
  419MOL0     H56515   7.350   4.249   9.817  0.4364 -1.0953 -1.8381
  419MOL0     H56516   7.700   4.273   9.996 -1.0711  1.1652  4.0581
  419MOL0     H56517   7.817   4.472  10.118 -1.2522 -0.5730 -0.6757
  419MOL0     H56518   7.889   4.490   9.957  3.3611 -1.0647  3.7348
  419MOL0     H56519   7.816   4.731   9.946 -1.2231  2.1608  0.3516
  419MOL0     H56520   7.731   4.708  10.096 -0.1184 -0.9255  0.9327
  419MOL0     H56521   7.930   4.695  10.209 -4.8984 -0.4004 -0.2497
  419MOL0     H56522   7.964   4.825  10.092 -1.1965 -0.7121  0.9253
  419MOL0     H56523   8.163   4.714  10.066  0.5345  0.3358  0.4705
  419MOL0     H56524   8.072   4.662   9.928  2.4849 -1.8933  0.3922
  419MOL0     H56525   8.219   4.667  10.259  1.1962 -0.3491 -0.5112
  419MOL0     H56526   8.228   4.598  10.512 -0.0974 -2.1105  1.5096
  419MOL0     H56527   8.193   4.271  10.883 -1.6787 -0.3844 -1.3029
  419MOL0     H56528   8.271   4.281  11.117  1.5216  0.4045  0.4520
  419MOL0     H56529   8.338   4.624  11.407  0.3054 -2.2918  1.2070
  419MOL0     H56530   8.231   4.678  11.267 -2.1068 -3.5964 -3.3109
  419MOL0     H56531   8.154   4.444  11.411  1.5596  0.1619 -2.3631
  419MOL0     H56532   8.127   4.611  11.478  0.9142  0.6438  0.0250
  419MOL0     H56533   8.046   4.508  11.206 -0.2027  0.5412 -0.8078
  419MOL0     H56534   7.931   4.505  11.347  1.9431 -1.0009  1.9013
  419MOL0     H56535   8.030   4.759  11.211  1.0212  0.4421  0.9633
  419MOL0     H56536   7.900   4.749  11.331  0.5495 -0.1761 -0.7186
  419MOL0     H56537   7.798   4.764  11.109  0.1742 -0.5092 -4.2789
  419MOL0     H56538   7.777   4.594  11.165  3.0680 -0.9758  2.5379
  419MOL0     H56539   7.983   4.685  10.968  1.0800  0.2055  2.0607
  419MOL0     H56540   7.934   4.517  10.996 -1.0181 -1.0728 -1.2162
  419MOL0     H56541   7.787   4.737  10.854  0.8529  0.9453  2.9602
  419MOL0     H56542   7.705   4.576  10.893  2.2996 -3.1429  0.2711
  419MOL0     H56543   7.951   4.622  10.724 -1.0019  1.1927  1.1160
  419MOL0     H56544   7.897   4.459  10.756  1.3315  0.3593 -3.2434
  419MOL0     H56545   8.318   4.711  11.068  0.1140 -1.1008  4.0774
  419MOL0     H56546   8.227   4.691  10.839 -3.3771  0.5785  1.4413
  419MOL0     H56547   8.035   4.233  10.408 -2.3852  1.5340  2.0403
  419MOL0     H56548   8.010   4.306  10.175 -0.0305 -0.9342  1.1880
  419MOL0     H56549   6.565   3.898  10.178  0.1191  0.4658  0.8885
  419MOL0     H56550   6.336   3.871  10.125 -0.2240 -1.4803 -2.0590
  419MOL0     H56551   5.980   3.555  10.320  3.1991 -0.5150 -1.3033
  419MOL0     H56552   5.744   3.491  10.343  2.3063 -0.0043  1.5493
  419MOL0     H56553   5.396   3.401  10.111 -0.7572 -0.1940  1.3655
  419MOL0     H56554   5.525   3.409   9.980  2.4163  1.3233  0.7123
  419MOL0     H56555   5.515   3.672  10.029  0.0910 -0.9852 -2.1384
  419MOL0     H56556   5.390   3.646  10.137  3.5205  1.6340  1.8188
  419MOL0     H56557   5.334   3.517   9.879  0.8640 -0.0799  1.8845
  419MOL0     H56558   5.352   3.692   9.866  0.9084 -0.9252 -0.7144
  419MOL0     H56559   5.194   3.704  10.070  2.3733 -0.5185  0.5400
  419MOL0     H56560   5.124   3.660   9.907 -0.1302  1.3453  1.3974
  419MOL0     H56561   5.062   3.311  10.129 -1.4435  0.3824  2.6610
  419MOL0     H56562   5.683   3.543   9.925 -1.8710  1.1130  0.3502
  419MOL0     H56563   5.852   3.611   9.784 -0.3900  0.0282  0.9783
  419MOL0     H56564   5.887   3.766   9.873  2.2628 -0.2549  0.5203
  419MOL0     H56565   6.013   3.668   9.837  0.6274 -1.1135  0.7895
  420MOL0     O56566   0.530   7.668   4.830  0.6206  0.3663  0.5401
  420MOL0     C56567   0.461   7.640   4.729  0.3985  0.3158 -0.3617
  420MOL0     O56568   0.511   7.636   4.599 -0.4989  0.7058 -0.5457
  420MOL0     C56569   0.645   7.674   4.571  0.6790 -0.5040 -0.6478
  420MOL0     C56570   0.750   7.697   4.662 -0.1656  0.1645 -0.3700
  420MOL0     C56571   0.882   7.727   4.612 -1.0788 -0.5979  0.2366
  420MOL0     C56572   0.900   7.751   4.471 -0.3182 -0.4066 -0.3411
  420MOL0     O56573   1.017   7.782   4.410  0.2911  0.3671  0.1461
  420MOL0     C56574   1.126   7.831   4.478  0.3167  0.1761 -0.0656
  420MOL0     C56575   1.113   7.971   4.520 -1.0735 -1.2323 -0.2853
  420MOL0     C56576   1.242   8.039   4.570  0.3257  0.7154  0.1164
  420MOL0     C56577   1.313   8.093   4.442 -0.3292 -0.6034 -0.3590
  420MOL0     C56578   1.425   8.196   4.479 -0.4624  0.2958 -0.6377
  420MOL0     C56579   1.552   8.130   4.548 -0.2162  0.1405  0.0760
  420MOL0     C56580   1.647   8.235   4.605 -0.6265 -0.0549  0.0123
  420MOL0     C56581   1.720   8.328   4.502  1.3222  1.1359 -0.0043
  420MOL0     N56582   1.827   8.255   4.425  0.9955  1.4284 -0.2992
  420MOL0     C56583   1.800   8.196   4.302 -0.3341  0.3902  0.1193
  420MOL0     C56584   1.925   8.154   4.266 -0.8379  0.7766  0.7735
  420MOL0     C56585   1.968   8.110   4.125  0.5644 -0.1529 -0.3625
  420MOL0     C56586   2.068   7.995   4.122 -0.3094 -0.4465 -0.2580
  420MOL0     C56587   2.126   7.933   3.997  0.3753 -0.2610  0.4434
  420MOL0     C56588   2.271   7.890   4.020 -0.3677  0.8378  0.1678
  420MOL0     O56589   2.287   7.782   4.110 -0.1352  0.1023  0.4474
  420MOL0     C56590   2.397   7.711   4.121 -0.4091 -0.0946  0.3732
  420MOL0     C56591   2.407   7.603   4.206 -0.2925 -0.8960 -0.9182
  420MOL0     C56592   2.520   7.528   4.234 -0.4013  0.3783  0.1630
  420MOL0     C56593   2.643   7.568   4.170  0.7011  0.6678  0.3688
  420MOL0     C56594   2.768   7.491   4.174  0.6841 -0.1984  0.1215
  420MOL0     O56595   2.879   7.532   4.110  0.4597  0.6364  0.5597
  420MOL0     C56596   3.000   7.469   4.139  0.0498  0.0091  0.8148
  420MOL0     C56597   3.014   7.333   4.126  0.3971  0.4473  0.7908
  420MOL0     C56598   3.137   7.265   4.168  0.0409  0.1602  0.9841
  420MOL0     C56599   3.245   7.337   4.211  0.5207 -1.1438  0.3699
  420MOL0     O56600   3.359   7.283   4.255  0.1317 -0.1443 -0.4283
  420MOL0     C56601   3.482   7.318   4.189 -1.2225 -0.3275 -0.1565
  420MOL0     C56602   3.557   7.184   4.156  0.0528 -0.3699 -0.2690
  420MOL0     C56603   3.694   7.200   4.088 -0.8788  0.4906  0.5972
  420MOL0     C56604   3.771   7.316   4.151  0.8798 -0.1420  0.0313
  420MOL0     C56605   3.906   7.339   4.082  0.3569  0.1537  1.5506
  420MOL0     C56606   4.016   7.274   4.166  0.2404 -0.2874  0.2674
  420MOL0     C56607   4.155   7.319   4.120  0.8017 -0.5210 -0.3890
  420MOL0     C56608   4.272   7.284   4.212 -0.0638  0.4222  0.6935
  420MOL0    Cl56609   4.417   7.383   4.155  0.2859  0.6141  0.0103
  420MOL0     C56610   3.231   7.475   4.222  1.1237  0.3851  0.3499
  420MOL0     C56611   3.109   7.538   4.178  0.9536  0.8874  0.2817
  420MOL0     O56612   2.765   7.394   4.248  0.2040  0.9151 -0.5302
  420MOL0     C56613   2.636   7.675   4.081  0.5308  0.2327  0.2526
  420MOL0     C56614   2.516   7.750   4.060 -0.0144  0.0775  0.2206
  420MOL0     N56615   2.018   8.178   4.367  0.1431  0.2801  0.1760
  420MOL0     N56616   1.955   8.235   4.461  0.1586 -0.3638 -0.1463
  420MOL0     C56617   0.789   7.731   4.386 -0.6983 -0.9122  0.5540
  420MOL0     C56618   0.665   7.689   4.435  0.2493 -0.2437 -0.2044
  420MOL0     C56619   0.334   7.576   4.761 -0.1492  0.3454 -0.3893
  420MOL0     C56620   0.272   7.610   4.884 -0.5015  0.0117  0.7385
  420MOL0     C56621   0.149   7.562   4.920 -1.5593  0.0758  0.0686
  420MOL0     C56622   0.085   7.470   4.841 -0.1261 -0.1910 -0.0124
  420MOL0     O56623  -0.042   7.431   4.877  0.3828  0.0410  0.4246
  420MOL0     C56624  -0.087   7.307   4.820  0.1183  0.7852 -1.0875
  420MOL0     C56625  -0.176   7.233   4.917 -0.2381  0.7618  0.4934
  420MOL0     C56626  -0.098   7.167   5.026  0.2060 -0.3664 -0.0075
  420MOL0     C56627  -0.101   7.252   5.155  0.4070 -0.3363  0.4065
  420MOL0     C56628  -0.231   7.226   5.234 -0.1624  0.7268  0.3580
  420MOL0     C56629  -0.334   7.214   5.295  1.3168  0.2839 -0.8859
  420MOL0     C56630   0.140   7.439   4.712 -0.4241  0.8550 -0.4287
  420MOL0     C56631   0.268   7.490   4.667 -0.0797  0.0885  0.5758
  420MOL0     C56632   0.318   7.440   4.529 -0.1680  0.8060 -0.7177
  420MOL0     H56633   0.735   7.679   4.768 -0.4710 -3.0502 -0.8433
  420MOL0     H56634   0.958   7.730   4.690  0.4981 -0.5983 -1.2494
  420MOL0     H56635   1.147   7.772   4.568 -2.3538  0.4864  0.8397
  420MOL0     H56636   1.217   7.822   4.418  1.2025 -1.6940  1.4622
  420MOL0     H56637   1.043   7.972   4.604  1.8514 -1.6165  2.3386
  420MOL0     H56638   1.072   8.028   4.436 -2.5393 -0.3290  0.9948
  420MOL0     H56639   1.309   7.971   4.624 -0.6998  0.1465  0.7064
  420MOL0     H56640   1.221   8.124   4.636 -2.1002 -0.3519  0.8220
  420MOL0     H56641   1.352   8.004   4.392  0.0666  1.0725 -3.2808
  420MOL0     H56642   1.249   8.152   4.375 -1.6714 -0.2018  1.2237
  420MOL0     H56643   1.463   8.237   4.385  3.1000  2.4550  1.4830
  420MOL0     H56644   1.372   8.266   4.544 -3.3555  1.7505 -4.1870
  420MOL0     H56645   1.508   8.078   4.634 -2.2493  2.8164  0.7953
  420MOL0     H56646   1.593   8.054   4.481 -0.1673  1.2260 -1.1639
  420MOL0     H56647   1.731   8.192   4.660  0.8429  0.1658 -1.9507
  420MOL0     H56648   1.588   8.289   4.680 -0.6408 -1.0669  0.7515
  420MOL0     H56649   1.652   8.371   4.427  1.3403  2.0054  0.4642
  420MOL0     H56650   1.767   8.412   4.554  2.5277  1.9660 -2.2566
  420MOL0     H56651   1.709   8.190   4.244 -0.1586 -0.5619 -0.0727
  420MOL0     H56652   1.885   8.075   4.062 -1.3998  0.2564  1.8488
  420MOL0     H56653   2.003   8.200   4.073 -2.0088  1.0399 -0.2007
  420MOL0     H56654   2.149   8.036   4.184 -2.3950 -0.5057  2.7716
  420MOL0     H56655   2.014   7.911   4.168 -2.3950  0.4187 -1.0097
  420MOL0     H56656   2.131   8.001   3.911  0.0773  0.3898  0.9310
  420MOL0     H56657   2.060   7.858   3.954 -0.0945  0.8647 -0.8918
  420MOL0     H56658   2.331   7.973   4.059  0.5011 -0.0013  0.6622
  420MOL0     H56659   2.322   7.867   3.926  1.4588 -0.6311  1.4419
  420MOL0     H56660   2.313   7.584   4.258  1.3571 -2.5135  1.6713
  420MOL0     H56661   2.524   7.439   4.296 -0.1217 -1.8333 -2.8046
  420MOL0     H56662   2.931   7.265   4.107  1.7059 -1.4518  1.5214
  420MOL0     H56663   3.146   7.159   4.145 -0.3444  0.5198 -1.1052
  420MOL0     H56664   3.470   7.364   4.091 -2.6518 -2.2083 -0.9337
  420MOL0     H56665   3.544   7.371   4.261 -0.5214  0.7043 -1.5023
  420MOL0     H56666   3.572   7.130   4.250  2.0228  2.0496  0.9124
  420MOL0     H56667   3.495   7.120   4.093  0.2403 -0.8481  0.0273
  420MOL0     H56668   3.747   7.104   4.083 -0.5275  0.6964  0.2671
  420MOL0     H56669   3.681   7.230   3.983  1.1274  2.5496  0.8441
  420MOL0     H56670   3.783   7.307   4.259 -0.9604 -0.7213  0.2148
  420MOL0     H56671   3.716   7.410   4.142 -1.0121 -1.0293  1.5761
  420MOL0     H56672   3.915   7.445   4.059  0.3191 -0.2166 -0.3695
  420MOL0     H56673   3.901   7.283   3.988  3.1627  0.8117  0.9156
  420MOL0     H56674   4.008   7.301   4.272  3.0899  3.1316 -0.2129
  420MOL0     H56675   4.009   7.167   4.146 -0.4376  0.3098 -3.3724
  420MOL0     H56676   4.156   7.427   4.104  3.7427 -0.4487 -0.2363
  420MOL0     H56677   4.181   7.269   4.026  0.2103  2.3273 -2.1786
  420MOL0     H56678   4.248   7.309   4.316  1.1738 -0.8062  1.3041
  420MOL0     H56679   4.302   7.180   4.196  4.3979  1.8556 -2.0473
  420MOL0     H56680   3.314   7.527   4.268  0.1507  2.0337  0.2928
  420MOL0     H56681   3.099   7.645   4.195  2.5856  1.2535 -0.8218
  420MOL0     H56682   2.729   7.698   4.029  1.3852 -0.2034  1.5551
  420MOL0     H56683   2.532   7.832   3.990 -1.2042  0.6742  0.6177
  420MOL0     H56684   0.821   7.722   4.283  4.0046 -1.6296  1.8549
  420MOL0     H56685   0.587   7.660   4.364 -0.5277  1.0562  0.0793
  420MOL0     H56686   0.321   7.673   4.958 -2.8252  3.1325 -0.1702
  420MOL0     H56687   0.100   7.589   5.013  0.0007  0.3422  0.8340
  420MOL0     H56688  -0.007   7.245   4.777  1.9393  2.5961 -0.5034
  420MOL0     H56689  -0.147   7.333   4.733  1.7473 -0.0108 -2.5217
  420MOL0     H56690  -0.216   7.153   4.854 -0.4585  1.0417  0.2713
  420MOL0     H56691  -0.265   7.290   4.943 -1.3326 -1.3012  1.4916
  420MOL0     H56692   0.003   7.142   4.994 -0.2659 -1.1878 -0.9136
  420MOL0     H56693  -0.142   7.071   5.052 -1.6957  0.9424  2.0588
  420MOL0     H56694  -0.018   7.227   5.222 -1.0201 -3.3164  1.2510
  420MOL0     H56695  -0.083   7.358   5.135  0.7442 -0.0514  2.1148
  420MOL0     H56696  -0.412   7.204   5.368  0.2867  0.5220 -1.9248
  420MOL0     H56697   0.081   7.380   4.642 -2.8289  1.5686  0.8765
  420MOL0     H56698   0.425   7.422   4.546 -0.5299 -1.0759 -0.1487
  420MOL0     H56699   0.265   7.349   4.500 -1.0471  0.2065  2.3819
  420MOL0     H56700   0.297   7.520   4.459 -1.5520  1.1334  0.0405
  421MOL0     O56701   0.760  10.158   5.411  0.2055  0.5020 -0.2025
  421MOL0     C56702   0.656  10.092   5.406  1.1385  0.4320  0.2136
  421MOL0     O56703   0.551  10.105   5.492  0.3178 -0.0887  0.2782
  421MOL0     C56704   0.559  10.170   5.606 -0.5234  0.2531 -0.4321
  421MOL0     C56705   0.565  10.094   5.727 -0.3488 -0.1848  0.8297
  421MOL0     C56706   0.590  10.163   5.846  0.0554  0.5081 -0.1312
  421MOL0     C56707   0.618  10.300   5.846 -0.6370 -0.2253  0.6203
  421MOL0     O56708   0.635  10.358   5.972  0.2730 -0.0851  0.5787
  421MOL0     C56709   0.677  10.496   5.967  0.2244 -0.1011 -0.2992
  421MOL0     C56710   0.706  10.550   6.119  0.0614  0.4788  0.2176
  421MOL0     C56711   0.845  10.519   6.163 -1.0305  0.4321 -0.6496
  421MOL0     C56712   0.859  10.576   6.305 -0.1052  0.3922 -0.4239
  421MOL0     C56713   0.999  10.566   6.361 -0.4608 -1.0091  0.7673
  421MOL0     C56714   1.004  10.616   6.501  0.3476 -0.6199  0.8472
  421MOL0     C56715   1.137  10.595   6.577  0.1831  0.2157  0.1083
  421MOL0     C56716   1.120  10.618   6.725 -0.1364  0.3638  0.9193
  421MOL0     N56717   1.226  10.560   6.800 -0.0492 -0.2393  0.8736
  421MOL0     C56718   1.252  10.439   6.855  0.3069  0.4697  0.2385
  421MOL0     C56719   1.372  10.443   6.908  0.4307 -0.0496  0.0580
  421MOL0     C56720   1.424  10.329   6.987  0.0277 -0.1141 -1.3210
  421MOL0     C56721   1.577  10.315   6.992  0.1310  0.5603 -0.1454
  421MOL0     C56722   1.646  10.369   7.116 -0.4562 -0.9224 -0.6567
  421MOL0     C56723   1.794  10.336   7.109  0.4827 -0.3686  0.1818
  421MOL0     O56724   1.850  10.359   7.232  0.4820 -0.3087  0.3453
  421MOL0     C56725   1.986  10.373   7.223 -0.2348 -0.2862 -0.3071
  421MOL0     C56726   2.064  10.268   7.280  0.5244 -0.7861 -0.5239
  421MOL0     C56727   2.205  10.289   7.282  0.6736  0.5859  0.0191
  421MOL0     C56728   2.267  10.398   7.218 -0.5619 -0.0939 -0.0609
  421MOL0     C56729   2.418  10.407   7.221  0.5684  0.7368  0.1952
  421MOL0     O56730   2.478  10.513   7.164  0.5778  0.3578  0.0847
  421MOL0     C56731   2.606  10.531   7.197  0.0680 -0.6519 -0.8172
  421MOL0     C56732   2.703  10.511   7.107 -0.2524  0.4152 -0.3689
  421MOL0     C56733   2.835  10.515   7.149 -0.2604  0.4294 -0.5165
  421MOL0     C56734   2.878  10.546   7.283 -0.2214 -0.0001  0.2191
  421MOL0     O56735   3.005  10.539   7.329 -0.7654 -0.1506  0.9453
  421MOL0     C56736   3.109  10.545   7.225  0.3940 -1.3453  0.6597
  421MOL0     C56737   3.222  10.621   7.287  0.6481  0.1879 -0.1396
  421MOL0     C56738   3.348  10.614   7.199 -0.3988 -1.5400 -0.1222
  421MOL0     C56739   3.467  10.656   7.283 -0.4229  0.2314  0.1777
  421MOL0     C56740   3.585  10.687   7.191  0.0781 -0.1386 -0.2990
  421MOL0     C56741   3.720  10.661   7.260 -0.0822 -0.7411 -0.1077
  421MOL0     C56742   3.819  10.618   7.144  0.0049  0.1980 -0.9614
  421MOL0     C56743   3.966  10.601   7.181 -0.9208 -0.7470 -0.3402
  421MOL0    Cl56744   3.996  10.470   7.288  0.2832  0.2206  0.8292
  421MOL0     C56745   2.781  10.576   7.370 -0.1214 -0.2487  0.0684
  421MOL0     C56746   2.645  10.570   7.329 -0.4674  0.3035 -0.6690
  421MOL0     O56747   2.477  10.307   7.267 -0.1115 -0.5828 -0.2541
  421MOL0     C56748   2.187  10.499   7.153 -0.4433  0.0344 -1.0531
  421MOL0     C56749   2.050  10.486   7.173  0.4386 -0.5340 -0.3857
  421MOL0     N56750   1.419  10.573   6.899  0.2546 -1.0318  0.3522
  421MOL0     N56751   1.341  10.633   6.814  0.3837  0.1598 -0.0969
  421MOL0     C56752   0.603  10.370   5.723  0.0154  0.6626  1.1189
  421MOL0     C56753   0.578  10.303   5.607  0.6286 -0.3452  1.0781
  421MOL0     C56754   0.653   9.982   5.307 -0.1505  0.1424  0.4257
  421MOL0     C56755   0.523   9.926   5.276 -0.0492  0.8875  0.6822
  421MOL0     C56756   0.514   9.816   5.185  0.1844  0.8365 -0.5384
  421MOL0     C56757   0.623   9.760   5.121  0.7636  0.0300  1.1565
  421MOL0     O56758   0.626   9.652   5.033  0.0979  0.1093 -0.4223
  421MOL0     C56759   0.509   9.586   4.985  1.3350  0.0101 -1.3531
  421MOL0     C56760   0.470   9.476   5.083 -0.6447 -0.3398 -0.4531
  421MOL0     C56761   0.537   9.351   5.030  0.6371  0.0260  0.0733
  421MOL0     C56762   0.484   9.224   5.103  0.6192 -0.4265  0.0566
  421MOL0     C56763   0.344   9.194   5.062 -0.1977  0.6039  0.5646
  421MOL0     C56764   0.227   9.167   5.046  0.0786  0.2081 -0.1771
  421MOL0     C56765   0.745   9.824   5.138 -0.0601 -0.6327 -0.4185
  421MOL0     C56766   0.759   9.934   5.229 -0.7964 -0.0333 -0.2639
  421MOL0     C56767   0.897   9.993   5.229 -0.1623 -0.1094 -0.1612
  421MOL0     H56768   0.550   9.987   5.725  1.0424 -0.4632  2.5443
  421MOL0     H56769   0.598  10.111   5.940 -1.8361  1.3200  0.5363
  421MOL0     H56770   0.771  10.512   5.913 -0.9969  3.2019 -1.7197
  421MOL0     H56771   0.608  10.560   5.912  1.2719 -0.8816 -2.6413
  421MOL0     H56772   0.640  10.496   6.188  0.3828 -0.0748  0.0993
  421MOL0     H56773   0.690  10.658   6.123  2.9091  1.0771 -1.3359
  421MOL0     H56774   0.919  10.565   6.097  0.8269  1.5201  2.0066
  421MOL0     H56775   0.867  10.412   6.168  3.0834  1.1498  1.1647
  421MOL0     H56776   0.815  10.677   6.304 -3.7256 -0.9368  2.5227
  421MOL0     H56777   0.790  10.511   6.359 -1.0307  1.0478 -0.7718
  421MOL0     H56778   1.043  10.466   6.364  3.2942  0.5121  0.9207
  421MOL0     H56779   1.069  10.628   6.305  0.7521 -2.1567  0.9642
  421MOL0     H56780   0.972  10.721   6.499 -3.6078 -1.6558  2.3482
  421MOL0     H56781   0.922  10.565   6.551 -2.3653  2.3082 -0.2444
  421MOL0     H56782   1.203  10.669   6.532 -2.1428  2.3648  0.0173
  421MOL0     H56783   1.177  10.496   6.552  1.3714  1.0215 -1.3736
  421MOL0     H56784   1.108  10.725   6.745  0.6631  0.5914  0.2794
  421MOL0     H56785   1.029  10.576   6.767  0.6522 -0.6548  1.6561
  421MOL0     H56786   1.197  10.346   6.856  2.6403 -1.0331  2.4703
  421MOL0     H56787   1.393  10.338   7.091 -1.5886 -0.3279 -1.7646
  421MOL0     H56788   1.382  10.234   6.952 -1.2581 -0.8015  1.7768
  421MOL0     H56789   1.594  10.207   6.990  0.6809  0.6407 -0.1420
  421MOL0     H56790   1.608  10.360   6.898 -2.1507  0.0771 -1.1914
  421MOL0     H56791   1.610  10.337   7.213  1.7050  1.8132  1.2182
  421MOL0     H56792   1.627  10.477   7.113  1.4931 -0.5279 -0.0482
  421MOL0     H56793   1.832  10.407   7.035 -1.1337 -0.9992 -1.3245
  421MOL0     H56794   1.803  10.229   7.089 -1.8191 -1.0815  2.4629
  421MOL0     H56795   2.018  10.181   7.325 -3.1853  2.5974  3.0904
  421MOL0     H56796   2.273  10.218   7.327  0.7885  1.4940  1.3279
  421MOL0     H56797   2.674  10.498   7.003  0.7178  0.5565 -0.6714
  421MOL0     H56798   2.905  10.486   7.071 -0.2556 -0.6454 -0.1351
  421MOL0     H56799   3.130  10.444   7.189 -1.0603 -2.2801  2.2946
  421MOL0     H56800   3.064  10.602   7.143  0.0123 -1.3556  0.8590
  421MOL0     H56801   3.191  10.716   7.331  1.9858  0.8965 -0.6537
  421MOL0     H56802   3.246  10.553   7.370  0.6246 -0.3544 -0.5716
  421MOL0     H56803   3.347  10.514   7.155  1.3793 -0.5982 -2.5592
  421MOL0     H56804   3.336  10.673   7.107  0.0955 -1.0461  0.1199
  421MOL0     H56805   3.488  10.574   7.352  1.5727  1.1033  0.6932
  421MOL0     H56806   3.428  10.738   7.345  2.8335  0.6235  1.9300
  421MOL0     H56807   3.572  10.792   7.165  0.9239  0.3622  1.2241
  421MOL0     H56808   3.576  10.613   7.110 -1.9474 -1.7495  1.2780
  421MOL0     H56809   3.752  10.757   7.300 -0.8762 -0.9433  1.0720
  421MOL0     H56810   3.716  10.591   7.344  1.0387  0.9341  1.3967
  421MOL0     H56811   3.819  10.695   7.066 -2.4654 -0.5360 -1.7813
  421MOL0     H56812   3.771  10.533   7.094 -2.6035  1.5745 -0.9487
  421MOL0     H56813   4.031  10.592   7.093 -1.2343 -1.9595 -0.4714
  421MOL0     H56814   4.014  10.692   7.218 -1.9292  0.2605 -1.4271
  421MOL0     H56815   2.809  10.599   7.472 -1.1149 -0.5892  0.4268
  421MOL0     H56816   2.581  10.595   7.413 -1.9590 -0.8578 -1.4137
  421MOL0     H56817   2.234  10.585   7.105  4.4475  0.7898  4.0015
  421MOL0     H56818   1.985  10.561   7.129  1.5634 -0.9646 -2.9673
  421MOL0     H56819   0.611  10.478   5.712  0.5793  0.4584 -0.7151
  421MOL0     H56820   0.565  10.360   5.515 -4.0092 -2.1707  0.3274
  421MOL0     H56821   0.427   9.959   5.315 -1.1218 -1.6150  0.2959
  421MOL0     H56822   0.418   9.770   5.163  0.6087  1.1661 -3.4688
  421MOL0     H56823   0.528   9.544   4.886 -0.0773  0.7202 -1.9710
  421MOL0     H56824   0.420   9.649   4.970  0.3443 -1.6849 -3.0665
  421MOL0     H56825   0.362   9.458   5.093 -0.6380  0.1990  0.6876
  421MOL0     H56826   0.490   9.493   5.189  1.9344 -2.0500 -0.5754
  421MOL0     H56827   0.644   9.348   5.052  0.0772 -1.6596  2.9798
  421MOL0     H56828   0.512   9.342   4.924  2.3035 -3.3055 -0.1542
  421MOL0     H56829   0.543   9.137   5.076  1.4481 -0.0796  0.7197
  421MOL0     H56830   0.498   9.243   5.210 -1.8212  1.4592  0.1330
  421MOL0     H56831   0.122   9.160   5.027  0.3879  0.1769 -2.0133
  421MOL0     H56832   0.829   9.780   5.084  0.0676 -0.5237 -0.3101
  421MOL0     H56833   0.893  10.095   5.190  2.0644  1.1756  2.6002
  421MOL0     H56834   0.931  10.013   5.332  1.4233 -1.3382 -0.4156
  421MOL0     H56835   0.963   9.934   5.165 -0.4923 -0.7069  0.0438
  422MOL0     O56836   6.510   9.695   8.022  0.4162 -0.1456 -0.6076
  422MOL0     C56837   6.439   9.698   8.126 -0.4008  0.2831 -0.4041
  422MOL0     O56838   6.486   9.732   8.248  0.0850 -0.0935 -0.3715
  422MOL0     C56839   6.626   9.747   8.264  0.1836  0.0546 -0.0705
  422MOL0     C56840   6.711   9.652   8.330 -0.1795 -0.0908 -0.4881
  422MOL0     C56841   6.850   9.670   8.339 -0.5960  0.5413 -0.4731
  422MOL0     C56842   6.913   9.770   8.269  0.0795 -0.3491 -0.0483
  422MOL0     O56843   7.050   9.785   8.263 -0.7529  0.2503 -0.1823
  422MOL0     C56844   7.141   9.676   8.298 -0.1637 -0.3625 -0.4713
  422MOL0     C56845   7.278   9.719   8.263  0.0298  0.3292 -0.2508
  422MOL0     C56846   7.297   9.755   8.115  0.2075  0.9730 -0.2920
  422MOL0     C56847   7.425   9.832   8.082  0.0816  0.9878  0.1982
  422MOL0     C56848   7.548   9.746   8.113 -0.2677  0.0381 -0.1104
  422MOL0     C56849   7.668   9.793   8.036  0.6760  0.0942  0.6855
  422MOL0     C56850   7.791   9.745   8.101  0.2859  0.0204  0.1190
  422MOL0     C56851   7.914   9.796   8.019 -0.7502 -0.0944 -0.2468
  422MOL0     N56852   8.043   9.798   8.093 -0.0037 -0.4746  1.0075
  422MOL0     C56853   8.154   9.876   8.063  0.6350  0.2426 -0.1401
  422MOL0     C56854   8.253   9.829   8.140 -0.7885  0.9741 -0.7991
  422MOL0     C56855   8.392   9.882   8.150 -0.7061 -0.3354  0.3669
  422MOL0     C56856   8.389  10.041   8.161 -0.3678 -0.0203 -0.6758
  422MOL0     C56857   8.518  10.112   8.215 -0.0312  0.5178  1.1176
  422MOL0     C56858   8.543  10.071   8.360 -0.1504  0.2549  0.1205
  422MOL0     O56859   8.651   9.979   8.391  0.4710  0.1566 -1.0330
  422MOL0     C56860   8.779  10.023   8.387  0.0382  0.0814 -0.6833
  422MOL0     C56861   8.805  10.164   8.372  0.0951  0.0395 -0.5162
  422MOL0     C56862   8.940  10.203   8.391  0.7424 -0.7947  0.0925
  422MOL0     C56863   9.047  10.119   8.425  1.1850  0.6934 -0.2712
  422MOL0     C56864   9.190  10.157   8.437 -0.3666 -0.0229 -0.1289
  422MOL0     O56865   9.277  10.063   8.495 -0.6737 -0.3061  0.6400
  422MOL0     C56866   9.407  10.092   8.496  1.2083  0.0731  0.9116
  422MOL0     C56867   9.471  10.084   8.615 -0.1847 -1.6085  0.4539
  422MOL0     C56868   9.604  10.112   8.630 -0.4876  0.1776 -0.2725
  422MOL0     C56869   9.679  10.165   8.529  0.1523 -0.6352 -0.8121
  422MOL0     O56870   9.807  10.208   8.532 -0.7082  0.4312  0.2161
  422MOL0     C56871   9.896  10.188   8.644 -0.4217 -0.1998  0.5498
  422MOL0     C56872  10.040  10.193   8.602  0.4539  0.3511 -0.2676
  422MOL0     C56873  10.136  10.175   8.722  0.4566 -0.4296 -0.2603
  422MOL0     C56874  10.285  10.163   8.669 -0.3105  0.4087 -0.4866
  422MOL0     C56875  10.386  10.259   8.744  1.1901 -0.0790 -0.2914
  422MOL0     C56876  10.408  10.211   8.893  0.5770  0.7262 -0.3059
  422MOL0     C56877  10.468  10.320   8.964 -0.1498 -0.2671 -0.0352
  422MOL0     C56878  10.514  10.284   9.106 -0.0223 -0.0348 -0.4243
  422MOL0    Cl56879  10.619  10.137   9.117  0.0281  0.2679 -0.0441
  422MOL0     C56880   9.618  10.193   8.409  0.1687  0.2720 -0.8689
  422MOL0     C56881   9.490  10.149   8.389 -0.1457  0.7875 -0.9113
  422MOL0     O56882   9.213  10.278   8.408  0.1683  0.0077 -0.5291
  422MOL0     C56883   9.017   9.986   8.444  0.1532  0.4170 -0.1329
  422MOL0     C56884   8.883   9.937   8.427 -0.1625 -0.6566 -0.2460
  422MOL0     N56885   8.207   9.714   8.207  0.0847 -0.2744  0.2236
  422MOL0     N56886   8.086   9.708   8.182  0.0997  0.0227 -0.2804
  422MOL0     C56887   6.842   9.855   8.195  1.1393 -0.2385  0.2978
  422MOL0     C56888   6.702   9.848   8.192  0.7997 -0.1913 -0.2648
  422MOL0     C56889   6.299   9.673   8.113 -0.0150  1.2030 -0.6153
  422MOL0     C56890   6.224   9.625   8.226 -0.4765 -0.8519  0.6964
  422MOL0     C56891   6.085   9.599   8.227 -0.3383 -0.1217  0.8515
  422MOL0     C56892   6.015   9.626   8.112  0.2145 -0.7105  0.0679
  422MOL0     O56893   5.883   9.576   8.115  0.0166 -0.0118 -0.3442
  422MOL0     C56894   5.800   9.613   8.005  0.2303  0.4664  0.3966
  422MOL0     C56895   5.688   9.514   8.000 -0.4258 -0.2987 -0.2154
  422MOL0     C56896   5.615   9.479   8.125  0.4760  0.1303  0.3428
  422MOL0     C56897   5.474   9.546   8.134 -0.0001 -1.4668 -0.9429
  422MOL0     C56898   5.409   9.520   8.269 -0.0897  0.4866  0.0802
  422MOL0     C56899   5.373   9.505   8.383  1.0029  0.5970  0.4220
  422MOL0     C56900   6.079   9.679   8.000 -0.2385  1.1881  0.1737
  422MOL0     C56901   6.215   9.697   7.994  0.1307 -0.6414 -0.2595
  422MOL0     C56902   6.262   9.784   7.879 -0.8954  0.3374  0.4193
  422MOL0     H56903   6.667   9.568   8.384 -2.6468 -0.7988 -3.2970
  422MOL0     H56904   6.904   9.589   8.387 -1.4130 -1.8077 -3.1816
  422MOL0     H56905   7.130   9.650   8.404 -1.1798 -1.5595 -0.8539
  422MOL0     H56906   7.123   9.584   8.242  0.1084  0.3508 -1.7651
  422MOL0     H56907   7.339   9.630   8.281  1.2987  1.0733 -0.7725
  422MOL0     H56908   7.308   9.803   8.326 -0.3006  1.3112 -1.3608
  422MOL0     H56909   7.218   9.822   8.080  1.4259  1.7090 -1.7488
  422MOL0     H56910   7.296   9.665   8.054 -0.8740 -0.1176  1.2706
  422MOL0     H56911   7.426   9.871   7.980  1.7998  0.8006  0.1013
  422MOL0     H56912   7.427   9.922   8.145  4.0054  0.1680  1.5770
  422MOL0     H56913   7.565   9.757   8.221  0.1971  0.7401 -0.2458
  422MOL0     H56914   7.521   9.643   8.091  1.7316 -0.9589  1.6711
  422MOL0     H56915   7.674   9.754   7.934  0.3931  2.6778 -0.4089
  422MOL0     H56916   7.656   9.901   8.021 -1.5388 -0.2975 -0.8889
  422MOL0     H56917   7.785   9.635   8.098  0.6495  0.0026 -3.0699
  422MOL0     H56918   7.810   9.784   8.201  0.8710  2.7177 -0.9752
  422MOL0     H56919   7.937   9.739   7.928  2.3739 -0.2921  0.5544
  422MOL0     H56920   7.887   9.901   7.999  0.2077  0.0521 -0.8418
  422MOL0     H56921   8.157   9.966   8.002 -1.1974  0.4946  0.0902
  422MOL0     H56922   8.425   9.831   8.241 -0.6917 -0.8286  0.0853
  422MOL0     H56923   8.458   9.855   8.067 -2.5848 -4.3596 -0.0118
  422MOL0     H56924   8.377  10.079   8.059 -0.5775  4.0385  0.6822
  422MOL0     H56925   8.306  10.073   8.224 -0.1173 -0.5444 -0.0715
  422MOL0     H56926   8.510  10.220   8.204  1.3569  0.9079  3.2802
  422MOL0     H56927   8.598  10.085   8.145 -0.9497 -0.6166  0.4642
  422MOL0     H56928   8.453  10.019   8.395  0.9214 -2.7188 -1.1561
  422MOL0     H56929   8.531  10.158   8.425  0.0950 -0.8072  1.6395
  422MOL0     H56930   8.727  10.238   8.357 -0.6051 -0.9629 -2.2270
  422MOL0     H56931   8.943  10.311   8.380  0.9412 -0.9121 -1.2005
  422MOL0     H56932   9.419  10.052   8.704  1.8036 -0.2987  2.1923
  422MOL0     H56933   9.655  10.086   8.722 -0.8722  0.2230 -0.0449
  422MOL0     H56934   9.882  10.271   8.714  0.7502  3.2575 -2.9639
  422MOL0     H56935   9.875  10.091   8.690 -0.0105 -1.3768 -1.5992
  422MOL0     H56936  10.060  10.122   8.521  3.3386  1.3403 -0.5417
  422MOL0     H56937  10.055  10.293   8.560  3.3337  0.7606  1.4593
  422MOL0     H56938  10.127  10.269   8.777 -0.6171 -0.5258 -0.2564
  422MOL0     H56939  10.104  10.092   8.786  0.4736 -0.5035 -0.3480
  422MOL0     H56940  10.280  10.175   8.560 -2.8460 -1.5253 -0.6638
  422MOL0     H56941  10.306  10.059   8.694 -0.4778  1.1312  3.3075
  422MOL0     H56942  10.347  10.361   8.736  0.5976 -0.2407  0.4048
  422MOL0     H56943  10.475  10.262   8.681 -0.4655 -2.5770 -2.9480
  422MOL0     H56944  10.317  10.190   8.949 -1.1592 -1.1583 -3.5166
  422MOL0     H56945  10.463  10.116   8.894  2.0411  1.5547  0.5679
  422MOL0     H56946  10.401  10.407   8.963  1.1631  0.8135  1.6436
  422MOL0     H56947  10.558  10.338   8.904 -1.0811 -1.5731 -1.9234
  422MOL0     H56948  10.568  10.365   9.157 -2.1579  0.4740  1.1554
  422MOL0     H56949  10.424  10.279   9.168 -1.5169 -0.1197 -2.5237
  422MOL0     H56950   9.671  10.253   8.335  2.2483  0.6712  0.8415
  422MOL0     H56951   9.444  10.160   8.291 -0.0812 -0.2793 -1.0777
  422MOL0     H56952   9.091   9.915   8.477 -0.1784  0.3254  0.4257
  422MOL0     H56953   8.857   9.834   8.448 -1.1235 -0.1566  1.1708
  422MOL0     H56954   6.884   9.942   8.145 -1.1566  2.2857  2.4597
  422MOL0     H56955   6.655   9.929   8.137 -1.0110 -0.1833  1.2186
  422MOL0     H56956   6.275   9.594   8.317 -0.4676 -0.0314  0.9809
  422MOL0     H56957   6.028   9.571   8.315 -2.1704  1.1554  0.1295
  422MOL0     H56958   5.850   9.614   7.907 -0.9451 -0.8114 -0.2461
  422MOL0     H56959   5.764   9.714   8.025  0.7026  0.6033  0.5730
  422MOL0     H56960   5.724   9.427   7.943  0.6759  1.3611 -2.2205
  422MOL0     H56961   5.624   9.560   7.925 -0.2046  0.0758 -0.1758
  422MOL0     H56962   5.674   9.510   8.212  0.6335  0.4205  0.1320
  422MOL0     H56963   5.602   9.370   8.123  0.7616  0.0778 -2.3406
  422MOL0     H56964   5.481   9.654   8.120 -1.6795 -1.2031 -0.0232
  422MOL0     H56965   5.407   9.505   8.057 -3.7836 -0.5714  1.5572
  422MOL0     H56966   5.359   9.485   8.487 -2.2674 -0.3136 -0.0829
  422MOL0     H56967   6.007   9.714   7.927 -1.1246  1.2132  1.0298
  422MOL0     H56968   6.263   9.892   7.898 -0.1099  0.5354 -0.6651
  422MOL0     H56969   6.364   9.761   7.847 -0.8118  1.9385 -0.5898
  422MOL0     H56970   6.198   9.763   7.793 -1.5680 -0.6648  1.1350
  423MOL0     O56971   6.989   3.971   2.956 -0.4147  0.6063  0.6431
  423MOL0     C56972   6.953   3.939   2.843  0.6186 -0.1353 -0.7743
  423MOL0     O56973   7.030   3.945   2.731 -0.0847  0.1215 -0.3537
  423MOL0     C56974   7.100   4.068   2.705 -0.2661 -0.2839 -0.2520
  423MOL0     C56975   7.105   4.181   2.778  0.5990  0.0491  0.1692
  423MOL0     C56976   7.197   4.281   2.745  1.0012 -0.1722 -0.0180
  423MOL0     C56977   7.293   4.260   2.652  0.1309 -0.0437  0.4339
  423MOL0     O56978   7.370   4.371   2.614 -0.1675 -0.1921 -0.4553
  423MOL0     C56979   7.514   4.350   2.602  0.2201 -0.2838  0.5707
  423MOL0     C56980   7.586   4.483   2.574  0.9047 -0.1269  0.3390
  423MOL0     C56981   7.725   4.451   2.521 -0.4871  0.5217  0.1203
  423MOL0     C56982   7.816   4.576   2.514  1.1271 -0.0159 -0.7162
  423MOL0     C56983   7.954   4.536   2.459  0.1497  0.6664 -0.5183
  423MOL0     C56984   8.042   4.660   2.441  0.1494  0.4066 -0.0363
  423MOL0     C56985   8.176   4.617   2.383  0.1785 -0.2221 -0.2721
  423MOL0     C56986   8.263   4.743   2.378 -0.9318  0.1171  0.0693
  423MOL0     N56987   8.337   4.775   2.502 -0.2463 -0.0971  0.2794
  423MOL0     C56988   8.352   4.901   2.552 -0.0947  0.5032 -0.1752
  423MOL0     C56989   8.454   4.894   2.642  0.1891  1.4483 -0.4701
  423MOL0     C56990   8.524   5.009   2.721  0.2039  0.3586  0.1282
  423MOL0     C56991   8.550   4.976   2.870  0.0712  0.8446  0.1349
  423MOL0     C56992   8.618   5.091   2.935 -1.2922 -0.2653  0.4066
  423MOL0     C56993   8.673   5.059   3.078  0.6306  0.3077 -0.1949
  423MOL0     O56994   8.739   5.175   3.138  0.2306 -0.0868  0.5428
  423MOL0     C56995   8.870   5.194   3.135 -0.2462 -0.0005 -0.3218
  423MOL0     C56996   8.928   5.285   3.228  0.8504  0.2213 -0.3216
  423MOL0     C56997   9.073   5.310   3.222 -0.2224  0.5316 -0.9665
  423MOL0     C56998   9.151   5.242   3.131 -0.3820 -0.2935 -0.0134
  423MOL0     C56999   9.294   5.281   3.117 -0.3276 -0.0714  0.7712
  423MOL0     O57000   9.370   5.211   3.020  0.1246 -0.0873 -0.5528
  423MOL0     C57001   9.498   5.231   3.030  0.0743 -0.5111  0.2914
  423MOL0     C57002   9.573   5.310   2.937  0.3248 -1.1992 -0.5609
  423MOL0     C57003   9.703   5.340   2.971 -0.5657 -0.4418  0.6395
  423MOL0     C57004   9.767   5.292   3.084  0.1131  0.7304 -0.6786
  423MOL0     O57005   9.897   5.316   3.127  0.0989 -0.1758 -0.8852
  423MOL0     C57006   9.952   5.442   3.091 -0.2858  0.4534  0.2910
  423MOL0     C57007  10.077   5.469   3.180 -0.5222 -0.0287 -1.3593
  423MOL0     C57008  10.165   5.343   3.192  0.3931 -0.0594 -0.8985
  423MOL0     C57009  10.312   5.377   3.223 -0.5618 -0.0937 -0.5945
  423MOL0     C57010  10.333   5.451   3.350  0.1804 -0.3334 -0.5213
  423MOL0     C57011  10.481   5.480   3.381 -0.1564 -0.1793  0.7500
  423MOL0     C57012  10.518   5.554   3.506  0.2575 -0.0723  0.4633
  423MOL0     C57013  10.660   5.603   3.503 -0.5655 -0.2989 -0.5456
  423MOL0    Cl57014  10.713   5.665   3.665 -0.0182 -0.4760 -0.1309
  423MOL0     C57015   9.703   5.208   3.176  0.2410 -0.2242 -0.1715
  423MOL0     C57016   9.564   5.174   3.147 -0.2920 -0.7275  0.4246
  423MOL0     O57017   9.342   5.372   3.180  0.3071  0.0903  0.0408
  423MOL0     C57018   9.097   5.152   3.040 -0.0317 -0.4415  0.1723
  423MOL0     C57019   8.958   5.118   3.046 -0.7209  0.2192 -0.2251
  423MOL0     N57020   8.501   4.757   2.638 -0.4880 -0.0722  0.4462
  423MOL0     N57021   8.432   4.684   2.553 -0.7331 -0.2895  0.2307
  423MOL0     C57022   7.292   4.141   2.581  0.0989  1.0892 -0.7486
  423MOL0     C57023   7.197   4.046   2.602 -0.7071 -0.0238  0.0746
  423MOL0     C57024   6.821   3.875   2.826  0.7052 -0.4159  0.7416
  423MOL0     C57025   6.806   3.783   2.719 -0.0722 -0.3141 -0.8951
  423MOL0     C57026   6.679   3.728   2.690  0.5700  0.5824  0.3304
  423MOL0     C57027   6.564   3.758   2.771 -0.7177 -0.2621  0.1701
  423MOL0     O57028   6.447   3.713   2.739  0.7197  0.1131 -0.0367
  423MOL0     C57029   6.326   3.721   2.827 -0.0042 -0.1734 -0.3167
  423MOL0     C57030   6.219   3.622   2.782 -0.6757  0.3245  0.1429
  423MOL0     C57031   6.085   3.639   2.851 -0.5490  0.4220  0.2291
  423MOL0     C57032   6.089   3.604   3.004 -0.0794  0.6019  0.7150
  423MOL0     C57033   5.958   3.591   3.064  0.5197 -0.1574 -0.8151
  423MOL0     C57034   5.843   3.572   3.101 -0.0198  0.2391  0.0299
  423MOL0     C57035   6.577   3.858   2.870  1.0216  0.1997 -0.4342
  423MOL0     C57036   6.707   3.899   2.912 -0.5506  0.1273 -0.0314
  423MOL0     C57037   6.707   3.979   3.037 -0.0363  0.3196 -0.3460
  423MOL0     H57038   7.054   4.190   2.874 -0.6709  1.7043 -0.6151
  423MOL0     H57039   7.209   4.371   2.804  1.3791  0.5129 -1.1057
  423MOL0     H57040   7.548   4.314   2.699  1.4300  2.1413  1.1481
  423MOL0     H57041   7.531   4.294   2.510 -1.3708 -0.3036  0.2679
  423MOL0     H57042   7.601   4.533   2.671 -1.7643  0.9174  0.2869
  423MOL0     H57043   7.541   4.556   2.506  0.3220  0.8435  1.7146
  423MOL0     H57044   7.725   4.408   2.421  0.8224  0.8257 -0.0238
  423MOL0     H57045   7.765   4.378   2.592  1.8409  1.5621 -0.0392
  423MOL0     H57046   7.769   4.657   2.458  2.6803  1.4447  0.0390
  423MOL0     H57047   7.817   4.618   2.615 -2.3371  1.5917 -1.1950
  423MOL0     H57048   7.999   4.463   2.526 -3.0310 -2.2422 -1.3027
  423MOL0     H57049   7.944   4.490   2.361 -2.9783 -1.0205  0.4586
  423MOL0     H57050   7.992   4.732   2.376  1.1032 -1.4618 -2.9919
  423MOL0     H57051   8.050   4.709   2.539 -1.7880  0.5978  0.0688
  423MOL0     H57052   8.161   4.583   2.280  1.7320  3.2948 -1.8129
  423MOL0     H57053   8.241   4.547   2.437 -0.1529 -1.1540 -1.0499
  423MOL0     H57054   8.346   4.725   2.309 -0.1528  3.7825 -0.1590
  423MOL0     H57055   8.204   4.830   2.346  0.7066  1.8281  1.4250
  423MOL0     H57056   8.310   4.993   2.515  0.6239  0.5053 -1.0254
  423MOL0     H57057   8.616   5.033   2.667 -0.0196 -0.6242 -0.7197
  423MOL0     H57058   8.465   5.101   2.716  0.5391  0.5900  0.3914
  423MOL0     H57059   8.464   4.946   2.931  3.1746 -1.9635  3.6051
  423MOL0     H57060   8.614   4.887   2.875 -0.8589  0.1066 -0.6930
  423MOL0     H57061   8.554   5.180   2.931 -0.1354  0.5542 -1.9049
  423MOL0     H57062   8.707   5.117   2.877 -1.3749 -0.4304  0.2059
  423MOL0     H57063   8.736   4.970   3.087 -1.2383 -0.9741  0.9202
  423MOL0     H57064   8.586   5.042   3.142  0.2547 -1.9606 -1.1852
  423MOL0     H57065   8.870   5.338   3.303  0.8980 -2.2926  1.6279
  423MOL0     H57066   9.109   5.373   3.302 -4.3736  0.3623  1.2830
  423MOL0     H57067   9.529   5.362   2.853 -2.3327 -2.6885 -0.2127
  423MOL0     H57068   9.758   5.408   2.906  0.8457 -1.5717  0.6049
  423MOL0     H57069   9.971   5.445   2.983  0.4972  2.4509  0.4248
  423MOL0     H57070   9.877   5.519   3.110 -0.4582  0.5030 -0.5500
  423MOL0     H57071  10.137   5.549   3.135  3.4559 -2.2332 -0.4477
  423MOL0     H57072  10.036   5.492   3.279 -2.2738  1.2623 -2.3243
  423MOL0     H57073  10.128   5.283   3.276 -0.8786  1.6035 -0.2093
  423MOL0     H57074  10.158   5.276   3.105  3.4000 -0.5608 -0.8780
  423MOL0     H57075  10.355   5.438   3.144  0.0182  2.0551  1.2641
  423MOL0     H57076  10.364   5.280   3.213  1.0757  0.8614 -1.9059
  423MOL0     H57077  10.294   5.380   3.423 -0.8929  2.0723  1.3880
  423MOL0     H57078  10.275   5.543   3.362 -0.0718 -0.6974  1.4694
  423MOL0     H57079  10.527   5.380   3.380  1.0955  0.3797  0.2623
  423MOL0     H57080  10.506   5.538   3.292 -1.6138 -2.2655 -1.1334
  423MOL0     H57081  10.504   5.485   3.590 -0.5844 -0.8587 -0.3099
  423MOL0     H57082  10.446   5.634   3.521 -1.4795 -1.5039  0.1415
  423MOL0     H57083  10.724   5.524   3.463 -0.0718 -0.0653 -0.2252
  423MOL0     H57084  10.665   5.686   3.432  1.0999 -0.6417 -0.8689
  423MOL0     H57085   9.750   5.164   3.263 -4.0245  0.0755  2.6389
  423MOL0     H57086   9.514   5.103   3.212 -0.3334 -1.3555 -0.2834
  423MOL0     H57087   9.165   5.109   2.966  0.8518  1.5858 -0.2794
  423MOL0     H57088   8.911   5.042   2.985 -0.8462  0.5736 -0.5778
  423MOL0     H57089   7.369   4.120   2.508 -0.3400 -0.4344 -0.8035
  423MOL0     H57090   7.208   3.952   2.550 -0.4126  1.4714 -2.7220
  423MOL0     H57091   6.883   3.759   2.646 -0.2008  0.6999 -1.3754
  423MOL0     H57092   6.659   3.657   2.611  0.0973  3.4147 -2.2812
  423MOL0     H57093   6.289   3.824   2.821  1.9931  0.5088 -2.8349
  423MOL0     H57094   6.350   3.698   2.932  0.6339 -0.4322 -0.5141
  423MOL0     H57095   6.258   3.521   2.801  1.9712  1.1987 -0.2056
  423MOL0     H57096   6.216   3.637   2.673 -1.2592  0.3203  0.1521
  423MOL0     H57097   6.004   3.582   2.804 -0.9437  0.6007  0.6902
  423MOL0     H57098   6.057   3.743   2.834 -1.0475 -0.1387 -3.1826
  423MOL0     H57099   6.139   3.509   3.023  3.0043  0.8323 -4.3366
  423MOL0     H57100   6.156   3.676   3.052  1.2951  1.7555 -2.5608
  423MOL0     H57101   5.740   3.550   3.123  0.0370  1.9517  2.3204
  423MOL0     H57102   6.492   3.899   2.924  0.8384  1.0035 -1.3005
  423MOL0     H57103   6.610   4.004   3.081  0.4222 -2.0542  2.3183
  423MOL0     H57104   6.755   3.910   3.108 -1.4222  0.0346  0.3436
  423MOL0     H57105   6.764   4.072   3.028  1.2406 -0.3161  0.6954
  424MOL0     O57106   1.751  10.820   4.503 -0.4823 -0.4181  0.1308
  424MOL0     C57107   1.717  10.919   4.570  0.2599  0.3649 -0.3876
  424MOL0     O57108   1.807  11.022   4.596  0.2467  0.1081 -0.3624
  424MOL0     C57109   1.934  11.004   4.547 -0.5710  0.5022  0.1560
  424MOL0     C57110   2.041  10.937   4.615 -0.8451 -0.7763 -0.4672
  424MOL0     C57111   2.168  10.923   4.561 -0.7568  1.0133  0.4386
  424MOL0     C57112   2.186  10.964   4.432 -0.5727  1.0696 -0.6813
  424MOL0     O57113   2.305  10.930   4.372 -0.0469 -0.5319  0.2379
  424MOL0     C57114   2.339  10.794   4.363  0.4700  0.8462  0.1379
  424MOL0     C57115   2.444  10.766   4.257 -0.3688  0.4752 -0.4188
  424MOL0     C57116   2.582  10.814   4.292  0.4516 -0.2478  0.4837
  424MOL0     C57117   2.694  10.744   4.205 -0.1663 -0.0453  0.8935
  424MOL0     C57118   2.825  10.826   4.200  0.2988 -0.2419 -0.1204
  424MOL0     C57119   2.924  10.775   4.312 -0.4875 -0.4547  0.1014
  424MOL0     C57120   3.034  10.877   4.355  0.6822  0.7352  0.2721
  424MOL0     C57121   3.117  10.927   4.244  0.1208 -0.3083  0.4351
  424MOL0     N57122   3.202  11.036   4.289 -0.0404  0.1380 -0.1980
  424MOL0     C57123   3.340  11.020   4.309 -0.0235 -0.5453  0.8507
  424MOL0     C57124   3.394  11.141   4.322  0.4797 -0.1272 -0.4754
  424MOL0     C57125   3.530  11.184   4.343  0.2988 -0.7452  0.7990
  424MOL0     C57126   3.626  11.116   4.226 -0.9218 -0.2434 -0.2239
  424MOL0     C57127   3.773  11.171   4.226 -0.3425  0.7785  0.1522
  424MOL0     C57128   3.885  11.071   4.193 -1.0377  1.1807  0.1457
  424MOL0     O57129   3.891  11.029   4.053 -0.2557 -0.0337 -0.3072
  424MOL0     C57130   4.015  11.002   3.997 -0.0836 -0.0381  0.0675
  424MOL0     C57131   4.124  10.947   4.069  0.1858 -0.7437 -0.3251
  424MOL0     C57132   4.246  10.933   4.000  1.1581 -0.5396 -1.0525
  424MOL0     C57133   4.253  10.960   3.863 -0.2394  0.0492  0.2148
  424MOL0     C57134   4.379  10.943   3.783  0.5043 -0.1480 -0.0166
  424MOL0     O57135   4.491  10.896   3.852  0.6652  0.0688 -0.0156
  424MOL0     C57136   4.618  10.910   3.807 -0.1101 -0.0339  0.8877
  424MOL0     C57137   4.699  10.792   3.776  0.1706 -0.5259  1.3609
  424MOL0     C57138   4.834  10.812   3.724  0.2228 -0.8741  0.1630
  424MOL0     C57139   4.890  10.940   3.719  0.0210 -0.6468  0.2408
  424MOL0     O57140   5.019  10.967   3.691 -0.0086  0.2678  0.0838
  424MOL0     C57141   5.133  10.883   3.704  0.4354 -0.5335 -0.2469
  424MOL0     C57142   5.255  10.975   3.675  0.5695  0.9207 -0.3834
  424MOL0     C57143   5.386  10.886   3.667 -0.3839 -0.0401 -1.0205
  424MOL0     C57144   5.476  10.900   3.790  0.2897 -0.3059  0.9017
  424MOL0     C57145   5.618  10.853   3.761  0.4584  0.7591  0.2637
  424MOL0     C57146   5.712  10.940   3.679  0.0208 -0.4947  0.2787
  424MOL0     C57147   5.839  10.860   3.651 -0.2699  0.7511  0.3489
  424MOL0     C57148   5.923  10.913   3.535 -0.4091  0.3818  0.1829
  424MOL0    Cl57149   6.078  10.813   3.517  0.1517  0.0959  0.4750
  424MOL0     C57150   4.806  11.051   3.746  0.6253 -0.5173  0.0916
  424MOL0     C57151   4.667  11.036   3.784  0.2283  0.2718  0.6149
  424MOL0     O57152   4.379  10.978   3.670 -0.7712  0.2808  0.7787
  424MOL0     C57153   4.140  11.019   3.799 -0.4496 -0.4553 -0.2525
  424MOL0     C57154   4.020  11.043   3.864 -1.2332 -0.6758 -0.6560
  424MOL0     N57155   3.284  11.236   4.324 -0.8369 -0.4622  0.2295
  424MOL0     N57156   3.164  11.170   4.309 -0.3328  0.8510  0.2492
  424MOL0     C57157   2.085  11.035   4.363  0.0858 -0.2098 -0.4298
  424MOL0     C57158   1.955  11.048   4.422  1.0138 -0.1623 -0.2635
  424MOL0     C57159   1.572  10.935   4.602  0.1209 -0.1464 -0.1085
  424MOL0     C57160   1.510  11.063   4.586  0.3499 -0.0102  0.9269
  424MOL0     C57161   1.378  11.090   4.632 -0.0523 -0.1956 -0.5830
  424MOL0     C57162   1.298  10.979   4.672 -0.4672  0.0746  0.1567
  424MOL0     O57163   1.172  10.998   4.697 -0.3251  0.2371 -0.2136
  424MOL0     C57164   1.138  10.999   4.831 -0.2124  0.6237 -0.1040
  424MOL0     C57165   0.997  11.042   4.866 -0.3580  0.1990  0.2354
  424MOL0     C57166   0.884  10.969   4.797  0.4354 -0.0226  0.5082
  424MOL0     C57167   0.761  11.057   4.771  0.6501  0.3863  0.7418
  424MOL0     C57168   0.713  11.116   4.899 -0.3859 -0.3479  0.1080
  424MOL0     C57169   0.669  11.180   4.988  0.1693 -0.2425 -0.4690
  424MOL0     C57170   1.356  10.855   4.680 -0.3441  0.9728  0.8288
  424MOL0     C57171   1.492  10.835   4.649 -0.3330  0.8668  0.9235
  424MOL0     C57172   1.546  10.697   4.661  0.3280  0.9270  0.4544
  424MOL0     H57173   2.022  10.900   4.715  1.5268 -0.4789  0.1619
  424MOL0     H57174   2.244  10.860   4.606 -0.5727 -0.7730 -2.1388
  424MOL0     H57175   2.381  10.770   4.461  1.4269  1.3553 -0.1334
  424MOL0     H57176   2.254  10.729   4.340  0.0143  1.9395 -1.4951
  424MOL0     H57177   2.404  10.805   4.162 -2.2974 -4.5615 -2.0244
  424MOL0     H57178   2.449  10.658   4.240  1.1038  0.3773  0.5549
  424MOL0     H57179   2.601  10.804   4.399  0.0481 -0.1374  0.5668
  424MOL0     H57180   2.590  10.921   4.270  1.8684 -0.2100  1.0705
  424MOL0     H57181   2.721  10.641   4.232  2.3696  0.3205 -0.0103
  424MOL0     H57182   2.652  10.744   4.104  3.0777  0.7586 -0.5719
  424MOL0     H57183   2.867  10.796   4.103 -0.0429 -0.0247 -0.3370
  424MOL0     H57184   2.807  10.933   4.200 -0.1852 -0.2714 -2.5767
  424MOL0     H57185   2.870  10.748   4.403 -1.9252 -1.0181 -0.8906
  424MOL0     H57186   2.974  10.682   4.282 -0.1721 -0.5210  0.7878
  424MOL0     H57187   3.101  10.824   4.424 -1.9823 -0.3265  2.2384
  424MOL0     H57188   2.983  10.957   4.409 -0.7986  0.5957 -0.8571
  424MOL0     H57189   3.172  10.844   4.198  1.7606  0.4958  0.8641
  424MOL0     H57190   3.050  10.972   4.171  0.8066 -2.7653 -1.8651
  424MOL0     H57191   3.394  10.933   4.277 -1.9516 -0.6470 -2.5638
  424MOL0     H57192   3.530  11.293   4.334 -0.7192 -0.7644  0.3867
  424MOL0     H57193   3.563  11.155   4.443  1.7862 -0.2031  0.4845
  424MOL0     H57194   3.626  11.007   4.237 -1.0510 -0.3805 -1.4200
  424MOL0     H57195   3.582  11.134   4.128 -1.7298 -1.2150 -0.0563
  424MOL0     H57196   3.786  11.210   4.328 -2.1103  0.4924  0.5160
  424MOL0     H57197   3.787  11.245   4.147 -0.7795  1.4103  0.6585
  424MOL0     H57198   3.879  10.983   4.257 -0.2256  0.1167 -1.2011
  424MOL0     H57199   3.977  11.122   4.225 -0.6569 -1.1351  3.1529
  424MOL0     H57200   4.122  10.904   4.168  1.1881 -1.4114 -0.5817
  424MOL0     H57201   4.330  10.900   4.061  0.6445  1.7624  1.0483
  424MOL0     H57202   4.662  10.691   3.790  1.0957 -1.3770 -1.6959
  424MOL0     H57203   4.896  10.725   3.707 -0.2497 -0.6899 -2.9168
  424MOL0     H57204   5.134  10.847   3.808  3.2795 -0.3598 -0.1227
  424MOL0     H57205   5.128  10.802   3.631  1.4401 -1.1110  0.3125
  424MOL0     H57206   5.236  11.042   3.590 -3.5359  0.7909  0.2299
  424MOL0     H57207   5.264  11.038   3.763 -0.2260 -0.8037  1.0044
  424MOL0     H57208   5.366  10.780   3.654  0.8988 -0.5969  1.0441
  424MOL0     H57209   5.443  10.923   3.581  1.6546 -0.3629  0.1319
  424MOL0     H57210   5.433  10.852   3.878  0.4114  1.3689  1.9193
  424MOL0     H57211   5.489  11.004   3.823  0.2146 -0.3579  1.0990
  424MOL0     H57212   5.614  10.758   3.708  0.1673  1.2094 -0.5570
  424MOL0     H57213   5.665  10.833   3.857  0.6709  0.0653  0.0189
  424MOL0     H57214   5.669  10.969   3.583 -0.8513  0.4117  0.9288
  424MOL0     H57215   5.727  11.031   3.738 -0.1783  0.4711 -1.1290
  424MOL0     H57216   5.810  10.758   3.626  1.6449  0.3813 -0.4883
  424MOL0     H57217   5.908  10.858   3.736  0.1881  1.6682  0.0133
  424MOL0     H57218   5.858  10.902   3.448 -1.0821 -1.2281  0.8617
  424MOL0     H57219   5.942  11.019   3.558  0.9466  0.6576 -1.8880
  424MOL0     H57220   4.848  11.151   3.743  2.8772 -1.3166  1.9086
  424MOL0     H57221   4.621  11.129   3.815  2.0952  1.1729  0.8487
  424MOL0     H57222   4.143  11.057   3.698 -2.2486 -1.0385 -0.5557
  424MOL0     H57223   3.931  11.072   3.810 -1.7626  0.1575  0.6185
  424MOL0     H57224   2.110  11.067   4.263  2.0010  3.1610  0.9715
  424MOL0     H57225   1.869  11.090   4.371  0.7526 -0.7388 -0.3031
  424MOL0     H57226   1.571  11.149   4.559  0.5184 -0.5104 -0.3726
  424MOL0     H57227   1.339  11.191   4.631 -0.0469 -0.1947 -1.0053
  424MOL0     H57228   1.214  11.059   4.880  0.2312  0.7528 -0.9432
  424MOL0     H57229   1.142  10.896   4.870 -0.4250  0.9333  0.7572
  424MOL0     H57230   0.982  11.147   4.839  0.9091  0.0792 -1.0479
  424MOL0     H57231   0.982  11.042   4.974  2.4408  1.3944  0.7327
  424MOL0     H57232   0.852  10.891   4.866  1.8855 -0.6293  0.5186
  424MOL0     H57233   0.911  10.922   4.702  2.3461 -2.2440  2.0585
  424MOL0     H57234   0.784  11.135   4.698 -1.4362  0.2526 -0.1286
  424MOL0     H57235   0.678  10.995   4.735  1.4525  0.8495 -2.1573
  424MOL0     H57236   0.613  11.244   5.053 -0.5555  1.3068 -2.4985
  424MOL0     H57237   1.287  10.774   4.703 -0.5738  1.0844  0.5370
  424MOL0     H57238   1.540  10.651   4.562  2.8058  2.3652 -0.4334
  424MOL0     H57239   1.647  10.685   4.701  1.2043 -3.4496 -2.4017
  424MOL0     H57240   1.479  10.639   4.726 -0.5632  1.5676  0.1247
  425MOL0     O57241  10.236   7.607  10.359  0.1316 -0.9914  0.4657
  425MOL0     C57242  10.197   7.525  10.450 -0.8003 -0.2955  0.9759
  425MOL0     O57243  10.239   7.534  10.579  0.9791  0.7573  0.3059
  425MOL0     C57244  10.309   7.643  10.620 -0.3740 -1.2021 -0.3402
  425MOL0     C57245  10.275   7.784  10.603 -0.2228  0.0120  0.6878
  425MOL0     C57246  10.356   7.883  10.659  0.8169 -0.4656 -0.5386
  425MOL0     C57247  10.473   7.854  10.726 -0.1486  0.0932  0.6815
  425MOL0     O57248  10.540   7.957  10.792  0.3230  0.1362  0.6255
  425MOL0     C57249  10.474   8.024  10.897  0.2247 -0.3866  0.2295
  425MOL0     C57250  10.580   8.019  10.996 -0.0068  0.0300 -0.6885
  425MOL0     C57251  10.588   7.883  11.070  0.5818  0.7554 -0.2090
  425MOL0     C57252  10.692   7.888  11.191 -0.2003 -0.4615 -0.3190
  425MOL0     C57253  10.842   7.866  11.147  0.7888  0.6800  0.8119
  425MOL0     C57254  10.930   7.847  11.266 -0.2799 -0.6662 -0.0610
  425MOL0     C57255  10.996   7.979  11.299 -0.0176  0.3015 -0.5033
  425MOL0     C57256  11.064   7.960  11.445 -0.3101 -0.6047  0.3165
  425MOL0     N57257  11.167   7.868  11.449  0.5563 -0.4856 -1.0056
  425MOL0     C57258  11.302   7.903  11.456 -0.2580  0.6269  0.6010
  425MOL0     C57259  11.362   7.785  11.474 -1.1737  0.7155 -0.5527
  425MOL0     C57260  11.509   7.761  11.495 -0.1955  0.0355  0.8299
  425MOL0     C57261  11.608   7.853  11.414  0.3389 -0.3231 -0.4381
  425MOL0     C57262  11.756   7.818  11.443  0.4397 -0.6301  0.4007
  425MOL0     C57263  11.840   7.907  11.352 -0.1043 -0.0884 -0.5170
  425MOL0     O57264  11.971   7.861  11.321 -0.2215  0.0538 -0.8397
  425MOL0     C57265  12.076   7.913  11.402 -0.4254  0.1783  0.6202
  425MOL0     C57266  12.055   7.976  11.529  0.4900  0.0356 -0.7813
  425MOL0     C57267  12.162   8.017  11.606  0.1094 -0.0234  0.4398
  425MOL0     C57268  12.290   8.025  11.543  0.1526  0.9964 -0.6559
  425MOL0     C57269  12.408   8.105  11.600  0.7496 -0.3838 -0.5621
  425MOL0     O57270  12.374   8.212  11.685  0.8144  0.1570  0.2500
  425MOL0     C57271  12.475   8.268  11.762  0.2658  1.0560 -0.3210
  425MOL0     C57272  12.581   8.197  11.813 -0.5633 -0.5348  0.3965
  425MOL0     C57273  12.685   8.255  11.886  0.0402 -0.3924 -0.4727
  425MOL0     C57274  12.686   8.383  11.905 -0.3313 -0.4674 -0.1395
  425MOL0     O57275  12.794   8.439  11.967  0.5996 -0.1076  0.1619
  425MOL0     C57276  12.866   8.548  11.902 -0.2725 -0.3199  0.4008
  425MOL0     C57277  13.011   8.549  11.954  0.6219  0.0479 -0.3807
  425MOL0     C57278  13.083   8.682  11.918  0.7676  0.3689 -0.5844
  425MOL0     C57279  13.222   8.687  11.981 -1.2889  0.5431 -0.1408
  425MOL0     C57280  13.289   8.822  11.947 -0.2216 -0.7686  0.9601
  425MOL0     C57281  13.328   8.892  12.076  0.5734  0.3282 -1.0407
  425MOL0     C57282  13.401   9.021  12.052  0.7659  0.7257  0.1008
  425MOL0     C57283  13.403   9.120  12.160  0.2899  0.1473 -1.1337
  425MOL0    Cl57284  13.486   9.039  12.294 -0.3702 -0.1161  0.0194
  425MOL0     C57285  12.593   8.468  11.845  0.7998  0.0078 -0.0802
  425MOL0     C57286  12.482   8.410  11.771  0.6355  0.0611 -0.3705
  425MOL0     O57287  12.517   8.074  11.558  0.3701 -0.3619  0.2491
  425MOL0     C57288  12.312   7.963  11.415 -0.5053 -0.6012  0.3746
  425MOL0     C57289  12.206   7.911  11.350  0.4413 -0.2144  0.3329
  425MOL0     N57290  11.272   7.682  11.483 -0.2828 -0.3087 -0.1275
  425MOL0     N57291  11.154   7.736  11.472  0.0495  0.3532  0.6579
  425MOL0     C57292  10.511   7.717  10.736 -0.5020 -0.8940  0.6829
  425MOL0     C57293  10.428   7.621  10.686 -0.1825  0.7422 -0.6751
  425MOL0     C57294  10.120   7.408  10.408  0.1881 -0.1034 -0.2947
  425MOL0     C57295  10.133   7.283  10.476  0.0936 -0.1878 -0.7621
  425MOL0     C57296  10.067   7.169  10.438  1.0921  0.0912  0.0255
  425MOL0     C57297   9.983   7.161  10.326 -0.2867  0.3385 -0.7512
  425MOL0     O57298   9.909   7.054  10.277 -0.3130 -0.1567 -0.4251
  425MOL0     C57299   9.918   6.921  10.336 -0.4041  0.2939  0.1880
  425MOL0     C57300   9.882   6.815  10.230  0.7449 -0.3169 -0.0065
  425MOL0     C57301   9.953   6.816  10.099 -0.2064  0.0594 -0.5433
  425MOL0     C57302  10.102   6.817  10.107 -0.2401  0.4750  0.6162
  425MOL0     C57303  10.151   6.687  10.159 -0.1153  0.9374 -0.4156
  425MOL0     C57304  10.196   6.582  10.201  0.6666 -0.2059  0.5648
  425MOL0     C57305   9.970   7.280  10.259  0.1038  0.2185 -0.4968
  425MOL0     C57306  10.021   7.405  10.304  0.3007 -0.1189  0.7192
  425MOL0     C57307   9.986   7.519  10.227  0.3581  0.0403  0.4698
  425MOL0     H57308  10.192   7.821  10.545  0.3686  0.9881  0.4531
  425MOL0     H57309  10.319   7.983  10.639 -0.7767 -0.0219  3.4854
  425MOL0     H57310  10.447   8.122  10.857 -1.6374 -1.4456 -1.2320
  425MOL0     H57311  10.379   7.982  10.931 -0.1911  1.7991  2.0078
  425MOL0     H57312  10.548   8.088  11.074  1.2157 -0.5724  0.3735
  425MOL0     H57313  10.679   8.050  10.962 -0.1613  0.2638 -0.9298
  425MOL0     H57314  10.614   7.796  11.010 -2.2300  0.7652 -1.5742
  425MOL0     H57315  10.491   7.856  11.111  0.8518 -0.6610 -0.4597
  425MOL0     H57316  10.681   7.986  11.237  2.6469  0.4064 -1.2758
  425MOL0     H57317  10.667   7.811  11.264  0.3698 -0.0271  0.3426
  425MOL0     H57318  10.841   7.771  11.093 -1.6012  1.5366 -0.8189
  425MOL0     H57319  10.871   7.944  11.077  0.0888  2.4570  2.3995
  425MOL0     H57320  10.874   7.809  11.352  2.8480 -1.8422  1.6210
  425MOL0     H57321  11.000   7.766  11.247 -1.2339 -1.3097 -0.9103
  425MOL0     H57322  10.912   8.049  11.305 -0.3512  0.1872 -2.7743
  425MOL0     H57323  11.059   8.006  11.213 -0.3482  0.4423 -0.7031
  425MOL0     H57324  11.111   8.054  11.476 -0.4520  1.5849 -4.9282
  425MOL0     H57325  10.997   7.924  11.523 -2.3746 -1.6024 -1.8213
  425MOL0     H57326  11.339   8.005  11.453  1.2568  0.0830 -0.5813
  425MOL0     H57327  11.521   7.781  11.602 -1.2812  2.4818  0.5617
  425MOL0     H57328  11.535   7.657  11.473 -0.8235  0.0534 -0.0601
  425MOL0     H57329  11.583   7.845  11.308 -2.6491  0.8377  0.0914
  425MOL0     H57330  11.594   7.960  11.432  0.2525  0.0525 -2.5034
  425MOL0     H57331  11.766   7.713  11.416  0.6193 -0.8582  1.3331
  425MOL0     H57332  11.785   7.834  11.547 -0.5771 -0.9369  0.7367
  425MOL0     H57333  11.840   8.012  11.380 -1.3937 -0.5224  1.2546
  425MOL0     H57334  11.786   7.904  11.257  2.0447  1.1192 -1.8516
  425MOL0     H57335  11.957   7.975  11.576  0.3431 -1.0368 -1.0816
  425MOL0     H57336  12.140   8.046  11.708 -2.0423  1.9074 -0.4777
  425MOL0     H57337  12.582   8.089  11.806  2.8781 -0.6848  1.5542
  425MOL0     H57338  12.768   8.195  11.921  2.1040  0.4617 -3.5642
  425MOL0     H57339  12.856   8.558  11.794 -3.1336  0.4364  0.6569
  425MOL0     H57340  12.829   8.640  11.948  5.4327  1.9513  1.2501
  425MOL0     H57341  13.010   8.527  12.061 -0.0166 -0.2083 -0.4411
  425MOL0     H57342  13.047   8.462  11.899 -0.7175 -0.9484  0.2824
  425MOL0     H57343  13.081   8.701  11.810 -0.7042  1.7698 -0.3552
  425MOL0     H57344  13.020   8.759  11.964 -0.6417 -1.2311  0.2434
  425MOL0     H57345  13.285   8.606  11.944  0.1122  1.2894  0.5641
  425MOL0     H57346  13.211   8.668  12.088  1.4322  1.9095  0.4614
  425MOL0     H57347  13.218   8.878  11.886  0.7263  0.0491  0.5746
  425MOL0     H57348  13.375   8.812  11.880 -1.8053 -2.0746 -0.9806
  425MOL0     H57349  13.238   8.899  12.138  0.1437 -1.8899 -1.3209
  425MOL0     H57350  13.392   8.822  12.131  0.0892 -0.8171 -1.8879
  425MOL0     H57351  13.352   9.077  11.971 -1.0324  1.3992  1.6028
  425MOL0     H57352  13.501   8.998  12.013  0.1059 -1.0437 -0.6670
  425MOL0     H57353  13.465   9.202  12.122 -1.7523  0.8172 -3.2516
  425MOL0     H57354  13.299   9.142  12.185 -0.7195 -2.8104 -2.3277
  425MOL0     H57355  12.610   8.575  11.850  2.3516 -0.1680 -0.8422
  425MOL0     H57356  12.404   8.458  11.713  0.4883 -1.1112 -1.1646
  425MOL0     H57357  12.408   7.955  11.367 -1.5123 -0.1824 -1.8310
  425MOL0     H57358  12.216   7.868  11.251  0.5075 -0.7398  0.5646
  425MOL0     H57359  10.599   7.686  10.792  1.1160  0.9569 -0.6781
  425MOL0     H57360  10.461   7.518  10.695 -0.4377  0.6893 -0.3416
  425MOL0     H57361  10.198   7.292  10.563 -2.9385  3.6883  1.4271
  425MOL0     H57362  10.078   7.083  10.504  2.3709  0.6984  0.6323
  425MOL0     H57363   9.866   6.916  10.432 -0.1402  0.0103  0.3160
  425MOL0     H57364  10.021   6.895  10.358 -0.0265  2.1383  0.8165
  425MOL0     H57365   9.773   6.814  10.223  0.7321 -3.5196 -1.0801
  425MOL0     H57366   9.906   6.717  10.272 -1.9091 -1.0977 -0.1150
  425MOL0     H57367   9.930   6.916  10.061  0.2572 -0.0056 -1.0057
  425MOL0     H57368   9.908   6.743  10.031 -0.8634 -0.9101  0.8938
  425MOL0     H57369  10.137   6.838  10.005 -2.1002  3.4036  0.4717
  425MOL0     H57370  10.152   6.895  10.164  0.9796 -0.1279  0.3961
  425MOL0     H57371  10.228   6.485  10.235 -0.8809 -0.2158  2.1218
  425MOL0     H57372   9.891   7.279  10.184 -0.2080  2.1013 -0.2569
  425MOL0     H57373   9.877   7.515  10.219  0.0810 -1.1124  3.3570
  425MOL0     H57374  10.009   7.615  10.274 -0.5442  2.3168 -3.2770
  425MOL0     H57375  10.039   7.518  10.132  2.6546  1.5769  1.6507
  426MOL0     O57376   1.543  11.270   7.256  0.1814  0.2956  0.5108
  426MOL0     C57377   1.536  11.307   7.141  0.0276  0.0021  0.1041
  426MOL0     O57378   1.645  11.323   7.054  1.1178 -0.3264  1.0955
  426MOL0     C57379   1.765  11.313   7.115 -0.0765  0.8237 -0.8425
  426MOL0     C57380   1.820  11.423   7.187  0.1624  0.3307  0.6834
  426MOL0     C57381   1.949  11.417   7.235  0.6705 -0.2364  0.2448
  426MOL0     C57382   2.022  11.296   7.212  0.2617 -0.3518  0.1033
  426MOL0     O57383   2.152  11.279   7.256  0.1725  0.3332 -0.1168
  426MOL0     C57384   2.228  11.388   7.296 -0.3332 -0.2061 -0.0991
  426MOL0     C57385   2.380  11.379   7.271 -0.2843 -0.6395  0.4410
  426MOL0     C57386   2.451  11.471   7.368  0.0596 -0.2331 -0.2560
  426MOL0     C57387   2.602  11.462   7.352 -0.5132  0.1968 -1.3060
  426MOL0     C57388   2.682  11.566   7.435 -0.3274 -0.4325  1.1000
  426MOL0     C57389   2.834  11.573   7.411 -1.0896  0.4272  0.5549
  426MOL0     C57390   2.912  11.636   7.529 -0.2142  0.6503  0.3633
  426MOL0     C57391   3.068  11.637   7.519 -0.9178  0.9388 -0.3537
  426MOL0     N57392   3.125  11.745   7.439 -0.6731  1.3030  0.0168
  426MOL0     C57393   3.160  11.864   7.495 -0.5661 -0.5126  0.7324
  426MOL0     C57394   3.229  11.923   7.389  0.8609  0.0877  0.4137
  426MOL0     C57395   3.308  12.050   7.394 -0.5081  0.3776 -0.3441
  426MOL0     C57396   3.454  12.042   7.444  0.0182  0.7586 -0.4832
  426MOL0     C57397   3.545  11.948   7.369  0.5178 -0.1588  0.0328
  426MOL0     C57398   3.608  12.002   7.238  0.1200  0.2508 -0.4739
  426MOL0     O57399   3.690  11.902   7.182  0.0530  0.0297  0.1913
  426MOL0     C57400   3.827  11.914   7.171 -0.2847  0.0049 -0.5785
  426MOL0     C57401   3.885  11.795   7.134 -0.0655  0.9745  0.2732
  426MOL0     C57402   4.026  11.780   7.122 -1.5325  0.0502 -0.4646
  426MOL0     C57403   4.109  11.878   7.166 -0.6267  0.0976  0.5489
  426MOL0     C57404   4.260  11.852   7.163  0.8149 -0.3620  0.9372
  426MOL0     O57405   4.339  11.957   7.148  0.3846  0.4337  0.3199
  426MOL0     C57406   4.480  11.954   7.161 -0.2354 -0.2586  0.4908
  426MOL0     C57407   4.538  11.877   7.249  0.2766 -0.9890 -0.6258
  426MOL0     C57408   4.683  11.854   7.260  0.2575  0.0622  0.6782
  426MOL0     C57409   4.764  11.920   7.164 -1.0495 -0.3059 -1.1358
  426MOL0     O57410   4.898  11.907   7.155  0.2824  0.0636  0.0450
  426MOL0     C57411   4.979  11.833   7.247 -0.7231 -0.9129 -0.3385
  426MOL0     C57412   5.128  11.826   7.192  0.5727  0.4531  0.1056
  426MOL0     C57413   5.219  11.783   7.316  0.0943  0.2156 -0.1111
  426MOL0     C57414   5.360  11.757   7.272 -0.1470 -0.4476  0.0903
  426MOL0     C57415   5.422  11.875   7.200 -0.4829 -0.2952  0.6101
  426MOL0     C57416   5.574  11.864   7.195  0.7917  0.5351  0.0943
  426MOL0     C57417   5.647  11.984   7.118 -0.1756 -0.2371 -0.1564
  426MOL0     C57418   5.799  11.950   7.109 -1.0164  0.1320  0.2831
  426MOL0    Cl57419   5.900  12.042   7.236  0.2448 -0.8031  0.0366
  426MOL0     C57420   4.702  12.000   7.069 -0.4300 -0.2821  0.5738
  426MOL0     C57421   4.561  12.015   7.071  0.0581  0.2081  0.1104
  426MOL0     O57422   4.286  11.737   7.192  0.1240 -0.3606  0.0776
  426MOL0     C57423   4.057  12.000   7.199 -0.1581  0.3822  0.9454
  426MOL0     C57424   3.914  12.022   7.204 -1.2219  0.1181 -0.8551
  426MOL0     N57425   3.218  11.842   7.274  0.3419  0.2302 -0.3704
  426MOL0     N57426   3.161  11.728   7.317 -0.2812 -0.6590  0.3416
  426MOL0     C57427   1.961  11.185   7.149 -0.8628 -0.0583 -1.0222
  426MOL0     C57428   1.839  11.193   7.100  0.4127 -1.0546 -1.5404
  426MOL0     C57429   1.401  11.347   7.094 -0.5022  0.5020  0.4001
  426MOL0     C57430   1.402  11.393   6.961  0.8597 -0.3005 -0.7950
  426MOL0     C57431   1.285  11.440   6.900  0.6969  0.5057 -0.4041
  426MOL0     C57432   1.158  11.430   6.971 -0.5912 -0.1705  0.1082
  426MOL0     O57433   1.043  11.483   6.919  0.5821 -0.3217  0.0359
  426MOL0     C57434   1.026  11.511   6.779 -0.0835 -0.7609  0.4581
  426MOL0     C57435   0.880  11.548   6.750 -0.8861  0.3109 -0.0812
  426MOL0     C57436   0.773  11.454   6.778  0.6026  1.0506 -0.7726
  426MOL0     C57437   0.765  11.341   6.678  0.7601 -0.0960 -0.4877
  426MOL0     C57438   0.720  11.376   6.543 -0.3013 -0.8615  0.8347
  426MOL0     C57439   0.692  11.439   6.450 -0.0276 -0.5653  0.6224
  426MOL0     C57440   1.156  11.364   7.098 -0.8074 -0.0834 -0.1097
  426MOL0     C57441   1.275  11.315   7.159 -0.5755 -0.2466 -0.7065
  426MOL0     C57442   1.253  11.223   7.286 -0.3517 -0.4225  0.9701
  426MOL0     H57443   1.764  11.514   7.207  0.9770  0.7603  1.0569
  426MOL0     H57444   1.990  11.480   7.313  0.0888 -3.6337  3.5385
  426MOL0     H57445   2.202  11.484   7.249  1.9184  0.3933 -0.2537
  426MOL0     H57446   2.197  11.410   7.399 -2.4078  1.2585 -0.9504
  426MOL0     H57447   2.412  11.406   7.170  2.0683  0.4914  1.4164
  426MOL0     H57448   2.400  11.272   7.282  1.0514 -0.4592 -0.1073
  426MOL0     H57449   2.429  11.431   7.467  4.1475 -0.3421  0.7642
  426MOL0     H57450   2.419  11.575   7.357  0.5311 -0.1228 -0.5953
  426MOL0     H57451   2.629  11.364   7.393  2.9816  0.6587 -2.1303
  426MOL0     H57452   2.637  11.466   7.249  1.4208  0.2800 -0.6904
  426MOL0     H57453   2.652  11.669   7.412  0.3790 -0.5350 -0.4099
  426MOL0     H57454   2.658  11.556   7.541  0.1855  0.7048  1.3429
  426MOL0     H57455   2.863  11.467   7.402  0.3551  0.8508 -0.0114
  426MOL0     H57456   2.842  11.608   7.308 -0.0759 -0.8934  0.1585
  426MOL0     H57457   2.893  11.577   7.619  0.4083 -0.9638 -0.5045
  426MOL0     H57458   2.868  11.732   7.556 -1.7270 -0.1361  0.7762
  426MOL0     H57459   3.109  11.655   7.618 -1.1997 -1.2608  0.2004
  426MOL0     H57460   3.101  11.542   7.477 -2.8403 -0.4055  1.0280
  426MOL0     H57461   3.135  11.893   7.597 -0.4538 -1.7469  1.1325
  426MOL0     H57462   3.299  12.091   7.293 -0.8265 -3.4336 -2.0509
  426MOL0     H57463   3.246  12.111   7.461 -2.5495 -0.5866 -1.2514
  426MOL0     H57464   3.501  12.140   7.455 -0.4622  0.7208  2.6623
  426MOL0     H57465   3.438  12.011   7.548 -0.1566 -2.1917 -1.2953
  426MOL0     H57466   3.507  11.849   7.344  3.4682 -1.5762  0.7309
  426MOL0     H57467   3.634  11.929   7.428 -0.1368 -0.4325  0.9587
  426MOL0     H57468   3.663  12.096   7.245  0.2626  0.1754 -0.5636
  426MOL0     H57469   3.534  12.029   7.162 -0.7546  0.2732  0.3716
  426MOL0     H57470   3.809  11.723   7.102 -1.2243  2.2804 -0.0305
  426MOL0     H57471   4.063  11.682   7.092 -2.3189  0.1173 -1.6781
  426MOL0     H57472   4.461  11.833   7.312 -0.7862  0.5894 -0.7500
  426MOL0     H57473   4.719  11.793   7.342 -1.4297 -2.1646 -0.1438
  426MOL0     H57474   4.968  11.885   7.343 -2.5988 -1.4862 -0.2233
  426MOL0     H57475   4.942  11.731   7.254  0.8743 -1.5901 -1.1888
  426MOL0     H57476   5.143  11.752   7.114 -0.4161 -1.4261  1.6055
  426MOL0     H57477   5.152  11.926   7.154 -2.1750  0.6074 -1.4480
  426MOL0     H57478   5.220  11.862   7.391 -2.8869 -0.7242  1.0936
  426MOL0     H57479   5.179  11.694   7.366 -1.4149  2.0271  2.0660
  426MOL0     H57480   5.363  11.673   7.202 -0.0172  2.0445 -3.1390
  426MOL0     H57481   5.416  11.753   7.366 -2.4445 -1.8598  1.4948
  426MOL0     H57482   5.407  11.966   7.260 -0.1644  1.0686 -1.2632
  426MOL0     H57483   5.377  11.888   7.101  0.5862 -0.7522  0.0492
  426MOL0     H57484   5.600  11.871   7.301  6.1149 -1.0361 -0.7883
  426MOL0     H57485   5.586  11.765   7.150 -1.6577  0.3141 -0.2051
  426MOL0     H57486   5.630  12.080   7.168 -1.6416 -0.7576  0.4035
  426MOL0     H57487   5.615  11.990   7.014 -2.3169  0.7451  0.5193
  426MOL0     H57488   5.816  11.843   7.127 -0.2776  0.4125  1.3426
  426MOL0     H57489   5.823  11.970   7.005 -0.7147 -1.4417  0.0310
  426MOL0     H57490   4.758  12.055   6.994  0.8965 -1.0605  0.9620
  426MOL0     H57491   4.512  12.068   6.990 -0.9419  0.1976  0.6941
  426MOL0     H57492   4.138  12.069   7.218  1.2806 -0.4783 -1.6659
  426MOL0     H57493   3.884  12.117   7.247  2.0782 -0.3014  2.9448
  426MOL0     H57494   2.016  11.091   7.143 -1.4697 -0.4342 -0.8028
  426MOL0     H57495   1.795  11.111   7.043 -1.8486 -1.0751  0.0585
  426MOL0     H57496   1.495  11.422   6.913  2.9404 -0.7608  2.6589
  426MOL0     H57497   1.298  11.494   6.807 -2.2730 -0.6342 -1.6006
  426MOL0     H57498   1.053  11.418   6.727  1.4500  0.6554 -1.4708
  426MOL0     H57499   1.092  11.589   6.740  0.3462 -1.6622 -0.7068
  426MOL0     H57500   0.878  11.575   6.644  0.9453 -1.1432 -0.5332
  426MOL0     H57501   0.865  11.638   6.810  2.2894 -0.5051  2.1639
  426MOL0     H57502   0.681  11.514   6.774 -1.7354 -2.2210 -0.2200
  426MOL0     H57503   0.781  11.410   6.877 -4.0281 -2.1324 -1.4662
  426MOL0     H57504   0.870  11.312   6.665  1.1334 -0.6646  2.7753
  426MOL0     H57505   0.701  11.261   6.716  1.0786  0.3356  1.0501
  426MOL0     H57506   0.673  11.495   6.361  0.6637  0.5545  1.1622
  426MOL0     H57507   1.065  11.352   7.156  0.6091 -0.0840  2.2402
  426MOL0     H57508   1.147  11.235   7.311 -0.7688  3.2079 -1.7402
  426MOL0     H57509   1.260  11.118   7.254  0.0947  0.0862 -0.6927
  426MOL0     H57510   1.320  11.247   7.369  0.8548 -1.6020  0.3779
  427MOL0     O57511   2.142   9.657   1.326  0.9715  0.6831 -0.0097
  427MOL0     C57512   2.070   9.687   1.234 -0.3833 -0.0909  0.2816
  427MOL0     O57513   2.029   9.602   1.138 -0.7847 -0.0579 -0.4742
  427MOL0     C57514   1.948   9.489   1.168 -0.3774 -0.0296 -0.2610
  427MOL0     C57515   2.003   9.368   1.122  0.5455  0.4991 -0.4997
  427MOL0     C57516   1.936   9.243   1.136 -0.2036  0.9988 -0.6473
  427MOL0     C57517   1.800   9.247   1.172 -0.1501 -0.1545 -0.4645
  427MOL0     O57518   1.726   9.131   1.182  0.3357 -0.2622  0.3536
  427MOL0     C57519   1.634   9.112   1.074  0.0813  0.4535 -0.7445
  427MOL0     C57520   1.489   9.169   1.104 -0.3648 -0.3510  0.0185
  427MOL0     C57521   1.395   9.056   1.156  0.4215 -0.5689 -0.3386
  427MOL0     C57522   1.450   9.006   1.291  0.9206  0.2371 -0.0308
  427MOL0     C57523   1.484   8.862   1.300 -0.4835  0.6080  0.2496
  427MOL0     C57524   1.551   8.810   1.427 -0.2843 -0.1340 -0.7774
  427MOL0     C57525   1.700   8.838   1.442  0.3204 -0.2182 -0.2054
  427MOL0     C57526   1.744   8.773   1.571  0.6451  0.6193  0.0564
  427MOL0     N57527   1.793   8.633   1.563 -0.8760 -0.0735  0.4555
  427MOL0     C57528   1.920   8.592   1.609  0.1275  0.4214  1.4910
  427MOL0     C57529   1.916   8.455   1.597  0.3590  0.5949  0.9125
  427MOL0     C57530   2.024   8.362   1.644 -0.2321 -0.1525 -0.5709
  427MOL0     C57531   2.158   8.391   1.581 -0.7846 -0.7088  0.3088
  427MOL0     C57532   2.266   8.299   1.637 -0.0393  0.1885  0.1841
  427MOL0     C57533   2.420   8.339   1.626  0.2985 -0.1175  0.4297
  427MOL0     O57534   2.511   8.218   1.600 -0.0023 -0.6232  0.4680
  427MOL0     C57535   2.644   8.221   1.603 -0.3913 -0.6920  0.5898
  427MOL0     C57536   2.725   8.337   1.572  0.1583  0.7187 -0.6866
  427MOL0     C57537   2.865   8.334   1.595  0.4244 -0.1851 -0.1919
  427MOL0     C57538   2.923   8.212   1.640 -0.5423  0.5554  0.5501
  427MOL0     C57539   3.066   8.208   1.683  0.1654  0.4853 -1.1928
  427MOL0     O57540   3.119   8.092   1.725 -0.3437  0.5077  0.0565
  427MOL0     C57541   3.252   8.078   1.761  0.8667  0.4352 -0.9740
  427MOL0     C57542   3.315   7.953   1.747  0.3050  0.4095  0.7057
  427MOL0     C57543   3.450   7.935   1.775  0.7971 -0.2467 -0.8296
  427MOL0     C57544   3.526   8.029   1.843 -0.0202 -0.4844  0.2477
  427MOL0     O57545   3.652   7.987   1.881 -0.3131  0.8956  0.3179
  427MOL0     C57546   3.723   8.080   1.963 -0.2474 -0.6241 -0.0802
  427MOL0     C57547   3.694   8.068   2.121  0.9476  0.3824 -0.4959
  427MOL0     C57548   3.805   7.982   2.196  0.0842 -0.2212 -0.3338
  427MOL0     C57549   3.767   7.917   2.332  0.6137 -0.2019 -0.5351
  427MOL0     C57550   3.876   7.834   2.409 -0.8254  0.2964  0.3452
  427MOL0     C57551   3.893   7.700   2.331 -0.6490  0.2916 -0.4799
  427MOL0     C57552   3.943   7.583   2.420  0.4651 -0.2046 -0.5824
  427MOL0     C57553   3.952   7.445   2.363 -0.1730 -0.0248  0.4059
  427MOL0    Cl57554   4.089   7.415   2.259  0.3552  0.3491  0.4243
  427MOL0     C57555   3.465   8.149   1.870  0.0040 -0.9652  0.3445
  427MOL0     C57556   3.324   8.165   1.848  0.4285 -0.8787 -0.1105
  427MOL0     O57557   3.130   8.318   1.675 -0.1764  0.1203  0.5002
  427MOL0     C57558   2.847   8.099   1.655 -0.1762  0.4935  0.7893
  427MOL0     C57559   2.710   8.104   1.636 -1.0315  0.0095  0.1837
  427MOL0     N57560   1.805   8.414   1.534  0.6327  0.0060  0.1387
  427MOL0     N57561   1.724   8.521   1.520 -0.6486  0.4408 -0.3029
  427MOL0     C57562   1.744   9.370   1.211 -0.6280 -0.2803 -0.2393
  427MOL0     C57563   1.819   9.490   1.216  0.2496 -0.7527 -0.1963
  427MOL0     C57564   2.020   9.835   1.233 -0.7620  0.8128  0.4080
  427MOL0     C57565   2.075   9.919   1.324  0.4656 -0.8199  0.4549
  427MOL0     C57566   2.045  10.055   1.338  0.6541  0.6950 -0.1786
  427MOL0     C57567   1.943  10.110   1.252 -0.5262 -0.1208 -0.1002
  427MOL0     O57568   1.903  10.237   1.257 -0.2244 -0.3860 -0.6221
  427MOL0     C57569   1.884  10.291   1.384 -0.3681  0.2426  0.7985
  427MOL0     C57570   1.802  10.412   1.355  0.8044 -0.1822  0.1311
  427MOL0     C57571   1.741  10.461   1.487  0.5227 -0.0075 -1.3800
  427MOL0     C57572   1.620  10.542   1.473  1.4223 -0.3160  0.3634
  427MOL0     C57573   1.562  10.590   1.600  0.4351  0.6822  0.4263
  427MOL0     C57574   1.520  10.617   1.708 -0.8825 -0.5230  0.7843
  427MOL0     C57575   1.887  10.023   1.157  1.1654  0.3602 -0.0080
  427MOL0     C57576   1.923   9.890   1.151 -0.2615  0.5931 -0.1440
  427MOL0     C57577   1.867   9.811   1.032  0.2131  0.8710  0.0935
  427MOL0     H57578   2.109   9.363   1.097  0.6528  0.1941 -0.0087
  427MOL0     H57579   1.991   9.150   1.126  0.4566  1.1805  1.0419
  427MOL0     H57580   1.674   9.156   0.982 -1.2437  1.7061 -0.7468
  427MOL0     H57581   1.623   9.004   1.060  0.3139  0.7300 -3.6612
  427MOL0     H57582   1.452   9.211   1.010  0.3115 -0.3567 -0.2502
  427MOL0     H57583   1.475   9.254   1.172 -1.1789 -1.0287  0.7176
  427MOL0     H57584   1.379   8.978   1.081 -0.0022 -0.3548 -0.4761
  427MOL0     H57585   1.301   9.111   1.172  0.8821  0.1059  0.1016
  427MOL0     H57586   1.529   9.075   1.322  0.0198  1.9725 -1.4837
  427MOL0     H57587   1.376   9.016   1.371  0.6781 -0.7969 -0.1038
  427MOL0     H57588   1.400   8.794   1.285  1.1067 -1.2150 -0.8159
  427MOL0     H57589   1.567   8.848   1.231  1.3912  0.0664  2.4740
  427MOL0     H57590   1.493   8.846   1.513 -0.6026  1.8634 -1.7617
  427MOL0     H57591   1.544   8.702   1.415  1.9118 -0.2392 -1.5136
  427MOL0     H57592   1.729   8.943   1.451  1.7685 -0.3391 -2.7095
  427MOL0     H57593   1.760   8.799   1.359  3.0311  1.8646  0.6583
  427MOL0     H57594   1.826   8.833   1.611 -0.3481  3.3237 -1.6758
  427MOL0     H57595   1.668   8.777   1.649  0.8535 -3.0861  0.6340
  427MOL0     H57596   2.001   8.651   1.649  2.1778  0.0426 -1.7541
  427MOL0     H57597   2.022   8.395   1.749  0.5953 -0.1472 -0.5546
  427MOL0     H57598   1.993   8.257   1.641 -1.6099  0.2514 -1.8001
  427MOL0     H57599   2.150   8.380   1.473  1.3460  1.3664 -0.1300
  427MOL0     H57600   2.192   8.493   1.599  0.3119 -1.1490  0.8452
  427MOL0     H57601   2.240   8.204   1.589 -1.2834 -0.7384  2.5482
  427MOL0     H57602   2.251   8.291   1.745  0.1111 -0.9575  0.1277
  427MOL0     H57603   2.457   8.402   1.708  0.0241 -0.5730  0.9100
  427MOL0     H57604   2.425   8.400   1.535  1.0386 -0.5446  0.1804
  427MOL0     H57605   2.675   8.429   1.543 -1.2505  0.0446 -0.4438
  427MOL0     H57606   2.923   8.426   1.598 -0.6974  0.6119  4.1838
  427MOL0     H57607   3.271   7.882   1.677  1.2668  3.0547 -2.8530
  427MOL0     H57608   3.488   7.834   1.761  1.9067 -0.1074  0.9154
  427MOL0     H57609   3.828   8.052   1.954  1.0391  2.6121  2.6970
  427MOL0     H57610   3.716   8.184   1.930 -1.5409 -0.9955 -1.0710
  427MOL0     H57611   3.693   8.173   2.151 -2.0261  0.4735 -0.6619
  427MOL0     H57612   3.594   8.032   2.146  1.6063 -1.5923 -0.5238
  427MOL0     H57613   3.839   7.899   2.133 -1.0857 -2.2854  1.5877
  427MOL0     H57614   3.899   8.036   2.211 -0.6732  1.0964 -0.1992
  427MOL0     H57615   3.669   7.869   2.321  0.4019  0.0862  0.0443
  427MOL0     H57616   3.733   8.001   2.394 -0.3114 -1.3985  0.6268
  427MOL0     H57617   3.849   7.812   2.512 -0.2661 -1.2564  0.1844
  427MOL0     H57618   3.970   7.890   2.414 -1.9445  2.1361  2.6490
  427MOL0     H57619   3.799   7.678   2.279 -2.0110  0.3653  1.8375
  427MOL0     H57620   3.972   7.721   2.257  3.9823 -0.0866  3.8564
  427MOL0     H57621   3.886   7.578   2.513  1.0542  1.1685 -0.1202
  427MOL0     H57622   4.046   7.609   2.447  0.1744  2.2452 -1.5631
  427MOL0     H57623   3.955   7.376   2.447 -0.0920  2.1595  2.3167
  427MOL0     H57624   3.861   7.430   2.305 -0.3174  0.1347  0.5887
  427MOL0     H57625   3.512   8.226   1.929  0.5718 -1.9046  1.1431
  427MOL0     H57626   3.277   8.259   1.876  1.0009 -0.5963 -0.0923
  427MOL0     H57627   2.889   8.010   1.700  0.4762 -0.3081 -1.2478
  427MOL0     H57628   2.650   8.014   1.642  0.2912 -1.0851 -1.7988
  427MOL0     H57629   1.644   9.377   1.253 -0.6667 -0.4164 -0.3083
  427MOL0     H57630   1.771   9.585   1.237  0.1359 -0.9649  0.5354
  427MOL0     H57631   2.146   9.877   1.394  0.0815 -1.7084  0.3154
  427MOL0     H57632   2.081  10.112   1.423 -4.5081  2.9561  0.9248
  427MOL0     H57633   1.982  10.315   1.427  0.1122 -0.6935  0.2529
  427MOL0     H57634   1.832  10.233   1.461 -1.4953 -0.3605 -0.3715
  427MOL0     H57635   1.721  10.384   1.287  0.5445 -0.2248  0.4584
  427MOL0     H57636   1.857  10.490   1.303 -1.3678 -0.5336 -2.9406
  427MOL0     H57637   1.824  10.511   1.538 -1.6962 -0.5892  3.2849
  427MOL0     H57638   1.720  10.376   1.553 -1.5898  0.1130 -1.8263
  427MOL0     H57639   1.643  10.620   1.400 -2.3990  1.3957  0.7522
  427MOL0     H57640   1.533  10.489   1.432  0.7493  1.2691 -0.3535
  427MOL0     H57641   1.490  10.634   1.809 -1.3297  1.6422  0.3174
  427MOL0     H57642   1.819  10.069   1.085  0.8651 -1.0771 -0.6766
  427MOL0     H57643   1.805   9.877   0.971  0.6414  2.3174  1.1450
  427MOL0     H57644   1.947   9.770   0.970  2.0403  3.0103  0.8647
  427MOL0     H57645   1.799   9.727   1.052 -2.2314  3.0807  1.8820
  428MOL0     O57646   1.223   1.905   2.485  0.5180  0.7146  0.4513
  428MOL0     C57647   1.276   1.790   2.469 -0.1999  0.1315 -0.1202
  428MOL0     O57648   1.373   1.737   2.533  0.1675 -0.2206  0.4301
  428MOL0     C57649   1.431   1.799   2.640 -1.0973  0.0103  0.5710
  428MOL0     C57650   1.365   1.874   2.742 -0.3210  0.0324  0.6013
  428MOL0     C57651   1.439   1.923   2.850 -0.7326 -0.1741  0.1041
  428MOL0     C57652   1.570   1.899   2.861 -0.4216 -0.4593  0.2153
  428MOL0     O57653   1.638   1.957   2.960 -0.5249  0.6484  0.0589
  428MOL0     C57654   1.778   1.959   2.976 -0.4010  0.4866 -0.6719
  428MOL0     C57655   1.836   2.013   3.107 -0.8764 -1.1305  0.4979
  428MOL0     C57656   1.982   2.051   3.092  0.3181  0.3340  0.6530
  428MOL0     C57657   2.088   1.942   3.072  0.9442 -0.1295  0.1812
  428MOL0     C57658   2.230   1.998   3.071 -0.3764 -0.2508 -0.5335
  428MOL0     C57659   2.264   2.062   2.938 -0.4757  0.0103  0.4706
  428MOL0     C57660   2.410   2.065   2.927 -0.1904  0.2562  1.1346
  428MOL0     C57661   2.447   2.101   2.781 -0.4381 -0.2688 -0.2291
  428MOL0     N57662   2.584   2.114   2.759 -0.3566  0.0307  0.0549
  428MOL0     C57663   2.642   2.139   2.641  0.7182  0.2029  1.0528
  428MOL0     C57664   2.772   2.152   2.662  0.7921  0.5805 -0.9295
  428MOL0     C57665   2.887   2.196   2.569  0.7469  0.5057 -0.1430
  428MOL0     C57666   2.957   2.061   2.530 -0.7568  0.2193 -0.3836
  428MOL0     C57667   3.052   2.085   2.412  0.0440  0.0069 -0.1647
  428MOL0     C57668   3.186   2.159   2.435 -0.1679 -0.4133  0.1476
  428MOL0     O57669   3.167   2.292   2.394  0.3382 -0.1396  0.0670
  428MOL0     C57670   3.289   2.363   2.385 -0.2326 -0.7831  0.3083
  428MOL0     C57671   3.298   2.497   2.451 -0.0178  0.2331  0.0717
  428MOL0     C57672   3.417   2.577   2.448 -0.4487 -0.6567 -0.1755
  428MOL0     C57673   3.526   2.530   2.377 -0.0769 -0.9907 -0.7339
  428MOL0     C57674   3.650   2.620   2.364  1.3294 -1.0268 -0.1801
  428MOL0     O57675   3.763   2.557   2.315 -0.4162 -0.1255  0.8554
  428MOL0     C57676   3.863   2.637   2.254  0.6087  0.6032 -0.6915
  428MOL0     C57677   3.847   2.741   2.162  0.6935  0.9302 -0.4217
  428MOL0     C57678   3.958   2.798   2.100  0.5635  0.9885 -0.5240
  428MOL0     C57679   4.083   2.738   2.125  0.0751  1.3652  0.0427
  428MOL0     O57680   4.185   2.769   2.040 -0.1864  0.1408  0.1867
  428MOL0     C57681   4.214   2.909   2.028 -0.5699 -0.1481  0.0045
  428MOL0     C57682   4.348   2.945   1.962 -0.2524 -0.5196  0.2697
  428MOL0     C57683   4.384   3.089   1.986  0.3320  0.4969  0.3992
  428MOL0     C57684   4.538   3.112   1.957 -0.3304  0.1883 -0.1099
  428MOL0     C57685   4.576   3.256   1.930 -0.2403 -0.4250 -0.2746
  428MOL0     C57686   4.597   3.340   2.064  0.8575 -0.4622 -0.6455
  428MOL0     C57687   4.623   3.490   2.014 -0.0805 -0.0435 -0.0874
  428MOL0     C57688   4.621   3.574   2.137  0.2807  0.2911  0.1595
  428MOL0    Cl57689   4.778   3.563   2.218  0.6592  0.5586 -0.1892
  428MOL0     C57690   4.099   2.626   2.203 -0.3245 -0.0787  0.0650
  428MOL0     C57691   3.990   2.575   2.265 -0.4030 -0.9221 -0.1107
  428MOL0     O57692   3.642   2.740   2.387  0.3686 -0.4513  0.3339
  428MOL0     C57693   3.518   2.408   2.320 -0.0312 -0.2172  1.1378
  428MOL0     C57694   3.406   2.327   2.319 -0.4268  0.6964  0.0648
  428MOL0     N57695   2.800   2.113   2.798  0.1107 -1.0715  0.8744
  428MOL0     N57696   2.685   2.089   2.853  0.1078 -0.7181  0.5405
  428MOL0     C57697   1.631   1.811   2.779 -0.4755  1.2518  0.9005
  428MOL0     C57698   1.565   1.765   2.661 -0.2926 -0.0816 -0.2457
  428MOL0     C57699   1.232   1.697   2.360 -0.1126  0.3159  1.5062
  428MOL0     C57700   1.274   1.559   2.363  0.2097  0.6519  0.0726
  428MOL0     C57701   1.217   1.471   2.273 -0.4627  0.2755 -0.2557
  428MOL0     C57702   1.132   1.505   2.170 -0.6372 -0.0972  0.9210
  428MOL0     O57703   1.086   1.390   2.110 -0.2508 -0.2118  0.1649
  428MOL0     C57704   0.985   1.413   2.011  0.2525 -0.7447  0.3911
  428MOL0     C57705   0.849   1.436   2.081  0.5412 -0.6266  0.0242
  428MOL0     C57706   0.730   1.412   1.979 -0.0056 -0.1297 -0.4274
  428MOL0     C57707   0.692   1.264   1.977  0.3321 -0.5741 -0.0054
  428MOL0     C57708   0.647   1.226   1.851  0.3176 -0.2918  1.0884
  428MOL0     C57709   0.606   1.208   1.734 -1.0178  0.3962  0.0928
  428MOL0     C57710   1.101   1.640   2.152  0.1491 -0.3748 -0.1737
  428MOL0     C57711   1.143   1.734   2.253  0.1050 -0.5139 -1.4686
  428MOL0     C57712   1.104   1.881   2.232  0.9034  0.2344  0.4068
  428MOL0     H57713   1.259   1.898   2.746 -0.6663 -1.4540  2.4221
  428MOL0     H57714   1.380   1.992   2.909 -0.6578  1.8678 -2.0830
  428MOL0     H57715   1.813   1.855   2.969 -0.6689  0.3815 -0.4447
  428MOL0     H57716   1.821   2.009   2.889  0.7582  1.1511  0.2548
  428MOL0     H57717   1.806   1.950   3.191 -2.5480  0.7851  1.4469
  428MOL0     H57718   1.780   2.105   3.130 -0.6372 -0.2786 -2.0752
  428MOL0     H57719   2.014   2.112   3.177  2.6679 -1.0001  0.7959
  428MOL0     H57720   1.988   2.114   3.002 -0.3781 -0.9668 -0.3284
  428MOL0     H57721   2.085   1.872   3.156 -0.6530 -0.9161 -0.4813
  428MOL0     H57722   2.065   1.894   2.977  3.5435  0.1948 -0.6760
  428MOL0     H57723   2.243   2.059   3.161  2.9739  0.5402 -1.4272
  428MOL0     H57724   2.293   1.909   3.080 -0.4881 -0.2263  0.6761
  428MOL0     H57725   2.230   1.993   2.860 -2.0271  1.0403  0.1927
  428MOL0     H57726   2.216   2.157   2.916  1.5473  1.4899  2.0492
  428MOL0     H57727   2.453   1.967   2.950 -1.1049 -0.5084 -0.2219
  428MOL0     H57728   2.456   2.144   2.986 -1.1040  0.6039  1.3980
  428MOL0     H57729   2.418   2.024   2.709  0.6652  0.1948 -1.1913
  428MOL0     H57730   2.395   2.195   2.762 -2.0780 -0.1820  3.6210
  428MOL0     H57731   2.595   2.151   2.544  1.0241 -3.7115  0.2608
  428MOL0     H57732   2.841   2.239   2.480 -0.1897 -3.3698 -1.7566
  428MOL0     H57733   2.958   2.263   2.619  1.3624 -1.0326  1.1358
  428MOL0     H57734   3.002   2.020   2.622 -2.7844 -0.8600  0.1847
  428MOL0     H57735   2.894   1.980   2.491  1.5010 -0.8932 -1.9384
  428MOL0     H57736   2.991   2.135   2.335  0.0816 -1.9344 -1.5292
  428MOL0     H57737   3.071   1.987   2.368 -1.3064 -0.8705  1.1112
  428MOL0     H57738   3.277   2.119   2.390  0.3607  0.2922  0.5777
  428MOL0     H57739   3.201   2.171   2.543 -1.5737  2.0232  0.1541
  428MOL0     H57740   3.216   2.540   2.508  1.1525  3.0469 -0.2221
  428MOL0     H57741   3.439   2.669   2.500  2.1021 -0.7065 -1.0263
  428MOL0     H57742   3.744   2.766   2.138  0.1657  2.0087  2.5196
  428MOL0     H57743   3.956   2.872   2.020 -0.6121 -0.0778 -1.5203
  428MOL0     H57744   4.144   2.968   1.968  2.2075  1.9180 -1.4787
  428MOL0     H57745   4.218   2.952   2.128 -0.1952 -0.9007  0.3208
  428MOL0     H57746   4.428   2.887   2.009  0.9633  0.8673 -0.0263
  428MOL0     H57747   4.359   2.926   1.855  0.7796  1.8788 -0.1194
  428MOL0     H57748   4.313   3.150   1.930 -1.0113 -0.8554  0.5746
  428MOL0     H57749   4.369   3.108   2.093 -0.7055 -4.4146  1.3965
  428MOL0     H57750   4.564   3.055   1.867  2.4219  3.7751 -1.8223
  428MOL0     H57751   4.603   3.074   2.036  2.5916 -0.4718 -2.6304
  428MOL0     H57752   4.498   3.299   1.867 -0.0164 -0.0285 -0.2877
  428MOL0     H57753   4.675   3.243   1.886  0.2526  0.7983  0.4103
  428MOL0     H57754   4.497   3.339   2.110  0.2466  2.6243 -1.7067
  428MOL0     H57755   4.675   3.298   2.128 -1.6751 -2.8684  1.1264
  428MOL0     H57756   4.536   3.506   1.949 -0.3677  1.4960  0.6316
  428MOL0     H57757   4.720   3.496   1.964  1.3685 -1.0526  2.4099
  428MOL0     H57758   4.604   3.677   2.103 -0.1350  0.0502 -0.3925
  428MOL0     H57759   4.548   3.542   2.212  2.2080  1.6401  2.7527
  428MOL0     H57760   4.198   2.582   2.201  0.4999  1.6771 -2.4034
  428MOL0     H57761   4.007   2.482   2.319 -0.0933 -0.1636  1.1595
  428MOL0     H57762   3.602   2.380   2.257 -0.8894 -3.4989  1.2733
  428MOL0     H57763   3.389   2.233   2.268 -0.8958  0.5139  0.5403
  428MOL0     H57764   1.735   1.782   2.786 -1.2577 -1.4334  2.9217
  428MOL0     H57765   1.610   1.713   2.577  0.9270  1.6153 -0.6880
  428MOL0     H57766   1.335   1.525   2.446  0.2655  3.2565  1.1853
  428MOL0     H57767   1.241   1.370   2.305  1.2330  1.0825  1.1958
  428MOL0     H57768   0.977   1.319   1.956  1.0968 -0.4536 -0.2452
  428MOL0     H57769   1.022   1.493   1.946  1.9869 -1.2104  0.7548
  428MOL0     H57770   0.836   1.539   2.114 -1.0588 -0.6470 -0.4456
  428MOL0     H57771   0.833   1.374   2.170  1.5313  3.4511  3.3676
  428MOL0     H57772   0.767   1.441   1.880 -1.1238 -0.2547 -0.8921
  428MOL0     H57773   0.633   1.460   1.995 -1.3024 -1.7844 -2.7225
  428MOL0     H57774   0.776   1.196   1.997 -1.5285 -2.0549  3.7589
  428MOL0     H57775   0.616   1.250   2.054  1.4365 -0.6776  1.1119
  428MOL0     H57776   0.570   1.202   1.633 -0.3969  0.5617 -0.1436
  428MOL0     H57777   1.035   1.669   2.070  2.1624  2.7250 -0.8555
  428MOL0     H57778   1.061   1.888   2.132  2.8952 -0.6246 -0.5713
  428MOL0     H57779   1.033   1.912   2.309  0.6146  0.6088 -0.0122
  428MOL0     H57780   1.192   1.945   2.225 -1.1236  3.0343 -2.1755
  429MOL0     O57781   6.395   5.691   6.926  0.1996  0.1878  0.1109
  429MOL0     C57782   6.285   5.738   6.932  0.3608  0.8960 -0.3171
  429MOL0     O57783   6.259   5.867   6.916  0.0751 -0.3543  0.9962
  429MOL0     C57784   6.355   5.960   6.924 -0.1147 -0.5990  0.0678
  429MOL0     C57785   6.420   5.991   6.804 -0.5932 -0.3111 -0.5272
  429MOL0     C57786   6.491   6.109   6.795  0.1061 -0.6211  0.4507
  429MOL0     C57787   6.528   6.184   6.907  0.0517 -0.0939  0.6255
  429MOL0     O57788   6.607   6.294   6.911 -0.5771  0.0113  0.1924
  429MOL0     C57789   6.707   6.322   6.808  0.2532  0.2688 -0.2151
  429MOL0     C57790   6.816   6.404   6.874  0.7399  0.5095 -0.3199
  429MOL0     C57791   6.945   6.435   6.785 -0.3367  0.0113  0.1297
  429MOL0     C57792   6.940   6.524   6.662  1.6293  1.5463 -0.3254
  429MOL0     C57793   7.068   6.604   6.633 -0.2501  1.2847 -0.9004
  429MOL0     C57794   7.046   6.713   6.535  0.7193 -0.1453  0.2950
  429MOL0     C57795   7.171   6.792   6.507 -1.4567  0.8371  0.0701
  429MOL0     C57796   7.166   6.899   6.400  0.5807 -0.0288 -0.0691
  429MOL0     N57797   7.288   6.987   6.416 -0.0096 -0.2446 -0.1398
  429MOL0     C57798   7.371   7.023   6.312 -0.1354  0.0974  0.3635
  429MOL0     C57799   7.438   7.130   6.353 -0.7026 -0.4833  0.1556
  429MOL0     C57800   7.556   7.186   6.278  0.8302  0.7998  0.1313
  429MOL0     C57801   7.684   7.094   6.270  0.5157  0.2793 -0.3750
  429MOL0     C57802   7.762   7.076   6.399  0.2547  0.2573  0.2378
  429MOL0     C57803   7.899   7.009   6.373 -0.2220  0.1724  0.1948
  429MOL0     O57804   7.978   7.107   6.298 -0.8034 -0.3442 -0.2671
  429MOL0     C57805   8.118   7.097   6.279 -0.5904  0.6192 -0.6490
  429MOL0     C57806   8.189   7.203   6.222 -0.1852  1.1718  0.1886
  429MOL0     C57807   8.328   7.202   6.202  0.0040 -0.1930 -0.0255
  429MOL0     C57808   8.406   7.095   6.246  0.3051  0.0043  0.1355
  429MOL0     C57809   8.548   7.104   6.249  0.0060 -0.2081  0.1866
  429MOL0     O57810   8.614   7.218   6.207  0.5158  0.3884  0.5818
  429MOL0     C57811   8.751   7.220   6.224  0.6018  0.2394  0.1913
  429MOL0     C57812   8.838   7.136   6.150 -0.0607  0.1482 -0.2341
  429MOL0     C57813   8.975   7.147   6.172 -0.5892 -0.0383  0.2017
  429MOL0     C57814   9.033   7.239   6.256  0.1080 -0.4971 -0.3885
  429MOL0     O57815   9.168   7.261   6.273  0.3302  0.5080  0.6573
  429MOL0     C57816   9.263   7.260   6.160  0.2794 -0.2959 -0.1745
  429MOL0     C57817   9.389   7.322   6.207 -0.7902 -0.7003 -0.4397
  429MOL0     C57818   9.505   7.275   6.129 -0.6263 -0.5847  0.2035
  429MOL0     C57819   9.621   7.370   6.171  1.0663 -0.3813  0.3893
  429MOL0     C57820   9.734   7.348   6.075 -0.1358 -0.4335  0.1922
  429MOL0     C57821   9.868   7.390   6.133  0.9653  0.1471  0.1627
  429MOL0     C57822   9.899   7.347   6.275  0.2677 -0.2688 -0.2277
  429MOL0     C57823  10.043   7.375   6.315 -0.4238  0.6184 -0.7404
  429MOL0    Cl57824  10.078   7.550   6.342 -0.1265 -0.0909 -0.5489
  429MOL0     C57825   8.947   7.327   6.321  1.0028  0.0720  0.2781
  429MOL0     C57826   8.811   7.313   6.315  0.5266 -1.0939  0.2319
  429MOL0     O57827   8.606   7.006   6.287  0.0000 -0.5550  0.5558
  429MOL0     C57828   8.334   6.989   6.296 -0.3379  0.7314 -0.4124
  429MOL0     C57829   8.196   6.987   6.316 -0.1701 -0.0643  0.7295
  429MOL0     N57830   7.396   7.175   6.477 -0.7247  0.5942 -0.7435
  429MOL0     N57831   7.297   7.097   6.509 -0.3257 -0.7942  0.5614
  429MOL0     C57832   6.475   6.143   7.028 -0.4984  0.5697  0.0020
  429MOL0     C57833   6.386   6.028   7.039  0.5383 -0.6759 -0.6200
  429MOL0     C57834   6.162   5.641   6.933 -0.3053  0.9178 -0.3521
  429MOL0     C57835   6.039   5.700   6.905 -1.0185 -0.1061  0.1814
  429MOL0     C57836   5.926   5.620   6.893  0.5501 -0.2034 -1.4448
  429MOL0     C57837   5.932   5.476   6.905  0.1703  0.4043  0.9932
  429MOL0     O57838   5.806   5.407   6.884 -0.0906  0.0751 -0.0821
  429MOL0     C57839   5.812   5.264   6.915  0.0349 -0.2854  0.2899
  429MOL0     C57840   5.669   5.188   6.905 -0.6367 -0.0442 -0.3914
  429MOL0     C57841   5.580   5.233   6.794  0.2013 -0.4137 -0.2173
  429MOL0     C57842   5.445   5.157   6.798 -0.1442  0.3674 -0.6299
  429MOL0     C57843   5.368   5.195   6.679 -0.0216 -0.5398  0.9377
  429MOL0     C57844   5.291   5.220   6.585  0.5746 -0.1444 -0.1392
  429MOL0     C57845   6.054   5.421   6.927 -0.1462  0.2051  0.2767
  429MOL0     C57846   6.168   5.500   6.947 -0.3645  0.3315 -0.9194
  429MOL0     C57847   6.294   5.421   6.973 -0.1768  0.2267  0.0852
  429MOL0     H57848   6.397   5.939   6.711  0.0079 -1.9306  0.1871
  429MOL0     H57849   6.539   6.137   6.701 -1.3565  1.4327  0.2684
  429MOL0     H57850   6.749   6.237   6.754 -0.1298 -0.6408  0.8882
  429MOL0     H57851   6.664   6.390   6.733  3.6580  0.4391 -2.2139
  429MOL0     H57852   6.850   6.340   6.955  0.3728 -0.3457 -0.8280
  429MOL0     H57853   6.775   6.495   6.917  1.2139 -0.1502  1.6140
  429MOL0     H57854   6.980   6.341   6.743  0.7605  0.8890 -1.0031
  429MOL0     H57855   7.027   6.467   6.850 -0.3505 -0.3728  0.3389
  429MOL0     H57856   6.905   6.464   6.578 -0.2388  0.9227  0.8372
  429MOL0     H57857   6.864   6.600   6.684  0.9692  1.0766 -0.9338
  429MOL0     H57858   7.094   6.661   6.722  0.0217  0.0815 -0.1831
  429MOL0     H57859   7.150   6.544   6.593  1.6241  2.4416  1.0606
  429MOL0     H57860   7.010   6.671   6.440  2.1453 -0.0018 -0.3347
  429MOL0     H57861   6.981   6.793   6.572  0.5490  0.2503 -0.8059
  429MOL0     H57862   7.253   6.725   6.479 -1.7950  0.3527  0.2332
  429MOL0     H57863   7.196   6.841   6.602  1.6134  0.6155 -0.5181
  429MOL0     H57864   7.157   6.854   6.301 -2.2135 -2.3091  1.0705
  429MOL0     H57865   7.085   6.969   6.424  0.3030 -0.1544 -0.6268
  429MOL0     H57866   7.380   6.970   6.218  0.0978  1.9869 -0.7305
  429MOL0     H57867   7.533   7.196   6.172  1.5484 -0.1282 -0.1258
  429MOL0     H57868   7.589   7.285   6.311 -0.5516  0.9962  1.0145
  429MOL0     H57869   7.661   6.996   6.228  1.9905  1.4184 -4.2450
  429MOL0     H57870   7.747   7.150   6.200 -1.4675  1.7178 -1.1124
  429MOL0     H57871   7.696   7.017   6.464  0.8229 -4.4105 -2.9159
  429MOL0     H57872   7.786   7.172   6.445  1.0609 -0.3148  1.0637
  429MOL0     H57873   7.894   6.912   6.323  1.3261  0.7093 -1.0845
  429MOL0     H57874   7.963   6.992   6.460  5.6565  4.2465 -2.6884
  429MOL0     H57875   8.129   7.282   6.178 -0.8339  0.2643 -0.6181
  429MOL0     H57876   8.381   7.290   6.167  4.2969 -0.6999  4.0644
  429MOL0     H57877   8.798   7.059   6.085  0.3356 -1.2073  1.0800
  429MOL0     H57878   9.047   7.094   6.111  0.9745  3.9996 -1.8228
  429MOL0     H57879   9.294   7.157   6.140  3.3040 -0.1741  2.9062
  429MOL0     H57880   9.216   7.314   6.078  0.6722  2.0354  1.0463
  429MOL0     H57881   9.376   7.430   6.195  1.5985 -0.6343 -3.6779
  429MOL0     H57882   9.408   7.291   6.310 -1.0299  1.4508  0.3041
  429MOL0     H57883   9.532   7.173   6.159 -1.1256 -0.0676  2.5973
  429MOL0     H57884   9.488   7.266   6.021 -1.2099 -2.6491  0.4192
  429MOL0     H57885   9.640   7.351   6.277  2.2821  1.2835  0.5089
  429MOL0     H57886   9.590   7.475   6.160  1.0245 -0.2611  1.5924
  429MOL0     H57887   9.713   7.393   5.978 -1.1475  0.3148  0.7464
  429MOL0     H57888   9.743   7.242   6.052  3.3453  0.1863 -2.0529
  429MOL0     H57889   9.942   7.344   6.067 -0.7424 -2.0200 -0.3536
  429MOL0     H57890   9.879   7.498   6.120 -0.1705 -0.0637 -3.3340
  429MOL0     H57891   9.863   7.243   6.283 -2.8982  0.4114 -3.2330
  429MOL0     H57892   9.846   7.409   6.347  1.1795 -0.8524  0.9921
  429MOL0     H57893  10.063   7.309   6.400 -1.9856 -1.5308 -1.9304
  429MOL0     H57894  10.123   7.339   6.250  0.5119 -2.4110  1.8313
  429MOL0     H57895   8.986   7.402   6.389 -1.4713 -0.5419  2.5667
  429MOL0     H57896   8.745   7.374   6.375  1.3305  0.4213 -0.3888
  429MOL0     H57897   8.388   6.899   6.324 -1.1548  0.0291 -1.0404
  429MOL0     H57898   8.164   6.891   6.357  0.3265 -0.2801  0.6166
  429MOL0     H57899   6.493   6.197   7.121 -0.4508  1.1889 -0.3637
  429MOL0     H57900   6.326   6.000   7.124 -0.8618 -0.8292 -1.6340
  429MOL0     H57901   6.031   5.807   6.889  2.8611  0.3368  0.3153
  429MOL0     H57902   5.829   5.665   6.876  0.2822 -1.0676 -2.2239
  429MOL0     H57903   5.838   5.245   7.019 -0.1981 -1.3148  0.1733
  429MOL0     H57904   5.885   5.216   6.849  0.5889 -0.3155  0.9127
  429MOL0     H57905   5.634   5.204   7.007  0.1730  2.7431 -0.4573
  429MOL0     H57906   5.690   5.087   6.869  0.2657  0.5327 -1.5626
  429MOL0     H57907   5.618   5.210   6.695  0.5200 -2.3988  0.3217
  429MOL0     H57908   5.551   5.338   6.806 -1.9404 -1.0292  0.5092
  429MOL0     H57909   5.468   5.050   6.804 -0.0861  0.4118  0.1347
  429MOL0     H57910   5.385   5.189   6.884 -0.1666  2.7997 -1.4908
  429MOL0     H57911   5.221   5.247   6.508  1.2819 -0.1571 -0.7997
  429MOL0     H57912   6.057   5.314   6.940 -1.1945  0.3719  2.1813
  429MOL0     H57913   6.357   5.447   6.888  0.1509  0.9106  0.5232
  429MOL0     H57914   6.340   5.471   7.059  1.7003 -0.5100 -0.4209
  429MOL0     H57915   6.282   5.314   6.991 -0.4903  0.0189 -1.2554
  430MOL0     O57916   5.113   2.673   5.593  0.6203 -0.8436  0.3138
  430MOL0     C57917   5.112   2.548   5.595  0.3662 -0.4970 -0.7825
  430MOL0     O57918   5.211   2.465   5.556  0.5785 -0.5293 -0.5071
  430MOL0     C57919   5.340   2.523   5.554  0.7968  0.5506 -0.8753
  430MOL0     C57920   5.412   2.500   5.436 -0.4358 -0.7723 -0.1918
  430MOL0     C57921   5.548   2.529   5.427 -0.9805  0.9870  0.8298
  430MOL0     C57922   5.614   2.581   5.536  0.1137 -0.2953  0.4054
  430MOL0     O57923   5.748   2.613   5.541  0.6486  0.5959 -0.2255
  430MOL0     C57924   5.832   2.566   5.438  0.2837  0.5966  0.1204
  430MOL0     C57925   5.978   2.577   5.486 -1.0714  0.3105  0.4923
  430MOL0     C57926   6.014   2.719   5.540 -0.1001  0.2334 -0.6526
  430MOL0     C57927   6.069   2.813   5.432  1.0229 -0.5354 -0.1782
  430MOL0     C57928   6.103   2.949   5.500 -0.4842  1.0091  0.3604
  430MOL0     C57929   6.212   2.941   5.613  0.5840  0.1274  0.3064
  430MOL0     C57930   6.324   2.843   5.586 -0.1322  0.5273  0.3129
  430MOL0     C57931   6.432   2.919   5.507 -0.7068 -0.7278 -0.4609
  430MOL0     N57932   6.529   2.834   5.442 -0.2623 -0.4714  0.8737
  430MOL0     C57933   6.642   2.788   5.514 -0.7067 -0.0469  0.2295
  430MOL0     C57934   6.730   2.754   5.420 -0.1762  0.0794  0.0160
  430MOL0     C57935   6.861   2.680   5.433  1.0241  0.5696  0.2354
  430MOL0     C57936   6.956   2.682   5.314 -0.4145  0.8087 -0.6414
  430MOL0     C57937   7.085   2.610   5.352 -0.7353 -0.6472 -0.2937
  430MOL0     C57938   7.221   2.687   5.311  0.8082  1.0976 -0.5550
  430MOL0     O57939   7.333   2.609   5.369  0.4988  0.1072  0.7833
  430MOL0     C57940   7.460   2.631   5.336 -0.1907 -0.1913  0.1237
  430MOL0     C57941   7.495   2.732   5.246 -0.4844 -0.0141  0.9680
  430MOL0     C57942   7.631   2.763   5.221  0.0307 -0.4114  1.2161
  430MOL0     C57943   7.726   2.679   5.269 -0.9763  0.3908  0.7737
  430MOL0     C57944   7.876   2.699   5.222  1.0620  0.0536 -0.5163
  430MOL0     O57945   7.895   2.798   5.128 -0.0498  0.7221 -0.0031
  430MOL0     C57946   8.023   2.819   5.081 -0.2043  0.5886  0.0582
  430MOL0     C57947   8.055   2.954   5.067 -0.2591 -0.4566  0.7409
  430MOL0     C57948   8.175   2.997   5.000 -0.6407 -0.4615  0.1703
  430MOL0     C57949   8.273   2.897   4.964  0.1926 -0.4479  0.6569
  430MOL0     O57950   8.393   2.942   4.907 -0.1229  0.0264  0.5924
  430MOL0     C57951   8.505   2.851   4.901  0.6400  0.7675 -0.3210
  430MOL0     C57952   8.624   2.935   4.864 -0.2628 -0.5341  0.8657
  430MOL0     C57953   8.761   2.877   4.822 -0.1098 -0.0731  0.9266
  430MOL0     C57954   8.872   2.981   4.803  0.0868 -0.0533  0.0877
  430MOL0     C57955   9.009   2.918   4.755 -0.7528 -0.7239 -0.5093
  430MOL0     C57956   9.123   3.019   4.711  0.2624 -0.0812 -0.3494
  430MOL0     C57957   9.252   2.950   4.677  1.0417  0.2037 -0.7474
  430MOL0     C57958   9.352   3.048   4.613  1.4502  0.0830 -0.7348
  430MOL0    Cl57959   9.393   3.183   4.733 -0.0161  1.0094 -0.3022
  430MOL0     C57960   8.242   2.758   4.978  0.2349 -0.3402  0.2730
  430MOL0     C57961   8.116   2.726   5.039  0.1499 -0.5340  0.3112
  430MOL0     O57962   7.956   2.621   5.265 -0.2521 -0.2796 -0.4842
  430MOL0     C57963   7.688   2.574   5.356  0.8602  0.4491  0.8416
  430MOL0     C57964   7.558   2.551   5.395  0.1948  0.3070 -0.4606
  430MOL0     N57965   6.674   2.785   5.296  0.5280 -0.2553 -0.0289
  430MOL0     N57966   6.557   2.837   5.307 -0.2580 -0.5120 -0.2690
  430MOL0     C57967   5.539   2.609   5.652 -1.0013 -0.3143  0.3600
  430MOL0     C57968   5.409   2.576   5.660  0.3498  0.0051 -0.3302
  430MOL0     C57969   4.990   2.491   5.659  0.4351  0.0954  0.3224
  430MOL0     C57970   4.993   2.350   5.692  0.3406 -0.7702  0.7368
  430MOL0     C57971   4.884   2.290   5.755  0.2114 -0.5815  0.1931
  430MOL0     C57972   4.761   2.362   5.767 -0.0070  0.2238 -0.0242
  430MOL0     O57973   4.647   2.298   5.809 -0.1651  0.0237 -0.0335
  430MOL0     C57974   4.529   2.374   5.784 -0.0035 -0.4075 -0.4982
  430MOL0     C57975   4.407   2.280   5.777 -1.1806 -0.2901 -0.0051
  430MOL0     C57976   4.332   2.254   5.908 -1.1845  0.1442 -0.3664
  430MOL0     C57977   4.415   2.228   6.039 -0.4593  0.2634 -0.2985
  430MOL0     C57978   4.319   2.211   6.152 -0.1974 -0.8576 -0.8633
  430MOL0     C57979   4.231   2.195   6.239  0.8616  0.3577 -0.0756
  430MOL0     C57980   4.771   2.497   5.750  0.6242  0.0274  0.2674
  430MOL0     C57981   4.876   2.568   5.699 -1.0199 -0.6430  0.4732
  430MOL0     C57982   4.859   2.723   5.696 -0.2045  1.0991  0.0611
  430MOL0     H57983   5.358   2.470   5.347 -1.3961  3.7420 -1.4252
  430MOL0     H57984   5.590   2.506   5.329 -0.7947 -1.3545  1.3989
  430MOL0     H57985   5.816   2.458   5.424  1.2448  0.3908  0.4777
  430MOL0     H57986   5.836   2.625   5.346 -3.6517 -0.7093 -1.0795
  430MOL0     H57987   6.032   2.552   5.394 -3.1450 -0.9326 -0.4641
  430MOL0     H57988   5.994   2.516   5.575  1.7160  2.1886  1.3956
  430MOL0     H57989   6.089   2.713   5.619  0.2190  2.8277 -0.6775
  430MOL0     H57990   5.922   2.767   5.577  0.4806 -0.1744  1.4674
  430MOL0     H57991   6.154   2.767   5.380  0.9774 -0.8413  0.0184
  430MOL0     H57992   5.984   2.833   5.366  0.9051  0.9088  0.3683
  430MOL0     H57993   6.138   3.013   5.418 -0.5644 -1.6721 -1.9228
  430MOL0     H57994   6.009   2.985   5.543 -1.3836 -0.6722 -0.1085
  430MOL0     H57995   6.253   3.040   5.636  1.3743 -0.9693  4.3400
  430MOL0     H57996   6.158   2.918   5.705 -0.6298  2.1868  0.1606
  430MOL0     H57997   6.286   2.751   5.541 -1.5311 -0.0248  2.4648
  430MOL0     H57998   6.371   2.811   5.680 -0.0154 -1.6065 -0.4339
  430MOL0     H57999   6.379   2.974   5.429 -3.3348 -2.5221 -0.0938
  430MOL0     H58000   6.472   2.996   5.573  0.0243 -1.0953 -0.4712
  430MOL0     H58001   6.654   2.762   5.619 -0.5875 -2.5624 -0.3370
  430MOL0     H58002   6.908   2.745   5.507 -0.5085  1.5278  0.4075
  430MOL0     H58003   6.849   2.581   5.477 -0.1235  0.6100  0.0456
  430MOL0     H58004   6.932   2.633   5.220  2.5208  1.2220 -1.7040
  430MOL0     H58005   6.967   2.789   5.291 -1.1164  0.5919 -2.0998
  430MOL0     H58006   7.088   2.505   5.320  1.9640 -1.1799  1.3791
  430MOL0     H58007   7.096   2.609   5.461  0.4790 -0.8447 -0.4030
  430MOL0     H58008   7.217   2.790   5.347 -0.1880  0.8215  0.1894
  430MOL0     H58009   7.228   2.682   5.202  2.1779  0.9117 -0.4788
  430MOL0     H58010   7.424   2.790   5.188 -1.9916 -0.3962  2.3598
  430MOL0     H58011   7.659   2.854   5.170 -2.5136  1.0867  2.2674
  430MOL0     H58012   7.977   3.025   5.093 -2.4284 -1.0014 -3.4683
  430MOL0     H58013   8.203   3.100   4.983  0.0675 -0.6152  0.3765
  430MOL0     H58014   8.514   2.813   5.003  0.9475  1.3303 -0.1301
  430MOL0     H58015   8.493   2.774   4.824  0.2289 -0.3525  0.8326
  430MOL0     H58016   8.595   3.006   4.786 -0.0148 -2.0117 -0.6041
  430MOL0     H58017   8.646   2.998   4.952  0.6310 -1.1812  1.1168
  430MOL0     H58018   8.794   2.794   4.886  0.3323  0.7694  1.8189
  430MOL0     H58019   8.741   2.825   4.728  1.2601 -1.2066  1.2190
  430MOL0     H58020   8.886   3.032   4.899  3.1819  3.1160 -1.8404
  430MOL0     H58021   8.836   3.047   4.725 -2.4086 -1.6022 -0.1826
  430MOL0     H58022   8.990   2.860   4.664 -2.1704 -2.6062  0.9069
  430MOL0     H58023   9.054   2.852   4.830 -1.4387 -1.7118 -0.9394
  430MOL0     H58024   9.090   3.086   4.631 -3.3673 -0.1718  0.8669
  430MOL0     H58025   9.127   3.080   4.802 -4.1727 -0.8119  0.5842
  430MOL0     H58026   9.220   2.876   4.603 -5.0487  2.2991 -0.7287
  430MOL0     H58027   9.288   2.913   4.774 -1.2765  1.1508  0.5508
  430MOL0     H58028   9.439   3.001   4.568  1.1090  2.0766 -3.7744
  430MOL0     H58029   9.300   3.092   4.527 -1.2325 -0.8254  0.2962
  430MOL0     H58030   8.313   2.685   4.940  1.4515  0.8722  0.1299
  430MOL0     H58031   8.095   2.619   5.045  1.7216 -0.9511 -0.8962
  430MOL0     H58032   7.765   2.502   5.379  1.1786  1.3968  3.0801
  430MOL0     H58033   7.545   2.459   5.451 -2.4903  0.7711 -0.1854
  430MOL0     H58034   5.594   2.648   5.736  0.8339 -1.1564 -0.3974
  430MOL0     H58035   5.348   2.579   5.750 -0.1600 -3.5250 -0.4074
  430MOL0     H58036   5.083   2.290   5.687  0.8238 -0.0497  0.5637
  430MOL0     H58037   4.888   2.183   5.768  1.5133 -0.7799 -1.4807
  430MOL0     H58038   4.534   2.434   5.692  2.0549  1.0892  0.5188
  430MOL0     H58039   4.509   2.439   5.869 -1.2727 -1.1073 -0.2376
  430MOL0     H58040   4.440   2.185   5.735 -0.9123  0.6119 -1.9682
  430MOL0     H58041   4.333   2.311   5.703  0.3776 -0.2238 -1.6163
  430MOL0     H58042   4.257   2.175   5.895 -2.2534  0.7381  1.6676
  430MOL0     H58043   4.269   2.340   5.933 -1.0889 -0.3629  1.8305
  430MOL0     H58044   4.469   2.133   6.034 -1.5104 -0.3130 -3.4952
  430MOL0     H58045   4.484   2.311   6.059  0.0832 -0.2535 -0.0189
  430MOL0     H58046   4.147   2.184   6.305 -0.5709 -4.1911 -2.2289
  430MOL0     H58047   4.686   2.558   5.780  0.6324 -0.0362  0.4197
  430MOL0     H58048   4.761   2.749   5.736 -0.6003  1.8896 -1.3641
  430MOL0     H58049   4.951   2.768   5.735  0.5221  0.3543 -0.7362
  430MOL0     H58050   4.860   2.762   5.594 -0.1421  0.4540 -0.1951
  431MOL0     O58051   6.805  10.901   7.029  0.0917  0.2024 -0.1318
  431MOL0     C58052   6.704  10.924   7.094 -0.0268  0.0313 -0.4372
  431MOL0     O58053   6.704  10.928   7.234  0.2076 -0.7636  0.1989
  431MOL0     C58054   6.804  10.861   7.294 -0.6678  0.5988  0.5180
  431MOL0     C58055   6.800  10.723   7.296 -0.1086  0.6397 -0.9217
  431MOL0     C58056   6.905  10.649   7.359  0.1858 -0.1378 -0.0390
  431MOL0     C58057   7.012  10.704   7.434  0.5698 -0.4887  0.3110
  431MOL0     O58058   7.100  10.630   7.505  0.9297  0.3015  0.1472
  431MOL0     C58059   7.175  10.692   7.607 -0.9287  0.6194  0.4395
  431MOL0     C58060   7.100  10.735   7.733  0.2887  0.4168  0.4011
  431MOL0     C58061   7.018  10.620   7.788 -0.5035  0.4445 -0.6194
  431MOL0     C58062   7.114  10.503   7.829 -0.3896 -0.2571 -0.8859
  431MOL0     C58063   7.044  10.397   7.917 -0.4363 -0.0357  0.6212
  431MOL0     C58064   7.132  10.267   7.935 -0.3766 -0.1043  0.3358
  431MOL0     C58065   7.070  10.159   8.032 -0.4809 -0.5434  0.1921
  431MOL0     C58066   7.060  10.204   8.176 -0.2584 -0.0656 -0.4141
  431MOL0     N58067   7.188  10.267   8.220  0.5920 -0.3748 -0.7239
  431MOL0     C58068   7.310  10.200   8.249  0.3415 -0.7888 -0.2278
  431MOL0     C58069   7.397  10.298   8.275  0.2021  0.0449  0.0661
  431MOL0     C58070   7.545  10.296   8.321  0.6955 -0.3493  1.4832
  431MOL0     C58071   7.630  10.314   8.192  0.5667 -0.7504  0.7291
  431MOL0     C58072   7.629  10.189   8.096  0.1093 -0.0696  0.7144
  431MOL0     C58073   7.734  10.195   7.991 -0.8730 -0.4898 -0.6472
  431MOL0     O58074   7.868  10.165   8.049 -0.4800 -0.2349  0.1061
  431MOL0     C58075   7.981  10.241   8.009 -0.4981  0.1037 -0.0321
  431MOL0     C58076   7.999  10.289   7.885  0.9797 -0.0328 -0.6914
  431MOL0     C58077   8.115  10.368   7.845  0.7602 -0.7088  0.5436
  431MOL0     C58078   8.217  10.391   7.941 -0.1116 -0.3775 -0.1613
  431MOL0     C58079   8.335  10.478   7.913  0.7171  0.7856 -0.7510
  431MOL0     O58080   8.392  10.477   7.791 -0.0469  0.5917  0.4943
  431MOL0     C58081   8.513  10.535   7.767  0.5057 -0.0459  0.7774
  431MOL0     C58082   8.614  10.572   7.856  0.5380 -0.1614  0.6385
  431MOL0     C58083   8.737  10.616   7.800 -0.5119 -0.2016  1.0831
  431MOL0     C58084   8.759  10.626   7.664 -1.0971  0.0351  1.1422
  431MOL0     O58085   8.874  10.680   7.606  0.1081  0.5237  0.4477
  431MOL0     C58086   8.984  10.588   7.599 -0.5897 -0.8124 -0.8081
  431MOL0     C58087   9.088  10.641   7.700 -0.2304 -0.6805 -1.0787
  431MOL0     C58088   9.154  10.774   7.654 -0.0308  1.1037  0.4490
  431MOL0     C58089   9.219  10.847   7.772 -0.6548 -0.2798 -0.3057
  431MOL0     C58090   9.338  10.934   7.733 -0.6362  0.6919 -0.1807
  431MOL0     C58091   9.368  11.053   7.821  0.1264 -1.0690  1.3706
  431MOL0     C58092   9.468  11.138   7.739  0.7557 -0.7201 -0.0816
  431MOL0     C58093   9.500  11.274   7.808  0.2246  1.1607 -0.7474
  431MOL0    Cl58094   9.578  11.266   7.973 -0.0198  0.5561  0.1648
  431MOL0     C58095   8.654  10.584   7.585 -0.0694 -0.2793  0.1111
  431MOL0     C58096   8.536  10.540   7.637 -0.0913 -0.1393  0.0902
  431MOL0     O58097   8.380  10.530   8.011 -0.5156 -1.0997  0.2926
  431MOL0     C58098   8.188  10.353   8.071 -0.1763  0.1113  0.4742
  431MOL0     C58099   8.085  10.261   8.098 -0.0460  0.4762  0.6217
  431MOL0     N58100   7.331  10.419   8.256 -0.0965 -0.1158  0.2253
  431MOL0     N58101   7.208  10.400   8.226 -0.4056 -0.4665 -0.5322
  431MOL0     C58102   7.009  10.846   7.436  0.1198 -0.0559  0.7130
  431MOL0     C58103   6.910  10.920   7.365  0.3048 -0.6650 -0.3514
  431MOL0     C58104   6.578  10.974   7.018 -0.6177  0.0115 -0.6121
  431MOL0     C58105   6.476  11.029   7.097  0.3386  0.3998 -0.2871
  431MOL0     C58106   6.369  11.077   7.029  0.1827 -0.7476  0.2905
  431MOL0     C58107   6.337  11.063   6.895  0.4610 -0.5025 -0.5040
  431MOL0     O58108   6.220  11.110   6.832 -0.0848  0.6114  0.2200
  431MOL0     C58109   6.104  11.095   6.904 -0.1915 -0.4005 -0.4059
  431MOL0     C58110   6.057  11.222   6.971 -0.1015  0.4753 -0.6320
  431MOL0     C58111   5.905  11.236   6.959  0.1106 -1.1874  0.5259
  431MOL0     C58112   5.873  11.354   7.055 -0.4858  0.7889  0.0558
  431MOL0     C58113   5.725  11.372   7.075  0.1995  0.8685  0.4867
  431MOL0     C58114   5.605  11.387   7.073 -0.2991  0.2982 -0.3477
  431MOL0     C58115   6.440  11.011   6.818 -0.1613  0.6037  1.1485
  431MOL0     C58116   6.565  10.970   6.873  0.3362  0.2036  1.0229
  431MOL0     C58117   6.681  10.925   6.777  0.4951  0.2930 -0.4293
  431MOL0     H58118   6.719  10.672   7.246 -0.9179  0.4643  0.5156
  431MOL0     H58119   6.904  10.541   7.347 -0.1920 -0.1760  0.2951
  431MOL0     H58120   7.252  10.624   7.644 -0.5137  0.2632 -1.0092
  431MOL0     H58121   7.229  10.776   7.561 -4.6924  2.1731 -1.5727
  431MOL0     H58122   7.037  10.813   7.690 -0.8556 -0.0873  1.1125
  431MOL0     H58123   7.163  10.787   7.806  0.5256 -1.2056  1.3837
  431MOL0     H58124   6.941  10.594   7.714 -1.4999  1.6257 -0.0355
  431MOL0     H58125   6.955  10.660   7.868  0.8105 -1.4811  1.4742
  431MOL0     H58126   7.161  10.455   7.742 -0.9911 -2.1061 -0.2488
  431MOL0     H58127   7.198  10.533   7.893 -2.4513 -0.3448  2.0628
  431MOL0     H58128   7.048  10.447   8.014 -1.5344  1.2568  0.0366
  431MOL0     H58129   6.940  10.380   7.891 -0.7740  1.0318  1.2006
  431MOL0     H58130   7.143  10.223   7.835  0.6293  1.9917 -0.5431
  431MOL0     H58131   7.234  10.298   7.958 -0.4106  0.6784 -0.4947
  431MOL0     H58132   7.131  10.069   8.017  0.6253  0.2781 -0.3384
  431MOL0     H58133   6.972  10.124   7.999 -0.0608 -1.5841 -0.0033
  431MOL0     H58134   6.983  10.278   8.199 -2.1410 -1.0946 -2.8217
  431MOL0     H58135   7.042  10.120   8.244 -1.0464 -0.3663 -0.9802
  431MOL0     H58136   7.335  10.095   8.262  1.3147 -0.5418 -0.0959
  431MOL0     H58137   7.573  10.382   8.383 -0.3741 -0.5901  2.3263
  431MOL0     H58138   7.557  10.198   8.369 -0.5154 -1.6361 -0.6580
  431MOL0     H58139   7.586  10.398   8.138  1.0372 -1.4376 -0.7792
  431MOL0     H58140   7.729  10.351   8.219  0.6896 -0.8589  0.4302
  431MOL0     H58141   7.531  10.188   8.047  1.3064  0.3883 -1.8880
  431MOL0     H58142   7.638  10.096   8.152 -2.5070 -0.0833  1.2159
  431MOL0     H58143   7.735  10.299   7.957 -0.8584  0.3809  1.7702
  431MOL0     H58144   7.712  10.138   7.901 -0.7416  0.7431 -1.4926
  431MOL0     H58145   7.924  10.280   7.807 -0.2766  3.0298  0.0045
  431MOL0     H58146   8.134  10.404   7.744  3.2944  1.8776  1.7792
  431MOL0     H58147   8.604  10.565   7.964 -0.7891 -1.3114  0.4555
  431MOL0     H58148   8.818  10.644   7.867  0.1760 -0.0614  0.2080
  431MOL0     H58149   8.945  10.487   7.613 -2.2920 -0.0510  0.2885
  431MOL0     H58150   9.029  10.584   7.500 -0.3300 -0.8898 -0.6876
  431MOL0     H58151   9.033  10.647   7.795 -0.8326 -0.5026 -1.4391
  431MOL0     H58152   9.158  10.559   7.721 -1.8791 -1.1615  3.6876
  431MOL0     H58153   9.226  10.746   7.576 -2.6742  1.6317 -2.3884
  431MOL0     H58154   9.084  10.848   7.613  1.1429  1.1589 -1.6378
  431MOL0     H58155   9.245  10.775   7.850 -0.5284 -1.0750 -1.0722
  431MOL0     H58156   9.136  10.909   7.807  1.2366  0.8764  2.4993
  431MOL0     H58157   9.327  10.972   7.631 -0.9325  0.7940 -0.1126
  431MOL0     H58158   9.426  10.870   7.741 -1.2985 -0.3808 -1.1742
  431MOL0     H58159   9.274  11.109   7.826  0.2149 -0.3386 -2.1390
  431MOL0     H58160   9.403  11.029   7.922 -0.1981 -3.4797  0.9636
  431MOL0     H58161   9.431  11.157   7.638  3.2162  1.8246 -0.6347
  431MOL0     H58162   9.564  11.087   7.745  2.0730  1.6772  0.9054
  431MOL0     H58163   9.561  11.327   7.735 -0.1773 -0.0667 -2.0175
  431MOL0     H58164   9.404  11.324   7.819  0.5109  1.8855 -1.5270
  431MOL0     H58165   8.668  10.591   7.478  0.2350 -3.3582 -0.1514
  431MOL0     H58166   8.457  10.511   7.569 -0.0501 -0.8032  0.3211
  431MOL0     H58167   8.250  10.387   8.153  1.6806  1.5753 -1.4249
  431MOL0     H58168   8.068  10.218   8.196 -2.4216 -0.1477  0.0047
  431MOL0     H58169   7.085  10.905   7.487  0.1686 -1.8073  2.8088
  431MOL0     H58170   6.921  11.027   7.381 -2.5191 -0.5913  2.1574
  431MOL0     H58171   6.478  11.038   7.205 -0.1940  3.3020 -0.4271
  431MOL0     H58172   6.306  11.127   7.102  1.6168  1.4695  0.1085
  431MOL0     H58173   6.109  11.011   6.974  1.2179 -0.7519 -0.8964
  431MOL0     H58174   6.031  11.060   6.831  1.4936  1.4613 -3.1902
  431MOL0     H58175   6.097  11.306   6.913 -3.2987  1.1827 -2.0360
  431MOL0     H58176   6.089  11.222   7.076 -1.9176 -0.2427 -0.0303
  431MOL0     H58177   5.853  11.140   6.969 -0.3508 -1.2780 -2.0461
  431MOL0     H58178   5.887  11.265   6.855 -1.8005  1.4431  1.4931
  431MOL0     H58179   5.909  11.339   7.157  2.3885 -0.3545 -1.0147
  431MOL0     H58180   5.916  11.447   7.016 -2.5785  1.5467 -0.5870
  431MOL0     H58181   5.500  11.382   7.051 -0.6863 -2.6060  1.6128
  431MOL0     H58182   6.424  11.006   6.711  2.1487  0.3950  0.7621
  431MOL0     H58183   6.639  10.915   6.676 -3.6223  0.6268  1.0720
  431MOL0     H58184   6.758  11.002   6.790  1.0146 -0.1574 -0.7864
  431MOL0     H58185   6.726  10.832   6.811 -0.0628  0.8718  2.0499
  432MOL0     O58186   7.801   1.756   4.213 -0.0743 -0.6469  0.5452
  432MOL0     C58187   7.831   1.733   4.329  0.5424 -0.3567  0.0548
  432MOL0     O58188   7.953   1.744   4.385  0.4353  0.1789  0.1727
  432MOL0     C58189   8.069   1.766   4.308  0.0138 -0.0778  0.2885
  432MOL0     C58190   8.081   1.866   4.208 -0.5463  0.1622 -0.4677
  432MOL0     C58191   8.195   1.867   4.123 -0.6001  0.7528  0.3465
  432MOL0     C58192   8.301   1.778   4.150  0.1106 -0.2459 -0.0907
  432MOL0     O58193   8.403   1.781   4.055  0.4749 -0.1395  0.6753
  432MOL0     C58194   8.518   1.693   4.072  1.2103 -0.6399 -0.3597
  432MOL0     C58195   8.636   1.730   3.980 -0.1593  0.9002  0.0989
  432MOL0     C58196   8.726   1.843   4.025  0.4496  0.2455 -0.4025
  432MOL0     C58197   8.825   1.877   3.918 -0.4733  0.2579  0.2713
  432MOL0     C58198   8.868   2.018   3.919 -0.8015  0.8597 -0.5592
  432MOL0     C58199   8.934   2.062   3.794  0.2571  1.0537 -0.1433
  432MOL0     C58200   9.086   2.025   3.785  0.7660  0.0555 -0.1644
  432MOL0     C58201   9.133   2.079   3.648 -0.5119  0.1920 -0.6143
  432MOL0     N58202   9.246   2.003   3.597 -0.5729 -0.0395  0.4845
  432MOL0     C58203   9.245   1.867   3.575 -0.8595  0.2229  0.3786
  432MOL0     C58204   9.372   1.833   3.531  0.0072 -0.2864  0.8379
  432MOL0     C58205   9.403   1.698   3.472 -0.4791 -0.3182  0.7920
  432MOL0     C58206   9.454   1.694   3.327 -0.6352 -0.0503  0.1295
  432MOL0     C58207   9.348   1.752   3.223 -0.4410  0.5952  0.3018
  432MOL0     C58208   9.223   1.667   3.197  0.7441 -0.2546 -0.5431
  432MOL0     O58209   9.139   1.637   3.315 -0.0499 -1.0460  0.0029
  432MOL0     C58210   9.047   1.736   3.346  1.0130  0.7341 -0.5346
  432MOL0     C58211   8.959   1.699   3.454 -0.4072  1.3568  0.3152
  432MOL0     C58212   8.852   1.781   3.491 -0.4921 -0.1541  0.1948
  432MOL0     C58213   8.838   1.906   3.430  0.3018 -0.9134 -0.2834
  432MOL0     C58214   8.727   2.003   3.472 -0.2326 -0.1073  0.8993
  432MOL0     O58215   8.628   1.956   3.550 -0.3383  0.1498  0.1888
  432MOL0     C58216   8.515   2.030   3.592 -0.4073  0.0633 -0.6119
  432MOL0     C58217   8.455   2.131   3.521 -0.4199  0.3376  0.0276
  432MOL0     C58218   8.333   2.181   3.570 -0.4747  0.4418  1.1625
  432MOL0     C58219   8.270   2.134   3.687  0.1279  0.3426 -0.4762
  432MOL0     O58220   8.154   2.161   3.754 -0.1111 -0.6009 -0.0160
  432MOL0     C58221   8.094   2.295   3.751  0.2555 -0.2176  0.1659
  432MOL0     C58222   8.047   2.335   3.889  0.6158  0.4511  0.0209
  432MOL0     C58223   7.951   2.223   3.941 -0.3287 -1.1107  0.5155
  432MOL0     C58224   7.867   2.271   4.055 -0.0079  0.6056 -0.7947
  432MOL0     C58225   7.774   2.162   4.111 -0.3709  0.2342  0.4840
  432MOL0     C58226   7.659   2.125   4.017  0.4988  0.7186 -0.5807
  432MOL0     C58227   7.557   2.031   4.100  0.6206 -0.1855  1.0213
  432MOL0     C58228   7.423   2.003   4.032 -0.7123  0.4105 -0.1802
  432MOL0    Cl58229   7.347   2.161   4.018  0.1302  0.0288 -0.0070
  432MOL0     C58230   8.332   2.027   3.752 -0.3664  0.9175 -0.8051
  432MOL0     C58231   8.446   1.970   3.697  1.3623  0.0314  0.4296
  432MOL0     O58232   8.734   2.117   3.429 -0.7560  0.4025  0.3952
  432MOL0     C58233   8.930   1.949   3.336 -0.1800  0.2901 -0.0849
  432MOL0     C58234   9.029   1.863   3.282 -0.5200 -0.5148 -0.1200
  432MOL0     N58235   9.444   1.949   3.532  0.3327 -0.5160 -0.4200
  432MOL0     N58236   9.371   2.046   3.571  0.4606 -0.5477  0.6597
  432MOL0     C58237   8.289   1.688   4.258 -0.2428  0.3044 -0.3190
  432MOL0     C58238   8.173   1.680   4.344  0.2932 -0.4820 -0.0711
  432MOL0     C58239   7.720   1.683   4.431 -0.4400 -0.6473 -0.5283
  432MOL0     C58240   7.766   1.645   4.561  0.1660 -0.4044 -0.6838
  432MOL0     C58241   7.684   1.580   4.657  0.2667 -0.4748 -0.6305
  432MOL0     C58242   7.548   1.575   4.634  0.4680 -0.0871 -0.6154
  432MOL0     O58243   7.472   1.511   4.731 -0.0305 -0.2146  0.1745
  432MOL0     C58244   7.339   1.474   4.705 -0.8439 -0.7779 -0.1542
  432MOL0     C58245   7.278   1.401   4.814  0.0274 -0.4656 -0.6053
  432MOL0     C58246   7.142   1.353   4.763 -0.0206  0.6009  0.4117
  432MOL0     C58247   7.120   1.202   4.718  0.2078 -0.4944 -0.1867
  432MOL0     C58248   7.218   1.146   4.630 -0.2217 -1.1324 -0.4431
  432MOL0     C58249   7.296   1.091   4.558 -0.2362  0.4380  0.8029
  432MOL0     C58250   7.501   1.623   4.509  0.1206  0.4379 -0.0299
  432MOL0     C58251   7.588   1.661   4.404 -0.0375  0.4138  0.2044
  432MOL0     C58252   7.524   1.698   4.270  0.0421  0.0918 -0.1424
  432MOL0     H58253   7.998   1.936   4.197  1.4000  2.8310  0.6902
  432MOL0     H58254   8.200   1.936   4.039  1.8051 -1.3891 -1.4204
  432MOL0     H58255   8.557   1.702   4.174 -0.1718 -0.0374  0.1423
  432MOL0     H58256   8.488   1.590   4.051  1.5651 -0.8511  0.1560
  432MOL0     H58257   8.601   1.741   3.877  2.3466 -2.1038 -1.2482
  432MOL0     H58258   8.697   1.639   3.981  1.4140  1.9144 -0.0081
  432MOL0     H58259   8.774   1.821   4.121  0.9633  2.0780 -0.1964
  432MOL0     H58260   8.663   1.932   4.038  0.1683  0.0718 -0.5688
  432MOL0     H58261   8.906   1.803   3.917 -2.7509 -2.4468 -1.7447
  432MOL0     H58262   8.772   1.862   3.824  2.3959 -1.2206 -1.2402
  432MOL0     H58263   8.773   2.072   3.914 -2.0628 -1.3890 -2.2009
  432MOL0     H58264   8.925   2.051   4.007  1.3684  2.2828 -2.3841
  432MOL0     H58265   8.874   2.016   3.716 -1.5224  2.0408  0.5806
  432MOL0     H58266   8.937   2.172   3.789  0.7488  1.0205 -0.6497
  432MOL0     H58267   9.098   1.917   3.778  1.1626  0.1781 -1.8198
  432MOL0     H58268   9.141   2.068   3.870  0.1449  2.2971 -0.8178
  432MOL0     H58269   9.055   2.076   3.571  0.3135 -0.0686 -1.4593
  432MOL0     H58270   9.155   2.185   3.667 -0.7657 -0.4219  4.2902
  432MOL0     H58271   9.161   1.800   3.577  0.1095 -0.9941  2.0069
  432MOL0     H58272   9.497   1.667   3.518  0.7261  0.2302 -1.2110
  432MOL0     H58273   9.334   1.615   3.493 -0.1814 -1.0350 -0.9071
  432MOL0     H58274   9.548   1.750   3.320 -0.4086  0.2156  3.5324
  432MOL0     H58275   9.473   1.590   3.299  0.8292 -0.4563  2.3470
  432MOL0     H58276   9.395   1.765   3.125 -2.8523 -0.1331 -1.0422
  432MOL0     H58277   9.324   1.853   3.257  0.7432  1.4132 -1.1808
  432MOL0     H58278   9.258   1.568   3.167 -0.1407 -0.3579 -1.2742
  432MOL0     H58279   9.170   1.699   3.107 -0.7718 -2.4119 -0.4786
  432MOL0     H58280   8.974   1.608   3.510 -0.7850  1.3814  0.4612
  432MOL0     H58281   8.789   1.741   3.570 -0.4122 -1.6033 -0.4504
  432MOL0     H58282   8.489   2.167   3.425  0.2248  0.2301  0.2100
  432MOL0     H58283   8.279   2.257   3.515  0.3385  1.3651  1.6027
  432MOL0     H58284   8.166   2.368   3.713 -1.5673  0.6531 -1.8227
  432MOL0     H58285   8.013   2.293   3.677 -1.1556  1.6793  1.5729
  432MOL0     H58286   8.125   2.346   3.964 -0.6452  2.1412  1.1735
  432MOL0     H58287   7.999   2.434   3.888 -0.5578 -0.0913  0.1807
  432MOL0     H58288   7.885   2.193   3.860  0.3344 -0.1356 -0.4060
  432MOL0     H58289   8.012   2.134   3.962  0.4191 -1.0258 -1.1238
  432MOL0     H58290   7.806   2.356   4.022 -3.6409 -0.4077  2.5707
  432MOL0     H58291   7.934   2.296   4.138  0.8000  2.9486 -2.0485
  432MOL0     H58292   7.736   2.202   4.206  0.3806  0.7187  0.5895
  432MOL0     H58293   7.836   2.076   4.137  2.0411  1.3492 -1.2635
  432MOL0     H58294   7.612   2.207   3.963 -1.3244  0.2387  0.1613
  432MOL0     H58295   7.695   2.049   3.947  0.5785 -3.4238  3.4727
  432MOL0     H58296   7.540   2.078   4.197 -1.6747 -0.1795  0.6606
  432MOL0     H58297   7.607   1.934   4.113  1.7857  0.3770  0.8889
  432MOL0     H58298   7.436   1.958   3.933 -2.1318 -0.3394 -0.0484
  432MOL0     H58299   7.374   1.931   4.099  2.6628 -1.4527  0.5037
  432MOL0     H58300   8.279   1.971   3.828  1.6438  0.3376  0.2586
  432MOL0     H58301   8.476   1.871   3.730 -0.8360 -1.5220 -1.8962
  432MOL0     H58302   8.921   2.041   3.280  1.9801  0.2563 -0.5853
  432MOL0     H58303   9.088   1.878   3.193 -2.0733  0.7132 -1.0087
  432MOL0     H58304   8.370   1.622   4.287 -1.2445 -0.4680  0.8163
  432MOL0     H58305   8.182   1.612   4.428 -0.2971  1.1627  1.3638
  432MOL0     H58306   7.869   1.655   4.594 -0.5407 -0.8083  1.8624
  432MOL0     H58307   7.720   1.535   4.749  0.8089  1.5830  0.2108
  432MOL0     H58308   7.342   1.412   4.615  2.4199  0.7478 -1.2781
  432MOL0     H58309   7.276   1.563   4.694 -1.0201 -0.8209  0.5298
  432MOL0     H58310   7.275   1.477   4.892  0.8558  1.9675 -2.8175
  432MOL0     H58311   7.342   1.318   4.844 -2.0654 -0.8364  3.4773
  432MOL0     H58312   7.106   1.427   4.691  1.9935  1.2385 -0.0026
  432MOL0     H58313   7.078   1.367   4.851  1.0481 -0.5141  1.3882
  432MOL0     H58314   7.113   1.136   4.805 -2.4801 -0.0940 -0.0086
  432MOL0     H58315   7.029   1.203   4.656 -0.0175  1.4429  0.1229
  432MOL0     H58316   7.355   1.031   4.492 -1.8297  2.0926 -2.3463
  432MOL0     H58317   7.395   1.611   4.488 -0.0414  1.6826  0.0245
  432MOL0     H58318   7.527   1.805   4.249 -2.7546 -0.3321 -3.5482
  432MOL0     H58319   7.568   1.638   4.190 -0.8551 -0.5503 -0.1715
  432MOL0     H58320   7.415   1.684   4.266 -0.3327  1.4212  2.7129
  433MOL0     O58321   2.697   7.815   9.318 -0.4087  0.6460 -0.2258
  433MOL0     C58322   2.752   7.848   9.429  0.5437 -0.4295  0.7577
  433MOL0     O58323   2.868   7.807   9.473 -0.5596  0.2575 -0.2597
  433MOL0     C58324   2.947   7.721   9.391  0.3769 -0.0231 -0.1927
  433MOL0     C58325   2.894   7.598   9.342  0.1065 -0.7623 -0.2995
  433MOL0     C58326   2.974   7.521   9.261  0.2175  0.9192 -0.4779
  433MOL0     C58327   3.112   7.546   9.251  0.7857 -0.0153  0.4036
  433MOL0     O58328   3.187   7.450   9.185  0.3798 -0.3459  0.1073
  433MOL0     C58329   3.288   7.479   9.090 -0.4023  0.3051  0.2644
  433MOL0     C58330   3.418   7.450   9.161 -0.0905 -1.3133 -0.6987
  433MOL0     C58331   3.538   7.482   9.068 -0.3849  0.1634 -0.6760
  433MOL0     C58332   3.534   7.614   8.995  0.3724 -1.1460  0.1506
  433MOL0     C58333   3.673   7.655   8.924 -0.3316 -0.0275 -0.2598
  433MOL0     C58334   3.644   7.781   8.845 -0.3298 -0.0134  0.4480
  433MOL0     C58335   3.771   7.828   8.773 -0.0161 -0.6452 -0.4035
  433MOL0     C58336   3.810   7.754   8.650 -0.7202  0.3609 -0.6095
  433MOL0     N58337   3.926   7.814   8.578  0.4589 -0.2211  0.1371
  433MOL0     C58338   3.972   7.945   8.574  0.0382 -0.6066 -0.2358
  433MOL0     C58339   4.096   7.938   8.516 -0.6640  0.2106  0.4158
  433MOL0     C58340   4.182   8.053   8.471 -0.2674  0.1535  0.0863
  433MOL0     C58341   4.318   8.009   8.420  0.6709  0.1860  0.1760
  433MOL0     C58342   4.394   8.132   8.369  0.9316 -0.0257 -0.6463
  433MOL0     C58343   4.539   8.104   8.324  1.3136  0.4647 -0.1505
  433MOL0     O58344   4.538   8.024   8.197 -0.6960 -0.0016  0.4828
  433MOL0     C58345   4.638   8.055   8.099 -0.5690  0.0758 -1.0190
  433MOL0     C58346   4.617   8.020   7.968  0.4600  0.3133  0.0130
  433MOL0     C58347   4.714   8.040   7.869 -1.2115 -0.9452  0.4911
  433MOL0     C58348   4.835   8.099   7.899 -0.7798  0.1333  0.0650
  433MOL0     C58349   4.927   8.122   7.792  0.0556  0.9996 -0.5541
  433MOL0     O58350   4.937   8.032   7.686 -0.1180  0.2258  0.4878
  433MOL0     C58351   5.034   8.053   7.589 -1.2969 -0.2726  0.5514
  433MOL0     C58352   5.037   8.175   7.521  0.6530 -0.7398 -0.2516
  433MOL0     C58353   5.127   8.196   7.419 -1.0575 -0.3542 -0.6703
  433MOL0     C58354   5.205   8.092   7.373 -0.1851 -0.5596 -0.1677
  433MOL0     O58355   5.291   8.099   7.266  0.4623 -0.1934  0.7101
  433MOL0     C58356   5.313   8.223   7.201  0.7422  0.6271 -0.2908
  433MOL0     C58357   5.435   8.289   7.263  0.7076  0.9660  0.8811
  433MOL0     C58358   5.555   8.261   7.172 -0.7448  0.4265 -0.4544
  433MOL0     C58359   5.677   8.347   7.223 -0.7424 -0.0383  0.5209
  433MOL0     C58360   5.813   8.307   7.150 -0.0492 -0.3124 -0.3569
  433MOL0     C58361   5.922   8.411   7.166  0.2105  0.6784 -0.0035
  433MOL0     C58362   6.051   8.380   7.099  0.1562  0.1733  0.9470
  433MOL0     C58363   6.143   8.500   7.094 -0.5594  0.4718 -0.2524
  433MOL0    Cl58364   6.290   8.452   7.003 -0.0379 -0.0131 -0.4279
  433MOL0     C58365   5.201   7.966   7.431  0.3712 -0.2332 -0.6227
  433MOL0     C58366   5.116   7.948   7.547 -0.4976  0.0496  0.7804
  433MOL0     O58367   4.995   8.221   7.810 -0.1699 -0.4781  0.4875
  433MOL0     C58368   4.861   8.132   8.032  0.5193 -0.5402  0.2859
  433MOL0     C58369   4.767   8.121   8.130 -0.0378 -0.0452  0.0369
  433MOL0     N58370   4.109   7.808   8.464  0.9683 -0.0237  0.1154
  433MOL0     N58371   4.013   7.739   8.508  0.6447  0.1335  0.5606
  433MOL0     C58372   3.162   7.664   9.309  0.9991  0.1637  0.2416
  433MOL0     C58373   3.073   7.760   9.369  0.6368  0.2362  0.5006
  433MOL0     C58374   2.673   7.938   9.511 -0.2257  0.4130  0.9749
  433MOL0     C58375   2.581   8.017   9.445 -0.1381  0.5533 -0.5126
  433MOL0     C58376   2.501   8.096   9.520 -0.0930 -0.1734 -0.3910
  433MOL0     C58377   2.505   8.116   9.659  0.1446  0.4234 -0.8901
  433MOL0     O58378   2.427   8.190   9.736  0.7581 -0.3233 -0.5869
  433MOL0     C58379   2.349   8.298   9.681 -0.8412  0.4919 -0.4369
  433MOL0     C58380   2.311   8.387   9.797  0.0022 -0.5940  0.2403
  433MOL0     C58381   2.252   8.326   9.924 -0.0617 -0.5594  0.3592
  433MOL0     C58382   2.149   8.215   9.913 -0.0757  0.5426 -0.5570
  433MOL0     C58383   2.035   8.264   9.839 -0.3874 -0.2403  0.1183
  433MOL0     C58384   1.927   8.276   9.790  1.4238  1.1067 -0.1099
  433MOL0     C58385   2.605   8.046   9.720  0.0545 -0.4403 -1.4637
  433MOL0     C58386   2.687   7.953   9.654  0.1498  0.7114 -0.4154
  433MOL0     C58387   2.788   7.878   9.736  0.1553  0.0442 -0.3424
  433MOL0     H58388   2.794   7.560   9.356  0.1605 -0.7256  0.2023
  433MOL0     H58389   2.943   7.430   9.211  0.9398  0.1979  0.3535
  433MOL0     H58390   3.275   7.429   8.993 -1.0774  1.1685 -0.0999
  433MOL0     H58391   3.280   7.585   9.065  1.4618  0.8756  1.8464
  433MOL0     H58392   3.422   7.352   9.209  0.7974 -1.0216 -0.1562
  433MOL0     H58393   3.419   7.515   9.249 -1.1784 -1.1996 -0.7496
  433MOL0     H58394   3.553   7.396   9.002  2.0762 -0.0116  0.0136
  433MOL0     H58395   3.624   7.483   9.136  0.2383 -2.0938 -1.3533
  433MOL0     H58396   3.461   7.620   8.914  0.5219  2.9753  0.0928
  433MOL0     H58397   3.501   7.693   9.064 -3.1806 -0.6379 -1.8836
  433MOL0     H58398   3.744   7.662   9.007 -0.6504 -1.3957  0.1638
  433MOL0     H58399   3.711   7.586   8.848 -3.2642 -0.2232 -1.6997
  433MOL0     H58400   3.574   7.758   8.765  1.8358 -3.2499 -0.6880
  433MOL0     H58401   3.600   7.862   8.904  1.3426  0.5368  1.0062
  433MOL0     H58402   3.848   7.822   8.850 -1.4985 -0.2965  1.1855
  433MOL0     H58403   3.754   7.934   8.752  0.7535 -0.4572 -0.1188
  433MOL0     H58404   3.842   7.656   8.685  0.2139 -0.0164 -2.3985
  433MOL0     H58405   3.725   7.740   8.582 -1.6030 -0.1403  0.5781
  433MOL0     H58406   3.929   8.038   8.608  0.7127 -0.8036  1.2060
  433MOL0     H58407   4.129   8.120   8.402 -0.4713 -0.6809 -0.5880
  433MOL0     H58408   4.201   8.110   8.563 -1.9143 -0.6405  0.9523
  433MOL0     H58409   4.373   7.969   8.506 -1.4974 -4.1541 -0.1739
  433MOL0     H58410   4.316   7.926   8.348  0.2126  0.2491  0.1172
  433MOL0     H58411   4.391   8.213   8.443  0.8754  0.9321 -1.6674
  433MOL0     H58412   4.336   8.185   8.293  2.7609  5.0627  1.0433
  433MOL0     H58413   4.586   8.041   8.400  0.8562  0.2395 -0.0467
  433MOL0     H58414   4.598   8.195   8.327 -0.8453  1.9381  0.0012
  433MOL0     H58415   4.524   7.975   7.935 -0.2348  2.3389 -0.9670
  433MOL0     H58416   4.682   8.039   7.766 -2.3240  0.9190  0.7796
  433MOL0     H58417   4.953   8.240   7.541  0.5926 -1.0459  0.5402
  433MOL0     H58418   5.133   8.295   7.375  1.3683 -1.0593 -2.1175
  433MOL0     H58419   5.326   8.211   7.093  1.7706  0.4469 -0.1646
  433MOL0     H58420   5.228   8.290   7.218 -0.9835 -2.0204  2.3836
  433MOL0     H58421   5.425   8.397   7.256 -0.9831  0.7774 -0.1627
  433MOL0     H58422   5.465   8.258   7.363  2.3787  0.2101  0.1922
  433MOL0     H58423   5.583   8.156   7.180 -2.9080 -0.4315 -2.8914
  433MOL0     H58424   5.532   8.277   7.067 -2.1022 -0.3955 -0.3089
  433MOL0     H58425   5.695   8.339   7.331  3.0172 -3.0441 -0.1171
  433MOL0     H58426   5.660   8.451   7.193  1.3784  0.5005  0.9679
  433MOL0     H58427   5.796   8.288   7.043 -0.4343  0.0925 -0.3688
  433MOL0     H58428   5.848   8.210   7.187 -2.0257 -0.5038  1.1267
  433MOL0     H58429   5.885   8.510   7.139 -3.0531  0.1326  1.9616
  433MOL0     H58430   5.953   8.418   7.271 -2.7994  3.9460  0.8550
  433MOL0     H58431   6.029   8.347   6.997 -2.0336  0.4143  1.2967
  433MOL0     H58432   6.105   8.300   7.151  1.2924  1.0843  1.2234
  433MOL0     H58433   6.093   8.573   7.030 -2.4392 -0.8688 -0.3982
  433MOL0     H58434   6.161   8.545   7.192  0.8075  3.0110 -1.5612
  433MOL0     H58435   5.252   7.883   7.383  2.7368  1.3775 -1.0441
  433MOL0     H58436   5.108   7.846   7.583  1.6730 -0.7871 -0.9538
  433MOL0     H58437   4.958   8.169   8.062 -0.1588  0.4688  1.2695
  433MOL0     H58438   4.804   8.154   8.227  2.2284  0.5349 -0.9575
  433MOL0     H58439   3.266   7.689   9.289  0.9794 -1.3252 -2.2167
  433MOL0     H58440   3.117   7.856   9.392  0.2674  0.1104  1.7733
  433MOL0     H58441   2.573   8.012   9.337 -2.2358  2.7856 -0.5401
  433MOL0     H58442   2.428   8.155   9.464 -2.1492 -1.6517  0.5843
  433MOL0     H58443   2.252   8.255   9.655 -2.1646  1.8573  1.9663
  433MOL0     H58444   2.405   8.348   9.602  1.6556  1.5606  1.8351
  433MOL0     H58445   2.235   8.456   9.758 -0.4227 -1.7705 -1.1084
  433MOL0     H58446   2.393   8.451   9.828 -0.6638  0.0267  0.7617
  433MOL0     H58447   2.208   8.403   9.988  2.6597 -0.7010  2.6554
  433MOL0     H58448   2.338   8.290   9.983  0.4675 -1.5604 -0.9679
  433MOL0     H58449   2.181   8.122   9.866 -2.5135 -0.9175  0.4818
  433MOL0     H58450   2.109   8.193  10.012  0.8066  1.5613  0.0577
  433MOL0     H58451   1.831   8.282   9.743  1.3867  1.2895 -0.0093
  433MOL0     H58452   2.631   8.061   9.824  1.7583  0.4455 -1.9763
  433MOL0     H58453   2.885   7.921   9.706  0.0131  0.4022 -0.3020
  433MOL0     H58454   2.764   7.888   9.843  1.7450 -1.7837  0.2352
  433MOL0     H58455   2.788   7.773   9.705 -1.8961  0.4136 -1.7777
  434MOL0     O58456   1.477   2.838  11.323 -0.0461  0.0286 -0.2371
  434MOL0     C58457   1.396   2.865  11.236 -0.4182  0.3580 -1.6080
  434MOL0     O58458   1.419   2.868  11.096  0.3702  0.1258 -0.9130
  434MOL0     C58459   1.544   2.843  11.045 -0.1161 -0.4747 -0.3157
  434MOL0     C58460   1.552   2.764  10.924  0.1892  0.6896  0.1088
  434MOL0     C58461   1.677   2.767  10.851  0.3477  0.4953 -0.7636
  434MOL0     C58462   1.784   2.838  10.910  0.0438  0.1204  1.1052
  434MOL0     O58463   1.901   2.844  10.839  0.0917  0.9514 -0.2841
  434MOL0     C58464   1.966   2.972  10.837  0.5687  0.5023  0.3456
  434MOL0     C58465   2.062   2.981  10.713  0.6305 -0.0131 -0.6699
  434MOL0     C58466   2.178   2.884  10.696  0.5132  1.5138 -0.6123
  434MOL0     C58467   2.132   2.728  10.685  0.0948 -0.6590  0.4293
  434MOL0     C58468   2.246   2.627  10.649  0.0403 -0.1351 -1.3549
  434MOL0     C58469   2.359   2.626  10.754 -0.1466  0.0331  0.2258
  434MOL0     C58470   2.475   2.540  10.690 -0.4060  0.6800  0.5892
  434MOL0     C58471   2.487   2.414  10.772 -0.4062  0.4048 -0.4749
  434MOL0     N58472   2.633   2.359  10.781  0.8254  0.0215  0.4918
  434MOL0     C58473   2.691   2.284  10.885 -0.3769 -0.2156  0.4547
  434MOL0     C58474   2.793   2.216  10.825 -0.1859 -0.2895 -0.3631
  434MOL0     C58475   2.903   2.143  10.896 -0.1441 -0.2343  0.1620
  434MOL0     C58476   3.034   2.165  10.825  0.3329  0.2279 -0.6731
  434MOL0     C58477   3.111   2.305  10.859  0.6134  0.5206 -0.0067
  434MOL0     C58478   3.255   2.310  10.807  0.3150 -0.0767  0.1449
  434MOL0     O58479   3.325   2.185  10.834  0.2769  0.0537  0.2114
  434MOL0     C58480   3.433   2.165  10.757 -0.5709 -0.5054 -0.3969
  434MOL0     C58481   3.460   2.038  10.708  0.3701 -0.3976  0.2329
  434MOL0     C58482   3.570   2.014  10.624 -0.0874  0.6166 -0.6766
  434MOL0     C58483   3.656   2.117  10.600  0.3347 -1.0031 -0.2862
  434MOL0     C58484   3.790   2.076  10.551 -0.5685 -1.4364 -0.5200
  434MOL0     O58485   3.872   2.186  10.533 -0.2422 -0.7754 -0.3308
  434MOL0     C58486   3.998   2.168  10.492 -0.8084  0.1202 -0.3554
  434MOL0     C58487   4.098   2.239  10.555 -0.5485 -0.1563 -0.3978
  434MOL0     C58488   4.232   2.231  10.503 -0.2581  0.4265  0.6498
  434MOL0     C58489   4.255   2.147  10.391 -0.4608  0.1405 -0.7387
  434MOL0     O58490   4.383   2.149  10.338 -0.2801  0.5616  0.6239
  434MOL0     C58491   4.406   2.097  10.203 -0.5981 -0.3616 -0.4235
  434MOL0     C58492   4.556   2.114  10.170  0.5605  0.6318 -0.8316
  434MOL0     C58493   4.596   2.024  10.052 -0.0348 -0.5338 -0.2540
  434MOL0     C58494   4.753   2.026  10.047 -0.3334 -1.3638 -0.9956
  434MOL0     C58495   4.805   1.911   9.957 -0.2462 -1.4957  0.1084
  434MOL0     C58496   4.954   1.920   9.920  0.1267 -0.7010  0.1369
  434MOL0     C58497   4.998   1.788   9.861  0.0660  0.0094 -1.1479
  434MOL0     C58498   5.147   1.792   9.884 -0.2674 -0.4594 -0.3395
  434MOL0    Cl58499   5.221   1.671   9.783  0.5697 -0.4168  0.5473
  434MOL0     C58500   4.152   2.073  10.332  0.9450  0.0640  0.0686
  434MOL0     C58501   4.025   2.076  10.392 -0.9127 -0.3786 -0.5714
  434MOL0     O58502   3.828   1.953  10.554  0.6672  0.0981  0.4674
  434MOL0     C58503   3.638   2.242  10.658 -0.9931  0.2079 -0.4613
  434MOL0     C58504   3.528   2.266  10.735 -0.6572  0.6765  0.1061
  434MOL0     N58505   2.794   2.242  10.685 -0.1033 -0.5557 -0.7926
  434MOL0     N58506   2.693   2.317  10.664  0.2568  0.6931 -0.6831
  434MOL0     C58507   1.772   2.898  11.034  0.2856  0.7657  0.4539
  434MOL0     C58508   1.656   2.902  11.099 -0.2247  0.0837 -0.7169
  434MOL0     C58509   1.258   2.892  11.286  0.1487  0.1928 -0.5982
  434MOL0     C58510   1.210   2.814  11.382  0.2778  0.2964  0.2030
  434MOL0     C58511   1.082   2.815  11.429 -0.0308 -0.9955 -0.7963
  434MOL0     C58512   0.987   2.909  11.383 -1.3397 -0.2035 -0.0589
  434MOL0     O58513   0.866   2.906  11.446 -0.1206 -0.0416 -0.7256
  434MOL0     C58514   0.757   2.973  11.374  0.2863 -0.0021  0.4291
  434MOL0     C58515   0.607   2.935  11.418  0.0418 -0.1471 -0.5959
  434MOL0     C58516   0.585   2.792  11.362 -0.1764  0.3333  0.6951
  434MOL0     C58517   0.464   2.708  11.402 -0.3390  0.2502  0.3884
  434MOL0     C58518   0.346   2.779  11.357  0.7262  0.2307 -0.6994
  434MOL0     C58519   0.247   2.849  11.316  0.5627 -0.3261 -0.0384
  434MOL0     C58520   1.028   2.983  11.274  0.1566 -0.6681 -1.0020
  434MOL0     C58521   1.163   2.979  11.231  0.6772  0.1926 -0.0124
  434MOL0     C58522   1.203   3.072  11.115  0.4499 -0.0584  0.1296
  434MOL0     H58523   1.460   2.729  10.878 -0.1446  1.1402  0.4240
  434MOL0     H58524   1.689   2.720  10.754 -2.7558 -0.3951 -0.8214
  434MOL0     H58525   1.893   3.049  10.813 -0.5317 -0.9717 -1.2684
  434MOL0     H58526   2.015   2.983  10.935 -0.3058 -0.7947  0.9583
  434MOL0     H58527   2.106   3.080  10.724 -0.5600  0.4577  0.0174
  434MOL0     H58528   2.001   2.988  10.622  2.2576 -2.4518 -2.0709
  434MOL0     H58529   2.233   2.896  10.790  1.4099 -2.6222 -0.3966
  434MOL0     H58530   2.227   2.911  10.602  0.2741 -1.7011 -1.7678
  434MOL0     H58531   2.095   2.707  10.786  1.2720 -2.2543  0.5647
  434MOL0     H58532   2.056   2.726  10.607  0.8728  0.6418 -0.3987
  434MOL0     H58533   2.194   2.531  10.652  0.6982 -0.5014  1.7736
  434MOL0     H58534   2.280   2.659  10.551 -1.1814  1.7343 -1.2087
  434MOL0     H58535   2.386   2.730  10.772 -1.1087 -0.0062  2.2525
  434MOL0     H58536   2.313   2.586  10.846  0.7178  0.3908  0.8197
  434MOL0     H58537   2.566   2.600  10.698  0.6785 -1.1633  5.4382
  434MOL0     H58538   2.457   2.509  10.586  2.0620  0.1880  0.2565
  434MOL0     H58539   2.451   2.426  10.875  1.7698 -0.9779  0.5178
  434MOL0     H58540   2.416   2.343  10.730  2.2541 -1.8400 -1.4447
  434MOL0     H58541   2.662   2.284  10.990  2.7710  0.1105  1.4285
  434MOL0     H58542   2.905   2.178  11.000 -0.8629  0.2964  0.0105
  434MOL0     H58543   2.862   2.042  10.885  1.2399 -1.1003  2.2778
  434MOL0     H58544   3.098   2.082  10.856 -2.9437 -2.1144  0.3439
  434MOL0     H58545   3.017   2.155  10.717 -1.3140 -0.0019 -0.4134
  434MOL0     H58546   3.100   2.319  10.967  2.5055 -1.5951  0.5278
  434MOL0     H58547   3.049   2.383  10.814 -0.3516 -0.7136 -0.8799
  434MOL0     H58548   3.310   2.399  10.839 -1.0579  1.2103 -0.9108
  434MOL0     H58549   3.254   2.309  10.698  1.7341 -3.4561  0.0576
  434MOL0     H58550   3.411   1.953  10.755 -2.4192  0.4333 -0.9132
  434MOL0     H58551   3.597   1.910  10.609  1.7583  0.7891  1.1325
  434MOL0     H58552   4.073   2.308  10.636 -0.9296 -0.8071  0.0534
  434MOL0     H58553   4.307   2.292  10.552 -0.7602 -1.7708  4.6084
  434MOL0     H58554   4.379   1.993  10.224 -1.5006  0.5757  4.2881
  434MOL0     H58555   4.342   2.132  10.121 -2.1925  1.8515  1.5910
  434MOL0     H58556   4.578   2.216  10.136  0.7148  0.4921 -1.1503
  434MOL0     H58557   4.619   2.087  10.255  0.0998 -3.7346 -1.6693
  434MOL0     H58558   4.560   1.923  10.076  1.3022 -1.4692 -1.9876
  434MOL0     H58559   4.555   2.062   9.958 -2.0168  0.5498  0.9590
  434MOL0     H58560   4.795   1.995  10.144 -0.8175  2.1781  0.5011
  434MOL0     H58561   4.782   2.130  10.029 -1.7468 -0.5965  0.8618
  434MOL0     H58562   4.747   1.917   9.864 -1.1826 -2.8576  0.5823
  434MOL0     H58563   4.775   1.815   9.999  0.7525 -1.7047  0.3686
  434MOL0     H58564   4.977   2.004   9.854  0.2231 -3.1385 -3.1790
  434MOL0     H58565   5.011   1.938  10.012  0.6665 -1.0303 -0.1272
  434MOL0     H58566   4.975   1.763   9.757 -3.4042 -2.3055 -0.0318
  434MOL0     H58567   4.952   1.713   9.927 -0.4718  0.5469 -0.8955
  434MOL0     H58568   5.188   1.889   9.854  3.3799 -0.9483  2.3879
  434MOL0     H58569   5.171   1.795   9.990 -1.4959 -0.5150 -0.0545
  434MOL0     H58570   4.158   2.019  10.238 -3.8561  0.5246 -0.7649
  434MOL0     H58571   3.948   2.015  10.345  0.1908 -0.8311 -1.8680
  434MOL0     H58572   3.719   2.314  10.648  0.7839 -1.6597 -0.2742
  434MOL0     H58573   3.516   2.363  10.782 -0.2193  0.6092  0.3629
  434MOL0     H58574   1.864   2.946  11.066  1.1680 -1.8555  2.1744
  434MOL0     H58575   1.652   2.978  11.176 -1.8429 -1.6769  1.0628
  434MOL0     H58576   1.276   2.735  11.418 -1.6246 -1.4049  0.0905
  434MOL0     H58577   1.055   2.741  11.505 -3.2767  0.8166  0.0427
  434MOL0     H58578   0.749   2.949  11.268 -1.9253  1.8741  0.0915
  434MOL0     H58579   0.766   3.081  11.377  1.4422  0.0178 -1.8809
  434MOL0     H58580   0.541   3.014  11.382  0.0605 -0.1657 -0.6726
  434MOL0     H58581   0.598   2.925  11.526 -0.8280 -2.1190 -0.7944
  434MOL0     H58582   0.672   2.740  11.402  0.4259 -0.4719 -1.5486
  434MOL0     H58583   0.605   2.789  11.255  5.0746 -3.4555  1.3904
  434MOL0     H58584   0.461   2.605  11.365  0.3673  0.0979  0.7336
  434MOL0     H58585   0.467   2.692  11.510 -1.5474  0.6315  0.4852
  434MOL0     H58586   0.159   2.900  11.283  0.0541 -1.3612 -0.3554
  434MOL0     H58587   0.957   3.054  11.234  0.0441  0.8364  1.6226
  434MOL0     H58588   1.126   3.150  11.118 -0.9113 -1.3512  2.9593
  434MOL0     H58589   1.300   3.118  11.131 -0.3161  1.8913 -0.4275
  434MOL0     H58590   1.193   3.011  11.024  0.9789  1.1936 -0.8010
  435MOL0     O58591   0.107   8.196   7.944 -0.7621  0.1570  0.2206
  435MOL0     C58592   0.077   8.094   8.013 -0.2479 -0.2201  0.4593
  435MOL0     O58593   0.145   8.037   8.113  0.0626 -0.0480  0.1492
  435MOL0     C58594   0.233   8.124   8.191 -0.0054 -0.3679 -0.3762
  435MOL0     C58595   0.360   8.071   8.232 -0.0982  0.2588  0.7594
  435MOL0     C58596   0.459   8.147   8.288 -0.3027  1.1737 -0.6907
  435MOL0     C58597   0.430   8.279   8.315 -0.6607  0.2961  0.6829
  435MOL0     O58598   0.531   8.353   8.369  0.5372 -0.6220 -0.5733
  435MOL0     C58599   0.634   8.391   8.271  0.8867 -0.0959 -0.2730
  435MOL0     C58600   0.690   8.528   8.319  0.0030  0.6006  0.3043
  435MOL0     C58601   0.802   8.520   8.422  0.6997  0.2458  0.1973
  435MOL0     C58602   0.855   8.662   8.447 -0.0907 -0.0250 -0.4102
  435MOL0     C58603   0.980   8.664   8.529 -0.5735  0.7512  0.2224
  435MOL0     C58604   0.967   8.586   8.656 -0.8913  0.0061 -0.1051
  435MOL0     C58605   1.102   8.586   8.724  0.0186 -0.2599 -1.0162
  435MOL0     C58606   1.099   8.504   8.853 -0.2098  0.0044  0.2328
  435MOL0     N58607   1.210   8.530   8.943 -0.3671  1.0301  0.3208
  435MOL0     C58608   1.339   8.562   8.900 -0.3065 -0.2454  0.0770
  435MOL0     C58609   1.407   8.564   9.015  0.1081 -0.0824 -0.3901
  435MOL0     C58610   1.551   8.566   9.004 -0.3380  0.2874 -0.6314
  435MOL0     C58611   1.609   8.712   9.016  0.8920  0.4641 -0.4071
  435MOL0     C58612   1.767   8.707   8.999 -0.1456 -0.1317  0.1320
  435MOL0     C58613   1.835   8.833   8.938 -0.0484  0.3597 -0.4272
  435MOL0     O58614   1.957   8.781   8.880  0.0711 -0.7978 -0.3526
  435MOL0     C58615   2.043   8.871   8.826  0.5108 -1.1535  0.1517
  435MOL0     C58616   2.169   8.826   8.800  0.5193  0.1370 -0.7421
  435MOL0     C58617   2.250   8.911   8.729 -0.1894  0.5354  0.0808
  435MOL0     C58618   2.211   9.035   8.679 -0.3645 -0.0881 -0.1358
  435MOL0     C58619   2.301   9.116   8.600  0.4236  0.8656  0.6374
  435MOL0     O58620   2.438   9.080   8.602  0.1617  0.2970  0.1138
  435MOL0     C58621   2.546   9.162   8.572 -0.1563  0.0485  0.3638
  435MOL0     C58622   2.673   9.114   8.581  0.2355  0.1416 -0.3052
  435MOL0     C58623   2.790   9.181   8.554 -0.2244 -0.0600 -0.5591
  435MOL0     C58624   2.781   9.317   8.516 -0.8465 -0.6011  0.0797
  435MOL0     O58625   2.900   9.374   8.489  0.2577 -0.0952  0.7480
  435MOL0     C58626   2.901   9.497   8.422  0.5229 -0.2382  0.3803
  435MOL0     C58627   3.040   9.543   8.413  0.1365  0.2400 -0.7313
  435MOL0     C58628   3.077   9.613   8.547 -0.1271 -0.2382 -0.7221
  435MOL0     C58629   3.204   9.697   8.542 -0.0882  0.3406  0.3676
  435MOL0     C58630   3.261   9.750   8.674 -0.1381  0.2707  0.0273
  435MOL0     C58631   3.411   9.801   8.673  0.1164 -0.2855  0.2908
  435MOL0     C58632   3.435   9.891   8.797  0.8985 -0.1555 -0.2628
  435MOL0     C58633   3.583   9.932   8.784 -0.8805 -0.4777 -0.1186
  435MOL0    Cl58634   3.636  10.044   8.922 -0.7891  0.3167  0.0345
  435MOL0     C58635   2.650   9.376   8.504  0.5415 -0.4306  0.6359
  435MOL0     C58636   2.539   9.298   8.538  0.2142 -0.3640  0.2399
  435MOL0     O58637   2.253   9.215   8.544 -0.0995  0.2211  0.3730
  435MOL0     C58638   2.081   9.080   8.709 -1.3322  1.0360 -0.5451
  435MOL0     C58639   1.991   8.997   8.788  0.4546 -0.1148  0.5462
  435MOL0     N58640   1.328   8.549   9.121  0.6788  0.2333 -0.0709
  435MOL0     N58641   1.202   8.539   9.079 -0.0231  0.0526  0.1036
  435MOL0     C58642   0.298   8.331   8.288 -0.5776  0.9968 -0.2163
  435MOL0     C58643   0.200   8.247   8.231 -0.1735  0.0881 -0.0212
  435MOL0     C58644  -0.042   8.022   7.970  0.8004  0.3279 -0.4140
  435MOL0     C58645  -0.043   7.883   7.992  0.6499  0.2424  0.4904
  435MOL0     C58646  -0.175   7.821   7.980 -0.4586 -0.4264 -0.2783
  435MOL0     C58647  -0.289   7.881   7.934 -0.5186 -0.0943  0.1199
  435MOL0     O58648  -0.401   7.809   7.953 -0.4399 -0.3900  0.1157
  435MOL0     C58649  -0.519   7.858   7.894 -0.3922  0.2566  0.4211
  435MOL0     C58650  -0.638   7.777   7.951  0.5007 -0.6040  0.0355
  435MOL0     C58651  -0.690   7.816   8.087 -0.3986 -0.2823  0.2033
  435MOL0     C58652  -0.796   7.707   8.139  0.3756  0.1336 -0.6824
  435MOL0     C58653  -0.939   7.757   8.114  0.8527 -0.0942 -0.6785
  435MOL0     C58654  -1.038   7.817   8.109  0.6290  0.7525 -0.6937
  435MOL0     C58655  -0.276   8.006   7.876  0.1333  0.1456 -0.7824
  435MOL0     C58656  -0.161   8.079   7.908 -0.3186  0.2447  0.3827
  435MOL0     C58657  -0.163   8.230   7.888  0.0657 -0.7117  0.1812
  435MOL0     H58658   0.382   7.966   8.219 -0.6869  0.4866 -3.2038
  435MOL0     H58659   0.559   8.112   8.307 -0.6948 -0.4068 -1.3829
  435MOL0     H58660   0.700   8.305   8.256 -3.5375 -3.8076 -1.0988
  435MOL0     H58661   0.578   8.401   8.177 -1.2610 -1.0377  0.8157
  435MOL0     H58662   0.608   8.595   8.345 -1.6365 -0.2962 -2.1743
  435MOL0     H58663   0.734   8.578   8.232 -0.9784 -1.4434 -1.4729
  435MOL0     H58664   0.870   8.448   8.374 -1.1839 -2.9211  1.8952
  435MOL0     H58665   0.762   8.478   8.515 -0.4030 -2.9220 -1.5248
  435MOL0     H58666   0.876   8.710   8.351  3.6367 -0.2124  0.1930
  435MOL0     H58667   0.778   8.714   8.505 -0.9862  0.2713 -1.8157
  435MOL0     H58668   1.054   8.612   8.467 -0.8214 -1.9117  2.0094
  435MOL0     H58669   1.010   8.767   8.552 -0.0912  0.5157  0.6758
  435MOL0     H58670   0.893   8.622   8.728  0.7347  1.7318  0.7720
  435MOL0     H58671   0.951   8.481   8.628 -1.8977  0.6345 -2.1248
  435MOL0     H58672   1.124   8.689   8.755 -1.9225 -0.0635 -0.1458
  435MOL0     H58673   1.181   8.548   8.660  0.1336 -1.7510 -0.0201
  435MOL0     H58674   1.001   8.520   8.898 -1.8065 -0.2088 -2.8710
  435MOL0     H58675   1.098   8.399   8.823 -1.7313  0.6883 -2.4601
  435MOL0     H58676   1.373   8.563   8.797 -0.6574 -0.7156 -0.0476
  435MOL0     H58677   1.597   8.508   9.084  2.0985 -0.6749 -2.5751
  435MOL0     H58678   1.588   8.517   8.913  0.8951 -0.1584  0.0857
  435MOL0     H58679   1.563   8.795   8.963 -1.9011  0.8731  2.3616
  435MOL0     H58680   1.599   8.748   9.118 -0.8378  1.7070 -0.9699
  435MOL0     H58681   1.792   8.622   8.934 -0.5649  1.7561 -2.6678
  435MOL0     H58682   1.821   8.693   9.093  1.2923 -0.1056 -0.6531
  435MOL0     H58683   1.865   8.904   9.016  0.6285  0.2732 -0.6043
  435MOL0     H58684   1.766   8.882   8.868 -1.6010 -0.0841  0.7500
  435MOL0     H58685   2.193   8.726   8.833 -0.1361  0.9101  2.5483
  435MOL0     H58686   2.354   8.885   8.713 -0.0443  1.1578 -0.0185
  435MOL0     H58687   2.682   9.009   8.608 -1.1005  0.1695  0.3465
  435MOL0     H58688   2.889   9.138   8.558 -1.4934 -3.3575 -1.1332
  435MOL0     H58689   2.869   9.495   8.317  0.1610 -1.6434  0.5058
  435MOL0     H58690   2.838   9.576   8.463 -1.6497 -1.8038  0.2347
  435MOL0     H58691   3.106   9.458   8.393  0.9440  0.7402 -0.2915
  435MOL0     H58692   3.041   9.617   8.332 -1.4702 -0.3989 -1.3665
  435MOL0     H58693   2.998   9.678   8.587  0.3546  1.3427 -2.1927
  435MOL0     H58694   3.100   9.534   8.618 -2.8290 -1.9362 -1.5752
  435MOL0     H58695   3.201   9.768   8.460  0.1020 -0.7605 -0.6174
  435MOL0     H58696   3.270   9.613   8.516 -0.7754 -1.4756  3.8210
  435MOL0     H58697   3.245   9.668   8.744  3.0907 -1.6145 -1.2344
  435MOL0     H58698   3.198   9.838   8.695  0.2407  0.1719  1.6828
  435MOL0     H58699   3.481   9.717   8.684 -1.0357 -1.1897  0.9801
  435MOL0     H58700   3.437   9.859   8.584 -0.0096  0.8483  0.9862
  435MOL0     H58701   3.425   9.838   8.892 -0.2367 -1.4857 -1.0904
  435MOL0     H58702   3.382   9.987   8.801  0.3490 -0.4070 -1.2534
  435MOL0     H58703   3.648   9.844   8.783  1.9134  1.4200  0.4096
  435MOL0     H58704   3.590   9.996   8.695  0.5188  1.2349  1.1603
  435MOL0     H58705   2.620   9.474   8.467  1.0759 -0.7547 -0.6959
  435MOL0     H58706   2.446   9.350   8.517  1.4551  1.8606 -0.0110
  435MOL0     H58707   2.055   9.179   8.672  0.0240  0.8601 -2.0531
  435MOL0     H58708   1.893   9.039   8.808 -1.8082 -3.9813 -1.4724
  435MOL0     H58709   0.278   8.435   8.310 -1.2290  0.8614 -0.1403
  435MOL0     H58710   0.103   8.290   8.207 -0.4408 -0.6472 -0.2603
  435MOL0     H58711   0.033   7.828   8.046  0.3948 -1.1531 -0.5373
  435MOL0     H58712  -0.191   7.718   8.010 -0.7305 -0.7008 -1.3167
  435MOL0     H58713  -0.502   7.864   7.786  0.9858 -0.5145  0.5723
  435MOL0     H58714  -0.531   7.963   7.925 -3.1156 -0.8474  3.7088
  435MOL0     H58715  -0.615   7.670   7.952  0.5749 -0.5868  0.2172
  435MOL0     H58716  -0.717   7.776   7.875 -1.7514  0.7913  2.2280
  435MOL0     H58717  -0.734   7.916   8.087  0.2523  0.0166  0.7024
  435MOL0     H58718  -0.607   7.823   8.158 -1.2920 -0.6891  1.3240
  435MOL0     H58719  -0.788   7.614   8.081 -3.0425 -0.7155  0.0300
  435MOL0     H58720  -0.786   7.684   8.246 -4.8831  0.9575  0.2610
  435MOL0     H58721  -1.118   7.888   8.096  0.2537  0.0931 -2.3058
  435MOL0     H58722  -0.358   8.062   7.833 -0.9333  2.0883  3.2806
  435MOL0     H58723  -0.258   8.269   7.853  1.7672  1.7415 -2.0414
  435MOL0     H58724  -0.146   8.284   7.982 -2.9115  2.4945 -0.9225
  435MOL0     H58725  -0.092   8.272   7.816  0.5510 -0.3260  0.8707
  436MOL0     O58726  11.008   0.060   5.643 -0.1081 -0.5621  0.3245
  436MOL0     C58727  11.030  -0.049   5.584 -0.6588  0.3209  0.2153
  436MOL0     O58728  10.941  -0.148   5.563  0.0658 -1.1388 -0.6739
  436MOL0     C58729  10.819  -0.139   5.623 -0.1500 -0.1408  0.3559
  436MOL0     C58730  10.711  -0.091   5.533 -0.7440  0.9493 -0.5601
  436MOL0     C58731  10.587  -0.076   5.589  0.3216  0.0368  0.3775
  436MOL0     C58732  10.560  -0.108   5.728 -0.3212 -0.3419  0.0745
  436MOL0     O58733  10.437  -0.083   5.786  0.6601  0.2959  0.8557
  436MOL0     C58734  10.310  -0.089   5.704  0.3884 -0.8975  0.3025
  436MOL0     C58735  10.185  -0.093   5.788  0.0994 -0.1118 -0.6565
  436MOL0     C58736  10.064  -0.071   5.695  0.3886 -0.5313  0.3974
  436MOL0     C58737   9.946  -0.164   5.729 -1.4177 -0.2233  0.4583
  436MOL0     C58738   9.827  -0.118   5.642  0.3748  0.9891  0.4017
  436MOL0     C58739   9.719  -0.216   5.636  0.4081  0.3114 -0.2153
  436MOL0     C58740   9.591  -0.150   5.586  0.3285  0.8036  0.3666
  436MOL0     C58741   9.468  -0.253   5.590  0.2682 -0.0785 -0.1742
  436MOL0     N58742   9.431  -0.289   5.723 -0.4163  1.1897  0.3279
  436MOL0     C58743   9.481  -0.399   5.795  0.6204  0.2986 -0.4512
  436MOL0     C58744   9.388  -0.429   5.887  0.1764 -0.2577  0.2046
  436MOL0     C58745   9.410  -0.532   5.992 -0.7620 -0.0624 -0.1012
  436MOL0     C58746   9.551  -0.537   6.059 -0.0711  0.5910  0.4739
  436MOL0     C58747   9.630  -0.667   6.036  0.9622 -0.5248  0.9391
  436MOL0     C58748   9.763  -0.673   6.091 -0.7711  0.9207 -0.0360
  436MOL0     O58749   9.849  -0.566   6.048  0.1393  0.3175 -0.0440
  436MOL0     C58750   9.964  -0.533   6.117 -0.1892 -0.3780  0.0632
  436MOL0     C58751  10.024  -0.621   6.213  0.0549  0.3104 -0.3796
  436MOL0     C58752  10.144  -0.588   6.274 -1.1618 -0.6817  0.3427
  436MOL0     C58753  10.209  -0.467   6.241  0.0781 -0.4403  0.4987
  436MOL0     C58754  10.346  -0.443   6.297 -0.2972  0.3199 -0.8906
  436MOL0     O58755  10.398  -0.322   6.274  0.6228  0.0700 -0.0533
  436MOL0     C58756  10.521  -0.282   6.308 -0.1037 -0.3168  0.6257
  436MOL0     C58757  10.584  -0.300   6.436 -0.6206 -0.1876  0.0761
  436MOL0     C58758  10.716  -0.272   6.459 -1.0077  0.1309 -0.2519
  436MOL0     C58759  10.796  -0.212   6.360 -0.8632  0.0477  0.7621
  436MOL0     O58760  10.929  -0.194   6.387  0.9023 -0.1009 -0.1636
  436MOL0     C58761  10.977  -0.072   6.331 -0.7921 -0.5965 -0.2996
  436MOL0     C58762  11.125  -0.044   6.373  0.8490  0.3899  0.3233
  436MOL0     C58763  11.219  -0.149   6.311 -0.4755  0.2101 -0.5452
  436MOL0     C58764  11.371  -0.113   6.319  0.6437 -0.4000 -0.3326
  436MOL0     C58765  11.460  -0.216   6.247  0.4831 -1.0107 -0.7246
  436MOL0     C58766  11.603  -0.182   6.259  0.1744  0.3162 -0.3007
  436MOL0     C58767  11.645  -0.049   6.191  0.6279 -0.1245 -0.2924
  436MOL0     C58768  11.795  -0.016   6.201  0.2464 -1.2648  0.0336
  436MOL0    Cl58769  11.887  -0.096   6.063  0.1840 -0.5756  0.5343
  436MOL0     C58770  10.735  -0.176   6.238 -0.1639 -0.0902  0.2080
  436MOL0     C58771  10.600  -0.210   6.213 -0.2019  0.3907  0.2554
  436MOL0     O58772  10.396  -0.535   6.362  0.6734 -0.2624 -0.0676
  436MOL0     C58773  10.155  -0.385   6.143  0.4702 -0.6938  0.1629
  436MOL0     C58774  10.029  -0.417   6.081  0.0165  0.7549 -0.3662
  436MOL0     N58775   9.288  -0.336   5.874 -0.1683  1.4995 -0.0060
  436MOL0     N58776   9.314  -0.262   5.775 -0.1872 -0.4916 -0.7134
  436MOL0     C58777  10.674  -0.146   5.806  0.5208 -0.7650  1.0987
  436MOL0     C58778  10.796  -0.161   5.754 -0.3363 -0.4769 -0.5397
  436MOL0     C58779  11.163  -0.063   5.528  0.1767  0.1796  0.6657
  436MOL0     C58780  11.207  -0.202   5.510 -0.1852 -0.3157  0.3987
  436MOL0     C58781  11.325  -0.225   5.434 -0.2818  0.4586 -0.8190
  436MOL0     C58782  11.398  -0.127   5.383 -0.3455  0.2156 -0.1254
  436MOL0     O58783  11.522  -0.137   5.323  0.1533  0.3476  0.1160
  436MOL0     C58784  11.594  -0.258   5.311  0.1261  0.9368  0.1345
  436MOL0     C58785  11.744  -0.223   5.280 -0.3549 -1.0078 -0.0289
  436MOL0     C58786  11.797  -0.157   5.411  0.3275  0.5923 -0.2064
  436MOL0     C58787  11.944  -0.110   5.385  0.0193  0.5334 -0.3818
  436MOL0     C58788  12.031  -0.229   5.381 -0.7572  0.5848 -0.5232
  436MOL0     C58789  12.093  -0.333   5.382 -0.1373 -0.0800  0.0624
  436MOL0     C58790  11.355   0.005   5.391  0.8070 -0.0276  0.1469
  436MOL0     C58791  11.239   0.039   5.460 -0.1526 -0.3556  0.3884
  436MOL0     C58792  11.193   0.180   5.471  0.4064  0.1961  0.4342
  436MOL0     H58793  10.735  -0.078   5.428 -1.5627 -0.4990 -0.9599
  436MOL0     H58794  10.509  -0.038   5.523  0.0206 -2.9277 -1.1441
  436MOL0     H58795  10.300  -0.001   5.640  0.5379 -0.4499  0.8920
  436MOL0     H58796  10.311  -0.173   5.634  0.6264 -2.3782  2.0031
  436MOL0     H58797  10.196  -0.022   5.871  1.8806  0.8284 -1.6288
  436MOL0     H58798  10.181  -0.198   5.818  0.4033 -0.6480 -2.3581
  436MOL0     H58799  10.089  -0.092   5.591 -0.5437 -2.0742  0.4508
  436MOL0     H58800  10.035   0.034   5.697  0.7904 -0.4257  0.8624
  436MOL0     H58801   9.975  -0.269   5.718 -1.1114 -0.2315  1.2708
  436MOL0     H58802   9.916  -0.154   5.834 -2.9808  0.9627 -0.0544
  436MOL0     H58803   9.774  -0.035   5.691 -4.3142 -1.8135  0.6976
  436MOL0     H58804   9.853  -0.105   5.537 -1.4159  0.5503 -0.1305
  436MOL0     H58805   9.738  -0.303   5.572 -1.0473  1.9305 -3.0538
  436MOL0     H58806   9.690  -0.260   5.732 -1.0278 -1.6105 -1.4517
  436MOL0     H58807   9.612  -0.127   5.482  2.4152 -0.7795  0.3760
  436MOL0     H58808   9.562  -0.061   5.643  1.5249  0.5587  1.4009
  436MOL0     H58809   9.388  -0.190   5.552  0.4859  0.7114  0.6205
  436MOL0     H58810   9.493  -0.341   5.531 -1.7484 -2.0914  1.7854
  436MOL0     H58811   9.579  -0.444   5.781  0.6133 -0.8125  2.4402
  436MOL0     H58812   9.336  -0.511   6.070 -0.5649  2.5339 -0.5511
  436MOL0     H58813   9.387  -0.630   5.950  1.9648  0.1057 -2.2494
  436MOL0     H58814   9.612  -0.455   6.021  1.3450  0.0311  1.4497
  436MOL0     H58815   9.551  -0.517   6.167  1.6383 -2.6394  1.1846
  436MOL0     H58816   9.643  -0.686   5.929  0.4480 -0.5015  0.8736
  436MOL0     H58817   9.570  -0.743   6.085 -1.8868  1.1631  0.2818
  436MOL0     H58818   9.811  -0.768   6.066 -0.1381  1.3180 -0.3667
  436MOL0     H58819   9.751  -0.678   6.199 -0.0885 -2.7878 -0.0175
  436MOL0     H58820   9.974  -0.716   6.233 -0.1882  0.2345 -1.3251
  436MOL0     H58821  10.204  -0.664   6.323  1.2400  1.5251  1.0123
  436MOL0     H58822  10.541  -0.338   6.528 -2.6419 -0.3242 -0.8775
  436MOL0     H58823  10.753  -0.291   6.560  0.9273 -1.3834 -1.1765
  436MOL0     H58824  10.974  -0.069   6.221 -0.3739  0.3538 -0.2988
  436MOL0     H58825  10.924   0.018   6.365  1.2915  0.9222 -0.8448
  436MOL0     H58826  11.137   0.056   6.331 -1.5474 -0.5672 -3.0361
  436MOL0     H58827  11.136  -0.041   6.481  4.3364 -2.0895  0.1934
  436MOL0     H58828  11.204  -0.242   6.367 -0.7970  0.2574 -0.5503
  436MOL0     H58829  11.194  -0.165   6.206 -0.1871  0.1280 -0.6024
  436MOL0     H58830  11.408  -0.099   6.421 -1.1867  2.2262  0.0959
  436MOL0     H58831  11.377  -0.014   6.273 -0.0125 -0.9502 -1.6590
  436MOL0     H58832  11.429  -0.220   6.142 -0.5971 -0.2936 -0.4503
  436MOL0     H58833  11.445  -0.312   6.297 -0.7290  0.4103  1.8579
  436MOL0     H58834  11.619  -0.196   6.366 -0.7428 -0.2984 -0.2294
  436MOL0     H58835  11.665  -0.267   6.228  0.7955  0.9092 -0.7260
  436MOL0     H58836  11.586   0.033   6.233  1.7399  1.0654 -0.9755
  436MOL0     H58837  11.620  -0.051   6.085  1.1232 -0.6235 -0.4065
  436MOL0     H58838  11.827   0.089   6.197  0.2825 -1.1815  1.7762
  436MOL0     H58839  11.840  -0.058   6.291  1.4989 -0.1418 -0.0379
  436MOL0     H58840  10.788  -0.138   6.151 -1.0853  1.2667  0.2032
  436MOL0     H58841  10.557  -0.191   6.115  2.4971  0.4369 -0.9873
  436MOL0     H58842  10.217  -0.299   6.119  0.4635 -0.3352  1.3464
  436MOL0     H58843   9.985  -0.351   6.007 -0.4677 -0.3003 -1.0538
  436MOL0     H58844  10.662  -0.166   5.912  0.9594  0.1393  1.3266
  436MOL0     H58845  10.879  -0.184   5.819  0.2231  0.0698 -1.0473
  436MOL0     H58846  11.168  -0.290   5.559 -1.5655  1.1057  1.9883
  436MOL0     H58847  11.366  -0.324   5.454  3.1691  1.8946 -0.2146
  436MOL0     H58848  11.544  -0.311   5.229  0.3345  0.7594  0.1204
  436MOL0     H58849  11.583  -0.317   5.403  0.5673 -0.6424 -0.7938
  436MOL0     H58850  11.737  -0.146   5.203  2.1532  1.4965  2.0027
  436MOL0     H58851  11.792  -0.319   5.257  0.6039 -0.8833  1.2865
  436MOL0     H58852  11.793  -0.227   5.495  0.1939  1.5555  0.6104
  436MOL0     H58853  11.731  -0.071   5.426 -0.3310  0.5518 -2.5103
  436MOL0     H58854  11.938  -0.055   5.291  0.8015  1.0131 -0.1567
  436MOL0     H58855  11.976  -0.044   5.466  1.9292  1.5153 -1.8623
  436MOL0     H58856  12.137  -0.431   5.382 -0.2676 -0.1453  0.6506
  436MOL0     H58857  11.416   0.090   5.360 -1.5263  1.5339 -0.3806
  436MOL0     H58858  11.190   0.213   5.575 -2.4634  0.4340  0.3464
  436MOL0     H58859  11.254   0.250   5.413 -0.9762  0.6326 -0.5524
  436MOL0     H58860  11.091   0.194   5.433 -0.0582 -1.8531  0.8051
  437MOL0     O58861   9.251   6.108   8.890  0.5244  0.6054  0.3513
  437MOL0     C58862   9.345   6.175   8.857 -0.6392 -0.3152  0.1182
  437MOL0     O58863   9.344   6.305   8.804 -0.2556  0.0764  0.5056
  437MOL0     C58864   9.224   6.379   8.814  0.5900  0.1033  0.0065
  437MOL0     C58865   9.155   6.400   8.933 -0.2011 -1.0477  0.3218
  437MOL0     C58866   9.042   6.482   8.937 -0.3133 -0.2720 -0.4066
  437MOL0     C58867   8.993   6.538   8.826  0.6567  0.4005  0.0092
  437MOL0     O58868   8.879   6.612   8.854  0.4576 -0.6944 -0.0520
  437MOL0     C58869   8.842   6.692   8.748  0.0387  1.0679  0.2918
  437MOL0     C58870   8.752   6.623   8.645  0.2150 -0.6440  0.6156
  437MOL0     C58871   8.660   6.723   8.573 -0.3120 -0.8992 -0.5544
  437MOL0     C58872   8.587   6.650   8.457 -0.5499 -0.9323  0.3379
  437MOL0     C58873   8.599   6.733   8.325 -0.6911  0.3398 -0.7134
  437MOL0     C58874   8.530   6.659   8.210  0.5794 -0.3871 -0.2653
  437MOL0     C58875   8.531   6.749   8.080  0.3129 -0.5919 -0.6932
  437MOL0     C58876   8.579   6.675   7.960 -0.7086 -0.1372  0.1549
  437MOL0     N58877   8.725   6.650   7.951 -0.1184 -0.6369 -0.8254
  437MOL0     C58878   8.804   6.737   7.886 -0.3278  0.1976  0.7210
  437MOL0     C58879   8.927   6.695   7.913  0.6350  0.6150 -0.4152
  437MOL0     C58880   9.070   6.755   7.876  0.1361  0.0621 -0.5196
  437MOL0     C58881   9.076   6.832   7.737  0.7217  0.9633  0.2955
  437MOL0     C58882   9.196   6.922   7.733 -0.0671 -0.6025 -0.0180
  437MOL0     C58883   9.320   6.854   7.693  0.9362  0.0468  0.8011
  437MOL0     O58884   9.383   6.826   7.816 -0.1034 -0.5129 -0.6083
  437MOL0     C58885   9.476   6.722   7.815  0.1429 -0.0929  0.4284
  437MOL0     C58886   9.496   6.667   7.948 -1.1395 -0.1268  0.4053
  437MOL0     C58887   9.579   6.554   7.957  0.2116 -1.3645  0.2626
  437MOL0     C58888   9.634   6.487   7.844 -0.7212  0.3231  0.5302
  437MOL0     C58889   9.714   6.359   7.854 -0.9994 -0.4603 -0.1514
  437MOL0     O58890   9.761   6.318   7.973 -1.0632  0.4562 -0.2672
  437MOL0     C58891   9.855   6.221   7.978 -0.7283 -0.0855 -0.4151
  437MOL0     C58892   9.965   6.256   8.063  0.2012 -0.1324  0.3771
  437MOL0     C58893  10.062   6.148   8.089  0.1918 -1.2535 -0.2959
  437MOL0     C58894  10.039   6.013   8.056 -0.6152  0.6058 -0.7750
  437MOL0     O58895  10.125   5.909   8.095  0.1888 -0.5086  0.2532
  437MOL0     C58896  10.080   5.778   8.062  0.0135  0.1286 -0.0609
  437MOL0     C58897  10.180   5.680   8.117 -0.2240  0.3080  0.0142
  437MOL0     C58898  10.313   5.680   8.057 -0.0628  0.4521  0.5195
  437MOL0     C58899  10.410   5.578   8.119  0.7254  0.3777  0.2350
  437MOL0     C58900  10.378   5.439   8.063  1.1335 -0.5765  0.6058
  437MOL0     C58901  10.451   5.318   8.118  0.0520  0.2874 -0.1715
  437MOL0     C58902  10.609   5.311   8.091  0.3548 -0.4941  0.2224
  437MOL0     C58903  10.673   5.185   8.151  0.1719  0.3577  0.0574
  437MOL0    Cl58904  10.616   5.136   8.314 -0.5752 -0.2063  0.5669
  437MOL0     C58905   9.924   5.989   7.974 -0.0473 -0.1208 -0.1406
  437MOL0     C58906   9.838   6.092   7.932  0.6068 -0.5833  0.2257
  437MOL0     O58907   9.736   6.299   7.748 -0.4423  0.0141 -0.2686
  437MOL0     C58908   9.611   6.548   7.710 -1.2873 -0.0924 -0.9074
  437MOL0     C58909   9.530   6.663   7.700  0.5694  0.3376  0.7394
  437MOL0     N58910   8.919   6.601   8.006 -0.3605  0.1717 -0.2439
  437MOL0     N58911   8.799   6.573   8.032 -0.7617  0.6788  0.1135
  437MOL0     C58912   9.062   6.517   8.700  0.4786 -0.0721 -0.0935
  437MOL0     C58913   9.185   6.450   8.695 -0.1197  0.6720 -0.6007
  437MOL0     C58914   9.474   6.111   8.857  0.0399  0.6983 -0.6661
  437MOL0     C58915   9.549   6.117   8.745  0.3398 -0.1054  0.5268
  437MOL0     C58916   9.667   6.051   8.745  0.7836  0.4727  1.3398
  437MOL0     C58917   9.720   5.972   8.852  0.2387  0.1314  0.7218
  437MOL0     O58918   9.825   5.880   8.851 -0.3853  0.2416  0.1737
  437MOL0     C58919   9.900   5.867   8.735 -0.1216  0.0323  0.1616
  437MOL0     C58920  10.010   5.760   8.746  0.3338  0.1510  0.5220
  437MOL0     C58921  10.101   5.804   8.859  0.6474 -0.3391 -0.8656
  437MOL0     C58922  10.206   5.700   8.880 -0.3541 -0.0933 -1.5741
  437MOL0     C58923  10.280   5.702   9.012  0.1538  0.2929  0.7886
  437MOL0     C58924  10.356   5.685   9.111 -0.1790 -0.2542 -0.3200
  437MOL0     C58925   9.647   5.979   8.970  0.1433 -0.6569  0.6791
  437MOL0     C58926   9.526   6.050   8.974 -0.0863 -0.1855 -0.2139
  437MOL0     C58927   9.445   6.040   9.105  0.3513  0.4903 -0.2894
  437MOL0     H58928   9.198   6.351   9.020  4.4697  0.8566 -0.6333
  437MOL0     H58929   8.983   6.498   9.027 -1.9071  1.6268 -1.7102
  437MOL0     H58930   8.781   6.771   8.792 -3.4695 -0.8133 -0.7925
  437MOL0     H58931   8.923   6.745   8.698  1.3952 -0.1872  1.1132
  437MOL0     H58932   8.678   6.557   8.691 -1.7788  2.1605  1.6413
  437MOL0     H58933   8.807   6.561   8.572  0.1697 -0.2037  0.2005
  437MOL0     H58934   8.728   6.801   8.538 -0.4034 -0.7732 -0.4521
  437MOL0     H58935   8.589   6.774   8.639  0.2677 -1.1485  0.2891
  437MOL0     H58936   8.646   6.559   8.437 -1.0657 -1.1220 -0.3591
  437MOL0     H58937   8.485   6.616   8.476 -0.4021 -0.7983  1.4508
  437MOL0     H58938   8.564   6.835   8.347 -0.2184  0.3359  0.1187
  437MOL0     H58939   8.703   6.754   8.298  0.0846 -0.8585  1.0802
  437MOL0     H58940   8.583   6.566   8.191  2.2086  1.0738 -3.9328
  437MOL0     H58941   8.425   6.646   8.238 -0.2645  0.7565 -2.5897
  437MOL0     H58942   8.598   6.833   8.098 -1.8588  1.0004  0.3076
  437MOL0     H58943   8.431   6.789   8.058  1.2506  2.1460 -0.3556
  437MOL0     H58944   8.525   6.580   7.947  0.5733 -0.8544 -0.0251
  437MOL0     H58945   8.542   6.733   7.875 -0.5145 -0.5643 -0.2221
  437MOL0     H58946   8.779   6.811   7.810 -0.7185 -1.2520 -0.6212
  437MOL0     H58947   9.111   6.819   7.955  0.1334 -0.1459 -0.3499
  437MOL0     H58948   9.131   6.665   7.866 -0.9580 -0.7358 -0.0889
  437MOL0     H58949   9.093   6.761   7.656  1.8968  0.3843  1.0140
  437MOL0     H58950   8.985   6.885   7.709 -0.0928 -0.9671 -0.8988
  437MOL0     H58951   9.211   6.982   7.824 -1.6217 -2.1103  1.2965
  437MOL0     H58952   9.162   6.991   7.656  1.0207 -0.2535 -0.2007
  437MOL0     H58953   9.380   6.914   7.624 -1.2604 -0.6735 -1.9119
  437MOL0     H58954   9.289   6.761   7.645 -2.7638  1.5278  0.0326
  437MOL0     H58955   9.460   6.715   8.038  1.3733  2.9691 -0.0652
  437MOL0     H58956   9.600   6.512   8.055 -1.5621 -2.0430  0.4017
  437MOL0     H58957   9.981   6.354   8.106 -0.5414 -0.2221  0.8837
  437MOL0     H58958  10.148   6.173   8.150  1.0545  1.6373 -2.4841
  437MOL0     H58959   9.979   5.770   8.102  0.0918 -2.6578 -0.2256
  437MOL0     H58960  10.078   5.777   7.952  1.2185  0.5906 -0.1092
  437MOL0     H58961  10.196   5.694   8.224  1.7270 -0.4989 -0.1257
  437MOL0     H58962  10.134   5.583   8.097  0.2178  0.5058 -2.2148
  437MOL0     H58963  10.309   5.675   7.948 -0.9226  5.0994  0.1566
  437MOL0     H58964  10.350   5.782   8.070 -0.9007  0.8769 -0.3726
  437MOL0     H58965  10.411   5.556   8.226  1.2551 -1.2551 -0.0653
  437MOL0     H58966  10.508   5.615   8.088 -0.0319 -0.8327 -4.3107
  437MOL0     H58967  10.377   5.434   7.953  1.7426  0.0757  0.5614
  437MOL0     H58968  10.273   5.429   8.092  0.2596  4.0510 -0.1883
  437MOL0     H58969  10.429   5.306   8.224  1.6948 -0.7316  0.0916
  437MOL0     H58970  10.412   5.227   8.070  2.8576 -2.3902  2.2178
  437MOL0     H58971  10.657   5.401   8.131  1.1778  0.0016 -1.7720
  437MOL0     H58972  10.622   5.315   7.983  1.2516  0.7648  0.3435
  437MOL0     H58973  10.649   5.106   8.079 -0.1837  1.9265 -1.6086
  437MOL0     H58974  10.781   5.195   8.161  0.3123 -0.8679 -0.1381
  437MOL0     H58975   9.901   5.890   7.935  1.7497 -0.8459  0.5691
  437MOL0     H58976   9.754   6.072   7.867  0.0703  1.2706  0.2740
  437MOL0     H58977   9.659   6.510   7.620 -0.2266 -1.0698  0.0340
  437MOL0     H58978   9.529   6.707   7.601 -0.8220 -5.3066 -2.1852
  437MOL0     H58979   9.025   6.552   8.604  0.1336 -1.1326 -0.3527
  437MOL0     H58980   9.256   6.431   8.615  0.9411 -0.8075  0.6252
  437MOL0     H58981   9.506   6.172   8.662 -1.3112 -1.7908  0.1929
  437MOL0     H58982   9.724   6.046   8.653 -1.4936 -0.9665 -0.0728
  437MOL0     H58983   9.949   5.962   8.714  1.6713 -0.4499  1.8172
  437MOL0     H58984   9.841   5.836   8.648  0.5932 -0.9323 -0.0057
  437MOL0     H58985  10.055   5.752   8.646  1.8778 -0.3303  1.2196
  437MOL0     H58986   9.977   5.661   8.777  4.0009 -0.9733  1.3206
  437MOL0     H58987  10.042   5.829   8.948 -1.0282 -2.7408 -1.2105
  437MOL0     H58988  10.141   5.904   8.838 -1.1228  0.6923  0.3790
  437MOL0     H58989  10.156   5.603   8.888 -3.2598  1.4914  1.8281
  437MOL0     H58990  10.289   5.701   8.808  0.6732 -0.4274 -0.4345
  437MOL0     H58991  10.428   5.685   9.189 -0.6198  1.5194  0.1531
  437MOL0     H58992   9.680   5.920   9.055 -2.5587 -2.5402  0.5413
  437MOL0     H58993   9.359   5.976   9.087  0.7277 -0.1227  0.0532
  437MOL0     H58994   9.508   5.984   9.176  1.3155  0.2085 -1.3295
  437MOL0     H58995   9.410   6.132   9.153 -0.7264  0.5135 -1.1003
  438MOL0     O58996   5.045   2.741   2.378 -0.2975 -0.2061 -0.3107
  438MOL0     C58997   5.139   2.694   2.437 -0.2650 -0.0580 -0.0093
  438MOL0     O58998   5.131   2.659   2.572 -0.4111 -0.3238 -0.4262
  438MOL0     C58999   5.019   2.702   2.644 -0.1629 -0.2573  0.6307
  438MOL0     C59000   4.963   2.608   2.729  0.6375 -0.0123 -0.5585
  438MOL0     C59001   4.849   2.638   2.807  0.4852 -0.4165  0.2874
  438MOL0     C59002   4.780   2.764   2.789  0.0606  0.3402  0.9637
  438MOL0     O59003   4.664   2.786   2.863 -0.2767 -0.4033 -0.8132
  438MOL0     C59004   4.683   2.772   3.004  0.1174 -0.1228  0.0037
  438MOL0     C59005   4.535   2.782   3.054  0.5445 -0.3975 -0.4084
  438MOL0     C59006   4.514   2.757   3.201 -0.7373 -0.1334  0.4262
  438MOL0     C59007   4.364   2.773   3.244 -0.7292  0.8808 -0.0554
  438MOL0     C59008   4.328   2.739   3.391 -1.0324  0.0593  0.2760
  438MOL0     C59009   4.325   2.587   3.423  0.1051 -0.3333  0.4292
  438MOL0     C59010   4.333   2.567   3.570  0.0170  0.7471 -0.0514
  438MOL0     C59011   4.289   2.430   3.621 -0.6718  0.3925  0.1184
  438MOL0     N59012   4.152   2.407   3.600  0.2906  0.6431 -0.2794
  438MOL0     C59013   4.046   2.489   3.644 -0.4646  0.6613  0.7544
  438MOL0     C59014   3.941   2.439   3.573 -0.0380  0.0807 -0.4256
  438MOL0     C59015   3.808   2.511   3.576  0.2786 -0.0576 -0.1007
  438MOL0     C59016   3.686   2.447   3.658 -0.2497 -0.1068  1.1653
  438MOL0     C59017   3.589   2.403   3.541  0.3748 -0.2325  0.3396
  438MOL0     C59018   3.453   2.377   3.596  0.5226  0.6001  0.0992
  438MOL0     O59019   3.380   2.503   3.621 -0.6145 -0.2931 -0.6005
  438MOL0     C59020   3.259   2.488   3.676 -0.5894 -0.5068  0.2466
  438MOL0     C59021   3.238   2.537   3.806 -0.7257  0.2707  0.1611
  438MOL0     C59022   3.106   2.536   3.856 -0.0113 -0.7401 -0.1496
  438MOL0     C59023   3.004   2.483   3.793  0.5116  0.6841  0.1368
  438MOL0     C59024   2.866   2.483   3.851 -0.5299 -0.3043 -0.1680
  438MOL0     O59025   2.767   2.409   3.797 -0.2760 -0.1859 -0.0717
  438MOL0     C59026   2.639   2.417   3.845 -0.1120 -0.2551  0.4809
  438MOL0     C59027   2.570   2.297   3.862 -0.5505  0.5973  0.1766
  438MOL0     C59028   2.433   2.288   3.894 -0.1989  0.4160 -0.5742
  438MOL0     C59029   2.365   2.413   3.915  0.5045 -1.0099  0.6630
  438MOL0     O59030   2.229   2.420   3.933  0.9038  0.3361 -0.0865
  438MOL0     C59031   2.144   2.311   3.895 -0.1971 -0.3827  0.9527
  438MOL0     C59032   1.992   2.362   3.910  0.0902 -0.1854 -0.6449
  438MOL0     C59033   1.897   2.244   3.887 -1.0709 -0.3293 -0.6466
  438MOL0     C59034   1.750   2.291   3.897  0.1313  0.6109 -0.2905
  438MOL0     C59035   1.638   2.188   3.874  0.4189  0.2338  0.2638
  438MOL0     C59036   1.498   2.245   3.847  0.6332 -0.7318  0.1718
  438MOL0     C59037   1.422   2.252   3.979 -0.1929 -0.5838 -0.4918
  438MOL0     C59038   1.287   2.312   3.985  0.0003  1.3257 -0.1164
  438MOL0    Cl59039   1.277   2.473   3.915 -0.0143 -0.4836  0.0352
  438MOL0     C59040   2.438   2.532   3.907  0.9240  0.3105  0.0816
  438MOL0     C59041   2.568   2.536   3.865  0.6972  0.4267 -0.3511
  438MOL0     O59042   2.864   2.551   3.954  0.2898  0.7057 -0.6751
  438MOL0     C59043   3.028   2.430   3.654  0.7202  0.0239  0.1829
  438MOL0     C59044   3.157   2.428   3.598  0.1661 -0.3036 -0.5455
  438MOL0     N59045   3.977   2.334   3.492  0.2294 -0.6416 -0.2862
  438MOL0     N59046   4.108   2.319   3.509 -0.2992 -0.0459  0.6568
  438MOL0     C59047   4.829   2.857   2.702 -0.6109  0.0155  0.1701
  438MOL0     C59048   4.950   2.828   2.628 -0.5064  0.7091  0.0247
  438MOL0     C59049   5.256   2.663   2.353  0.3546 -0.3367 -0.0375
  438MOL0     C59050   5.235   2.639   2.212  0.3395  0.3905 -0.2221
  438MOL0     C59051   5.343   2.599   2.136 -1.2985 -0.3817 -0.5712
  438MOL0     C59052   5.475   2.604   2.187  0.6298 -0.6062  0.6908
  438MOL0     O59053   5.584   2.570   2.110 -0.4272  0.6556  0.0774
  438MOL0     C59054   5.569   2.549   1.969 -0.1063  0.2148 -0.1312
  438MOL0     C59055   5.707   2.497   1.938 -0.9639 -0.3153  0.6651
  438MOL0     C59056   5.830   2.588   1.973  1.1010 -0.0272  0.4354
  438MOL0     C59057   5.907   2.597   1.845 -0.6862 -1.2972  0.3404
  438MOL0     C59058   5.977   2.732   1.844 -0.4847  0.2671 -0.3203
  438MOL0     C59059   6.005   2.848   1.852 -0.5263  0.5696  1.0269
  438MOL0     C59060   5.488   2.645   2.316  0.0658  0.2523  0.0083
  438MOL0     C59061   5.389   2.682   2.405 -0.2072  0.2559  0.2344
  438MOL0     C59062   5.426   2.693   2.550  0.7657  0.1119 -1.2706
  438MOL0     H59063   5.011   2.512   2.745  3.4293  1.0868 -1.7042
  438MOL0     H59064   4.807   2.568   2.878 -0.6916  0.3595  0.3889
  438MOL0     H59065   4.717   2.671   3.030 -1.3772 -0.1655  2.1009
  438MOL0     H59066   4.755   2.843   3.046  1.0401 -0.6807 -0.6198
  438MOL0     H59067   4.474   2.718   2.989 -4.5853 -0.4309  3.7924
  438MOL0     H59068   4.503   2.884   3.031  2.6427 -0.0031 -1.9479
  438MOL0     H59069   4.589   2.797   3.271  1.5717 -3.2119 -0.0572
  438MOL0     H59070   4.526   2.649   3.209  0.8694  0.1272  2.9466
  438MOL0     H59071   4.343   2.879   3.231  1.2965  1.0232 -3.4508
  438MOL0     H59072   4.298   2.719   3.175 -1.7495  1.6532  0.2981
  438MOL0     H59073   4.393   2.793   3.461  0.6860 -0.3811 -0.9363
  438MOL0     H59074   4.225   2.773   3.407 -1.8741 -0.3867 -3.3616
  438MOL0     H59075   4.227   2.548   3.395  0.1370  0.1421 -0.3721
  438MOL0     H59076   4.407   2.540   3.369  0.3308  1.7556 -1.1475
  438MOL0     H59077   4.268   2.634   3.628 -0.2517 -1.5456  2.4804
  438MOL0     H59078   4.436   2.589   3.600 -0.6286  2.9785  0.7754
  438MOL0     H59079   4.345   2.356   3.563 -1.8755  0.3379 -1.0160
  438MOL0     H59080   4.324   2.429   3.725  0.4923 -2.4776 -0.1842
  438MOL0     H59081   4.038   2.580   3.702  1.5195  1.1305  0.3445
  438MOL0     H59082   3.814   2.611   3.619  2.9079 -0.7035  1.2753
  438MOL0     H59083   3.776   2.539   3.475 -2.4078 -1.0825  0.3700
  438MOL0     H59084   3.718   2.364   3.722  0.8403 -0.7749 -0.1927
  438MOL0     H59085   3.628   2.521   3.714  0.5960  0.9055  0.7315
  438MOL0     H59086   3.627   2.318   3.483 -0.4302  0.7490 -1.6936
  438MOL0     H59087   3.581   2.485   3.470  1.2592  1.1310  1.7614
  438MOL0     H59088   3.453   2.309   3.682 -0.1354 -2.7561 -2.3333
  438MOL0     H59089   3.403   2.322   3.515  0.7724  0.4447  0.0484
  438MOL0     H59090   3.326   2.578   3.855 -0.3420 -1.4330  0.9697
  438MOL0     H59091   3.091   2.579   3.954 -0.6591  2.3726 -1.5057
  438MOL0     H59092   2.634   2.210   3.871 -0.9640  0.3954  1.4104
  438MOL0     H59093   2.376   2.196   3.897 -1.3165  1.0856 -0.6535
  438MOL0     H59094   2.156   2.281   3.790  2.8279  1.6748  0.5707
  438MOL0     H59095   2.176   2.222   3.949 -0.1910 -0.4695  0.8078
  438MOL0     H59096   1.985   2.399   4.013  3.2579  0.7374 -0.6526
  438MOL0     H59097   1.974   2.450   3.848 -2.4810 -0.3161 -0.2192
  438MOL0     H59098   1.920   2.202   3.789 -0.1417 -3.3256  0.7429
  438MOL0     H59099   1.908   2.161   3.957 -0.3015  0.9927  0.8653
  438MOL0     H59100   1.740   2.378   3.831 -1.6470  0.1568 -0.6596
  438MOL0     H59101   1.738   2.329   3.999 -1.4495  4.4538 -1.7087
  438MOL0     H59102   1.645   2.106   3.945 -1.7476 -2.0802 -1.9816
  438MOL0     H59103   1.656   2.133   3.781  0.3808 -1.7222  1.3797
  438MOL0     H59104   1.493   2.342   3.796 -3.5060 -1.9840 -2.2845
  438MOL0     H59105   1.447   2.171   3.786 -0.0519  0.3575 -0.6183
  438MOL0     H59106   1.473   2.305   4.060 -2.1139  2.1988 -0.9654
  438MOL0     H59107   1.423   2.148   4.011  2.8094 -1.6224 -3.3602
  438MOL0     H59108   1.221   2.238   3.938  0.5323  0.2944  0.7132
  438MOL0     H59109   1.251   2.321   4.088 -1.4154 -0.5995 -0.3798
  438MOL0     H59110   2.382   2.620   3.936  2.0694  0.8604  0.6755
  438MOL0     H59111   2.624   2.626   3.845  3.9299 -1.5918 -1.1664
  438MOL0     H59112   2.948   2.379   3.603 -1.1101  1.8044  1.1192
  438MOL0     H59113   3.173   2.399   3.494 -1.1007  0.7136 -1.0595
  438MOL0     H59114   4.778   2.950   2.678  0.9109  1.0420  0.7779
  438MOL0     H59115   4.992   2.895   2.553 -0.2649 -0.4629 -0.9247
  438MOL0     H59116   5.142   2.612   2.163  1.7102  1.4720 -3.7053
  438MOL0     H59117   5.321   2.570   2.034 -0.0574  3.0197 -1.9853
  438MOL0     H59118   5.568   2.641   1.910  0.3897 -1.0343 -2.1718
  438MOL0     H59119   5.487   2.482   1.939  0.4077  0.8538 -3.3213
  438MOL0     H59120   5.705   2.456   1.836 -1.6288 -5.2338  2.3841
  438MOL0     H59121   5.717   2.411   2.005  0.1727  0.5097  1.5936
  438MOL0     H59122   5.891   2.546   2.054  3.9875  0.1523 -1.5279
  438MOL0     H59123   5.798   2.686   2.010 -2.8822 -0.8212 -0.3626
  438MOL0     H59124   5.988   2.524   1.839  1.2708  0.7398  0.6775
  438MOL0     H59125   5.845   2.582   1.756 -1.4904 -0.2878  0.7174
  438MOL0     H59126   6.028   2.953   1.851  0.5057  0.3966 -1.1126
  438MOL0     H59127   5.584   2.628   2.364  0.2234 -0.1086 -0.4229
  438MOL0     H59128   5.403   2.605   2.611  0.2950  1.4139  0.5464
  438MOL0     H59129   5.531   2.720   2.560  0.7098  0.0474 -0.3546
  438MOL0     H59130   5.372   2.777   2.595  2.2176  0.5323 -0.2532
  439MOL0     O59131   2.207   7.698   4.956  0.0579 -0.4959 -0.0357
  439MOL0     C59132   2.186   7.742   5.065  0.4711  0.4600 -0.1971
  439MOL0     O59133   2.263   7.831   5.126  0.2208  0.3956 -0.3207
  439MOL0     C59134   2.376   7.879   5.065  0.0432  0.6545  0.7891
  439MOL0     C59135   2.499   7.815   5.095  0.7380 -0.1774 -0.9981
  439MOL0     C59136   2.608   7.871   5.029 -0.4850 -0.3817  0.2718
  439MOL0     C59137   2.599   7.990   4.948 -0.1796  0.8424  0.4736
  439MOL0     O59138   2.700   8.046   4.867 -0.1337  0.1858 -0.0762
  439MOL0     C59139   2.824   7.984   4.877 -0.7945  0.7085 -0.7348
  439MOL0     C59140   2.941   8.065   4.809  0.2808 -0.1234  0.2262
  439MOL0     C59141   2.941   8.213   4.853 -0.2057  0.0882  0.3532
  439MOL0     C59142   3.036   8.297   4.764 -0.3520 -0.5509  0.4064
  439MOL0     C59143   3.022   8.452   4.799 -0.3821 -0.2968 -0.1576
  439MOL0     C59144   3.114   8.543   4.705  0.2614 -1.4164  0.3781
  439MOL0     C59145   3.250   8.554   4.754  0.0787  0.0935  0.1696
  439MOL0     C59146   3.345   8.590   4.637  0.1981  0.1461  0.7157
  439MOL0     N59147   3.473   8.630   4.690 -0.6033 -0.0529 -0.5401
  439MOL0     C59148   3.504   8.760   4.728  0.3190  0.2639  0.2495
  439MOL0     C59149   3.631   8.747   4.778  0.2725  0.1964 -0.1326
  439MOL0     C59150   3.717   8.865   4.813  0.0075 -0.2086 -0.9604
  439MOL0     C59151   3.836   8.879   4.727 -0.0182  0.0067 -0.0623
  439MOL0     C59152   3.929   8.984   4.793  0.8350  0.2012  0.5203
  439MOL0     C59153   4.050   9.010   4.703 -0.7520  0.3717  0.6024
  439MOL0     O59154   4.142   8.890   4.709 -0.1999 -0.9808 -0.2796
  439MOL0     C59155   4.271   8.914   4.664 -0.1887  0.3657  0.0191
  439MOL0     C59156   4.356   8.805   4.681 -0.9893  0.0797  0.1313
  439MOL0     C59157   4.493   8.804   4.653 -0.4754 -0.4767 -0.3738
  439MOL0     C59158   4.546   8.922   4.594 -0.0428  0.4125  0.1665
  439MOL0     C59159   4.684   8.933   4.551  0.2150 -0.2073  0.0210
  439MOL0     O59160   4.761   8.841   4.607 -0.5073 -0.4761 -0.3534
  439MOL0     C59161   4.893   8.817   4.561 -0.2158  0.4205  0.9566
  439MOL0     C59162   4.992   8.796   4.661 -0.8840  0.7034  0.4782
  439MOL0     C59163   5.125   8.773   4.632  1.1563 -0.1645  0.2581
  439MOL0     C59164   5.162   8.784   4.499 -0.5678  0.5749  0.1665
  439MOL0     O59165   5.294   8.767   4.479 -0.9592 -0.7398  0.5339
  439MOL0     C59166   5.336   8.702   4.354 -0.2419  0.6806  0.1545
  439MOL0     C59167   5.380   8.806   4.240  0.2440  0.2018 -0.0456
  439MOL0     C59168   5.496   8.899   4.293 -0.1808  0.8698 -0.6606
  439MOL0     C59169   5.559   8.960   4.174  0.5970 -0.9381 -0.7072
  439MOL0     C59170   5.640   9.090   4.210  0.1064 -0.2961 -0.4797
  439MOL0     C59171   5.770   9.055   4.283 -0.4141 -0.2227  0.3033
  439MOL0     C59172   5.845   9.186   4.325 -0.0265 -0.4339  0.6008
  439MOL0     C59173   5.958   9.159   4.419 -0.1470  0.2292 -0.1337
  439MOL0    Cl59174   6.083   9.294   4.411  0.0244 -0.0170 -0.4464
  439MOL0     C59175   5.072   8.808   4.397 -0.0205  0.6301 -0.7762
  439MOL0     C59176   4.936   8.829   4.427 -0.1345  1.0855  0.5328
  439MOL0     O59177   4.720   9.023   4.471  0.1555  0.0357  0.0034
  439MOL0     C59178   4.465   9.030   4.564  0.2841 -0.6474 -0.0566
  439MOL0     C59179   4.325   9.027   4.600  0.2528  0.2375  0.2620
  439MOL0     N59180   3.681   8.620   4.766 -0.3820  0.3791  0.1592
  439MOL0     N59181   3.583   8.550   4.717  0.3925  0.3005 -0.4044
  439MOL0     C59182   2.480   8.056   4.936 -0.0979  0.1628 -0.0995
  439MOL0     C59183   2.368   7.994   4.992 -0.1536 -0.6720  0.1035
  439MOL0     C59184   2.050   7.712   5.129  0.0747 -0.2267  0.2297
  439MOL0     C59185   2.008   7.806   5.225 -0.2054 -0.2640  0.4594
  439MOL0     C59186   1.882   7.784   5.289 -0.3441  0.6527  0.0513
  439MOL0     C59187   1.800   7.674   5.257 -0.2311  0.1062  1.0859
  439MOL0     O59188   1.685   7.667   5.327  0.2355  1.2229 -0.6216
  439MOL0     C59189   1.588   7.564   5.296 -0.1270  0.2720  0.4812
  439MOL0     C59190   1.466   7.581   5.399  0.1271 -1.1147  0.0311
  439MOL0     C59191   1.344   7.527   5.344 -0.4078 -0.6570 -0.6905
  439MOL0     C59192   1.242   7.517   5.457  0.0506  0.0702  0.3432
  439MOL0     C59193   1.110   7.488   5.401  0.4162  0.5763 -0.4462
  439MOL0     C59194   0.996   7.470   5.365 -0.0690  0.2452  0.7661
  439MOL0     C59195   1.849   7.581   5.162 -0.2528 -0.3790  0.3650
  439MOL0     C59196   1.971   7.599   5.097  0.9453  0.2367 -0.8838
  439MOL0     C59197   2.007   7.487   4.995  0.4761 -0.5049  0.3151
  439MOL0     H59198   2.508   7.720   5.146  5.2299  0.1120 -0.8070
  439MOL0     H59199   2.709   7.834   5.040 -0.6181 -0.5089  1.1358
  439MOL0     H59200   2.853   7.984   4.982  2.5795 -0.5625 -1.5237
  439MOL0     H59201   2.839   7.886   4.830  1.0233  1.6534 -2.3067
  439MOL0     H59202   2.931   8.059   4.700 -1.9319  0.3181  0.3571
  439MOL0     H59203   3.035   8.015   4.835  1.1511  0.5255 -1.5325
  439MOL0     H59204   2.957   8.215   4.961  0.6172 -2.8854  0.3891
  439MOL0     H59205   2.840   8.251   4.836  0.3608  1.7207  0.4299
  439MOL0     H59206   3.137   8.259   4.780 -1.1060 -3.0953 -0.4562
  439MOL0     H59207   2.999   8.269   4.665  3.3177 -4.0834 -0.2318
  439MOL0     H59208   2.917   8.480   4.784 -0.6509 -0.4760  1.2423
  439MOL0     H59209   3.047   8.476   4.903  0.5023 -0.0327 -0.4181
  439MOL0     H59210   3.104   8.484   4.613 -1.8486 -2.8521  1.4489
  439MOL0     H59211   3.072   8.642   4.692  3.8584  0.4307  1.3766
  439MOL0     H59212   3.283   8.458   4.795  0.6531  1.2541  2.5875
  439MOL0     H59213   3.248   8.628   4.835 -0.4199  0.4869 -0.1917
  439MOL0     H59214   3.357   8.513   4.561 -0.9777 -1.0162  1.6677
  439MOL0     H59215   3.308   8.680   4.586  1.7722  0.0696 -0.6658
  439MOL0     H59216   3.443   8.850   4.722  1.3719  0.8931 -2.9336
  439MOL0     H59217   3.661   8.959   4.815 -2.0727 -1.3927  1.1834
  439MOL0     H59218   3.756   8.851   4.914  0.7641 -2.3638 -1.5051
  439MOL0     H59219   3.903   8.792   4.722  0.9576  0.8122 -1.4704
  439MOL0     H59220   3.810   8.907   4.625  2.3126  2.2247 -0.1436
  439MOL0     H59221   3.957   8.954   4.894 -0.9171  3.6845  2.1943
  439MOL0     H59222   3.869   9.074   4.808  2.8414  1.5557  0.8629
  439MOL0     H59223   4.108   9.094   4.744  0.5664 -1.2581  2.2346
  439MOL0     H59224   4.023   9.024   4.598  0.1439  0.2181  0.3411
  439MOL0     H59225   4.314   8.716   4.726 -0.6081  0.9198  2.2889
  439MOL0     H59226   4.564   8.730   4.689  0.5940  0.9972  0.6757
  439MOL0     H59227   4.975   8.807   4.767  0.5863  1.2380  0.6743
  439MOL0     H59228   5.206   8.760   4.703  0.7065  1.7030  1.1881
  439MOL0     H59229   5.419   8.635   4.380 -2.6378 -1.3659  3.3133
  439MOL0     H59230   5.265   8.625   4.324  1.4196 -0.7330 -0.3434
  439MOL0     H59231   5.415   8.750   4.153 -0.0889  0.7582 -0.5382
  439MOL0     H59232   5.296   8.865   4.203 -1.3895 -2.6264 -1.2062
  439MOL0     H59233   5.462   8.980   4.357 -0.8149  0.2477 -0.1932
  439MOL0     H59234   5.566   8.844   4.357 -0.9958 -1.4504 -1.6195
  439MOL0     H59235   5.483   8.994   4.104 -0.9289 -3.8740 -0.5797
  439MOL0     H59236   5.628   8.889   4.127  1.8111 -1.4927  1.7476
  439MOL0     H59237   5.573   9.160   4.261 -0.3273 -0.9722 -0.1028
  439MOL0     H59238   5.680   9.128   4.116  1.1100 -3.5378 -1.4791
  439MOL0     H59239   5.747   9.004   4.377 -1.0947  2.1989  1.5544
  439MOL0     H59240   5.831   8.995   4.215 -1.3591 -0.5335 -0.2870
  439MOL0     H59241   5.776   9.257   4.371  3.5694  1.6292  3.2847
  439MOL0     H59242   5.881   9.237   4.236 -0.6275  1.6497  1.5043
  439MOL0     H59243   5.928   9.134   4.522 -0.3451 -0.4059 -0.3407
  439MOL0     H59244   6.007   9.068   4.384 -0.5029 -1.1120  2.5614
  439MOL0     H59245   5.093   8.811   4.291 -0.4137  1.0533 -0.8478
  439MOL0     H59246   4.864   8.845   4.348 -0.8953 -0.0824  0.9710
  439MOL0     H59247   4.493   9.123   4.515  0.3974 -0.1603  0.9097
  439MOL0     H59248   4.256   9.102   4.563  2.1905  2.7276  1.3753
  439MOL0     H59249   2.471   8.146   4.875  0.9381 -0.5676 -1.3569
  439MOL0     H59250   2.270   8.038   4.979  0.3446  0.7738  1.0181
  439MOL0     H59251   2.063   7.897   5.245 -0.8067  0.3727 -0.7010
  439MOL0     H59252   1.834   7.863   5.346  0.4017  3.0933 -2.4606
  439MOL0     H59253   1.620   7.461   5.312  0.0678  0.0086 -1.3788
  439MOL0     H59254   1.556   7.582   5.193 -2.0114 -0.6067  0.8676
  439MOL0     H59255   1.452   7.689   5.410  1.5460 -0.6382 -2.1609
  439MOL0     H59256   1.493   7.555   5.502  1.0821 -0.3580 -0.0049
  439MOL0     H59257   1.359   7.425   5.307 -3.1481 -1.3545 -0.1871
  439MOL0     H59258   1.308   7.592   5.264  0.8977  0.2469 -0.5669
  439MOL0     H59259   1.277   7.440   5.526 -0.1777  3.9640  5.4423
  439MOL0     H59260   1.236   7.615   5.506 -2.4585  1.3451 -2.2391
  439MOL0     H59261   0.899   7.473   5.320  0.4700  0.8826 -0.3930
  439MOL0     H59262   1.784   7.499   5.136 -2.0073  0.9851  0.2581
  439MOL0     H59263   1.947   7.402   5.030 -1.9848  0.6736 -0.7856
  439MOL0     H59264   1.980   7.523   4.895  1.2512 -1.6418 -0.3217
  439MOL0     H59265   2.115   7.470   5.002  0.2677 -1.3273  2.4572
  440MOL0     O59266   1.589   6.615   0.910 -0.6316 -1.0939 -0.5925
  440MOL0     C59267   1.556   6.502   0.940 -0.5104  0.2795  0.9366
  440MOL0     O59268   1.630   6.400   0.998  0.6180  0.0423 -0.0901
  440MOL0     C59269   1.747   6.427   1.070 -0.5801  0.7590  0.4783
  440MOL0     C59270   1.848   6.339   1.042  0.9441  0.5068  0.1196
  440MOL0     C59271   1.974   6.348   1.101  0.7569  0.4106  0.1193
  440MOL0     C59272   1.998   6.454   1.188  1.3386 -0.9918  0.3027
  440MOL0     O59273   2.124   6.455   1.246  0.5196  0.1506  0.1086
  440MOL0     C59274   2.124   6.521   1.365  0.3609 -0.0239 -0.5402
  440MOL0     C59275   2.248   6.483   1.450 -1.3299 -0.1623 -0.0300
  440MOL0     C59276   2.393   6.506   1.396  0.1636  0.1842  0.1177
  440MOL0     C59277   2.489   6.479   1.510 -0.9821  0.4191 -0.3273
  440MOL0     C59278   2.625   6.504   1.450 -1.0088  0.1513 -0.6571
  440MOL0     C59279   2.738   6.474   1.542 -1.0769  0.1933 -0.2313
  440MOL0     C59280   2.865   6.491   1.458 -0.8749  0.7880 -0.6695
  440MOL0     C59281   2.987   6.468   1.541  0.0904 -0.3338 -0.3366
  440MOL0     N59282   3.116   6.472   1.465  0.0532  0.5571  0.2445
  440MOL0     C59283   3.168   6.357   1.421  0.2081  0.0732 -0.3112
  440MOL0     C59284   3.275   6.394   1.346  0.4206  0.4675 -0.1879
  440MOL0     C59285   3.361   6.292   1.284 -0.4962 -0.5145  0.4766
  440MOL0     C59286   3.325   6.290   1.135  0.6688 -0.6340  0.7989
  440MOL0     C59287   3.392   6.181   1.043 -0.0179  0.9509 -0.6098
  440MOL0     C59288   3.541   6.204   1.036 -0.0836  0.1144 -0.6748
  440MOL0     O59289   3.573   6.114   0.934 -0.1752 -0.1459 -0.3565
  440MOL0     C59290   3.697   6.112   0.873  0.4856  0.9322 -0.5683
  440MOL0     C59291   3.806   6.172   0.933 -0.2770 -0.2679 -0.0987
  440MOL0     C59292   3.938   6.171   0.878  0.0325 -0.4689  1.0193
  440MOL0     C59293   3.956   6.093   0.761  0.6482  0.3684 -0.9583
  440MOL0     C59294   4.090   6.089   0.702 -0.4029 -0.2118  0.3244
  440MOL0     O59295   4.118   5.977   0.640 -0.3536 -0.3533  0.4746
  440MOL0     C59296   4.243   5.939   0.594  0.7551 -0.1175 -0.4843
  440MOL0     C59297   4.248   5.841   0.491  0.2192  0.3184 -0.5591
  440MOL0     C59298   4.371   5.805   0.429 -0.2823 -1.1121 -1.0575
  440MOL0     C59299   4.490   5.848   0.488  1.4011 -0.5866  0.8955
  440MOL0     O59300   4.598   5.781   0.450  0.7221 -0.0027 -0.7919
  440MOL0     C59301   4.700   5.755   0.552 -0.2127  0.6184  0.1894
  440MOL0     C59302   4.757   5.615   0.536 -0.0818  0.1171 -0.3250
  440MOL0     C59303   4.838   5.601   0.403 -0.2853  0.1598 -0.4592
  440MOL0     C59304   4.976   5.669   0.425  0.5855 -0.3015 -0.1211
  440MOL0     C59305   5.036   5.681   0.284 -0.0453  0.2555  0.1936
  440MOL0     C59306   5.187   5.677   0.298 -0.3686 -0.4136  0.2971
  440MOL0     C59307   5.262   5.673   0.164  0.0988 -1.3514 -0.0897
  440MOL0     C59308   5.420   5.667   0.202  0.3290 -0.0422  0.2690
  440MOL0    Cl59309   5.432   5.511   0.304 -0.2842 -0.2084 -0.0552
  440MOL0     C59310   4.478   5.941   0.590 -0.0020 -1.3020 -1.1432
  440MOL0     C59311   4.362   5.990   0.640  0.4522  0.6161 -0.1873
  440MOL0     O59312   4.172   6.181   0.719 -0.6259  0.4405  0.0043
  440MOL0     C59313   3.847   6.017   0.712 -0.7787  0.2172  0.4250
  440MOL0     C59314   3.722   6.029   0.763 -0.1859 -1.4618  0.3194
  440MOL0     N59315   3.293   6.532   1.363  0.3759  0.1382 -0.6565
  440MOL0     N59316   3.193   6.576   1.432  0.2475 -0.6111  0.4107
  440MOL0     C59317   1.896   6.555   1.210  0.8106  0.4854 -0.1140
  440MOL0     C59318   1.772   6.538   1.152  0.7359  0.8389  0.0472
  440MOL0     C59319   1.415   6.456   0.900 -0.6132 -0.4160  0.6212
  440MOL0     C59320   1.319   6.553   0.887  0.7878  0.2556 -0.3036
  440MOL0     C59321   1.188   6.515   0.842  0.6891 -0.6151  0.6881
  440MOL0     C59322   1.150   6.383   0.818 -0.5541 -0.0070  0.0855
  440MOL0     O59323   1.022   6.335   0.778  0.3927  0.6705  0.7654
  440MOL0     C59324   0.916   6.423   0.769  0.2965 -0.6195  0.1952
  440MOL0     C59325   0.790   6.344   0.789 -0.2573 -0.6372 -0.3903
  440MOL0     C59326   0.675   6.413   0.723 -0.3710  0.0914  0.8055
  440MOL0     C59327   0.543   6.337   0.756 -0.0582 -0.2981 -0.1184
  440MOL0     C59328   0.432   6.429   0.715 -0.4520 -1.5218  0.5264
  440MOL0     C59329   0.352   6.494   0.651  0.4431  0.6499  0.8652
  440MOL0     C59330   1.245   6.295   0.839  0.1755  0.5132 -0.3973
  440MOL0     C59331   1.376   6.322   0.873 -0.0583 -0.4681 -0.6009
  440MOL0     C59332   1.470   6.207   0.866 -0.1956  1.0628  0.1090
  440MOL0     H59333   1.807   6.248   1.000 -1.3301 -0.6090  4.1760
  440MOL0     H59334   2.050   6.271   1.089  1.7292  1.1689  1.2104
  440MOL0     H59335   2.143   6.624   1.336  2.5227 -0.7193 -1.9089
  440MOL0     H59336   2.037   6.508   1.429  1.2573  1.8155  1.1242
  440MOL0     H59337   2.239   6.374   1.456 -2.2090 -0.1187 -0.3712
  440MOL0     H59338   2.244   6.526   1.550  0.0320 -1.2336  0.5194
  440MOL0     H59339   2.413   6.607   1.360 -1.9287  0.5423 -0.1694
  440MOL0     H59340   2.409   6.436   1.313 -2.1949 -0.7654  0.3815
  440MOL0     H59341   2.474   6.556   1.586 -0.2460 -0.7906  1.1021
  440MOL0     H59342   2.478   6.382   1.559 -0.5890  0.4840 -0.1010
  440MOL0     H59343   2.638   6.432   1.369  0.1233 -1.3136  0.7565
  440MOL0     H59344   2.637   6.607   1.416 -1.8119 -0.1761 -2.0078
  440MOL0     H59345   2.745   6.545   1.625 -1.5001 -2.2314  2.0001
  440MOL0     H59346   2.739   6.374   1.586  0.8133  1.3826  2.7463
  440MOL0     H59347   2.866   6.594   1.421 -2.3338  0.5679 -1.3552
  440MOL0     H59348   2.863   6.433   1.366 -0.7238  0.9249 -0.7607
  440MOL0     H59349   2.987   6.542   1.622 -0.9327 -0.9742  0.2625
  440MOL0     H59350   2.981   6.370   1.589  0.2871  1.2667  3.2614
  440MOL0     H59351   3.124   6.259   1.438  1.1602 -0.3827 -0.4424
  440MOL0     H59352   3.466   6.306   1.311  0.9228 -1.0439 -3.9396
  440MOL0     H59353   3.326   6.202   1.335 -2.1427  0.7627  1.6989
  440MOL0     H59354   3.218   6.269   1.128 -0.1636  3.3425 -2.0675
  440MOL0     H59355   3.357   6.388   1.099  1.3276 -0.2221  2.3950
  440MOL0     H59356   3.347   6.179   0.944  0.2498 -2.4602 -0.7701
  440MOL0     H59357   3.382   6.079   1.081  1.0648 -0.2889 -3.3623
  440MOL0     H59358   3.580   6.184   1.136 -2.0806 -0.0429  0.1164
  440MOL0     H59359   3.555   6.308   1.004  0.0353  0.2935 -0.0535
  440MOL0     H59360   3.788   6.249   1.007  0.6404  0.5406 -0.6693
  440MOL0     H59361   4.014   6.235   0.921 -1.0817  0.5480  1.4987
  440MOL0     H59362   4.150   5.805   0.461 -0.6699 -0.1030  2.4840
  440MOL0     H59363   4.368   5.729   0.351 -1.1957 -1.5200 -0.6352
  440MOL0     H59364   4.781   5.828   0.564 -0.5903  0.9904  0.5371
  440MOL0     H59365   4.646   5.763   0.647 -1.4944  1.0115 -0.5552
  440MOL0     H59366   4.804   5.589   0.631 -2.9378 -2.7999  0.4976
  440MOL0     H59367   4.672   5.547   0.527  1.3473 -2.1596  2.0698
  440MOL0     H59368   4.860   5.494   0.393  3.1281  0.6522  0.5179
  440MOL0     H59369   4.783   5.641   0.317  0.0358 -1.2192 -1.3549
  440MOL0     H59370   5.029   5.607   0.498  1.8318 -0.7886 -1.3925
  440MOL0     H59371   4.957   5.767   0.472  1.1413 -1.4856  2.8044
  440MOL0     H59372   5.001   5.765   0.224 -1.3070 -1.5057 -1.6704
  440MOL0     H59373   5.011   5.594   0.223  3.8571  0.5717 -2.2008
  440MOL0     H59374   5.226   5.750   0.370  0.5882 -1.5360  0.9579
  440MOL0     H59375   5.211   5.582   0.347 -0.4355 -0.5670  0.0356
  440MOL0     H59376   5.237   5.754   0.093  1.9673  0.5484  1.3018
  440MOL0     H59377   5.244   5.573   0.124 -0.0530 -1.8722  1.2340
  440MOL0     H59378   5.484   5.675   0.114  0.2221 -1.6713  0.0182
  440MOL0     H59379   5.444   5.743   0.277 -0.1451 -1.5818  2.0565
  440MOL0     H59380   4.560   5.975   0.651 -1.1279  0.8340 -0.7225
  440MOL0     H59381   4.363   6.065   0.719  1.5744  1.7693 -1.2337
  440MOL0     H59382   3.870   5.952   0.628  2.3242 -0.5383  1.7628
  440MOL0     H59383   3.648   5.967   0.713  0.6948 -0.5602 -2.2674
  440MOL0     H59384   1.908   6.632   1.285  4.1169 -0.3632  0.3835
  440MOL0     H59385   1.683   6.589   1.187  1.9937  3.7552 -0.7090
  440MOL0     H59386   1.324   6.660   0.905  2.0587  0.4222 -1.4798
  440MOL0     H59387   1.106   6.585   0.833  0.8335 -0.3197  1.5486
  440MOL0     H59388   0.905   6.477   0.674 -1.3527 -0.3184  0.5312
  440MOL0     H59389   0.924   6.495   0.851  3.5228  0.6356 -1.0391
  440MOL0     H59390   0.762   6.350   0.895  0.1296  0.9198 -0.3431
  440MOL0     H59391   0.796   6.237   0.768  0.7252 -0.8122  0.6902
  440MOL0     H59392   0.704   6.416   0.618  2.9331 -0.7721  1.5647
  440MOL0     H59393   0.662   6.516   0.757 -2.4821  1.5091 -3.6061
  440MOL0     H59394   0.538   6.245   0.696  0.9586 -0.2074 -0.3544
  440MOL0     H59395   0.532   6.308   0.860 -0.7843  4.4008  1.3462
  440MOL0     H59396   0.277   6.554   0.604 -0.6160 -0.8306  0.6048
  440MOL0     H59397   1.218   6.192   0.817  0.9789  0.5436 -1.6032
  440MOL0     H59398   1.461   6.147   0.957 -0.7070 -0.4124 -0.8792
  440MOL0     H59399   1.447   6.143   0.780 -0.2248 -0.0983  0.9598
  440MOL0     H59400   1.572   6.240   0.848 -0.7499  1.5705 -2.5789
  441MOL0     O59401   7.721  11.120   6.567 -0.5373  0.1218  0.2113
  441MOL0     C59402   7.802  11.206   6.596  0.5391  0.1723 -0.2707
  441MOL0     O59403   7.773  11.325   6.633  0.3691  0.0807 -0.1247
  441MOL0     C59404   7.647  11.387   6.624  0.3611  0.4018 -0.6097
  441MOL0     C59405   7.572  11.381   6.506  0.7105 -0.6549 -0.0740
  441MOL0     C59406   7.447  11.441   6.497  0.4268  0.2436 -0.2777
  441MOL0     C59407   7.390  11.496   6.609  0.5619 -0.9881 -0.2995
  441MOL0     O59408   7.256  11.540   6.624 -0.3391  0.4896  0.7755
  441MOL0     C59409   7.225  11.652   6.533 -0.1137  0.0437 -0.1556
  441MOL0     C59410   7.103  11.629   6.451 -0.3949  0.4075  0.1858
  441MOL0     C59411   6.973  11.606   6.531 -0.7395  0.6569 -0.2949
  441MOL0     C59412   6.908  11.735   6.587  0.1461 -0.1885 -0.8999
  441MOL0     C59413   6.774  11.698   6.658 -0.1861 -0.6786  0.8474
  441MOL0     C59414   6.804  11.608   6.780 -0.6498 -0.5828 -0.6117
  441MOL0     C59415   6.690  11.586   6.878  0.7698  0.7428  0.1512
  441MOL0     C59416   6.572  11.508   6.820 -0.2481 -0.1384  0.6744
  441MOL0     N59417   6.452  11.519   6.896 -0.2873  0.6169 -0.0204
  441MOL0     C59418   6.367  11.626   6.925  0.0602  0.1217 -0.7528
  441MOL0     C59419   6.264  11.573   6.992 -1.2469  0.0438  0.4042
  441MOL0     C59420   6.145  11.641   7.047  0.1716 -0.3118  0.8266
  441MOL0     C59421   6.171  11.797   7.061  1.0545  0.3057 -0.1551
  441MOL0     C59422   6.257  11.812   7.189 -0.3696  0.6386 -0.3191
  441MOL0     C59423   6.285  11.958   7.199  0.5695  0.5739  0.2292
  441MOL0     O59424   6.362  12.010   7.090  0.1180  0.5144  0.1825
  441MOL0     C59425   6.500  11.996   7.083 -0.1931  0.2819 -0.0119
  441MOL0     C59426   6.580  11.978   7.202 -0.6044  0.5724  0.9507
  441MOL0     C59427   6.717  11.974   7.185 -0.5276  1.2105  0.4083
  441MOL0     C59428   6.783  11.985   7.059  1.3297  0.1917 -0.2908
  441MOL0     C59429   6.924  11.977   7.043 -0.0200  0.2686 -1.0711
  441MOL0     O59430   6.964  11.938   6.918  0.0038 -0.2722  0.3889
  441MOL0     C59431   7.099  11.936   6.896  0.3732 -0.2517 -0.0492
  441MOL0     C59432   7.173  12.055   6.882  0.0278 -0.4416  0.7319
  441MOL0     C59433   7.315  12.047   6.871  0.2167 -0.8929 -0.9735
  441MOL0     C59434   7.381  11.915   6.883  0.5401  0.5994 -0.1668
  441MOL0     O59435   7.511  11.906   6.895 -0.1950  0.4063 -0.3687
  441MOL0     C59436   7.558  11.979   7.006 -0.0809 -0.4290  0.7383
  441MOL0     C59437   7.716  11.960   7.006 -0.1074  0.4669  0.7963
  441MOL0     C59438   7.757  11.810   7.038  0.3650  0.3155 -0.7908
  441MOL0     C59439   7.890  11.767   7.016 -0.3267 -0.0274  0.3648
  441MOL0     C59440   7.987  11.819   7.116  0.5647 -1.4166  0.1624
  441MOL0     C59441   8.122  11.757   7.091  0.9661 -0.3658  0.4324
  441MOL0     C59442   8.239  11.815   7.171  0.6456  0.4752  0.0180
  441MOL0     C59443   8.349  11.713   7.149 -0.1695  0.1099 -0.3764
  441MOL0    Cl59444   8.505  11.786   7.221 -0.0306  0.1616  0.2909
  441MOL0     C59445   7.313  11.800   6.916  0.2300 -0.5454  0.1866
  441MOL0     C59446   7.173  11.813   6.909  0.1997  0.1805  0.0904
  441MOL0     O59447   6.995  12.010   7.140 -0.5753 -0.2815  0.4589
  441MOL0     C59448   6.700  12.002   6.942 -1.0228 -0.0266 -0.1850
  441MOL0     C59449   6.563  12.007   6.958 -0.0416  0.0871  0.0582
  441MOL0     N59450   6.286  11.430   6.991 -0.3212  0.6443  0.1159
  441MOL0     N59451   6.396  11.407   6.931  0.8060 -0.0139 -0.8273
  441MOL0     C59452   7.465  11.496   6.727 -0.3533 -0.4641 -0.4788
  441MOL0     C59453   7.597  11.446   6.736 -0.6396  0.4410 -0.1597
  441MOL0     C59454   7.935  11.162   6.580  0.7444  0.2860 -0.3192
  441MOL0     C59455   7.994  11.071   6.669 -0.1760  0.0818  0.4177
  441MOL0     C59456   8.131  11.033   6.659 -0.1547 -0.4537 -0.0100
  441MOL0     C59457   8.203  11.061   6.542 -0.2049 -0.0327 -0.0377
  441MOL0     O59458   8.335  11.025   6.529  0.3973  0.2881  0.0658
  441MOL0     C59459   8.393  11.041   6.404 -0.3867  0.1374  0.4532
  441MOL0     C59460   8.546  11.003   6.416  0.5682  0.2428  0.2672
  441MOL0     C59461   8.629  11.107   6.485 -0.1389  0.2181 -0.0183
  441MOL0     C59462   8.778  11.074   6.478  0.2781 -0.2035  0.0780
  441MOL0     C59463   8.872  11.162   6.549 -0.2938  0.7623  0.6360
  441MOL0     C59464   8.956  11.234   6.599  0.0630 -0.4511 -0.2155
  441MOL0     C59465   8.133  11.136   6.439  0.2525 -0.7190  0.0206
  441MOL0     C59466   8.003  11.190   6.466 -0.1670 -0.7427  0.0634
  441MOL0     C59467   7.951  11.295   6.375  0.5691  0.4088  0.2128
  441MOL0     H59468   7.617  11.332   6.420 -0.3947 -0.0625 -1.0164
  441MOL0     H59469   7.402  11.459   6.400  1.0182 -2.7381 -1.2065
  441MOL0     H59470   7.202  11.747   6.582  1.4696  0.3631  0.0113
  441MOL0     H59471   7.310  11.676   6.468 -0.4586  0.3411 -0.5020
  441MOL0     H59472   7.123  11.533   6.401 -1.6317  1.0508 -1.6808
  441MOL0     H59473   7.100  11.718   6.387  0.1272  0.6231  0.4584
  441MOL0     H59474   7.000  11.533   6.608 -0.5297  0.0080 -0.9689
  441MOL0     H59475   6.905  11.570   6.453 -0.7154  2.0279 -0.9767
  441MOL0     H59476   6.974  11.794   6.652 -1.8293 -0.0091  1.0418
  441MOL0     H59477   6.871  11.795   6.503 -1.3965 -1.5679 -1.2522
  441MOL0     H59478   6.735  11.792   6.697  2.6423  1.2644 -0.6800
  441MOL0     H59479   6.702  11.651   6.590  1.8691 -2.9662  0.1191
  441MOL0     H59480   6.842  11.511   6.748 -2.9553 -0.6321 -3.7188
  441MOL0     H59481   6.878  11.662   6.840 -0.8714  0.6100 -1.3728
  441MOL0     H59482   6.653  11.679   6.921  1.3407 -0.1450  2.7403
  441MOL0     H59483   6.730  11.533   6.965  0.0618  2.2395  1.4265
  441MOL0     H59484   6.543  11.541   6.719 -2.3072 -3.2202  0.0985
  441MOL0     H59485   6.613  11.407   6.808  0.3309  0.2802 -1.2488
  441MOL0     H59486   6.383  11.730   6.898 -0.7400  0.4197 -0.1008
  441MOL0     H59487   6.060  11.631   6.978  0.8750 -2.7163  0.2199
  441MOL0     H59488   6.112  11.583   7.134 -1.3464 -0.7465  0.0076
  441MOL0     H59489   6.225  11.830   6.972 -0.2389  0.1666 -0.9988
  441MOL0     H59490   6.073  11.842   7.074 -1.3237 -4.2595 -0.2971
  441MOL0     H59491   6.351  11.757   7.190 -1.1991 -0.8841  1.4801
  441MOL0     H59492   6.197  11.770   7.271  0.6925  1.0804  0.6976
  441MOL0     H59493   6.334  11.974   7.295  2.1090 -0.9413 -0.2711
  441MOL0     H59494   6.190  12.012   7.200 -0.3668 -1.0105 -0.0310
  441MOL0     H59495   6.546  11.970   7.304 -2.1250  2.2394  0.6257
  441MOL0     H59496   6.789  11.951   7.264 -0.0642 -0.1134 -0.3598
  441MOL0     H59497   7.122  12.146   6.853  1.1856 -0.7243 -2.6372
  441MOL0     H59498   7.368  12.135   6.836 -1.7027 -1.2475 -5.5371
  441MOL0     H59499   7.547  12.086   6.987  0.2669 -0.7974 -2.0635
  441MOL0     H59500   7.507  11.958   7.100 -1.7022  0.2979  0.0686
  441MOL0     H59501   7.745  11.990   6.905 -4.0815 -0.7554 -0.9242
  441MOL0     H59502   7.756  12.024   7.085  1.0183  0.8186 -0.0363
  441MOL0     H59503   7.734  11.782   7.141  1.2183 -0.8787 -0.9081
  441MOL0     H59504   7.692  11.743   6.981 -2.5750 -0.2410  2.8476
  441MOL0     H59505   7.931  11.817   6.928 -0.9630 -1.7582 -0.9551
  441MOL0     H59506   7.891  11.658   7.011 -2.7649 -0.1580  1.3298
  441MOL0     H59507   7.953  11.790   7.215 -1.7495 -2.3202 -0.8340
  441MOL0     H59508   7.983  11.928   7.121 -1.8630 -1.5029  4.4838
  441MOL0     H59509   8.122  11.652   7.122 -0.2796  0.0126  1.8649
  441MOL0     H59510   8.153  11.762   6.986  1.3699  0.2244  0.5727
  441MOL0     H59511   8.212  11.817   7.277 -2.0234 -2.3174 -0.4716
  441MOL0     H59512   8.266  11.917   7.143 -0.0751  0.8479  0.6440
  441MOL0     H59513   8.335  11.617   7.200  3.2234 -0.2546  0.0699
  441MOL0     H59514   8.363  11.695   7.042  1.5104 -4.0012  0.3241
  441MOL0     H59515   7.353  11.701   6.940 -0.1013 -0.0830  3.0077
  441MOL0     H59516   7.116  11.726   6.940  0.2017  0.5704  1.2010
  441MOL0     H59517   6.745  12.011   6.844  2.4506 -1.3866  1.1416
  441MOL0     H59518   6.503  12.006   6.868 -1.0578 -0.8593  0.7171
  441MOL0     H59519   7.420  11.530   6.820  1.0087 -0.6547  0.2838
  441MOL0     H59520   7.653  11.461   6.828 -2.7278  3.3236  0.8019
  441MOL0     H59521   7.943  11.012   6.745  1.3632 -1.7205  0.1319
  441MOL0     H59522   8.179  10.962   6.726 -0.2504 -1.4214 -0.9445
  441MOL0     H59523   8.390  11.145   6.373  0.1884  0.3975  1.2453
  441MOL0     H59524   8.332  10.989   6.330 -1.3448  4.5998 -2.2195
  441MOL0     H59525   8.594  10.980   6.320  2.9284 -1.3708  1.7347
  441MOL0     H59526   8.550  10.910   6.474  0.0640 -0.7864 -1.2758
  441MOL0     H59527   8.602  11.117   6.590 -2.1685  1.2080 -0.5888
  441MOL0     H59528   8.615  11.206   6.440  2.1748  1.2101  1.2621
  441MOL0     H59529   8.781  10.969   6.507  1.4089 -0.1043  0.3730
  441MOL0     H59530   8.799  11.078   6.371 -0.3188  3.0429 -0.0265
  441MOL0     H59531   9.020  11.302   6.653 -0.1189 -0.7369  0.3650
  441MOL0     H59532   8.174  11.165   6.343  2.7513  1.9780  1.7174
  441MOL0     H59533   7.938  11.388   6.432  1.9872  0.7527  0.0087
  441MOL0     H59534   8.002  11.316   6.281 -0.1412  1.0407 -0.0426
  441MOL0     H59535   7.856  11.257   6.337  2.0702  1.2696 -5.1855
  442MOL0     O59536   8.818   1.496   0.722 -0.3803  0.0032  0.4437
  442MOL0     C59537   8.734   1.500   0.816 -0.0689 -0.7167 -0.4378
  442MOL0     O59538   8.751   1.466   0.942 -0.2779  0.1776  0.2724
  442MOL0     C59539   8.877   1.430   0.984  0.2083 -0.5830  0.4910
  442MOL0     C59540   8.971   1.348   0.913 -0.1633 -0.4795  0.0146
  442MOL0     C59541   9.100   1.318   0.970 -0.2221  0.3133 -0.8644
  442MOL0     C59542   9.126   1.355   1.101 -0.3269  0.3152 -0.2624
  442MOL0     O59543   9.244   1.339   1.167  0.2211  1.4636 -0.9043
  442MOL0     C59544   9.322   1.225   1.127  0.0244  0.6132  0.2157
  442MOL0     C59545   9.436   1.194   1.226  0.2520 -1.2117 -0.6438
  442MOL0     C59546   9.546   1.109   1.161  0.2632  0.5732 -0.6796
  442MOL0     C59547   9.655   1.061   1.265  0.7330 -0.3575 -0.4684
  442MOL0     C59548   9.784   1.008   1.196  0.4057  0.9819  1.1429
  442MOL0     C59549   9.907   0.993   1.297 -0.0467  0.7672  0.8108
  442MOL0     C59550   9.979   1.124   1.314 -0.0395  0.1048  0.4066
  442MOL0     C59551  10.046   1.199   1.204 -0.3457  0.7389  0.6516
  442MOL0     N59552  10.168   1.111   1.190  0.9157 -1.2279  0.6418
  442MOL0     C59553  10.296   1.143   1.232  0.2653  0.8220 -0.7398
  442MOL0     C59554  10.368   1.040   1.189 -0.3804  0.3203 -0.3566
  442MOL0     C59555  10.516   1.033   1.224  0.1897  0.8294  0.0922
  442MOL0     C59556  10.611   1.023   1.101  0.0409 -0.0282 -0.1703
  442MOL0     C59557  10.624   0.882   1.057 -0.4868  1.4920  0.3819
  442MOL0     C59558  10.717   0.852   0.941  0.0088  1.0762  0.5720
  442MOL0     O59559  10.853   0.894   0.950  0.4280 -0.0697 -1.0133
  442MOL0     C59560  10.941   0.842   1.039  0.3241  0.0043  0.5224
  442MOL0     C59561  10.926   0.729   1.117 -0.0192 -0.5975 -0.3397
  442MOL0     C59562  11.027   0.680   1.194 -0.4639  0.3564 -0.1678
  442MOL0     C59563  11.143   0.753   1.202 -0.1205  0.0852  0.4846
  442MOL0     C59564  11.253   0.701   1.292 -0.2730 -0.5287 -0.1360
  442MOL0     O59565  11.376   0.762   1.288 -0.0993  0.4288 -0.7218
  442MOL0     C59566  11.485   0.711   1.365  0.2756 -0.3531  0.4550
  442MOL0     C59567  11.505   0.596   1.438  0.0660 -0.2192 -0.1848
  442MOL0     C59568  11.621   0.557   1.514  0.2049  0.4771 -0.8722
  442MOL0     C59569  11.727   0.649   1.500  0.2424  0.2125 -0.0214
  442MOL0     O59570  11.840   0.613   1.576  0.2866  0.2521  0.0612
  442MOL0     C59571  11.933   0.715   1.598 -0.3529 -0.0381  0.1698
  442MOL0     C59572  12.012   0.702   1.723  0.9239 -0.2041 -0.1774
  442MOL0     C59573  12.110   0.815   1.726  0.0479 -0.3319 -0.1332
  442MOL0     C59574  12.189   0.812   1.863 -0.5937 -0.4135  0.4843
  442MOL0     C59575  12.201   0.934   1.942 -0.4163 -0.2230  0.0541
  442MOL0     C59576  12.274   0.898   2.076  0.2765 -0.0909  0.3490
  442MOL0     C59577  12.282   1.028   2.158  0.3831  0.1447 -0.5111
  442MOL0     C59578  12.341   1.011   2.292  0.3348  0.5398 -1.1827
  442MOL0    Cl59579  12.518   0.998   2.277 -0.1251 -0.2945 -0.1179
  442MOL0     C59580  11.717   0.767   1.424  0.2977  0.1381  0.0215
  442MOL0     C59581  11.591   0.805   1.361  0.0149  0.4204 -0.6173
  442MOL0     O59582  11.218   0.615   1.384  0.8147 -0.5125 -0.7186
  442MOL0     C59583  11.161   0.879   1.131  0.0205 -1.1498 -0.4514
  442MOL0     C59584  11.058   0.922   1.048  0.3669  0.0557  0.4009
  442MOL0     N59585  10.291   0.956   1.113 -0.3672  0.4117 -0.0897
  442MOL0     N59586  10.168   0.996   1.121  0.2207 -0.2428 -0.3155
  442MOL0     C59587   9.039   1.434   1.168  0.8688 -0.4364  0.9764
  442MOL0     C59588   8.909   1.462   1.117  0.7607 -0.5241 -0.3658
  442MOL0     C59589   8.593   1.502   0.780 -0.3902  0.5986 -0.2686
  442MOL0     C59590   8.539   1.401   0.710 -0.1144  0.9706 -0.2728
  442MOL0     C59591   8.407   1.399   0.673 -0.2660 -0.8940 -0.4510
  442MOL0     C59592   8.319   1.506   0.710 -0.5394  0.4931  0.0445
  442MOL0     O59593   8.189   1.491   0.681  0.2925  0.6800 -0.1903
  442MOL0     C59594   8.101   1.571   0.765  0.3106  0.1621 -0.5172
  442MOL0     C59595   7.972   1.496   0.785 -0.0261 -0.3277  0.1489
  442MOL0     C59596   7.985   1.368   0.875 -0.2759 -0.6732 -0.8994
  442MOL0     C59597   8.001   1.396   1.028 -0.3224 -0.7049 -0.5552
  442MOL0     C59598   7.996   1.263   1.103 -0.6365  0.6684 -0.3855
  442MOL0     C59599   7.989   1.149   1.146  0.1060 -0.0269 -0.0875
  442MOL0     C59600   8.382   1.622   0.774  0.4111  1.5729  1.3912
  442MOL0     C59601   8.520   1.614   0.814 -0.2912  0.7634  0.4749
  442MOL0     C59602   8.580   1.733   0.885 -0.2092  0.0200  0.3234
  442MOL0     H59603   8.954   1.321   0.809 -2.0058 -1.1755  0.4697
  442MOL0     H59604   9.173   1.260   0.916 -0.0457  0.0327 -0.3303
  442MOL0     H59605   9.259   1.136   1.119 -0.0931  0.8087 -1.2705
  442MOL0     H59606   9.359   1.251   1.028 -2.0041 -0.5231 -0.9048
  442MOL0     H59607   9.401   1.134   1.311  2.1315 -2.4459 -0.6763
  442MOL0     H59608   9.479   1.290   1.254 -0.3331 -0.8303 -1.0513
  442MOL0     H59609   9.588   1.163   1.075  0.4517  0.8713 -0.4052
  442MOL0     H59610   9.501   1.018   1.122 -0.6236  0.1235  1.2559
  442MOL0     H59611   9.685   1.136   1.338 -1.3738  0.6458 -0.5683
  442MOL0     H59612   9.609   0.984   1.329 -0.0300  2.3370  2.4630
  442MOL0     H59613   9.761   0.907   1.162  2.1959  1.3614 -1.4825
  442MOL0     H59614   9.800   1.072   1.109 -0.5554  1.0646  1.0175
  442MOL0     H59615   9.866   0.966   1.394  0.0302  2.4051  1.3269
  442MOL0     H59616   9.978   0.913   1.274  0.4430  2.0442 -2.8068
  442MOL0     H59617  10.053   1.124   1.395 -0.2282  0.9027  0.5877
  442MOL0     H59618   9.898   1.190   1.347 -0.4696  0.4761 -1.3056
  442MOL0     H59619   9.976   1.207   1.121 -0.8606  1.2708  1.1264
  442MOL0     H59620  10.080   1.301   1.225  1.1203  0.4456 -0.1345
  442MOL0     H59621  10.339   1.215   1.300 -0.7299 -1.3932  2.4959
  442MOL0     H59622  10.537   1.125   1.279  0.5742  0.5464  0.4226
  442MOL0     H59623  10.527   0.945   1.289 -0.4281  0.6596 -0.0215
  442MOL0     H59624  10.560   1.079   1.022  2.1115  1.2632 -0.6483
  442MOL0     H59625  10.708   1.070   1.122 -0.4274  1.0543 -0.3644
  442MOL0     H59626  10.527   0.845   1.024  0.0264  1.2736 -0.9471
  442MOL0     H59627  10.655   0.827   1.146 -0.1516  0.6244 -0.2650
  442MOL0     H59628  10.672   0.897   0.852 -2.3891  1.1981  1.7557
  442MOL0     H59629  10.710   0.744   0.926 -0.8331  1.4296 -2.0280
  442MOL0     H59630  10.841   0.661   1.117  2.0632 -3.4876  2.1714
  442MOL0     H59631  11.014   0.583   1.241 -0.2658  0.2520 -0.3260
  442MOL0     H59632  11.429   0.519   1.447 -0.5533  0.4174  0.0674
  442MOL0     H59633  11.632   0.459   1.561  1.2134  0.0142 -2.0237
  442MOL0     H59634  12.001   0.719   1.512 -2.6943 -0.6580 -1.8278
  442MOL0     H59635  11.882   0.811   1.603  1.0008  0.7548 -0.6124
  442MOL0     H59636  11.945   0.704   1.809  0.0237  1.4190 -0.8728
  442MOL0     H59637  12.056   0.604   1.701 -2.7830 -2.1703  0.4133
  442MOL0     H59638  12.174   0.816   1.638 -2.0817 -0.1295 -1.7757
  442MOL0     H59639  12.062   0.913   1.720 -0.3109 -0.5043 -0.1255
  442MOL0     H59640  12.291   0.786   1.834  0.0269  1.1789  1.1370
  442MOL0     H59641  12.148   0.730   1.924  1.4816 -1.8251  0.0720
  442MOL0     H59642  12.097   0.965   1.956 -0.0512  0.1874  2.2543
  442MOL0     H59643  12.246   1.016   1.886  0.6273 -2.0970 -1.9971
  442MOL0     H59644  12.207   0.823   2.120 -0.5132  1.0998  1.2411
  442MOL0     H59645  12.368   0.848   2.051 -0.3207 -0.2676 -1.6990
  442MOL0     H59646  12.183   1.070   2.176 -1.0356 -3.0572 -0.1017
  442MOL0     H59647  12.339   1.102   2.102  0.6730  2.5679  2.7169
  442MOL0     H59648  12.312   1.096   2.355  2.9824 -0.7617  2.1467
  442MOL0     H59649  12.287   0.929   2.342 -0.6086  0.9984 -1.4339
  442MOL0     H59650  11.797   0.840   1.414 -2.4126  3.3909  0.3533
  442MOL0     H59651  11.585   0.886   1.289 -1.6816 -1.2016 -2.4108
  442MOL0     H59652  11.250   0.939   1.147 -1.8685  1.4670  0.9280
  442MOL0     H59653  11.062   1.010   0.984  0.6558  0.7716  1.3678
  442MOL0     H59654   9.076   1.465   1.265  0.2534  1.7849  0.5641
  442MOL0     H59655   8.846   1.500   1.197  2.4027 -0.7332  1.0911
  442MOL0     H59656   8.607   1.319   0.686 -2.4788 -1.0579 -0.3883
  442MOL0     H59657   8.370   1.312   0.621 -0.7386 -0.2414 -1.2369
  442MOL0     H59658   8.087   1.662   0.706  2.6334  1.4668  0.8217
  442MOL0     H59659   8.144   1.596   0.862 -1.9212 -2.5000  1.3058
  442MOL0     H59660   7.935   1.448   0.694  0.6146  0.2727 -0.4420
  442MOL0     H59661   7.890   1.563   0.808 -1.9910 -1.5513 -2.6583
  442MOL0     H59662   8.067   1.307   0.835  0.8293  0.6658 -0.7619
  442MOL0     H59663   7.895   1.307   0.863 -0.9059 -0.6908  2.7727
  442MOL0     H59664   8.089   1.456   1.054 -0.0678 -1.6292  0.8166
  442MOL0     H59665   7.915   1.451   1.068 -1.3556 -2.0063 -0.8829
  442MOL0     H59666   7.972   1.057   1.199  0.1342  0.0379  0.0344
  442MOL0     H59667   8.312   1.701   0.797 -1.8516 -0.2101  1.0026
  442MOL0     H59668   8.676   1.760   0.839  1.3184  0.2449  3.3909
  442MOL0     H59669   8.516   1.822   0.878 -0.9852 -0.6272 -1.4396
  442MOL0     H59670   8.594   1.714   0.991 -0.6720  4.3158  1.3674
  443MOL0     O59671   1.886   1.634   6.341 -0.3370 -0.7991 -0.6962
  443MOL0     C59672   1.814   1.563   6.420 -0.2285 -0.5561 -0.7169
  443MOL0     O59673   1.857   1.462   6.499 -0.1984 -0.9575  0.2316
  443MOL0     C59674   1.993   1.430   6.483 -0.1820 -0.4584  0.0395
  443MOL0     C59675   2.088   1.451   6.590  0.8150 -0.3766 -0.5762
  443MOL0     C59676   2.224   1.412   6.577 -0.5331  0.3253 -0.4323
  443MOL0     C59677   2.264   1.361   6.457 -0.3710 -0.1713  0.2847
  443MOL0     O59678   2.389   1.307   6.440 -0.7470 -0.4196  0.3571
  443MOL0     C59679   2.393   1.166   6.454 -0.9412 -0.2052  0.0433
  443MOL0     C59680   2.519   1.102   6.402 -0.3766 -0.7476  0.3553
  443MOL0     C59681   2.628   1.143   6.500  0.0504  0.5535  0.7000
  443MOL0     C59682   2.753   1.056   6.476  0.3845  0.1969 -0.2938
  443MOL0     C59683   2.772   0.938   6.576 -0.1859  0.6439  0.2000
  443MOL0     C59684   2.924   0.900   6.603  0.2302 -0.5154  0.2120
  443MOL0     C59685   2.950   0.766   6.686 -0.5440  0.5233  0.5928
  443MOL0     C59686   2.902   0.781   6.833  0.1148 -0.5138 -0.8031
  443MOL0     N59687   3.017   0.845   6.907  0.4745 -0.1070 -0.0053
  443MOL0     C59688   3.155   0.816   6.919  0.9578  0.0685  0.5164
  443MOL0     C59689   3.196   0.904   7.013  0.7220  0.2114 -0.1321
  443MOL0     C59690   3.341   0.938   7.044  0.0773 -0.3713 -0.4932
  443MOL0     C59691   3.352   1.084   7.037  0.7969  0.9249  0.2919
  443MOL0     C59692   3.487   1.155   7.046 -0.5204  0.1673 -0.3536
  443MOL0     C59693   3.570   1.141   7.181 -0.2981 -0.3380  0.2977
  443MOL0     O59694   3.691   1.214   7.155 -0.0501  0.0646 -0.3103
  443MOL0     C59695   3.801   1.158   7.100 -0.2144 -0.3090  0.1620
  443MOL0     C59696   3.918   1.237   7.110 -0.6120  0.7422  0.5113
  443MOL0     C59697   4.045   1.187   7.070 -0.0212 -0.3037  0.1600
  443MOL0     C59698   4.059   1.055   7.019  0.3890 -0.5008 -0.6626
  443MOL0     C59699   4.193   1.001   6.971  0.3600  0.0391 -0.1492
  443MOL0     O59700   4.285   1.095   6.949  0.1391  0.2583  0.7675
  443MOL0     C59701   4.408   1.070   6.906 -0.2522 -0.5736 -0.1054
  443MOL0     C59702   4.503   0.981   6.971  0.7097 -0.3707 -0.2486
  443MOL0     C59703   4.632   0.969   6.919 -1.2499 -0.5413  0.6550
  443MOL0     C59704   4.676   1.034   6.799  0.0825 -0.1043 -0.0147
  443MOL0     O59705   4.803   1.026   6.742 -0.1490 -0.1217  0.1887
  443MOL0     C59706   4.916   0.968   6.810 -0.2435  1.0208 -0.9216
  443MOL0     C59707   5.039   0.942   6.718  0.6573 -0.3713 -0.0986
  443MOL0     C59708   5.127   1.068   6.721  0.0808 -0.5579 -0.1994
  443MOL0     C59709   5.252   1.047   6.646  0.3382  0.2853  0.1015
  443MOL0     C59710   5.331   1.173   6.619  0.0471  0.3367 -0.8158
  443MOL0     C59711   5.475   1.147   6.557 -0.0620 -0.0236 -0.8424
  443MOL0     C59712   5.557   1.274   6.562  0.7746  0.2453  0.3339
  443MOL0     C59713   5.704   1.247   6.513  0.5805  0.0411 -0.0242
  443MOL0    Cl59714   5.788   1.164   6.640  0.0647  0.4894 -0.0350
  443MOL0     C59715   4.579   1.116   6.741 -0.0240  0.5584  0.2682
  443MOL0     C59716   4.453   1.138   6.789 -0.1217 -0.0859 -0.0195
  443MOL0     O59717   4.204   0.881   6.947 -0.6617  0.1707  0.5872
  443MOL0     C59718   3.943   0.978   7.009  0.5537 -0.1055  0.7047
  443MOL0     C59719   3.816   1.031   7.047 -0.2785  0.1428 -0.4680
  443MOL0     N59720   3.092   0.974   7.072 -0.2908 -0.4144 -0.4490
  443MOL0     N59721   2.985   0.939   7.000 -0.5439  0.4602 -0.7378
  443MOL0     C59722   2.175   1.345   6.346  0.0797  0.9146  0.5146
  443MOL0     C59723   2.039   1.366   6.364  0.5312  0.3013  0.4710
  443MOL0     C59724   1.670   1.599   6.437  1.4541 -0.1496  0.4375
  443MOL0     C59725   1.597   1.514   6.524 -0.1880 -0.5246 -0.6024
  443MOL0     C59726   1.462   1.532   6.554  1.0722 -0.0601 -0.0574
  443MOL0     C59727   1.383   1.626   6.482 -0.3843 -0.6892 -0.5753
  443MOL0     O59728   1.242   1.639   6.485 -0.2904  0.1596  0.1003
  443MOL0     C59729   1.164   1.583   6.592  1.0740  0.5320 -0.5248
  443MOL0     C59730   1.177   1.668   6.716  0.2047  0.7512  0.0497
  443MOL0     C59731   1.136   1.814   6.705 -0.6878  1.0780 -0.2592
  443MOL0     C59732   1.088   1.852   6.848  0.1745 -1.0230 -0.0259
  443MOL0     C59733   0.960   1.791   6.872 -0.5037  0.3858 -0.4764
  443MOL0     C59734   0.851   1.749   6.905  0.2187 -0.1213 -0.2783
  443MOL0     C59735   1.452   1.717   6.404 -0.1795  0.3624  0.5698
  443MOL0     C59736   1.589   1.699   6.375 -0.0011 -0.6482 -0.2644
  443MOL0     C59737   1.652   1.798   6.296 -0.2695 -0.2385  0.1252
  443MOL0     H59738   2.056   1.484   6.689  0.0841 -1.3056 -0.4791
  443MOL0     H59739   2.293   1.415   6.660  1.8057 -4.8512 -1.8310
  443MOL0     H59740   2.363   1.145   6.557 -1.8862  1.6003  0.1877
  443MOL0     H59741   2.308   1.129   6.395 -0.3253 -0.0222 -0.9899
  443MOL0     H59742   2.541   1.146   6.304  0.0676  3.1262  1.9874
  443MOL0     H59743   2.509   0.993   6.399  2.0097 -1.0057  0.3821
  443MOL0     H59744   2.594   1.140   6.604  2.8066 -1.2143  1.6926
  443MOL0     H59745   2.644   1.247   6.473 -0.6715  0.6669  0.6872
  443MOL0     H59746   2.745   1.015   6.375 -2.7846 -0.7606  0.2452
  443MOL0     H59747   2.838   1.124   6.493  0.4684  0.1239 -0.4259
  443MOL0     H59748   2.739   0.964   6.677 -0.6318 -0.1756  0.2683
  443MOL0     H59749   2.712   0.854   6.540  2.0267 -2.0251  2.2827
  443MOL0     H59750   2.972   0.879   6.507 -1.1997  0.6890 -0.8137
  443MOL0     H59751   2.981   0.981   6.649 -0.5943  1.0035 -1.3274
  443MOL0     H59752   3.052   0.728   6.678 -0.6769  0.2138  0.3489
  443MOL0     H59753   2.874   0.699   6.646 -0.9079  1.6024 -0.6100
  443MOL0     H59754   2.808   0.837   6.836 -1.0804 -2.3067 -2.3167
  443MOL0     H59755   2.882   0.682   6.872 -2.7137  0.0278 -0.6947
  443MOL0     H59756   3.214   0.756   6.850  0.6453 -1.0253  1.1665
  443MOL0     H59757   3.368   0.905   7.145 -1.6299 -3.3641 -0.8962
  443MOL0     H59758   3.402   0.890   6.967 -1.2980 -2.7761 -0.1795
  443MOL0     H59759   3.295   1.120   6.950  1.3260 -1.1756 -0.9843
  443MOL0     H59760   3.290   1.109   7.124 -0.0186  1.9542 -0.5539
  443MOL0     H59761   3.455   1.259   7.031 -2.2800 -0.3233 -0.2709
  443MOL0     H59762   3.550   1.131   6.960 -2.5835 -2.1317 -1.3608
  443MOL0     H59763   3.594   1.035   7.192  0.3879 -0.7466 -3.5397
  443MOL0     H59764   3.508   1.184   7.259 -1.2658  2.6718 -1.9243
  443MOL0     H59765   3.907   1.334   7.158  0.3933  0.7767  0.7032
  443MOL0     H59766   4.123   1.259   7.090 -3.7712  3.8638  1.5189
  443MOL0     H59767   4.467   0.926   7.057 -1.1675  0.7075 -0.2772
  443MOL0     H59768   4.707   0.905   6.965 -2.1338 -0.6638  1.9942
  443MOL0     H59769   4.943   1.033   6.894 -0.2855  3.5042 -2.7093
  443MOL0     H59770   4.888   0.867   6.843 -0.2612  0.6203 -2.1057
  443MOL0     H59771   5.086   0.857   6.768 -2.7630 -0.7678  2.8045
  443MOL0     H59772   5.019   0.916   6.613 -0.3663  1.0173 -0.2781
  443MOL0     H59773   5.075   1.150   6.671 -1.0811 -1.7960 -1.1041
  443MOL0     H59774   5.152   1.105   6.821  1.1896 -0.4530 -0.4968
  443MOL0     H59775   5.229   1.004   6.547 -1.9502  1.8637 -0.1460
  443MOL0     H59776   5.310   0.980   6.710  0.4849  0.1851 -0.1350
  443MOL0     H59777   5.339   1.236   6.708 -3.0780  1.7238 -1.4152
  443MOL0     H59778   5.277   1.236   6.549 -2.2647  1.4094  1.7685
  443MOL0     H59779   5.514   1.069   6.623  1.6391  0.5465 -1.1117
  443MOL0     H59780   5.459   1.114   6.454  0.1445 -2.8696 -0.0499
  443MOL0     H59781   5.557   1.314   6.664  1.7182  0.0749  0.4106
  443MOL0     H59782   5.518   1.347   6.491  1.9916 -1.3012 -2.0727
  443MOL0     H59783   5.705   1.187   6.422  0.2099 -1.1480  0.7236
  443MOL0     H59784   5.756   1.340   6.491  0.6903  0.0690  0.3480
  443MOL0     H59785   4.597   1.161   6.644 -0.5269 -1.6771 -0.9378
  443MOL0     H59786   4.386   1.200   6.731 -1.8599 -3.5834 -2.0934
  443MOL0     H59787   3.947   0.873   6.982  0.3074  0.0693 -0.0421
  443MOL0     H59788   3.731   0.965   7.031  0.7270 -1.2439 -0.3741
  443MOL0     H59789   2.200   1.302   6.250 -0.0657  1.0009  0.4384
  443MOL0     H59790   1.962   1.363   6.288 -1.3934  3.1438  2.1107
  443MOL0     H59791   1.646   1.434   6.578  0.8113 -0.3532 -1.2170
  443MOL0     H59792   1.416   1.462   6.624 -1.0417  0.3035 -0.9907
  443MOL0     H59793   1.196   1.482   6.617  1.2207  1.0593  1.6353
  443MOL0     H59794   1.062   1.564   6.557  1.4138  0.7243 -1.6495
  443MOL0     H59795   1.282   1.662   6.745 -0.1645 -2.8502  1.1210
  443MOL0     H59796   1.127   1.613   6.796 -0.0103 -0.3613 -0.8205
  443MOL0     H59797   1.056   1.822   6.631 -0.8781 -0.8100 -0.3196
  443MOL0     H59798   1.228   1.866   6.675 -0.6197  0.4204 -1.2637
  443MOL0     H59799   1.158   1.828   6.929  0.2449 -0.3051  0.1338
  443MOL0     H59800   1.083   1.961   6.842 -0.7505 -1.1468 -2.7193
  443MOL0     H59801   0.766   1.696   6.942  2.3990 -2.5236  1.7160
  443MOL0     H59802   1.401   1.802   6.360  1.2645  0.9658 -0.0172
  443MOL0     H59803   1.582   1.871   6.255 -0.0200 -0.2939 -0.4034
  443MOL0     H59804   1.720   1.854   6.361  0.9552 -1.7450  0.1977
  443MOL0     H59805   1.716   1.749   6.223 -1.5280 -2.1793  0.2418
  444MOL0     O59806   1.425   1.263   5.662 -0.1977  0.7892 -0.0982
  444MOL0     C59807   1.334   1.196   5.702  0.8003 -0.8352  0.9803
  444MOL0     O59808   1.337   1.074   5.765  0.0759  0.3955  0.1939
  444MOL0     C59809   1.464   1.013   5.786  0.1663 -0.5935 -0.8362
  444MOL0     C59810   1.504   0.988   5.910  0.2599  0.3936 -0.0336
  444MOL0     C59811   1.623   0.916   5.933  0.2954 -0.4056  0.3677
  444MOL0     C59812   1.712   0.883   5.827  0.8463  0.3707 -0.3267
  444MOL0     O59813   1.826   0.817   5.847  0.0980  0.1176 -0.5248
  444MOL0     C59814   1.933   0.775   5.754  0.7713 -0.3583  0.4686
  444MOL0     C59815   2.041   0.736   5.856  0.2456  0.0789  0.5239
  444MOL0     C59816   2.170   0.708   5.774  0.1732  0.1354  0.2104
  444MOL0     C59817   2.309   0.728   5.831  0.2145 -0.5530 -1.2025
  444MOL0     C59818   2.328   0.675   5.978 -0.7710 -0.1396  0.8415
  444MOL0     C59819   2.473   0.687   6.027 -0.2121 -0.2885  0.2306
  444MOL0     C59820   2.465   0.694   6.186 -1.3079 -0.4154 -0.6338
  444MOL0     C59821   2.588   0.769   6.252 -0.8449  1.2267  0.6410
  444MOL0     N59822   2.707   0.683   6.224  0.4912  0.3470  0.2631
  444MOL0     C59823   2.765   0.595   6.312  0.6541  0.7391  0.7081
  444MOL0     C59824   2.866   0.529   6.243  0.1988 -0.3041 -0.0631
  444MOL0     C59825   2.949   0.420   6.296  0.6693 -0.1602 -0.0507
  444MOL0     C59826   3.076   0.468   6.362 -0.6105  0.4201  0.1351
  444MOL0     C59827   3.178   0.487   6.246  0.4607 -0.1705 -0.4828
  444MOL0     C59828   3.290   0.585   6.284  0.0788 -0.4921  0.0768
  444MOL0     O59829   3.370   0.619   6.168  0.9515 -0.9164  0.5469
  444MOL0     C59830   3.488   0.554   6.184 -0.9089 -0.1662  0.1287
  444MOL0     C59831   3.593   0.616   6.256  0.5974  0.1677 -0.2364
  444MOL0     C59832   3.710   0.542   6.286 -0.0157 -0.5364  0.4821
  444MOL0     C59833   3.737   0.416   6.237 -0.0021  0.0663  0.2599
  444MOL0     C59834   3.869   0.344   6.249  0.4049  0.2066 -0.7094
  444MOL0     O59835   3.974   0.418   6.299  0.1392  0.4219 -0.0610
  444MOL0     C59836   4.099   0.360   6.306 -0.0013  0.6624  0.3848
  444MOL0     C59837   4.165   0.365   6.436  0.5367 -0.6520  0.2650
  444MOL0     C59838   4.288   0.309   6.454  0.1586 -0.2420  0.0687
  444MOL0     C59839   4.364   0.265   6.348  0.2367 -0.3074  0.3643
  444MOL0     O59840   4.493   0.223   6.354 -0.2014  0.9463  0.1357
  444MOL0     C59841   4.564   0.226   6.480  0.0762  0.1639  0.0632
  444MOL0     C59842   4.710   0.179   6.465 -0.1715 -0.2915 -0.6770
  444MOL0     C59843   4.812   0.275   6.390 -0.0113  0.3917 -0.2411
  444MOL0     C59844   4.804   0.246   6.237 -0.7445 -0.7955 -0.1033
  444MOL0     C59845   4.924   0.163   6.181 -0.3726 -0.2346  0.7074
  444MOL0     C59846   4.925   0.163   6.021  0.3259  0.1494 -0.2366
  444MOL0     C59847   5.052   0.093   5.959  0.5723  0.1213 -0.1592
  444MOL0     C59848   5.048   0.093   5.808 -0.4469  0.4783 -0.0779
  444MOL0    Cl59849   5.225   0.050   5.771  0.0811  0.0737  0.3189
  444MOL0     C59850   4.304   0.262   6.220  0.2508 -0.5953  0.4293
  444MOL0     C59851   4.172   0.296   6.201 -0.4712 -0.6507  0.8810
  444MOL0     O59852   3.874   0.226   6.214  0.3023  0.2600  0.2277
  444MOL0     C59853   3.633   0.355   6.163  0.0742  0.2429 -0.8265
  444MOL0     C59854   3.509   0.421   6.134 -0.3052 -0.0647 -0.3354
  444MOL0     N59855   2.866   0.588   6.122 -0.1409  0.2897  0.1907
  444MOL0     N59856   2.777   0.675   6.111 -0.2599  0.7961 -0.4037
  444MOL0     C59857   1.669   0.909   5.699  0.0361  0.3080 -0.3823
  444MOL0     C59858   1.540   0.965   5.675  0.3021  0.1047  0.5190
  444MOL0     C59859   1.207   1.273   5.694  0.0691  0.3176  0.0618
  444MOL0     C59860   1.214   1.386   5.608 -0.2242  0.6626  0.3514
  444MOL0     C59861   1.106   1.472   5.594  0.1174  1.0707  0.1058
  444MOL0     C59862   0.991   1.451   5.676 -0.4258  0.2300 -0.0740
  444MOL0     O59863   0.878   1.532   5.677  0.3318 -0.2696  0.6029
  444MOL0     C59864   0.886   1.660   5.616 -0.0398  0.0318  0.9118
  444MOL0     C59865   0.750   1.728   5.599  0.3239  0.2103  0.8734
  444MOL0     C59866   0.666   1.653   5.502  0.8891 -1.0717  0.5008
  444MOL0     C59867   0.523   1.695   5.504  0.4580 -0.0999  0.1743
  444MOL0     C59868   0.452   1.617   5.612  0.0655 -0.2207 -0.4169
  444MOL0     C59869   0.379   1.583   5.702 -0.7758  0.1244 -0.5284
  444MOL0     C59870   0.981   1.336   5.745 -0.5417  0.2291  0.3915
  444MOL0     C59871   1.085   1.242   5.762  0.0176 -0.3580  0.2435
  444MOL0     C59872   1.053   1.122   5.849 -0.3866  0.0510 -0.2448
  444MOL0     H59873   1.432   1.019   5.984  1.0220 -0.0971  0.9476
  444MOL0     H59874   1.645   0.916   6.039 -1.4968  1.7642  0.8257
  444MOL0     H59875   1.904   0.693   5.688  2.0134 -0.9791  0.6661
  444MOL0     H59876   1.957   0.867   5.699 -0.4492 -0.6363 -0.5811
  444MOL0     H59877   2.019   0.650   5.919  0.1908  0.4410  1.0023
  444MOL0     H59878   2.066   0.813   5.929  2.2524 -0.8049  0.8626
  444MOL0     H59879   2.177   0.769   5.683  2.0737 -1.7592 -1.0183
  444MOL0     H59880   2.168   0.608   5.731  1.5323 -0.1593  0.7963
  444MOL0     H59881   2.377   0.677   5.763 -1.0541 -0.8794 -2.2707
  444MOL0     H59882   2.336   0.835   5.833  4.1952 -1.2588  3.7744
  444MOL0     H59883   2.259   0.733   6.040  0.7763  2.4533  0.2910
  444MOL0     H59884   2.306   0.568   5.973 -0.0266 -0.2424 -2.2775
  444MOL0     H59885   2.531   0.608   5.980 -2.5729 -1.9524 -0.0630
  444MOL0     H59886   2.521   0.782   5.999  0.0202 -0.5105 -0.1283
  444MOL0     H59887   2.483   0.591   6.217  2.4061  0.3378  0.1344
  444MOL0     H59888   2.372   0.739   6.223  0.3376  3.7865 -1.0943
  444MOL0     H59889   2.594   0.869   6.208 -0.5504  0.7183 -0.5223
  444MOL0     H59890   2.562   0.789   6.356 -2.0269  0.7431  0.4659
  444MOL0     H59891   2.722   0.571   6.409 -0.9118  2.0138  0.3863
  444MOL0     H59892   2.889   0.369   6.372 -2.6381  1.2249 -1.5411
  444MOL0     H59893   2.960   0.342   6.220 -0.6091 -1.6257  1.1832
  444MOL0     H59894   3.056   0.559   6.419  0.1311  0.8782 -0.3154
  444MOL0     H59895   3.110   0.381   6.420 -1.0498  0.9815  1.2617
  444MOL0     H59896   3.127   0.530   6.159 -1.2179 -0.6426  0.2205
  444MOL0     H59897   3.217   0.389   6.216 -0.6528 -1.1456  1.0883
  444MOL0     H59898   3.350   0.547   6.367  0.2210  3.5891  2.1081
  444MOL0     H59899   3.241   0.679   6.313 -0.6698 -0.5839 -0.8259
  444MOL0     H59900   3.566   0.712   6.299 -4.3101 -0.7087 -0.7659
  444MOL0     H59901   3.781   0.587   6.354 -0.1349  2.0093 -0.9627
  444MOL0     H59902   4.097   0.405   6.511 -0.3067 -0.4526 -0.5862
  444MOL0     H59903   4.323   0.293   6.555  2.5288 -0.4778 -0.7169
  444MOL0     H59904   4.547   0.323   6.528 -0.9292  0.2335 -0.4021
  444MOL0     H59905   4.529   0.155   6.555  2.5502  0.6187  1.7550
  444MOL0     H59906   4.758   0.163   6.562 -1.0713  0.7497 -0.0415
  444MOL0     H59907   4.717   0.079   6.420  2.8307 -0.2073 -0.6115
  444MOL0     H59908   4.772   0.374   6.413  0.6963  0.5381  0.4060
  444MOL0     H59909   4.911   0.258   6.433 -0.6678  0.0626  1.2249
  444MOL0     H59910   4.804   0.335   6.174 -0.2387  0.7788  2.0381
  444MOL0     H59911   4.711   0.191   6.217 -1.9249  1.4017 -0.9705
  444MOL0     H59912   4.913   0.065   6.229 -0.2149 -0.1493  0.9214
  444MOL0     H59913   5.020   0.205   6.214  0.9366 -2.6553  0.1907
  444MOL0     H59914   4.832   0.110   5.998  0.6401  0.3533 -2.1778
  444MOL0     H59915   4.911   0.261   5.975  5.3141  0.9761 -0.5717
  444MOL0     H59916   5.060  -0.012   5.991  0.5880 -1.0493 -3.6443
  444MOL0     H59917   5.143   0.149   5.984  2.0919 -1.5610 -1.6610
  444MOL0     H59918   5.000   0.001   5.773  0.2625  0.5127 -1.1820
  444MOL0     H59919   5.009   0.183   5.759 -0.1702  1.0046  0.6461
  444MOL0     H59920   4.351   0.222   6.131 -0.6472 -1.4892  0.3307
  444MOL0     H59921   4.135   0.284   6.100  0.9453  1.1286  0.0977
  444MOL0     H59922   3.658   0.257   6.125  1.0869  0.3368 -0.4275
  444MOL0     H59923   3.420   0.375   6.093 -2.2085  2.9253  0.1195
  444MOL0     H59924   1.733   0.894   5.613  1.9905  1.5173  0.7707
  444MOL0     H59925   1.512   0.985   5.572  1.5468 -0.6545  0.0180
  444MOL0     H59926   1.304   1.422   5.559  0.4473 -0.2933  0.8558
  444MOL0     H59927   1.122   1.561   5.535  0.5744  1.6147  1.0252
  444MOL0     H59928   0.920   1.654   5.512 -1.7192 -0.3867  0.3561
  444MOL0     H59929   0.937   1.727   5.686 -3.0471  1.0704  2.2854
  444MOL0     H59930   0.772   1.830   5.565 -0.3164  0.4871  1.2885
  444MOL0     H59931   0.703   1.718   5.697 -4.6986 -1.0978 -1.3420
  444MOL0     H59932   0.673   1.546   5.521 -1.7346 -1.4367 -0.2394
  444MOL0     H59933   0.710   1.672   5.403  1.4172  0.1459  0.9421
  444MOL0     H59934   0.520   1.801   5.530  0.5027  0.1543 -0.8350
  444MOL0     H59935   0.472   1.679   5.409  1.2860  0.8402 -0.4468
  444MOL0     H59936   0.316   1.550   5.782  0.8284 -2.7514 -0.2918
  444MOL0     H59937   0.890   1.327   5.803  0.1040 -1.3957  1.1945
  444MOL0     H59938   0.991   1.157   5.933  1.3067  2.1192  0.2430
  444MOL0     H59939   1.004   1.042   5.794  0.3415 -0.7396  0.2442
  444MOL0     H59940   1.148   1.085   5.888 -0.3764 -0.2389 -0.5470
  445MOL0     O59941   6.636   0.319   2.583 -0.3618  0.5495 -0.1490
  445MOL0     C59942   6.665   0.427   2.532  0.1319 -0.5382  0.1397
  445MOL0     O59943   6.788   0.490   2.563 -0.0653 -0.7351  0.8150
  445MOL0     C59944   6.864   0.418   2.655  0.1735 -0.7309 -0.0956
  445MOL0     C59945   6.855   0.453   2.788 -0.4979 -0.0220  0.7101
  445MOL0     C59946   6.936   0.395   2.882  0.1384  0.8188 -0.5115
  445MOL0     C59947   7.028   0.285   2.849 -0.1188  0.9380  0.0281
  445MOL0     O59948   7.114   0.224   2.933 -0.7592 -0.3799  0.2998
  445MOL0     C59949   7.128   0.285   3.059  0.4288 -0.0051 -0.0669
  445MOL0     C59950   7.214   0.203   3.147 -0.3537  0.0162  0.1924
  445MOL0     C59951   7.222   0.249   3.291 -0.2410 -0.0965  0.4404
  445MOL0     C59952   7.334   0.185   3.368  0.0870 -0.5630 -0.1154
  445MOL0     C59953   7.427   0.304   3.413  0.3359  1.0680 -0.0352
  445MOL0     C59954   7.555   0.241   3.459 -0.5707 -0.0976  0.2827
  445MOL0     C59955   7.662   0.338   3.516 -0.3378  0.9890 -0.1932
  445MOL0     C59956   7.785   0.245   3.561  0.0782 -0.1242 -0.5245
  445MOL0     N59957   7.896   0.314   3.632 -0.8314 -0.7179 -0.1241
  445MOL0     C59958   8.031   0.269   3.647  0.3062  0.0005 -0.1874
  445MOL0     C59959   8.085   0.362   3.735 -0.8268 -0.0242 -0.6954
  445MOL0     C59960   8.217   0.360   3.796 -0.0790 -0.3633  0.5989
  445MOL0     C59961   8.338   0.369   3.703 -0.3021 -0.6490 -0.1968
  445MOL0     C59962   8.371   0.227   3.645  0.1071  0.3440  0.5998
  445MOL0     C59963   8.502   0.240   3.559 -0.5019 -0.0113  0.8282
  445MOL0     O59964   8.618   0.267   3.642  0.6811  0.3513  0.4800
  445MOL0     C59965   8.745   0.251   3.596  0.1984  0.4207 -0.2682
  445MOL0     C59966   8.782   0.199   3.466  0.1398 -0.1000  0.6798
  445MOL0     C59967   8.908   0.183   3.420 -0.3911 -0.4124 -0.5575
  445MOL0     C59968   9.014   0.248   3.501 -0.7537  0.1070  0.3107
  445MOL0     C59969   9.152   0.245   3.452 -0.2155  0.0140 -0.4692
  445MOL0     O59970   9.168   0.192   3.326 -0.0841 -0.8190 -0.1703
  445MOL0     C59971   9.291   0.160   3.285 -0.5726  0.0573 -0.1959
  445MOL0     C59972   9.406   0.223   3.329  0.4062  0.1829 -0.3615
  445MOL0     C59973   9.519   0.189   3.265  0.3513 -0.4800  0.2340
  445MOL0     C59974   9.534   0.103   3.161  1.6564  0.7586 -0.3480
  445MOL0     O59975   9.646   0.068   3.092  0.6414 -0.4045  0.1438
  445MOL0     C59976   9.767   0.050   3.171 -0.5741  0.1802  0.3353
  445MOL0     C59977   9.890   0.009   3.088 -0.1868 -0.8753  0.4980
  445MOL0     C59978  10.011  -0.019   3.182 -0.4797  0.3459  0.2166
  445MOL0     C59979  10.142  -0.043   3.105 -0.5708  0.3068  0.7313
  445MOL0     C59980  10.273  -0.058   3.181 -0.1341 -0.9457 -0.5251
  445MOL0     C59981  10.311   0.078   3.244 -0.3779  0.7607 -0.0833
  445MOL0     C59982  10.436   0.052   3.313 -0.8124  0.5303 -0.2905
  445MOL0     C59983  10.507   0.181   3.341  0.9271  0.2425 -0.1237
  445MOL0    Cl59984  10.645   0.147   3.462  0.3928  0.1962  0.0542
  445MOL0     C59985   9.420   0.048   3.106  0.8855  0.3562 -0.2527
  445MOL0     C59986   9.293   0.075   3.169  0.2570 -0.4993 -0.7695
  445MOL0     O59987   9.238   0.280   3.539 -0.3961 -0.5661  0.0940
  445MOL0     C59988   8.983   0.303   3.624 -0.4785  0.5551 -0.5012
  445MOL0     C59989   8.849   0.305   3.674 -0.3175  0.4743 -0.2403
  445MOL0     N59990   7.994   0.466   3.753  0.2910  1.2541  0.7938
  445MOL0     N59991   7.882   0.432   3.703 -0.6813  0.3948  0.6690
  445MOL0     C59992   7.031   0.246   2.707  0.5712 -0.0760  0.4517
  445MOL0     C59993   6.951   0.314   2.617  0.1504  0.5837 -0.2868
  445MOL0     C59994   6.574   0.494   2.428  0.2081  0.5934  0.7427
  445MOL0     C59995   6.432   0.463   2.430 -0.3068  0.0723 -0.4561
  445MOL0     C59996   6.340   0.510   2.340  0.8216  0.5392  0.2538
  445MOL0     C59997   6.383   0.575   2.227  0.5166  0.4086  0.0224
  445MOL0     O59998   6.293   0.605   2.130 -0.1337  0.0857 -0.0522
  445MOL0     C59999   6.311   0.725   2.043  0.1835  0.4473 -0.2491
  445MOL0     C60000   6.180   0.743   1.972  0.0563  0.1083  0.3706
  445MOL0     C60001   6.058   0.764   2.076  0.0104 -0.1660 -0.6952
  445MOL0     C60002   5.925   0.810   2.011 -0.0680 -0.4818 -0.4006
  445MOL0     C60003   5.823   0.828   2.117  0.1992  0.9372 -0.9974
  445MOL0     C60004   5.731   0.847   2.193  0.5328 -0.4223 -0.1213
  445MOL0     C60005   6.517   0.614   2.212 -0.6633 -0.1641 -0.2889
  445MOL0     C60006   6.614   0.571   2.314 -0.0691  0.6696  0.0709
  445MOL0     C60007   6.762   0.609   2.293  0.2131 -0.6257 -1.0172
  445MOL0     H60008   6.789   0.538   2.806 -0.1481  0.4901 -0.3842
  445MOL0     H60009   6.935   0.422   2.987  2.6825 -0.4651 -0.0730
  445MOL0     H60010   7.177   0.382   3.046  2.6233 -1.2948 -2.5883
  445MOL0     H60011   7.036   0.308   3.112 -1.0941  2.1887 -3.3217
  445MOL0     H60012   7.317   0.207   3.111 -0.6797 -0.0827 -0.7782
  445MOL0     H60013   7.176   0.100   3.144  3.4979 -1.5460 -0.7999
  445MOL0     H60014   7.133   0.211   3.342 -0.3678  1.2727  1.2990
  445MOL0     H60015   7.214   0.358   3.297  0.9066  0.1895 -2.1045
  445MOL0     H60016   7.295   0.130   3.454  0.8453  1.8850  1.9191
  445MOL0     H60017   7.403   0.118   3.314 -0.9045 -1.7969  0.0999
  445MOL0     H60018   7.448   0.375   3.333 -1.2669 -0.1771 -1.6488
  445MOL0     H60019   7.373   0.361   3.490 -0.1742  1.0393 -0.3644
  445MOL0     H60020   7.528   0.168   3.536 -2.6196 -0.4024 -0.6628
  445MOL0     H60021   7.605   0.192   3.374 -2.5310  2.3152 -2.4634
  445MOL0     H60022   7.628   0.384   3.610  2.6341 -1.9243  2.5435
  445MOL0     H60023   7.694   0.403   3.435 -0.0437 -0.0402 -0.9154
  445MOL0     H60024   7.739   0.166   3.621 -3.8275  1.2085 -1.4534
  445MOL0     H60025   7.833   0.208   3.470 -0.9309  3.3396 -2.6620
  445MOL0     H60026   8.072   0.173   3.618  0.1905 -0.0254 -0.2707
  445MOL0     H60027   8.221   0.439   3.871 -0.3460  1.6794 -1.4401
  445MOL0     H60028   8.225   0.261   3.843  0.8798 -0.9793 -0.7954
  445MOL0     H60029   8.312   0.437   3.622 -3.1455  0.6927  1.6516
  445MOL0     H60030   8.423   0.403   3.763 -0.8308 -2.6587  1.8471
  445MOL0     H60031   8.289   0.194   3.581 -1.1199  0.4910  2.0455
  445MOL0     H60032   8.382   0.147   3.719 -2.7415 -0.4559  0.2532
  445MOL0     H60033   8.498   0.324   3.489 -0.2476  0.4315  1.3339
  445MOL0     H60034   8.512   0.159   3.487  0.2461  2.0955 -1.5675
  445MOL0     H60035   8.704   0.157   3.403  0.3773 -2.2247  1.7182
  445MOL0     H60036   8.937   0.148   3.321 -1.1635 -1.1966 -0.5134
  445MOL0     H60037   9.407   0.310   3.394  0.5434  0.3059 -0.5260
  445MOL0     H60038   9.608   0.247   3.289  0.4227  0.7982 -2.7061
  445MOL0     H60039   9.791   0.142   3.225  3.4670  0.5031 -1.6271
  445MOL0     H60040   9.745  -0.027   3.246 -0.4661 -1.1568 -0.9634
  445MOL0     H60041   9.871  -0.082   3.029  2.0839  0.6455 -2.8947
  445MOL0     H60042   9.899   0.095   3.020 -0.2006  0.8401  2.5669
  445MOL0     H60043  10.027   0.058   3.258  0.6754  0.7570 -0.4074
  445MOL0     H60044  10.009  -0.112   3.239 -1.5947 -0.4761 -1.1270
  445MOL0     H60045  10.154   0.044   3.039 -4.2948  2.3702  2.4106
  445MOL0     H60046  10.134  -0.124   3.032 -2.6078 -0.2040  1.4461
  445MOL0     H60047  10.352  -0.089   3.111 -0.7712 -2.0632 -0.7772
  445MOL0     H60048  10.265  -0.138   3.255 -1.2419  2.1632  3.0162
  445MOL0     H60049  10.331   0.148   3.163 -0.7176  0.6956 -0.2229
  445MOL0     H60050  10.233   0.113   3.311 -2.1606 -2.0545 -0.5041
  445MOL0     H60051  10.502  -0.012   3.254  1.5027  2.1332  0.4021
  445MOL0     H60052  10.412  -0.008   3.402  0.0202  1.0266  0.2781
  445MOL0     H60053  10.551   0.223   3.251  0.1326  2.8230  0.6145
  445MOL0     H60054  10.447   0.260   3.387  0.4682  0.2126 -0.6698
  445MOL0     H60055   9.431  -0.018   3.021 -0.0328  2.9288 -2.4902
  445MOL0     H60056   9.204   0.024   3.135 -2.6692  0.5529  4.2967
  445MOL0     H60057   9.064   0.343   3.684 -1.1290  1.9957 -0.5362
  445MOL0     H60058   8.819   0.357   3.764 -0.2752 -0.4294  0.2976
  445MOL0     H60059   7.096   0.171   2.664  1.3046 -0.0624  1.5104
  445MOL0     H60060   6.958   0.283   2.513  1.5302 -4.3984  1.0169
  445MOL0     H60061   6.393   0.416   2.519  0.4313  2.5922  1.3147
  445MOL0     H60062   6.232   0.501   2.341  0.8231  0.5530  0.5397
  445MOL0     H60063   6.389   0.719   1.967  0.4410 -0.3872  0.0693
  445MOL0     H60064   6.335   0.811   2.106 -0.9162  1.6721 -1.4194
  445MOL0     H60065   6.169   0.654   1.909  0.6248 -0.0845  0.5328
  445MOL0     H60066   6.180   0.840   1.921 -4.2138 -1.0847 -2.4102
  445MOL0     H60067   6.079   0.834   2.158 -1.8766 -3.5098  2.9804
  445MOL0     H60068   6.041   0.666   2.122  0.5584  1.1351  2.5887
  445MOL0     H60069   5.953   0.908   1.971  0.8193 -0.5029  0.1314
  445MOL0     H60070   5.905   0.739   1.930 -0.6630  0.2333 -0.8920
  445MOL0     H60071   5.648   0.879   2.252  1.7870  0.6177  1.1587
  445MOL0     H60072   6.547   0.679   2.131 -2.0718  1.0022  0.0814
  445MOL0     H60073   6.820   0.517   2.290 -3.4767 -3.1670 -3.4067
  445MOL0     H60074   6.779   0.660   2.197  2.1819 -0.9381 -0.8605
  445MOL0     H60075   6.793   0.679   2.371  1.8468 -2.2157 -0.1727
  446MOL0     O60076   5.695   1.848   8.531  0.0600  0.3794  0.0300
  446MOL0     C60077   5.731   1.941   8.459 -0.3397 -0.0185 -0.1948
  446MOL0     O60078   5.857   1.967   8.414  0.2067 -0.3036 -0.4468
  446MOL0     C60079   5.948   1.864   8.397 -0.6592 -0.2341  1.1330
  446MOL0     C60080   6.008   1.850   8.271  0.3239 -0.9996 -1.2655
  446MOL0     C60081   6.109   1.752   8.258  0.0140 -0.1191  0.5686
  446MOL0     C60082   6.138   1.660   8.362  0.4853 -0.2006  0.1346
  446MOL0     O60083   6.234   1.570   8.320 -0.2300  0.9715  0.5954
  446MOL0     C60084   6.271   1.465   8.405 -0.2303  0.2990 -0.0879
  446MOL0     C60085   6.355   1.364   8.318  0.6307 -0.2528 -0.5601
  446MOL0     C60086   6.496   1.431   8.317 -0.4938  0.1036  0.3596
  446MOL0     C60087   6.577   1.339   8.221  0.2825 -0.0974  0.1297
  446MOL0     C60088   6.715   1.388   8.205  0.0886 -0.1945 -0.9173
  446MOL0     C60089   6.787   1.313   8.101  0.3653 -0.8996  0.4408
  446MOL0     C60090   6.918   1.390   8.074 -0.7017  1.8400  0.4228
  446MOL0     C60091   7.008   1.325   7.962  0.4932 -0.0269 -0.2533
  446MOL0     N60092   7.146   1.358   7.996 -0.0999 -0.3605 -0.7278
  446MOL0     C60093   7.218   1.450   7.927 -0.0748  0.5919 -0.9814
  446MOL0     C60094   7.343   1.435   7.980 -0.0541  0.3438  0.2500
  446MOL0     C60095   7.458   1.506   7.925 -0.8079  0.0603  0.5542
  446MOL0     C60096   7.586   1.420   7.922  0.4523  0.3703 -0.6421
  446MOL0     C60097   7.687   1.471   7.826 -0.2473  0.0818 -0.8936
  446MOL0     C60098   7.749   1.593   7.885 -0.0214  0.2339 -0.3966
  446MOL0     O60099   7.823   1.649   7.778 -0.4566 -0.0571 -0.3116
  446MOL0     C60100   7.961   1.634   7.770 -0.6655 -0.3996 -0.1458
  446MOL0     C60101   8.048   1.557   7.857  0.2753 -0.4881  0.1225
  446MOL0     C60102   8.183   1.589   7.849 -0.3591  0.7228 -0.4455
  446MOL0     C60103   8.241   1.663   7.752  0.3575 -1.4910  0.5641
  446MOL0     C60104   8.379   1.688   7.728  0.1870 -1.1734  0.1588
  446MOL0     O60105   8.461   1.632   7.820 -0.2196 -0.7563 -0.4364
  446MOL0     C60106   8.594   1.649   7.798  0.6551  0.2752  0.2732
  446MOL0     C60107   8.664   1.551   7.728  1.1274  0.0049  0.3101
  446MOL0     C60108   8.801   1.564   7.716 -0.3343  0.6687  0.8016
  446MOL0     C60109   8.878   1.670   7.765 -0.1258 -0.0156  0.0842
  446MOL0     O60110   9.014   1.684   7.764  0.1305 -0.2664  0.9961
  446MOL0     C60111   9.054   1.784   7.664  0.1131 -0.0173 -0.6229
  446MOL0     C60112   9.204   1.785   7.669  0.5320  0.7163  0.3935
  446MOL0     C60113   9.258   1.855   7.799  0.6496 -0.2361  0.2774
  446MOL0     C60114   9.410   1.838   7.820  0.4564  0.8347 -0.1860
  446MOL0     C60115   9.474   1.954   7.893 -0.2027 -0.0590  0.4438
  446MOL0     C60116   9.452   1.947   8.048 -0.3875  0.3032 -0.5966
  446MOL0     C60117   9.543   2.047   8.120  1.1024 -0.1780 -0.7291
  446MOL0     C60118   9.576   2.000   8.260 -1.0816  0.0075 -0.1754
  446MOL0    Cl60119   9.666   2.131   8.342  0.1586  0.0344  0.0417
  446MOL0     C60120   8.806   1.767   7.845 -0.7885  0.3520 -0.0045
  446MOL0     C60121   8.665   1.754   7.862  0.3300  0.1894 -0.6747
  446MOL0     O60122   8.418   1.740   7.625  0.1577 -0.1832  0.8565
  446MOL0     C60123   8.152   1.719   7.657 -0.0733  0.7888  0.5313
  446MOL0     C60124   8.015   1.701   7.664  0.4706 -0.3236  0.6551
  446MOL0     N60125   7.340   1.340   8.082  0.3446  0.1327 -0.0839
  446MOL0     N60126   7.216   1.300   8.094  0.0439 -0.3715 -0.4821
  446MOL0     C60127   6.074   1.679   8.487 -0.1329  1.3241  0.5226
  446MOL0     C60128   5.976   1.776   8.498  0.5442 -0.4956  0.1455
  446MOL0     C60129   5.622   2.043   8.437 -0.1332 -0.5338  0.3937
  446MOL0     C60130   5.506   2.034   8.521  0.5126 -0.8724  0.9749
  446MOL0     C60131   5.393   2.112   8.494  0.3133 -0.4805 -0.1341
  446MOL0     C60132   5.394   2.201   8.392  0.1244 -0.0877  0.6469
  446MOL0     O60133   5.291   2.285   8.362 -0.4492  0.6641 -0.0643
  446MOL0     C60134   5.216   2.250   8.253 -0.9353  0.2088  0.7562
  446MOL0     C60135   5.088   2.336   8.241 -0.4602 -0.6019  0.2773
  446MOL0     C60136   4.988   2.284   8.343 -0.3448 -0.2490  0.2157
  446MOL0     C60137   4.841   2.302   8.331  0.7650  1.2260  0.0754
  446MOL0     C60138   4.791   2.284   8.192 -0.8128  0.0048 -0.2594
  446MOL0     C60139   4.744   2.274   8.082 -0.4418  0.6208 -0.1482
  446MOL0     C60140   5.503   2.210   8.309 -0.4977  1.0298  0.8468
  446MOL0     C60141   5.622   2.129   8.322 -0.7289  0.4541  0.9751
  446MOL0     C60142   5.731   2.156   8.212  0.5237 -0.5771 -0.6767
  446MOL0     H60143   5.978   1.907   8.183 -2.8831 -1.6087 -0.6885
  446MOL0     H60144   6.160   1.742   8.163 -2.0418 -0.4118 -0.5568
  446MOL0     H60145   6.315   1.508   8.495 -0.4876 -0.2786  0.3252
  446MOL0     H60146   6.183   1.414   8.448 -0.8806  2.4232  1.2664
  446MOL0     H60147   6.306   1.356   8.221  1.1246  1.8888 -1.0475
  446MOL0     H60148   6.375   1.269   8.367  3.5851  0.4610 -0.2246
  446MOL0     H60149   6.547   1.418   8.413 -1.8662 -1.2480  0.9496
  446MOL0     H60150   6.484   1.535   8.286 -0.7526 -0.1075 -0.2558
  446MOL0     H60151   6.568   1.236   8.258 -2.0556  0.2800  0.7085
  446MOL0     H60152   6.528   1.338   8.123  1.3315  1.0950 -0.4340
  446MOL0     H60153   6.712   1.496   8.187 -2.1908  0.0891  0.7444
  446MOL0     H60154   6.761   1.379   8.303  0.1841 -0.4711 -0.9856
  446MOL0     H60155   6.807   1.208   8.125 -1.0996 -0.9488  1.5544
  446MOL0     H60156   6.717   1.327   8.017 -1.6862 -0.5867  2.1232
  446MOL0     H60157   6.968   1.379   8.170  0.1742 -0.6472 -0.2505
  446MOL0     H60158   6.896   1.494   8.050 -2.9685  1.2651 -0.2300
  446MOL0     H60159   6.994   1.216   7.967 -2.0309  0.2997  1.0991
  446MOL0     H60160   6.988   1.370   7.864 -1.8207  1.6820  0.9306
  446MOL0     H60161   7.186   1.504   7.839 -1.0737  0.7956 -0.5054
  446MOL0     H60162   7.433   1.549   7.828 -2.3483 -1.4448  0.2321
  446MOL0     H60163   7.470   1.592   7.992 -0.5675  1.3808 -1.1205
  446MOL0     H60164   7.628   1.409   8.022 -0.5179  1.1775 -0.1294
  446MOL0     H60165   7.555   1.321   7.889 -2.4119  0.5977  0.9990
  446MOL0     H60166   7.631   1.498   7.736  2.0837 -0.1419 -2.4873
  446MOL0     H60167   7.769   1.400   7.807 -1.4698 -1.2587 -1.4185
  446MOL0     H60168   7.809   1.579   7.975  1.0584  0.3705 -1.0785
  446MOL0     H60169   7.671   1.666   7.909 -0.5159 -0.1919 -0.6970
  446MOL0     H60170   8.007   1.484   7.925  2.4673 -2.5355 -0.6359
  446MOL0     H60171   8.258   1.546   7.915  1.5823 -0.4061 -3.1807
  446MOL0     H60172   8.613   1.462   7.693  1.3531  0.7068 -1.9240
  446MOL0     H60173   8.862   1.485   7.672 -0.3772  0.9665  0.1971
  446MOL0     H60174   9.028   1.752   7.563  1.9844  3.3734 -2.3918
  446MOL0     H60175   9.022   1.887   7.683  3.9268  1.4297 -1.0790
  446MOL0     H60176   9.238   1.681   7.669  0.4445  0.6870  0.7582
  446MOL0     H60177   9.255   1.836   7.587  0.6795  0.7890  0.5279
  446MOL0     H60178   9.237   1.962   7.784  0.4702  0.0333  2.2105
  446MOL0     H60179   9.203   1.823   7.888  1.0430 -2.0503 -0.0940
  446MOL0     H60180   9.447   1.830   7.717  0.4862 -0.5063 -0.0776
  446MOL0     H60181   9.426   1.746   7.877  1.8151 -0.6523 -2.7632
  446MOL0     H60182   9.430   2.046   7.854  0.3687 -1.0472 -2.8747
  446MOL0     H60183   9.580   1.950   7.864  0.1843 -0.6473  1.8849
  446MOL0     H60184   9.353   1.953   8.093  0.9684 -0.4950  2.8304
  446MOL0     H60185   9.492   1.853   8.087  1.2317  1.1177 -0.2093
  446MOL0     H60186   9.505   2.149   8.117  1.3179 -0.0267  0.8383
  446MOL0     H60187   9.639   2.051   8.069  1.5177  1.1525  0.0986
  446MOL0     H60188   9.489   1.973   8.319 -0.2734  0.8613  1.4858
  446MOL0     H60189   9.639   1.911   8.256  1.0263  1.2474  2.2095
  446MOL0     H60190   8.860   1.849   7.891  0.8936 -0.5297 -0.3365
  446MOL0     H60191   8.600   1.831   7.901  0.6287  0.2390 -0.2676
  446MOL0     H60192   8.183   1.766   7.564 -0.3825  1.5059  0.7769
  446MOL0     H60193   7.949   1.736   7.585  1.3450  0.0866  0.0915
  446MOL0     H60194   6.092   1.621   8.577 -1.4117  0.2536  0.1283
  446MOL0     H60195   5.944   1.785   8.601  0.9919  1.9142  0.1268
  446MOL0     H60196   5.499   1.966   8.605  1.9864  0.4198  2.2297
  446MOL0     H60197   5.301   2.115   8.553  0.5773 -1.2971  0.3375
  446MOL0     H60198   5.191   2.144   8.260  1.4407 -0.4446  0.2375
  446MOL0     H60199   5.270   2.257   8.158 -3.2129  1.4471 -0.5300
  446MOL0     H60200   5.048   2.333   8.139 -0.9003  0.2935  0.4229
  446MOL0     H60201   5.107   2.439   8.272 -0.7249  0.1318 -1.8460
  446MOL0     H60202   5.004   2.332   8.440  0.3610 -0.0817  0.0223
  446MOL0     H60203   5.008   2.177   8.351  1.4749 -0.1142 -1.7224
  446MOL0     H60204   4.793   2.216   8.377 -2.0828  3.0488  0.7606
  446MOL0     H60205   4.799   2.384   8.391 -0.3463 -0.3645  1.5675
  446MOL0     H60206   4.700   2.267   7.984  1.1370 -3.4191 -0.7779
  446MOL0     H60207   5.503   2.279   8.226 -0.8692  1.1280  0.9266
  446MOL0     H60208   5.717   2.250   8.159  1.6705 -0.0847 -0.1516
  446MOL0     H60209   5.836   2.155   8.243  0.0793 -1.2785  0.9034
  446MOL0     H60210   5.715   2.077   8.139  2.0423 -1.3742 -0.2040
  447MOL0     O60211   3.318   2.518  10.582  0.5328 -0.3008 -0.6020
  447MOL0     C60212   3.282   2.521  10.461 -0.0035 -0.7385 -0.7513
  447MOL0     O60213   3.354   2.473  10.352  0.0890 -0.1973  0.1967
  447MOL0     C60214   3.491   2.473  10.353 -0.1683  0.3480 -0.2993
  447MOL0     C60215   3.568   2.387  10.272  1.3445 -0.8575  0.5028
  447MOL0     C60216   3.707   2.401  10.262  0.4657  0.4962 -0.6018
  447MOL0     C60217   3.777   2.486  10.348 -0.0625 -0.2978 -1.1345
  447MOL0     O60218   3.910   2.528  10.337 -0.2827 -0.5029  0.0208
  447MOL0     C60219   3.992   2.466  10.244  0.3368  0.5101 -0.4887
  447MOL0     C60220   4.134   2.517  10.248 -0.0638 -0.3350 -0.8511
  447MOL0     C60221   4.227   2.466  10.135  0.1815  0.4492  0.5782
  447MOL0     C60222   4.180   2.506   9.995  0.1880  0.3195 -0.7427
  447MOL0     C60223   4.291   2.470   9.896  0.2951  0.3811  0.2439
  447MOL0     C60224   4.302   2.564   9.776 -1.2743 -0.1669 -0.1918
  447MOL0     C60225   4.441   2.568   9.718 -0.5373  1.0928  0.0799
  447MOL0     C60226   4.452   2.655   9.584 -0.3307  0.5626 -0.2821
  447MOL0     N60227   4.572   2.603   9.512  0.3901  0.1775  0.1250
  447MOL0     C60228   4.689   2.679   9.492 -0.1350 -0.3894  0.7087
  447MOL0     C60229   4.755   2.604   9.410  0.7593  0.2448  0.2198
  447MOL0     C60230   4.894   2.623   9.367  0.1771 -0.3757 -0.0909
  447MOL0     C60231   4.986   2.541   9.445  0.0102 -0.7054  0.3723
  447MOL0     C60232   5.098   2.485   9.356 -0.2995 -0.7584  0.1043
  447MOL0     C60233   5.227   2.444   9.435 -0.6085  0.4060 -0.2854
  447MOL0     O60234   5.292   2.368   9.335 -0.4130 -0.0962 -0.3298
  447MOL0     C60235   5.434   2.372   9.335  0.2385  0.4137 -1.0269
  447MOL0     C60236   5.504   2.398   9.451 -0.1504 -0.1045  0.2700
  447MOL0     C60237   5.647   2.396   9.458  0.0519 -0.3384  0.0369
  447MOL0     C60238   5.711   2.380   9.332  0.2231  0.2974 -0.0011
  447MOL0     C60239   5.863   2.368   9.328  0.3628  0.6735 -0.5362
  447MOL0     O60240   5.920   2.311   9.222 -0.0405 -0.0013 -0.0853
  447MOL0     C60241   6.044   2.266   9.245 -0.9221  0.4142  0.6129
  447MOL0     C60242   6.061   2.144   9.306 -0.2468 -0.6808  0.3505
  447MOL0     C60243   6.183   2.084   9.309  0.2160 -0.4365  0.8702
  447MOL0     C60244   6.299   2.145   9.249  0.4456  0.0528  0.3339
  447MOL0     O60245   6.424   2.090   9.230 -0.0813 -0.2325  0.2341
  447MOL0     C60246   6.449   1.955   9.259  0.1992 -0.8929 -0.7574
  447MOL0     C60247   6.583   1.908   9.221  0.0431  0.6645 -0.4099
  447MOL0     C60248   6.607   1.912   9.068 -0.8606 -0.0805 -0.2144
  447MOL0     C60249   6.743   1.854   9.036 -0.1624 -0.1324  0.4071
  447MOL0     C60250   6.773   1.876   8.889  0.2212 -0.0389  0.5176
  447MOL0     C60251   6.924   1.881   8.844  0.5780 -0.1879 -1.0080
  447MOL0     C60252   6.946   1.899   8.696  0.0788  0.2694 -0.4559
  447MOL0     C60253   7.084   1.954   8.653  0.0967  0.0580  0.2379
  447MOL0    Cl60254   7.216   1.882   8.751  0.4425  0.2710  0.2055
  447MOL0     C60255   6.290   2.278   9.207  0.0474  0.8090 -0.0034
  447MOL0     C60256   6.157   2.336   9.207 -0.1267  0.0285  0.4273
  447MOL0     O60257   5.918   2.414   9.425  0.3448 -0.0862  0.2999
  447MOL0     C60258   5.631   2.361   9.213  0.5131 -0.4382  0.8377
  447MOL0     C60259   5.499   2.348   9.220 -0.9324  0.1487 -0.3904
  447MOL0     N60260   4.679   2.484   9.387  0.2898  0.2835  0.9427
  447MOL0     N60261   4.574   2.478   9.463 -0.1819  0.1411  0.8696
  447MOL0     C60262   3.706   2.560  10.442 -0.9004 -0.3631  0.0792
  447MOL0     C60263   3.566   2.555  10.444 -0.7776 -0.5767  0.0565
  447MOL0     C60264   3.143   2.561  10.438  0.1586  0.1859 -0.2848
  447MOL0     C60265   3.046   2.537  10.532 -0.0486  0.1452 -0.2700
  447MOL0     C60266   2.910   2.570  10.511 -0.3663  0.3698  0.6071
  447MOL0     C60267   2.875   2.643  10.403  0.0818  0.4283  0.4715
  447MOL0     O60268   2.739   2.681  10.392 -0.7043  0.3992  0.2229
  447MOL0     C60269   2.679   2.693  10.266 -0.2566 -0.3581 -0.3978
  447MOL0     C60270   2.533   2.744  10.281  0.5267 -0.3454 -0.5391
  447MOL0     C60271   2.517   2.857  10.390 -0.7193  0.1279 -0.1471
  447MOL0     C60272   2.590   2.985  10.346 -0.7429 -0.0303 -0.5109
  447MOL0     C60273   2.562   3.090  10.448 -0.3130  0.0115  0.3187
  447MOL0     C60274   2.521   3.178  10.522 -0.2091 -0.3910 -0.0168
  447MOL0     C60275   2.974   2.686  10.311 -0.0381 -0.7722 -0.1908
  447MOL0     C60276   3.104   2.637  10.324 -0.0808  1.0098 -0.7242
  447MOL0     C60277   3.198   2.684  10.223 -0.9979 -0.2318  0.9360
  447MOL0     H60278   3.518   2.312  10.211 -1.3344 -1.5693  3.2914
  447MOL0     H60279   3.764   2.362  10.178  1.5244  1.9514 -0.5996
  447MOL0     H60280   3.991   2.359  10.267  1.3384 -0.1154 -3.0174
  447MOL0     H60281   3.941   2.471  10.148  0.2024  0.2203 -0.4320
  447MOL0     H60282   4.182   2.476  10.337 -0.4300  2.2173  0.6185
  447MOL0     H60283   4.139   2.624  10.271 -1.9769 -0.0941 -1.3932
  447MOL0     H60284   4.236   2.358  10.146 -0.9441  0.5305  2.7343
  447MOL0     H60285   4.325   2.511  10.156  0.4230 -0.1436  0.7392
  447MOL0     H60286   4.076   2.486   9.970  0.1825 -0.8658  0.1432
  447MOL0     H60287   4.177   2.615   9.996  0.4214  0.3665 -2.4755
  447MOL0     H60288   4.390   2.474   9.943  0.1740 -1.4455  0.7001
  447MOL0     H60289   4.272   2.367   9.866 -2.1683  0.4884  1.1675
  447MOL0     H60290   4.241   2.528   9.693 -1.1821 -0.6534 -0.0503
  447MOL0     H60291   4.261   2.662   9.804  0.1581 -0.3237  2.8593
  447MOL0     H60292   4.456   2.460   9.707 -2.5136  0.6012  1.5674
  447MOL0     H60293   4.509   2.611   9.793 -0.8944  2.0021 -0.1055
  447MOL0     H60294   4.364   2.649   9.519  0.0775 -2.2485 -0.7208
  447MOL0     H60295   4.464   2.762   9.602 -2.9634  0.5246  2.7061
  447MOL0     H60296   4.710   2.783   9.516 -1.9814  0.4623 -1.0543
  447MOL0     H60297   4.909   2.617   9.259 -1.3157 -0.6106 -0.3092
  447MOL0     H60298   4.913   2.729   9.388 -2.7519  0.6632 -2.0386
  447MOL0     H60299   5.033   2.600   9.524 -1.9414  1.3255  0.1306
  447MOL0     H60300   4.925   2.465   9.495 -1.3923  0.6354  0.7940
  447MOL0     H60301   5.128   2.559   9.281 -1.3488 -1.3575 -0.9451
  447MOL0     H60302   5.058   2.401   9.297  2.0555 -1.9017  0.0192
  447MOL0     H60303   5.188   2.381   9.516 -1.0676 -0.6632 -1.3093
  447MOL0     H60304   5.287   2.527   9.472  1.2151 -1.3095  0.8043
  447MOL0     H60305   5.442   2.406   9.540 -1.4467  0.1721 -0.6237
  447MOL0     H60306   5.705   2.404   9.549  1.0799  2.0141 -0.7529
  447MOL0     H60307   5.978   2.092   9.352  0.4022 -1.3875  0.7463
  447MOL0     H60308   6.184   1.989   9.363  2.7048 -0.9940 -0.0306
  447MOL0     H60309   6.431   1.935   9.365  1.8016  1.1563 -0.0165
  447MOL0     H60310   6.374   1.897   9.205 -2.6135 -0.3805  2.2676
  447MOL0     H60311   6.659   1.960   9.281 -1.6919 -1.8110  4.5182
  447MOL0     H60312   6.591   1.806   9.258  0.5374  0.7390 -0.2969
  447MOL0     H60313   6.521   1.867   9.017  0.0419 -0.8282 -1.1166
  447MOL0     H60314   6.605   2.019   9.045 -2.7873  0.0760  0.4764
  447MOL0     H60315   6.741   1.749   9.064 -0.6336 -0.0565  0.6609
  447MOL0     H60316   6.825   1.903   9.089 -1.6214  2.1149  0.7418
  447MOL0     H60317   6.737   1.978   8.870  0.5822 -0.3899 -2.4466
  447MOL0     H60318   6.718   1.807   8.825 -0.3668  1.5686 -0.7861
  447MOL0     H60319   6.973   1.964   8.895  1.6234 -0.2261 -1.8885
  447MOL0     H60320   6.974   1.786   8.867 -0.3115 -0.3426  0.4001
  447MOL0     H60321   6.877   1.972   8.654  0.5674  1.3060  0.4813
  447MOL0     H60322   6.924   1.805   8.644  0.7987 -0.0204 -0.2556
  447MOL0     H60323   7.100   1.924   8.549 -0.4885 -2.6571  0.8637
  447MOL0     H60324   7.085   2.063   8.658 -0.6245  0.1232 -0.7898
  447MOL0     H60325   6.369   2.330   9.155 -0.0629  2.6503  1.5342
  447MOL0     H60326   6.142   2.437   9.170 -0.3829 -0.3381 -0.5024
  447MOL0     H60327   5.679   2.348   9.116 -0.0665  0.2467  0.4578
  447MOL0     H60328   5.449   2.340   9.124 -0.5860 -0.0804 -0.5529
  447MOL0     H60329   3.750   2.623  10.519 -0.1842 -0.2955 -0.3722
  447MOL0     H60330   3.512   2.621  10.512 -1.6010  0.6159 -1.6727
  447MOL0     H60331   3.079   2.489  10.624 -1.4665  0.4281  0.4190
  447MOL0     H60332   2.827   2.540  10.575 -0.5472 -0.6195 -0.0727
  447MOL0     H60333   2.687   2.604  10.204  0.6622 -1.3564  1.0777
  447MOL0     H60334   2.727   2.767  10.201 -1.7275  0.4021 -0.6590
  447MOL0     H60335   2.479   2.656  10.317 -1.4615  0.6208 -1.0447
  447MOL0     H60336   2.487   2.783  10.190 -0.0846  1.3354  0.4410
  447MOL0     H60337   2.562   2.817  10.481  0.5603 -0.4795 -1.0120
  447MOL0     H60338   2.414   2.883  10.416 -0.8434  0.6846 -1.1360
  447MOL0     H60339   2.697   2.964  10.350 -0.4996  1.1487  2.9934
  447MOL0     H60340   2.563   3.016  10.245  0.0418  0.1707 -0.6683
  447MOL0     H60341   2.471   3.245  10.589  1.0639 -1.1949  1.8187
  447MOL0     H60342   2.962   2.754  10.227 -0.1242 -1.1315 -0.4742
  447MOL0     H60343   3.244   2.598  10.174 -0.6644  0.3716  0.1703
  447MOL0     H60344   3.146   2.743  10.147 -3.9695 -1.5375  1.7959
  447MOL0     H60345   3.279   2.742  10.268  0.1550  0.7577 -2.1383
  448MOL0     O60346   8.010   7.837   6.153  0.3477 -0.4285  0.1852
  448MOL0     C60347   7.976   7.716   6.141 -0.7794 -0.0960  0.3623
  448MOL0     O60348   8.039   7.616   6.202 -0.0634 -0.4512  0.0964
  448MOL0     C60349   8.142   7.653   6.289  0.2809  0.4791 -0.7560
  448MOL0     C60350   8.275   7.626   6.257 -0.4741 -0.3744 -0.5761
  448MOL0     C60351   8.378   7.656   6.355  0.0506  0.5032  0.6309
  448MOL0     C60352   8.345   7.715   6.476 -1.0287  0.0782 -0.1332
  448MOL0     O60353   8.446   7.741   6.566 -0.3360  0.1594 -1.0870
  448MOL0     C60354   8.448   7.883   6.603 -0.1070 -0.3030  0.7573
  448MOL0     C60355   8.543   7.908   6.726  0.0844  0.7779 -1.1477
  448MOL0     C60356   8.693   7.883   6.708  0.7213  0.3228  1.4740
  448MOL0     C60357   8.774   8.002   6.693 -0.4441  1.0003  0.8011
  448MOL0     C60358   8.921   7.962   6.654 -0.2500  0.0097 -0.2557
  448MOL0     C60359   9.031   8.057   6.706 -0.5965  0.1443 -1.7024
  448MOL0     C60360   9.012   8.193   6.639 -1.0617  0.2281 -0.1710
  448MOL0     C60361   9.098   8.312   6.689  0.1810  0.4847 -0.2171
  448MOL0     N60362   9.239   8.272   6.717 -0.2182  0.1385  0.4152
  448MOL0     C60363   9.348   8.274   6.626 -0.1160  0.5445 -0.0411
  448MOL0     C60364   9.458   8.223   6.686 -0.1994 -0.5374 -0.8444
  448MOL0     C60365   9.596   8.215   6.630 -0.2266  0.3430  0.0906
  448MOL0     C60366   9.683   8.104   6.683 -0.1351 -0.0405  0.7625
  448MOL0     C60367   9.818   8.107   6.607 -1.6448  0.8016  0.7810
  448MOL0     C60368   9.924   8.029   6.682 -0.2203  0.2617 -0.7069
  448MOL0     O60369   9.982   8.115   6.776  0.5975 -0.0242  0.0519
  448MOL0     C60370  10.089   8.055   6.846  0.3660 -0.5047  0.2675
  448MOL0     C60371  10.151   8.141   6.941 -0.5487 -0.4433  0.6494
  448MOL0     C60372  10.269   8.102   6.995  0.3017  1.7247 -0.7745
  448MOL0     C60373  10.323   7.976   6.970 -0.2774  0.4693 -0.5623
  448MOL0     C60374  10.449   7.933   7.042  0.1377 -0.6887  1.0409
  448MOL0     O60375  10.492   7.811   7.021  0.8149  0.3679 -0.2192
  448MOL0     C60376  10.617   7.767   7.052  0.7110 -0.2748 -0.4409
  448MOL0     C60377  10.633   7.625   7.067 -0.0960 -1.1635  0.2887
  448MOL0     C60378  10.755   7.575   7.112  0.6737 -0.4659 -0.5148
  448MOL0     C60379  10.858   7.662   7.157 -0.2352 -0.1742  0.4724
  448MOL0     O60380  10.976   7.604   7.204  0.1660 -0.3593 -0.7718
  448MOL0     C60381  11.094   7.679   7.226 -0.3075  0.6847 -0.3277
  448MOL0     C60382  11.183   7.680   7.099 -0.1533 -0.5801 -0.0627
  448MOL0     C60383  11.319   7.724   7.136 -0.9666 -0.7387  0.5604
  448MOL0     C60384  11.346   7.865   7.192  0.4061  0.0068 -0.5001
  448MOL0     C60385  11.496   7.906   7.212 -0.1924  0.6231 -0.7837
  448MOL0     C60386  11.503   8.019   7.317  0.1693 -0.5089 -0.1801
  448MOL0     C60387  11.644   8.085   7.328 -1.0633  0.7551  0.1507
  448MOL0     C60388  11.695   8.158   7.204  0.2765  0.3117 -0.9103
  448MOL0    Cl60389  11.830   8.267   7.258  0.7941 -0.5038  0.1853
  448MOL0     C60390  10.849   7.798   7.119 -0.1607 -0.7403 -0.1279
  448MOL0     C60391  10.730   7.850   7.073 -0.1207  0.5999  0.4273
  448MOL0     O60392  10.506   8.023   7.105 -0.4973 -0.1187 -0.0177
  448MOL0     C60393  10.260   7.893   6.882 -0.0472  0.3107  0.8062
  448MOL0     C60394  10.141   7.928   6.821  0.5110  0.1760 -0.2456
  448MOL0     N60395   9.413   8.181   6.814 -0.0627 -0.1019  0.5333
  448MOL0     N60396   9.288   8.212   6.836 -0.3362 -0.1199 -1.0159
  448MOL0     C60397   8.211   7.740   6.507  0.3174 -0.5288 -0.2034
  448MOL0     C60398   8.109   7.701   6.416  0.8458  0.1286  0.1147
  448MOL0     C60399   7.859   7.690   6.052  0.4914  0.9694 -0.8904
  448MOL0     C60400   7.825   7.784   5.949  0.3793  0.5510 -0.0312
  448MOL0     C60401   7.713   7.761   5.877  0.7558  0.5337 -0.4030
  448MOL0     C60402   7.638   7.640   5.885  0.4492 -0.6887  0.1535
  448MOL0     O60403   7.520   7.622   5.805 -0.7838  0.0780  0.3376
  448MOL0     C60404   7.417   7.723   5.785 -0.0397  0.3003 -0.0336
  448MOL0     C60405   7.271   7.664   5.783  0.3905 -0.3149 -0.1317
  448MOL0     C60406   7.257   7.568   5.665 -0.5759  0.0174  0.3853
  448MOL0     C60407   7.141   7.613   5.570  0.1015  0.1479 -0.4170
  448MOL0     C60408   7.176   7.747   5.514 -0.2663 -0.1616 -0.8903
  448MOL0     C60409   7.201   7.847   5.450  0.4504 -0.0290  0.4982
  448MOL0     C60410   7.685   7.542   5.975  0.8116  0.5158  0.4766
  448MOL0     C60411   7.792   7.563   6.061 -0.0124 -0.8168 -0.3620
  448MOL0     C60412   7.817   7.451   6.157  0.5300  0.4634 -0.0084
  448MOL0     H60413   8.297   7.563   6.171  1.8457  0.7262 -0.8556
  448MOL0     H60414   8.478   7.617   6.339 -0.7377 -1.1815 -0.5646
  448MOL0     H60415   8.486   7.947   6.523 -0.2639  0.1755  1.0599
  448MOL0     H60416   8.352   7.920   6.640 -0.3483 -1.3198  1.1776
  448MOL0     H60417   8.499   7.848   6.806 -2.7498  2.0579 -1.6228
  448MOL0     H60418   8.527   8.013   6.750  1.9622  0.7017  0.6816
  448MOL0     H60419   8.699   7.818   6.620  0.4511  0.5630  1.2767
  448MOL0     H60420   8.729   7.820   6.790 -1.7381 -1.8270  1.0453
  448MOL0     H60421   8.737   8.078   6.623 -0.1989  0.1847 -0.2288
  448MOL0     H60422   8.772   8.045   6.794  0.7603  3.2570 -0.0694
  448MOL0     H60423   8.957   7.864   6.686 -0.3132  0.1563  0.2830
  448MOL0     H60424   8.952   7.951   6.550  2.6216  0.5910  0.4515
  448MOL0     H60425   9.026   8.068   6.815 -1.4376 -2.2543 -1.4509
  448MOL0     H60426   9.133   8.023   6.687 -0.2269  0.4618 -0.3755
  448MOL0     H60427   8.910   8.232   6.655 -0.8635  1.1589 -1.0897
  448MOL0     H60428   9.022   8.184   6.531  1.8699  2.6961 -0.2341
  448MOL0     H60429   9.097   8.393   6.615 -3.1674  0.0676 -0.7863
  448MOL0     H60430   9.045   8.351   6.776 -4.8501 -1.3533 -2.0994
  448MOL0     H60431   9.324   8.294   6.523 -0.1299 -0.3622 -0.2262
  448MOL0     H60432   9.599   8.215   6.521  0.3296  0.4927  0.1016
  448MOL0     H60433   9.641   8.311   6.657  0.8526  0.1300 -0.8862
  448MOL0     H60434   9.702   8.123   6.790 -0.0270  2.4003  0.3840
  448MOL0     H60435   9.639   8.006   6.667 -1.1988 -0.2403  4.0899
  448MOL0     H60436   9.851   8.211   6.599  0.1049  0.3287  1.3010
  448MOL0     H60437   9.806   8.063   6.508 -0.4038 -1.1836  1.4629
  448MOL0     H60438   9.991   7.991   6.605  1.6977 -0.1304  1.0539
  448MOL0     H60439   9.882   7.944   6.737 -1.0476  0.2990 -1.2696
  448MOL0     H60440  10.121   8.241   6.970 -0.5533  0.0959 -1.0927
  448MOL0     H60441  10.321   8.161   7.071  4.5494 -1.6014 -0.7210
  448MOL0     H60442  10.544   7.566   7.044 -1.9419  1.4445  0.3781
  448MOL0     H60443  10.776   7.469   7.117  2.1980 -0.1935 -0.8621
  448MOL0     H60444  11.057   7.776   7.262 -1.3702  0.0354  0.3721
  448MOL0     H60445  11.149   7.621   7.300  0.1827  1.4741 -0.0550
  448MOL0     H60446  11.192   7.578   7.061 -0.8256 -1.3156  1.6139
  448MOL0     H60447  11.144   7.739   7.016 -0.0259  0.5097  0.6360
  448MOL0     H60448  11.362   7.651   7.206 -1.8620 -1.6852  0.1597
  448MOL0     H60449  11.373   7.723   7.041  0.3914 -1.0973  1.3173
  448MOL0     H60450  11.302   7.861   7.292 -0.4003  1.0794 -0.7907
  448MOL0     H60451  11.285   7.937   7.137 -0.8752 -1.4003 -0.9746
  448MOL0     H60452  11.540   7.928   7.115  1.9759 -2.3149 -0.6216
  448MOL0     H60453  11.547   7.813   7.241 -1.5270 -0.2933 -1.2621
  448MOL0     H60454  11.434   8.101   7.296 -0.6533 -1.0149  0.4921
  448MOL0     H60455  11.470   7.982   7.415  0.8895  2.1482  1.1603
  448MOL0     H60456  11.708   7.997   7.337 -2.4758 -0.3464 -0.1874
  448MOL0     H60457  11.651   8.145   7.418  1.0780  0.0079  0.5337
  448MOL0     H60458  11.729   8.084   7.132 -1.9488 -0.2410 -1.4749
  448MOL0     H60459  11.615   8.220   7.162 -1.6475 -0.5959  1.1875
  448MOL0     H60460  10.924   7.876   7.132  0.2647 -1.3925  1.5639
  448MOL0     H60461  10.733   7.952   7.036  0.4119  0.4549  0.0477
  448MOL0     H60462  10.315   7.808   6.843 -0.5258  0.3452  0.0222
  448MOL0     H60463  10.099   7.857   6.750  1.0271 -0.7837  0.3742
  448MOL0     H60464   8.179   7.787   6.599 -2.0733  1.3676 -1.8783
  448MOL0     H60465   8.004   7.724   6.430  0.4664 -2.3068  1.8881
  448MOL0     H60466   7.873   7.881   5.933 -1.4271  1.7768  1.4695
  448MOL0     H60467   7.690   7.848   5.815  3.3600  1.4475 -0.2157
  448MOL0     H60468   7.434   7.780   5.693 -0.0188  0.8307  0.2921
  448MOL0     H60469   7.420   7.801   5.862  1.6619 -0.9540  1.2296
  448MOL0     H60470   7.202   7.749   5.784 -1.0981 -1.4754 -0.0212
  448MOL0     H60471   7.254   7.618   5.881 -2.8521  0.7330 -0.0733
  448MOL0     H60472   7.222   7.471   5.703 -3.8759  0.8154 -0.2976
  448MOL0     H60473   7.352   7.551   5.613 -0.4709 -3.1467  1.3898
  448MOL0     H60474   7.136   7.544   5.485  0.6368 -0.0707 -0.2790
  448MOL0     H60475   7.047   7.621   5.625  1.3191  1.7514  1.5894
  448MOL0     H60476   7.225   7.943   5.408  1.2360  0.3148  1.6729
  448MOL0     H60477   7.631   7.449   5.980  4.4694 -1.7621  1.5837
  448MOL0     H60478   7.739   7.375   6.148  5.6143 -5.5112 -0.2156
  448MOL0     H60479   7.901   7.392   6.120 -0.5270 -1.6209  0.7853
  448MOL0     H60480   7.831   7.479   6.261 -3.4568  1.3866  0.4501
  449MOL0     O60481   9.881   6.741   4.348  0.5739 -0.1605 -0.4307
  449MOL0     C60482   9.862   6.696   4.234 -0.1133  0.3149  0.1662
  449MOL0     O60483   9.955   6.656   4.153  0.2429  0.0075  0.4497
  449MOL0     C60484  10.088   6.659   4.177  0.5478 -0.1576  0.1419
  449MOL0     C60485  10.156   6.618   4.294  0.5257 -0.1273  0.6981
  449MOL0     C60486  10.292   6.621   4.304 -0.5001 -0.5094  0.5495
  449MOL0     C60487  10.373   6.685   4.191 -0.2800 -0.4192 -0.1307
  449MOL0     O60488  10.513   6.667   4.198 -0.7340  0.1784  0.0597
  449MOL0     C60489  10.595   6.759   4.121  0.6448 -1.1483 -1.3537
  449MOL0     C60490  10.738   6.723   4.158 -0.4796 -0.2757 -0.6081
  449MOL0     C60491  10.854   6.806   4.103  0.4277 -0.6916  0.5959
  449MOL0     C60492  10.837   6.950   4.122 -0.0135  0.2467 -0.6599
  449MOL0     C60493  10.964   7.031   4.078 -0.3694  0.4454 -0.2798
  449MOL0     C60494  10.973   7.064   3.924 -0.7343  0.3594 -0.9352
  449MOL0     C60495  11.091   7.156   3.894  0.6579 -0.4208  0.4286
  449MOL0     C60496  11.108   7.177   3.738  0.2621  0.4018  0.2478
  449MOL0     N60497  11.241   7.227   3.709  0.1667 -0.1643 -0.9750
  449MOL0     C60498  11.306   7.324   3.790 -0.4503 -0.9517  1.0523
  449MOL0     C60499  11.421   7.334   3.721 -0.1563 -0.0283  0.6038
  449MOL0     C60500  11.542   7.423   3.752  0.4215 -0.7287 -0.0497
  449MOL0     C60501  11.551   7.555   3.674 -0.1730 -0.7605  0.1571
  449MOL0     C60502  11.585   7.552   3.528  0.1966  0.8280  0.1018
  449MOL0     C60503  11.727   7.497   3.497 -0.5035 -0.3490 -1.3651
  449MOL0     O60504  11.832   7.585   3.559  0.2947  0.5929  0.0653
  449MOL0     C60505  11.956   7.573   3.505  0.0418  0.8861  0.2974
  449MOL0     C60506  12.003   7.464   3.431  0.9424 -0.8912 -0.0196
  449MOL0     C60507  12.140   7.455   3.391  0.0234 -0.4885 -0.2947
  449MOL0     C60508  12.235   7.548   3.441  0.2287 -1.1739 -0.2009
  449MOL0     C60509  12.376   7.529   3.421 -0.2203 -0.0701  0.3087
  449MOL0     O60510  12.454   7.626   3.454 -0.3761 -1.1864 -0.2412
  449MOL0     C60511  12.588   7.629   3.415 -0.5288  0.0251 -0.6536
  449MOL0     C60512  12.684   7.568   3.505 -0.1870  0.1417  1.1534
  449MOL0     C60513  12.824   7.572   3.469  0.5931  0.5377  0.7486
  449MOL0     C60514  12.875   7.625   3.348  0.8079 -0.1279 -0.4730
  449MOL0     O60515  13.007   7.642   3.328  0.0370 -0.1455 -0.2559
  449MOL0     C60516  13.093   7.534   3.356 -0.2501 -0.9518  0.2660
  449MOL0     C60517  13.221   7.561   3.276 -1.3430 -1.0382  0.3561
  449MOL0     C60518  13.317   7.668   3.328 -0.3597 -0.9589 -0.0851
  449MOL0     C60519  13.430   7.712   3.233  0.0244  0.3798  0.0522
  449MOL0     C60520  13.381   7.754   3.091  0.0195 -0.4536  0.1612
  449MOL0     C60521  13.271   7.853   3.091  1.1336  0.1139 -0.5291
  449MOL0     C60522  13.231   7.875   2.942 -0.2787  1.1118  0.4782
  449MOL0     C60523  13.112   7.969   2.936 -0.0859 -0.4991 -0.7682
  449MOL0    Cl60524  13.058   7.945   2.773  0.3249 -0.4425 -0.4563
  449MOL0     C60525  12.773   7.683   3.266  0.1087 -0.0485 -0.3304
  449MOL0     C60526  12.636   7.689   3.302 -0.2879  1.5230 -0.2704
  449MOL0     O60527  12.409   7.430   3.351  0.0993  0.6600  0.3584
  449MOL0     C60528  12.186   7.648   3.531 -0.4446 -0.1610  0.2231
  449MOL0     C60529  12.050   7.662   3.557 -0.3170 -0.9275  0.3282
  449MOL0     N60530  11.431   7.241   3.624 -0.1233  0.1704  0.1157
  449MOL0     N60531  11.321   7.176   3.618 -0.9369  0.8412 -0.6595
  449MOL0     C60532  10.301   6.738   4.084  0.0065  1.2216 -0.4822
  449MOL0     C60533  10.160   6.727   4.080  0.1682  0.6678  0.4427
  449MOL0     C60534   9.728   6.691   4.186 -1.0250  0.2693 -0.2682
  449MOL0     C60535   9.633   6.664   4.290  0.9229  0.4233  0.1463
  449MOL0     C60536   9.501   6.673   4.255 -0.0221  0.4483  0.8630
  449MOL0     C60537   9.462   6.722   4.135 -0.6274 -0.0179  0.5088
  449MOL0     O60538   9.331   6.749   4.114 -0.0558 -0.0218 -0.1142
  449MOL0     C60539   9.279   6.879   4.130  0.3953 -0.1278  0.9487
  449MOL0     C60540   9.131   6.870   4.130  0.4662 -0.2920 -0.0442
  449MOL0     C60541   9.067   6.823   3.998 -0.1809  0.1733 -0.7490
  449MOL0     C60542   8.924   6.758   4.018 -0.4801  0.0397  0.7383
  449MOL0     C60543   8.832   6.861   4.062 -0.5346  0.0364 -0.1041
  449MOL0     C60544   8.750   6.936   4.106 -0.2825  0.1851  0.4022
  449MOL0     C60545   9.553   6.753   4.036 -0.1419  0.6620 -0.3372
  449MOL0     C60546   9.690   6.730   4.053 -0.6780  0.2198 -0.4827
  449MOL0     C60547   9.787   6.744   3.943  0.3878 -0.0278 -0.3985
  449MOL0     H60548  10.094   6.575   4.372 -0.1924 -1.4509 -0.5373
  449MOL0     H60549  10.346   6.608   4.397  1.4761 -0.8274 -0.5743
  449MOL0     H60550  10.584   6.743   4.014  0.5306 -1.3481 -1.3137
  449MOL0     H60551  10.570   6.864   4.140  0.4095 -1.4811  0.3817
  449MOL0     H60552  10.755   6.615   4.148 -2.0307 -0.6028 -0.0705
  449MOL0     H60553  10.749   6.738   4.266 -0.0729  1.0442 -0.8135
  449MOL0     H60554  10.853   6.794   3.995  0.6017  0.3468  0.4717
  449MOL0     H60555  10.947   6.754   4.127  1.1300 -0.5343 -1.5838
  449MOL0     H60556  10.759   6.988   4.056  2.4744  3.1674 -2.1960
  449MOL0     H60557  10.813   6.975   4.225 -1.5630  1.1870 -1.2256
  449MOL0     H60558  10.957   7.126   4.132 -0.8794 -0.4634  1.3192
  449MOL0     H60559  11.053   6.985   4.122 -0.0249  0.3097 -1.0983
  449MOL0     H60560  10.977   6.967   3.875  0.2354  0.8130 -1.8101
  449MOL0     H60561  10.880   7.104   3.883  0.6187  1.7127 -2.8804
  449MOL0     H60562  11.181   7.121   3.943 -0.0722 -0.1834  1.9885
  449MOL0     H60563  11.068   7.254   3.937 -1.8583 -1.5156  1.7871
  449MOL0     H60564  11.102   7.085   3.680 -1.7623 -0.8313  2.2667
  449MOL0     H60565  11.025   7.238   3.701 -0.8797 -0.5361  1.2245
  449MOL0     H60566  11.273   7.383   3.875  1.5502 -0.7419  1.7317
  449MOL0     H60567  11.536   7.450   3.858 -0.0062 -0.1724 -0.2124
  449MOL0     H60568  11.622   7.356   3.721  0.4254 -0.3056 -0.9755
  449MOL0     H60569  11.450   7.598   3.672  0.2378  0.7473  3.7767
  449MOL0     H60570  11.609   7.628   3.730 -2.8955  3.4771 -1.9664
  449MOL0     H60571  11.573   7.656   3.499 -0.9372  0.6811  0.0055
  449MOL0     H60572  11.517   7.489   3.469  0.9136  0.4659 -0.3534
  449MOL0     H60573  11.737   7.501   3.389  3.3028  0.0499 -1.1214
  449MOL0     H60574  11.735   7.393   3.530  1.3084  0.2968  0.4433
  449MOL0     H60575  11.943   7.382   3.392 -0.5651  1.0666 -2.0140
  449MOL0     H60576  12.180   7.370   3.335 -0.3000 -2.9309  2.9172
  449MOL0     H60577  12.665   7.512   3.596  1.3864  0.4403  1.7020
  449MOL0     H60578  12.888   7.511   3.532 -1.2082 -4.3697 -1.6268
  449MOL0     H60579  13.106   7.512   3.462 -1.2903 -0.7292  0.4490
  449MOL0     H60580  13.042   7.441   3.331 -0.6907 -0.4227 -0.9017
  449MOL0     H60581  13.276   7.466   3.273  0.0648 -0.2605  0.5871
  449MOL0     H60582  13.183   7.591   3.178 -2.3270  1.1369  1.3389
  449MOL0     H60583  13.267   7.763   3.350  2.5241  0.8026 -0.6463
  449MOL0     H60584  13.354   7.643   3.428  0.1671 -1.0398 -0.2976
  449MOL0     H60585  13.488   7.620   3.224 -1.7647 -0.7045 -0.8286
  449MOL0     H60586  13.490   7.791   3.280  1.1778 -1.6567  2.1882
  449MOL0     H60587  13.343   7.661   3.049  1.1913 -0.9453  0.1487
  449MOL0     H60588  13.465   7.795   3.033 -0.5827  2.5862  1.2426
  449MOL0     H60589  13.185   7.831   3.154  1.2763 -0.5303 -0.5571
  449MOL0     H60590  13.300   7.954   3.122 -3.1230  1.0770  1.0820
  449MOL0     H60591  13.208   7.781   2.890  2.1435  0.6898  0.0499
  449MOL0     H60592  13.312   7.923   2.887 -0.3309  1.1790  0.4607
  449MOL0     H60593  13.042   7.933   3.012  0.3065  1.5426  0.6052
  449MOL0     H60594  13.145   8.070   2.959  0.4791 -0.5675 -1.2472
  449MOL0     H60595  12.809   7.725   3.173 -0.0498  1.0472  0.0844
  449MOL0     H60596  12.566   7.746   3.242 -0.2463  2.4588  0.5456
  449MOL0     H60597  12.255   7.720   3.575 -0.2403 -0.1496 -0.1136
  449MOL0     H60598  12.009   7.743   3.617 -1.4170 -0.3374 -1.1371
  449MOL0     H60599  10.351   6.762   3.991 -0.9137 -0.0890 -1.3608
  449MOL0     H60600  10.106   6.762   3.992  2.4151 -1.0356 -1.7789
  449MOL0     H60601   9.659   6.624   4.388 -0.1581 -0.2483  0.1745
  449MOL0     H60602   9.423   6.659   4.330  0.6989 -0.9991  1.3769
  449MOL0     H60603   9.307   6.943   4.046  2.1116 -0.9157  0.8710
  449MOL0     H60604   9.307   6.930   4.223 -0.5446 -1.3942  1.9710
  449MOL0     H60605   9.098   6.970   4.159  2.6677  1.2935 -2.6002
  449MOL0     H60606   9.100   6.808   4.215 -0.4309 -0.2745 -0.3467
  449MOL0     H60607   9.137   6.753   3.951 -1.4727 -2.7955  1.4036
  449MOL0     H60608   9.049   6.908   3.932  2.2519 -0.4750 -2.4306
  449MOL0     H60609   8.878   6.713   3.929 -1.8931 -1.9011  2.3388
  449MOL0     H60610   8.924   6.676   4.091 -2.1769 -0.0217  0.7189
  449MOL0     H60611   8.688   7.010   4.151  0.3593 -0.1528  1.9053
  449MOL0     H60612   9.515   6.775   3.937 -0.1151 -0.2954 -0.5742
  449MOL0     H60613   9.746   6.790   3.853  1.5042  1.6830 -0.0740
  449MOL0     H60614   9.878   6.795   3.975  0.5994 -0.7744  0.2497
  449MOL0     H60615   9.827   6.644   3.923  1.2819 -0.0185  1.1331
  450MOL0     O60616   7.123   2.767   0.691 -1.3467 -0.5061  1.1322
  450MOL0     C60617   7.020   2.830   0.648  0.4937 -0.0153  0.5867
  450MOL0     O60618   7.012   2.931   0.559 -0.1736  0.3953  0.4109
  450MOL0     C60619   7.130   3.001   0.534 -0.2361 -0.5787 -0.7755
  450MOL0     C60620   7.148   3.058   0.410  1.2364 -0.8923 -0.1001
  450MOL0     C60621   7.255   3.136   0.380  0.1676 -0.8600 -0.4804
  450MOL0     C60622   7.349   3.153   0.480  0.3826  0.1192 -0.2786
  450MOL0     O60623   7.466   3.223   0.461  0.1230  1.1610 -0.6446
  450MOL0     C60624   7.584   3.142   0.455 -0.3926  0.2326  0.9116
  450MOL0     C60625   7.612   3.110   0.311 -0.4439  0.1740  0.4588
  450MOL0     C60626   7.649   3.232   0.227  0.2127 -0.1038 -0.8157
  450MOL0     C60627   7.683   3.182   0.091 -0.2995  0.5258 -0.1164
  450MOL0     C60628   7.734   3.297   0.008  0.2371 -1.2922 -0.1633
  450MOL0     C60629   7.625   3.378  -0.066 -0.2636  0.2379  0.2721
  450MOL0     C60630   7.679   3.473  -0.174 -0.1795  0.8144  0.4172
  450MOL0     C60631   7.565   3.542  -0.243  0.5080  0.0608 -0.1213
  450MOL0     N60632   7.603   3.617  -0.358  0.3618  1.1388  0.8331
  450MOL0     C60633   7.713   3.695  -0.371 -0.1882  0.2636 -0.4203
  450MOL0     C60634   7.689   3.759  -0.490  0.5142  0.2393  0.4380
  450MOL0     C60635   7.781   3.854  -0.555  0.2028 -0.1111  0.2277
  450MOL0     C60636   7.831   3.812  -0.692 -0.7868 -0.7526 -0.0162
  450MOL0     C60637   7.904   3.925  -0.769  0.2484  0.4037  0.0015
  450MOL0     C60638   8.047   3.951  -0.728  0.0645  0.3351  0.9069
  450MOL0     O60639   8.136   3.853  -0.776 -0.1333  0.1832  0.1502
  450MOL0     C60640   8.264   3.853  -0.735 -0.3607  0.0288 -0.3647
  450MOL0     C60641   8.335   3.734  -0.712  1.0128  1.0377 -1.2459
  450MOL0     C60642   8.473   3.747  -0.682  0.5386  0.1796  0.5758
  450MOL0     C60643   8.540   3.860  -0.709 -0.7223 -0.4893  0.6058
  450MOL0     C60644   8.685   3.870  -0.704  0.0904  1.6076  0.4813
  450MOL0     O60645   8.742   3.992  -0.686  0.1740  0.1887  0.8114
  450MOL0     C60646   8.883   4.017  -0.662 -0.0137 -0.0259 -0.1647
  450MOL0     C60647   8.917   4.144  -0.612 -1.1643 -0.7920 -0.6275
  450MOL0     C60648   9.048   4.178  -0.553  0.1495  0.4452  0.4439
  450MOL0     C60649   9.158   4.089  -0.568 -0.5902  1.4040  0.1731
  450MOL0     O60650   9.284   4.121  -0.535  0.3936 -0.3199 -0.1194
  450MOL0     C60651   9.353   4.037  -0.442  0.1963  0.2913  0.3675
  450MOL0     C60652   9.470   4.121  -0.392 -0.9648 -0.3441  0.6865
  450MOL0     C60653   9.558   4.041  -0.304  0.0302  0.7811 -0.3892
  450MOL0     C60654   9.679   4.128  -0.257 -0.9912  0.3151 -0.1283
  450MOL0     C60655   9.771   4.067  -0.156 -0.0054  0.5792 -0.1526
  450MOL0     C60656   9.820   3.934  -0.194  0.4800 -0.7416  0.0390
  450MOL0     C60657   9.949   3.901  -0.113 -0.4036 -0.7465  0.4466
  450MOL0     C60658   9.927   3.910   0.038  0.5788 -0.3629 -0.0266
  450MOL0    Cl60659  10.065   3.857   0.119  0.0016  0.1071  0.1920
  450MOL0     C60660   9.119   3.963  -0.636 -0.3620 -0.8832 -0.5397
  450MOL0     C60661   8.991   3.931  -0.676  0.3373 -0.3587 -0.5934
  450MOL0     O60662   8.743   3.761  -0.696  0.6588 -0.6574 -0.1062
  450MOL0     C60663   8.468   3.984  -0.737 -0.6261  0.2782 -0.9317
  450MOL0     C60664   8.335   3.978  -0.746  0.3536  0.1770 -0.5826
  450MOL0     N60665   7.559   3.731  -0.528  0.5855 -1.1500  0.4300
  450MOL0     N60666   7.506   3.651  -0.448  0.2005  0.0206 -0.6649
  450MOL0     C60667   7.328   3.101   0.606 -0.2136  0.2241  0.2970
  450MOL0     C60668   7.211   3.038   0.635 -0.3158  0.1384 -0.3406
  450MOL0     C60669   6.887   2.775   0.693  0.3353  0.2274  0.3509
  450MOL0     C60670   6.782   2.751   0.590 -0.1526 -0.1929 -0.5995
  450MOL0     C60671   6.659   2.699   0.644 -0.7911  0.2181  0.3766
  450MOL0     C60672   6.640   2.687   0.785 -0.4816  0.0040  0.0515
  450MOL0     O60673   6.527   2.647   0.852  0.6171  0.4377  0.3634
  450MOL0     C60674   6.408   2.597   0.781 -0.7945  0.8981 -0.1353
  450MOL0     C60675   6.335   2.729   0.741 -0.4719  0.1611  0.1823
  450MOL0     C60676   6.198   2.693   0.676  0.2528  0.3562  0.1481
  450MOL0     C60677   6.119   2.820   0.692 -0.2338 -0.1333  0.4386
  450MOL0     C60678   6.001   2.796   0.620  0.8925 -0.2016  0.0387
  450MOL0     C60679   5.898   2.768   0.556  0.0260  0.7541 -0.3283
  450MOL0     C60680   6.739   2.716   0.875 -0.8571  0.0663  0.1142
  450MOL0     C60681   6.865   2.765   0.833  0.3135  0.3382  0.3018
  450MOL0     C60682   6.963   2.790   0.940  0.4324  0.8280 -0.0690
  450MOL0     H60683   7.081   3.030   0.330 -0.9747  1.8046  0.6347
  450MOL0     H60684   7.266   3.188   0.286  4.1985  0.3597  0.4368
  450MOL0     H60685   7.670   3.194   0.498  0.0264  0.6760 -0.4136
  450MOL0     H60686   7.567   3.045   0.504  1.3859  1.4052  4.2365
  450MOL0     H60687   7.526   3.053   0.275 -1.3806  0.3053  2.3341
  450MOL0     H60688   7.695   3.040   0.325 -0.9853 -0.6289 -0.2798
  450MOL0     H60689   7.740   3.278   0.267  0.4867 -0.6033 -0.8503
  450MOL0     H60690   7.565   3.301   0.216  1.0096  0.5470 -3.5853
  450MOL0     H60691   7.756   3.102   0.108 -1.2525 -0.4025 -0.2780
  450MOL0     H60692   7.594   3.130   0.054 -1.3361  0.8742  1.7566
  450MOL0     H60693   7.800   3.368   0.057  0.3118 -0.6069 -1.2239
  450MOL0     H60694   7.795   3.256  -0.073 -1.4406 -1.3945 -1.4350
  450MOL0     H60695   7.551   3.310  -0.108 -1.3205  0.4393  1.7166
  450MOL0     H60696   7.576   3.438   0.011  0.4234  0.5206  0.4950
  450MOL0     H60697   7.737   3.413  -0.245  0.5869  0.2449  1.5079
  450MOL0     H60698   7.744   3.543  -0.122  1.5809  0.6651 -1.4777
  450MOL0     H60699   7.488   3.474  -0.281 -0.6812  1.0839  0.3803
  450MOL0     H60700   7.516   3.612  -0.175 -0.7872  0.1436 -1.1123
  450MOL0     H60701   7.807   3.702  -0.318  1.5058  1.2299 -3.3535
  450MOL0     H60702   7.727   3.949  -0.563 -1.0985 -0.7027  1.5298
  450MOL0     H60703   7.867   3.878  -0.492  2.4469  0.9264 -3.0180
  450MOL0     H60704   7.905   3.734  -0.670 -1.1150 -1.1736 -0.3923
  450MOL0     H60705   7.750   3.771  -0.753 -0.1899 -0.0078 -1.3397
  450MOL0     H60706   7.843   4.016  -0.764 -0.9003 -0.3664  0.5185
  450MOL0     H60707   7.895   3.900  -0.875 -3.0611  0.8726  0.0590
  450MOL0     H60708   8.059   3.971  -0.622  1.7809  1.5330  0.5123
  450MOL0     H60709   8.078   4.042  -0.780  1.8201  1.2535  3.4263
  450MOL0     H60710   8.282   3.640  -0.710  1.3309  0.8560 -1.2581
  450MOL0     H60711   8.514   3.651  -0.654 -0.5588 -0.6394 -0.5647
  450MOL0     H60712   8.840   4.219  -0.605  1.5238  2.0713  0.9960
  450MOL0     H60713   9.086   4.268  -0.505  1.1042  0.0423  0.4758
  450MOL0     H60714   9.297   4.008  -0.353  1.5973  0.1615  1.2401
  450MOL0     H60715   9.399   3.950  -0.489  0.8941  1.2936 -0.8816
  450MOL0     H60716   9.538   4.157  -0.469  0.6580  1.7020  2.9406
  450MOL0     H60717   9.444   4.216  -0.345  1.0002  0.3788  0.4050
  450MOL0     H60718   9.512   3.985  -0.222  0.3838  0.0127 -0.7036
  450MOL0     H60719   9.606   3.963  -0.365 -1.5806 -0.4498 -0.1547
  450MOL0     H60720   9.637   4.216  -0.207  0.5299  1.5632 -0.9685
  450MOL0     H60721   9.737   4.160  -0.344 -0.1063 -5.1077 -1.9161
  450MOL0     H60722   9.716   4.055  -0.063  2.1029 -1.9437  0.9165
  450MOL0     H60723   9.859   4.132  -0.150  0.9961 -0.4417 -2.3713
  450MOL0     H60724   9.745   3.858  -0.172  0.6271 -0.8752  0.0812
  450MOL0     H60725   9.848   3.927  -0.300  0.4636 -1.8381  0.1010
  450MOL0     H60726  10.031   3.960  -0.155  2.3121 -4.6704 -0.2922
  450MOL0     H60727   9.976   3.797  -0.136 -0.4145 -0.5583 -0.4603
  450MOL0     H60728   9.914   4.017   0.057  2.3448 -0.3004  1.0133
  450MOL0     H60729   9.834   3.861   0.069 -0.4170  1.4584  0.0060
  450MOL0     H60730   9.209   3.906  -0.655  1.3598  1.2150  0.7546
  450MOL0     H60731   8.976   3.838  -0.729  0.8458  0.5104 -2.3294
  450MOL0     H60732   8.523   4.078  -0.729  1.7664 -1.1549  1.1733
  450MOL0     H60733   8.280   4.072  -0.750  0.7914  0.4538 -0.1863
  450MOL0     H60734   7.395   3.125   0.688 -0.8706  0.0054  0.9005
  450MOL0     H60735   7.194   2.998   0.734  0.2451 -1.8281 -1.0097
  450MOL0     H60736   6.796   2.761   0.483  0.7791  0.5757 -0.4215
  450MOL0     H60737   6.582   2.704   0.568  0.2643 -0.1127 -0.7516
  450MOL0     H60738   6.349   2.537   0.850  0.0903 -1.6034 -1.3981
  450MOL0     H60739   6.437   2.536   0.694 -3.7146  1.8272 -1.8961
  450MOL0     H60740   6.398   2.784   0.670 -0.8774  0.3813 -0.0085
  450MOL0     H60741   6.312   2.791   0.829 -0.9891  3.5451 -2.1467
  450MOL0     H60742   6.139   2.608   0.712  0.5674 -0.6323 -1.5601
  450MOL0     H60743   6.219   2.661   0.574  1.3845 -3.2943  1.3692
  450MOL0     H60744   6.102   2.842   0.797  0.4885 -1.2973  0.8185
  450MOL0     H60745   6.171   2.905   0.647 -0.0905 -0.5185 -0.1401
  450MOL0     H60746   5.804   2.756   0.506  0.0291 -0.9040  0.0078
  450MOL0     H60747   6.717   2.698   0.980 -1.0659 -2.5050 -0.3047
  450MOL0     H60748   7.055   2.836   0.905  0.3100  2.3781  1.4978
  450MOL0     H60749   6.910   2.858   1.009 -0.6458  0.3575 -0.4071
  450MOL0     H60750   6.980   2.695   0.992  1.7622  0.2850 -1.4514
  451MOL0     O60751   1.435   9.704   8.453  0.3357  0.1315  0.2749
  451MOL0     C60752   1.423   9.815   8.508 -0.4337  0.0938  0.3432
  451MOL0     O60753   1.312   9.898   8.496  0.0625  0.9649  0.1747
  451MOL0     C60754   1.210   9.857   8.413  0.3799  0.0870 -0.3566
  451MOL0     C60755   1.205   9.890   8.285  0.5132 -0.8194  0.8288
  451MOL0     C60756   1.112   9.835   8.197  0.4575  0.5475  0.5609
  451MOL0     C60757   1.007   9.761   8.254  0.2167 -0.9725 -0.6316
  451MOL0     O60758   0.894   9.722   8.195  0.2957 -0.0571 -0.0922
  451MOL0     C60759   0.887   9.740   8.056  0.7161 -0.0940 -0.0589
  451MOL0     C60760   0.770   9.661   7.997  0.6578  0.5298 -0.5485
  451MOL0     C60761   0.747   9.711   7.855  0.5897  0.2105 -0.6157
  451MOL0     C60762   0.631   9.635   7.788  0.4232 -0.7526 -0.2212
  451MOL0     C60763   0.593   9.705   7.663 -0.2550 -0.6305 -0.5613
  451MOL0     C60764   0.529   9.616   7.550 -0.0801 -0.1216 -0.8144
  451MOL0     C60765   0.407   9.530   7.607  0.2351 -0.2200 -0.1509
  451MOL0     C60766   0.281   9.625   7.631  0.6957  0.3656 -0.8471
  451MOL0     N60767   0.289   9.682   7.766 -0.4295  0.7941  0.2482
  451MOL0     C60768   0.293   9.817   7.799  0.2207 -0.5912 -0.0294
  451MOL0     C60769   0.300   9.803   7.938 -0.1656 -0.2689 -0.1319
  451MOL0     C60770   0.303   9.923   8.031  0.8063  0.4700  0.3767
  451MOL0     C60771   0.436   9.895   8.114 -0.1357 -0.3241  0.1507
  451MOL0     C60772   0.450   9.997   8.219  0.0420 -0.2562 -1.2138
  451MOL0     C60773   0.598  10.042   8.244 -0.1330  0.1291  0.1841
  451MOL0     O60774   0.597  10.125   8.352  0.1449  0.0204 -0.2622
  451MOL0     C60775   0.709  10.146   8.427  0.2693 -0.4629 -0.4567
  451MOL0     C60776   0.826  10.089   8.414 -0.5242  0.9051 -1.1495
  451MOL0     C60777   0.931  10.122   8.503 -0.4795 -1.3800 -0.0058
  451MOL0     C60778   0.914  10.211   8.606 -0.2049  0.6788 -1.2296
  451MOL0     C60779   1.025  10.239   8.704  0.2263  0.9996 -0.5294
  451MOL0     O60780   1.015  10.357   8.771 -0.6910  0.3584  0.1961
  451MOL0     C60781   1.105  10.405   8.859 -0.5781  0.0054 -0.2012
  451MOL0     C60782   1.232  10.431   8.816  0.4021 -0.1316  0.8504
  451MOL0     C60783   1.329  10.471   8.910 -0.2140  0.2162  1.1960
  451MOL0     C60784   1.301  10.482   9.048  0.1661  0.1298  0.9509
  451MOL0     O60785   1.400  10.529   9.125  0.3207 -0.4762 -0.2731
  451MOL0     C60786   1.377  10.548   9.268 -0.1142  0.3549  0.3732
  451MOL0     C60787   1.501  10.597   9.334  0.2771  0.5656 -0.0837
  451MOL0     C60788   1.624  10.506   9.322  0.3265 -1.3017  0.6557
  451MOL0     C60789   1.732  10.562   9.408 -0.1140 -0.2027 -1.4440
  451MOL0     C60790   1.859  10.482   9.373 -0.9219  0.2962  0.2276
  451MOL0     C60791   1.957  10.487   9.487 -0.3471  0.3237 -0.3349
  451MOL0     C60792   2.084  10.394   9.463  0.8971 -0.2447 -0.2934
  451MOL0     C60793   2.191  10.410   9.564 -0.2866 -0.6737 -0.2316
  451MOL0    Cl60794   2.261  10.571   9.556 -0.1346 -0.4282 -0.2366
  451MOL0     C60795   1.174  10.460   9.091  0.2358  0.8233 -0.4713
  451MOL0     C60796   1.071  10.426   8.995 -0.1354 -1.3646  0.1551
  451MOL0     O60797   1.117  10.160   8.707  0.0575 -0.6903  0.0956
  451MOL0     C60798   0.790  10.266   8.624  0.0949  0.0996  0.4974
  451MOL0     C60799   0.688  10.230   8.532 -0.3966 -0.1970  0.2340
  451MOL0     N60800   0.300   9.673   7.980 -0.1236 -0.2070 -0.1662
  451MOL0     N60801   0.288   9.599   7.882  0.1612  0.4802  0.1783
  451MOL0     C60802   1.018   9.720   8.386 -0.1159  0.0725 -0.7593
  451MOL0     C60803   1.125   9.758   8.464  0.3729 -0.0949 -0.7470
  451MOL0     C60804   1.535   9.878   8.579 -0.2063 -0.6366  0.6315
  451MOL0     C60805   1.663   9.818   8.563  0.7567 -0.5207  0.0831
  451MOL0     C60806   1.771   9.874   8.633  0.1674  0.7959  0.2786
  451MOL0     C60807   1.760   9.985   8.722  0.3035  0.6217  0.5406
  451MOL0     O60808   1.860  10.036   8.795  0.5099 -0.0926 -0.3514
  451MOL0     C60809   1.990   9.999   8.783  0.7084 -0.2564  0.0681
  451MOL0     C60810   2.056  10.059   8.658  0.5038 -0.0731 -0.0068
  451MOL0     C60811   2.031  10.207   8.639  0.2598 -0.1741  0.5849
  451MOL0     C60812   2.096  10.269   8.514 -0.0705  0.3307 -0.5077
  451MOL0     C60813   2.020  10.228   8.395 -0.0237 -0.6323 -1.0774
  451MOL0     C60814   1.963  10.209   8.298  0.3227 -0.2988  0.3877
  451MOL0     C60815   1.640  10.040   8.734  0.2894  0.0248 -0.1657
  451MOL0     C60816   1.523   9.988   8.668  0.2939 -0.1975 -0.2299
  451MOL0     C60817   1.395  10.064   8.703  0.4759 -0.3551 -0.6673
  451MOL0     H60818   1.268   9.965   8.239  0.3619 -0.8069  0.6444
  451MOL0     H60819   1.129   9.874   8.098  2.1367  0.5655  0.8135
  451MOL0     H60820   0.864   9.846   8.046 -2.1573 -0.6698 -0.5088
  451MOL0     H60821   0.977   9.698   8.011  2.5700  1.7674  1.6602
  451MOL0     H60822   0.685   9.677   8.064  2.6048  3.4516  1.4579
  451MOL0     H60823   0.781   9.552   8.009 -1.4698  0.5400  3.4932
  451MOL0     H60824   0.838   9.696   7.796  1.3743 -2.4084  1.0887
  451MOL0     H60825   0.730   9.819   7.862 -1.7948 -0.1213 -0.5148
  451MOL0     H60826   0.665   9.533   7.764  1.7153  0.0635 -2.1454
  451MOL0     H60827   0.543   9.629   7.852  0.3764 -1.5735 -0.3457
  451MOL0     H60828   0.528   9.789   7.690  0.9788  0.9572 -2.2382
  451MOL0     H60829   0.684   9.749   7.620 -0.1556  2.1170  2.0905
  451MOL0     H60830   0.505   9.682   7.466 -1.1941  3.4852  2.0389
  451MOL0     H60831   0.598   9.545   7.505 -0.7363 -0.7526 -0.8522
  451MOL0     H60832   0.430   9.485   7.704  0.3554  2.4787  1.1768
  451MOL0     H60833   0.386   9.445   7.541  1.7942 -2.6339  2.2910
  451MOL0     H60834   0.290   9.709   7.561  1.1215  1.8973  0.9286
  451MOL0     H60835   0.182   9.579   7.626  1.4881 -1.4301 -0.7830
  451MOL0     H60836   0.273   9.901   7.734 -3.6024 -0.6703  0.8416
  451MOL0     H60837   0.280  10.019   7.986 -0.9838 -0.8200 -1.6774
  451MOL0     H60838   0.217   9.892   8.093  0.7855  0.1999  0.2133
  451MOL0     H60839   0.421   9.796   8.157 -0.9156 -1.2671 -2.1241
  451MOL0     H60840   0.521   9.907   8.047  0.2280  0.6860  0.7751
  451MOL0     H60841   0.403   9.973   8.314  1.3640  1.4793 -0.0450
  451MOL0     H60842   0.386  10.081   8.188 -1.0737 -1.3899 -2.0648
  451MOL0     H60843   0.641  10.089   8.155 -0.5858  1.1467  0.4879
  451MOL0     H60844   0.642   9.947   8.273 -2.5503 -0.3360  2.7641
  451MOL0     H60845   0.849  10.030   8.325  2.1726 -3.1115  1.8139
  451MOL0     H60846   1.030  10.083   8.481 -0.3710 -1.1513  0.0767
  451MOL0     H60847   1.255  10.409   8.712  3.2716 -1.4166  1.6837
  451MOL0     H60848   1.425  10.506   8.873 -0.6453 -0.2113 -0.4347
  451MOL0     H60849   1.299  10.623   9.284  2.1332  3.1622 -0.7873
  451MOL0     H60850   1.345  10.454   9.313 -0.8913  0.3275 -0.2222
  451MOL0     H60851   1.521  10.696   9.293  1.7225 -0.5059 -2.1028
  451MOL0     H60852   1.473  10.612   9.439  0.0614  4.0309 -0.5092
  451MOL0     H60853   1.610  10.400   9.344  0.5923 -0.6958  4.2265
  451MOL0     H60854   1.649  10.523   9.216 -0.5178  1.6893  0.8437
  451MOL0     H60855   1.699  10.548   9.512 -0.0554 -1.0174 -1.5296
  451MOL0     H60856   1.742  10.668   9.385 -0.2875 -0.2731 -1.8466
  451MOL0     H60857   1.913  10.518   9.285  0.7483 -0.4523  0.9038
  451MOL0     H60858   1.835  10.381   9.340  2.1127 -0.7173  0.8389
  451MOL0     H60859   1.992  10.590   9.491 -2.5589  1.2776 -2.7666
  451MOL0     H60860   1.908  10.461   9.581 -0.0653 -0.7501 -0.4669
  451MOL0     H60861   2.137  10.409   9.368  2.3393  0.4585  0.5810
  451MOL0     H60862   2.065  10.286   9.466  2.9623 -0.6365  0.7355
  451MOL0     H60863   2.148  10.390   9.662  0.5566  0.7231  0.4387
  451MOL0     H60864   2.272  10.337   9.555  1.3185  1.0659 -0.4696
  451MOL0     H60865   1.140  10.474   9.194 -0.3639 -1.8404 -0.2196
  451MOL0     H60866   0.965  10.411   9.008 -0.0537 -0.2855  2.6033
  451MOL0     H60867   0.769  10.341   8.699 -0.6586  0.4808 -0.0948
  451MOL0     H60868   0.590  10.277   8.536 -1.1074 -1.7370  1.5620
  451MOL0     H60869   0.951   9.643   8.422  1.6924  0.3614  3.9412
  451MOL0     H60870   1.141   9.717   8.564 -0.3080 -0.3015 -0.7138
  451MOL0     H60871   1.680   9.732   8.499 -0.3706 -0.5120 -0.2411
  451MOL0     H60872   1.870   9.842   8.599  0.3473  2.2024 -0.6193
  451MOL0     H60873   2.006   9.891   8.785  2.3580 -0.0335  0.5517
  451MOL0     H60874   2.036  10.034   8.877  0.5672  0.4825 -0.1302
  451MOL0     H60875   2.008  10.011   8.572  0.5291 -2.0791  1.0399
  451MOL0     H60876   2.163  10.035   8.659  1.1956  2.4707 -2.0069
  451MOL0     H60877   2.088  10.260   8.716 -0.5142  1.7349 -0.0843
  451MOL0     H60878   1.923  10.226   8.645  0.2590 -0.1987  0.6460
  451MOL0     H60879   2.089  10.377   8.527 -0.2193  0.1105  1.5556
  451MOL0     H60880   2.202  10.241   8.509 -0.0889  0.3084 -0.7833
  451MOL0     H60881   1.911  10.192   8.205 -0.6274 -2.0971  1.1976
  451MOL0     H60882   1.629  10.139   8.778  1.3373 -0.4054  1.1103
  451MOL0     H60883   1.394  10.134   8.787  0.7996  0.4229 -1.3004
  451MOL0     H60884   1.357  10.116   8.614 -1.7034 -0.3434  0.1919
  451MOL0     H60885   1.323   9.987   8.731  0.4711 -0.1020  0.0527
  452MOL0     O60886  10.297   7.604   9.861 -0.9225 -0.1567 -0.5684
  452MOL0     C60887  10.347   7.514   9.792  0.7673 -0.6341  0.4498
  452MOL0     O60888  10.270   7.413   9.738  0.0480  0.3161 -0.7987
  452MOL0     C60889  10.141   7.395   9.791  0.0657 -0.6413  0.5015
  452MOL0     C60890  10.040   7.493   9.760  0.0565 -0.7183 -0.2727
  452MOL0     C60891   9.912   7.483   9.810 -0.6660 -0.4497  0.4254
  452MOL0     C60892   9.872   7.368   9.879 -0.5214  0.1619 -0.3015
  452MOL0     O60893   9.752   7.338   9.931 -0.4832  0.3101 -0.5439
  452MOL0     C60894   9.632   7.405   9.874 -0.5255  0.8349 -0.6466
  452MOL0     C60895   9.609   7.369   9.727  0.2796 -0.2476  0.2230
  452MOL0     C60896   9.487   7.441   9.660 -0.1034  0.5632 -0.7850
  452MOL0     C60897   9.523   7.581   9.607 -0.3026  0.1974 -0.0170
  452MOL0     C60898   9.409   7.667   9.566 -0.6101 -0.6849  0.2764
  452MOL0     C60899   9.328   7.593   9.460  0.4843 -1.1054 -0.1876
  452MOL0     C60900   9.248   7.692   9.368  1.1946 -0.2320 -1.1722
  452MOL0     C60901   9.140   7.624   9.293  0.1518  0.1767  0.6586
  452MOL0     N60902   9.187   7.514   9.211  0.4454  0.1759 -1.2736
  452MOL0     C60903   9.274   7.523   9.110  0.2388  0.1755  0.7980
  452MOL0     C60904   9.268   7.404   9.044  0.3878 -0.6555 -0.2272
  452MOL0     C60905   9.324   7.347   8.914 -0.4493  0.2891  0.5254
  452MOL0     C60906   9.475   7.303   8.939 -0.4018  0.7985  0.0474
  452MOL0     C60907   9.586   7.368   8.853  0.1478  0.4305  0.1620
  452MOL0     C60908   9.724   7.300   8.878 -0.4409 -0.2596  0.1405
  452MOL0     O60909   9.819   7.398   8.842  0.3603  0.4218 -0.6291
  452MOL0     C60910   9.956   7.355   8.827  0.7383 -0.7125  0.0639
  452MOL0     C60911  10.055   7.444   8.787  0.8875 -0.1127 -0.4543
  452MOL0     C60912  10.185   7.410   8.778 -0.4131 -0.3085  0.1595
  452MOL0     C60913  10.228   7.286   8.819  0.3537  0.0628  0.6943
  452MOL0     C60914  10.381   7.237   8.818  0.6894 -1.1425 -0.4683
  452MOL0     O60915  10.467   7.323   8.755  0.1457 -0.2422 -0.6136
  452MOL0     C60916  10.598   7.279   8.766  0.7711 -1.1301  0.5071
  452MOL0     C60917  10.677   7.309   8.877  0.2997  0.2539 -0.4483
  452MOL0     C60918  10.807   7.259   8.887  0.7575  1.0554 -0.4427
  452MOL0     C60919  10.858   7.176   8.782  1.0484 -0.4119  0.2076
  452MOL0     O60920  10.979   7.114   8.791  0.7097  0.2636  0.4954
  452MOL0     C60921  10.989   7.024   8.907  0.2256 -0.3818 -0.4210
  452MOL0     C60922  11.118   6.945   8.910  0.2782  0.2356 -0.0392
  452MOL0     C60923  11.247   7.032   8.907 -0.0772 -0.0704  0.5083
  452MOL0     C60924  11.348   6.960   8.817 -0.2180 -0.9017 -0.1743
  452MOL0     C60925  11.476   7.036   8.798  0.3662 -0.2265 -0.6138
  452MOL0     C60926  11.559   7.049   8.926  0.7619 -0.4139 -0.0953
  452MOL0     C60927  11.701   7.092   8.886 -0.3273  0.1633  0.0606
  452MOL0     C60928  11.804   7.046   8.985  0.5547  0.3940 -0.2876
  452MOL0    Cl60929  11.977   7.065   8.922  0.1421 -0.2420  0.2065
  452MOL0     C60930  10.785   7.150   8.671 -0.2210  0.1458 -0.7953
  452MOL0     C60931  10.656   7.209   8.657  0.1145  0.2377  0.0600
  452MOL0     O60932  10.404   7.129   8.865  0.6670  0.8563 -0.4066
  452MOL0     C60933  10.136   7.190   8.855 -0.2550  0.0855  0.0532
  452MOL0     C60934  10.001   7.227   8.858  0.7095  0.7855 -0.3678
  452MOL0     N60935   9.169   7.326   9.103  0.5709  0.7173 -0.3851
  452MOL0     N60936   9.136   7.389   9.214  0.3250  0.4987  0.2613
  452MOL0     C60937   9.969   7.267   9.903 -0.7112  0.1980 -0.6071
  452MOL0     C60938  10.103   7.280   9.860  0.8216 -1.4036  0.2785
  452MOL0     C60939  10.496   7.506   9.759 -1.3058  0.5385 -0.0075
  452MOL0     C60940  10.530   7.435   9.650  0.2984 -0.6237  0.1405
  452MOL0     C60941  10.656   7.425   9.603  0.1193 -0.2655  0.1756
  452MOL0     C60942  10.760   7.491   9.662  0.9116 -0.4646 -0.3230
  452MOL0     O60943  10.893   7.480   9.628  0.0493 -0.0194  0.0573
  452MOL0     C60944  10.922   7.380   9.531 -0.6902 -0.4711  0.0010
  452MOL0     C60945  11.063   7.399   9.484  0.6058 -0.2601 -0.0117
  452MOL0     C60946  11.157   7.401   9.605 -0.6953  0.0516  0.5173
  452MOL0     C60947  11.307   7.406   9.565  0.8486 -0.0749  0.1249
  452MOL0     C60948  11.392   7.424   9.687  0.2644 -1.0927 -0.6680
  452MOL0     C60949  11.451   7.447   9.791 -0.8006 -0.5710  0.1734
  452MOL0     C60950  10.733   7.560   9.786  0.6029 -0.0386  0.1885
  452MOL0     C60951  10.599   7.574   9.834 -0.4196  0.0358  0.4064
  452MOL0     C60952  10.578   7.629   9.975  0.5933 -0.0037  0.5698
  452MOL0     H60953  10.073   7.582   9.707 -1.4229 -1.3968 -2.4705
  452MOL0     H60954   9.835   7.551   9.776 -3.4180 -2.7050  1.6693
  452MOL0     H60955   9.549   7.367   9.935 -0.1009 -1.8305 -1.5740
  452MOL0     H60956   9.639   7.513   9.889 -0.2593  0.7955 -0.4916
  452MOL0     H60957   9.587   7.263   9.743 -1.2354  0.0892  0.5274
  452MOL0     H60958   9.703   7.380   9.672  1.1280 -0.9552  1.4635
  452MOL0     H60959   9.401   7.447   9.727 -0.9228  1.4938 -1.8702
  452MOL0     H60960   9.457   7.373   9.579 -1.2218 -1.2848  1.0812
  452MOL0     H60961   9.575   7.634   9.687  2.6467 -1.1799 -0.9055
  452MOL0     H60962   9.601   7.560   9.533  0.4300 -0.8307  1.0057
  452MOL0     H60963   9.349   7.696   9.652 -1.9803  2.7946 -1.6742
  452MOL0     H60964   9.450   7.764   9.539 -0.3848 -0.9783 -0.4782
  452MOL0     H60965   9.394   7.536   9.394  0.5890 -2.8281  1.3086
  452MOL0     H60966   9.259   7.522   9.505 -2.4940  0.7058 -1.5678
  452MOL0     H60967   9.317   7.734   9.295  1.1586  3.1115  0.5555
  452MOL0     H60968   9.202   7.772   9.425  0.5065 -1.5031  0.1310
  452MOL0     H60969   9.055   7.590   9.352 -1.1748  1.2922 -0.5128
  452MOL0     H60970   9.107   7.692   9.213  0.4633  0.0960  0.4577
  452MOL0     H60971   9.346   7.603   9.091  0.5554 -0.4735 -0.8762
  452MOL0     H60972   9.267   7.262   8.875 -1.5047  0.4594  1.6280
  452MOL0     H60973   9.326   7.420   8.832  2.2136  0.6148  0.8105
  452MOL0     H60974   9.492   7.321   9.046 -1.9386 -1.2785  0.7243
  452MOL0     H60975   9.476   7.197   8.912 -2.7976  0.6995  0.1506
  452MOL0     H60976   9.569   7.475   8.865  0.5845  0.6286 -0.8663
  452MOL0     H60977   9.561   7.359   8.747  0.0354  3.0876 -0.0942
  452MOL0     H60978   9.737   7.213   8.813  0.7667 -0.6127  0.8293
  452MOL0     H60979   9.744   7.262   8.978 -1.1147  0.1456  0.4397
  452MOL0     H60980  10.022   7.532   8.734 -2.4294 -0.8514  0.1551
  452MOL0     H60981  10.261   7.484   8.757  0.6373 -1.1372  0.9163
  452MOL0     H60982  10.637   7.364   8.962 -0.2893  5.1901 -3.4952
  452MOL0     H60983  10.858   7.277   8.981 -0.3120  0.1917  0.3251
  452MOL0     H60984  10.991   7.091   8.993  1.9160  2.0666 -2.1989
  452MOL0     H60985  10.906   6.953   8.913  1.7047 -2.0545  1.9496
  452MOL0     H60986  11.129   6.876   8.994  1.5256  0.9235  0.3861
  452MOL0     H60987  11.110   6.882   8.820 -4.0049  1.1950 -0.5166
  452MOL0     H60988  11.225   7.130   8.864  3.9806 -0.0478 -2.0901
  452MOL0     H60989  11.285   7.049   9.008 -0.5889  1.6576  0.4322
  452MOL0     H60990  11.298   6.940   8.722 -0.4536 -1.2445  0.0195
  452MOL0     H60991  11.375   6.862   8.857 -1.8727 -1.4097 -0.2413
  452MOL0     H60992  11.455   7.137   8.763  3.4741  0.7435  0.0614
  452MOL0     H60993  11.544   6.984   8.730  2.1563  1.8252 -0.4816
  452MOL0     H60994  11.505   7.107   9.001  1.4686 -0.6197  0.5828
  452MOL0     H60995  11.568   6.945   8.958  0.5082 -0.6188 -0.6709
  452MOL0     H60996  11.713   7.200   8.874 -0.6783  0.2670  0.5855
  452MOL0     H60997  11.735   7.056   8.789 -0.6468  1.3610 -0.5202
  452MOL0     H60998  11.793   7.104   9.078  1.4329 -0.0404  0.1017
  452MOL0     H60999  11.794   6.941   9.011 -0.1976  0.1482 -1.5194
  452MOL0     H61000  10.832   7.079   8.604  2.1301 -0.8416  1.7285
  452MOL0     H61001  10.599   7.183   8.568  0.9974  1.9495 -1.0482
  452MOL0     H61002  10.154   7.086   8.880 -1.4189 -0.1209  0.0810
  452MOL0     H61003   9.934   7.145   8.883 -1.2492  2.8570  1.6328
  452MOL0     H61004   9.942   7.170   9.944 -0.9499  0.3898 -0.3020
  452MOL0     H61005  10.175   7.199   9.866  1.3177 -0.8855  2.0576
  452MOL0     H61006  10.460   7.378   9.590  1.5751 -3.4620  1.1834
  452MOL0     H61007  10.670   7.364   9.514  1.0288  1.1195 -0.6615
  452MOL0     H61008  10.868   7.380   9.436 -0.4600 -1.1234 -0.1323
  452MOL0     H61009  10.913   7.279   9.571 -1.6074 -0.7481 -0.8648
  452MOL0     H61010  11.073   7.496   9.434  0.6109 -0.0286  0.4369
  452MOL0     H61011  11.089   7.317   9.416 -0.4800 -1.7538  1.3156
  452MOL0     H61012  11.138   7.312   9.666 -0.8130 -0.6778 -0.5610
  452MOL0     H61013  11.132   7.487   9.668 -0.5039  0.7153 -0.2892
  452MOL0     H61014  11.331   7.311   9.516 -1.5601 -1.4620  1.4211
  452MOL0     H61015  11.319   7.496   9.504 -0.4852  1.7098  2.3431
  452MOL0     H61016  11.493   7.462   9.889 -1.3937 -0.7891  0.4625
  452MOL0     H61017  10.815   7.594   9.847 -0.0278  0.3512  0.8379
  452MOL0     H61018  10.494   7.588  10.031  0.0401 -2.1411 -1.6644
  452MOL0     H61019  10.663   7.621  10.043  1.2137  1.1532 -0.0416
  452MOL0     H61020  10.557   7.737   9.973  1.1859  0.1052 -0.0544
  453MOL0     O61021   9.012   0.075   9.558 -0.1305  0.4705 -0.3977
  453MOL0     C61022   8.926   0.055   9.473 -1.2764 -0.1310  1.2902
  453MOL0     O61023   8.961   0.020   9.348 -0.4735  0.6431  0.0513
  453MOL0     C61024   9.070  -0.065   9.339  0.2658 -0.3892 -0.3332
  453MOL0     C61025   9.038  -0.199   9.341 -0.1023  0.3411 -0.7352
  453MOL0     C61026   9.142  -0.295   9.315  1.0614  0.3538 -0.3882
  453MOL0     C61027   9.275  -0.256   9.302 -0.2737 -0.6099 -0.4377
  453MOL0     O61028   9.369  -0.353   9.287 -0.6597 -0.2747  0.4581
  453MOL0     C61029   9.457  -0.332   9.171  0.3180 -0.1512  0.1293
  453MOL0     C61030   9.596  -0.286   9.205 -0.7330  0.2256 -0.6952
  453MOL0     C61031   9.675  -0.391   9.286 -0.2987  0.5485  0.2809
  453MOL0     C61032   9.818  -0.329   9.326 -0.4248  0.3264 -0.3001
  453MOL0     C61033   9.899  -0.422   9.406  0.3548 -0.1191  0.4626
  453MOL0     C61034  10.023  -0.349   9.432 -0.1110 -1.3538  0.1957
  453MOL0     C61035  10.111  -0.426   9.529 -0.6993  0.7770 -0.3472
  453MOL0     C61036  10.228  -0.334   9.569 -0.3853  0.0046 -0.2784
  453MOL0     N61037  10.318  -0.387   9.676  0.3309  0.1930 -0.0033
  453MOL0     C61038  10.433  -0.462   9.657 -0.0039 -0.3547  0.5009
  453MOL0     C61039  10.473  -0.501   9.777 -0.2190  0.1094 -0.1914
  453MOL0     C61040  10.588  -0.596   9.803 -0.2527 -0.3231 -0.5754
  453MOL0     C61041  10.717  -0.512   9.808 -0.3075 -0.1550 -0.4294
  453MOL0     C61042  10.839  -0.610   9.821 -0.1620  0.0874  0.4072
  453MOL0     C61043  10.975  -0.547   9.809  0.1326  0.4227  0.4001
  453MOL0     O61044  10.974  -0.496   9.668  0.7513 -0.0955 -0.2236
  453MOL0     C61045  11.099  -0.456   9.630  0.7364 -0.9661  0.3222
  453MOL0     C61046  11.105  -0.426   9.501  0.0392 -0.7138 -1.2610
  453MOL0     C61047  11.227  -0.384   9.443  0.2868 -0.0321  0.8105
  453MOL0     C61048  11.342  -0.372   9.521  0.3160  0.6929  0.0685
  453MOL0     C61049  11.470  -0.325   9.466  0.4477 -1.0067 -0.3305
  453MOL0     O61050  11.584  -0.326   9.546 -0.2106 -0.0671 -0.9074
  453MOL0     C61051  11.699  -0.295   9.483 -0.1514 -0.1928 -0.2308
  453MOL0     C61052  11.735  -0.160   9.483 -0.4812  0.0591 -0.0749
  453MOL0     C61053  11.848  -0.120   9.411  0.0009  0.7295  0.6289
  453MOL0     C61054  11.930  -0.214   9.344  0.5341 -1.0307  0.8224
  453MOL0     O61055  12.039  -0.160   9.284  0.0852 -0.9758  0.4792
  453MOL0     C61056  12.080  -0.198   9.155 -0.7375 -1.1358 -0.4737
  453MOL0     C61057  12.174  -0.101   9.094  0.0418  0.1137  0.5357
  453MOL0     C61058  12.277  -0.035   9.184  0.4781 -0.3480 -0.6280
  453MOL0     C61059  12.374   0.052   9.099 -0.2586  1.1149  0.2069
  453MOL0     C61060  12.507   0.076   9.175 -0.5910 -0.0309 -0.4872
  453MOL0     C61061  12.604   0.183   9.110 -0.4369 -0.1097  0.1522
  453MOL0     C61062  12.616   0.164   8.959 -0.1545 -0.9099  1.1629
  453MOL0     C61063  12.729   0.250   8.907 -0.5410 -0.7232  0.9299
  453MOL0    Cl61064  12.772   0.202   8.741 -0.0559 -0.3615 -0.0717
  453MOL0     C61065  11.878  -0.345   9.330  0.5396 -0.5985  0.2843
  453MOL0     C61066  11.769  -0.389   9.398 -0.3753  0.1265 -0.7142
  453MOL0     O61067  11.465  -0.281   9.352 -0.8972 -0.6589 -0.3161
  453MOL0     C61068  11.339  -0.418   9.656  0.4437  0.1252 -0.1160
  453MOL0     C61069  11.222  -0.458   9.716  0.4235 -0.2643  0.3438
  453MOL0     N61070  10.383  -0.440   9.868 -0.0196  0.2179 -0.2401
  453MOL0     N61071  10.295  -0.369   9.808 -0.0088 -0.4208  0.3699
  453MOL0     C61072   9.305  -0.113   9.309 -0.1022  0.8947  0.5418
  453MOL0     C61073   9.200  -0.025   9.333 -0.6152 -0.4506  0.8510
  453MOL0     C61074   8.786   0.072   9.498  0.3388 -0.2041 -0.8188
  453MOL0     C61075   8.696   0.072   9.396 -0.4770  0.1513  0.1206
  453MOL0     C61076   8.562   0.081   9.413  0.6360  0.3909 -0.0111
  453MOL0     C61077   8.514   0.127   9.537  0.3875  0.3398  0.2746
  453MOL0     O61078   8.381   0.133   9.557  0.6451  0.6612  0.1545
  453MOL0     C61079   8.321   0.151   9.688  0.0677 -0.4776  0.7101
  453MOL0     C61080   8.331   0.039   9.778  0.4513  0.0434 -0.0386
  453MOL0     C61081   8.251  -0.073   9.710  0.8317  0.1610  0.4130
  453MOL0     C61082   8.295  -0.208   9.774  0.2108  0.5582  0.6542
  453MOL0     C61083   8.443  -0.222   9.745 -0.1092  0.4206 -0.1272
  453MOL0     C61084   8.563  -0.223   9.728 -0.1549  0.0692  0.3130
  453MOL0     C61085   8.599   0.155   9.638 -0.3899 -0.5812  0.4981
  453MOL0     C61086   8.731   0.124   9.624  0.6379  0.2588  0.2020
  453MOL0     C61087   8.810   0.137   9.753  0.5693  0.2763  0.6895
  453MOL0     H61088   8.939  -0.234   9.368  0.2912 -0.9473 -0.8929
  453MOL0     H61089   9.111  -0.398   9.328 -1.3999  1.0709  0.0479
  453MOL0     H61090   9.459  -0.425   9.114 -0.9215 -0.3435  0.3749
  453MOL0     H61091   9.404  -0.267   9.101 -0.2341  0.2093  0.8562
  453MOL0     H61092   9.600  -0.198   9.270  1.2380  1.1995 -2.0341
  453MOL0     H61093   9.662  -0.274   9.119 -0.2106 -1.2092 -0.5331
  453MOL0     H61094   9.675  -0.482   9.226 -0.3628  0.2461  0.7358
  453MOL0     H61095   9.627  -0.409   9.383 -1.0700 -1.2667 -0.4004
  453MOL0     H61096   9.865  -0.303   9.231  4.1615  0.5150  1.7751
  453MOL0     H61097   9.811  -0.236   9.383  1.5289  0.4324 -0.1792
  453MOL0     H61098   9.836  -0.452   9.490  0.7510  1.3554  1.3152
  453MOL0     H61099   9.922  -0.513   9.349  0.4176 -0.9028  1.7057
  453MOL0     H61100  10.076  -0.324   9.339  2.3036  0.0206  1.8404
  453MOL0     H61101   9.989  -0.252   9.469  0.7075  0.6561 -3.7630
  453MOL0     H61102  10.150  -0.514   9.478 -1.3803 -0.5541  1.3277
  453MOL0     H61103  10.055  -0.457   9.617  1.6376 -2.3789  0.1900
  453MOL0     H61104  10.291  -0.312   9.482 -3.4495  1.0990 -2.4196
  453MOL0     H61105  10.186  -0.239   9.603 -0.3890 -0.1124  0.0451
  453MOL0     H61106  10.480  -0.493   9.564  2.0202 -2.6626  2.1415
  453MOL0     H61107  10.578  -0.660   9.891  1.0706 -0.5975 -0.6161
  453MOL0     H61108  10.580  -0.664   9.718 -1.7857 -0.3809 -0.4118
  453MOL0     H61109  10.715  -0.457   9.714 -0.6365 -1.6972 -1.3438
  453MOL0     H61110  10.712  -0.436   9.887 -3.4458  1.6150 -2.1170
  453MOL0     H61111  10.826  -0.691   9.750 -2.0715  0.1521  0.6415
  453MOL0     H61112  10.822  -0.661   9.916 -0.6456 -3.8543 -1.6187
  453MOL0     H61113  11.041  -0.633   9.820  0.0736 -0.3425 -3.6561
  453MOL0     H61114  10.981  -0.471   9.888 -0.4605 -1.0898  1.9775
  453MOL0     H61115  11.021  -0.434   9.433  0.3270 -1.8056 -1.5047
  453MOL0     H61116  11.238  -0.356   9.339  2.1544  1.1995  1.2875
  453MOL0     H61117  11.687  -0.077   9.536 -0.1952 -0.7358  1.4971
  453MOL0     H61118  11.872  -0.014   9.410  2.7742  0.1732  1.0760
  453MOL0     H61119  12.136  -0.289   9.180  0.0227 -0.8921 -1.2463
  453MOL0     H61120  11.992  -0.205   9.092  0.2892  0.9750 -2.2448
  453MOL0     H61121  12.231  -0.158   9.020  0.5941  0.9639  0.2990
  453MOL0     H61122  12.114  -0.024   9.045 -2.8859 -1.6418  1.0920
  453MOL0     H61123  12.223   0.017   9.263  1.3760  0.1550 -0.3322
  453MOL0     H61124  12.337  -0.117   9.224 -0.6311 -1.6022 -1.4605
  453MOL0     H61125  12.327   0.149   9.080 -1.9340  0.4119  0.5535
  453MOL0     H61126  12.390   0.005   9.002  2.9669  1.7984  0.2819
  453MOL0     H61127  12.567  -0.014   9.184  0.3670  0.6016 -0.3988
  453MOL0     H61128  12.470   0.097   9.275  1.6263 -1.2253  0.6477
  453MOL0     H61129  12.561   0.276   9.147  0.2343 -0.7149  2.6421
  453MOL0     H61130  12.705   0.182   9.153 -0.1966  2.5479 -0.1840
  453MOL0     H61131  12.521   0.190   8.912  1.2414  0.7874 -0.9030
  453MOL0     H61132  12.656   0.063   8.949  1.8155 -0.0189 -0.8340
  453MOL0     H61133  12.704   0.356   8.906  0.2163 -0.4578 -2.3177
  453MOL0     H61134  12.820   0.234   8.964  1.6508  2.4252 -1.3347
  453MOL0     H61135  11.917  -0.415   9.257 -3.7604 -1.5339 -1.3951
  453MOL0     H61136  11.733  -0.491   9.390  3.0872 -1.2594 -0.0880
  453MOL0     H61137  11.425  -0.422   9.723  1.4072  1.9444 -1.1755
  453MOL0     H61138  11.204  -0.478   9.821 -1.3497  0.6582  0.2700
  453MOL0     H61139   9.401  -0.065   9.295 -0.4799  1.3317 -0.7553
  453MOL0     H61140   9.205   0.081   9.354 -3.6201 -0.3382  1.4997
  453MOL0     H61141   8.731   0.040   9.298 -1.8147  1.2360 -0.7659
  453MOL0     H61142   8.494   0.059   9.331 -1.5705  1.9255  1.3026
  453MOL0     H61143   8.220   0.192   9.676  0.5685  1.0606  1.3828
  453MOL0     H61144   8.375   0.237   9.729 -0.9555  0.5514 -0.0366
  453MOL0     H61145   8.287   0.055   9.877  0.8742 -2.3609  0.5995
  453MOL0     H61146   8.437   0.015   9.793  0.3903 -1.1503 -1.3558
  453MOL0     H61147   8.266  -0.077   9.602  1.1783 -0.5274  0.4787
  453MOL0     H61148   8.143  -0.059   9.723  1.2330  1.0610  3.7269
  453MOL0     H61149   8.281  -0.200   9.882 -0.2574 -1.7240  0.8160
  453MOL0     H61150   8.235  -0.288   9.730 -1.2073  0.4379  2.6566
  453MOL0     H61151   8.669  -0.214   9.713 -0.2183 -1.8649 -1.6551
  453MOL0     H61152   8.559   0.181   9.736 -2.1708 -0.3746 -0.2377
  453MOL0     H61153   8.868   0.047   9.770 -0.1220 -0.6817 -1.6172
  453MOL0     H61154   8.873   0.226   9.737 -3.2751  2.8980 -2.0274
  453MOL0     H61155   8.756   0.166   9.843  2.0912  1.1218  1.3652
  454MOL0     O61156   8.547  10.336   6.274  0.0702  0.0767  0.0768
  454MOL0     C61157   8.455  10.383   6.342 -0.2360  0.6055  0.1986
  454MOL0     O61158   8.475  10.492   6.416 -0.4160  0.0461  0.0141
  454MOL0     C61159   8.575  10.575   6.388  0.6054 -0.3972  0.4859
  454MOL0     C61160   8.572  10.658   6.272 -0.1182 -0.4458  0.1750
  454MOL0     C61161   8.679  10.743   6.248 -0.0801  0.0489  0.4413
  454MOL0     C61162   8.793  10.748   6.329 -0.1554  0.6180 -0.7177
  454MOL0     O61163   8.901  10.835   6.314  0.1007  0.3615 -0.6412
  454MOL0     C61164   8.920  10.883   6.180  0.3811 -0.5587  0.1377
  454MOL0     C61165   9.057  10.936   6.173 -0.0716 -0.5744  0.3504
  454MOL0     C61166   9.066  11.068   6.250 -0.5507 -0.0242  0.3046
  454MOL0     C61167   9.200  11.140   6.224 -0.2604 -0.7119  0.4908
  454MOL0     C61168   9.255  11.211   6.347 -1.0649 -0.4430  0.8117
  454MOL0     C61169   9.397  11.261   6.317 -0.0327 -0.5979 -0.3698
  454MOL0     C61170   9.455  11.318   6.447 -0.5235  0.8661  0.1818
  454MOL0     C61171   9.594  11.393   6.412 -0.3913  0.0161  0.3441
  454MOL0     N61172   9.653  11.461   6.522 -0.7422 -0.6833  0.1318
  454MOL0     C61173   9.764  11.530   6.517 -0.4822  0.4373  0.4078
  454MOL0     C61174   9.771  11.598   6.627  0.1292 -0.1824 -0.3066
  454MOL0     C61175   9.879  11.695   6.658 -0.2587 -0.2325 -0.5636
  454MOL0     C61176   9.834  11.840   6.627 -0.1317  0.1013  0.4262
  454MOL0     C61177   9.932  11.952   6.681  0.9580 -0.2549 -0.7168
  454MOL0     C61178   9.951  11.950   6.833  1.2806 -0.1678 -0.6291
  454MOL0     O61179  10.048  11.847   6.868 -0.8729 -0.1363  0.6503
  454MOL0     C61180  10.184  11.883   6.858 -0.0428 -0.8216  0.0967
  454MOL0     C61181  10.230  12.013   6.822  0.4568  0.2098  0.1216
  454MOL0     C61182  10.371  12.035   6.817  0.0933  0.1766 -0.2510
  454MOL0     C61183  10.458  11.938   6.863  0.2074 -0.0651 -0.8075
  454MOL0     C61184  10.605  11.963   6.865 -0.3489 -0.3942 -0.7099
  454MOL0     O61185  10.639  12.078   6.797 -0.3253  1.1067 -0.9928
  454MOL0     C61186  10.771  12.109   6.772  0.0133 -0.5905 -0.3521
  454MOL0     C61187  10.798  12.163   6.645 -0.2718 -0.3051  0.2486
  454MOL0     C61188  10.927  12.201   6.605 -0.2922  0.4789  0.3164
  454MOL0     C61189  11.038  12.181   6.703 -0.3793  0.2907  0.1811
  454MOL0     O61190  11.173  12.208   6.670  0.4197  0.4753  0.1727
  454MOL0     C61191  11.220  12.326   6.740  0.8368  0.3031  0.4175
  454MOL0     C61192  11.349  12.387   6.674 -0.2654  0.4471 -1.0952
  454MOL0     C61193  11.456  12.288   6.707  0.4532 -0.4431 -0.6964
  454MOL0     C61194  11.602  12.335   6.667 -0.4814  0.6395  0.1468
  454MOL0     C61195  11.696  12.247   6.742 -0.4297  0.2271  0.2038
  454MOL0     C61196  11.841  12.304   6.732  0.4340  0.1251  0.5149
  454MOL0     C61197  11.941  12.203   6.793 -0.2713 -0.3660  0.2278
  454MOL0     C61198  12.083  12.239   6.781  0.9100  0.8965  0.7726
  454MOL0    Cl61199  12.122  12.397   6.845  0.4226  0.0951  0.4734
  454MOL0     C61200  11.011  12.126   6.830  0.0723 -0.4684 -0.6696
  454MOL0     C61201  10.876  12.100   6.866  0.1747 -0.1951  0.6750
  454MOL0     O61202  10.678  11.895   6.935  0.2859  0.4730  0.5888
  454MOL0     C61203  10.404  11.817   6.904  0.4278  1.0166  0.4776
  454MOL0     C61204  10.268  11.786   6.899 -0.4208  0.3109  0.2533
  454MOL0     N61205   9.670  11.566   6.713  0.4136 -0.0986  0.6481
  454MOL0     N61206   9.597  11.483   6.646  0.0362 -0.5754  1.3578
  454MOL0     C61207   8.782  10.673   6.452  0.6448 -0.2063 -0.6748
  454MOL0     C61208   8.675  10.589   6.479  0.3686  0.2509  0.6749
  454MOL0     C61209   8.325  10.323   6.338  0.1493 -0.5558  0.7774
  454MOL0     C61210   8.312  10.191   6.282  0.2681  0.0358  0.0224
  454MOL0     C61211   8.186  10.140   6.258  0.3615 -0.5345  0.0364
  454MOL0     C61212   8.065  10.195   6.305  0.3301  0.3824  0.3453
  454MOL0     O61213   7.938  10.142   6.287 -0.6264 -0.2936  0.1479
  454MOL0     C61214   7.912  10.007   6.239 -1.0212  0.4216 -0.0583
  454MOL0     C61215   7.890   9.998   6.091  0.2226  0.0805  0.3374
  454MOL0     C61216   7.742  10.038   6.060 -0.2626  0.0667 -0.6699
  454MOL0     C61217   7.740  10.111   5.926  0.4076  0.1772  0.1916
  454MOL0     C61218   7.597  10.143   5.889  0.7152 -0.4637 -0.2492
  454MOL0     C61219   7.490  10.147   5.833 -0.8599 -1.2467  0.6651
  454MOL0     C61220   8.078  10.323   6.367  0.4950  0.2213  0.3127
  454MOL0     C61221   8.202  10.391   6.380 -0.0140  0.4316  0.4927
  454MOL0     C61222   8.206  10.529   6.442 -0.4645 -0.0480  0.2301
  454MOL0     H61223   8.489  10.652   6.202  1.1083 -0.6683 -1.3237
  454MOL0     H61224   8.673  10.806   6.160 -0.2511  0.3754  0.6809
  454MOL0     H61225   8.917  10.805   6.104  1.9099 -0.3799 -0.1320
  454MOL0     H61226   8.847  10.964   6.169  0.7080 -0.4195 -1.1867
  454MOL0     H61227   9.072  10.950   6.065 -0.8676  0.4218  0.3419
  454MOL0     H61228   9.129  10.867   6.217  0.1989 -1.1397 -0.9393
  454MOL0     H61229   9.059  11.042   6.356 -0.9635  0.3995  0.3869
  454MOL0     H61230   8.979  11.131   6.230  2.2907  3.8418 -1.0049
  454MOL0     H61231   9.278  11.070   6.191  1.0223  1.0373 -0.3626
  454MOL0     H61232   9.187  11.219   6.149  0.5916  0.0887  1.1594
  454MOL0     H61233   9.177  11.283   6.374 -3.2441 -0.8336 -3.5873
  454MOL0     H61234   9.259  11.142   6.432  0.2742 -0.9753  0.3390
  454MOL0     H61235   9.455  11.175   6.282 -1.3403 -1.4990 -0.3948
  454MOL0     H61236   9.398  11.335   6.236 -0.4895  1.1236  1.1360
  454MOL0     H61237   9.465  11.237   6.520 -0.7419 -0.3782 -1.1360
  454MOL0     H61238   9.382  11.385   6.495 -1.8661 -0.4181  0.0282
  454MOL0     H61239   9.663  11.317   6.374  1.1825  0.9454  1.2333
  454MOL0     H61240   9.570  11.466   6.334 -0.8956  0.0023  0.4851
  454MOL0     H61241   9.827  11.541   6.430 -2.0067 -0.1546 -0.8239
  454MOL0     H61242   9.912  11.686   6.762  1.6136 -1.0279 -1.1797
  454MOL0     H61243   9.961  11.676   6.588 -1.3586 -3.0807 -1.1927
  454MOL0     H61244   9.835  11.864   6.520 -1.8852 -1.6919 -0.0511
  454MOL0     H61245   9.730  11.850   6.659 -0.5085 -1.4589 -0.2292
  454MOL0     H61246   9.895  12.052   6.655 -1.2586 -0.7786  0.1775
  454MOL0     H61247  10.030  11.925   6.640  0.3718 -4.1243 -0.0075
  454MOL0     H61248   9.856  11.932   6.884  1.6737 -1.6852 -0.3748
  454MOL0     H61249   9.981  12.046   6.877 -2.2871 -0.6796  3.6474
  454MOL0     H61250  10.173  12.103   6.802  1.5861  2.1172  4.2791
  454MOL0     H61251  10.415  12.132   6.794  2.0061 -1.0908 -2.3409
  454MOL0     H61252  10.710  12.173   6.582 -1.1282  0.2719  1.5107
  454MOL0     H61253  10.947  12.248   6.510 -2.4024 -0.3322 -0.5840
  454MOL0     H61254  11.139  12.399   6.730  1.0844  0.3069 -2.5070
  454MOL0     H61255  11.230  12.310   6.848 -0.2279  1.4595  0.7122
  454MOL0     H61256  11.348  12.383   6.564 -1.7334 -1.2673 -1.0635
  454MOL0     H61257  11.369  12.488   6.710  1.2610  0.0188 -0.6924
  454MOL0     H61258  11.459  12.283   6.817  1.0308  1.1995 -0.6147
  454MOL0     H61259  11.428  12.191   6.666 -2.1822  0.7241 -1.8311
  454MOL0     H61260  11.623  12.437   6.700 -0.0066 -0.0150  1.9754
  454MOL0     H61261  11.615  12.321   6.559 -0.5975  1.6827 -0.0107
  454MOL0     H61262  11.705  12.153   6.687  1.5233 -1.1230  2.6461
  454MOL0     H61263  11.674  12.226   6.847 -0.2370  0.6908  0.3368
  454MOL0     H61264  11.881  12.307   6.630  2.0298 -0.4260  1.0919
  454MOL0     H61265  11.844  12.407   6.767  0.8175  0.8456 -1.5205
  454MOL0     H61266  11.927  12.116   6.728 -3.4226 -0.4517  0.8379
  454MOL0     H61267  11.922  12.173   6.896  3.2370 -1.8598  0.5806
  454MOL0     H61268  12.150  12.180   6.844 -0.6239 -2.3431 -0.4519
  454MOL0     H61269  12.115  12.230   6.677 -1.0112  0.0109  0.2109
  454MOL0     H61270  11.093  12.110   6.899 -1.1862 -3.8031  0.2705
  454MOL0     H61271  10.848  12.068   6.965  1.1253  1.1391  1.4077
  454MOL0     H61272  10.479  11.750   6.946 -0.1676 -0.9882 -1.4497
  454MOL0     H61273  10.232  11.690   6.933 -1.5865  0.0620 -1.5284
  454MOL0     H61274   8.857  10.692   6.529  0.1925  2.8876 -0.8625
  454MOL0     H61275   8.688  10.534   6.571  0.6808 -1.0848 -0.1313
  454MOL0     H61276   8.401  10.143   6.244  0.7592 -0.6226  1.8639
  454MOL0     H61277   8.184  10.046   6.204  0.6099 -0.1822 -0.5859
  454MOL0     H61278   7.822   9.970   6.290 -2.0182  0.8039 -1.4744
  454MOL0     H61279   7.993   9.934   6.251 -3.5702 -3.0021 -1.7201
  454MOL0     H61280   7.901   9.891   6.070 -2.4314 -0.0630 -0.6942
  454MOL0     H61281   7.963  10.063   6.043 -0.0601  1.8437  2.1359
  454MOL0     H61282   7.716  10.098   6.148  2.3637  0.7838 -0.2980
  454MOL0     H61283   7.678   9.951   6.043 -0.0603 -0.1542 -0.3118
  454MOL0     H61284   7.796  10.204   5.937 -2.8302  2.7435 -2.6698
  454MOL0     H61285   7.768  10.047   5.841 -3.2213 -0.1026 -0.9640
  454MOL0     H61286   7.400  10.182   5.786 -0.4552  0.1198  0.8583
  454MOL0     H61287   7.996  10.384   6.402  0.6834  1.5934 -1.4584
  454MOL0     H61288   8.252  10.601   6.373  2.6155 -0.9092  1.2303
  454MOL0     H61289   8.105  10.570   6.454 -1.8602 -2.6121 -1.6569
  454MOL0     H61290   8.269  10.532   6.531 -0.1034 -0.8607  0.0114
  455MOL0     O61291   8.023  10.318   1.804  0.4673 -0.0101 -0.2517
  455MOL0     C61292   7.907  10.280   1.821 -0.9004  0.0760 -0.4457
  455MOL0     O61293   7.867  10.224   1.938 -0.5033  0.4031 -0.1736
  455MOL0     C61294   7.968  10.183   2.022 -0.3721  0.5066 -0.2678
  455MOL0     C61295   8.016  10.052   1.999 -0.3832 -0.3233 -0.3073
  455MOL0     C61296   8.133  10.006   2.063  0.4436  1.1966 -0.5336
  455MOL0     C61297   8.176  10.078   2.175  0.5146 -0.3957  0.4127
  455MOL0     O61298   8.270  10.008   2.242 -0.2850  0.1237  0.3242
  455MOL0     C61299   8.323  10.067   2.361  0.3381 -0.7063 -0.0390
  455MOL0     C61300   8.420   9.969   2.434  0.2766 -0.0215  0.2807
  455MOL0     C61301   8.549   9.948   2.344  1.3916 -0.0504 -1.2768
  455MOL0     C61302   8.663   9.878   2.420  0.4026  0.4398 -0.3023
  455MOL0     C61303   8.796   9.905   2.342 -0.6324  0.3761  0.0331
  455MOL0     C61304   8.922   9.844   2.399 -0.5631  0.3199 -0.5411
  455MOL0     C61305   8.943   9.694   2.370 -0.3670  0.6378  0.0439
  455MOL0     C61306   8.959   9.635   2.224 -0.7897  0.1972 -0.4772
  455MOL0     N61307   9.088   9.679   2.164  0.2000 -0.1256 -0.7851
  455MOL0     C61308   9.217   9.661   2.216 -0.2197  0.3367 -0.3190
  455MOL0     C61309   9.305   9.704   2.112 -0.0771  0.4936 -0.1273
  455MOL0     C61310   9.455   9.690   2.129  0.4959 -0.1520 -0.3771
  455MOL0     C61311   9.502   9.829   2.151  0.3875  0.2839  1.2590
  455MOL0     C61312   9.650   9.848   2.111 -0.2968 -0.4349  0.7326
  455MOL0     C61313   9.753   9.759   2.162 -0.0312  0.2908  0.5040
  455MOL0     O61314   9.740   9.751   2.303  0.4009  0.8824  0.4724
  455MOL0     C61315   9.856   9.754   2.379  0.5130 -0.8200 -0.4323
  455MOL0     C61316   9.976   9.698   2.329 -0.0564  0.0343 -0.5733
  455MOL0     C61317  10.088   9.675   2.407  0.4788  0.8660  0.0019
  455MOL0     C61318  10.102   9.735   2.527 -0.0287 -0.3481  0.9848
  455MOL0     C61319  10.229   9.726   2.596  0.1034  0.0755  0.5018
  455MOL0     O61320  10.310   9.626   2.554 -0.1364 -0.1800 -0.5728
  455MOL0     C61321  10.418   9.606   2.627 -0.4621  0.6584 -0.0926
  455MOL0     C61322  10.540   9.679   2.616  1.2635  0.0467 -0.5793
  455MOL0     C61323  10.644   9.646   2.695 -0.6487  0.2906  0.4140
  455MOL0     C61324  10.641   9.547   2.793 -0.6861 -1.3179  0.0737
  455MOL0     O61325  10.757   9.521   2.867 -0.3208 -0.5327 -0.1658
  455MOL0     C61326  10.761   9.409   2.961 -1.1507  0.2538  1.0022
  455MOL0     C61327  10.903   9.407   3.030 -0.1200 -0.3671  0.8460
  455MOL0     C61328  11.004   9.343   2.932  0.1727 -0.0571 -0.5189
  455MOL0     C61329  11.094   9.242   3.003  1.1305  0.1972 -0.1827
  455MOL0     C61330  11.234   9.220   2.941 -0.3174  0.0352  0.5380
  455MOL0     C61331  11.276   9.078   2.980 -0.2706 -0.9829  0.6050
  455MOL0     C61332  11.433   9.058   2.978 -0.3281 -0.2914  1.2348
  455MOL0     C61333  11.489   9.103   2.840  0.1352  0.4036  0.5658
  455MOL0    Cl61334  11.666   9.085   2.824  0.4750  0.2825  0.0730
  455MOL0     C61335  10.522   9.471   2.815  0.4132 -1.2871  0.0340
  455MOL0     C61336  10.412   9.502   2.732 -0.4084 -0.3620  0.3464
  455MOL0     O61337  10.257   9.798   2.687  0.1432 -0.5610  0.2515
  455MOL0     C61338   9.987   9.801   2.578  0.7946 -1.2068 -0.3317
  455MOL0     C61339   9.864   9.810   2.511  0.2394  0.3232 -0.0906
  455MOL0     N61340   9.228   9.749   2.012 -0.2673  0.7800 -0.0119
  455MOL0     N61341   9.107   9.720   2.039  0.0868  0.0511 -0.0355
  455MOL0     C61342   8.118  10.199   2.210 -0.6350  0.7763 -0.7922
  455MOL0     C61343   8.015  10.261   2.129 -0.0359  0.1271  0.0328
  455MOL0     C61344   7.815  10.296   1.706  0.8255 -0.1686  0.7620
  455MOL0     C61345   7.843  10.379   1.590  0.1587 -0.1400 -0.3313
  455MOL0     C61346   7.765  10.407   1.484  0.9901  0.0967  0.3894
  455MOL0     C61347   7.641  10.350   1.488  0.1732  0.1788  0.4958
  455MOL0     O61348   7.559  10.387   1.386 -0.3869  0.3549  0.1429
  455MOL0     C61349   7.430  10.328   1.379 -0.0558 -0.0078  0.6611
  455MOL0     C61350   7.354  10.395   1.265 -0.6393 -0.2344  0.3439
  455MOL0     C61351   7.197  10.403   1.294 -0.0223  0.0983  0.1842
  455MOL0     C61352   7.162  10.496   1.415 -0.7036  0.5590  0.3805
  455MOL0     C61353   7.069  10.601   1.374 -0.2170  0.1515 -1.0593
  455MOL0     C61354   6.994  10.688   1.333 -0.8615  0.5177  0.3025
  455MOL0     C61355   7.598  10.275   1.598  0.0713  0.6537  0.8513
  455MOL0     C61356   7.687  10.235   1.704 -0.0628 -0.8612  1.0745
  455MOL0     C61357   7.639  10.141   1.812 -0.0125 -0.0740  0.3617
  455MOL0     H61358   7.970   9.990   1.923  2.6315 -1.6079 -1.2477
  455MOL0     H61359   8.175   9.912   2.030 -1.6156  1.0674 -3.1652
  455MOL0     H61360   8.370  10.165   2.347  0.6352 -1.0026 -1.2686
  455MOL0     H61361   8.251  10.097   2.437  1.1535 -0.2754  0.5795
  455MOL0     H61362   8.367   9.873   2.441  0.0920  0.1419  1.2226
  455MOL0     H61363   8.449  10.002   2.534 -0.6173  0.6007  0.3468
  455MOL0     H61364   8.573  10.044   2.299 -1.8154  0.6385 -1.7901
  455MOL0     H61365   8.516   9.876   2.268  2.2306 -2.5572  0.6240
  455MOL0     H61366   8.664   9.911   2.524 -0.8860 -0.8721  0.1692
  455MOL0     H61367   8.648   9.771   2.437  0.2231  0.4238 -0.5587
  455MOL0     H61368   8.782   9.866   2.241  2.5808  1.4707 -0.9326
  455MOL0     H61369   8.824  10.009   2.324  4.3970 -0.6499  0.4833
  455MOL0     H61370   9.013   9.895   2.363 -1.0004  1.4605 -0.0948
  455MOL0     H61371   8.919   9.869   2.506 -2.6810 -1.8857 -0.0028
  455MOL0     H61372   8.872   9.639   2.432  2.1686 -1.0673  1.6282
  455MOL0     H61373   9.038   9.669   2.418 -1.0941 -0.4138  0.9969
  455MOL0     H61374   8.961   9.526   2.233  0.3141 -0.0364 -2.9566
  455MOL0     H61375   8.878   9.669   2.159 -1.4314  1.5357  0.9503
  455MOL0     H61376   9.243   9.625   2.315  1.1282  4.0631  0.8499
  455MOL0     H61377   9.467   9.628   2.217 -1.0552  0.5755  0.3806
  455MOL0     H61378   9.510   9.644   2.046  2.5920  0.5843  0.5309
  455MOL0     H61379   9.455   9.901   2.082  3.5418  1.0068 -0.3046
  455MOL0     H61380   9.488   9.859   2.255  1.7363 -0.3652  1.6439
  455MOL0     H61381   9.674   9.953   2.128 -0.7408 -0.2299  0.1162
  455MOL0     H61382   9.656   9.828   2.004 -0.9326 -0.1892  0.6504
  455MOL0     H61383   9.850   9.803   2.138 -0.8857  2.1583  0.3234
  455MOL0     H61384   9.751   9.657   2.123  4.6677 -0.0025  0.5051
  455MOL0     H61385   9.973   9.652   2.231  1.0644  0.3606 -0.7743
  455MOL0     H61386  10.169   9.616   2.365 -0.0503  0.1228 -0.0077
  455MOL0     H61387  10.541   9.767   2.552  1.6583  1.2084  0.9650
  455MOL0     H61388  10.732   9.704   2.669 -1.5895  1.0240 -1.2276
  455MOL0     H61389  10.700   9.417   3.052  1.5387 -0.9388  3.0374
  455MOL0     H61390  10.749   9.313   2.910  1.6238  0.0158  0.6542
  455MOL0     H61391  10.931   9.510   3.054  0.3677 -0.5382  1.0126
  455MOL0     H61392  10.897   9.347   3.121 -2.0203 -1.9209 -0.1971
  455MOL0     H61393  10.943   9.302   2.851  0.3610  0.6190 -1.0048
  455MOL0     H61394  11.079   9.413   2.896 -0.0617  0.2676 -0.3813
  455MOL0     H61395  11.045   9.144   3.007  0.4890  0.5242  0.1131
  455MOL0     H61396  11.114   9.275   3.106  2.5029  0.2113 -0.4267
  455MOL0     H61397  11.294   9.300   2.987 -0.4465 -1.1042  2.8179
  455MOL0     H61398  11.239   9.235   2.833  0.7117  1.1866  0.7250
  455MOL0     H61399  11.244   9.059   3.083 -0.3710  1.3712  1.0545
  455MOL0     H61400  11.223   9.006   2.917  2.1382 -1.8288 -0.5862
  455MOL0     H61401  11.451   8.952   2.998  2.4745 -0.2881 -0.7248
  455MOL0     H61402  11.478   9.112   3.062 -1.4937  0.2231  1.5611
  455MOL0     H61403  11.431   9.049   2.764 -0.1078  2.3862 -0.7236
  455MOL0     H61404  11.472   9.209   2.821 -1.9662  0.6100  3.0879
  455MOL0     H61405  10.517   9.399   2.896 -2.6393  0.4342  1.5691
  455MOL0     H61406  10.319   9.449   2.752 -0.0234 -0.4216  2.2074
  455MOL0     H61407   9.991   9.841   2.679  0.4870  0.1103 -0.8257
  455MOL0     H61408   9.774   9.842   2.562 -0.3511  0.9536 -1.4731
  455MOL0     H61409   8.158  10.244   2.300  1.7298 -2.5365  0.0349
  455MOL0     H61410   7.987  10.363   2.154  0.8674  0.5012 -0.4180
  455MOL0     H61411   7.936  10.434   1.574 -0.1047  0.2821 -0.4263
  455MOL0     H61412   7.788  10.477   1.404 -1.1170  2.7604  1.9418
  455MOL0     H61413   7.372  10.332   1.471  0.5312 -2.9486  1.2369
  455MOL0     H61414   7.451  10.224   1.353 -2.0769 -0.3259  0.1127
  455MOL0     H61415   7.372  10.338   1.173 -1.2164  1.9692 -1.2489
  455MOL0     H61416   7.382  10.498   1.238 -0.2334 -0.6793 -1.0166
  455MOL0     H61417   7.166  10.300   1.312  1.3375 -0.2165  0.8464
  455MOL0     H61418   7.144  10.438   1.204 -1.2841 -0.0173  0.8533
  455MOL0     H61419   7.125  10.438   1.500  1.8772 -0.1862  1.0781
  455MOL0     H61420   7.252  10.546   1.452  0.6825 -1.0998 -0.6385
  455MOL0     H61421   6.919  10.756   1.300  1.2481  2.1574 -1.4200
  455MOL0     H61422   7.498  10.234   1.583  0.7268 -0.6342 -0.1926
  455MOL0     H61423   7.607  10.180   1.909  1.5745  0.9739  0.5044
  455MOL0     H61424   7.560  10.077   1.771  1.0245  0.2235 -2.2488
  455MOL0     H61425   7.720  10.068   1.821 -0.0106 -0.5171 -2.4850
  456MOL0     O61426   1.138   6.712   4.527 -0.1366 -0.0273 -0.0853
  456MOL0     C61427   1.081   6.624   4.468  0.3002  0.5148 -0.1664
  456MOL0     O61428   1.130   6.557   4.365 -0.2783  1.3072 -0.5837
  456MOL0     C61429   1.261   6.562   4.330  0.3746  0.0569 -0.0698
  456MOL0     C61430   1.315   6.677   4.271  0.4778 -0.1801 -0.2066
  456MOL0     C61431   1.443   6.672   4.212 -0.1134 -0.6259 -0.5733
  456MOL0     C61432   1.516   6.557   4.212 -0.1854 -0.0162 -0.8554
  456MOL0     O61433   1.634   6.565   4.144  0.2744 -0.1788 -0.5056
  456MOL0     C61434   1.734   6.460   4.163  0.4312  0.1216  0.0009
  456MOL0     C61435   1.872   6.511   4.114  0.3330 -0.2807  0.1124
  456MOL0     C61436   1.996   6.431   4.154  0.4698  0.3800 -0.2415
  456MOL0     C61437   1.991   6.296   4.088  0.3041 -0.2722 -1.1552
  456MOL0     C61438   2.122   6.224   4.091  0.3002  0.3011 -0.0396
  456MOL0     C61439   2.197   6.264   3.960 -0.1392 -0.6469  0.3714
  456MOL0     C61440   2.354   6.235   3.954 -0.6562  0.3894  0.2058
  456MOL0     C61441   2.393   6.098   4.019  0.0871 -0.1711 -0.1736
  456MOL0     N61442   2.536   6.086   4.022 -0.1731 -0.6845 -0.8627
  456MOL0     C61443   2.606   6.018   3.927 -0.2195 -0.4263 -0.2465
  456MOL0     C61444   2.733   6.030   3.964  0.5220  0.2735 -0.6877
  456MOL0     C61445   2.848   5.991   3.882 -0.7458  1.2142 -0.0560
  456MOL0     C61446   2.985   6.040   3.922  0.6716  0.1072 -0.1137
  456MOL0     C61447   3.098   5.984   3.825  0.2610  0.6692 -0.4678
  456MOL0     C61448   3.239   6.032   3.847 -0.9898  0.0781  0.4183
  456MOL0     O61449   3.286   5.996   3.976  0.4714 -0.0544 -0.3064
  456MOL0     C61450   3.420   6.012   4.022  0.1491  0.2519  1.0468
  456MOL0     C61451   3.434   5.986   4.161  0.0589 -0.3165 -0.8318
  456MOL0     C61452   3.553   5.968   4.221 -0.3114  0.5043  0.4220
  456MOL0     C61453   3.673   5.978   4.140 -0.4785  0.4830  0.7298
  456MOL0     C61454   3.804   5.970   4.210 -0.7969 -0.4617  0.3102
  456MOL0     O61455   3.915   6.006   4.140  0.0290  0.1068  0.1475
  456MOL0     C61456   4.041   6.015   4.207 -0.0290 -0.3791  0.2417
  456MOL0     C61457   4.149   5.980   4.127 -0.8366 -0.4134  0.8871
  456MOL0     C61458   4.278   5.987   4.171  0.5479 -0.2596  0.1335
  456MOL0     C61459   4.308   6.035   4.298 -0.4553 -0.1248  0.1141
  456MOL0     O61460   4.437   6.059   4.350  0.4034  0.3299 -0.1879
  456MOL0     C61461   4.551   6.081   4.262 -0.0536 -0.1731  0.6168
  456MOL0     C61462   4.682   6.106   4.342 -0.2194 -0.4844  0.6137
  456MOL0     C61463   4.798   6.102   4.251 -0.3547 -0.0114 -0.1932
  456MOL0     C61464   4.855   5.959   4.258  0.0083  0.0262  0.5720
  456MOL0     C61465   4.988   5.946   4.171  0.3072  0.4287  0.0137
  456MOL0     C61466   5.107   6.044   4.218  0.9351  0.2610 -0.4750
  456MOL0     C61467   5.240   6.018   4.150 -0.3814  0.3602  0.0661
  456MOL0     C61468   5.357   6.101   4.214 -0.8356 -1.0628 -0.3130
  456MOL0    Cl61469   5.511   6.064   4.152  0.4067  0.6437  0.2756
  456MOL0     C61470   4.200   6.070   4.384  0.1166  0.5448 -0.0335
  456MOL0     C61471   4.064   6.066   4.337  0.1797  0.1543 -0.5276
  456MOL0     O61472   3.808   5.906   4.319  0.1053  0.3630  0.2597
  456MOL0     C61473   3.659   6.013   4.005  1.2091  0.2501  0.5971
  456MOL0     C61474   3.532   6.039   3.943  0.9205  1.0076  0.1731
  456MOL0     N61475   2.736   6.110   4.077 -0.8527 -0.0600  0.4968
  456MOL0     N61476   2.621   6.137   4.113  0.2053 -0.2201  0.6115
  456MOL0     C61477   1.465   6.438   4.275  0.5918 -0.2271 -0.8975
  456MOL0     C61478   1.347   6.445   4.342  0.5188 -0.7811 -0.1760
  456MOL0     C61479   0.943   6.592   4.512  0.6080 -0.0660  0.7361
  456MOL0     C61480   0.899   6.454   4.500  0.3730 -0.5922 -0.0627
  456MOL0     C61481   0.771   6.412   4.529  0.4089 -0.6220 -0.2351
  456MOL0     C61482   0.669   6.503   4.565  0.4575 -0.0808 -0.0018
  456MOL0     O61483   0.543   6.470   4.599 -0.0019  0.2936 -0.6397
  456MOL0     C61484   0.467   6.479   4.476  0.6033 -0.4731 -0.5974
  456MOL0     C61485   0.325   6.409   4.500  0.3281  0.6401 -0.7640
  456MOL0     C61486   0.244   6.498   4.593  0.4960  0.0907  0.6036
  456MOL0     C61487   0.166   6.409   4.681 -0.7784 -0.7146  0.0615
  456MOL0     C61488   0.068   6.343   4.607 -0.6816  0.8591  0.4236
  456MOL0     C61489  -0.009   6.289   4.528  0.1916 -0.2704 -0.1962
  456MOL0     C61490   0.714   6.637   4.586  0.1365  0.1974 -0.5805
  456MOL0     C61491   0.844   6.684   4.559  0.1796  0.2081 -0.8208
  456MOL0     C61492   0.873   6.825   4.591  0.0329  0.2033 -0.6578
  456MOL0     H61493   1.246   6.761   4.276  1.1116  0.2695  1.9941
  456MOL0     H61494   1.492   6.762   4.175  0.2370 -0.3431  0.5150
  456MOL0     H61495   1.754   6.441   4.268 -1.3555 -2.4858 -0.0468
  456MOL0     H61496   1.707   6.368   4.108  0.5337  0.6403 -0.9476
  456MOL0     H61497   1.891   6.610   4.155 -4.1401  0.9092 -0.2122
  456MOL0     H61498   1.875   6.528   4.006  0.3210 -0.6280  0.0572
  456MOL0     H61499   1.994   6.407   4.260 -0.6041 -2.0731 -0.7352
  456MOL0     H61500   2.088   6.487   4.134  1.0609  0.3765  2.2307
  456MOL0     H61501   1.926   6.232   4.149  1.9697  1.5149  2.7970
  456MOL0     H61502   1.939   6.298   3.991 -3.1389  0.9013  0.5342
  456MOL0     H61503   2.182   6.242   4.181  1.1090  0.6345 -0.6344
  456MOL0     H61504   2.130   6.115   4.086  2.8206  0.4183  0.0605
  456MOL0     H61505   2.152   6.207   3.878  0.3666 -0.5402  0.0127
  456MOL0     H61506   2.170   6.369   3.943 -0.2301 -0.6013  0.7953
  456MOL0     H61507   2.402   6.303   4.025 -0.3338  0.0304  0.3348
  456MOL0     H61508   2.389   6.254   3.852 -3.3064  1.2494 -0.6415
  456MOL0     H61509   2.356   6.118   4.119  0.2903  0.5969 -0.2462
  456MOL0     H61510   2.341   6.007   3.985 -0.2159 -0.0344 -0.0769
  456MOL0     H61511   2.582   5.975   3.830  0.3543 -2.2095  0.3494
  456MOL0     H61512   2.854   5.882   3.873 -0.7914  1.0929  1.2429
  456MOL0     H61513   2.834   6.031   3.781 -0.5554  3.1643  0.6420
  456MOL0     H61514   2.975   6.147   3.904  1.7599  0.1628 -0.4260
  456MOL0     H61515   3.012   6.027   4.027  0.2657  1.5187  0.1810
  456MOL0     H61516   3.077   5.996   3.719  1.4568 -0.9606 -0.9413
  456MOL0     H61517   3.100   5.875   3.842 -1.1249  0.5550 -0.9399
  456MOL0     H61518   3.251   6.141   3.842 -0.5945 -0.0229 -2.1565
  456MOL0     H61519   3.292   5.988   3.762 -0.0476 -0.7772  1.4158
  456MOL0     H61520   3.348   5.976   4.226 -0.4439  1.8102 -1.1088
  456MOL0     H61521   3.566   5.954   4.328 -0.7099 -1.4076  0.2563
  456MOL0     H61522   4.136   5.967   4.020  1.4717  3.2269 -0.0189
  456MOL0     H61523   4.357   5.950   4.106  0.4278 -0.5392  0.1426
  456MOL0     H61524   4.552   6.001   4.188 -0.4265  1.0086 -0.7060
  456MOL0     H61525   4.540   6.172   4.203 -0.3053  0.1505  1.1504
  456MOL0     H61526   4.676   6.204   4.390  3.8340 -0.3586  1.1649
  456MOL0     H61527   4.689   6.033   4.424 -0.6787 -0.9005  0.2892
  456MOL0     H61528   4.766   6.124   4.149  0.0242 -1.0451 -0.5543
  456MOL0     H61529   4.869   6.180   4.280 -0.6184 -0.6238  2.3889
  456MOL0     H61530   4.776   5.892   4.222  0.7106 -0.5092  0.0014
  456MOL0     H61531   4.880   5.922   4.358  2.5522 -0.4170 -0.1617
  456MOL0     H61532   4.969   5.969   4.066  1.0948 -2.9148 -0.9719
  456MOL0     H61533   5.024   5.843   4.169 -0.0604  0.3051 -0.6412
  456MOL0     H61534   5.076   6.147   4.194  0.7844  0.2498 -0.3297
  456MOL0     H61535   5.120   6.031   4.326 -0.1603 -0.4703 -0.4134
  456MOL0     H61536   5.228   6.038   4.043 -1.3061  1.0400  0.2861
  456MOL0     H61537   5.261   5.911   4.165  1.7314  0.7197  0.0107
  456MOL0     H61538   5.347   6.210   4.211 -1.5572 -1.0931  0.6832
  456MOL0     H61539   5.351   6.084   4.322  0.9095  1.5007  0.2733
  456MOL0     H61540   4.223   6.105   4.484 -0.8240 -0.6377  0.6115
  456MOL0     H61541   3.985   6.106   4.400 -1.3403 -0.7026 -1.8136
  456MOL0     H61542   3.744   6.017   3.938  1.2316 -0.2990  0.5871
  456MOL0     H61543   3.522   6.049   3.835  1.8918 -0.9142 -0.1271
  456MOL0     H61544   1.523   6.348   4.258  1.5285  0.1151  0.3647
  456MOL0     H61545   1.295   6.359   4.383 -0.1661  0.7616  2.4911
  456MOL0     H61546   0.970   6.376   4.475  0.9701 -0.1140  0.1301
  456MOL0     H61547   0.745   6.310   4.504  2.6606 -1.5465  0.9987
  456MOL0     H61548   0.517   6.430   4.391  2.7213 -0.0334  0.3259
  456MOL0     H61549   0.451   6.583   4.448  0.7255 -0.7505 -1.7441
  456MOL0     H61550   0.337   6.309   4.541 -1.9132  1.2860  1.7631
  456MOL0     H61551   0.276   6.400   4.402 -2.0844  2.6153  0.1505
  456MOL0     H61552   0.174   6.570   4.548 -0.0088 -0.8116 -0.0819
  456MOL0     H61553   0.310   6.569   4.643  2.2462  0.1328 -1.5931
  456MOL0     H61554   0.233   6.343   4.737 -1.9358 -2.3350 -0.3904
  456MOL0     H61555   0.117   6.473   4.755  0.5528  2.3036 -1.4933
  456MOL0     H61556  -0.057   6.228   4.454  2.5204  1.3624 -3.2679
  456MOL0     H61557   0.640   6.705   4.627 -1.1456 -1.3746 -0.1718
  456MOL0     H61558   0.789   6.871   4.644  0.3667 -0.0998  0.1599
  456MOL0     H61559   0.962   6.830   4.654 -2.0694 -0.2029  2.5839
  456MOL0     H61560   0.907   6.884   4.505  0.1032  0.1800 -0.6455
  457MOL0     O61561   5.735   4.273   0.678  0.6377 -0.5555  0.4397
  457MOL0     C61562   5.671   4.325   0.768  0.0844  0.6448  0.6454
  457MOL0     O61563   5.728   4.360   0.885 -0.2917 -0.4582  0.0122
  457MOL0     C61564   5.865   4.363   0.896 -0.0177  0.4005  0.5730
  457MOL0     C61565   5.908   4.463   0.989 -0.7596 -0.3713  0.1856
  457MOL0     C61566   6.041   4.495   1.027 -0.1281  0.8912 -0.0236
  457MOL0     C61567   6.147   4.415   0.972 -0.0183  0.4590  0.3049
  457MOL0     O61568   6.269   4.443   1.028  0.8454  0.2136  1.0123
  457MOL0     C61569   6.375   4.347   1.005 -0.3649 -0.2066 -0.0838
  457MOL0     C61570   6.489   4.375   1.110 -0.2552 -0.0123 -0.3986
  457MOL0     C61571   6.564   4.504   1.097  0.3763  0.1834 -0.0490
  457MOL0     C61572   6.477   4.634   1.108 -0.5624  0.1838  0.2121
  457MOL0     C61573   6.574   4.752   1.129 -0.5184 -0.0785 -0.1850
  457MOL0     C61574   6.657   4.781   1.009 -0.5343  0.0342  0.3213
  457MOL0     C61575   6.754   4.897   1.030 -0.8109 -0.8000  0.2843
  457MOL0     C61576   6.683   5.031   1.024 -0.3209  0.5518  0.5983
  457MOL0     N61577   6.776   5.139   1.037 -0.8933  0.3024  0.3413
  457MOL0     C61578   6.832   5.193   1.153 -0.2646  0.2276 -0.6081
  457MOL0     C61579   6.914   5.293   1.112 -0.0800  0.8636 -0.0622
  457MOL0     C61580   6.983   5.400   1.191 -0.3805  0.8948  0.1852
  457MOL0     C61581   7.132   5.408   1.140  0.0626  0.2623  0.4081
  457MOL0     C61582   7.210   5.525   1.220  0.2753 -1.0522  0.9553
  457MOL0     C61583   7.353   5.548   1.177  0.5307 -0.2207  0.6193
  457MOL0     O61584   7.391   5.663   1.236  0.5209  0.2061  1.3504
  457MOL0     C61585   7.519   5.697   1.204 -0.6019 -0.7589 -0.4120
  457MOL0     C61586   7.555   5.822   1.251 -0.3091 -0.3938 -0.1564
  457MOL0     C61587   7.678   5.876   1.227 -0.1857 -0.2923  0.1186
  457MOL0     C61588   7.776   5.801   1.154 -0.5664 -1.0174  0.1043
  457MOL0     C61589   7.905   5.871   1.121  0.7350  0.2261 -0.4380
  457MOL0     O61590   8.003   5.819   1.045  0.0504 -0.7146  0.0290
  457MOL0     C61591   8.132   5.866   1.035 -0.2337 -0.2154 -0.2198
  457MOL0     C61592   8.222   5.781   0.975 -0.1668 -0.5502  0.1515
  457MOL0     C61593   8.352   5.817   0.941  0.0270  0.0461 -0.1272
  457MOL0     C61594   8.408   5.946   0.980  0.1041 -0.1878 -0.5946
  457MOL0     O61595   8.539   5.998   0.964 -0.6316 -0.3702  0.4547
  457MOL0     C61596   8.619   5.930   0.867 -0.1141  0.0043 -0.6625
  457MOL0     C61597   8.757   5.982   0.877 -0.6595  0.1154 -0.2739
  457MOL0     C61598   8.837   5.924   0.994 -0.5993 -0.0199  0.1561
  457MOL0     C61599   8.993   5.961   0.978  0.9647  0.5019  0.6754
  457MOL0     C61600   9.078   5.897   1.092 -0.3252 -0.2010  0.0293
  457MOL0     C61601   9.224   5.944   1.071  0.7246 -0.7164 -0.4335
  457MOL0     C61602   9.318   5.904   1.190 -0.1290  0.2780 -0.5314
  457MOL0     C61603   9.459   5.979   1.159 -0.0812  0.5482 -0.5885
  457MOL0    Cl61604   9.562   5.872   1.056  0.1443  0.2529 -0.1179
  457MOL0     C61605   8.314   6.029   1.044  0.6239  0.0700  0.1776
  457MOL0     C61606   8.186   5.991   1.079  0.0802 -0.1171  0.5647
  457MOL0     O61607   7.909   5.985   1.169 -0.3170 -0.1372 -0.0953
  457MOL0     C61608   7.743   5.679   1.104  0.5632  0.0375 -0.2065
  457MOL0     C61609   7.621   5.623   1.139  0.0130 -0.6253 -0.1181
  457MOL0     N61610   6.906   5.295   0.965  0.6144 -0.1556 -0.4006
  457MOL0     N61611   6.824   5.209   0.928  0.3351 -0.5850  0.5048
  457MOL0     C61612   6.108   4.308   0.883  0.4351 -0.1323  0.5311
  457MOL0     C61613   5.971   4.285   0.851  0.9125  0.8111 -0.7355
  457MOL0     C61614   5.528   4.352   0.739 -0.0729 -0.1014  0.1796
  457MOL0     C61615   5.474   4.270   0.640 -0.3486  0.6027  0.5986
  457MOL0     C61616   5.355   4.305   0.579 -0.0269  0.0000  0.8094
  457MOL0     C61617   5.277   4.413   0.620 -0.0103  0.7168 -0.0225
  457MOL0     O61618   5.163   4.461   0.564 -0.5420  0.9948  1.0183
  457MOL0     C61619   5.121   4.404   0.440  0.5218 -1.4142  0.3863
  457MOL0     C61620   4.961   4.397   0.427  0.6669  0.4515 -0.5068
  457MOL0     C61621   4.896   4.318   0.546  0.1342  0.3284  0.0714
  457MOL0     C61622   4.747   4.280   0.513  0.1943 -0.7165 -0.4041
  457MOL0     C61623   4.678   4.400   0.459 -0.1721  0.4084  2.0330
  457MOL0     C61624   4.616   4.499   0.425  0.0785  0.5579  0.2942
  457MOL0     C61625   5.327   4.488   0.730  0.0272 -0.4913 -0.4773
  457MOL0     C61626   5.449   4.457   0.794  0.6463 -0.0763  0.0299
  457MOL0     C61627   5.483   4.552   0.906 -0.6982 -0.3784 -0.0606
  457MOL0     H61628   5.825   4.516   1.036 -1.1941 -0.6039 -0.2999
  457MOL0     H61629   6.061   4.581   1.090  1.1351 -0.1979  1.1390
  457MOL0     H61630   6.341   4.245   1.026  0.0853 -0.2817  0.2820
  457MOL0     H61631   6.419   4.350   0.905 -1.8931 -1.5411 -0.8481
  457MOL0     H61632   6.556   4.288   1.103 -0.9547 -0.8277  2.1209
  457MOL0     H61633   6.440   4.384   1.207 -4.5277 -0.8184 -2.2873
  457MOL0     H61634   6.609   4.505   0.997 -0.1908 -0.9128 -0.3371
  457MOL0     H61635   6.644   4.508   1.171 -0.5286  1.8236  0.8925
  457MOL0     H61636   6.415   4.655   1.021 -2.0311 -1.6380  0.7419
  457MOL0     H61637   6.414   4.634   1.197  0.1703 -1.4015  0.7922
  457MOL0     H61638   6.520   4.842   1.159  0.6905  1.6494 -2.8401
  457MOL0     H61639   6.645   4.724   1.208 -2.1943 -1.5217  0.8764
  457MOL0     H61640   6.713   4.690   0.987  0.4613  0.2338  1.8831
  457MOL0     H61641   6.597   4.794   0.918 -2.3906 -1.5069  1.2458
  457MOL0     H61642   6.830   4.895   0.951  1.8724  0.3658  2.6623
  457MOL0     H61643   6.804   4.886   1.126 -0.4333  0.8361  0.2919
  457MOL0     H61644   6.638   5.019   0.925  0.5040 -1.8449  0.4398
  457MOL0     H61645   6.603   5.042   1.097 -0.8670 -0.7590  0.2309
  457MOL0     H61646   6.801   5.162   1.252  0.4622  3.6516  0.8322
  457MOL0     H61647   6.933   5.493   1.164 -0.7187 -0.1923 -3.3780
  457MOL0     H61648   6.980   5.374   1.297  0.0246  0.6562  0.1403
  457MOL0     H61649   7.175   5.310   1.161 -0.8715 -0.2609 -0.0733
  457MOL0     H61650   7.136   5.423   1.032 -0.3277  1.1761  0.5137
  457MOL0     H61651   7.201   5.501   1.327  0.3331  0.1385  1.2419
  457MOL0     H61652   7.146   5.609   1.192 -0.4836 -2.6250 -2.5925
  457MOL0     H61653   7.364   5.562   1.070  1.3229 -2.1844  0.4002
  457MOL0     H61654   7.412   5.462   1.212  1.9745 -1.0201 -3.2543
  457MOL0     H61655   7.487   5.880   1.312  1.7725 -0.0389  1.9606
  457MOL0     H61656   7.690   5.981   1.253 -1.5466 -0.0164 -0.3127
  457MOL0     H61657   8.194   5.682   0.941 -0.0396 -0.2950 -0.7052
  457MOL0     H61658   8.410   5.742   0.888 -0.4213 -0.1022 -0.4083
  457MOL0     H61659   8.619   5.821   0.875 -1.2434  0.1249  1.6872
  457MOL0     H61660   8.595   5.961   0.765 -2.0463 -1.8413 -0.8243
  457MOL0     H61661   8.806   5.946   0.785  2.1044 -0.0627  1.1617
  457MOL0     H61662   8.751   6.091   0.876 -0.4310  0.1536 -2.0548
  457MOL0     H61663   8.790   5.955   1.088  1.9895  1.6831  0.9933
  457MOL0     H61664   8.826   5.815   0.989  1.1387 -0.1588 -2.7310
  457MOL0     H61665   8.995   6.070   0.974  0.0126  0.4972 -0.4381
  457MOL0     H61666   9.033   5.926   0.883 -0.9829  1.5429 -0.5994
  457MOL0     H61667   9.076   5.788   1.093 -3.1435 -0.2801 -1.9854
  457MOL0     H61668   9.059   5.934   1.193  1.0741 -0.1621  0.3080
  457MOL0     H61669   9.258   5.890   0.982 -1.3465 -3.5830  0.3406
  457MOL0     H61670   9.231   6.052   1.061  1.1271  0.1228  5.4559
  457MOL0     H61671   9.332   5.796   1.191 -2.1778 -0.2179 -4.8547
  457MOL0     H61672   9.274   5.928   1.287  0.1532 -3.6934  0.7417
  457MOL0     H61673   9.443   6.074   1.107 -0.0786  1.3351  0.8068
  457MOL0     H61674   9.516   6.001   1.249 -1.1035 -1.2658  0.5713
  457MOL0     H61675   8.331   6.134   1.068  0.4543  0.1746 -0.1452
  457MOL0     H61676   8.114   6.061   1.118  0.7058  1.4046 -0.8947
  457MOL0     H61677   7.820   5.626   1.050  1.2456 -0.4043  1.1651
  457MOL0     H61678   7.605   5.518   1.115 -2.4071 -0.6086  1.0962
  457MOL0     H61679   6.185   4.261   0.823 -1.0948  0.8797 -2.4205
  457MOL0     H61680   5.923   4.203   0.797 -1.9780  3.8919 -3.2465
  457MOL0     H61681   5.535   4.187   0.606  1.6408  1.4548  1.9351
  457MOL0     H61682   5.332   4.235   0.500  1.2409  0.2707  0.1712
  457MOL0     H61683   5.159   4.303   0.426 -0.4798 -2.0671  2.1205
  457MOL0     H61684   5.157   4.465   0.357  0.2664  0.1879  1.4062
  457MOL0     H61685   4.946   4.348   0.330 -0.5700  1.2418 -0.7384
  457MOL0     H61686   4.914   4.495   0.412 -0.4581  0.1023  0.5119
  457MOL0     H61687   4.903   4.371   0.641  0.1040 -1.1827  0.9463
  457MOL0     H61688   4.947   4.223   0.560 -1.9405 -0.5593  2.5306
  457MOL0     H61689   4.747   4.193   0.448  0.8712 -2.4866  1.8547
  457MOL0     H61690   4.706   4.248   0.610 -0.4355  1.2394  0.0312
  457MOL0     H61691   4.583   4.598   0.400  2.3680  1.6434  1.2848
  457MOL0     H61692   5.267   4.568   0.772  0.5017 -0.8246  0.8558
  457MOL0     H61693   5.529   4.638   0.856 -1.0086  0.2824  0.7724
  457MOL0     H61694   5.388   4.583   0.951  0.1504  3.3861 -0.5201
  457MOL0     H61695   5.552   4.504   0.976 -1.3389 -2.8480 -1.0228
  458MOL0     O61696   0.725   9.138  10.664 -0.0096  0.3262 -0.0602
  458MOL0     C61697   0.705   9.127  10.544 -0.2811 -0.1493 -0.4159
  458MOL0     O61698   0.801   9.111  10.446  0.1731 -0.1664  0.3198
  458MOL0     C61699   0.937   9.138  10.455  0.3489 -0.0079  0.5475
  458MOL0     C61700   1.036   9.084  10.369 -0.0267 -0.0309 -0.0068
  458MOL0     C61701   1.174   9.099  10.377  0.1755  0.8919  0.1475
  458MOL0     C61702   1.220   9.168  10.489 -0.1908 -0.1102  0.5565
  458MOL0     O61703   1.349   9.194  10.505 -0.0648  0.2188  0.2848
  458MOL0     C61704   1.396   9.320  10.460  0.1972  1.0273 -0.5586
  458MOL0     C61705   1.555   9.322  10.437  0.0405  0.3141 -0.7038
  458MOL0     C61706   1.596   9.463  10.398  0.6272 -0.5852  0.6704
  458MOL0     C61707   1.734   9.468  10.353 -1.1014  1.0139  0.4914
  458MOL0     C61708   1.795   9.606  10.389  0.5903  1.3936 -0.3842
  458MOL0     C61709   1.839   9.615  10.529 -0.1621  1.5653  0.5711
  458MOL0     C61710   1.889   9.752  10.567 -0.2410  0.3946  0.4582
  458MOL0     C61711   1.944   9.743  10.710 -0.9185  0.9048 -0.9045
  458MOL0     N61712   1.972   9.880  10.759  0.5776  0.1653 -0.3442
  458MOL0     C61713   2.093   9.935  10.769 -0.2243  0.3190 -0.4242
  458MOL0     C61714   2.075  10.054  10.835  0.8133  0.1973  0.1608
  458MOL0     C61715   2.189  10.148  10.854 -1.0974  0.2230  0.3252
  458MOL0     C61716   2.157  10.293  10.811 -0.4968  0.4315  0.2053
  458MOL0     C61717   2.248  10.392  10.894 -0.2611  0.6142  0.0251
  458MOL0     C61718   2.391  10.424  10.835  0.8268  0.6605 -0.4879
  458MOL0     O61719   2.475  10.314  10.844  0.0343  0.2954 -0.4003
  458MOL0     C61720   2.606  10.345  10.839  0.5223  0.8693  0.0881
  458MOL0     C61721   2.661  10.467  10.800 -0.1801  0.2155  0.1560
  458MOL0     C61722   2.804  10.484  10.790 -0.3375 -0.0555 -0.0258
  458MOL0     C61723   2.893  10.385  10.827  0.2292  0.4632  0.1170
  458MOL0     C61724   3.042  10.398  10.818  1.1851  0.0589 -0.0319
  458MOL0     O61725   3.114  10.288  10.836  0.7703  0.6605 -0.2053
  458MOL0     C61726   3.254  10.294  10.829  0.0968 -0.2445  0.7408
  458MOL0     C61727   3.325  10.200  10.776 -0.2661  0.7173  0.4694
  458MOL0     C61728   3.466  10.209  10.773  0.0753 -0.0673  0.0378
  458MOL0     C61729   3.542  10.322  10.823 -0.8659  0.3877  0.6318
  458MOL0     O61730   3.675  10.331  10.789 -0.5809 -0.0792  0.0538
  458MOL0     C61731   3.741  10.461  10.807  0.9037  1.0480  0.4300
  458MOL0     C61732   3.872  10.448  10.744  0.3920  0.1569  0.4617
  458MOL0     C61733   3.859  10.422  10.592  0.1639 -0.3566 -0.3430
  458MOL0     C61734   3.800  10.533  10.508  0.7442 -0.1272 -0.4540
  458MOL0     C61735   3.785  10.499  10.358  1.0015  0.2087  0.0541
  458MOL0     C61736   3.748  10.625  10.281 -0.2418 -0.3369 -0.5833
  458MOL0     C61737   3.832  10.756  10.293 -0.1867  0.0199  0.4121
  458MOL0     C61738   3.984  10.734  10.256 -0.3935 -0.2599  0.4905
  458MOL0    Cl61739   4.055  10.891  10.212 -0.1305  0.1352  0.1515
  458MOL0     C61740   3.467  10.418  10.883  0.8472  0.3322  0.2840
  458MOL0     C61741   3.329  10.407  10.889 -0.5137 -0.2242  0.4144
  458MOL0     O61742   3.085  10.507  10.776  0.0679  0.0425 -0.0846
  458MOL0     C61743   2.830  10.264  10.876 -0.8171 -0.0309  0.1454
  458MOL0     C61744   2.697  10.240  10.871  0.3498 -0.0200  0.5381
  458MOL0     N61745   1.941  10.057  10.872 -0.7171 -0.3064 -0.0078
  458MOL0     N61746   1.887   9.949  10.841  0.7205  0.0763  0.5041
  458MOL0     C61747   1.131   9.231  10.569 -0.3767  0.6012 -0.2584
  458MOL0     C61748   0.989   9.211  10.561 -0.6651 -0.4008 -0.4459
  458MOL0     C61749   0.567   9.141  10.511 -0.3373 -0.2881  0.3263
  458MOL0     C61750   0.476   9.211  10.587  0.8574  0.1790 -1.2919
  458MOL0     C61751   0.338   9.205  10.555 -0.6491  0.1625 -0.2994
  458MOL0     C61752   0.290   9.147  10.444  0.1849  1.3263 -0.1713
  458MOL0     O61753   0.162   9.151  10.416 -1.0043 -0.5409 -0.0794
  458MOL0     C61754   0.075   9.056  10.480 -0.2992 -0.0562 -0.3937
  458MOL0     C61755   0.064   8.934  10.387  0.4888  0.5986  0.8182
  458MOL0     C61756  -0.040   8.963  10.276  0.9160 -0.3886  1.3191
  458MOL0     C61757  -0.083   8.835  10.211 -0.1563  0.6530 -1.0716
  458MOL0     C61758  -0.146   8.860  10.082 -0.3480  0.1683  0.9574
  458MOL0     C61759  -0.219   8.896   9.992  1.0689 -0.2743  0.1646
  458MOL0     C61760   0.379   9.079  10.358 -0.6972  1.0497 -0.0140
  458MOL0     C61761   0.511   9.065  10.398 -0.2170  0.4076  0.3568
  458MOL0     C61762   0.601   8.986  10.296 -0.1625  0.4996  0.4190
  458MOL0     H61763   1.011   9.031  10.277 -1.3028  0.6521 -0.0682
  458MOL0     H61764   1.250   9.067  10.307 -1.7131 -2.8528 -0.4414
  458MOL0     H61765   1.356   9.332  10.359  2.1317 -0.3230 -1.5437
  458MOL0     H61766   1.362   9.388  10.539 -0.8058 -1.6398  1.4777
  458MOL0     H61767   1.580   9.256  10.354  0.8276 -0.2530 -0.0407
  458MOL0     H61768   1.602   9.296  10.533 -0.2140  2.6136  0.1170
  458MOL0     H61769   1.580   9.528  10.484 -1.5244 -0.1250  0.0148
  458MOL0     H61770   1.532   9.509  10.322  0.3899 -0.0697  1.1732
  458MOL0     H61771   1.791   9.390  10.403 -0.1778  2.3443  1.5922
  458MOL0     H61772   1.747   9.472  10.245 -0.5305  0.6811  0.5469
  458MOL0     H61773   1.880   9.619  10.322  1.3450  0.9788  0.4602
  458MOL0     H61774   1.717   9.673  10.353  1.0772  1.7039 -0.8639
  458MOL0     H61775   1.757   9.588  10.597 -0.6502  0.3140 -0.4715
  458MOL0     H61776   1.925   9.551  10.553  0.4006  1.9676 -0.3460
  458MOL0     H61777   1.805   9.820  10.548 -1.5743 -1.1868  0.4380
  458MOL0     H61778   1.968   9.788  10.501 -0.0947 -0.3178  0.2296
  458MOL0     H61779   1.876   9.699  10.782  0.0442  1.1608  0.1939
  458MOL0     H61780   2.038   9.688  10.715 -1.0506  0.8262  1.9455
  458MOL0     H61781   2.183   9.886  10.734  0.2605 -0.5296  1.8259
  458MOL0     H61782   2.209  10.155  10.961  2.7025 -1.0922 -0.1508
  458MOL0     H61783   2.275  10.109  10.799 -1.4820  0.2352 -0.3100
  458MOL0     H61784   2.168  10.309  10.703 -1.4597 -3.1392 -0.5564
  458MOL0     H61785   2.051  10.315  10.831 -1.3229 -1.9935 -1.1009
  458MOL0     H61786   2.244  10.358  10.998 -0.2341  2.8408  0.7885
  458MOL0     H61787   2.188  10.483  10.888 -1.5286 -0.1448  0.8243
  458MOL0     H61788   2.437  10.510  10.883  2.2019  0.4764 -1.4202
  458MOL0     H61789   2.374  10.441  10.728  0.0731 -0.7604 -0.6187
  458MOL0     H61790   2.603  10.555  10.773 -1.6387 -0.2276  1.6629
  458MOL0     H61791   2.847  10.581  10.769  0.1656  0.6035  3.4957
  458MOL0     H61792   3.275  10.112  10.736 -1.1561  0.9809  0.9645
  458MOL0     H61793   3.517  10.123  10.732  1.2978  0.2823  0.7538
  458MOL0     H61794   3.679  10.532  10.752  0.2946  0.9478  0.9686
  458MOL0     H61795   3.742  10.480  10.915  2.2397 -0.3625  0.7124
  458MOL0     H61796   3.923  10.544  10.756 -1.3071  1.3075 -1.1125
  458MOL0     H61797   3.932  10.369  10.791 -1.7744 -1.5349  0.5661
  458MOL0     H61798   3.958  10.403  10.549  0.9390 -0.6737  1.4708
  458MOL0     H61799   3.796  10.333  10.580  0.5149 -0.7223  0.4316
  458MOL0     H61800   3.853  10.628  10.521 -1.7526  1.1124  1.4996
  458MOL0     H61801   3.702  10.556  10.551  1.0779 -0.9690  0.8024
  458MOL0     H61802   3.710  10.423  10.333  1.4478  0.4843 -2.3791
  458MOL0     H61803   3.884  10.468  10.324  1.5044  0.1268  1.5276
  458MOL0     H61804   3.749  10.595  10.176  0.6349  0.0655 -0.7039
  458MOL0     H61805   3.648  10.657  10.312 -0.0661 -0.0126 -0.3361
  458MOL0     H61806   3.818  10.809  10.388  2.3473 -0.8714  1.3409
  458MOL0     H61807   3.784  10.829  10.226  1.6578 -1.2037 -2.4131
  458MOL0     H61808   4.036  10.696  10.344 -1.5022 -3.5322 -0.1208
  458MOL0     H61809   3.986  10.656  10.180 -1.6702 -0.3026  0.4699
  458MOL0     H61810   3.507  10.508  10.930  0.2022  1.7849 -1.8071
  458MOL0     H61811   3.274  10.485  10.941 -1.8308 -1.1413  0.4557
  458MOL0     H61812   2.893  10.183  10.912  1.5075  2.0649  1.0735
  458MOL0     H61813   2.653  10.144  10.897  0.3745 -0.4041 -0.8006
  458MOL0     H61814   1.174   9.296  10.644  3.1324  0.7904 -2.2144
  458MOL0     H61815   0.934   9.253  10.645  1.6099  1.1527  0.3634
  458MOL0     H61816   0.505   9.266  10.676 -1.5531 -3.4533  2.0953
  458MOL0     H61817   0.262   9.247  10.621 -0.3702 -1.7353  1.3138
  458MOL0     H61818  -0.023   9.099  10.500 -0.2113 -0.4276  0.9153
  458MOL0     H61819   0.125   9.024  10.572  0.1881  1.8107  0.0426
  458MOL0     H61820   0.038   8.848  10.449  0.7422 -1.4679 -1.7933
  458MOL0     H61821   0.158   8.913  10.335  1.8523  2.1430  2.5224
  458MOL0     H61822   0.002   9.008  10.186 -3.0347  1.0210 -0.0403
  458MOL0     H61823  -0.136   9.011  10.299  0.0845 -1.5171  0.3430
  458MOL0     H61824  -0.001   8.766  10.188  0.0856  0.6474 -0.2145
  458MOL0     H61825  -0.152   8.775  10.270 -0.2505 -0.1489 -1.9566
  458MOL0     H61826  -0.285   8.906   9.909  2.5598  0.4426 -0.9775
  458MOL0     H61827   0.338   9.036  10.267 -0.0280 -0.7772  0.5007
  458MOL0     H61828   0.667   8.911  10.340  1.2974  0.3388 -1.8612
  458MOL0     H61829   0.547   8.919  10.229 -1.7392  1.7426  0.3920
  458MOL0     H61830   0.669   9.049  10.237 -1.1267 -0.4108 -1.7884
  459MOL0     O61831   8.608   6.337  10.994 -0.0199  0.3488 -0.5596
  459MOL0     C61832   8.579   6.391  11.103 -0.2649 -0.2039  0.3251
  459MOL0     O61833   8.456   6.389  11.159 -0.1347 -0.4649 -0.1150
  459MOL0     C61834   8.356   6.312  11.112  0.5044 -0.2330  0.7488
  459MOL0     C61835   8.278   6.249  11.205  0.3479  0.1665  0.1442
  459MOL0     C61836   8.171   6.164  11.168 -0.0480  0.2353  0.5004
  459MOL0     C61837   8.152   6.127  11.037  0.1078 -0.1703  0.1105
  459MOL0     O61838   8.054   6.032  10.991 -0.6882 -0.0343 -0.5149
  459MOL0     C61839   7.986   5.947  11.084  0.1834  0.1663  0.8951
  459MOL0     C61840   7.872   6.020  11.162 -0.3140  0.1553  0.4867
  459MOL0     C61841   7.778   5.909  11.204 -1.1516 -0.4902 -0.9007
  459MOL0     C61842   7.826   5.830  11.327  0.0068  0.6177  0.0505
  459MOL0     C61843   7.726   5.719  11.370 -0.4166 -0.2342 -0.7051
  459MOL0     C61844   7.782   5.622  11.470  0.0072 -0.1037  0.0983
  459MOL0     C61845   7.713   5.488  11.466  1.1111  0.8529  0.5472
  459MOL0     C61846   7.768   5.382  11.564  0.5635  0.4376 -0.1033
  459MOL0     N61847   7.913   5.348  11.529  0.0457  0.6585  0.2109
  459MOL0     C61848   8.032   5.389  11.587  0.1725  0.5003 -0.4445
  459MOL0     C61849   8.129   5.344  11.505 -0.3497  0.3872 -0.0706
  459MOL0     C61850   8.273   5.384  11.511 -0.3602 -0.4041 -0.1828
  459MOL0     C61851   8.334   5.330  11.635 -0.1804 -0.6631 -0.1430
  459MOL0     C61852   8.489   5.333  11.623  0.1834  0.5313  0.2707
  459MOL0     C61853   8.544   5.461  11.673  0.0037  0.1274  0.6787
  459MOL0     O61854   8.680   5.442  11.670 -0.2019 -0.0718  0.3009
  459MOL0     C61855   8.762   5.551  11.669 -0.2017 -0.0432  0.4374
  459MOL0     C61856   8.752   5.649  11.569 -0.9358  0.7639  0.3677
  459MOL0     C61857   8.851   5.748  11.556  0.7242  0.7562  0.2260
  459MOL0     C61858   8.964   5.743  11.637 -0.1354  0.2744  0.3007
  459MOL0     C61859   9.071   5.844  11.612  0.6506  0.6335  0.0982
  459MOL0     O61860   9.039   5.944  11.515  0.2294  0.3822  0.1687
  459MOL0     C61861   9.129   6.044  11.469 -0.5109  0.0101  0.1737
  459MOL0     C61862   9.073   6.162  11.426 -0.0717  0.7379  0.2169
  459MOL0     C61863   9.156   6.274  11.390  0.1944  1.3693  0.4100
  459MOL0     C61864   9.292   6.260  11.369 -0.0286  0.1896 -0.1986
  459MOL0     O61865   9.375   6.345  11.298  0.7321 -0.0164 -0.2091
  459MOL0     C61866   9.331   6.485  11.297  0.7509  0.4610  0.0526
  459MOL0     C61867   9.420   6.574  11.220 -0.1053 -0.1938 -0.0873
  459MOL0     C61868   9.547   6.623  11.290  0.2865 -0.5820  0.2838
  459MOL0     C61869   9.646   6.705  11.206  0.2956 -0.2815  0.3917
  459MOL0     C61870   9.773   6.731  11.289 -0.1316  0.5294  0.3483
  459MOL0     C61871   9.852   6.823  11.193 -0.0626  0.8693  0.2571
  459MOL0     C61872   9.983   6.851  11.258 -0.5327 -0.1046  0.2870
  459MOL0     C61873  10.079   6.921  11.154  0.2349  0.4817 -0.3496
  459MOL0    Cl61874  10.216   6.992  11.235 -0.3450 -0.0362 -0.0579
  459MOL0     C61875   9.342   6.123  11.397  0.1121  0.1018 -0.2552
  459MOL0     C61876   9.267   6.027  11.457 -0.8305 -1.1165 -1.0385
  459MOL0     O61877   9.181   5.833  11.661  0.2138  0.5088  0.4895
  459MOL0     C61878   8.971   5.651  11.742 -0.1926 -0.4081 -0.8926
  459MOL0     C61879   8.875   5.552  11.758  0.1381  0.9389 -0.0957
  459MOL0     N61880   8.073   5.268  11.404 -0.0064  0.1880 -0.0196
  459MOL0     N61881   7.945   5.269  11.422  0.0503 -0.4112  0.5758
  459MOL0     C61882   8.237   6.184  10.942 -0.0629 -0.1404 -0.3902
  459MOL0     C61883   8.333   6.282  10.974 -0.2783 -0.4730 -0.3150
  459MOL0     C61884   8.681   6.467  11.181  0.5724 -0.2555  0.4094
  459MOL0     C61885   8.644   6.534  11.300  0.7740  0.0010  0.2118
  459MOL0     C61886   8.743   6.597  11.378  0.9649  0.7454 -0.2002
  459MOL0     C61887   8.870   6.612  11.339 -0.4939  0.1497  0.9908
  459MOL0     O61888   8.969   6.688  11.392  1.1144 -0.0105 -0.4333
  459MOL0     C61889   8.935   6.796  11.481 -0.0827 -0.1779 -0.9867
  459MOL0     C61890   9.058   6.878  11.496 -0.1976 -1.4011 -0.1062
  459MOL0     C61891   9.165   6.811  11.574 -0.5249  0.0669  0.0962
  459MOL0     C61892   9.283   6.904  11.614  1.0463 -0.3469  0.9402
  459MOL0     C61893   9.409   6.834  11.635 -0.3013  0.2582  0.7185
  459MOL0     C61894   9.513   6.772  11.632 -0.9982  0.5321 -0.5131
  459MOL0     C61895   8.907   6.541  11.222 -0.3897 -0.1456 -0.6187
  459MOL0     C61896   8.816   6.466  11.145 -0.1630 -0.1658 -0.3989
  459MOL0     C61897   8.879   6.383  11.039  0.3363  0.7049  0.2034
  459MOL0     H61898   8.305   6.258  11.310  0.5663  3.0066 -0.0660
  459MOL0     H61899   8.115   6.118  11.249  1.0130  1.3897  1.9703
  459MOL0     H61900   7.944   5.859  11.034 -0.6327  0.2282  1.4359
  459MOL0     H61901   8.049   5.901  11.161 -0.3710 -1.6570  0.3164
  459MOL0     H61902   7.825   6.097  11.101  0.8567  0.4318 -0.1011
  459MOL0     H61903   7.908   6.067  11.254 -1.2149  0.7078  0.5673
  459MOL0     H61904   7.761   5.841  11.119 -1.2991 -3.7442  1.5254
  459MOL0     H61905   7.683   5.955  11.230 -1.0788 -0.9770  0.2869
  459MOL0     H61906   7.915   5.773  11.297 -0.1332 -0.2128  1.1660
  459MOL0     H61907   7.845   5.907  11.403 -2.5600  2.2628 -0.8570
  459MOL0     H61908   7.639   5.775  11.404 -0.2156  1.1311 -2.2829
  459MOL0     H61909   7.689   5.666  11.281  0.2478  0.7534 -1.5965
  459MOL0     H61910   7.891   5.627  11.473  0.0222 -0.7743  1.5514
  459MOL0     H61911   7.754   5.649  11.572 -0.5006 -0.3526  0.0318
  459MOL0     H61912   7.725   5.442  11.367  0.3881 -1.4825  1.4839
  459MOL0     H61913   7.608   5.501  11.495 -0.3551  1.9383 -4.2791
  459MOL0     H61914   7.758   5.409  11.670 -0.4620 -1.1378  0.2337
  459MOL0     H61915   7.701   5.297  11.549 -4.0297  3.2006  2.4832
  459MOL0     H61916   8.044   5.449  11.676  3.0890 -2.3645  1.3115
  459MOL0     H61917   8.327   5.346  11.424 -0.7024  0.6715 -0.8982
  459MOL0     H61918   8.284   5.493  11.514 -0.4909 -0.4102  0.5587
  459MOL0     H61919   8.301   5.374  11.730 -1.6132  2.1907 -1.8305
  459MOL0     H61920   8.305   5.225  11.651  1.3375 -0.7021  3.1293
  459MOL0     H61921   8.513   5.311  11.518  1.3805 -0.4138  0.7269
  459MOL0     H61922   8.518   5.248  11.684 -1.7244 -1.0879 -0.9681
  459MOL0     H61923   8.514   5.477  11.777  0.1978  1.5341  0.5509
  459MOL0     H61924   8.507   5.535  11.601  0.9586 -2.3442 -2.6176
  459MOL0     H61925   8.672   5.643  11.496 -0.8257  1.1848  0.2045
  459MOL0     H61926   8.832   5.839  11.500 -0.6742  1.7762  2.2360
  459MOL0     H61927   8.965   6.156  11.434  0.1353 -1.8276  3.0670
  459MOL0     H61928   9.098   6.363  11.366 -1.1313  1.5005  3.6103
  459MOL0     H61929   9.236   6.495  11.245 -0.2171 -0.0058  1.6548
  459MOL0     H61930   9.318   6.514  11.402 -1.4657 -2.5490  0.7406
  459MOL0     H61931   9.458   6.535  11.125  0.9237  2.8473 -1.0723
  459MOL0     H61932   9.364   6.661  11.183 -1.1130 -0.4583  0.7636
  459MOL0     H61933   9.505   6.691  11.365 -1.5592  0.6625 -1.7736
  459MOL0     H61934   9.605   6.543  11.337  1.9656 -0.1282 -0.9465
  459MOL0     H61935   9.596   6.800  11.184 -0.5725 -0.1393  2.6581
  459MOL0     H61936   9.675   6.658  11.111  2.1669 -0.6859  1.1345
  459MOL0     H61937   9.821   6.635  11.309 -0.1328  0.0113 -1.8925
  459MOL0     H61938   9.754   6.781  11.385 -1.3318 -0.3914  0.6150
  459MOL0     H61939   9.870   6.774  11.097 -0.5136 -0.4998  0.8306
  459MOL0     H61940   9.797   6.917  11.185 -0.1895  0.6872 -1.1729
  459MOL0     H61941  10.024   6.753  11.284 -2.5910 -0.9704  0.4514
  459MOL0     H61942   9.977   6.907  11.353  1.4579  2.2817 -0.8890
  459MOL0     H61943  10.105   6.846  11.079 -4.8656 -1.2070 -0.8314
  459MOL0     H61944  10.021   6.995  11.098  0.9268  0.1604 -1.5410
  459MOL0     H61945   9.450   6.110  11.392  0.1153 -1.0532  1.7523
  459MOL0     H61946   9.326   5.944  11.494  1.5524  2.4560  4.3692
  459MOL0     H61947   9.059   5.652  11.805 -0.1335  1.6750 -0.9417
  459MOL0     H61948   8.886   5.478  11.837 -1.7944  1.3454  0.6086
  459MOL0     H61949   8.220   6.155  10.839  0.3462  1.8913 -1.0853
  459MOL0     H61950   8.382   6.342  10.898 -0.4887 -2.0002 -1.7155
  459MOL0     H61951   8.542   6.535  11.338  0.7623 -1.5739  0.2882
  459MOL0     H61952   8.711   6.634  11.475 -0.6570  0.3836 -0.5610
  459MOL0     H61953   8.902   6.770  11.582  4.2222  2.1767  1.2978
  459MOL0     H61954   8.853   6.856  11.441  0.1887  1.2889  0.5383
  459MOL0     H61955   9.024   6.970  11.544  1.2889 -0.4903 -0.7343
  459MOL0     H61956   9.106   6.905  11.402 -2.0868 -2.2875 -1.3827
  459MOL0     H61957   9.203   6.734  11.505 -0.7749  1.3367 -1.5299
  459MOL0     H61958   9.127   6.764  11.664 -0.6624 -1.5471 -0.7687
  459MOL0     H61959   9.292   6.960  11.521  0.2181 -0.8122  0.5754
  459MOL0     H61960   9.265   6.970  11.700 -0.6860  0.1945  0.1838
  459MOL0     H61961   9.607   6.722  11.619 -1.5192 -0.4850 -0.4896
  459MOL0     H61962   9.010   6.545  11.187 -1.7427  3.0862 -5.1489
  459MOL0     H61963   8.858   6.277  11.053 -1.9402  0.9857 -0.7481
  459MOL0     H61964   8.834   6.407  10.943 -2.6019 -1.5194  0.9074
  459MOL0     H61965   8.983   6.403  11.011 -0.2895  2.1535 -1.2424
  460MOL0     O61966   1.943   5.163   7.527  0.1491  0.2012 -0.7184
  460MOL0     C61967   1.889   5.051   7.540 -0.2960 -0.0997 -0.5787
  460MOL0     O61968   1.964   4.933   7.562 -0.7184  0.1261  0.0525
  460MOL0     C61969   2.102   4.926   7.572  0.1346 -0.8215  0.5251
  460MOL0     C61970   2.177   4.838   7.495  0.2277 -0.6170  0.7278
  460MOL0     C61971   2.320   4.857   7.489  0.6799 -1.0988 -0.3021
  460MOL0     C61972   2.388   4.948   7.568 -0.0472 -0.1432 -0.7490
  460MOL0     O61973   2.519   4.976   7.578 -0.1673 -0.6776  0.3464
  460MOL0     C61974   2.607   4.873   7.541 -0.4243 -0.0152 -0.2662
  460MOL0     C61975   2.648   4.874   7.392  0.0464  0.0858 -0.2962
  460MOL0     C61976   2.784   4.806   7.359 -0.1456 -0.4762 -0.3045
  460MOL0     C61977   2.909   4.894   7.392  0.6070  0.8842  0.5878
  460MOL0     C61978   3.038   4.848   7.308  0.0229 -0.1786 -0.0082
  460MOL0     C61979   3.166   4.926   7.350 -0.4369  0.3378  0.3764
  460MOL0     C61980   3.157   5.077   7.340  0.3807  0.3859  0.0852
  460MOL0     C61981   3.260   5.154   7.423 -0.2608  0.4081 -0.4238
  460MOL0     N61982   3.395   5.145   7.366 -0.0760  0.5794 -0.8660
  460MOL0     C61983   3.485   5.040   7.390 -0.2424 -0.0588 -1.2223
  460MOL0     C61984   3.602   5.095   7.346 -0.7268  0.9894  0.4613
  460MOL0     C61985   3.737   5.024   7.345  0.0405  0.0268 -0.3508
  460MOL0     C61986   3.857   5.109   7.286  0.7666 -0.8672  0.7210
  460MOL0     C61987   3.980   5.016   7.294  0.2872  0.4413  0.1597
  460MOL0     C61988   4.076   5.036   7.172 -0.4701  0.7803  0.6350
  460MOL0     O61989   4.178   4.942   7.168 -0.0017 -1.0247 -0.2327
  460MOL0     C61990   4.261   4.931   7.276 -0.0527  0.2388  0.2749
  460MOL0     C61991   4.278   5.027   7.374 -0.6460  0.1398  0.2025
  460MOL0     C61992   4.374   5.020   7.473  0.8386  0.1534  0.2566
  460MOL0     C61993   4.446   4.903   7.494  0.0380 -0.4431  0.2982
  460MOL0     C61994   4.528   4.882   7.611 -0.0681 -0.2275 -0.5170
  460MOL0     O61995   4.622   4.773   7.602 -0.2820 -0.0416 -0.6928
  460MOL0     C61996   4.688   4.749   7.715 -1.0295 -0.1228  0.1454
  460MOL0     C61997   4.651   4.668   7.821 -0.2793  0.5857 -0.4066
  460MOL0     C61998   4.727   4.648   7.926  0.2190  0.0383 -0.8426
  460MOL0     C61999   4.859   4.685   7.928  0.3460  0.4954 -0.6664
  460MOL0     O62000   4.920   4.646   8.047 -0.2376 -0.1626  0.2672
  460MOL0     C62001   5.052   4.700   8.058 -0.1644 -0.0045  1.6661
  460MOL0     C62002   5.110   4.655   8.196  0.6522 -0.1915 -0.7053
  460MOL0     C62003   5.265   4.651   8.210 -0.0569 -0.5697 -0.1233
  460MOL0     C62004   5.311   4.677   8.349 -0.7551 -0.4899  0.3395
  460MOL0     C62005   5.467   4.655   8.344  0.3484  1.3022 -0.0189
  460MOL0     C62006   5.536   4.703   8.472 -0.1858  0.2959 -0.0088
  460MOL0     C62007   5.684   4.667   8.471 -0.0337 -0.7943 -0.1424
  460MOL0     C62008   5.758   4.660   8.600  0.9287  0.0364  0.1836
  460MOL0    Cl62009   5.742   4.806   8.699  0.0501 -0.4785 -0.0266
  460MOL0     C62010   4.911   4.760   7.818 -0.1117 -0.3817 -0.3926
  460MOL0     C62011   4.820   4.791   7.716  0.2870  0.5142 -0.2833
  460MOL0     O62012   4.506   4.949   7.713  0.4123  0.2821 -0.4491
  460MOL0     C62013   4.433   4.808   7.389  0.3364 -0.1389 -1.3084
  460MOL0     C62014   4.342   4.823   7.287 -0.2331  0.0788 -0.1067
  460MOL0     N62015   3.585   5.232   7.312  0.8272  0.3170  0.1131
  460MOL0     N62016   3.459   5.257   7.335 -1.0214 -1.1767 -0.1502
  460MOL0     C62017   2.309   5.024   7.656  0.0114  1.1334 -0.8890
  460MOL0     C62018   2.173   5.005   7.664 -0.4125  0.5374  0.0187
  460MOL0     C62019   1.748   5.032   7.552  0.2819 -0.0380  0.5875
  460MOL0     C62020   1.683   4.910   7.531 -0.1642  0.0266 -0.1647
  460MOL0     C62021   1.552   4.879   7.562 -0.2541 -0.7175  0.9480
  460MOL0     C62022   1.481   4.975   7.629 -0.1858 -0.0947  0.3684
  460MOL0     O62023   1.359   4.935   7.671 -0.5688 -0.0465  0.6812
  460MOL0     C62024   1.277   5.013   7.755 -0.1896 -0.8605  0.2100
  460MOL0     C62025   1.315   4.972   7.898  0.6341 -0.1430 -0.5842
  460MOL0     C62026   1.229   5.024   8.022 -0.0747 -0.1460 -0.1689
  460MOL0     C62027   1.259   4.953   8.158 -0.5897  0.1543  0.6626
  460MOL0     C62028   1.399   4.981   8.202  0.4393 -0.0389  0.1176
  460MOL0     C62029   1.519   4.987   8.211 -0.3060 -0.0264 -0.7171
  460MOL0     C62030   1.527   5.109   7.640  0.6487 -0.0408 -0.0166
  460MOL0     C62031   1.664   5.137   7.602 -0.9041 -0.3645 -0.3798
  460MOL0     C62032   1.700   5.273   7.656 -0.1234  0.2294 -0.3699
  460MOL0     H62033   2.133   4.768   7.424  0.1701 -1.0052  1.1410
  460MOL0     H62034   2.373   4.799   7.414  5.8839  2.5895 -0.0143
  460MOL0     H62035   2.699   4.899   7.595 -0.3115 -0.5996 -0.1751
  460MOL0     H62036   2.582   4.771   7.571  1.8312 -0.1336  1.5475
  460MOL0     H62037   2.646   4.972   7.344  0.6726  0.3546  0.2112
  460MOL0     H62038   2.575   4.814   7.335  0.6508 -1.1051  0.1550
  460MOL0     H62039   2.783   4.781   7.253 -1.6181 -2.1734  0.0625
  460MOL0     H62040   2.793   4.711   7.412 -3.4627 -0.7440  0.0055
  460MOL0     H62041   2.880   4.994   7.357 -0.1703 -0.8320 -4.5106
  460MOL0     H62042   2.926   4.897   7.500  1.8206 -1.1536  0.4926
  460MOL0     H62043   3.045   4.739   7.319 -1.8980 -0.1676  1.9304
  460MOL0     H62044   3.024   4.879   7.204  0.8696  0.6754  0.1157
  460MOL0     H62045   3.184   4.907   7.456  0.0385  1.7986  0.5834
  460MOL0     H62046   3.246   4.879   7.292 -3.3191 -2.2595 -1.8070
  460MOL0     H62047   3.068   5.104   7.397  1.2928 -1.2827  2.4112
  460MOL0     H62048   3.151   5.104   7.234 -1.0382  1.8698  0.5085
  460MOL0     H62049   3.233   5.260   7.431  0.0438  0.4394  0.3155
  460MOL0     H62050   3.273   5.113   7.524 -0.0040  1.6258  0.0619
  460MOL0     H62051   3.462   4.937   7.417  1.5761  0.2760  2.0835
  460MOL0     H62052   3.759   5.004   7.450  0.5840 -0.0715 -0.4815
  460MOL0     H62053   3.719   4.929   7.294 -3.7858 -0.8264  2.1731
  460MOL0     H62054   3.825   5.124   7.183  0.6141 -0.1332  0.8753
  460MOL0     H62055   3.875   5.206   7.333 -0.8966  0.3932 -1.1035
  460MOL0     H62056   3.940   4.918   7.265  1.0259 -0.0656  0.7922
  460MOL0     H62057   4.020   5.026   7.395  1.3466  2.7989 -0.4360
  460MOL0     H62058   4.124   5.134   7.181  3.2533 -0.7900  0.0069
  460MOL0     H62059   4.022   5.024   7.078 -1.1861 -0.4264  1.1750
  460MOL0     H62060   4.214   5.113   7.388 -1.9536 -0.6891 -0.5360
  460MOL0     H62061   4.365   5.098   7.548  0.0111 -0.8590  1.2396
  460MOL0     H62062   4.547   4.636   7.819 -0.2281  0.3359  0.5165
  460MOL0     H62063   4.681   4.576   7.994  0.3983 -1.1055 -1.8986
  460MOL0     H62064   5.111   4.664   7.973 -2.1270 -0.4612  0.4356
  460MOL0     H62065   5.040   4.809   8.061  0.9889  0.4950 -3.3750
  460MOL0     H62066   5.071   4.736   8.258 -0.2149  1.2070 -2.9659
  460MOL0     H62067   5.068   4.558   8.224  2.2274 -0.3491  1.3902
  460MOL0     H62068   5.288   4.548   8.181  1.1130 -0.8024  1.5247
  460MOL0     H62069   5.308   4.719   8.136 -1.1164 -0.1299 -0.3630
  460MOL0     H62070   5.254   4.614   8.418 -3.9098  1.5756 -0.1442
  460MOL0     H62071   5.290   4.783   8.368  0.7773 -0.1721  0.3452
  460MOL0     H62072   5.509   4.716   8.263  2.1698 -1.6112 -1.4328
  460MOL0     H62073   5.481   4.549   8.322 -1.5510  1.1595 -0.7927
  460MOL0     H62074   5.515   4.810   8.481 -0.8523  0.4613 -2.8038
  460MOL0     H62075   5.484   4.647   8.551  1.1972 -0.0899  0.6685
  460MOL0     H62076   5.733   4.744   8.411 -3.4420  1.6993 -0.0154
  460MOL0     H62077   5.701   4.575   8.415  0.9868  0.2358 -1.6035
  460MOL0     H62078   5.709   4.574   8.648 -0.0683 -1.0267 -2.4937
  460MOL0     H62079   5.865   4.639   8.590  1.3450  1.0771  2.0653
  460MOL0     H62080   5.018   4.770   7.805  0.4768 -0.0029  3.6546
  460MOL0     H62081   4.863   4.851   7.636 -0.1835  3.4829  1.5337
  460MOL0     H62082   4.505   4.726   7.396 -1.9185 -2.0958  1.7343
  460MOL0     H62083   4.322   4.742   7.218 -2.5080  0.2390  0.2850
  460MOL0     H62084   2.363   5.090   7.724 -0.8324  0.7084  0.2279
  460MOL0     H62085   2.128   5.061   7.746  1.4275 -0.5909  1.8904
  460MOL0     H62086   1.736   4.839   7.469 -1.0834  0.9207 -2.0424
  460MOL0     H62087   1.506   4.783   7.542  1.4308 -0.9895 -2.2672
  460MOL0     H62088   1.171   4.989   7.751 -0.5544  0.7695 -1.0368
  460MOL0     H62089   1.282   5.118   7.725 -0.1318 -1.6252 -2.6658
  460MOL0     H62090   1.416   4.997   7.929 -0.7663  1.3544  3.4128
  460MOL0     H62091   1.308   4.863   7.904 -0.9708 -0.0035  1.1401
  460MOL0     H62092   1.121   5.009   8.007 -0.8309 -0.6550  4.2890
  460MOL0     H62093   1.248   5.131   8.032  3.8793 -0.5769 -1.5993
  460MOL0     H62094   1.186   4.990   8.230 -0.1726  0.8537  0.7321
  460MOL0     H62095   1.242   4.846   8.146  1.2816  0.0095 -1.3281
  460MOL0     H62096   1.625   4.981   8.224 -0.5246 -0.8525  1.0052
  460MOL0     H62097   1.465   5.185   7.687  0.7981  0.3861 -0.4939
  460MOL0     H62098   1.665   5.346   7.583 -2.3689 -1.5825 -1.2206
  460MOL0     H62099   1.656   5.289   7.755  1.1166  0.1148  0.2132
  460MOL0     H62100   1.805   5.278   7.686 -0.7180  2.0833  1.6715
  461MOL0     O62101   6.558   7.087   9.090 -0.5238 -0.4816  0.2277
  461MOL0     C62102   6.539   7.200   9.133  0.3871  0.3199  0.4712
  461MOL0     O62103   6.626   7.307   9.123  0.4191  0.1284  0.0712
  461MOL0     C62104   6.747   7.298   9.064 -0.0555 -0.2540 -1.1361
  461MOL0     C62105   6.760   7.285   8.922  0.7738  0.3832  0.2714
  461MOL0     C62106   6.882   7.279   8.863  0.2293  0.5579  0.0558
  461MOL0     C62107   6.998   7.294   8.942  0.5225 -0.0471 -0.5838
  461MOL0     O62108   7.128   7.274   8.901 -0.3815  0.6207  0.0462
  461MOL0     C62109   7.171   7.315   8.774 -0.1833  0.3444 -0.2515
  461MOL0     C62110   7.313   7.367   8.793  1.0534  0.6710  0.3946
  461MOL0     C62111   7.375   7.427   8.668 -0.3766 -0.3081 -0.4179
  461MOL0     C62112   7.523   7.455   8.701 -0.8278 -0.1334 -0.0034
  461MOL0     C62113   7.615   7.443   8.574  0.3435  1.1171 -0.3912
  461MOL0     C62114   7.766   7.441   8.598 -0.1142  0.4251  0.1436
  461MOL0     C62115   7.843   7.395   8.474  1.0156 -0.9490  0.2874
  461MOL0     C62116   7.883   7.503   8.380  0.9188 -1.0744  0.0844
  461MOL0     N62117   7.996   7.583   8.433  0.7388  0.6235  0.3338
  461MOL0     C62118   8.129   7.558   8.428 -0.6459 -0.3690 -0.4243
  461MOL0     C62119   8.190   7.671   8.482 -0.2878  0.8936 -0.4214
  461MOL0     C62120   8.331   7.720   8.491  1.2125 -0.8778  0.1446
  461MOL0     C62121   8.387   7.749   8.354 -0.1172  0.3598  0.3800
  461MOL0     C62122   8.512   7.841   8.361  0.0287  0.6731 -0.1136
  461MOL0     C62123   8.588   7.830   8.230 -0.2305  0.2514 -0.2148
  461MOL0     O62124   8.681   7.724   8.227 -0.5868  0.0023  0.3970
  461MOL0     C62125   8.813   7.757   8.253  0.2051 -0.4251 -0.5563
  461MOL0     C62126   8.856   7.868   8.327  0.5271 -0.0578  0.6380
  461MOL0     C62127   8.996   7.880   8.347 -0.0861  0.4097  0.4065
  461MOL0     C62128   9.087   7.800   8.286  0.9366 -0.1827  0.0561
  461MOL0     C62129   9.223   7.820   8.324 -0.6297  0.5891  0.4331
  461MOL0     O62130   9.255   7.905   8.422 -0.7848 -0.5066 -0.2704
  461MOL0     C62131   9.380   7.926   8.465 -0.0929 -0.4077 -1.1371
  461MOL0     C62132   9.391   8.041   8.547  0.1396  0.7420  1.0872
  461MOL0     C62133   9.513   8.089   8.600  0.4482 -0.4234  0.1303
  461MOL0     C62134   9.628   8.033   8.568  0.6276  0.5073 -0.2433
  461MOL0     O62135   9.747   8.075   8.607 -0.2183 -0.2826 -0.7648
  461MOL0     C62136   9.762   8.185   8.703 -0.3172  0.8221  0.8511
  461MOL0     C62137   9.911   8.221   8.719 -0.2927 -0.6981 -0.1659
  461MOL0     C62138   9.994   8.119   8.801 -0.5006  0.2969 -0.0609
  461MOL0     C62139  10.021   8.139   8.950  0.1450  0.3458 -0.4595
  461MOL0     C62140  10.080   8.014   9.016 -1.0779 -0.3626 -0.6708
  461MOL0     C62141  10.214   7.981   8.959 -0.6095 -0.1276 -0.1938
  461MOL0     C62142  10.257   7.841   9.001 -0.0455 -0.6979 -0.1851
  461MOL0     C62143  10.402   7.814   8.961  0.3949  1.0037 -0.4262
  461MOL0    Cl62144  10.453   7.646   8.976  0.3563 -0.0786  0.2429
  461MOL0     C62145   9.626   7.919   8.479 -0.6558 -0.2732  0.0700
  461MOL0     C62146   9.506   7.867   8.427  0.2127 -0.4582  0.2043
  461MOL0     O62147   9.309   7.755   8.258 -0.0546  0.2453  0.1388
  461MOL0     C62148   9.047   7.683   8.212 -0.0501  0.3578  0.3067
  461MOL0     C62149   8.910   7.672   8.199 -0.5334  0.0429 -0.3090
  461MOL0     N62150   8.091   7.767   8.510 -0.1312  0.6065 -0.5483
  461MOL0     N62151   7.977   7.717   8.479  0.2584  0.0039 -0.3060
  461MOL0     C62152   6.987   7.306   9.083 -0.3772  1.0210  0.9413
  461MOL0     C62153   6.867   7.306   9.144  0.1724  0.2768 -0.0658
  461MOL0     C62154   6.406   7.224   9.199  0.6105  0.0169  0.3472
  461MOL0     C62155   6.383   7.357   9.247 -0.0499  0.3135  0.5077
  461MOL0     C62156   6.258   7.395   9.296 -0.7193  0.4203  0.0714
  461MOL0     C62157   6.157   7.295   9.310 -0.0458 -0.3436 -0.0316
  461MOL0     O62158   6.037   7.314   9.365  1.0340  0.3814 -0.1631
  461MOL0     C62159   6.052   7.343   9.507 -0.3612 -0.1019  0.1251
  461MOL0     C62160   5.938   7.290   9.590  0.6508  0.7510  0.6534
  461MOL0     C62161   5.897   7.145   9.555 -0.8774 -0.1639  0.1011
  461MOL0     C62162   5.828   7.063   9.659  0.1898 -0.1279 -0.1030
  461MOL0     C62163   5.768   6.944   9.607  0.5286 -0.0403 -0.5000
  461MOL0     C62164   5.722   6.838   9.579 -0.2032  0.0065  0.2890
  461MOL0     C62165   6.177   7.165   9.259 -0.0835 -0.1093  0.5497
  461MOL0     C62166   6.297   7.136   9.204 -0.1090  0.4896  1.0675
  461MOL0     C62167   6.305   6.998   9.142  0.1246  0.4233 -0.1102
  461MOL0     H62168   6.673   7.262   8.862  1.5945 -1.4507 -0.2932
  461MOL0     H62169   6.893   7.245   8.760 -0.9482  0.3364 -0.0105
  461MOL0     H62170   7.161   7.223   8.716 -2.2408 -2.0027  3.4640
  461MOL0     H62171   7.105   7.384   8.721 -2.2729  0.3872  2.2356
  461MOL0     H62172   7.361   7.272   8.815 -0.2708 -0.5363 -1.5977
  461MOL0     H62173   7.314   7.430   8.883 -0.9277  0.2390  0.7482
  461MOL0     H62174   7.326   7.522   8.645 -1.0005 -0.8628 -1.4671
  461MOL0     H62175   7.358   7.354   8.588 -1.5393 -0.4248 -0.0786
  461MOL0     H62176   7.540   7.552   8.748 -3.5999  0.6700 -0.4862
  461MOL0     H62177   7.557   7.381   8.775  0.3154 -0.2797 -0.6502
  461MOL0     H62178   7.591   7.344   8.535  2.5311 -0.7884  2.5552
  461MOL0     H62179   7.586   7.518   8.500 -2.4107 -0.6630 -1.2724
  461MOL0     H62180   7.799   7.541   8.626  2.0564  0.2195 -1.4547
  461MOL0     H62181   7.793   7.379   8.685  1.3718  1.3592  0.3750
  461MOL0     H62182   7.779   7.335   8.409  0.1834  1.6988 -1.5323
  461MOL0     H62183   7.933   7.342   8.506  1.2193 -2.0992 -1.9641
  461MOL0     H62184   7.901   7.462   8.280 -0.6677 -3.4047  0.6965
  461MOL0     H62185   7.797   7.570   8.373 -1.1534 -3.7240 -2.4880
  461MOL0     H62186   8.170   7.467   8.385  0.6148  0.2516 -0.5901
  461MOL0     H62187   8.333   7.810   8.553 -0.7738 -0.0942 -0.8237
  461MOL0     H62188   8.382   7.636   8.539  0.7850 -0.0702  2.0855
  461MOL0     H62189   8.408   7.657   8.300 -1.7240  1.4538 -2.2850
  461MOL0     H62190   8.314   7.795   8.287 -0.2375 -1.7005 -0.9676
  461MOL0     H62191   8.562   7.823   8.457 -0.9564  0.5231  0.3863
  461MOL0     H62192   8.469   7.941   8.366 -1.0502  0.4180 -2.7334
  461MOL0     H62193   8.639   7.924   8.210 -0.7149  1.4923  3.6517
  461MOL0     H62194   8.524   7.806   8.144 -2.0297 -2.6383  1.7637
  461MOL0     H62195   8.781   7.939   8.361  0.6474  0.4711 -0.1728
  461MOL0     H62196   9.030   7.968   8.401  1.4772 -2.3640  4.4505
  461MOL0     H62197   9.300   8.088   8.581 -0.4172 -0.9373  2.0563
  461MOL0     H62198   9.517   8.174   8.668 -2.8057 -2.4171  3.2053
  461MOL0     H62199   9.723   8.277   8.657 -1.7040  1.3974  3.0294
  461MOL0     H62200   9.721   8.168   8.803 -0.5019 -2.0623  0.3582
  461MOL0     H62201   9.948   8.251   8.620  1.5484 -0.7250  0.4867
  461MOL0     H62202   9.900   8.314   8.775 -1.0987 -0.1965 -1.1311
  461MOL0     H62203   9.943   8.023   8.793 -1.9526  0.8905  1.4439
  461MOL0     H62204  10.089   8.124   8.746 -0.8432  0.9013 -0.6055
  461MOL0     H62205   9.930   8.173   9.000 -1.4190 -2.6885 -0.9717
  461MOL0     H62206  10.101   8.211   8.967  1.3838 -1.2797  0.9849
  461MOL0     H62207  10.005   7.934   9.014 -1.7941  0.2914 -0.9447
  461MOL0     H62208  10.086   8.032   9.124  2.1864  0.9717 -0.9595
  461MOL0     H62209  10.201   7.980   8.850 -2.6017  1.8811 -0.0546
  461MOL0     H62210  10.284   8.053   9.003 -0.2650 -2.2634  3.0921
  461MOL0     H62211  10.186   7.774   8.951 -2.0375  0.7973  0.4999
  461MOL0     H62212  10.248   7.826   9.109 -2.3689 -4.2489 -0.6989
  461MOL0     H62213  10.415   7.851   8.859  2.8397  4.2264  0.8743
  461MOL0     H62214  10.463   7.880   9.023  0.7737  1.0684 -0.8647
  461MOL0     H62215   9.719   7.873   8.450 -0.2976 -1.7605  3.2612
  461MOL0     H62216   9.519   7.778   8.367  1.2477 -0.9031  1.0513
  461MOL0     H62217   9.121   7.622   8.161  0.1686  2.8770 -2.6293
  461MOL0     H62218   8.880   7.588   8.137 -0.8473  0.8382 -1.2521
  461MOL0     H62219   7.073   7.307   9.148  0.1927  0.1942  0.2240
  461MOL0     H62220   6.859   7.316   9.252 -0.0672 -1.5809  0.1211
  461MOL0     H62221   6.461   7.430   9.229 -0.0016  0.7298  2.2254
  461MOL0     H62222   6.235   7.496   9.327 -2.5523 -0.6426  2.5459
  461MOL0     H62223   6.071   7.450   9.518 -0.9157  0.5940 -3.9053
  461MOL0     H62224   6.143   7.295   9.546 -1.2292 -3.1129 -1.2177
  461MOL0     H62225   5.851   7.352   9.568 -0.0457 -0.8975 -1.6353
  461MOL0     H62226   5.951   7.301   9.698 -0.9674  4.5979  0.6083
  461MOL0     H62227   5.983   7.084   9.527 -0.4869  0.4673 -0.0903
  461MOL0     H62228   5.833   7.156   9.468 -0.4972  0.0513 -0.1530
  461MOL0     H62229   5.900   7.032   9.736 -1.1290 -4.2105 -0.2477
  461MOL0     H62230   5.759   7.124   9.718  1.6515  0.6189  0.8967
  461MOL0     H62231   5.672   6.747   9.553  2.7832 -1.7012  0.1284
  461MOL0     H62232   6.099   7.090   9.259 -2.1749  1.8869 -1.5879
  461MOL0     H62233   6.217   6.935   9.157  0.0138  0.8889  1.4033
  461MOL0     H62234   6.328   7.024   9.038 -0.2541 -1.8426 -0.8267
  461MOL0     H62235   6.387   6.939   9.184 -1.2356 -1.1447  0.4230
  462MOL0     O62236   1.372   0.172  10.750 -0.0149  0.6560 -0.3031
  462MOL0     C62237   1.333   0.096  10.840 -0.4886 -0.8176  0.4663
  462MOL0     O62238   1.416   0.038  10.928  0.3002  0.8088 -0.6819
  462MOL0     C62239   1.552   0.039  10.907  0.4677  0.2017 -0.6738
  462MOL0     C62240   1.641   0.076  11.008 -0.9120  0.5864 -0.1095
  462MOL0     C62241   1.778   0.090  10.976 -0.2863 -1.6734  0.0442
  462MOL0     C62242   1.834   0.041  10.854 -0.4433 -0.1738 -0.9640
  462MOL0     O62243   1.961   0.034  10.815 -0.2466  0.3197 -0.4177
  462MOL0     C62244   2.054   0.098  10.905  0.2682 -0.2943 -0.0518
  462MOL0     C62245   2.199   0.090  10.850  0.1045 -0.3853  0.4035
  462MOL0     C62246   2.287   0.159  10.956  0.6220  0.2681  0.9189
  462MOL0     C62247   2.362   0.053  11.032  0.8047  0.3860  0.5346
  462MOL0     C62248   2.480   0.106  11.104  0.1703  0.5002 -0.6715
  462MOL0     C62249   2.607   0.105  11.016 -0.4941  0.2891  0.4681
  462MOL0     C62250   2.735   0.119  11.104 -0.0121  0.6440 -0.1868
  462MOL0     C62251   2.863   0.128  11.019 -0.3832  0.1664 -0.7265
  462MOL0     N62252   2.978   0.163  11.100 -0.5714 -0.5402  0.2311
  462MOL0     C62253   2.986   0.261  11.192 -0.1536 -0.2495  0.5524
  462MOL0     C62254   3.124   0.275  11.207 -0.0116  0.2833  0.4226
  462MOL0     C62255   3.186   0.382  11.301 -0.6772  0.5317 -0.0127
  462MOL0     C62256   3.334   0.385  11.285 -0.6858  0.1025  0.2700
  462MOL0     C62257   3.404   0.485  11.374 -0.5722 -0.3024  0.1122
  462MOL0     C62258   3.557   0.500  11.356  0.2777  0.6973 -0.0797
  462MOL0     O62259   3.597   0.604  11.440  0.5117 -0.8388 -0.1522
  462MOL0     C62260   3.724   0.626  11.472 -1.1149 -0.1457 -0.0005
  462MOL0     C62261   3.763   0.747  11.532  0.0420 -0.1573  0.5109
  462MOL0     C62262   3.894   0.776  11.575  0.2159  0.1667 -0.1528
  462MOL0     C62263   3.999   0.692  11.539  0.3605  0.1856  0.2051
  462MOL0     C62264   4.139   0.716  11.591 -1.3562  0.9184  0.7611
  462MOL0     O62265   4.234   0.624  11.555 -0.2354  0.7892  0.2183
  462MOL0     C62266   4.372   0.643  11.585  0.3705  0.3424  0.6362
  462MOL0     C62267   4.448   0.752  11.540 -0.1583 -0.5790  0.0631
  462MOL0     C62268   4.583   0.771  11.574  0.2999  0.2485 -0.0662
  462MOL0     C62269   4.640   0.683  11.664  0.7852 -0.8323  0.1408
  462MOL0     O62270   4.768   0.693  11.714 -0.4543 -0.4786 -0.1616
  462MOL0     C62271   4.857   0.797  11.667  0.1285 -0.2853 -0.7084
  462MOL0     C62272   5.003   0.764  11.708  0.6780  0.3045  0.0963
  462MOL0     C62273   5.115   0.803  11.602  0.2456 -0.9877  0.5319
  462MOL0     C62274   5.243   0.835  11.677  0.2425  0.4791 -0.2118
  462MOL0     C62275   5.360   0.841  11.587 -0.4726 -0.0961  0.6817
  462MOL0     C62276   5.418   0.704  11.543  0.2750  0.1103 -0.6695
  462MOL0     C62277   5.510   0.638  11.647 -0.1019  0.3977 -0.0715
  462MOL0     C62278   5.573   0.500  11.592  0.4350 -0.5600  0.4273
  462MOL0    Cl62279   5.701   0.543  11.473  0.2195  0.0194 -0.0373
  462MOL0     C62280   4.567   0.567  11.703  0.0549  0.0307 -0.1799
  462MOL0     C62281   4.439   0.547  11.662  0.0988  0.4917  0.3284
  462MOL0     O62282   4.168   0.817  11.656 -0.2044 -0.6234 -0.5639
  462MOL0     C62283   3.970   0.572  11.467  0.0584 -0.5943 -0.3720
  462MOL0     C62284   3.833   0.537  11.442  0.2304 -0.5906  0.2317
  462MOL0     N62285   3.192   0.187  11.124  0.2365 -0.8195 -0.4117
  462MOL0     N62286   3.104   0.123  11.059  0.9631 -0.6581 -0.0300
  462MOL0     C62287   1.745  -0.004  10.763  0.4724 -0.8906  1.1174
  462MOL0     C62288   1.607  -0.008  10.783 -0.2352 -0.0145 -0.0160
  462MOL0     C62289   1.188   0.079  10.860  0.5453  0.5720 -0.0801
  462MOL0     C62290   1.148   0.000  10.974 -0.1508 -0.3611 -0.7687
  462MOL0     C62291   1.022   0.001  11.027  0.5696  0.2078 -0.2624
  462MOL0     C62292   0.917   0.053  10.944  0.6677  0.6247  0.2051
  462MOL0     O62293   0.779   0.058  10.973  0.2201  0.6898  0.3781
  462MOL0     C62294   0.745   0.009  11.103  0.3814 -0.6296 -0.3334
  462MOL0     C62295   0.589  -0.006  11.126 -0.3146 -0.4082 -0.4142
  462MOL0     C62296   0.510  -0.110  11.035  0.1762 -0.0368  0.5449
  462MOL0     C62297   0.537  -0.081  10.883  0.2540 -0.2617 -0.2749
  462MOL0     C62298   0.441  -0.167  10.801  0.8400 -0.2665  0.0658
  462MOL0     C62299   0.357  -0.220  10.736 -0.4659  0.0574 -0.2626
  462MOL0     C62300   0.945   0.116  10.823 -0.5157 -0.4699  0.7830
  462MOL0     C62301   1.082   0.130  10.776  0.4329 -0.6524 -0.0866
  462MOL0     C62302   1.104   0.219  10.656  0.7652  1.0373  0.4533
  462MOL0     H62303   1.620   0.105  11.110  4.4917 -0.1480  1.5295
  462MOL0     H62304   1.846   0.133  11.049 -0.0070 -1.9582 -0.0470
  462MOL0     H62305   2.027   0.204  10.911  1.9460  0.3107 -2.0368
  462MOL0     H62306   2.049   0.046  11.001 -1.4638 -0.9329 -0.4544
  462MOL0     H62307   2.198   0.154  10.762  3.1192  0.5115  0.8950
  462MOL0     H62308   2.226  -0.014  10.828  0.7516  0.2881 -2.3225
  462MOL0     H62309   2.224   0.223  11.018 -2.7998 -0.3621 -1.6320
  462MOL0     H62310   2.347   0.230  10.898  0.9530 -0.9972 -0.3473
  462MOL0     H62311   2.305  -0.015  11.097  0.9124 -0.9218 -0.6832
  462MOL0     H62312   2.398  -0.012  10.952 -2.8484  1.7006 -2.4453
  462MOL0     H62313   2.451   0.202  11.148 -0.9258 -0.0779 -0.1005
  462MOL0     H62314   2.493   0.044  11.193 -0.3272  0.5870 -0.5351
  462MOL0     H62315   2.614   0.017  10.952  1.0317 -0.6643  1.8517
  462MOL0     H62316   2.608   0.189  10.945 -2.3759 -0.6757 -0.7690
  462MOL0     H62317   2.745   0.033  11.170  1.2505  2.1340  1.6564
  462MOL0     H62318   2.720   0.200  11.176 -0.2389  0.3458  0.1080
  462MOL0     H62319   2.884   0.037  10.962  2.3225 -0.3101  0.8257
  462MOL0     H62320   2.853   0.214  10.952 -2.3568  1.3030  0.9321
  462MOL0     H62321   2.899   0.313  11.231 -0.4018 -0.7437  0.6605
  462MOL0     H62322   3.147   0.482  11.280 -2.5681  0.3260  2.1036
  462MOL0     H62323   3.169   0.347  11.403  1.1632 -1.7874 -0.4129
  462MOL0     H62324   3.372   0.284  11.299 -0.7668 -0.4391 -2.7197
  462MOL0     H62325   3.371   0.422  11.188 -2.3007 -0.4388 -0.5732
  462MOL0     H62326   3.373   0.471  11.478 -0.0827 -0.2126  0.2714
  462MOL0     H62327   3.357   0.579  11.345 -1.6813 -0.8333  0.1482
  462MOL0     H62328   3.570   0.516  11.248 -2.2988 -3.2980 -1.2433
  462MOL0     H62329   3.598   0.402  11.381  0.4364  0.0896 -2.4640
  462MOL0     H62330   3.687   0.824  11.541  2.4434  2.6765 -1.3546
  462MOL0     H62331   3.915   0.871  11.624 -1.4157 -0.3055  1.6294
  462MOL0     H62332   4.409   0.833  11.478  0.0675 -0.4223  0.1266
  462MOL0     H62333   4.621   0.866  11.536 -1.2737  0.2809 -1.6696
  462MOL0     H62334   4.854   0.815  11.559 -0.2019  1.7842 -0.3836
  462MOL0     H62335   4.821   0.894  11.702 -2.2061 -0.4306 -2.4621
  462MOL0     H62336   5.021   0.814  11.803  0.5200  1.3949 -0.4278
  462MOL0     H62337   5.004   0.655  11.712 -0.7456  0.2726  3.9393
  462MOL0     H62338   5.123   0.730  11.520  1.1482 -0.1522 -0.1550
  462MOL0     H62339   5.077   0.892  11.551  2.7048  0.9883  1.9130
  462MOL0     H62340   5.255   0.754  11.749  1.0459  0.4439 -0.3803
  462MOL0     H62341   5.234   0.928  11.733  2.2684  0.5799  0.0022
  462MOL0     H62342   5.443   0.890  11.639  0.5949 -0.6856 -0.4093
  462MOL0     H62343   5.333   0.896  11.496  1.5953 -2.7042 -1.6995
  462MOL0     H62344   5.336   0.636  11.518  1.1367 -0.6551 -1.4496
  462MOL0     H62345   5.470   0.729  11.450 -1.7564  2.8262 -1.2132
  462MOL0     H62346   5.452   0.624  11.739  1.5866  1.1683  1.1604
  462MOL0     H62347   5.594   0.704  11.669 -0.2311  0.3585  0.5592
  462MOL0     H62348   5.622   0.447  11.674  1.2126 -1.2019 -0.4302
  462MOL0     H62349   5.507   0.429  11.542 -0.4678 -0.3062  1.2211
  462MOL0     H62350   4.612   0.491  11.766  0.4045 -0.7038 -1.2973
  462MOL0     H62351   4.390   0.451  11.678  1.4035 -0.7447 -2.4880
  462MOL0     H62352   4.043   0.496  11.440 -1.1940 -1.8359 -0.3915
  462MOL0     H62353   3.800   0.444  11.396 -3.1043  0.0265  1.1325
  462MOL0     H62354   1.781  -0.044  10.669 -0.5692  0.9881 -0.1362
  462MOL0     H62355   1.551  -0.039  10.696  3.0457 -1.0723 -1.9531
  462MOL0     H62356   1.217  -0.039  11.048  0.4033  3.0882  0.7677
  462MOL0     H62357   1.014  -0.055  11.120 -0.2881 -1.3810 -1.2612
  462MOL0     H62358   0.795   0.073  11.176 -0.0184 -3.1967  2.4008
  462MOL0     H62359   0.790  -0.091  11.108 -2.3480 -1.9324 -0.2410
  462MOL0     H62360   0.531   0.087  11.124  0.7150  0.4436  2.6120
  462MOL0     H62361   0.573  -0.044  11.228 -0.1869 -5.0281 -1.8973
  462MOL0     H62362   0.402  -0.100  11.048  0.3735  0.6667  1.8053
  462MOL0     H62363   0.545  -0.209  11.065 -3.3029 -1.3178  0.7501
  462MOL0     H62364   0.518   0.024  10.859 -0.4885 -0.4008 -0.3349
  462MOL0     H62365   0.640  -0.105  10.855  0.9539  3.2174 -1.1554
  462MOL0     H62366   0.276  -0.267  10.683  0.5734 -0.2741 -1.6026
  462MOL0     H62367   0.862   0.151  10.763 -1.0267 -1.9641  0.5646
  462MOL0     H62368   1.145   0.315  10.688 -0.6591  1.2641  1.7242
  462MOL0     H62369   1.161   0.166  10.579 -2.8770 -2.0773 -0.4036
  462MOL0     H62370   1.012   0.235  10.600  0.4526 -0.5108  0.4665
  463MOL0     O62371   4.419   3.490   2.982  0.1636 -0.0254  0.0737
  463MOL0     C62372   4.490   3.398   3.013 -0.0821 -0.3552  1.1389
  463MOL0     O62373   4.456   3.275   3.017  0.2056 -0.3859 -0.2889
  463MOL0     C62374   4.327   3.228   3.017  0.2148 -1.0414  0.4482
  463MOL0     C62375   4.212   3.297   3.062 -0.6292 -0.0021 -0.0077
  463MOL0     C62376   4.084   3.228   3.062 -0.8409  0.7256  0.2447
  463MOL0     C62377   4.081   3.094   3.026 -0.1774 -0.1522 -0.4660
  463MOL0     O62378   3.958   3.027   3.031  0.0995  0.0528  0.8694
  463MOL0     C62379   3.952   2.885   3.057 -0.1477  0.1362 -0.9377
  463MOL0     C62380   3.946   2.859   3.211  0.2373 -0.3747  0.5235
  463MOL0     C62381   3.802   2.886   3.268 -0.0826 -0.1550 -0.0232
  463MOL0     C62382   3.793   2.894   3.423 -0.1154 -0.5679 -0.0520
  463MOL0     C62383   3.650   2.926   3.460  0.1286  0.7648 -0.5935
  463MOL0     C62384   3.636   2.885   3.603 -0.0768  0.7167  0.1777
  463MOL0     C62385   3.520   2.950   3.672  0.0956 -0.0204  0.3150
  463MOL0     C62386   3.399   2.862   3.674 -0.9093 -0.7994  0.0731
  463MOL0     N62387   3.280   2.930   3.720  0.6847 -0.3889  0.3417
  463MOL0     C62388   3.151   2.907   3.667  0.4895 -1.2142 -0.2383
  463MOL0     C62389   3.077   2.997   3.729  0.0757 -0.4227 -0.3771
  463MOL0     C62390   2.939   3.034   3.683  0.8714 -0.1799 -0.1808
  463MOL0     C62391   2.831   2.946   3.757 -0.5013  0.0343 -0.0665
  463MOL0     C62392   2.693   3.014   3.743  0.1601  0.3330 -0.1538
  463MOL0     C62393   2.575   2.935   3.800 -0.8389  0.0065  0.0285
  463MOL0     O62394   2.459   3.012   3.787  0.7117  0.0501 -0.1766
  463MOL0     C62395   2.347   2.946   3.823 -0.1785  0.2851  0.1999
  463MOL0     C62396   2.253   2.916   3.730  0.0154 -0.0891  0.1421
  463MOL0     C62397   2.134   2.853   3.773  0.4858  0.5074 -0.7109
  463MOL0     C62398   2.106   2.821   3.910  0.3471  0.7360  0.4920
  463MOL0     C62399   1.980   2.759   3.961  0.5011  0.0072  0.2028
  463MOL0     O62400   1.958   2.748   4.098  0.0086  0.4727  0.2314
  463MOL0     C62401   1.845   2.681   4.143 -0.5067 -0.3971  0.8195
  463MOL0     C62402   1.709   2.687   4.083  0.1469 -0.0317 -0.8187
  463MOL0     C62403   1.599   2.624   4.147 -0.2988  0.4484  0.1359
  463MOL0     C62404   1.621   2.567   4.275 -1.7426 -0.1571  0.7147
  463MOL0     O62405   1.504   2.520   4.328 -0.4610  0.4330 -0.0031
  463MOL0     C62406   1.477   2.530   4.473  0.1718 -0.2478 -0.5743
  463MOL0     C62407   1.325   2.543   4.487  0.2656 -0.2011  0.4090
  463MOL0     C62408   1.292   2.580   4.629  0.0017  0.9869  0.4785
  463MOL0     C62409   1.153   2.525   4.679  0.0278 -0.3127  0.4965
  463MOL0     C62410   1.146   2.547   4.834  0.0260 -0.5973  0.6028
  463MOL0     C62411   1.046   2.457   4.896  0.4158  0.7805 -0.2098
  463MOL0     C62412   0.901   2.478   4.852 -0.3939 -0.0825 -0.7962
  463MOL0     C62413   0.803   2.412   4.950 -0.1168  0.1035  0.9788
  463MOL0    Cl62414   0.814   2.236   4.949 -0.2220 -0.3040  0.2902
  463MOL0     C62415   1.746   2.570   4.331  0.5404  0.7109 -0.0381
  463MOL0     C62416   1.857   2.624   4.272 -0.1787  0.3789 -0.3277
  463MOL0     O62417   1.901   2.716   3.873 -0.2806 -0.0346 -0.5528
  463MOL0     C62418   2.213   2.842   4.005  0.0643  0.5774  0.7542
  463MOL0     C62419   2.334   2.902   3.960  0.2947 -0.3109 -0.3242
  463MOL0     N62420   3.159   3.068   3.828  0.3673  0.4711  0.8372
  463MOL0     N62421   3.277   3.023   3.815  0.0848 -1.0688 -0.1931
  463MOL0     C62422   4.205   3.026   2.981 -0.3447  0.0326 -0.5061
  463MOL0     C62423   4.320   3.098   2.972  0.5217  0.2124 -0.7791
  463MOL0     C62424   4.635   3.430   3.006 -0.5324 -0.9312 -0.6316
  463MOL0     C62425   4.726   3.365   2.920 -0.1376  0.1129  0.5231
  463MOL0     C62426   4.860   3.394   2.908 -0.0625  0.3521  0.8539
  463MOL0     C62427   4.918   3.488   2.984 -0.5471  0.4983  0.2703
  463MOL0     O62428   5.047   3.522   2.979  0.2661 -0.2243  0.3585
  463MOL0     C62429   5.075   3.662   2.974 -0.2829 -0.1724  1.1547
  463MOL0     C62430   5.228   3.692   2.952 -0.4137  0.6510 -0.5916
  463MOL0     C62431   5.255   3.844   2.923  1.1567 -0.4184  0.5908
  463MOL0     C62432   5.405   3.875   2.935 -0.5992 -0.3205  0.5939
  463MOL0     C62433   5.458   3.877   3.073  0.1602  0.3809  0.0725
  463MOL0     C62434   5.485   3.864   3.191  0.5698 -0.0399 -0.0036
  463MOL0     C62435   4.830   3.566   3.070  0.0232  0.5687  0.1100
  463MOL0     C62436   4.692   3.543   3.081  0.2339  0.0679 -0.2288
  463MOL0     C62437   4.615   3.638   3.172  1.1175  0.4299  0.1600
  463MOL0     H62438   4.217   3.399   3.096  0.8520 -0.4835  1.3595
  463MOL0     H62439   3.990   3.277   3.084 -2.3073 -1.1471 -1.4453
  463MOL0     H62440   3.856   2.852   3.016 -1.4798  0.4467  1.7011
  463MOL0     H62441   4.029   2.822   3.011  0.5942 -0.4157  0.9453
  463MOL0     H62442   4.011   2.927   3.266  0.6159 -2.3094  2.6013
  463MOL0     H62443   3.981   2.757   3.233  4.6274 -0.2696 -4.0837
  463MOL0     H62444   3.741   2.801   3.235  0.2052  0.3636 -2.0181
  463MOL0     H62445   3.768   2.977   3.218  1.0523  0.8452  0.9654
  463MOL0     H62446   3.811   2.790   3.452  1.1626 -0.8864 -1.8382
  463MOL0     H62447   3.857   2.963   3.478 -3.6191  1.5581  1.7293
  463MOL0     H62448   3.637   3.035   3.456  1.0891  0.9107 -0.0174
  463MOL0     H62449   3.579   2.883   3.390  1.2304 -1.4935 -0.3971
  463MOL0     H62450   3.633   2.776   3.618  0.5052  0.9206  1.9890
  463MOL0     H62451   3.728   2.917   3.653 -0.1399  1.0798  0.0638
  463MOL0     H62452   3.505   3.044   3.618  0.8356 -1.0746 -1.8695
  463MOL0     H62453   3.552   2.963   3.776  1.7257  2.3420 -0.3856
  463MOL0     H62454   3.377   2.821   3.575  2.0009 -1.4905 -0.3607
  463MOL0     H62455   3.426   2.773   3.732  0.2959 -0.2353  0.3951
  463MOL0     H62456   3.112   2.841   3.591 -2.2799 -1.1577  1.0140
  463MOL0     H62457   2.919   3.140   3.698  1.7255 -0.0720  0.2388
  463MOL0     H62458   2.943   3.010   3.576  4.7633  1.2980 -0.5496
  463MOL0     H62459   2.844   2.848   3.709  2.8887  0.2667  0.1516
  463MOL0     H62460   2.861   2.931   3.861 -1.5373 -0.9116  0.1158
  463MOL0     H62461   2.672   3.053   3.643  1.7468 -0.0768 -0.6738
  463MOL0     H62462   2.705   3.101   3.809  2.1723 -0.4096  0.5107
  463MOL0     H62463   2.605   2.919   3.904  1.4548  0.9246 -0.4336
  463MOL0     H62464   2.556   2.841   3.748 -1.0980  0.0624  0.0191
  463MOL0     H62465   2.289   2.932   3.628 -1.5954  0.0380 -0.4308
  463MOL0     H62466   2.066   2.808   3.701  1.4742 -2.6858  0.1609
  463MOL0     H62467   1.693   2.756   4.001  0.3148  1.2254  0.1758
  463MOL0     H62468   1.497   2.628   4.109  0.2716 -0.2967 -1.5745
  463MOL0     H62469   1.519   2.447   4.531 -0.4180  0.1026  0.3735
  463MOL0     H62470   1.524   2.620   4.512 -0.3100  0.1661 -0.9419
  463MOL0     H62471   1.284   2.618   4.419  2.2388  1.4343  0.9337
  463MOL0     H62472   1.281   2.447   4.459 -1.7119  0.5642  0.6480
  463MOL0     H62473   1.370   2.534   4.691 -1.3799 -1.9468  0.1869
  463MOL0     H62474   1.296   2.689   4.633 -0.3426  1.0997 -1.2986
  463MOL0     H62475   1.162   2.418   4.660 -1.3594 -0.3355 -0.2024
  463MOL0     H62476   1.076   2.571   4.616  2.6631  0.5315 -2.3701
  463MOL0     H62477   1.130   2.648   4.872  2.3964 -0.1967  0.6996
  463MOL0     H62478   1.245   2.522   4.875 -0.1280  0.2569  1.5196
  463MOL0     H62479   1.078   2.352   4.894 -1.3585  0.2036 -0.7152
  463MOL0     H62480   1.043   2.481   5.003  0.5550 -0.2183  0.0273
  463MOL0     H62481   0.887   2.441   4.750 -0.6878  2.1948 -1.6382
  463MOL0     H62482   0.877   2.585   4.856  0.3657  0.1605 -2.1587
  463MOL0     H62483   0.821   2.454   5.049  2.5724 -2.4786  1.7330
  463MOL0     H62484   0.701   2.434   4.917 -0.1783 -1.5157 -0.0248
  463MOL0     H62485   1.757   2.512   4.422  0.5119 -0.8999 -1.0283
  463MOL0     H62486   1.950   2.621   4.327  1.5900 -0.7761 -3.1715
  463MOL0     H62487   2.191   2.814   4.108 -2.1477 -2.3453 -0.3422
  463MOL0     H62488   2.389   2.955   4.037  0.3579 -1.2636  0.3039
  463MOL0     H62489   4.207   2.927   2.938  0.5095  1.3950 -3.8908
  463MOL0     H62490   4.408   3.044   2.938 -1.2057 -3.5532  0.2332
  463MOL0     H62491   4.688   3.275   2.871  1.6648 -1.1812  1.3950
  463MOL0     H62492   4.933   3.347   2.844  1.6346  2.9007  0.7638
  463MOL0     H62493   5.044   3.717   3.063  0.9508  3.3210 -0.4100
  463MOL0     H62494   5.014   3.710   2.898 -1.8462  0.4257  2.7249
  463MOL0     H62495   5.249   3.623   2.870 -3.9261 -1.3238 -0.0329
  463MOL0     H62496   5.285   3.654   3.036 -1.8690  0.7362  0.4706
  463MOL0     H62497   5.192   3.910   2.983 -0.1616 -1.9584  0.9720
  463MOL0     H62498   5.229   3.850   2.816 -1.6728 -2.1541  1.0736
  463MOL0     H62499   5.448   3.802   2.865 -0.6112  0.3131 -0.0885
  463MOL0     H62500   5.438   3.974   2.901  2.9259 -1.4084  0.4729
  463MOL0     H62501   5.515   3.854   3.294 -0.2113  0.8106  0.3205
  463MOL0     H62502   4.861   3.646   3.136  1.8916 -1.0453  1.3414
  463MOL0     H62503   4.638   3.740   3.141 -3.5339  1.4295 -0.8133
  463MOL0     H62504   4.506   3.638   3.161  1.2027  2.0790 -0.9233
  463MOL0     H62505   4.645   3.621   3.276  1.3809  2.1038  0.3807
  464MOL0     O62506   6.636   2.990   7.725 -0.5386 -0.7392 -0.2603
  464MOL0     C62507   6.614   2.895   7.661 -0.2457  0.6966  0.3862
  464MOL0     O62508   6.707   2.819   7.598  0.6176 -0.2744 -0.2233
  464MOL0     C62509   6.838   2.823   7.639  1.1379 -0.2879  0.8434
  464MOL0     C62510   6.919   2.930   7.615  0.7727  0.6847  0.8675
  464MOL0     C62511   7.049   2.928   7.663  0.2955 -0.4174  1.0019
  464MOL0     C62512   7.102   2.812   7.720  0.5639 -0.0077  0.3782
  464MOL0     O62513   7.227   2.785   7.759 -0.2258  0.5016  0.6026
  464MOL0     C62514   7.323   2.863   7.688 -0.6987  0.2490  0.3070
  464MOL0     C62515   7.459   2.794   7.744  0.8813  0.0943  0.1627
  464MOL0     C62516   7.492   2.662   7.659 -0.7908 -0.0666 -0.4321
  464MOL0     C62517   7.645   2.650   7.666 -0.1263  0.5915 -0.4190
  464MOL0     C62518   7.696   2.523   7.609 -0.3634 -0.3249  0.2830
  464MOL0     C62519   7.837   2.491   7.664 -0.6549  0.2090  1.5328
  464MOL0     C62520   7.905   2.385   7.581 -0.2160 -0.3748 -0.1203
  464MOL0     C62521   8.038   2.334   7.655  0.7671 -0.0135  0.2597
  464MOL0     N62522   8.093   2.228   7.570 -0.5785 -0.1526 -0.6319
  464MOL0     C62523   8.217   2.226   7.519 -0.4018 -0.2398 -1.0014
  464MOL0     C62524   8.217   2.118   7.430  0.8487  0.7539 -0.2874
  464MOL0     C62525   8.316   2.086   7.319 -0.5310  0.2058 -0.2070
  464MOL0     C62526   8.457   2.134   7.349 -0.0163 -0.2698 -0.5016
  464MOL0     C62527   8.514   2.028   7.448  0.7929  0.0517  0.3211
  464MOL0     C62528   8.666   2.047   7.485  0.3366 -0.2330 -0.1070
  464MOL0     O62529   8.734   2.053   7.355 -0.3354 -0.2703  0.4399
  464MOL0     C62530   8.873   2.050   7.341  0.0187  0.7891 -0.3428
  464MOL0     C62531   8.924   2.030   7.210  0.8595 -0.8324 -0.3957
  464MOL0     C62532   9.062   2.030   7.183 -0.2299  0.1423 -0.0967
  464MOL0     C62533   9.143   2.036   7.301 -0.5341  0.4854 -0.7251
  464MOL0     C62534   9.294   2.009   7.296 -0.5151 -0.9458  0.2969
  464MOL0     O62535   9.360   2.001   7.414 -0.0072  0.6123  0.8551
  464MOL0     C62536   9.493   1.956   7.416  0.6934  0.6339  0.0465
  464MOL0     C62537   9.557   2.000   7.530 -0.1202  0.9736  0.9782
  464MOL0     C62538   9.696   1.958   7.550  0.1731 -0.1302  1.0846
  464MOL0     C62539   9.760   1.865   7.462  0.2111 -0.5083  0.4974
  464MOL0     O62540   9.887   1.821   7.493  0.8789 -0.5261 -0.1222
  464MOL0     C62541   9.930   1.690   7.444 -0.3103  0.0131 -0.3504
  464MOL0     C62542  10.072   1.691   7.376 -0.4875 -0.3392 -0.3528
  464MOL0     C62543  10.183   1.752   7.464  1.0931  0.2744  0.8169
  464MOL0     C62544  10.301   1.748   7.364 -0.0320  0.3373  0.0612
  464MOL0     C62545  10.410   1.844   7.404 -0.5167  0.1473  0.2498
  464MOL0     C62546  10.529   1.833   7.317  0.4479  0.1923  0.5384
  464MOL0     C62547  10.640   1.934   7.342 -0.1944  0.4492 -0.1275
  464MOL0     C62548  10.750   1.923   7.231 -0.7592  0.3677 -0.2171
  464MOL0    Cl62549  10.818   1.768   7.259  0.3448 -0.6897 -0.0112
  464MOL0     C62550   9.685   1.830   7.342 -0.3034 -0.6132 -0.5278
  464MOL0     C62551   9.554   1.875   7.324  0.4852 -0.1345  0.1681
  464MOL0     O62552   9.341   2.001   7.181  0.0525  0.0102 -0.0084
  464MOL0     C62553   9.093   2.048   7.430 -0.8799  0.3222 -0.6702
  464MOL0     C62554   8.957   2.055   7.449 -0.9568  0.8069 -1.1929
  464MOL0     N62555   8.099   2.054   7.435 -0.5949 -0.0141  0.3790
  464MOL0     N62556   8.032   2.117   7.530 -0.3858 -0.1278  0.0788
  464MOL0     C62557   7.022   2.699   7.716 -0.4697  0.0574  0.1506
  464MOL0     C62558   6.891   2.707   7.682 -0.1075  0.3628  0.2342
  464MOL0     C62559   6.472   2.872   7.609  0.2722  0.3962  1.3877
  464MOL0     C62560   6.443   2.795   7.496  0.5370  0.5116  0.8153
  464MOL0     C62561   6.314   2.767   7.452  0.2797  0.5499 -0.3613
  464MOL0     C62562   6.204   2.816   7.523  0.2169 -0.2729 -0.1641
  464MOL0     O62563   6.084   2.759   7.497  0.2026 -0.3936  0.1757
  464MOL0     C62564   5.972   2.851   7.505  0.3272 -0.1569 -0.0140
  464MOL0     C62565   5.867   2.761   7.430 -0.0103 -0.1385 -0.2002
  464MOL0     C62566   5.723   2.811   7.452 -0.0276  0.1325 -0.2069
  464MOL0     C62567   5.625   2.753   7.341 -0.2640 -0.0449  0.1268
  464MOL0     C62568   5.506   2.832   7.336 -0.4666  0.8281  0.2354
  464MOL0     C62569   5.403   2.898   7.340 -1.5368  0.2134  0.0340
  464MOL0     C62570   6.226   2.908   7.626 -0.0307  0.1813 -0.1428
  464MOL0     C62571   6.353   2.914   7.680 -0.2350 -0.3431 -0.1734
  464MOL0     C62572   6.369   2.998   7.810  0.2913  0.4702  0.8594
  464MOL0     H62573   6.883   3.020   7.566 -0.7046 -1.4585 -2.2976
  464MOL0     H62574   7.117   3.012   7.657 -2.6801  2.1925  1.3161
  464MOL0     H62575   7.323   2.860   7.579 -2.8327  4.0891  0.0468
  464MOL0     H62576   7.320   2.970   7.710  3.0565  0.1811  1.9885
  464MOL0     H62577   7.450   2.780   7.853 -0.5355 -0.0054  0.0516
  464MOL0     H62578   7.550   2.855   7.744  0.3069  1.1611  3.6913
  464MOL0     H62579   7.465   2.670   7.553  0.0981 -1.3431 -0.7703
  464MOL0     H62580   7.444   2.572   7.698  2.0543 -1.0571  1.0640
  464MOL0     H62581   7.689   2.726   7.601 -0.1042 -0.6606 -1.9156
  464MOL0     H62582   7.684   2.674   7.765  1.7854 -1.1824 -0.6674
  464MOL0     H62583   7.629   2.440   7.629  1.0176 -1.8381 -1.1218
  464MOL0     H62584   7.691   2.528   7.500 -0.9719 -0.2843  0.3122
  464MOL0     H62585   7.899   2.581   7.660 -0.6508  0.2235  1.9152
  464MOL0     H62586   7.830   2.467   7.770  0.2658  1.8609  1.9938
  464MOL0     H62587   7.935   2.419   7.481 -1.4138  0.4974 -0.2039
  464MOL0     H62588   7.824   2.311   7.586 -2.1609  1.6863  0.5454
  464MOL0     H62589   8.115   2.410   7.673  2.5365 -1.8344  0.7592
  464MOL0     H62590   8.017   2.285   7.751  1.2644 -0.3918  0.1802
  464MOL0     H62591   8.290   2.306   7.524  0.3816 -0.9371  4.0906
  464MOL0     H62592   8.315   1.979   7.296  4.5281  0.3781 -2.4290
  464MOL0     H62593   8.293   2.135   7.224 -0.3431 -0.3556 -0.5482
  464MOL0     H62594   8.512   2.141   7.255 -1.6131  1.3053 -1.3830
  464MOL0     H62595   8.457   2.236   7.390  2.7479 -1.0580  1.8112
  464MOL0     H62596   8.517   1.930   7.399  0.1437  0.4465 -0.5300
  464MOL0     H62597   8.450   2.024   7.536 -1.0200  1.2335 -0.8836
  464MOL0     H62598   8.686   1.961   7.550 -0.1916 -2.3583 -2.6300
  464MOL0     H62599   8.693   2.139   7.539 -1.2900  0.0451  0.2698
  464MOL0     H62600   8.852   2.022   7.129 -0.4771 -1.1972  0.7959
  464MOL0     H62601   9.100   2.012   7.083  0.3196  1.1273 -0.0689
  464MOL0     H62602   9.509   2.070   7.598  1.4572  3.7544 -0.5844
  464MOL0     H62603   9.748   1.996   7.637  1.2643  0.3166  0.2563
  464MOL0     H62604   9.931   1.630   7.535 -2.8668  4.0872  2.7025
  464MOL0     H62605   9.855   1.653   7.374 -2.1822  0.6855  1.2220
  464MOL0     H62606  10.102   1.591   7.344  3.0680 -0.4206  2.6035
  464MOL0     H62607  10.057   1.764   7.295  1.9981  0.1433 -0.4445
  464MOL0     H62608  10.165   1.856   7.494 -4.8997  0.0281 -0.6753
  464MOL0     H62609  10.221   1.697   7.550  2.4044 -0.2156 -0.0608
  464MOL0     H62610  10.285   1.774   7.259  0.9777  2.4131  0.3535
  464MOL0     H62611  10.335   1.644   7.369 -4.3927 -1.2958 -0.1315
  464MOL0     H62612  10.443   1.818   7.505  1.7025 -4.4285 -1.3850
  464MOL0     H62613  10.373   1.947   7.401 -1.9185 -0.3622 -0.2534
  464MOL0     H62614  10.554   1.728   7.339 -1.2077 -1.0596 -2.8490
  464MOL0     H62615  10.503   1.847   7.212  3.6473 -0.0785 -0.3803
  464MOL0     H62616  10.688   1.912   7.438  2.2341 -0.8461 -1.5577
  464MOL0     H62617  10.598   2.035   7.344 -0.1031  0.5922 -2.6493
  464MOL0     H62618  10.703   1.926   7.132 -1.5173  0.8573  0.1459
  464MOL0     H62619  10.832   1.995   7.233 -2.1313  2.1581  4.1552
  464MOL0     H62620   9.716   1.756   7.270 -0.2105 -1.1946  0.0970
  464MOL0     H62621   9.512   1.839   7.230 -0.3149 -0.9930  0.8384
  464MOL0     H62622   9.144   2.056   7.525 -0.4071 -0.7600 -0.8225
  464MOL0     H62623   8.932   2.080   7.552 -0.0586  1.4962 -1.1258
  464MOL0     H62624   7.066   2.606   7.750  0.0298 -0.0425 -0.7330
  464MOL0     H62625   6.831   2.617   7.681 -0.0737  0.3285 -1.7746
  464MOL0     H62626   6.528   2.752   7.445 -0.4433  0.1749 -0.5795
  464MOL0     H62627   6.301   2.695   7.372  0.0105 -0.2128  0.3569
  464MOL0     H62628   5.984   2.943   7.448  1.3777 -0.1692  0.1509
  464MOL0     H62629   5.940   2.874   7.607 -1.6862  2.0514 -1.0458
  464MOL0     H62630   5.872   2.657   7.462 -1.5211 -0.6086 -1.3916
  464MOL0     H62631   5.897   2.764   7.325 -0.8816  0.1455 -0.4454
  464MOL0     H62632   5.713   2.920   7.442 -3.2630 -0.1952 -1.7998
  464MOL0     H62633   5.689   2.779   7.551  1.0441 -1.6676 -0.3842
  464MOL0     H62634   5.670   2.763   7.242 -0.0888 -3.9131 -0.3173
  464MOL0     H62635   5.597   2.650   7.362 -2.2431  0.9421  2.9582
  464MOL0     H62636   5.317   2.962   7.349 -1.8003 -0.2390  0.8617
  464MOL0     H62637   6.145   2.937   7.692 -0.0576 -2.3295  1.0369
  464MOL0     H62638   6.274   3.022   7.859 -1.1463 -0.5834 -1.2246
  464MOL0     H62639   6.427   2.939   7.880  0.2697 -1.1293 -0.4121
  464MOL0     H62640   6.431   3.087   7.798  2.5501 -1.2148 -0.7183
  465MOL0     O62641   8.329   0.926   4.507  0.1163 -1.1123  0.2082
  465MOL0     C62642   8.240   0.954   4.425  0.5197  0.3958  0.5397
  465MOL0     O62643   8.233   1.059   4.342 -0.6713  0.5544 -0.8337
  465MOL0     C62644   8.318   1.165   4.355 -0.0463  0.1867 -0.0374
  465MOL0     C62645   8.391   1.209   4.467  1.7135 -1.1024 -0.4923
  465MOL0     C62646   8.496   1.304   4.462 -0.6879 -0.0336  0.4210
  465MOL0     C62647   8.527   1.363   4.338  0.5839 -0.1537 -0.8055
  465MOL0     O62648   8.630   1.452   4.340  0.0865 -0.3651  0.5123
  465MOL0     C62649   8.747   1.440   4.261 -0.8684 -0.6551 -0.7440
  465MOL0     C62650   8.820   1.563   4.282 -0.3821  0.8281  0.0140
  465MOL0     C62651   8.957   1.558   4.211  0.2188  0.3191  0.9577
  465MOL0     C62652   9.037   1.694   4.210 -0.3075 -0.7544  0.3586
  465MOL0     C62653   9.161   1.692   4.112  0.3893 -0.1279 -0.6163
  465MOL0     C62654   9.240   1.820   4.108 -0.0157  0.7466 -0.5092
  465MOL0     C62655   9.352   1.822   3.998 -0.0457  0.1551  0.6655
  465MOL0     C62656   9.464   1.719   4.026 -0.7727 -0.3486  0.6750
  465MOL0     N62657   9.564   1.715   3.913  0.2237  0.5472 -0.5992
  465MOL0     C62658   9.675   1.793   3.896 -0.3833  0.3744  0.5626
  465MOL0     C62659   9.737   1.756   3.777 -0.2363 -0.5821 -0.1245
  465MOL0     C62660   9.864   1.819   3.723  0.1927  0.4368  0.4411
  465MOL0     C62661   9.998   1.751   3.759 -0.6725  0.8869 -1.1163
  465MOL0     C62662  10.040   1.773   3.908  0.2159 -0.6637 -0.1721
  465MOL0     C62663  10.174   1.708   3.934  0.1503  0.0316  1.5881
  465MOL0     O62664  10.199   1.697   4.074  1.0055 -0.1594  0.0053
  465MOL0     C62665  10.329   1.691   4.121  0.4200 -0.1964  0.0703
  465MOL0     C62666  10.342   1.648   4.252  0.0805 -0.0802  0.1554
  465MOL0     C62667  10.472   1.643   4.307 -1.0435 -0.3358 -0.2815
  465MOL0     C62668  10.588   1.684   4.242  0.8680  0.0603  0.1706
  465MOL0     C62669  10.715   1.719   4.312 -0.1724  0.6983  0.0616
  465MOL0     O62670  10.806   1.786   4.237  0.2588  0.3913  0.1719
  465MOL0     C62671  10.942   1.799   4.269  0.5763 -0.1810 -0.2517
  465MOL0     C62672  11.006   1.763   4.382  0.6171 -0.2061 -0.0347
  465MOL0     C62673  11.144   1.758   4.390 -0.3961  0.0548  0.0801
  465MOL0     C62674  11.221   1.774   4.279  0.7705  0.0570  1.2717
  465MOL0     O62675  11.359   1.755   4.292 -0.3471  0.3515  1.1213
  465MOL0     C62676  11.434   1.873   4.239  0.1684  0.5846 -0.3151
  465MOL0     C62677  11.393   2.006   4.303 -0.1336  1.1707  0.8981
  465MOL0     C62678  11.403   1.987   4.454  0.1833  0.3496  0.3119
  465MOL0     C62679  11.402   2.125   4.516  0.4226 -1.0206  0.5416
  465MOL0     C62680  11.431   2.131   4.666 -0.0374 -0.4220  0.2739
  465MOL0     C62681  11.574   2.089   4.699 -0.6519  1.1312  0.2866
  465MOL0     C62682  11.634   2.117   4.837  0.5324  0.4035 -0.2156
  465MOL0     C62683  11.640   2.265   4.865 -0.6684 -0.1701 -1.1924
  465MOL0    Cl62684  11.674   2.292   5.034  0.0905 -0.2772  0.1378
  465MOL0     C62685  11.160   1.806   4.157  0.6033  0.4757  0.7967
  465MOL0     C62686  11.021   1.818   4.158  0.2899 -1.0633 -0.1060
  465MOL0     O62687  10.726   1.686   4.429 -0.2176  0.3021 -0.1167
  465MOL0     C62688  10.567   1.705   4.104  0.1270 -0.4466 -0.1480
  465MOL0     C62689  10.441   1.713   4.040  0.2991 -0.0078  0.3769
  465MOL0     N62690   9.656   1.655   3.725  0.2731  0.6574  0.1173
  465MOL0     N62691   9.559   1.632   3.802  0.1049  0.2576  0.3594
  465MOL0     C62692   8.457   1.317   4.230  0.7366  0.1928 -0.8608
  465MOL0     C62693   8.356   1.222   4.235  0.2742 -1.0414  0.0759
  465MOL0     C62694   8.130   0.860   4.405 -0.1464  0.9658  0.1359
  465MOL0     C62695   8.078   0.842   4.273 -0.4928  0.7703  0.6968
  465MOL0     C62696   7.965   0.751   4.256 -0.6562  0.1406  0.0739
  465MOL0     C62697   7.912   0.672   4.360 -0.0565  0.6842 -0.4081
  465MOL0     O62698   7.799   0.584   4.354 -0.8494 -0.1849  0.9428
  465MOL0     C62699   7.720   0.596   4.235 -0.3320  0.6693  0.7343
  465MOL0     C62700   7.592   0.630   4.297 -0.1508 -0.8093 -0.3086
  465MOL0     C62701   7.512   0.528   4.378  0.2420  0.6657 -0.0537
  465MOL0     C62702   7.551   0.523   4.526 -0.0691 -0.5321 -0.1483
  465MOL0     C62703   7.491   0.421   4.610 -0.0457  0.8884  0.4756
  465MOL0     C62704   7.455   0.330   4.685  0.1578 -0.2509 -0.6051
  465MOL0     C62705   7.966   0.693   4.485 -0.5891 -0.2463 -1.0457
  465MOL0     C62706   8.077   0.775   4.504  0.7258 -0.1013 -0.7233
  465MOL0     C62707   8.120   0.794   4.654  0.6062 -0.2504 -0.3269
  465MOL0     H62708   8.355   1.172   4.562 -2.0132  2.1768 -0.3678
  465MOL0     H62709   8.565   1.320   4.544  0.4906 -0.0644 -0.5514
  465MOL0     H62710   8.810   1.353   4.281 -0.9424 -1.9208 -4.9161
  465MOL0     H62711   8.711   1.435   4.158 -1.7500  0.9416 -0.5458
  465MOL0     H62712   8.832   1.580   4.389  0.7706 -0.5369  0.1338
  465MOL0     H62713   8.765   1.649   4.242  0.0484  1.3337  0.4991
  465MOL0     H62714   8.934   1.529   4.107  1.2546 -4.0303  1.7615
  465MOL0     H62715   9.005   1.477   4.266  0.8028 -1.9937 -2.6170
  465MOL0     H62716   8.978   1.782   4.180  0.7629  0.7427  2.4299
  465MOL0     H62717   9.077   1.719   4.309  2.9920 -0.0956 -0.9951
  465MOL0     H62718   9.221   1.607   4.147 -0.7912 -1.7134 -2.2178
  465MOL0     H62719   9.123   1.660   4.015  1.7787 -3.1898 -0.2788
  465MOL0     H62720   9.177   1.909   4.097 -2.2737 -0.5649  0.9342
  465MOL0     H62721   9.271   1.837   4.212  0.3639 -2.5913  0.0415
  465MOL0     H62722   9.401   1.920   3.996 -0.6404  0.6134  3.4921
  465MOL0     H62723   9.310   1.808   3.898  1.6067  1.2747 -0.2367
  465MOL0     H62724   9.514   1.733   4.122 -0.5312  1.0734  0.3613
  465MOL0     H62725   9.399   1.631   4.020 -1.7516  0.3296  1.0422
  465MOL0     H62726   9.725   1.857   3.968  1.0645  2.7318 -2.2794
  465MOL0     H62727   9.855   1.798   3.616 -1.9176 -2.7149  1.1241
  465MOL0     H62728   9.875   1.928   3.735  1.5107  0.5768 -1.4766
  465MOL0     H62729   9.976   1.646   3.742  0.7029  0.0806  1.6044
  465MOL0     H62730  10.082   1.777   3.694  1.4206  2.2492  1.9323
  465MOL0     H62731   9.964   1.746   3.982 -0.8777  1.5677 -0.3781
  465MOL0     H62732  10.070   1.877   3.922 -3.1631  0.4286 -0.0108
  465MOL0     H62733  10.253   1.753   3.875 -0.7245 -0.1659  0.2248
  465MOL0     H62734  10.166   1.600   3.917 -1.7057  0.2482  0.8161
  465MOL0     H62735  10.265   1.606   4.316  0.1418  0.3825  0.5421
  465MOL0     H62736  10.488   1.611   4.409  1.0585  3.4949  0.7583
  465MOL0     H62737  10.951   1.746   4.474 -0.5092 -0.2124 -0.6981
  465MOL0     H62738  11.185   1.704   4.475  2.0686 -0.7304 -1.5133
  465MOL0     H62739  11.538   1.863   4.273  0.0409 -3.8017 -0.7396
  465MOL0     H62740  11.431   1.892   4.132  2.8738 -0.8882 -0.7258
  465MOL0     H62741  11.470   2.079   4.276 -0.0168  0.0589 -2.0432
  465MOL0     H62742  11.296   2.034   4.261 -0.1385  0.4709  0.4326
  465MOL0     H62743  11.312   1.933   4.483 -0.1639 -0.5927 -2.2684
  465MOL0     H62744  11.490   1.929   4.483  0.6472  1.5960  1.5283
  465MOL0     H62745  11.307   2.175   4.499 -0.4170 -3.1517 -1.6312
  465MOL0     H62746  11.471   2.191   4.461 -1.8295 -0.9495 -2.4690
  465MOL0     H62747  11.360   2.069   4.722 -2.5175  0.4681 -1.7048
  465MOL0     H62748  11.427   2.236   4.697  0.1195 -0.1852 -0.4744
  465MOL0     H62749  11.586   1.981   4.684  0.3497  1.3666 -0.7580
  465MOL0     H62750  11.652   2.130   4.634  0.7266 -2.0890 -0.2635
  465MOL0     H62751  11.736   2.078   4.850  0.7197  0.6682 -0.8367
  465MOL0     H62752  11.571   2.073   4.915 -2.0301 -0.0556 -2.4044
  465MOL0     H62753  11.709   2.324   4.804  0.5122 -1.4565 -1.1287
  465MOL0     H62754  11.541   2.311   4.856 -0.4331  0.6531  0.0721
  465MOL0     H62755  11.215   1.825   4.065 -0.2370  0.8866  0.3646
  465MOL0     H62756  10.972   1.836   4.063 -1.5525  2.8115  1.3663
  465MOL0     H62757  10.660   1.716   4.049  0.0353 -3.0711 -0.9674
  465MOL0     H62758  10.434   1.741   3.936  0.1320  0.6617  0.5631
  465MOL0     H62759   8.467   1.364   4.132 -2.1450  3.2187  0.1204
  465MOL0     H62760   8.304   1.192   4.144  1.4309  1.8727 -1.7125
  465MOL0     H62761   8.117   0.905   4.194 -0.4473  1.5023  1.2884
  465MOL0     H62762   7.937   0.718   4.156  1.2538 -0.2685 -0.3712
  465MOL0     H62763   7.713   0.505   4.174  4.1526  0.1484  0.6903
  465MOL0     H62764   7.746   0.675   4.164 -3.2524 -1.4777 -3.0896
  465MOL0     H62765   7.525   0.663   4.217  0.6371  0.6311 -0.3980
  465MOL0     H62766   7.615   0.720   4.354  0.8300 -1.1608 -0.1327
  465MOL0     H62767   7.522   0.433   4.325 -2.3006 -0.2816  0.9887
  465MOL0     H62768   7.408   0.562   4.383  0.5804  2.4297 -2.9467
  465MOL0     H62769   7.659   0.510   4.537 -0.2253 -2.8517 -0.9736
  465MOL0     H62770   7.522   0.625   4.555 -2.6570 -0.5794 -2.2332
  465MOL0     H62771   7.425   0.249   4.749  1.6254  0.0343  0.5099
  465MOL0     H62772   7.912   0.642   4.564  0.5620  1.5734  1.0226
  465MOL0     H62773   8.046   0.754   4.724  2.1296  1.8085  2.6668
  465MOL0     H62774   8.215   0.744   4.672  1.1207  1.1446  0.9721
  465MOL0     H62775   8.146   0.891   4.698  0.7572 -0.5251  0.2053
  466MOL0     O62776   5.995   6.060   0.783  0.3636 -0.2854  0.9760
  466MOL0     C62777   5.989   6.116   0.889  0.1959  0.0078 -0.5781
  466MOL0     O62778   6.084   6.091   0.988 -0.4402 -0.3658 -0.1825
  466MOL0     C62779   6.188   6.012   0.972 -0.1591 -0.4180  0.1463
  466MOL0     C62780   6.210   5.893   1.040  0.2910 -0.7663 -0.2708
  466MOL0     C62781   6.315   5.802   1.010 -0.6626  0.4497 -0.0607
  466MOL0     C62782   6.401   5.839   0.909 -0.3425 -0.1282  0.3474
  466MOL0     O62783   6.507   5.748   0.877  0.1910  0.4581  0.7142
  466MOL0     C62784   6.620   5.783   0.796  0.0589 -0.8703  0.3596
  466MOL0     C62785   6.735   5.680   0.816  0.3175 -0.5336  0.4283
  466MOL0     C62786   6.803   5.723   0.954 -0.2670 -0.0334  0.3116
  466MOL0     C62787   6.918   5.814   0.935 -0.1888 -0.0206 -0.0646
  466MOL0     C62788   6.978   5.892   1.049  0.1325  0.0521 -0.1399
  466MOL0     C62789   7.071   6.008   1.006  0.5798  0.2347  1.3957
  466MOL0     C62790   7.206   5.937   0.961  0.1179 -0.0307  0.8228
  466MOL0     C62791   7.318   6.027   0.902  0.0399  0.4338 -0.4820
  466MOL0     N62792   7.299   6.073   0.765 -0.4582 -0.0345  0.2055
  466MOL0     C62793   7.229   6.178   0.726  1.1275  0.2367  0.1924
  466MOL0     C62794   7.263   6.206   0.597  0.2366  0.0351  0.5840
  466MOL0     C62795   7.224   6.323   0.513  0.7747  0.2056  0.3294
  466MOL0     C62796   7.350   6.414   0.494 -0.2294 -1.4631 -0.6272
  466MOL0     C62797   7.327   6.541   0.410 -0.2869 -0.7600 -0.3468
  466MOL0     C62798   7.453   6.616   0.354 -0.3126 -0.8525  0.2313
  466MOL0     O62799   7.549   6.605   0.455 -0.1372 -0.2230  0.2641
  466MOL0     C62800   7.678   6.604   0.407 -0.5368  1.2114  0.0592
  466MOL0     C62801   7.730   6.651   0.282 -0.0270 -0.9076 -0.0272
  466MOL0     C62802   7.867   6.649   0.254 -0.5539 -0.0538 -0.3601
  466MOL0     C62803   7.954   6.586   0.344 -0.2224 -0.0009  0.0148
  466MOL0     C62804   8.105   6.595   0.324 -0.0275 -1.1041  0.4731
  466MOL0     O62805   8.180   6.584   0.438  0.2285  0.4765  0.4193
  466MOL0     C62806   8.314   6.586   0.417 -0.8049  0.1732 -0.3845
  466MOL0     C62807   8.391   6.480   0.467  1.1801 -0.4337  0.4706
  466MOL0     C62808   8.532   6.480   0.460 -0.3472  0.5006  0.4639
  466MOL0     C62809   8.604   6.596   0.411 -1.2330 -0.5392 -0.5127
  466MOL0     O62810   8.736   6.625   0.410 -0.7356 -0.2403 -0.3874
  466MOL0     C62811   8.811   6.517   0.360 -0.5282 -0.0261 -0.4900
  466MOL0     C62812   8.947   6.536   0.417 -0.3853  0.4058 -0.2091
  466MOL0     C62813   9.058   6.461   0.333  0.4137 -0.5676  0.3724
  466MOL0     C62814   9.192   6.435   0.398 -0.6537 -0.4144 -0.6674
  466MOL0     C62815   9.241   6.543   0.500 -0.1999 -0.1421 -0.0196
  466MOL0     C62816   9.377   6.510   0.559  0.0398  0.5814 -0.6183
  466MOL0     C62817   9.434   6.638   0.620  0.3818  0.4037  0.2590
  466MOL0     C62818   9.589   6.626   0.609  0.4367 -0.6361  0.6229
  466MOL0    Cl62819   9.661   6.765   0.713 -0.0118  0.0278 -0.1256
  466MOL0     C62820   8.524   6.707   0.370  0.1453  0.1409 -0.3713
  466MOL0     C62821   8.386   6.703   0.376  0.4512 -0.1833  0.6961
  466MOL0     O62822   8.145   6.615   0.208  0.0529 -0.0695 -0.2662
  466MOL0     C62823   7.906   6.531   0.461 -0.0363  0.3131 -0.6123
  466MOL0     C62824   7.765   6.543   0.487  0.3830  0.1552 -0.6413
  466MOL0     N62825   7.356   6.109   0.562  0.0387 -0.5948  0.2405
  466MOL0     N62826   7.376   6.032   0.660  0.4930  0.3417 -0.1101
  466MOL0     C62827   6.375   5.954   0.839 -0.4841  0.5815  0.0803
  466MOL0     C62828   6.273   6.037   0.864 -0.3684 -0.3644  0.3809
  466MOL0     C62829   5.873   6.204   0.929  0.0709  0.3829  0.1333
  466MOL0     C62830   5.898   6.310   1.015 -0.0086  0.2628 -0.1835
  466MOL0     C62831   5.799   6.397   1.064  0.1774 -0.4845 -1.4184
  466MOL0     C62832   5.664   6.376   1.020  0.5353 -0.0823 -0.4337
  466MOL0     O62833   5.569   6.456   1.070 -0.5550  0.0737  0.4225
  466MOL0     C62834   5.430   6.433   1.048 -0.0080 -0.8655  0.0302
  466MOL0     C62835   5.358   6.542   1.128 -0.7470 -0.4546 -0.2772
  466MOL0     C62836   5.211   6.527   1.096 -0.4216  0.0681 -0.3003
  466MOL0     C62837   5.177   6.614   0.974 -0.9395  0.5683  0.0552
  466MOL0     C62838   5.035   6.611   0.936 -0.1432  0.3762 -0.4421
  466MOL0     C62839   4.929   6.631   0.898 -0.3508  0.0484 -0.0545
  466MOL0     C62840   5.641   6.269   0.934  0.2028  0.0385  1.2824
  466MOL0     C62841   5.741   6.179   0.888  1.2300 -0.1232 -0.6348
  466MOL0     C62842   5.694   6.061   0.808  0.3873  0.5435 -0.7168
  466MOL0     H62843   6.146   5.865   1.124 -0.4117 -2.3783 -1.2808
  466MOL0     H62844   6.344   5.713   1.065  2.7841 -0.1155 -2.4507
  466MOL0     H62845   6.586   5.790   0.692  1.4440 -1.5630 -0.1661
  466MOL0     H62846   6.655   5.882   0.826 -0.8407 -0.4864  0.1739
  466MOL0     H62847   6.810   5.682   0.736 -2.0209  0.0917 -1.8976
  466MOL0     H62848   6.702   5.576   0.828  0.6610 -0.8629 -1.2424
  466MOL0     H62849   6.829   5.628   1.002  0.9486 -0.9120 -1.9374
  466MOL0     H62850   6.737   5.773   1.025  0.7445 -1.0400  2.0320
  466MOL0     H62851   6.999   5.751   0.897 -0.4210 -0.9921  1.0003
  466MOL0     H62852   6.887   5.890   0.863 -1.6415 -1.8689 -1.4724
  466MOL0     H62853   6.898   5.941   1.106  1.2208 -0.8355  2.3071
  466MOL0     H62854   7.027   5.828   1.123 -0.5286 -0.6548 -0.2998
  466MOL0     H62855   7.024   6.057   0.920 -0.5412 -1.3026  1.0871
  466MOL0     H62856   7.102   6.078   1.084 -1.1124  3.5036 -0.6045
  466MOL0     H62857   7.179   5.862   0.885 -1.2771  0.6010  0.6629
  466MOL0     H62858   7.233   5.872   1.045  0.0077 -1.9557 -0.5509
  466MOL0     H62859   7.320   6.108   0.976  2.2912 -0.8029  0.9276
  466MOL0     H62860   7.414   5.979   0.924 -0.4452  1.2514  4.7700
  466MOL0     H62861   7.164   6.242   0.786  0.1330 -2.5723  2.3671
  466MOL0     H62862   7.189   6.283   0.417 -1.7116 -1.3406  1.7664
  466MOL0     H62863   7.140   6.375   0.559 -0.5325 -1.0189 -0.5705
  466MOL0     H62864   7.383   6.449   0.592 -0.3501 -2.2296 -0.3047
  466MOL0     H62865   7.436   6.362   0.452  2.6934 -0.1287  3.1035
  466MOL0     H62866   7.259   6.609   0.464  2.0238  0.1217  1.6463
  466MOL0     H62867   7.270   6.512   0.322  0.1070 -0.5110 -0.6846
  466MOL0     H62868   7.430   6.722   0.339  3.4798  0.0369 -0.1555
  466MOL0     H62869   7.480   6.562   0.262  0.3519  1.0939 -0.7602
  466MOL0     H62870   7.659   6.684   0.207 -3.2133 -0.5768  2.8440
  466MOL0     H62871   7.901   6.685   0.157  0.4675 -0.2277 -0.0803
  466MOL0     H62872   8.331   6.401   0.513 -0.8994  0.6779 -0.1929
  466MOL0     H62873   8.581   6.390   0.495  2.0931  1.7305  0.4440
  466MOL0     H62874   8.774   6.422   0.400 -1.7714  0.3159 -0.7899
  466MOL0     H62875   8.817   6.520   0.251  0.8981  1.1435 -0.4208
  466MOL0     H62876   8.979   6.640   0.422  2.3896 -0.3992  1.8004
  466MOL0     H62877   8.949   6.504   0.522 -1.8835  1.3145  0.1264
  466MOL0     H62878   9.043   6.356   0.305  1.1625 -0.9958  1.5252
  466MOL0     H62879   9.061   6.519   0.240  1.3894  2.5318  2.2301
  466MOL0     H62880   9.264   6.424   0.316  0.7164 -2.0180  0.6639
  466MOL0     H62881   9.193   6.339   0.450 -0.9932 -0.0866 -0.0540
  466MOL0     H62882   9.162   6.551   0.575 -0.9384  1.3947 -0.9181
  466MOL0     H62883   9.244   6.635   0.441  0.8352 -1.3838 -2.0123
  466MOL0     H62884   9.372   6.434   0.638  0.8583 -0.5229 -1.5831
  466MOL0     H62885   9.437   6.459   0.483 -1.0092 -2.0758  0.2374
  466MOL0     H62886   9.423   6.629   0.728  1.3215  0.1679  0.3429
  466MOL0     H62887   9.387   6.729   0.583 -0.8063 -0.3101 -0.0402
  466MOL0     H62888   9.636   6.533   0.642 -0.4816 -0.5444  2.2837
  466MOL0     H62889   9.618   6.634   0.503  0.0492  3.8915  0.6720
  466MOL0     H62890   8.571   6.796   0.331 -0.3126  1.0005  0.9894
  466MOL0     H62891   8.326   6.791   0.354  0.1683 -0.6512 -0.4805
  466MOL0     H62892   7.967   6.484   0.537 -3.3670  0.7778  2.6740
  466MOL0     H62893   7.720   6.514   0.582  0.1022 -2.1758 -1.4333
  466MOL0     H62894   6.439   5.995   0.761  2.5901 -0.6320  1.7526
  466MOL0     H62895   6.253   6.122   0.800  1.5930 -1.7724 -2.3291
  466MOL0     H62896   5.995   6.341   1.052  0.5655 -2.2845  0.6626
  466MOL0     H62897   5.813   6.478   1.134 -0.5975 -1.8882  0.4774
  466MOL0     H62898   5.405   6.329   1.068 -1.8440 -0.9684 -2.3157
  466MOL0     H62899   5.413   6.454   0.942  1.1152  0.7802  0.1261
  466MOL0     H62900   5.388   6.643   1.100 -0.7274  0.1798  1.9252
  466MOL0     H62901   5.371   6.532   1.236 -5.3241  2.3060  0.7823
  466MOL0     H62902   5.152   6.564   1.181  0.0547  0.8409 -0.2990
  466MOL0     H62903   5.185   6.423   1.073 -0.0151 -0.1641  0.2645
  466MOL0     H62904   5.206   6.718   0.995  1.9056 -0.0382 -0.4108
  466MOL0     H62905   5.238   6.585   0.888  1.7476 -0.2366  2.1075
  466MOL0     H62906   4.829   6.637   0.860  0.0192 -0.5075 -1.1760
  466MOL0     H62907   5.540   6.258   0.897  0.2126 -2.4370  1.8312
  466MOL0     H62908   5.764   5.979   0.825  0.7720  1.1773  1.0635
  466MOL0     H62909   5.599   6.029   0.852  0.4725 -0.1874 -1.0525
  466MOL0     H62910   5.681   6.097   0.706  0.7935  1.3402 -0.4990
  467MOL0     O62911   8.783   9.211   0.955  0.2498  0.0879  0.4198
  467MOL0     C62912   8.780   9.098   0.901  0.8098  0.5946 -0.0149
  467MOL0     O62913   8.869   8.996   0.923  0.1773 -0.2332 -0.2937
  467MOL0     C62914   8.994   9.029   0.961 -0.1434  0.0419 -0.0963
  467MOL0     C62915   9.065   9.123   0.881  0.7460 -0.8009  0.2508
  467MOL0     C62916   9.202   9.149   0.918  0.1997 -0.2323  0.2897
  467MOL0     C62917   9.261   9.084   1.019 -0.1635 -0.1566  0.1594
  467MOL0     O62918   9.399   9.122   1.038 -0.0602 -0.5287  0.1336
  467MOL0     C62919   9.473   9.068   1.149 -0.1657  0.5799 -0.9060
  467MOL0     C62920   9.596   9.152   1.178  0.5485 -0.1066 -0.4364
  467MOL0     C62921   9.699   9.083   1.262 -0.8003 -0.1211 -0.0550
  467MOL0     C62922   9.821   9.168   1.269 -0.5024  0.1024  0.2920
  467MOL0     C62923   9.922   9.147   1.385  0.7051  0.1288 -0.5782
  467MOL0     C62924  10.053   9.218   1.349  0.3237  0.1430 -0.4403
  467MOL0     C62925  10.141   9.240   1.460 -0.3270 -0.4710 -0.3287
  467MOL0     C62926  10.280   9.277   1.420 -0.2864 -1.0100 -0.0815
  467MOL0     N62927  10.375   9.282   1.533 -0.5851  0.1515  0.0028
  467MOL0     C62928  10.337   9.306   1.662 -0.1264  0.4223  0.1299
  467MOL0     C62929  10.457   9.300   1.731 -0.4235  0.4580 -0.5029
  467MOL0     C62930  10.478   9.303   1.881  0.1810  0.2051  0.6816
  467MOL0     C62931  10.597   9.228   1.931  0.1596 -0.3387  0.8746
  467MOL0     C62932  10.594   9.073   1.916  0.4665 -0.1039  0.2696
  467MOL0     C62933  10.726   9.007   1.932  0.3304  0.1361 -0.1587
  467MOL0     O62934  10.794   9.042   2.053  0.3090 -0.4174 -1.2234
  467MOL0     C62935  10.914   8.985   2.075 -0.6383 -0.3471  0.0478
  467MOL0     C62936  10.964   8.865   2.028 -0.4078 -0.4138  0.3261
  467MOL0     C62937  11.099   8.826   2.055 -0.5451  0.2342 -0.7526
  467MOL0     C62938  11.183   8.902   2.133 -0.3472 -0.2490 -0.6661
  467MOL0     C62939  11.321   8.861   2.175  0.4764 -0.1916 -0.7472
  467MOL0     O62940  11.365   8.908   2.304  0.0291 -0.3202  0.1179
  467MOL0     C62941  11.485   8.878   2.350  0.2452 -0.4531 -0.1799
  467MOL0     C62942  11.569   8.981   2.390 -0.1339  0.6619  0.7105
  467MOL0     C62943  11.699   8.950   2.437 -0.1216  0.7154  0.0917
  467MOL0     C62944  11.748   8.822   2.424 -0.6509 -0.1289  0.3416
  467MOL0     O62945  11.875   8.785   2.448 -0.1514  0.0704  0.3313
  467MOL0     C62946  11.952   8.846   2.549 -0.2441  0.1165 -0.3596
  467MOL0     C62947  12.101   8.792   2.554  0.7885 -0.7453  0.2263
  467MOL0     C62948  12.113   8.655   2.614  0.1607  0.4058  1.1553
  467MOL0     C62949  12.260   8.608   2.611 -0.2301  0.8489  0.5576
  467MOL0     C62950  12.272   8.464   2.669 -0.5506 -0.5908 -0.0756
  467MOL0     C62951  12.399   8.408   2.605 -0.0180 -0.4982  0.9370
  467MOL0     C62952  12.427   8.275   2.673  1.1310  0.4283  0.5156
  467MOL0     C62953  12.555   8.211   2.612 -0.0266 -0.7650 -0.8490
  467MOL0    Cl62954  12.612   8.080   2.723 -0.4651 -0.3579  0.1039
  467MOL0     C62955  11.663   8.720   2.394 -1.2386  0.9264 -0.2918
  467MOL0     C62956  11.534   8.747   2.361  0.2792 -0.8584  0.3615
  467MOL0     O62957  11.386   8.786   2.102  0.3432 -0.1677  0.2850
  467MOL0     C62958  11.135   9.024   2.176  0.5140 -0.4794  0.1059
  467MOL0     C62959  10.999   9.063   2.152 -0.1289  0.2111  0.3745
  467MOL0     N62960  10.553   9.280   1.640  0.7980  0.0295  0.0990
  467MOL0     N62961  10.509   9.280   1.517  0.4033 -0.0391  0.2552
  467MOL0     C62962   9.182   9.002   1.093  0.0514  1.1546 -0.0624
  467MOL0     C62963   9.047   8.960   1.069  0.0007 -0.6123  0.1751
  467MOL0     C62964   8.664   9.064   0.828  0.4024 -0.5399 -0.2815
  467MOL0     C62965   8.635   8.936   0.799  0.5198  1.3398 -0.5614
  467MOL0     C62966   8.512   8.893   0.733 -0.2351 -0.2483  0.6443
  467MOL0     C62967   8.430   8.995   0.681 -0.2382 -0.3198 -1.6853
  467MOL0     O62968   8.322   8.965   0.606  0.2373  1.0960 -0.3291
  467MOL0     C62969   8.232   9.068   0.566 -0.3771  0.2068  0.3861
  467MOL0     C62970   8.129   8.996   0.470  0.3380 -0.2826 -0.1219
  467MOL0     C62971   8.038   8.899   0.541  0.0215 -0.0997 -0.0122
  467MOL0     C62972   7.951   8.818   0.452 -0.0943 -0.4212 -0.5872
  467MOL0     C62973   7.870   8.904   0.362 -0.4244 -0.1807  0.3652
  467MOL0     C62974   7.807   8.967   0.282 -0.6290  0.0251 -0.1144
  467MOL0     C62975   8.457   9.128   0.719 -0.8642  0.2908 -0.2888
  467MOL0     C62976   8.569   9.163   0.795 -0.1827  0.0139 -0.5606
  467MOL0     C62977   8.577   9.307   0.811  0.3545 -0.0545  0.0999
  467MOL0     H62978   9.028   9.183   0.798  2.0166 -1.5416 -0.9031
  467MOL0     H62979   9.253   9.225   0.860  0.4108 -0.6061 -0.0158
  467MOL0     H62980   9.411   9.058   1.239 -0.1485  1.9284 -0.7252
  467MOL0     H62981   9.501   8.966   1.122  0.0430  0.3613  0.0786
  467MOL0     H62982   9.560   9.242   1.230 -0.2967 -0.1965 -0.8520
  467MOL0     H62983   9.637   9.169   1.078 -2.3733 -1.8889 -2.0815
  467MOL0     H62984   9.711   8.978   1.233  2.2686  0.0517  0.2737
  467MOL0     H62985   9.667   9.077   1.366  1.0362  1.2984  0.6323
  467MOL0     H62986   9.867   9.163   1.170  2.4229 -0.9245  1.5847
  467MOL0     H62987   9.784   9.271   1.280  0.1355  0.0627  4.2946
  467MOL0     H62988   9.869   9.183   1.474 -0.1915 -0.5290 -0.8326
  467MOL0     H62989   9.947   9.042   1.399 -0.4640 -0.0415  0.3535
  467MOL0     H62990  10.100   9.158   1.270 -0.3323  1.3583 -1.7884
  467MOL0     H62991  10.029   9.316   1.307  0.0178  0.3757  0.2587
  467MOL0     H62992  10.154   9.145   1.514 -0.6600 -1.1071 -1.3380
  467MOL0     H62993  10.096   9.322   1.517 -0.1343 -1.0616  0.7061
  467MOL0     H62994  10.321   9.192   1.365 -1.2026 -0.1751 -2.1505
  467MOL0     H62995  10.279   9.375   1.371 -1.7796  0.6205  2.9310
  467MOL0     H62996  10.240   9.312   1.710  0.3483  3.6886  0.8813
  467MOL0     H62997  10.481   9.409   1.906  1.4746  0.3891 -0.1179
  467MOL0     H62998  10.393   9.248   1.921 -0.5171 -1.4536 -2.7162
  467MOL0     H62999  10.679   9.269   1.871 -2.0182  1.1649 -1.3091
  467MOL0     H63000  10.626   9.256   2.033  0.8826 -0.3416  0.6728
  467MOL0     H63001  10.562   9.030   1.821  2.4246 -1.3943  0.1364
  467MOL0     H63002  10.531   9.028   1.994  0.3115 -1.1202 -0.4145
  467MOL0     H63003  10.785   9.043   1.847 -0.5530 -0.2222 -0.9397
  467MOL0     H63004  10.717   8.899   1.922 -0.9241  0.0949  1.1132
  467MOL0     H63005  10.905   8.785   1.985  0.4368 -1.3837  0.9313
  467MOL0     H63006  11.147   8.743   2.006 -1.3992 -1.0857  0.5647
  467MOL0     H63007  11.531   9.082   2.396  0.5739  0.9610  0.3248
  467MOL0     H63008  11.762   9.023   2.486 -1.5234  1.2600  1.1395
  467MOL0     H63009  11.960   8.951   2.519 -0.4065 -0.4865 -2.7197
  467MOL0     H63010  11.907   8.825   2.647  1.0989  0.6101  0.3789
  467MOL0     H63011  12.154   8.808   2.459 -1.5881  0.6393 -0.9561
  467MOL0     H63012  12.151   8.860   2.623  0.3639  2.2070 -2.1601
  467MOL0     H63013  12.079   8.650   2.718  0.1495 -0.8927  1.1096
  467MOL0     H63014  12.054   8.589   2.550  1.2799  0.1293  0.3883
  467MOL0     H63015  12.333   8.664   2.670  2.5279 -0.3748 -1.4672
  467MOL0     H63016  12.295   8.606   2.507 -1.0504 -1.7338  0.2475
  467MOL0     H63017  12.188   8.398   2.644  0.3410 -2.3767  1.3541
  467MOL0     H63018  12.282   8.465   2.778  2.8308  1.6396 -0.2573
  467MOL0     H63019  12.371   8.384   2.502  0.1745  0.5319  0.6336
  467MOL0     H63020  12.474   8.486   2.621 -0.2709 -0.4353  1.8541
  467MOL0     H63021  12.347   8.204   2.655  1.8900 -0.2391 -0.3141
  467MOL0     H63022  12.439   8.276   2.782  0.9702 -0.3850  0.5398
  467MOL0     H63023  12.554   8.164   2.513 -0.6423  0.6640 -1.5490
  467MOL0     H63024  12.631   8.290   2.614  1.1742 -1.8900 -0.5354
  467MOL0     H63025  11.702   8.620   2.408  0.0107  1.3428 -0.6885
  467MOL0     H63026  11.464   8.665   2.351  1.4112 -1.6634 -1.8242
  467MOL0     H63027  11.189   9.106   2.221 -1.5392  1.6136 -1.0713
  467MOL0     H63028  10.956   9.159   2.180 -0.6530  0.8525 -2.3363
  467MOL0     H63029   9.226   8.963   1.185  3.8964 -3.7477 -3.4207
  467MOL0     H63030   8.980   8.903   1.132  0.2661  0.7655  1.7911
  467MOL0     H63031   8.703   8.853   0.817 -3.5506 -2.3028 -0.1349
  467MOL0     H63032   8.497   8.791   0.699 -4.9089  0.7497 -1.0754
  467MOL0     H63033   8.284   9.143   0.506  1.0336 -2.4384 -1.9425
  467MOL0     H63034   8.175   9.105   0.652 -2.2819 -1.2597 -0.1556
  467MOL0     H63035   8.186   8.934   0.400  2.1964 -0.1279  1.1957
  467MOL0     H63036   8.067   9.072   0.419  0.3478 -0.8540 -1.0132
  467MOL0     H63037   7.978   8.944   0.621  0.7414 -0.4914  0.7676
  467MOL0     H63038   8.102   8.822   0.584  0.1335 -0.6153 -1.0771
  467MOL0     H63039   8.005   8.747   0.388  0.6473 -1.1198  0.7647
  467MOL0     H63040   7.878   8.753   0.503 -2.1878  0.9344 -1.7115
  467MOL0     H63041   7.736   9.008   0.214 -0.3271 -0.7857 -0.9283
  467MOL0     H63042   8.395   9.207   0.678 -1.3686  0.6618  1.1153
  467MOL0     H63043   8.497   9.370   0.773  1.9703  1.3539 -1.1153
  467MOL0     H63044   8.575   9.317   0.920 -1.4175 -0.7791  0.1757
  467MOL0     H63045   8.674   9.348   0.780  1.2556 -1.1399  1.3256
  468MOL0     O63046   5.051   2.068   4.443 -0.1680  0.5836  0.1927
  468MOL0     C63047   5.011   2.085   4.330  0.6159 -0.5668  0.6779
  468MOL0     O63048   5.068   2.171   4.237  0.7001 -0.0669  0.9983
  468MOL0     C63049   5.188   2.226   4.279  0.0210 -0.0953  0.2429
  468MOL0     C63050   5.305   2.152   4.260  0.0963 -0.0808  0.6422
  468MOL0     C63051   5.427   2.224   4.257 -0.5305  0.0486  0.6088
  468MOL0     C63052   5.445   2.353   4.303  0.3001  0.0143  0.5819
  468MOL0     O63053   5.571   2.427   4.300  0.5163  0.3688 -0.6380
  468MOL0     C63054   5.687   2.370   4.251  0.3984  0.8583  0.1823
  468MOL0     C63055   5.792   2.474   4.284  0.0930 -1.5527  0.0485
  468MOL0     C63056   5.942   2.425   4.267  1.1510  0.5726 -1.0279
  468MOL0     C63057   6.048   2.500   4.352  0.0814  0.4641  0.6809
  468MOL0     C63058   6.190   2.453   4.360 -0.2385  0.1983  0.1852
  468MOL0     C63059   6.277   2.520   4.255  0.6048  0.5164  0.0558
  468MOL0     C63060   6.420   2.458   4.244 -0.2692  0.4215 -0.0361
  468MOL0     C63061   6.501   2.553   4.142 -0.2478  0.4754  0.4012
  468MOL0     N63062   6.642   2.513   4.149 -0.3319  0.1136 -0.3860
  468MOL0     C63063   6.744   2.571   4.078  0.1106 -0.8870  0.7120
  468MOL0     C63064   6.860   2.500   4.107 -0.8359  0.4390 -0.5496
  468MOL0     C63065   6.993   2.516   4.046 -0.2764  0.1494  0.6411
  468MOL0     C63066   7.041   2.388   3.977  0.0431  0.3274  0.1923
  468MOL0     C63067   7.071   2.397   3.824  0.1234  0.0024  0.6427
  468MOL0     C63068   7.177   2.497   3.785  0.6491 -0.4918  0.1133
  468MOL0     O63069   7.308   2.459   3.834  0.4981 -0.0812  0.8673
  468MOL0     C63070   7.424   2.508   3.776 -0.0831  0.1852 -0.6505
  468MOL0     C63071   7.549   2.477   3.825  0.2990 -0.0802 -0.3161
  468MOL0     C63072   7.673   2.516   3.758 -0.4532  0.6108  0.0638
  468MOL0     C63073   7.679   2.597   3.645 -0.3902  0.6738 -0.0939
  468MOL0     C63074   7.806   2.629   3.592  0.3065 -0.5115  0.0560
  468MOL0     O63075   7.922   2.605   3.666  0.3078  0.0468 -0.6696
  468MOL0     C63076   8.048   2.633   3.630  0.2479  0.7071 -0.4993
  468MOL0     C63077   8.091   2.617   3.494  0.1940  0.9044  0.2609
  468MOL0     C63078   8.224   2.636   3.460  0.2657  0.2494 -0.9673
  468MOL0     C63079   8.324   2.656   3.554 -0.7020  0.8202 -0.9704
  468MOL0     O63080   8.455   2.687   3.525 -1.1157  0.0902  0.7405
  468MOL0     C63081   8.513   2.645   3.401 -0.2469  0.1292 -0.0803
  468MOL0     C63082   8.555   2.495   3.412  0.4919  0.0622 -0.2106
  468MOL0     C63083   8.579   2.419   3.279 -0.4644 -0.0704 -0.4452
  468MOL0     C63084   8.667   2.499   3.184  0.1565 -0.2068 -0.0608
  468MOL0     C63085   8.816   2.475   3.214 -0.0156  0.0616 -0.0621
  468MOL0     C63086   8.865   2.342   3.162 -0.9485  0.4530  0.4081
  468MOL0     C63087   9.016   2.328   3.198  0.2593 -0.0076 -0.1193
  468MOL0     C63088   9.048   2.320   3.340 -0.6455 -0.3281  0.3875
  468MOL0    Cl63089   9.223   2.280   3.367  0.2256 -0.2583 -0.2655
  468MOL0     C63090   8.280   2.666   3.695  0.1560  0.7651  0.2373
  468MOL0     C63091   8.147   2.654   3.722 -0.3055  0.3789  0.6568
  468MOL0     O63092   7.809   2.663   3.473  0.4161  0.4556  0.1976
  468MOL0     C63093   7.550   2.620   3.590  0.0525 -0.1940  0.4478
  468MOL0     C63094   7.432   2.581   3.652  0.3484  0.5569  0.6606
  468MOL0     N63095   6.827   2.400   4.202  0.5760 -0.0674  0.4381
  468MOL0     N63096   6.697   2.403   4.216  0.1804 -0.0763  0.6230
  468MOL0     C63097   5.328   2.415   4.349  0.5686 -0.1834 -0.1445
  468MOL0     C63098   5.198   2.355   4.334 -0.6196  0.3771 -0.1042
  468MOL0     C63099   4.883   2.016   4.318 -0.1689 -0.0642  1.0775
  468MOL0     C63100   4.795   2.008   4.423  0.4368  0.3467 -0.7494
  468MOL0     C63101   4.670   1.942   4.409 -0.1133 -0.7425  0.1395
  468MOL0     C63102   4.626   1.894   4.286 -0.5796 -0.1278 -0.6615
  468MOL0     O63103   4.509   1.826   4.268 -0.7622 -0.4269  0.2487
  468MOL0     C63104   4.460   1.753   4.380  0.0586  0.2245  0.3697
  468MOL0     C63105   4.373   1.627   4.331 -0.3441 -0.1971 -0.5243
  468MOL0     C63106   4.318   1.554   4.451  0.0172  0.3819 -0.1982
  468MOL0     C63107   4.212   1.455   4.419 -0.5535  0.2002  0.3361
  468MOL0     C63108   4.265   1.354   4.334 -0.4307 -0.1405  0.8069
  468MOL0     C63109   4.321   1.278   4.265  0.5974  0.4313 -0.1316
  468MOL0     C63110   4.717   1.917   4.178 -0.2860 -0.1291 -0.1129
  468MOL0     C63111   4.838   1.975   4.191 -0.0586 -0.5264 -0.2792
  468MOL0     C63112   4.930   1.987   4.070  0.3805 -0.2314  0.8444
  468MOL0     H63113   5.304   2.053   4.215  0.0071  0.0238  0.4128
  468MOL0     H63114   5.508   2.175   4.203 -2.2525  1.3261 -3.5059
  468MOL0     H63115   5.709   2.276   4.304  3.5640  0.0223 -2.2805
  468MOL0     H63116   5.694   2.342   4.145  2.8289 -0.0790  0.5231
  468MOL0     H63117   5.779   2.515   4.384 -1.3413  0.2139 -0.8014
  468MOL0     H63118   5.776   2.557   4.214  2.1624 -0.6585  0.5594
  468MOL0     H63119   5.969   2.430   4.161  0.2703 -0.7813 -1.3428
  468MOL0     H63120   5.940   2.322   4.304  2.4293 -0.3304 -3.2634
  468MOL0     H63121   6.056   2.602   4.313 -1.3629  0.7082  1.0063
  468MOL0     H63122   6.004   2.500   4.452 -1.0500  0.4982  0.1976
  468MOL0     H63123   6.233   2.478   4.457  0.3592 -0.0002 -0.0245
  468MOL0     H63124   6.195   2.345   4.348 -0.0958  0.0920  1.1326
  468MOL0     H63125   6.225   2.507   4.159 -0.4023 -1.1812  0.7924
  468MOL0     H63126   6.273   2.627   4.281  0.6944  0.6303 -0.3874
  468MOL0     H63127   6.424   2.353   4.214  1.5132  0.4160  0.1354
  468MOL0     H63128   6.458   2.469   4.346 -3.5617 -0.2577  1.4105
  468MOL0     H63129   6.463   2.551   4.039  0.8591  2.5639 -0.0930
  468MOL0     H63130   6.491   2.658   4.168 -0.0954  0.2398  1.4324
  468MOL0     H63131   6.742   2.644   3.997  2.9327  2.4684  3.3290
  468MOL0     H63132   6.982   2.596   3.972 -1.5904 -1.4690 -0.9937
  468MOL0     H63133   7.070   2.548   4.117  1.0203 -0.0643 -0.6405
  468MOL0     H63134   7.135   2.354   4.022 -0.8959  0.2402  2.1968
  468MOL0     H63135   6.969   2.308   3.998  0.1206 -0.3600 -1.9323
  468MOL0     H63136   6.977   2.432   3.780 -2.7283 -4.0976  2.7748
  468MOL0     H63137   7.089   2.298   3.782 -0.7935 -0.7033  1.8300
  468MOL0     H63138   7.149   2.596   3.820 -0.2142  0.1219 -2.1915
  468MOL0     H63139   7.180   2.501   3.676 -0.6547  1.1482  0.1118
  468MOL0     H63140   7.549   2.415   3.915  0.8675  0.6899  0.2351
  468MOL0     H63141   7.770   2.480   3.789  0.9868  2.8907 -1.4976
  468MOL0     H63142   8.032   2.583   3.410  1.0017 -0.1104  0.0882
  468MOL0     H63143   8.261   2.640   3.358  0.3077  0.0402 -0.9605
  468MOL0     H63144   8.452   2.657   3.311  0.1520 -1.8600 -0.6769
  468MOL0     H63145   8.611   2.692   3.386  0.0141  0.2064  1.7139
  468MOL0     H63146   8.645   2.503   3.473  0.4518  0.9100 -0.2499
  468MOL0     H63147   8.491   2.421   3.460 -2.3671  2.1605 -0.5711
  468MOL0     H63148   8.622   2.322   3.302  1.4893  0.2897 -2.2688
  468MOL0     H63149   8.483   2.409   3.227 -1.4375  0.5630  1.1420
  468MOL0     H63150   8.633   2.603   3.188  0.9683  0.0376  1.0463
  468MOL0     H63151   8.643   2.472   3.081  0.8816  0.6669 -0.4730
  468MOL0     H63152   8.835   2.482   3.322 -0.3696  0.4897 -0.0248
  468MOL0     H63153   8.876   2.554   3.168 -1.7547  1.8258  0.5668
  468MOL0     H63154   8.817   2.256   3.209  1.3709 -1.2463 -0.1230
  468MOL0     H63155   8.849   2.342   3.054 -1.4251  0.2180  0.4758
  468MOL0     H63156   9.076   2.408   3.153  0.2687  0.6739  1.0814
  468MOL0     H63157   9.056   2.236   3.154 -0.4637  0.0737 -0.9777
  468MOL0     H63158   9.034   2.421   3.379  0.0146  0.9818 -2.5324
  468MOL0     H63159   8.989   2.243   3.391  0.5801 -2.6430 -1.4832
  468MOL0     H63160   8.356   2.695   3.767  1.5523 -1.4979 -0.2224
  468MOL0     H63161   8.126   2.662   3.828  2.6466 -2.5640  1.6070
  468MOL0     H63162   7.548   2.690   3.507  0.5752 -0.4151  0.2431
  468MOL0     H63163   7.344   2.617   3.600  0.6902 -0.0192 -0.3577
  468MOL0     H63164   5.328   2.515   4.392 -3.2834  0.1158 -0.5349
  468MOL0     H63165   5.122   2.426   4.364  0.5590  0.8556  1.9282
  468MOL0     H63166   4.823   2.054   4.517  1.3684  0.8270 -1.2550
  468MOL0     H63167   4.607   1.924   4.495  0.0159  1.0148  0.6261
  468MOL0     H63168   4.393   1.810   4.445 -0.8011 -0.7692  0.3808
  468MOL0     H63169   4.549   1.716   4.432  2.6960  0.5572 -3.4239
  468MOL0     H63170   4.434   1.569   4.261 -0.3186 -0.8502  0.0253
  468MOL0     H63171   4.289   1.656   4.268 -0.6418 -0.5518 -0.2966
  468MOL0     H63172   4.263   1.620   4.519 -0.4585  1.9427 -2.0179
  468MOL0     H63173   4.400   1.509   4.509 -1.5938  0.6857  2.5219
  468MOL0     H63174   4.164   1.411   4.507 -1.4538 -0.5289 -0.5053
  468MOL0     H63175   4.128   1.505   4.370  1.6430  3.2779 -0.5693
  468MOL0     H63176   4.373   1.212   4.199  0.2265  0.7362 -0.7439
  468MOL0     H63177   4.688   1.885   4.078  1.6882 -0.9907 -0.4525
  468MOL0     H63178   4.909   2.079   4.016  1.3086 -1.7014 -2.2157
  468MOL0     H63179   5.039   1.986   4.082  0.5669  0.7441 -0.5838
  468MOL0     H63180   4.902   1.903   4.006  2.0431  0.4185 -0.8032
  469MOL0     O63181   5.498   5.977   5.617 -0.3279  1.0802 -0.0212
  469MOL0     C63182   5.514   6.076   5.561 -0.0517  0.4692 -0.2124
  469MOL0     O63183   5.635   6.133   5.541  0.0647 -0.4714  0.1723
  469MOL0     C63184   5.742   6.059   5.583  0.0196  0.0052 -0.2770
  469MOL0     C63185   5.779   5.952   5.495 -0.4176 -0.5708 -0.4268
  469MOL0     C63186   5.875   5.854   5.540 -0.4191  0.5183 -0.5439
  469MOL0     C63187   5.937   5.859   5.667  0.0267  0.0690 -0.3379
  469MOL0     O63188   6.045   5.790   5.712 -0.3448  1.0170  0.8326
  469MOL0     C63189   6.114   5.710   5.618  0.1159  0.7225  0.4091
  469MOL0     C63190   6.251   5.659   5.676  0.1760  0.1910  0.9110
  469MOL0     C63191   6.298   5.537   5.589 -0.4974 -0.0347  0.3924
  469MOL0     C63192   6.451   5.517   5.606  0.1847  0.6455 -0.3770
  469MOL0     C63193   6.505   5.427   5.487  0.1504 -0.5633 -0.2981
  469MOL0     C63194   6.551   5.513   5.363 -0.4130  0.9756 -0.7071
  469MOL0     C63195   6.620   5.431   5.245 -0.1295  0.7495 -0.2199
  469MOL0     C63196   6.726   5.511   5.181  0.3105  0.2871  0.2183
  469MOL0     N63197   6.768   5.459   5.050 -0.2232  0.0048  0.1034
  469MOL0     C63198   6.767   5.332   5.016 -0.5854 -0.0035  2.5703
  469MOL0     C63199   6.802   5.330   4.879 -0.9458 -0.4307  0.0468
  469MOL0     C63200   6.821   5.209   4.790  0.7398 -0.3222  0.0508
  469MOL0     C63201   6.695   5.189   4.702  0.3601 -0.2792  0.7720
  469MOL0     C63202   6.703   5.089   4.592  0.2981  0.1666  0.4833
  469MOL0     C63203   6.596   5.115   4.480  0.8585  1.3567  0.4657
  469MOL0     O63204   6.458   5.096   4.525 -0.1004 -1.0478  0.6047
  469MOL0     C63205   6.357   5.182   4.484 -0.3157  0.1538  0.1500
  469MOL0     C63206   6.234   5.175   4.561  0.0127 -0.5402 -0.2698
  469MOL0     C63207   6.124   5.260   4.542 -0.1426 -0.8538  0.7235
  469MOL0     C63208   6.133   5.345   4.424 -0.1753 -1.2018 -0.3425
  469MOL0     C63209   6.029   5.442   4.382 -0.4486 -0.1345  0.3918
  469MOL0     O63210   6.039   5.510   4.253 -0.2288 -1.0139  0.0365
  469MOL0     C63211   5.924   5.544   4.186 -0.4413  0.3085  0.1320
  469MOL0     C63212   5.934   5.652   4.100  0.3201 -1.0236 -0.2279
  469MOL0     C63213   5.822   5.678   4.022  1.4029 -0.1060  0.3180
  469MOL0     C63214   5.703   5.605   4.043 -0.8791  0.8419  0.2699
  469MOL0     O63215   5.590   5.613   3.964 -0.1736 -0.0890  0.2235
  469MOL0     C63216   5.548   5.740   3.914  0.1103  0.2137 -0.4005
  469MOL0     C63217   5.399   5.731   3.868 -0.7594  0.4590 -0.2866
  469MOL0     C63218   5.335   5.863   3.831 -0.2396  0.4932  0.1669
  469MOL0     C63219   5.373   5.902   3.695  0.5887 -0.3461 -0.1867
  469MOL0     C63220   5.319   6.042   3.653 -0.0470 -0.6576  0.1268
  469MOL0     C63221   5.166   6.042   3.637  0.7460  0.0642  0.4287
  469MOL0     C63222   5.076   6.066   3.766  0.2359 -0.1218  0.4253
  469MOL0     C63223   4.991   6.189   3.760 -0.9772  0.5316 -0.0813
  469MOL0    Cl63224   4.863   6.205   3.885 -0.0264  0.2013 -0.3565
  469MOL0     C63225   5.696   5.499   4.129 -0.5786  1.3229 -0.8562
  469MOL0     C63226   5.814   5.465   4.199  0.4033  0.4749 -0.1716
  469MOL0     O63227   5.937   5.461   4.455 -0.5233  0.2083 -0.4385
  469MOL0     C63228   6.254   5.364   4.359  0.5601 -0.1039  0.2124
  469MOL0     C63229   6.362   5.282   4.390  0.0683 -0.3454 -0.1295
  469MOL0     N63230   6.819   5.463   4.837 -0.6107 -0.3013 -0.2357
  469MOL0     N63231   6.795   5.540   4.937  0.0744  0.6862 -0.1503
  469MOL0     C63232   5.898   5.968   5.751 -0.9187 -0.2046  0.4672
  469MOL0     C63233   5.800   6.061   5.710  0.2558  0.5281 -0.1853
  469MOL0     C63234   5.391   6.154   5.528 -0.1686 -0.4815 -0.3952
  469MOL0     C63235   5.409   6.290   5.526 -0.3364  0.9814 -0.1828
  469MOL0     C63236   5.297   6.373   5.517  0.3444 -1.0856  1.0223
  469MOL0     C63237   5.168   6.329   5.502  0.2192 -0.0173 -0.3073
  469MOL0     O63238   5.067   6.411   5.497 -0.2656 -0.7916  0.4647
  469MOL0     C63239   4.995   6.417   5.370 -0.5707 -0.2492  0.2175
  469MOL0     C63240   5.062   6.498   5.256 -0.1936 -0.5404 -0.2301
  469MOL0     C63241   5.028   6.646   5.260  0.5022 -0.4051 -0.1244
  469MOL0     C63242   5.065   6.716   5.387  0.1686  0.1966 -0.8381
  469MOL0     C63243   5.210   6.737   5.399 -0.0903  0.4224 -0.4793
  469MOL0     C63244   5.337   6.759   5.402 -0.2040  0.1643 -0.1538
  469MOL0     C63245   5.148   6.191   5.489 -0.2762  0.4397 -0.6367
  469MOL0     C63246   5.262   6.102   5.505 -0.3524 -0.3831  0.7626
  469MOL0     C63247   5.241   5.955   5.479 -0.2944  0.2369  0.0396
  469MOL0     H63248   5.742   5.941   5.394  2.7796 -0.1229 -1.7651
  469MOL0     H63249   5.898   5.767   5.479  1.7216  0.2699  0.5610
  469MOL0     H63250   6.054   5.620   5.598 -1.1907  1.8898 -1.2815
  469MOL0     H63251   6.145   5.767   5.530  1.7597  0.6564  0.9151
  469MOL0     H63252   6.241   5.630   5.781  0.0748  2.0357  1.4317
  469MOL0     H63253   6.318   5.745   5.671  0.4230 -0.0261  0.3820
  469MOL0     H63254   6.284   5.558   5.483 -1.9568  1.5015  0.8479
  469MOL0     H63255   6.250   5.445   5.623 -0.3532  0.3780  1.8144
  469MOL0     H63256   6.508   5.610   5.619  3.8510 -1.1308 -2.1899
  469MOL0     H63257   6.470   5.445   5.686  1.3279 -0.4575 -1.6072
  469MOL0     H63258   6.585   5.370   5.535 -1.8445 -2.7972  0.5967
  469MOL0     H63259   6.433   5.354   5.451 -1.3449  1.5888 -1.9365
  469MOL0     H63260   6.468   5.572   5.324 -1.5151  0.3944  0.6407
  469MOL0     H63261   6.626   5.586   5.396 -1.0076  1.4323 -0.3367
  469MOL0     H63262   6.547   5.402   5.169 -0.2469 -1.3835  0.6324
  469MOL0     H63263   6.668   5.342   5.288 -1.0075  0.2781 -0.1905
  469MOL0     H63264   6.693   5.614   5.168 -0.2946  0.2750  1.4677
  469MOL0     H63265   6.819   5.516   5.239  1.2604 -1.7959 -1.0095
  469MOL0     H63266   6.752   5.236   5.065 -0.1699 -2.4869 -1.6593
  469MOL0     H63267   6.915   5.221   4.735  0.8064  1.7467  0.5383
  469MOL0     H63268   6.834   5.122   4.856 -0.7973 -1.5957 -1.2133
  469MOL0     H63269   6.612   5.161   4.769  0.3492 -2.6381 -0.1524
  469MOL0     H63270   6.679   5.288   4.658  3.3417 -0.2920 -0.5524
  469MOL0     H63271   6.688   4.993   4.644  3.5518  1.4766  4.4831
  469MOL0     H63272   6.800   5.094   4.541  0.1824 -1.9024 -0.0362
  469MOL0     H63273   6.620   5.034   4.411  2.4366  0.5380  1.8866
  469MOL0     H63274   6.610   5.207   4.424 -1.6131  0.5523 -1.6547
  469MOL0     H63275   6.222   5.096   4.633 -3.7753 -0.9057 -1.0711
  469MOL0     H63276   6.039   5.238   4.606 -1.6424 -0.3419 -1.0167
  469MOL0     H63277   6.032   5.697   4.089  0.4572 -1.1496  0.4241
  469MOL0     H63278   5.812   5.749   3.940 -2.8824 -0.7931 -0.0002
  469MOL0     H63279   5.557   5.808   3.999 -1.8791 -1.2692  1.0986
  469MOL0     H63280   5.615   5.783   3.838 -3.1880  4.6006 -1.2032
  469MOL0     H63281   5.375   5.649   3.799 -1.0351 -0.1384  0.5013
  469MOL0     H63282   5.352   5.697   3.961  2.3144  0.4370  1.3725
  469MOL0     H63283   5.228   5.843   3.842 -0.3647  0.5979 -0.7712
  469MOL0     H63284   5.360   5.938   3.906 -1.6688  1.0444  0.1181
  469MOL0     H63285   5.326   5.819   3.643  0.7951 -1.1599  0.8808
  469MOL0     H63286   5.481   5.903   3.676  0.4704  2.5321 -1.1552
  469MOL0     H63287   5.369   6.071   3.561  0.6721 -2.4072 -0.0730
  469MOL0     H63288   5.337   6.122   3.726 -0.9199 -0.3752  0.0434
  469MOL0     H63289   5.144   6.125   3.569  2.2958  0.0650 -0.0939
  469MOL0     H63290   5.136   5.954   3.578 -2.0626  1.4743 -0.4598
  469MOL0     H63291   5.125   6.079   3.863 -0.1561 -0.4376  0.6674
  469MOL0     H63292   5.008   5.981   3.764  0.5491 -0.3731 -2.3188
  469MOL0     H63293   5.050   6.281   3.764 -2.5416  1.5147  1.3311
  469MOL0     H63294   4.953   6.197   3.658  2.3094 -1.0410 -1.5938
  469MOL0     H63295   5.609   5.433   4.133  1.3434 -1.3349 -0.0448
  469MOL0     H63296   5.822   5.370   4.250 -0.4693  0.3195 -0.3036
  469MOL0     H63297   6.257   5.446   4.288 -1.0788 -1.3242 -1.3814
  469MOL0     H63298   6.445   5.303   4.323  1.6364  1.9847  2.3372
  469MOL0     H63299   5.947   5.993   5.844 -0.8729  0.8166  0.1813
  469MOL0     H63300   5.766   6.137   5.780  2.1813  0.1350  1.2550
  469MOL0     H63301   5.506   6.330   5.552  0.5742 -1.0347 -0.2698
  469MOL0     H63302   5.316   6.479   5.528  1.0629 -1.2840  1.7528
  469MOL0     H63303   4.894   6.453   5.395 -0.8548 -1.8452  1.5107
  469MOL0     H63304   4.969   6.318   5.333 -1.6722 -0.8486  2.4085
  469MOL0     H63305   5.041   6.470   5.153  0.4256 -0.1996 -0.4506
  469MOL0     H63306   5.168   6.473   5.263 -0.1299 -0.0116  0.9409
  469MOL0     H63307   4.921   6.659   5.242  0.9436  1.5040 -1.8277
  469MOL0     H63308   5.076   6.693   5.173  0.4307  0.1324  0.1239
  469MOL0     H63309   5.013   6.812   5.377 -0.7781 -0.2417 -0.2466
  469MOL0     H63310   5.019   6.661   5.469  0.6350 -0.2764 -0.8910
  469MOL0     H63311   5.443   6.769   5.414 -0.3966  1.4545  0.6546
  469MOL0     H63312   5.050   6.144   5.483 -0.1763 -0.3795  2.5196
  469MOL0     H63313   5.137   5.933   5.456 -0.0736  1.2675 -2.2493
  469MOL0     H63314   5.296   5.924   5.389 -2.8516 -1.4199 -1.0724
  469MOL0     H63315   5.269   5.904   5.571 -2.1778 -0.5983  0.1852
  470MOL0     O63316   1.674  10.123   5.635  0.0014  0.0507 -0.4968
  470MOL0     C63317   1.691  10.002   5.629 -0.2391  0.1664  1.2078
  470MOL0     O63318   1.806   9.943   5.675 -0.9387 -0.0797  0.0893
  470MOL0     C63319   1.925  10.019   5.675  0.2599  0.7600 -0.1882
  470MOL0     C63320   1.989  10.031   5.802 -0.0301 -0.8532 -0.4365
  470MOL0     C63321   2.106  10.103   5.806 -0.2916  0.3569 -0.5734
  470MOL0     C63322   2.166  10.161   5.697  0.0430  0.1160  0.9591
  470MOL0     O63323   2.276  10.253   5.707 -0.3078 -0.7683  0.4519
  470MOL0     C63324   2.342  10.293   5.818 -0.0085 -0.1452  0.0933
  470MOL0     C63325   2.442  10.181   5.847  0.4526 -0.6546  0.0252
  470MOL0     C63326   2.577  10.239   5.909 -0.4539  0.5384  0.2196
  470MOL0     C63327   2.658  10.114   5.941  0.2058  0.5612 -1.4849
  470MOL0     C63328   2.742  10.144   6.068  0.5992  0.5880 -0.0548
  470MOL0     C63329   2.870  10.208   6.022  0.7682 -0.0408 -0.3620
  470MOL0     C63330   2.965  10.219   6.137  0.4765  0.3827 -0.4471
  470MOL0     C63331   3.093  10.291   6.089 -0.0270 -1.4406  0.0728
  470MOL0     N63332   3.167  10.324   6.209  0.4172 -0.0529  0.0765
  470MOL0     C63333   3.219  10.227   6.296 -0.1135 -0.5239  0.6946
  470MOL0     C63334   3.278  10.305   6.390  0.6216  0.5115 -0.7676
  470MOL0     C63335   3.361  10.253   6.503  0.0624  0.3787  0.4736
  470MOL0     C63336   3.493  10.179   6.448  0.2665 -0.6451  0.0572
  470MOL0     C63337   3.577  10.262   6.346  0.1933  0.8959 -0.6893
  470MOL0     C63338   3.704  10.198   6.289 -0.4076 -0.1197  0.2215
  470MOL0     O63339   3.814  10.228   6.380 -0.3416  0.4145  0.0816
  470MOL0     C63340   3.943  10.214   6.322 -0.1415  0.1958  0.6677
  470MOL0     C63341   3.989  10.112   6.240  0.7724  0.2767 -0.2833
  470MOL0     C63342   4.118  10.096   6.196  0.6493  0.9895 -0.3720
  470MOL0     C63343   4.211  10.196   6.225  0.6933 -0.2055 -0.0647
  470MOL0     C63344   4.355  10.181   6.180  0.0656 -0.7860 -0.3999
  470MOL0     O63345   4.435  10.264   6.261 -0.1856  0.0712 -0.1992
  470MOL0     C63346   4.568  10.281   6.244  0.0778  1.0331  0.4982
  470MOL0     C63347   4.634  10.394   6.292  0.1627  0.0949 -0.5182
  470MOL0     C63348   4.773  10.414   6.290  0.5547 -0.3194 -0.3431
  470MOL0     C63349   4.851  10.317   6.234 -0.5051 -0.1235 -0.1808
  470MOL0     O63350   4.990  10.330   6.236  0.3605  0.1064  0.8176
  470MOL0     C63351   5.033  10.413   6.130 -0.3273  0.7954  0.3021
  470MOL0     C63352   5.187  10.418   6.148  0.0154 -0.5868  0.5025
  470MOL0     C63353   5.252  10.513   6.055 -0.2203 -0.3874 -0.3374
  470MOL0     C63354   5.256  10.656   6.097 -0.5676  0.5048 -0.8177
  470MOL0     C63355   5.329  10.743   5.985  0.3941  0.1731 -0.4502
  470MOL0     C63356   5.286  10.885   5.995 -0.1668  0.4733 -0.2142
  470MOL0     C63357   5.374  10.968   5.901 -0.4244 -0.1429  0.4796
  470MOL0     C63358   5.335  11.120   5.904  0.1438 -1.4594 -0.3198
  470MOL0    Cl63359   5.467  11.212   5.819 -0.3308 -0.3785  0.2454
  470MOL0     C63360   4.797  10.205   6.185  0.2205 -0.4543  0.8405
  470MOL0     C63361   4.661  10.186   6.194  0.2066 -0.1348  0.5144
  470MOL0     O63362   4.393  10.119   6.077  0.0466  0.0484 -0.3313
  470MOL0     C63363   4.166  10.295   6.319 -0.5707  0.6946 -0.6512
  470MOL0     C63364   4.034  10.304   6.366  0.3377 -0.1076 -0.0024
  470MOL0     N63365   3.258  10.436   6.373 -0.1066  0.8575  0.3374
  470MOL0     N63366   3.199  10.449   6.256  0.5426  0.4253  0.5980
  470MOL0     C63367   2.106  10.151   5.568 -0.8031  0.9574 -0.6830
  470MOL0     C63368   1.980  10.078   5.561 -0.0258  0.5710 -0.0213
  470MOL0     C63369   1.591   9.909   5.577  0.0932  1.3633 -0.3264
  470MOL0     C63370   1.620   9.768   5.567 -0.4691 -0.1210  0.8379
  470MOL0     C63371   1.538   9.681   5.497 -0.3712 -0.4424 -0.7219
  470MOL0     C63372   1.413   9.729   5.440  0.0638  0.9450  0.8819
  470MOL0     O63373   1.335   9.634   5.385  0.5236  0.3789  0.2339
  470MOL0     C63374   1.208   9.663   5.325 -0.1108 -0.7270  0.0602
  470MOL0     C63375   1.119   9.541   5.317 -0.4658 -0.0940 -0.4141
  470MOL0     C63376   1.032   9.542   5.194  0.0876  0.3837  0.3873
  470MOL0     C63377   0.936   9.431   5.186 -0.5034  0.2302  0.1797
  470MOL0     C63378   0.975   9.288   5.204  0.1104 -0.5195  0.4437
  470MOL0     C63379   0.989   9.165   5.215 -0.1316 -0.7757 -0.2327
  470MOL0     C63380   1.377   9.859   5.453  0.1457 -0.0414  1.0572
  470MOL0     C63381   1.460   9.953   5.521  0.0094  0.6711 -0.3384
  470MOL0     C63382   1.404  10.092   5.532 -0.2220 -0.4322  0.3755
  470MOL0     H63383   1.934   9.992   5.887 -0.5620 -0.2225 -0.4758
  470MOL0     H63384   2.152  10.108   5.905  1.2567 -0.5656 -1.2106
  470MOL0     H63385   2.394  10.388   5.804  0.0811 -0.3798 -1.3369
  470MOL0     H63386   2.275  10.322   5.899  0.8957  3.9223 -0.4063
  470MOL0     H63387   2.461  10.131   5.751 -2.4984 -0.1860 -0.8976
  470MOL0     H63388   2.404  10.099   5.909  1.8425  0.0510  1.8660
  470MOL0     H63389   2.559  10.306   5.993  3.1553  0.6717  1.0229
  470MOL0     H63390   2.629  10.295   5.830 -0.9516 -0.0415 -0.5334
  470MOL0     H63391   2.587  10.033   5.962  0.5887  0.0591 -2.0893
  470MOL0     H63392   2.725  10.083   5.860  2.9959  0.8102  0.5604
  470MOL0     H63393   2.688  10.211   6.135  1.4034  1.9460 -0.7294
  470MOL0     H63394   2.760  10.050   6.121 -2.3721 -0.9816 -1.5927
  470MOL0     H63395   2.913  10.148   5.941  0.8829 -1.8028  0.9313
  470MOL0     H63396   2.848  10.309   5.987 -4.1876 -0.8671 -0.3640
  470MOL0     H63397   3.001  10.119   6.165 -1.1243  0.6913  3.4756
  470MOL0     H63398   2.915  10.258   6.226 -1.2164 -2.0966 -0.2157
  470MOL0     H63399   3.149  10.226   6.021 -1.5151 -1.6291 -1.0173
  470MOL0     H63400   3.069  10.382   6.033  0.5049 -1.1225  0.3424
  470MOL0     H63401   3.223  10.121   6.272  0.4450 -0.6920  1.4600
  470MOL0     H63402   3.386  10.337   6.569  2.1036  0.4903 -0.3373
  470MOL0     H63403   3.312  10.172   6.556  0.1919 -0.2117 -0.2938
  470MOL0     H63404   3.559  10.147   6.529  2.2088 -0.5448 -1.4222
  470MOL0     H63405   3.456  10.085   6.406 -1.2321 -2.2996  4.4959
  470MOL0     H63406   3.600  10.356   6.397 -0.7776  0.4324  0.6687
  470MOL0     H63407   3.509  10.284   6.264 -0.9541 -1.3048 -0.4116
  470MOL0     H63408   3.732  10.225   6.186 -0.6318 -3.1889 -0.7445
  470MOL0     H63409   3.689  10.090   6.301  0.9155 -0.1497  1.9103
  470MOL0     H63410   3.928  10.034   6.196  0.1455  1.2813 -1.2472
  470MOL0     H63411   4.146  10.013   6.132  0.3019 -1.5483  2.5123
  470MOL0     H63412   4.566  10.473   6.321  1.4926  2.4236 -3.3153
  470MOL0     H63413   4.812  10.506   6.332  0.6874 -0.7640  0.5305
  470MOL0     H63414   5.009  10.355   6.040 -0.4419  3.5899 -1.5817
  470MOL0     H63415   4.986  10.511   6.120  0.0079  0.9482  0.1968
  470MOL0     H63416   5.210  10.447   6.251  0.7467  3.0630 -0.5632
  470MOL0     H63417   5.228  10.318   6.129  0.9174 -0.0931 -0.2377
  470MOL0     H63418   5.347  10.488   6.007 -1.1135  0.0330 -2.4174
  470MOL0     H63419   5.185  10.516   5.969  0.2917 -1.3648 -0.7827
  470MOL0     H63420   5.310  10.669   6.191  1.0838 -1.2620 -1.4594
  470MOL0     H63421   5.155  10.694   6.117 -0.0572  0.4429  2.2307
  470MOL0     H63422   5.304  10.707   5.885 -1.2513 -0.8354  0.2720
  470MOL0     H63423   5.436  10.732   6.006 -0.0386 -0.7440  1.6020
  470MOL0     H63424   5.180  10.906   5.978 -0.7743 -1.2978  1.0700
  470MOL0     H63425   5.306  10.926   6.095  0.6755  1.0550 -0.6168
  470MOL0     H63426   5.373  10.941   5.795  1.4075  2.5155 -0.3250
  470MOL0     H63427   5.479  10.949   5.923 -0.1327  0.6985 -0.1227
  470MOL0     H63428   5.241  11.130   5.849  1.2310 -1.3943 -2.2622
  470MOL0     H63429   5.324  11.160   6.005  0.1781 -3.9015  0.7185
  470MOL0     H63430   4.866  10.135   6.139  2.4749  0.2495  2.9114
  470MOL0     H63431   4.632  10.088   6.157  3.1307 -0.8203 -0.1859
  470MOL0     H63432   4.235  10.372   6.352  0.7532  0.0801 -1.8636
  470MOL0     H63433   4.008  10.383   6.435 -1.9538 -0.0968 -0.7966
  470MOL0     H63434   2.142  10.194   5.475 -1.8745  0.1058 -1.5222
  470MOL0     H63435   1.926  10.064   5.468 -2.7510  0.3693  1.4908
  470MOL0     H63436   1.710   9.730   5.614  0.9554  1.2061 -0.6527
  470MOL0     H63437   1.555   9.575   5.483  0.2123 -0.3606 -0.6525
  470MOL0     H63438   1.231   9.710   5.229 -2.0217 -1.2670 -0.7244
  470MOL0     H63439   1.155   9.739   5.384  1.1549  0.9225 -0.8543
  470MOL0     H63440   1.067   9.530   5.413 -0.2017 -3.2646 -0.4970
  470MOL0     H63441   1.183   9.452   5.318 -0.4507 -0.1410 -2.3062
  470MOL0     H63442   1.096   9.540   5.105 -0.1862  0.1179  0.1926
  470MOL0     H63443   0.969   9.632   5.198  0.8588  0.9120  0.8118
  470MOL0     H63444   0.860   9.448   5.263  0.7604  0.8644  1.3387
  470MOL0     H63445   0.886   9.444   5.090  1.2935  0.8051 -0.7330
  470MOL0     H63446   0.999   9.059   5.213 -2.2269 -1.0246  0.0886
  470MOL0     H63447   1.287   9.901   5.407  0.1926 -1.5750 -0.5287
  470MOL0     H63448   1.375  10.095   5.637  0.8700  5.3333  0.8368
  470MOL0     H63449   1.467  10.181   5.518 -0.1808 -0.2787  1.4735
  470MOL0     H63450   1.321  10.116   5.466  1.4466  1.8668 -1.0557
  471MOL0     O63451   6.007   9.742   9.044  0.3415  0.5761  0.0420
  471MOL0     C63452   5.979   9.655   9.134  0.9140  0.1676 -0.1746
  471MOL0     O63453   6.075   9.565   9.186 -0.2405  0.1981 -0.0590
  471MOL0     C63454   6.204   9.570   9.135 -0.2306 -0.1195 -0.0059
  471MOL0     C63455   6.296   9.663   9.184  0.5961  0.5658  0.4987
  471MOL0     C63456   6.428   9.654   9.152  0.5159 -0.0720 -0.4363
  471MOL0     C63457   6.478   9.567   9.063 -0.4271 -0.1542 -0.2733
  471MOL0     O63458   6.610   9.573   9.031 -0.6371 -0.4675  0.7291
  471MOL0     C63459   6.657   9.557   8.899 -0.3179 -0.3721 -0.1716
  471MOL0     C63460   6.810   9.588   8.874  0.2785  0.8900 -0.8607
  471MOL0     C63461   6.848   9.521   8.738 -0.1683  0.4437 -0.0783
  471MOL0     C63462   6.996   9.562   8.697 -0.6386  0.2617  0.4273
  471MOL0     C63463   7.110   9.539   8.802  0.3653 -0.4840  1.1227
  471MOL0     C63464   7.242   9.571   8.736  0.1353 -0.0651  0.4067
  471MOL0     C63465   7.343   9.621   8.837  0.7562 -0.2001  0.2110
  471MOL0     C63466   7.478   9.649   8.781 -1.4796 -0.7107 -0.5942
  471MOL0     N63467   7.578   9.706   8.883  0.0973  0.1525 -0.4228
  471MOL0     C63468   7.563   9.817   8.961 -0.1487 -0.7226  0.0945
  471MOL0     C63469   7.684   9.829   9.026  0.2121  0.7146  0.9065
  471MOL0     C63470   7.715   9.941   9.130  0.0860  0.1462  0.3665
  471MOL0     C63471   7.863   9.950   9.149 -0.5301 -0.3849 -0.2251
  471MOL0     C63472   7.948  10.014   9.042 -0.2526 -0.3106  0.3653
  471MOL0     C63473   8.098  10.002   9.085  1.1020 -0.5364  0.2353
  471MOL0     O63474   8.120  10.069   9.211 -0.1870  0.1674 -0.1958
  471MOL0     C63475   8.250  10.082   9.245  0.4672 -0.6934 -0.3748
  471MOL0     C63476   8.353  10.050   9.159  0.0297 -0.6696  0.6193
  471MOL0     C63477   8.489  10.059   9.192 -0.2179 -1.3472 -0.1741
  471MOL0     C63478   8.521  10.126   9.317  0.4634  0.2054 -0.3544
  471MOL0     C63479   8.659  10.140   9.370  0.4054 -0.7867 -0.7053
  471MOL0     O63480   8.753  10.053   9.321  0.0061  0.1628 -0.9904
  471MOL0     C63481   8.885  10.061   9.378 -0.9491 -0.3761  0.4676
  471MOL0     C63482   8.958  10.180   9.349 -0.7097  1.2778  0.8570
  471MOL0     C63483   9.095  10.191   9.385 -0.2395  0.6867  0.2078
  471MOL0     C63484   9.165  10.083   9.445  0.4557 -0.0326  0.3431
  471MOL0     O63485   9.299  10.103   9.467  0.0101  0.6790  0.2259
  471MOL0     C63486   9.381   9.997   9.497 -0.5694  0.1545  0.3352
  471MOL0     C63487   9.533  10.049   9.505  0.2195  0.5900  0.0954
  471MOL0     C63488   9.564  10.100   9.641  0.0520  0.6513 -0.6911
  471MOL0     C63489   9.712  10.109   9.678 -0.1351 -0.6953  0.5914
  471MOL0     C63490   9.773  10.256   9.640 -0.4239  0.5801  0.1192
  471MOL0     C63491   9.922  10.248   9.656 -0.1549  0.2618 -0.8703
  471MOL0     C63492   9.977  10.194   9.531  0.4914  0.0681  0.3965
  471MOL0     C63493  10.126  10.163   9.547  0.4521 -0.5297 -0.0224
  471MOL0    Cl63494  10.180  10.057   9.678 -0.1253  0.4883 -1.0622
  471MOL0     C63495   9.090   9.966   9.466  0.0749  0.5251 -0.1773
  471MOL0     C63496   8.951   9.955   9.438  0.4274 -0.2872  0.5682
  471MOL0     O63497   8.679  10.218   9.465  1.1242  0.1258 -0.6301
  471MOL0     C63498   8.414  10.166   9.405 -0.2305 -0.1919  1.0264
  471MOL0     C63499   8.279  10.144   9.361 -0.0557  0.9366 -0.1885
  471MOL0     N63500   7.772   9.730   8.975  0.0043 -0.2767 -0.3469
  471MOL0     N63501   7.702   9.655   8.897 -0.5516 -0.0746  0.2832
  471MOL0     C63502   6.389   9.482   8.993  1.1269 -0.4937  0.3626
  471MOL0     C63503   6.251   9.481   9.039  0.1435 -0.0548  0.3177
  471MOL0     C63504   5.843   9.657   9.176 -0.0894  0.3863 -0.7107
  471MOL0     C63505   5.760   9.760   9.138 -0.4617 -0.1466 -0.2658
  471MOL0     C63506   5.634   9.774   9.168  0.2961  0.6573 -0.0728
  471MOL0     C63507   5.568   9.670   9.234 -0.5573  0.2662 -0.5867
  471MOL0     O63508   5.445   9.678   9.284  0.9383  0.2937  0.8581
  471MOL0     C63509   5.378   9.805   9.269  1.1985 -0.3103  0.8319
  471MOL0     C63510   5.233   9.807   9.318 -0.5800  0.3097  0.4282
  471MOL0     C63511   5.227   9.833   9.467  0.8498  0.0691  0.1222
  471MOL0     C63512   5.083   9.847   9.521 -0.0935 -0.1700 -0.0306
  471MOL0     C63513   4.991   9.737   9.485  0.0442  0.0148  0.8791
  471MOL0     C63514   4.894   9.666   9.458 -0.5167  0.4885 -0.5427
  471MOL0     C63515   5.648   9.564   9.289 -0.4373 -0.4180  0.6838
  471MOL0     C63516   5.786   9.552   9.257 -0.4739  0.3302  0.3932
  471MOL0     C63517   5.855   9.432   9.313 -0.4459  0.1190 -0.2193
  471MOL0     H63518   6.267   9.757   9.230 -0.3421  2.6524 -3.8612
  471MOL0     H63519   6.479   9.740   9.194  0.7833 -0.8320  0.8468
  471MOL0     H63520   6.631   9.461   8.853 -2.9641  1.2735 -2.4927
  471MOL0     H63521   6.603   9.632   8.841  1.8004  0.4906 -1.1229
  471MOL0     H63522   6.870   9.547   8.956  0.0159 -0.9606 -1.5414
  471MOL0     H63523   6.822   9.697   8.878 -1.8684  1.2283  4.4430
  471MOL0     H63524   6.791   9.577   8.664  1.6847 -0.4365 -2.2838
  471MOL0     H63525   6.832   9.413   8.734 -0.7555  0.5540 -1.1043
  471MOL0     H63526   7.013   9.507   8.604 -1.2664  0.1559  0.3689
  471MOL0     H63527   7.001   9.669   8.675  0.7510  1.4216  5.1897
  471MOL0     H63528   7.090   9.605   8.886  0.3026  3.6536 -1.8288
  471MOL0     H63529   7.124   9.438   8.842  0.1145 -1.0750 -0.1966
  471MOL0     H63530   7.280   9.479   8.691 -2.8650 -1.1554 -0.1108
  471MOL0     H63531   7.235   9.643   8.655 -1.7164 -1.2143 -0.5119
  471MOL0     H63532   7.337   9.552   8.922 -0.5399 -0.8866 -0.4021
  471MOL0     H63533   7.297   9.715   8.869  2.1917  0.3941  0.5996
  471MOL0     H63534   7.522   9.557   8.742  1.7993  0.0537  0.9484
  471MOL0     H63535   7.477   9.727   8.704  0.7978  0.6576  0.6540
  471MOL0     H63536   7.482   9.888   8.970  0.6735  0.2859 -0.2514
  471MOL0     H63537   7.681  10.040   9.099 -1.5064  0.1500  1.9622
  471MOL0     H63538   7.659   9.913   9.220  3.4907 -0.1190  2.5756
  471MOL0     H63539   7.874  10.008   9.242 -1.2846  0.0972 -0.4307
  471MOL0     H63540   7.900   9.849   9.165 -0.8739 -0.8538 -2.2311
  471MOL0     H63541   7.906  10.115   9.034  0.5725  0.0216  0.1777
  471MOL0     H63542   7.953   9.959   8.948  2.9391 -0.4978  0.5382
  471MOL0     H63543   8.155  10.055   9.008  4.4174  1.2231  3.5938
  471MOL0     H63544   8.125   9.898   9.107 -1.9647 -0.7987  3.8187
  471MOL0     H63545   8.343  10.007   9.060  0.9574 -1.4998  0.8715
  471MOL0     H63546   8.564  10.015   9.128 -0.8517 -1.0456 -1.1364
  471MOL0     H63547   8.906  10.258   9.294  1.9141  1.4858 -1.5735
  471MOL0     H63548   9.155  10.273   9.347  1.1205 -0.5094 -0.3071
  471MOL0     H63549   9.349   9.941   9.585  1.8591 -0.4845  0.8873
  471MOL0     H63550   9.373   9.934   9.408  0.6874  2.1302 -1.2862
  471MOL0     H63551   9.595   9.965   9.473 -0.6345  0.3643 -1.0234
  471MOL0     H63552   9.549  10.126   9.429  0.0550 -0.2496 -0.8068
  471MOL0     H63553   9.511  10.195   9.645 -2.6162 -0.7697  0.6187
  471MOL0     H63554   9.517  10.027   9.708 -0.6883  1.5021 -0.2631
  471MOL0     H63555   9.768  10.028   9.629  0.5815  0.1776 -0.0623
  471MOL0     H63556   9.733  10.084   9.783  1.6853 -0.4935  0.3219
  471MOL0     H63557   9.727  10.331   9.705  0.9724  1.3538  0.2634
  471MOL0     H63558   9.729  10.274   9.542 -4.4178 -0.1844  1.5944
  471MOL0     H63559   9.963  10.348   9.678 -0.6174  0.2836 -0.0590
  471MOL0     H63560   9.953  10.186   9.740 -1.1755 -1.7050 -1.8812
  471MOL0     H63561   9.971  10.263   9.446 -1.4151  1.2495  1.4218
  471MOL0     H63562   9.925  10.101   9.508  3.5792 -2.0083  1.1084
  471MOL0     H63563  10.156  10.124   9.449  3.0514  2.5388 -0.6359
  471MOL0     H63564  10.197  10.246   9.553  3.3458 -2.6300 -2.1701
  471MOL0     H63565   9.134   9.876   9.508 -1.1051  1.1988  2.7211
  471MOL0     H63566   8.891   9.868   9.464 -3.1356  2.7139  3.5283
  471MOL0     H63567   8.430  10.214   9.501 -0.2000  2.3053 -0.1546
  471MOL0     H63568   8.200  10.170   9.431  1.1955  3.2940  0.4372
  471MOL0     H63569   6.411   9.421   8.906 -0.5090  0.0725 -0.4618
  471MOL0     H63570   6.180   9.408   9.000 -0.7481 -0.4929  2.6374
  471MOL0     H63571   5.802   9.835   9.073  1.1260 -0.9897 -0.2598
  471MOL0     H63572   5.572   9.859   9.143 -2.9026 -0.9669  1.6748
  471MOL0     H63573   5.371   9.824   9.162 -0.7159 -0.1506  0.9569
  471MOL0     H63574   5.433   9.894   9.301  0.3921  0.7570 -0.6603
  471MOL0     H63575   5.175   9.715   9.305 -3.6613  1.8492  2.0877
  471MOL0     H63576   5.177   9.889   9.270  1.1358  1.0125 -0.4706
  471MOL0     H63577   5.283   9.921   9.499 -0.1260 -0.0370  2.3530
  471MOL0     H63578   5.275   9.745   9.509  1.2437  0.4230  0.4260
  471MOL0     H63579   5.095   9.847   9.630  2.7876 -1.9547 -0.2238
  471MOL0     H63580   5.042   9.941   9.483 -0.2991 -1.2762 -2.7875
  471MOL0     H63581   4.796   9.625   9.448 -0.1361 -0.4355 -0.6740
  471MOL0     H63582   5.594   9.486   9.342 -1.4913 -0.0055  0.2511
  471MOL0     H63583   5.907   9.364   9.245  1.4616  1.7183 -0.4363
  471MOL0     H63584   5.933   9.475   9.377 -0.6943  0.7071 -0.3111
  471MOL0     H63585   5.794   9.368   9.377  2.0257 -1.6477  0.5432
  472MOL0     O63586   0.744   7.966   9.735 -0.4442  0.7565 -0.3436
  472MOL0     C63587   0.675   7.950   9.837 -0.2695  0.4800 -0.8043
  472MOL0     O63588   0.730   7.909   9.959  0.0245  0.5557  0.1137
  472MOL0     C63589   0.868   7.907   9.955  0.1755  0.0828  0.7727
  472MOL0     C63590   0.929   7.787   9.914 -0.4576 -0.2504  0.7818
  472MOL0     C63591   1.071   7.790   9.894  0.1649 -0.3445  0.0035
  472MOL0     C63592   1.151   7.897   9.943  0.4579  0.1429 -0.0780
  472MOL0     O63593   1.292   7.879   9.947 -0.4021  0.5041  0.3112
  472MOL0     C63594   1.390   7.981   9.936 -0.1262 -0.2887  0.2290
  472MOL0     C63595   1.464   7.980   9.807 -0.5231 -0.6479  0.8402
  472MOL0     C63596   1.587   7.887   9.809 -0.7438 -0.2043  0.2542
  472MOL0     C63597   1.703   7.939   9.720  0.1273  0.1489 -0.3317
  472MOL0     C63598   1.848   7.917   9.768  1.0081  0.3686  0.2786
  472MOL0     C63599   1.934   7.930   9.638  0.6133  0.1212  0.9498
  472MOL0     C63600   2.081   7.896   9.679 -0.4432 -0.1539  0.7500
  472MOL0     C63601   2.173   7.940   9.569 -0.4176 -0.4718  0.3093
  472MOL0     N63602   2.181   7.859   9.454  0.1969  1.3209 -0.6208
  472MOL0     C63603   2.269   7.753   9.436 -0.1679  0.3391  0.0303
  472MOL0     C63604   2.240   7.698   9.316 -0.4823  0.3455  0.3689
  472MOL0     C63605   2.306   7.569   9.254 -0.9453 -0.0426 -0.7110
  472MOL0     C63606   2.314   7.581   9.111  0.4001 -1.2175  1.1859
  472MOL0     C63607   2.412   7.698   9.065 -0.5536 -0.1231  0.7176
  472MOL0     C63608   2.561   7.658   9.076 -0.9765  0.6371 -0.3421
  472MOL0     O63609   2.614   7.574   8.967  0.1344 -0.1157 -0.0531
  472MOL0     C63610   2.743   7.566   8.920  0.9405  0.5002 -0.3111
  472MOL0     C63611   2.845   7.634   8.987 -0.1739  1.3328 -0.0425
  472MOL0     C63612   2.966   7.632   8.930 -0.0321  0.1789  0.4337
  472MOL0     C63613   2.995   7.555   8.819 -0.1844  0.1720  0.1718
  472MOL0     C63614   3.126   7.550   8.778  0.1768 -0.6644 -0.2791
  472MOL0     O63615   3.147   7.485   8.657 -0.1908  0.2797 -0.3640
  472MOL0     C63616   3.269   7.467   8.620 -0.3110  0.8278  0.4723
  472MOL0     C63617   3.294   7.499   8.491 -0.3965 -0.2593  0.1806
  472MOL0     C63618   3.423   7.506   8.443 -0.3416  0.6594  0.5038
  472MOL0     C63619   3.530   7.475   8.525 -0.5427  1.0530  0.3800
  472MOL0     O63620   3.662   7.459   8.497 -0.1067  0.3006 -0.4395
  472MOL0     C63621   3.700   7.484   8.362 -0.5227 -0.3135  0.2129
  472MOL0     C63622   3.847   7.471   8.333  0.0925  0.0233  0.1382
  472MOL0     C63623   3.872   7.449   8.184  0.5337  0.2761  0.9226
  472MOL0     C63624   4.012   7.404   8.143  0.0850  0.1102  0.4633
  472MOL0     C63625   4.011   7.349   7.995  0.2089 -0.5244 -0.9745
  472MOL0     C63626   4.159   7.330   7.964  0.0774  0.2742  0.2518
  472MOL0     C63627   4.184   7.260   7.828 -0.8564 -0.0437  1.1538
  472MOL0     C63628   4.164   7.347   7.709  0.0983  0.4329  0.5200
  472MOL0    Cl63629   4.318   7.438   7.685 -0.0578  0.0119 -0.3532
  472MOL0     C63630   3.501   7.423   8.651 -0.8145  0.1851  0.6790
  472MOL0     C63631   3.380   7.430   8.702 -0.3455  0.2173 -1.2619
  472MOL0     O63632   3.210   7.620   8.835  0.1001  0.5684  0.1373
  472MOL0     C63633   2.894   7.499   8.741  0.3357  0.4247 -0.7571
  472MOL0     C63634   2.763   7.505   8.793  0.0647 -0.1224 -0.4683
  472MOL0     N63635   2.125   7.763   9.269  0.0033  1.2086  0.9338
  472MOL0     N63636   2.093   7.858   9.347 -0.1344 -0.2770  1.0023
  472MOL0     C63637   1.081   8.011   9.991 -0.2134 -0.2005  0.5793
  472MOL0     C63638   0.944   8.020   9.990  0.0035  0.2807  0.5359
  472MOL0     C63639   0.522   7.973   9.839 -0.6323  0.2023  0.9409
  472MOL0     C63640   0.460   7.967   9.962  0.0506 -0.5242  0.4370
  472MOL0     C63641   0.327   7.971   9.974  0.3812 -0.0100 -0.9620
  472MOL0     C63642   0.250   7.966   9.861  0.6405 -1.2242  0.3307
  472MOL0     O63643   0.116   7.949   9.872  0.0283 -0.1685 -0.1094
  472MOL0     C63644   0.074   7.835   9.800  0.2165  0.5192 -1.0116
  472MOL0     C63645  -0.076   7.832   9.767  0.0210  0.0086  0.1247
  472MOL0     C63646  -0.162   7.833   9.895  0.0008 -0.1459 -0.3618
  472MOL0     C63647  -0.308   7.809   9.848 -0.1596  0.8221 -0.1500
  472MOL0     C63648  -0.382   7.772   9.973  0.5176 -0.1245  0.6544
  472MOL0     C63649  -0.440   7.746  10.073 -0.3922  0.0991 -0.5568
  472MOL0     C63650   0.307   7.980   9.736 -0.1705 -0.2769 -0.6289
  472MOL0     C63651   0.445   7.987   9.725  0.7159 -0.2147  0.4051
  472MOL0     C63652   0.503   7.996   9.591  0.4673 -0.4872 -0.0072
  472MOL0     H63653   0.885   7.691   9.888  2.5134 -1.3212 -0.8102
  472MOL0     H63654   1.118   7.697   9.863  0.1490 -1.8487  3.9308
  472MOL0     H63655   1.341   8.079   9.942 -1.4116 -0.9048  0.1586
  472MOL0     H63656   1.462   7.978  10.018 -0.1918  0.4113  0.3192
  472MOL0     H63657   1.492   8.082   9.779  2.4700 -1.6970 -0.4865
  472MOL0     H63658   1.395   7.948   9.728  0.9952  1.4140 -1.4754
  472MOL0     H63659   1.558   7.787   9.777 -2.3317  0.3329 -0.0548
  472MOL0     H63660   1.624   7.880   9.912 -3.2457 -3.5194  1.0960
  472MOL0     H63661   1.700   7.891   9.622  0.8700  0.3886 -0.4795
  472MOL0     H63662   1.678   8.044   9.704 -1.2293  0.0070  0.6368
  472MOL0     H63663   1.873   7.986   9.849  0.7530 -0.7147  1.3181
  472MOL0     H63664   1.856   7.818   9.813  0.4851  1.0667  2.0091
  472MOL0     H63665   1.902   7.866   9.555  0.6240  0.9937  0.2616
  472MOL0     H63666   1.921   8.034   9.607  2.0986  1.0523  3.2098
  472MOL0     H63667   2.093   7.793   9.713 -0.2470 -0.9209 -1.4554
  472MOL0     H63668   2.101   7.957   9.767  1.2883 -0.6052  0.6981
  472MOL0     H63669   2.143   8.041   9.539 -2.9422 -1.5209 -0.9690
  472MOL0     H63670   2.274   7.955   9.609 -1.2338  1.1117  1.9024
  472MOL0     H63671   2.345   7.741   9.512  2.0243 -3.5167 -2.4013
  472MOL0     H63672   2.404   7.548   9.297 -0.4211 -0.2671 -1.9803
  472MOL0     H63673   2.227   7.498   9.281 -1.0020  0.8060  1.5652
  472MOL0     H63674   2.354   7.492   9.062  4.0264  1.0660 -0.4756
  472MOL0     H63675   2.211   7.595   9.074  0.7865 -0.1036  0.4674
  472MOL0     H63676   2.398   7.791   9.121 -0.1335 -0.6773  1.7936
  472MOL0     H63677   2.385   7.720   8.962  1.6552 -2.7892 -0.5723
  472MOL0     H63678   2.587   7.607   9.169 -0.7405  0.3433 -0.5678
  472MOL0     H63679   2.610   7.755   9.069  0.6578 -0.2370 -1.6457
  472MOL0     H63680   2.828   7.684   9.082 -0.9888  1.5749 -0.3070
  472MOL0     H63681   3.046   7.684   8.980  1.5993 -0.9589 -0.8966
  472MOL0     H63682   3.210   7.525   8.428  0.4110  1.4108 -0.2617
  472MOL0     H63683   3.435   7.527   8.337  0.0710  0.1691  0.4546
  472MOL0     H63684   3.643   7.426   8.289  0.9038  0.4593 -1.5929
  472MOL0     H63685   3.674   7.589   8.342 -1.8420 -0.6502  0.0344
  472MOL0     H63686   3.908   7.544   8.386 -0.3812 -0.3684  1.2522
  472MOL0     H63687   3.877   7.374   8.375 -2.0997 -0.7987 -0.0698
  472MOL0     H63688   3.808   7.367   8.149 -1.7041  1.6224  1.6913
  472MOL0     H63689   3.850   7.537   8.122 -1.7606 -1.8480 -1.5415
  472MOL0     H63690   4.047   7.319   8.203  0.3392  0.1455  0.3673
  472MOL0     H63691   4.081   7.488   8.157 -3.9772  3.7703  0.4206
  472MOL0     H63692   3.971   7.424   7.926  3.4390  2.9387  0.5630
  472MOL0     H63693   3.956   7.254   7.989 -2.2515  0.9047 -2.1527
  472MOL0     H63694   4.218   7.422   7.969  0.6602  0.0426 -1.4335
  472MOL0     H63695   4.188   7.256   8.039 -1.0512 -0.4629 -0.0119
  472MOL0     H63696   4.111   7.178   7.820  0.2335 -0.9206 -0.5558
  472MOL0     H63697   4.285   7.218   7.833 -1.5933 -1.9510  1.0100
  472MOL0     H63698   4.147   7.277   7.627  1.7624 -1.8048  1.9403
  472MOL0     H63699   4.081   7.416   7.723 -0.5751 -0.0426 -0.9684
  472MOL0     H63700   3.587   7.394   8.711  2.1561  0.4462 -3.1321
  472MOL0     H63701   3.368   7.403   8.806  1.2885  4.4264  0.2287
  472MOL0     H63702   2.913   7.452   8.645  0.0627  3.5301 -2.4557
  472MOL0     H63703   2.671   7.467   8.749  0.4360 -0.9493 -0.5463
  472MOL0     H63704   1.140   8.090  10.036  1.1404 -1.7876  1.7687
  472MOL0     H63705   0.885   8.105  10.022 -2.6298 -1.1889 -0.1277
  472MOL0     H63706   0.520   7.970  10.052 -0.1532  1.5981  0.5486
  472MOL0     H63707   0.273   7.975  10.068  3.9227 -1.0220  1.2987
  472MOL0     H63708   0.097   7.752   9.869 -0.5279  2.0706  1.2261
  472MOL0     H63709   0.137   7.818   9.713  0.3612 -3.7153 -0.2979
  472MOL0     H63710  -0.094   7.739   9.713 -1.0415  1.2224 -1.7398
  472MOL0     H63711  -0.100   7.918   9.703 -1.2360  0.0246  0.5735
  472MOL0     H63712  -0.143   7.928   9.945  1.6947 -0.2857 -0.6582
  472MOL0     H63713  -0.127   7.754   9.963 -0.7926  0.8632  1.2897
  472MOL0     H63714  -0.353   7.897   9.802  1.1160  1.2431 -0.6538
  472MOL0     H63715  -0.322   7.715   9.793  0.3375  0.3490  0.5114
  472MOL0     H63716  -0.481   7.714  10.166 -2.3477  1.2091 -0.9777
  472MOL0     H63717   0.249   7.984   9.644  0.3676  0.1874 -0.9572
  472MOL0     H63718   0.571   8.082   9.597  1.3097 -1.0920 -0.6535
  472MOL0     H63719   0.562   7.907   9.567  0.5408 -0.7740  1.1698
  472MOL0     H63720   0.427   8.010   9.513  0.2813  0.7813  0.3834
  473MOL0     O63721   7.907   4.871   5.209  0.2808 -0.1684 -0.1013
  473MOL0     C63722   7.865   4.759   5.187  0.9119 -0.0845 -0.0748
  473MOL0     O63723   7.915   4.651   5.238  0.2637 -0.1148 -0.2401
  473MOL0     C63724   8.047   4.656   5.297  0.4518  0.4792  0.4749
  473MOL0     C63725   8.050   4.659   5.438 -0.2523  0.2232  0.6262
  473MOL0     C63726   8.167   4.647   5.510 -0.8756 -0.3849 -0.3740
  473MOL0     C63727   8.288   4.636   5.450  0.4796 -0.7567 -0.6337
  473MOL0     O63728   8.398   4.626   5.528 -0.7838  0.2197 -0.1842
  473MOL0     C63729   8.477   4.743   5.549  0.0055  0.3553  0.3797
  473MOL0     C63730   8.623   4.712   5.571 -0.8560 -0.0464  0.5398
  473MOL0     C63731   8.688   4.613   5.464  0.3051 -0.8678 -0.0346
  473MOL0     C63732   8.728   4.470   5.513 -0.3359 -0.1312  0.2379
  473MOL0     C63733   8.847   4.487   5.609  0.6645 -0.3783 -0.2667
  473MOL0     C63734   8.896   4.360   5.657  0.7052  0.7571  0.7432
  473MOL0     C63735   8.964   4.381   5.786  0.1804  0.4298 -0.5877
  473MOL0     C63736   8.960   4.259   5.872 -0.0579 -0.2272  0.1523
  473MOL0     N63737   9.036   4.262   5.990  0.4323 -1.0029 -0.3698
  473MOL0     C63738   9.173   4.252   6.007  0.2934  1.0422  0.7364
  473MOL0     C63739   9.199   4.268   6.146 -0.1501 -0.6911  0.4875
  473MOL0     C63740   9.333   4.254   6.208 -0.0335 -0.4573  0.4255
  473MOL0     C63741   9.371   4.108   6.250 -0.0052 -0.8699 -0.5737
  473MOL0     C63742   9.517   4.094   6.294 -0.6999  0.7002 -0.3849
  473MOL0     C63743   9.611   4.121   6.185 -0.8935 -0.7552 -0.4642
  473MOL0     O63744   9.738   4.099   6.237 -0.7041  0.2144 -0.0697
  473MOL0     C63745   9.846   4.121   6.164 -0.4524 -0.7430 -1.5615
  473MOL0     C63746   9.967   4.090   6.231 -0.5649 -0.5008 -0.6005
  473MOL0     C63747  10.091   4.129   6.167  0.6568 -0.6509 -0.2622
  473MOL0     C63748  10.090   4.203   6.046 -0.1067 -0.3776  0.2852
  473MOL0     C63749  10.209   4.264   5.983 -0.8595  0.7442 -0.5296
  473MOL0     O63750  10.323   4.221   6.044  0.3116 -0.5991  0.3464
  473MOL0     C63751  10.451   4.258   6.013  1.0665  0.0596  0.2576
  473MOL0     C63752  10.481   4.394   5.986  0.3093 -0.1988  0.3966
  473MOL0     C63753  10.609   4.429   5.967 -1.6774  0.4584  0.4295
  473MOL0     C63754  10.712   4.328   5.957 -0.6188  0.1186 -0.8457
  473MOL0     O63755  10.844   4.372   5.942  0.0252  0.0267 -0.7844
  473MOL0     C63756  10.907   4.321   5.824  0.5350 -0.0194  0.3970
  473MOL0     C63757  11.045   4.380   5.793 -0.1109 -0.1064 -0.1677
  473MOL0     C63758  11.154   4.331   5.889 -0.3937 -0.5168 -0.0344
  473MOL0     C63759  11.180   4.438   5.993  0.0917 -0.0253 -0.5182
  473MOL0     C63760  11.284   4.404   6.099 -0.9833  0.8703  1.0795
  473MOL0     C63761  11.315   4.542   6.171 -0.0483  0.1534 -0.0366
  473MOL0     C63762  11.374   4.523   6.311  0.2712 -0.3408 -0.2995
  473MOL0     C63763  11.356   4.638   6.418  0.2875  0.2076 -0.0593
  473MOL0    Cl63764  11.442   4.585   6.559  0.0900 -0.0821 -0.2421
  473MOL0     C63765  10.680   4.194   5.983 -0.5027  0.2960 -0.2860
  473MOL0     C63766  10.552   4.161   6.011 -0.1477 -0.3253  0.4196
  473MOL0     O63767  10.205   4.334   5.884 -0.8086  0.2597  0.3081
  473MOL0     C63768   9.971   4.211   5.972  0.2711 -1.2255  0.2463
  473MOL0     C63769   9.852   4.181   6.036  0.4031 -0.9793 -0.5418
  473MOL0     N63770   9.075   4.270   6.211 -0.1776 -0.0076  0.7233
  473MOL0     N63771   8.985   4.269   6.117  0.3740  0.2995  0.8040
  473MOL0     C63772   8.286   4.634   5.308  0.2992  0.3024 -0.2331
  473MOL0     C63773   8.165   4.643   5.234  0.5699  0.6502 -0.1245
  473MOL0     C63774   7.734   4.763   5.108  0.2777  0.1993  0.3941
  473MOL0     C63775   7.642   4.867   5.121  0.1198  0.1522 -0.0478
  473MOL0     C63776   7.524   4.876   5.048  0.1606 -0.3342 -0.6944
  473MOL0     C63777   7.475   4.772   4.974 -0.1242  0.1362 -0.6048
  473MOL0     O63778   7.362   4.786   4.908  0.0963  0.2261 -0.1833
  473MOL0     C63779   7.270   4.677   4.897  0.8387 -0.1877 -1.0134
  473MOL0     C63780   7.213   4.659   5.044 -0.6353 -0.0472  1.5734
  473MOL0     C63781   7.096   4.561   5.037 -0.5800 -0.5984  0.4981
  473MOL0     C63782   6.975   4.606   4.957  0.4093  0.7462  0.2340
  473MOL0     C63783   6.942   4.745   4.995  0.4872  0.6282 -0.2730
  473MOL0     C63784   6.916   4.861   5.019  0.6744 -0.1549 -0.6293
  473MOL0     C63785   7.557   4.658   4.962 -0.2078  0.3881 -1.7449
  473MOL0     C63786   7.693   4.660   5.018  0.3601  0.1777  0.4366
  473MOL0     C63787   7.776   4.538   4.996 -0.4359  0.1647  0.2516
  473MOL0     H63788   7.957   4.670   5.492 -1.4613 -1.6183 -0.9248
  473MOL0     H63789   8.154   4.651   5.617 -0.4919  5.4527 -0.2311
  473MOL0     H63790   8.466   4.815   5.468 -2.3210  1.4167  1.5697
  473MOL0     H63791   8.443   4.789   5.642 -2.1291  0.3923 -0.3885
  473MOL0     H63792   8.638   4.664   5.669 -3.0633 -3.2379 -0.4919
  473MOL0     H63793   8.673   4.809   5.578 -1.6963  0.4251  0.1154
  473MOL0     H63794   8.770   4.668   5.417  0.4162 -1.5707 -0.6733
  473MOL0     H63795   8.611   4.596   5.389  1.3829 -1.9685 -0.9377
  473MOL0     H63796   8.645   4.412   5.555 -0.1016 -1.1412 -0.6466
  473MOL0     H63797   8.768   4.403   5.437  2.1885 -0.3554  1.6261
  473MOL0     H63798   8.927   4.539   5.554  1.0628  0.3838  0.9773
  473MOL0     H63799   8.824   4.549   5.696  2.2656  1.2995 -0.9580
  473MOL0     H63800   8.822   4.281   5.664  2.2616 -0.7131  1.4752
  473MOL0     H63801   8.976   4.331   5.588 -0.3272  1.2347 -0.6889
  473MOL0     H63802   8.928   4.464   5.847 -0.4131 -2.9393  4.2178
  473MOL0     H63803   9.069   4.408   5.770  0.1597  1.8964  1.4499
  473MOL0     H63804   8.856   4.236   5.896  0.5449 -3.0763  0.3703
  473MOL0     H63805   8.991   4.174   5.811  1.2508 -1.1246  1.9733
  473MOL0     H63806   9.232   4.233   5.917 -0.8792  1.2569 -0.1065
  473MOL0     H63807   9.405   4.267   6.126  0.1470 -0.3749  0.5963
  473MOL0     H63808   9.332   4.315   6.299 -1.3532  1.6569 -0.9104
  473MOL0     H63809   9.309   4.087   6.338  1.1909 -0.8546  0.2891
  473MOL0     H63810   9.348   4.037   6.170  0.5071 -1.0631 -0.5478
  473MOL0     H63811   9.541   3.995   6.332  1.9342  2.5775  3.4785
  473MOL0     H63812   9.537   4.161   6.378  0.8755  1.0912 -1.0395
  473MOL0     H63813   9.606   4.228   6.162  0.6626 -0.5362  0.0624
  473MOL0     H63814   9.589   4.058   6.099 -2.9348  1.1356 -1.4215
  473MOL0     H63815   9.969   4.052   6.332 -4.1873 -5.1753 -1.9387
  473MOL0     H63816  10.188   4.135   6.217 -0.1457  1.5589  1.1701
  473MOL0     H63817  10.407   4.472   5.975  0.1020 -0.3812  0.4843
  473MOL0     H63818  10.625   4.535   5.949 -2.3193  0.2983 -1.3501
  473MOL0     H63819  10.922   4.216   5.850  3.4719 -0.5086 -2.5052
  473MOL0     H63820  10.845   4.336   5.735  3.2446  1.4965 -1.4107
  473MOL0     H63821  11.073   4.347   5.693 -0.5144  1.5590 -0.8518
  473MOL0     H63822  11.036   4.489   5.794  0.7343  0.0335 -2.2738
  473MOL0     H63823  11.124   4.236   5.936 -1.6948 -0.0944  0.0240
  473MOL0     H63824  11.250   4.327   5.838 -0.9415  2.0976 -1.4151
  473MOL0     H63825  11.082   4.458   6.039  1.1043 -1.0151  2.2645
  473MOL0     H63826  11.220   4.524   5.938  1.7820  0.2964  1.1536
  473MOL0     H63827  11.373   4.361   6.054 -2.7778 -1.3705 -0.5759
  473MOL0     H63828  11.241   4.328   6.165  1.8875 -0.3315  1.6873
  473MOL0     H63829  11.382   4.607   6.115  0.2287 -0.1711 -0.0828
  473MOL0     H63830  11.221   4.598   6.179  0.2329  1.3428 -3.4161
  473MOL0     H63831  11.479   4.496   6.297 -0.2427 -2.6463 -0.1649
  473MOL0     H63832  11.333   4.442   6.372  1.1360 -0.6786 -0.1587
  473MOL0     H63833  11.403   4.725   6.372  1.0636 -1.2574 -2.1965
  473MOL0     H63834  11.250   4.655   6.435  0.4222 -1.1117  2.5158
  473MOL0     H63835  10.760   4.120   5.982 -1.6717 -1.0057 -1.0637
  473MOL0     H63836  10.526   4.060   6.039 -1.6786 -0.1723 -0.2955
  473MOL0     H63837   9.974   4.246   5.869  0.2584  0.2989  0.7373
  473MOL0     H63838   9.771   4.180   5.963 -0.9177  0.9792  0.7807
  473MOL0     H63839   8.381   4.629   5.255  1.1601 -2.2773  1.3868
  473MOL0     H63840   8.154   4.620   5.128  0.0539  1.8310 -0.3399
  473MOL0     H63841   7.658   4.936   5.202  4.5959 -1.1801  0.4772
  473MOL0     H63842   7.471   4.971   5.053  3.3929  1.6003  0.0089
  473MOL0     H63843   7.309   4.586   4.852 -0.1645 -0.9775 -0.3366
  473MOL0     H63844   7.190   4.713   4.832  0.3175  3.2089  1.2404
  473MOL0     H63845   7.173   4.754   5.079 -0.9841  0.4424 -0.0543
  473MOL0     H63846   7.293   4.611   5.100  1.0140 -0.1225 -0.7007
  473MOL0     H63847   7.072   4.532   5.140  0.7264  0.6523  1.1918
  473MOL0     H63848   7.125   4.467   4.990  2.9859  1.0755 -0.9931
  473MOL0     H63849   6.991   4.612   4.849  2.2998  2.6190  0.5563
  473MOL0     H63850   6.905   4.527   4.984  0.7244  0.4098  0.0875
  473MOL0     H63851   6.908   4.959   5.061  2.3077  1.2388 -3.3323
  473MOL0     H63852   7.514   4.570   4.914 -0.2318  0.2351 -1.4443
  473MOL0     H63853   7.749   4.489   4.903 -0.6192  1.0228 -0.1581
  473MOL0     H63854   7.881   4.568   4.993 -0.7348  1.7060  2.4702
  473MOL0     H63855   7.760   4.463   5.074  0.6164  0.7909  1.1153
  474MOL0     O63856   0.279   9.627   9.898 -0.6867  0.3752  0.1836
  474MOL0     C63857   0.256   9.731   9.839 -0.4614 -0.4233 -0.4658
  474MOL0     O63858   0.354   9.813   9.786  0.2838 -0.0346 -0.1810
  474MOL0     C63859   0.484   9.790   9.827 -0.1994  0.3972  0.4005
  474MOL0     C63860   0.538   9.840   9.952  0.6828 -0.0252 -0.5904
  474MOL0     C63861   0.669   9.805   9.985 -1.1472 -1.2671 -0.0827
  474MOL0     C63862   0.738   9.719   9.906  0.1465 -0.4782 -0.2625
  474MOL0     O63863   0.871   9.680   9.931 -0.3795 -0.5872 -0.5983
  474MOL0     C63864   0.942   9.763  10.020 -0.7109  0.0430  0.5224
  474MOL0     C63865   1.080   9.693  10.043  0.3335 -0.5132 -0.2739
  474MOL0     C63866   1.178   9.775  10.118 -0.5822  0.1335  0.1153
  474MOL0     C63867   1.307   9.696  10.132  0.1633  0.1509  0.7081
  474MOL0     C63868   1.420   9.777  10.190  0.6161  0.3656 -0.0730
  474MOL0     C63869   1.391   9.833  10.330 -0.0869 -0.6610  0.2581
  474MOL0     C63870   1.494   9.932  10.376  0.3513  1.0248  0.9037
  474MOL0     C63871   1.446   9.975  10.515  0.0790  0.2845 -0.0570
  474MOL0     N63872   1.515  10.103  10.543 -0.9382 -0.5141  0.0466
  474MOL0     C63873   1.634  10.118  10.623  0.6180  0.8656 -0.2941
  474MOL0     C63874   1.680  10.239  10.593 -0.0689 -0.0689  0.0269
  474MOL0     C63875   1.803  10.287  10.651  0.1022  0.5371 -0.4584
  474MOL0     C63876   1.774  10.379  10.771  0.0674 -0.2409  0.6235
  474MOL0     C63877   1.834  10.526  10.762  1.5917  0.9624 -0.6144
  474MOL0     C63878   1.786  10.608  10.883  0.1797  0.8016  0.1352
  474MOL0     O63879   1.846  10.742  10.886  0.3267 -0.3795  0.2946
  474MOL0     C63880   1.974  10.737  10.921 -0.5182 -0.2444  0.1197
  474MOL0     C63881   2.073  10.751  10.817 -0.2261 -0.1158  0.7259
  474MOL0     C63882   2.206  10.753  10.839  0.5852  0.0164 -0.2041
  474MOL0     C63883   2.254  10.755  10.975 -0.2125 -0.5293 -0.0560
  474MOL0     C63884   2.397  10.768  11.004  0.2799  0.7330  0.6802
  474MOL0     O63885   2.435  10.758  11.138  0.2956  0.3712  0.1717
  474MOL0     C63886   2.568  10.748  11.168  0.1951 -0.4752 -0.7015
  474MOL0     C63887   2.596  10.783  11.304  0.5776 -0.1410  0.3422
  474MOL0     C63888   2.724  10.780  11.354  0.3351  0.6004 -0.4013
  474MOL0     C63889   2.827  10.733  11.279 -0.1497 -0.2463 -0.5723
  474MOL0     O63890   2.939  10.704  11.349 -0.5039  0.1583  0.1784
  474MOL0     C63891   3.066  10.732  11.287  0.0117 -0.0613  0.3967
  474MOL0     C63892   3.175  10.748  11.393  1.0484 -0.1184 -0.1176
  474MOL0     C63893   3.296  10.809  11.320 -0.0830 -0.0125  0.4477
  474MOL0     C63894   3.402  10.862  11.411 -0.9988 -0.1961  0.3443
  474MOL0     C63895   3.525  10.910  11.330  0.7167 -0.7923 -0.0440
  474MOL0     C63896   3.625  10.992  11.422 -0.6382  0.6366 -0.1455
  474MOL0     C63897   3.763  11.001  11.353 -0.1864  0.8086 -0.2269
  474MOL0     C63898   3.872  11.074  11.437  0.4925  0.0131 -0.0817
  474MOL0    Cl63899   4.007  11.095  11.317  0.0022  0.0412 -0.0721
  474MOL0     C63900   2.812  10.714  11.142 -0.0972  0.0153 -0.0592
  474MOL0     C63901   2.681  10.704  11.088  0.8116  0.0764 -0.6602
  474MOL0     O63902   2.475  10.792  10.910 -0.5779  0.3560 -0.7408
  474MOL0     C63903   2.162  10.737  11.080  0.7366  0.4820 -0.0455
  474MOL0     C63904   2.018  10.726  11.054 -0.4009  0.2565  0.5285
  474MOL0     N63905   1.591  10.311  10.502 -1.0013  0.2066  0.0513
  474MOL0     N63906   1.499  10.222  10.470 -0.0552  0.4787  0.4186
  474MOL0     C63907   0.688   9.673   9.787 -0.3390  0.2204  0.1402
  474MOL0     C63908   0.565   9.702   9.750 -0.7115 -0.1232  0.0035
  474MOL0     C63909   0.117   9.775   9.821 -0.6995 -0.7966 -0.6713
  474MOL0     C63910   0.096   9.914   9.796  0.6582  1.0635 -0.3833
  474MOL0     C63911  -0.025   9.975   9.786  0.1235 -0.4333 -0.0420
  474MOL0     C63912  -0.139   9.890   9.786 -0.7643 -0.7280 -0.0783
  474MOL0     O63913  -0.251   9.959   9.752  0.2455  0.1608  0.5502
  474MOL0     C63914  -0.359   9.893   9.697 -0.0821  0.1993 -0.7050
  474MOL0     C63915  -0.465   9.998   9.679 -0.2787 -0.0717 -0.3217
  474MOL0     C63916  -0.436  10.104   9.576 -0.0896  0.1352 -0.2344
  474MOL0     C63917  -0.491  10.069   9.440  0.7483  0.0030 -0.4525
  474MOL0     C63918  -0.456  10.163   9.329  0.7959 -0.3528 -0.1812
  474MOL0     C63919  -0.453  10.228   9.230  0.3177  0.0914  0.0738
  474MOL0     C63920  -0.123   9.750   9.804 -0.1204 -0.1197 -0.5525
  474MOL0     C63921   0.010   9.692   9.816  0.3598  0.4202  0.2943
  474MOL0     C63922   0.027   9.541   9.813  0.7781  0.0652  1.1875
  474MOL0     H63923   0.477   9.895  10.023  3.2228  1.1896  0.7758
  474MOL0     H63924   0.703   9.848  10.079 -0.5962 -0.3186 -0.7017
  474MOL0     H63925   0.955   9.862   9.975  3.8412 -0.7993 -0.5384
  474MOL0     H63926   0.897   9.773  10.119 -0.7445 -1.3084  0.6548
  474MOL0     H63927   1.115   9.661   9.944  2.2901  1.9484 -0.4816
  474MOL0     H63928   1.053   9.603  10.099 -1.0552 -0.1980 -0.3867
  474MOL0     H63929   1.133   9.793  10.217  0.9231  1.5935  0.5979
  474MOL0     H63930   1.211   9.869  10.072  3.4464 -1.0262  0.2591
  474MOL0     H63931   1.289   9.606  10.192 -2.6932 -0.9706 -1.5786
  474MOL0     H63932   1.323   9.669  10.027 -1.6354  2.2196 -0.1788
  474MOL0     H63933   1.508   9.711  10.192  0.3616  0.0400  0.5140
  474MOL0     H63934   1.438   9.861  10.123 -2.9283 -1.8070 -4.2261
  474MOL0     H63935   1.293   9.882  10.328  1.0413  1.9993 -4.4731
  474MOL0     H63936   1.390   9.743  10.393  2.8187  0.5007  2.1532
  474MOL0     H63937   1.500  10.008  10.297 -1.7551  1.8614  1.4869
  474MOL0     H63938   1.589   9.880  10.389  0.1546  0.7847  1.4023
  474MOL0     H63939   1.339   9.996  10.511  0.1748  1.1342  1.2425
  474MOL0     H63940   1.469   9.894  10.586 -0.0296  1.6130  1.5551
  474MOL0     H63941   1.676  10.038  10.684  0.5136  2.2647  1.6758
  474MOL0     H63942   1.864  10.202  10.683  1.7891  1.8070 -0.1509
  474MOL0     H63943   1.855  10.357  10.585  0.9670 -0.1743 -0.5480
  474MOL0     H63944   1.667  10.376  10.791  0.3873 -2.1965  2.4133
  474MOL0     H63945   1.825  10.334  10.857  3.2576  0.5650 -0.6683
  474MOL0     H63946   1.794  10.577  10.674  1.6926  0.1335 -1.1441
  474MOL0     H63947   1.943  10.512  10.756  1.4685 -3.3033  2.4666
  474MOL0     H63948   1.819  10.554  10.973 -1.7534 -0.1274  0.3462
  474MOL0     H63949   1.677  10.616  10.878  0.1831  0.2641 -2.5563
  474MOL0     H63950   2.043  10.751  10.712  4.9436 -0.9442 -1.0516
  474MOL0     H63951   2.271  10.747  10.753  1.4011 -0.4560  0.4268
  474MOL0     H63952   2.504  10.806  11.357 -1.1815 -1.2044 -2.0488
  474MOL0     H63953   2.735  10.803  11.460 -2.6406 -0.3534  0.2255
  474MOL0     H63954   3.091  10.652  11.216 -2.5983  0.3707 -1.1238
  474MOL0     H63955   3.060  10.826  11.232 -0.6040  0.5896  1.5444
  474MOL0     H63956   3.139  10.826  11.462  2.4749  0.7078 -0.2711
  474MOL0     H63957   3.206  10.657  11.446  2.7892  0.2329 -0.4684
  474MOL0     H63958   3.345  10.733  11.259 -1.1285  0.5185 -1.1228
  474MOL0     H63959   3.260  10.889  11.254  0.1383  1.1354  1.6864
  474MOL0     H63960   3.439  10.776  11.468 -1.8128 -0.3521  0.6435
  474MOL0     H63961   3.356  10.930  11.483 -1.4217  0.4664 -0.5385
  474MOL0     H63962   3.478  10.970  11.252  0.0148 -0.5529  0.5494
  474MOL0     H63963   3.577  10.827  11.281  1.4847  0.1082 -0.8037
  474MOL0     H63964   3.583  11.091  11.442 -3.3365  0.1068 -2.5167
  474MOL0     H63965   3.639  10.945  11.520  0.9700 -2.6742 -1.8067
  474MOL0     H63966   3.758  11.069  11.267  1.1750 -0.6139 -1.4838
  474MOL0     H63967   3.808  10.910  11.312 -0.9056  1.5698 -2.9286
  474MOL0     H63968   3.837  11.166  11.485 -0.5406 -0.7734  0.7106
  474MOL0     H63969   3.912  11.012  11.518  0.2833  1.1684  0.9300
  474MOL0     H63970   2.903  10.696  11.086  0.4635  1.0095  0.4972
  474MOL0     H63971   2.671  10.654  10.992  0.6439 -4.2911  1.4054
  474MOL0     H63972   2.194  10.754  11.182  1.4505  0.8265 -0.3203
  474MOL0     H63973   1.943  10.719  11.132 -0.3785  1.2685  0.6642
  474MOL0     H63974   0.757   9.613   9.729  1.1243  1.6479  0.3422
  474MOL0     H63975   0.527   9.679   9.651  1.0065  3.4611 -1.6770
  474MOL0     H63976   0.181   9.981   9.798  1.8344 -0.2730 -2.1455
  474MOL0     H63977  -0.052  10.080   9.779 -1.8902 -0.8210  1.1936
  474MOL0     H63978  -0.413   9.824   9.761  2.7913 -0.3690  1.2669
  474MOL0     H63979  -0.329   9.843   9.605  0.0624 -1.8889  0.4328
  474MOL0     H63980  -0.472  10.049   9.775  1.4360 -1.0858  0.4122
  474MOL0     H63981  -0.553   9.938   9.654  0.7873 -0.6498 -3.1466
  474MOL0     H63982  -0.328  10.113   9.586  0.0103 -1.9811  1.5094
  474MOL0     H63983  -0.484  10.197   9.609 -0.5157 -0.1876  0.0681
  474MOL0     H63984  -0.472   9.964   9.416 -3.1733 -1.6113  2.4784
  474MOL0     H63985  -0.598  10.066   9.460  1.4088  1.7518  5.3277
  474MOL0     H63986  -0.439  10.292   9.145 -1.9096 -2.1254 -2.1575
  474MOL0     H63987  -0.203   9.676   9.801  1.6151 -2.1140 -0.1960
  474MOL0     H63988  -0.067   9.495   9.780 -0.1353  1.6248  1.5297
  474MOL0     H63989   0.102   9.510   9.739  1.1308  1.7089  0.8179
  474MOL0     H63990   0.051   9.495   9.910  0.7395 -1.9847  0.2862
  475MOL0     O63991   3.742   0.656   5.593  0.4892  0.0890 -0.0143
  475MOL0     C63992   3.821   0.733   5.641 -0.5764  0.1343 -0.9232
  475MOL0     O63993   3.799   0.866   5.662  0.4301 -0.0813 -0.6082
  475MOL0     C63994   3.684   0.938   5.622 -0.6418  0.0814  0.5315
  475MOL0     C63995   3.563   0.879   5.598 -1.1296 -0.6570 -0.4565
  475MOL0     C63996   3.469   0.957   5.531 -0.5162 -0.1999  0.8198
  475MOL0     C63997   3.502   1.089   5.499  0.2600 -0.4643 -1.4493
  475MOL0     O63998   3.407   1.159   5.427 -0.5660  0.5930  0.4258
  475MOL0     C63999   3.405   1.301   5.435 -0.8720  0.6365  0.6162
  475MOL0     C64000   3.352   1.356   5.569  0.4995  0.4047 -0.0072
  475MOL0     C64001   3.211   1.312   5.606 -0.6340 -0.3509  0.8977
  475MOL0     C64002   3.167   1.383   5.731  0.4487 -0.2932  0.0071
  475MOL0     C64003   3.023   1.344   5.761  0.3976  0.2287  0.4949
  475MOL0     C64004   2.997   1.360   5.909  0.2031 -0.5846  0.7134
  475MOL0     C64005   3.071   1.251   5.998 -0.4494  0.4657  0.6306
  475MOL0     C64006   3.024   1.276   6.144 -0.3499  0.7190  0.0793
  475MOL0     N64007   3.075   1.188   6.252  0.5531 -0.2730  0.1493
  475MOL0     C64008   3.173   1.222   6.336 -0.2528 -0.0015  0.7659
  475MOL0     C64009   3.194   1.108   6.407 -0.2634  0.9155 -0.6231
  475MOL0     C64010   3.293   1.079   6.516  0.8267 -0.3257 -0.1551
  475MOL0     C64011   3.289   1.167   6.641  0.5451 -1.7143  0.6031
  475MOL0     C64012   3.346   1.311   6.629  0.5443  0.0307  0.2668
  475MOL0     C64013   3.487   1.321   6.585  0.5423 -0.1998  0.5515
  475MOL0     O64014   3.575   1.271   6.683 -0.0674  0.4277  0.2278
  475MOL0     C64015   3.699   1.248   6.646 -0.5362  0.6035 -0.1947
  475MOL0     C64016   3.805   1.304   6.720 -0.5999 -0.1228  0.1231
  475MOL0     C64017   3.942   1.286   6.683 -0.3920 -0.6705 -0.3569
  475MOL0     C64018   3.981   1.196   6.585  0.6038 -0.1231 -0.5797
  475MOL0     C64019   4.117   1.201   6.524 -0.2301  0.5827 -0.5498
  475MOL0     O64020   4.135   1.129   6.406  0.3211  0.4375 -0.5375
  475MOL0     C64021   4.243   1.143   6.337 -0.4257 -0.4003  0.2747
  475MOL0     C64022   4.367   1.138   6.406  0.3240  0.8839  0.8947
  475MOL0     C64023   4.478   1.150   6.320 -0.7457  0.0868  0.2285
  475MOL0     C64024   4.480   1.158   6.175 -0.7237 -0.4283  0.1679
  475MOL0     O64025   4.594   1.163   6.107 -0.5717 -0.5309 -0.6019
  475MOL0     C64026   4.685   1.055   6.149 -0.0570 -0.7301 -0.0472
  475MOL0     C64027   4.816   1.100   6.214  0.3634 -0.3078  0.5129
  475MOL0     C64028   4.938   1.027   6.148  0.0837  0.2953  0.2310
  475MOL0     C64029   5.069   0.999   6.235  0.0941 -0.6774  0.1427
  475MOL0     C64030   5.188   0.959   6.148 -0.5776 -0.0693 -0.0061
  475MOL0     C64031   5.318   0.929   6.234  0.1752 -0.4977 -0.1792
  475MOL0     C64032   5.436   0.852   6.182 -0.5590  0.2943  0.2538
  475MOL0     C64033   5.528   0.835   6.296 -0.2508  0.4761 -0.2715
  475MOL0    Cl64034   5.666   0.743   6.246 -0.5219 -0.3693  0.2918
  475MOL0     C64035   4.347   1.150   6.125 -0.0550  0.1145  1.2975
  475MOL0     C64036   4.235   1.150   6.201  0.3980  0.0342  0.1115
  475MOL0     O64037   4.201   1.268   6.588 -0.5435  0.1481 -0.2555
  475MOL0     C64038   3.879   1.118   6.532  0.4873  0.5168 -1.0371
  475MOL0     C64039   3.738   1.148   6.553 -0.4572 -0.5005 -1.3331
  475MOL0     N64040   3.107   1.012   6.363  1.1056  0.0629 -0.4798
  475MOL0     N64041   3.027   1.062   6.280 -0.1079 -1.1259 -0.1501
  475MOL0     C64042   3.636   1.146   5.520 -0.0511 -0.2093  0.3048
  475MOL0     C64043   3.719   1.060   5.579 -0.0809  0.2081  0.4433
  475MOL0     C64044   3.932   0.660   5.703 -0.2317 -0.1167  0.4616
  475MOL0     C64045   4.058   0.699   5.666 -0.3502 -0.2556  0.4684
  475MOL0     C64046   4.170   0.640   5.726  0.5301 -0.0238 -0.2348
  475MOL0     C64047   4.155   0.539   5.824 -0.2698  0.5430  0.1643
  475MOL0     O64048   4.253   0.475   5.902  0.0955  0.2106  0.0637
  475MOL0     C64049   4.387   0.467   5.854 -0.1045 -0.8125  0.2809
  475MOL0     C64050   4.396   0.362   5.734  0.1659 -0.4108 -0.0612
  475MOL0     C64051   4.386   0.219   5.800  0.1915 -0.2447  0.1516
  475MOL0     C64052   4.410   0.105   5.700 -0.6108  0.6066 -0.0898
  475MOL0     C64053   4.529   0.110   5.614  0.4231 -0.6487  0.5557
  475MOL0     C64054   4.605   0.112   5.522  0.4066  0.9534 -0.7389
  475MOL0     C64055   4.026   0.497   5.861 -0.8224 -0.8962  0.1525
  475MOL0     C64056   3.918   0.561   5.807 -0.2113 -0.2496 -0.3976
  475MOL0     C64057   3.780   0.550   5.876 -0.0767  0.3315 -0.3181
  475MOL0     H64058   3.532   0.793   5.656 -0.3132  0.5567  1.9202
  475MOL0     H64059   3.367   0.930   5.507 -0.7592  1.2153  0.1660
  475MOL0     H64060   3.500   1.351   5.415 -1.4103  0.7894 -1.9435
  475MOL0     H64061   3.343   1.335   5.351 -1.7414 -1.2275  0.4608
  475MOL0     H64062   3.360   1.465   5.560  3.5881  0.2885  0.4239
  475MOL0     H64063   3.421   1.334   5.651  3.3292 -1.3579 -2.6529
  475MOL0     H64064   3.211   1.204   5.622 -0.2365 -0.7536 -1.4714
  475MOL0     H64065   3.151   1.328   5.516  0.9065 -1.6377 -0.4122
  475MOL0     H64066   3.226   1.365   5.821 -2.3949 -4.4726  1.3806
  475MOL0     H64067   3.165   1.491   5.712 -2.0198 -0.8596 -4.3043
  475MOL0     H64068   2.946   1.395   5.702  0.3138  1.1551  1.3849
  475MOL0     H64069   3.018   1.236   5.749  3.6425 -0.1044  1.1652
  475MOL0     H64070   3.032   1.461   5.935 -1.0182  0.3223 -0.9073
  475MOL0     H64071   2.890   1.350   5.930 -0.2527  1.5008 -0.3574
  475MOL0     H64072   3.180   1.255   6.000 -0.2275 -2.5752 -0.2389
  475MOL0     H64073   3.052   1.149   5.967  0.8136 -0.1354  1.6991
  475MOL0     H64074   3.039   1.384   6.156 -1.6046  0.9690 -0.4923
  475MOL0     H64075   2.916   1.261   6.142 -0.3892  1.0924 -0.7190
  475MOL0     H64076   3.229   1.315   6.330 -2.1152  1.0634 -1.7822
  475MOL0     H64077   3.274   0.976   6.548  2.3790 -0.4968  0.2714
  475MOL0     H64078   3.390   1.080   6.467  1.3962  2.0290  0.8993
  475MOL0     H64079   3.190   1.178   6.686  1.5154 -1.8470  2.9713
  475MOL0     H64080   3.345   1.113   6.719 -2.0336 -3.9190  1.0886
  475MOL0     H64081   3.340   1.375   6.718  1.6784  1.5961 -0.7382
  475MOL0     H64082   3.281   1.349   6.550 -2.0467 -1.3282  1.6066
  475MOL0     H64083   3.511   1.427   6.565  2.7025 -0.7442 -0.0767
  475MOL0     H64084   3.495   1.266   6.491  2.0166  2.1529 -0.8126
  475MOL0     H64085   3.778   1.378   6.794 -1.1545  3.7054 -3.5429
  475MOL0     H64086   4.004   1.366   6.721 -2.1173 -0.3542  2.0094
  475MOL0     H64087   4.381   1.129   6.513  0.6512  2.2879  0.9855
  475MOL0     H64088   4.576   1.166   6.366 -0.3519 -0.4926 -0.3953
  475MOL0     H64089   4.647   0.974   6.212  3.1657 -0.8630  1.9539
  475MOL0     H64090   4.699   1.005   6.053  0.0049 -1.9824  0.5972
  475MOL0     H64091   4.828   1.207   6.197  1.9591 -0.6002 -0.4291
  475MOL0     H64092   4.815   1.080   6.321 -0.7575 -5.3893 -0.1645
  475MOL0     H64093   4.892   0.930   6.126 -0.1981  0.4363  0.1878
  475MOL0     H64094   4.968   1.078   6.056 -1.1235  2.6493  1.0563
  475MOL0     H64095   5.059   0.917   6.307 -0.2577  0.7620  1.7932
  475MOL0     H64096   5.104   1.090   6.285  3.8778 -0.7170 -2.1052
  475MOL0     H64097   5.202   1.041   6.078 -0.0153  1.7503  2.1283
  475MOL0     H64098   5.166   0.864   6.098 -2.2382  0.9136 -1.2194
  475MOL0     H64099   5.345   1.023   6.283  0.6070  0.1988 -1.7063
  475MOL0     H64100   5.272   0.871   6.315 -0.3661 -1.7811 -1.3590
  475MOL0     H64101   5.482   0.908   6.100  0.2801  1.3604  1.4095
  475MOL0     H64102   5.410   0.752   6.147  0.0845  0.0049  0.5867
  475MOL0     H64103   5.558   0.933   6.335  0.2919  1.1512 -2.2701
  475MOL0     H64104   5.483   0.780   6.379  2.2250 -0.0716  0.8245
  475MOL0     H64105   4.343   1.157   6.017  2.2553 -1.4512  1.0443
  475MOL0     H64106   4.138   1.157   6.153  0.8474  1.0677 -0.6778
  475MOL0     H64107   3.902   1.047   6.453  0.0886 -1.4525  0.5398
  475MOL0     H64108   3.648   1.100   6.517 -1.5348 -1.7405  2.4987
  475MOL0     H64109   3.681   1.233   5.474 -0.0530  1.6864  3.5873
  475MOL0     H64110   3.820   1.091   5.602 -1.0424  2.5634  1.9434
  475MOL0     H64111   4.061   0.777   5.590 -0.9448 -1.8533 -1.2800
  475MOL0     H64112   4.270   0.673   5.700  0.2888  3.1794  2.2880
  475MOL0     H64113   4.455   0.450   5.938 -1.6679 -0.4341  1.6700
  475MOL0     H64114   4.416   0.566   5.818  0.6025 -0.5797  1.4264
  475MOL0     H64115   4.491   0.375   5.683  2.0866 -1.3966  3.0302
  475MOL0     H64116   4.319   0.378   5.657 -0.5573  1.9999  1.0658
  475MOL0     H64117   4.288   0.209   5.846  0.8021 -1.1465  1.3263
  475MOL0     H64118   4.466   0.203   5.874 -0.2871 -2.8398  0.2280
  475MOL0     H64119   4.404   0.008   5.750 -3.7086 -1.3504 -3.7153
  475MOL0     H64120   4.326   0.087   5.632  1.0405 -2.7152 -1.5020
  475MOL0     H64121   4.667   0.119   5.434 -5.4281  1.0646 -5.4870
  475MOL0     H64122   4.002   0.422   5.936  1.2249 -0.3739  1.3865
  475MOL0     H64123   3.768   0.521   5.981 -2.5692  0.8456 -0.4041
  475MOL0     H64124   3.732   0.648   5.879 -0.8890 -0.0641  1.4960
  475MOL0     H64125   3.707   0.488   5.823 -4.4058  2.9346  1.9739
  476MOL0     O64126   6.886   2.998   7.285 -0.4088  0.0412 -0.4980
  476MOL0     C64127   6.877   2.907   7.203 -0.1087 -0.3106  0.4256
  476MOL0     O64128   6.984   2.824   7.159  0.4038 -0.7170  0.0282
  476MOL0     C64129   7.107   2.882   7.125 -1.0690  0.0533  0.6776
  476MOL0     C64130   7.136   3.020   7.107  0.0816 -0.5732  0.7010
  476MOL0     C64131   7.264   3.065   7.084 -0.2231  0.2868  0.2312
  476MOL0     C64132   7.364   2.980   7.054 -0.4072 -0.0195 -0.1836
  476MOL0     O64133   7.490   3.024   7.018 -0.0989  0.0276 -0.1620
  476MOL0     C64134   7.522   3.168   7.022  0.2644 -0.3522 -0.0999
  476MOL0     C64135   7.654   3.194   6.944  0.3760  0.0954 -0.5838
  476MOL0     C64136   7.772   3.117   7.006  0.0730  0.3023 -0.2738
  476MOL0     C64137   7.897   3.133   6.917 -0.6142 -0.1460  0.2574
  476MOL0     C64138   8.013   3.066   6.986 -0.2735  0.1647 -0.3796
  476MOL0     C64139   8.115   3.037   6.877 -0.1023 -0.0775 -0.2711
  476MOL0     C64140   8.216   2.950   6.941  0.5846 -0.5005  0.2466
  476MOL0     C64141   8.325   2.917   6.842  0.1582 -0.3209  0.7713
  476MOL0     N64142   8.424   2.835   6.906 -0.3340 -0.1313  0.2773
  476MOL0     C64143   8.484   2.722   6.848  0.3758  0.4903  0.5208
  476MOL0     C64144   8.549   2.656   6.943  0.6005  0.2802 -0.2305
  476MOL0     C64145   8.644   2.541   6.924 -0.4646  0.1245  0.4776
  476MOL0     C64146   8.784   2.575   6.977 -0.6335  0.2697 -0.7247
  476MOL0     C64147   8.840   2.695   6.910  0.2240 -0.0774  0.2322
  476MOL0     C64148   8.976   2.734   6.964 -0.7203 -0.4345  0.0665
  476MOL0     O64149   9.077   2.636   6.936  0.5806  0.2521 -0.1592
  476MOL0     C64150   9.207   2.663   6.983  0.2898  0.0126 -0.0824
  476MOL0     C64151   9.311   2.601   6.907  0.5431 -0.4172 -0.3736
  476MOL0     C64152   9.447   2.629   6.936 -0.3635 -0.5203  1.0373
  476MOL0     C64153   9.489   2.699   7.049  0.3703 -0.9232  0.0898
  476MOL0     C64154   9.635   2.724   7.075  0.2939 -0.3623  0.5400
  476MOL0     O64155   9.731   2.647   7.016  0.3875  0.0980 -0.0138
  476MOL0     C64156   9.866   2.680   7.026  0.1106 -0.0923  0.6383
  476MOL0     C64157   9.928   2.803   7.061  0.7013 -0.5686  0.5431
  476MOL0     C64158  10.065   2.823   7.056 -1.0447  0.5754  0.6784
  476MOL0     C64159  10.150   2.718   7.012 -0.1505  0.4069 -0.0925
  476MOL0     O64160  10.283   2.723   6.985  0.6050  0.0759 -0.9803
  476MOL0     C64161  10.342   2.859   6.964  0.2457  0.2464 -0.9164
  476MOL0     C64162  10.464   2.862   6.866 -0.2148  0.9031  0.1331
  476MOL0     C64163  10.579   2.770   6.907 -0.7121 -0.0358  0.4123
  476MOL0     C64164  10.689   2.801   6.803 -0.3247 -0.4996 -0.6492
  476MOL0     C64165  10.813   2.743   6.858 -0.0167 -0.7128 -0.1978
  476MOL0     C64166  10.927   2.776   6.763  0.1216  0.0307 -0.4579
  476MOL0     C64167  11.069   2.722   6.811 -0.2447  0.0407  0.5598
  476MOL0     C64168  11.148   2.811   6.900  0.0326  0.3074 -0.8044
  476MOL0    Cl64169  11.245   2.939   6.800 -0.3411 -0.1042  0.2214
  476MOL0     C64170  10.090   2.597   6.980 -0.1227 -0.2269 -0.1404
  476MOL0     C64171   9.951   2.573   6.992 -0.6373 -0.6108 -0.4103
  476MOL0     O64172   9.660   2.813   7.151 -0.4035 -0.1495  0.2167
  476MOL0     C64173   9.387   2.768   7.130 -0.4863  0.6814  0.3973
  476MOL0     C64174   9.245   2.739   7.097 -0.5049 -0.6748 -0.2167
  476MOL0     N64175   8.537   2.733   7.061 -0.6897 -0.3654  1.5580
  476MOL0     N64176   8.462   2.838   7.039  0.0451 -0.0433  0.4149
  476MOL0     C64177   7.341   2.844   7.072 -0.2481  0.9712  0.4250
  476MOL0     C64178   7.219   2.798   7.112 -0.6800 -0.3604 -0.6205
  476MOL0     C64179   6.745   2.883   7.153 -0.7577 -0.0181  0.3464
  476MOL0     C64180   6.724   2.754   7.090  0.3411 -0.3490  1.1563
  476MOL0     C64181   6.600   2.715   7.027 -0.0272  0.2312 -0.1762
  476MOL0     C64182   6.505   2.822   7.022  0.1940 -0.0316  0.6239
  476MOL0     O64183   6.382   2.796   6.969 -0.0322 -0.0124  0.0063
  476MOL0     C64184   6.302   2.716   7.052 -0.7373 -0.2836 -0.2670
  476MOL0     C64185   6.185   2.786   7.110  0.6661  0.2730  0.8412
  476MOL0     C64186   6.084   2.836   7.009  0.5016 -0.2221 -0.3332
  476MOL0     C64187   5.997   2.948   7.067  0.3678  0.7602 -0.6026
  476MOL0     C64188   6.078   3.069   7.077 -0.7667 -0.2733  0.2409
  476MOL0     C64189   6.160   3.164   7.078  0.2887  0.0899 -0.3141
  476MOL0     C64190   6.525   2.949   7.070  0.3149 -0.0702  0.2910
  476MOL0     C64191   6.641   2.981   7.138 -0.8400 -0.5612  0.3745
  476MOL0     C64192   6.655   3.125   7.179  0.5278 -0.3103 -0.6928
  476MOL0     H64193   7.059   3.095   7.113 -0.9218 -1.0824 -3.1132
  476MOL0     H64194   7.272   3.174   7.080 -1.9852  0.4380  0.3681
  476MOL0     H64195   7.438   3.212   6.968 -1.1235 -0.6826  1.7234
  476MOL0     H64196   7.509   3.210   7.122  0.7513  1.0803 -0.6082
  476MOL0     H64197   7.676   3.301   6.935  2.5868 -0.2571  0.2534
  476MOL0     H64198   7.650   3.157   6.841 -2.6826 -2.3223  0.2584
  476MOL0     H64199   7.756   3.013   7.037 -3.0734 -0.2811 -3.1193
  476MOL0     H64200   7.789   3.175   7.097  1.3369 -0.3188 -0.0920
  476MOL0     H64201   7.882   3.079   6.823 -1.9073  0.3331  0.1695
  476MOL0     H64202   7.926   3.236   6.895 -1.9940  0.1447 -0.2875
  476MOL0     H64203   8.058   3.131   7.061 -0.9485 -1.6259  1.7004
  476MOL0     H64204   7.985   2.978   7.045  0.1627  1.6873  2.2362
  476MOL0     H64205   8.066   2.987   6.793 -2.7968  0.2438  1.0117
  476MOL0     H64206   8.149   3.137   6.849  0.2809 -0.5571 -1.5893
  476MOL0     H64207   8.177   2.851   6.969 -0.4832  0.7940  3.9017
  476MOL0     H64208   8.262   2.983   7.035  0.6077 -4.3479  1.7970
  476MOL0     H64209   8.285   2.859   6.759  3.2191 -4.4124  1.8348
  476MOL0     H64210   8.352   3.013   6.798 -1.3121 -0.8420 -1.3900
  476MOL0     H64211   8.469   2.693   6.745 -0.9553 -0.5288  0.9709
  476MOL0     H64212   8.618   2.446   6.972 -1.3841 -0.0932 -0.4116
  476MOL0     H64213   8.661   2.518   6.818  2.4696 -0.5448  1.0113
  476MOL0     H64214   8.779   2.588   7.085  0.4878 -1.5098 -0.4113
  476MOL0     H64215   8.849   2.487   6.965 -1.0906 -0.0115 -1.2103
  476MOL0     H64216   8.785   2.782   6.946  0.7805  0.4470 -0.1652
  476MOL0     H64217   8.837   2.686   6.801  2.6350  0.1859  0.0743
  476MOL0     H64218   8.973   2.744   7.072 -1.2000 -0.6022  0.0686
  476MOL0     H64219   9.014   2.822   6.911 -0.8404  0.0639  0.8035
  476MOL0     H64220   9.280   2.519   6.842 -2.1671 -1.3176  1.8484
  476MOL0     H64221   9.525   2.581   6.878 -0.1205 -0.5916  1.4164
  476MOL0     H64222   9.867   2.888   7.092  2.5934  0.1243  2.6563
  476MOL0     H64223  10.112   2.917   7.082 -1.2328  0.8891 -0.1040
  476MOL0     H64224  10.267   2.930   6.929  0.6658  2.6180  2.4528
  476MOL0     H64225  10.371   2.904   7.059  0.5169 -0.3485 -0.7123
  476MOL0     H64226  10.420   2.841   6.768  0.4751 -2.2374  0.3690
  476MOL0     H64227  10.506   2.962   6.854 -2.2905  1.9501  1.1975
  476MOL0     H64228  10.606   2.787   7.011  1.2317 -0.4344  0.0214
  476MOL0     H64229  10.568   2.661   6.897  0.3129 -0.2435  1.3437
  476MOL0     H64230  10.701   2.909   6.804 -1.3963 -0.3670  0.3532
  476MOL0     H64231  10.663   2.768   6.702  1.6776 -0.1645 -1.3064
  476MOL0     H64232  10.811   2.634   6.871 -0.6930 -1.0593 -2.7453
  476MOL0     H64233  10.831   2.780   6.960 -2.0927 -2.5852  0.9409
  476MOL0     H64234  10.910   2.736   6.662 -1.1862 -0.2821 -0.1259
  476MOL0     H64235  10.926   2.884   6.748  0.3683  0.1677  0.4848
  476MOL0     H64236  11.136   2.701   6.727 -0.7831  1.5411 -0.2937
  476MOL0     H64237  11.039   2.632   6.867 -0.3096 -0.6325 -0.5224
  476MOL0     H64238  11.080   2.864   6.967  1.7463 -0.9045  2.1070
  476MOL0     H64239  11.215   2.758   6.969 -2.1737 -1.0359  0.4011
  476MOL0     H64240  10.155   2.521   6.938  0.4652  1.2552 -2.0527
  476MOL0     H64241   9.917   2.471   6.975 -0.2609 -1.0223  1.1605
  476MOL0     H64242   9.411   2.841   7.207 -0.4237  2.0351 -0.8648
  476MOL0     H64243   9.157   2.772   7.152 -2.3154 -1.9123 -2.2196
  476MOL0     H64244   7.423   2.773   7.071 -1.6157 -0.6663 -0.9537
  476MOL0     H64245   7.195   2.693   7.128 -3.3067  0.0879 -1.0425
  476MOL0     H64246   6.809   2.690   7.072  0.1702 -0.3419  0.2430
  476MOL0     H64247   6.582   2.622   6.975  2.9561 -1.3032  1.2945
  476MOL0     H64248   6.357   2.687   7.142  1.7874 -0.1044 -1.6845
  476MOL0     H64249   6.276   2.636   6.982 -1.7240  1.5447 -2.0888
  476MOL0     H64250   6.227   2.875   7.158  3.2857  0.7098 -1.9561
  476MOL0     H64251   6.134   2.729   7.188 -1.9708 -0.0786 -0.9895
  476MOL0     H64252   6.019   2.753   6.980 -2.7197  2.2520 -0.7126
  476MOL0     H64253   6.128   2.877   6.917  1.9138 -0.2096  0.3141
  476MOL0     H64254   5.919   2.964   6.992  2.6549 -0.7237 -3.4920
  476MOL0     H64255   5.951   2.923   7.164  0.4239 -0.7773 -0.9332
  476MOL0     H64256   6.246   3.226   7.090  0.2459  0.2698 -0.9211
  476MOL0     H64257   6.461   3.035   7.056 -0.4143 -0.9619 -2.6678
  476MOL0     H64258   6.658   3.135   7.288  1.7680  3.5912 -0.9289
  476MOL0     H64259   6.745   3.177   7.148 -1.0658  2.5062 -0.9569
  476MOL0     H64260   6.572   3.189   7.145 -1.7531 -2.1117  1.1048
  477MOL0     O64261  10.962   8.605   9.612 -0.3489  0.1077 -0.0794
  477MOL0     C64262  10.870   8.625   9.530  0.0116  0.1556 -0.8617
  477MOL0     O64263  10.889   8.614   9.397 -0.4421 -0.1391  0.0596
  477MOL0     C64264  11.014   8.587   9.349  0.0587  0.2034 -0.3889
  477MOL0     C64265  11.074   8.461   9.354 -0.9547 -0.9257 -0.2659
  477MOL0     C64266  11.202   8.432   9.309  0.2236 -0.3840 -0.0506
  477MOL0     C64267  11.271   8.542   9.249 -0.6786  0.6501 -0.1987
  477MOL0     O64268  11.405   8.533   9.204  0.7449 -0.0362  0.0879
  477MOL0     C64269  11.458   8.409   9.155  0.4349 -0.3068 -0.2984
  477MOL0     C64270  11.548   8.333   9.245  0.2800  0.3025  0.0881
  477MOL0     C64271  11.664   8.428   9.292 -0.4963  0.0756  0.3362
  477MOL0     C64272  11.762   8.343   9.371  0.1043 -0.1995  0.0979
  477MOL0     C64273  11.882   8.415   9.432 -0.4751 -0.6340  0.7259
  477MOL0     C64274  11.985   8.469   9.319  0.7472  0.3355 -0.9770
  477MOL0     C64275  12.112   8.534   9.375 -0.3914 -1.4181  0.0720
  477MOL0     C64276  12.105   8.687   9.403  0.1219  0.0161 -0.3078
  477MOL0     N64277  12.233   8.745   9.442 -0.0722  0.3400  0.3247
  477MOL0     C64278  12.355   8.702   9.391  0.4272 -0.0028  0.4476
  477MOL0     C64279  12.448   8.756   9.480  0.1072  0.9254 -0.3648
  477MOL0     C64280  12.588   8.713   9.459 -0.4720  0.1216  0.3583
  477MOL0     C64281  12.683   8.832   9.404  0.1485  0.0003  0.5918
  477MOL0     C64282  12.828   8.783   9.363 -0.1494  0.1347 -0.3141
  477MOL0     C64283  12.911   8.777   9.493 -0.7013 -0.0212  0.2243
  477MOL0     O64284  13.036   8.715   9.464 -0.0046 -1.0092  0.1319
  477MOL0     C64285  13.138   8.775   9.394  0.9715  0.6047  0.0268
  477MOL0     C64286  13.250   8.708   9.370 -0.2611  0.2478  0.5869
  477MOL0     C64287  13.365   8.768   9.319  0.9021 -0.1758  0.3613
  477MOL0     C64288  13.364   8.902   9.276 -0.5946  0.1885  0.3685
  477MOL0     C64289  13.476   8.969   9.208 -0.4694 -0.1565 -0.0213
  477MOL0     O64290  13.477   9.106   9.186  0.5076 -0.4582 -0.0929
  477MOL0     C64291  13.594   9.168   9.134 -0.5067  0.4526  0.6261
  477MOL0     C64292  13.669   9.118   9.029 -0.3174 -0.0219  0.2073
  477MOL0     C64293  13.778   9.185   8.984  0.8278 -0.6993  0.0666
  477MOL0     C64294  13.811   9.321   9.029  0.1340  0.3508  0.1710
  477MOL0     O64295  13.921   9.401   8.994  0.5423  0.4036  0.2296
  477MOL0     C64296  14.018   9.338   8.903 -0.6770  1.1109  0.6575
  477MOL0     C64297  14.150   9.412   8.903 -0.7239  0.0616  0.7422
  477MOL0     C64298  14.141   9.553   8.865 -0.3467 -0.1654  0.5944
  477MOL0     C64299  14.251   9.650   8.899  0.4690 -0.1322  0.0541
  477MOL0     C64300  14.222   9.791   8.850  0.6557 -0.1785 -0.2179
  477MOL0     C64301  14.298   9.905   8.920 -0.0746 -0.3271 -0.0293
  477MOL0     C64302  14.252  10.043   8.882  0.7212  0.5363  0.1670
  477MOL0     C64303  14.288  10.068   8.740 -0.9294 -0.9086  0.4630
  477MOL0    Cl64304  14.471  10.082   8.745 -0.3560 -0.0389  0.0654
  477MOL0     C64305  13.728   9.372   9.131  1.2993  0.0301  0.2933
  477MOL0     C64306  13.623   9.301   9.185 -0.1345  0.7098 -0.0179
  477MOL0     O64307  13.576   8.891   9.180 -0.3018  0.1052  0.8924
  477MOL0     C64308  13.243   8.968   9.281  0.3715  0.4149 -0.5082
  477MOL0     C64309  13.128   8.907   9.342  0.2294 -0.3430 -0.1572
  477MOL0     N64310  12.382   8.827   9.581 -0.7461  1.0190  0.4647
  477MOL0     N64311  12.253   8.813   9.559 -0.4817 -1.0194  0.2609
  477MOL0     C64312  11.221   8.670   9.251  1.0467 -0.0742  0.2762
  477MOL0     C64313  11.088   8.694   9.303  0.0500  0.1561 -0.3292
  477MOL0     C64314  10.725   8.650   9.577 -0.8963  0.2585 -0.4513
  477MOL0     C64315  10.612   8.646   9.485 -1.0346 -0.4313 -0.4411
  477MOL0     C64316  10.482   8.649   9.542 -0.4740  0.9040  0.4269
  477MOL0     C64317  10.467   8.648   9.677 -1.2003  0.5918 -0.3520
  477MOL0     O64318  10.345   8.629   9.733  0.3517  0.1039  0.2326
  477MOL0     C64319  10.330   8.499   9.794  0.8395 -1.2774  0.0294
  477MOL0     C64320  10.185   8.492   9.835  0.6073 -0.0333  0.6280
  477MOL0     C64321  10.088   8.461   9.720  0.4426  0.9221  0.0211
  477MOL0     C64322   9.966   8.372   9.767  0.2822  0.2067 -1.1390
  477MOL0     C64323   9.886   8.416   9.889  0.1811  0.1757  0.0063
  477MOL0     C64324   9.813   8.448   9.973  0.3418  0.4243 -0.4701
  477MOL0     C64325  10.577   8.675   9.758  0.3593  0.4717 -0.1605
  477MOL0     C64326  10.705   8.669   9.714  0.2068 -0.4814  0.2006
  477MOL0     C64327  10.808   8.690   9.822 -0.4911 -0.2022 -0.0254
  477MOL0     H64328  11.016   8.383   9.404 -0.5393  0.0328  1.8164
  477MOL0     H64329  11.242   8.332   9.327  1.5643  0.1207 -0.1151
  477MOL0     H64330  11.373   8.346   9.130  0.9228 -0.5821 -1.2886
  477MOL0     H64331  11.509   8.433   9.062  2.6090 -2.8195  0.1591
  477MOL0     H64332  11.585   8.243   9.196 -4.3518 -1.5730 -0.4823
  477MOL0     H64333  11.494   8.295   9.333  1.6700 -0.0108  0.8417
  477MOL0     H64334  11.628   8.510   9.354 -0.6161  0.2760  0.0022
  477MOL0     H64335  11.724   8.462   9.207 -1.7642 -0.5628 -0.8434
  477MOL0     H64336  11.713   8.291   9.454 -0.3765  1.2027  0.7108
  477MOL0     H64337  11.790   8.269   9.294 -2.6330  0.5036 -1.7047
  477MOL0     H64338  11.851   8.498   9.496  3.2092  1.1518  0.5054
  477MOL0     H64339  11.937   8.349   9.500  2.0522  1.0011  0.4406
  477MOL0     H64340  12.018   8.378   9.269 -5.0930 -3.3083  0.8099
  477MOL0     H64341  11.929   8.532   9.249  2.1960  1.9653 -0.7306
  477MOL0     H64342  12.189   8.520   9.299  0.9032  2.3510  0.5005
  477MOL0     H64343  12.146   8.500   9.474 -3.8825 -2.2484  1.1259
  477MOL0     H64344  12.067   8.747   9.320 -1.5636 -0.1952  0.2825
  477MOL0     H64345  12.029   8.706   9.479 -1.7039  2.0253 -2.4742
  477MOL0     H64346  12.367   8.635   9.307 -0.3530 -1.8194  1.7169
  477MOL0     H64347  12.626   8.690   9.559 -1.9006  1.0594  1.1605
  477MOL0     H64348  12.592   8.628   9.391  1.1211 -1.0782  1.8652
  477MOL0     H64349  12.633   8.885   9.322 -0.4253 -1.7855 -0.2491
  477MOL0     H64350  12.693   8.905   9.485  0.8414  1.6377 -0.8948
  477MOL0     H64351  12.874   8.859   9.298  2.3099 -1.3878 -0.5001
  477MOL0     H64352  12.822   8.680   9.328 -0.7390 -0.5214  1.5932
  477MOL0     H64353  12.864   8.705   9.560 -1.8527 -0.2548 -0.8132
  477MOL0     H64354  12.923   8.876   9.539  1.1471 -0.2038  0.2344
  477MOL0     H64355  13.254   8.606   9.408 -2.7638  0.0010  0.3562
  477MOL0     H64356  13.459   8.714   9.315  1.3751  0.6972 -1.0878
  477MOL0     H64357  13.645   9.019   8.992  0.6767 -0.5303  0.8810
  477MOL0     H64358  13.842   9.147   8.905  0.7060  0.6373 -0.6988
  477MOL0     H64359  14.046   9.233   8.916 -2.4400  0.4364 -0.5390
  477MOL0     H64360  13.977   9.351   8.802  3.6340  4.6288 -0.9635
  477MOL0     H64361  14.195   9.400   9.002  2.2889 -0.6244 -0.5744
  477MOL0     H64362  14.216   9.371   8.827 -1.5969 -1.7988  0.9389
  477MOL0     H64363  14.124   9.551   8.757  4.9688 -1.8474 -0.4957
  477MOL0     H64364  14.045   9.585   8.906 -1.2419  1.0840 -2.1963
  477MOL0     H64365  14.346   9.614   8.858 -0.4435 -1.1627 -1.2216
  477MOL0     H64366  14.259   9.648   9.008 -0.5816 -2.0866  0.1456
  477MOL0     H64367  14.115   9.810   8.850 -0.1701 -3.9490 -1.0015
  477MOL0     H64368  14.246   9.781   8.744  0.9553 -1.2146 -0.0690
  477MOL0     H64369  14.283   9.893   9.028  0.4305  0.8973  0.2056
  477MOL0     H64370  14.406   9.888   8.914 -0.0364 -0.3711  0.6570
  477MOL0     H64371  14.309  10.113   8.943 -0.5556  0.6949  1.2192
  477MOL0     H64372  14.145  10.059   8.898 -0.1566 -2.0727 -2.1843
  477MOL0     H64373  14.241   9.999   8.670  1.4709  1.1017 -3.4672
  477MOL0     H64374  14.240  10.162   8.713 -1.7196 -1.8797 -1.7469
  477MOL0     H64375  13.763   9.470   9.162  1.6220  0.8627 -2.3741
  477MOL0     H64376  13.570   9.340   9.271 -1.7825  1.4169 -1.2971
  477MOL0     H64377  13.232   9.067   9.236 -0.7500 -0.9722 -3.5615
  477MOL0     H64378  13.038   8.966   9.350  0.4526 -0.3248  4.0210
  477MOL0     H64379  11.271   8.754   9.203 -0.4986  0.9452  0.4013
  477MOL0     H64380  11.048   8.795   9.300  0.5424  0.6515  3.7201
  477MOL0     H64381  10.627   8.622   9.380  2.8896  1.2964 -0.4861
  477MOL0     H64382  10.399   8.628   9.475  0.0617 -2.5744  0.6579
  477MOL0     H64383  10.386   8.506   9.888  0.0878 -0.2894  0.4279
  477MOL0     H64384  10.345   8.408   9.736 -3.2725 -1.2756 -1.3595
  477MOL0     H64385  10.156   8.578   9.897  3.0700  0.9014  0.6175
  477MOL0     H64386  10.186   8.409   9.907  0.9520 -2.1289 -1.6539
  477MOL0     H64387  10.143   8.409   9.641 -2.8969 -1.9994 -0.6340
  477MOL0     H64388  10.047   8.558   9.689 -1.5117  0.2738  0.4475
  477MOL0     H64389   9.891   8.367   9.689 -0.8443  3.8450 -0.4779
  477MOL0     H64390  10.000   8.269   9.782 -1.9323 -0.3467  0.5946
  477MOL0     H64391   9.743   8.476  10.050  0.0070  0.5812 -0.8304
  477MOL0     H64392  10.556   8.683   9.865  2.3125 -2.5836  0.5774
  477MOL0     H64393  10.855   8.593   9.844 -3.0477 -0.9492  2.9178
  477MOL0     H64394  10.881   8.763   9.787  0.8311 -1.0734  0.8126
  477MOL0     H64395  10.773   8.733   9.916  2.3502  0.2128  0.9357
  478MOL0     O64396   6.653   9.250   4.516  0.4031  0.0524 -0.4919
  478MOL0     C64397   6.710   9.161   4.578  0.1326  0.0014  0.5539
  478MOL0     O64398   6.647   9.097   4.688  0.0209 -0.5695 -0.3157
  478MOL0     C64399   6.513   9.121   4.730  0.4174 -0.0111  0.0269
  478MOL0     C64400   6.438   9.248   4.714  0.1170  0.9094 -0.6595
  478MOL0     C64401   6.309   9.264   4.761  0.3584  0.5564 -0.2197
  478MOL0     C64402   6.256   9.174   4.850  0.4213 -0.6626 -0.3711
  478MOL0     O64403   6.138   9.201   4.912 -0.3072  0.3985  0.5520
  478MOL0     C64404   6.038   9.099   4.901  0.4814  0.0460 -0.6735
  478MOL0     C64405   5.921   9.173   4.843  0.1945  0.1907 -0.6022
  478MOL0     C64406   5.807   9.086   4.805 -1.1109  0.4771  0.4542
  478MOL0     C64407   5.705   9.182   4.743 -0.1057  0.9019  0.3610
  478MOL0     C64408   5.569   9.117   4.728  0.3465  0.6040  0.2426
  478MOL0     C64409   5.471   9.199   4.649 -0.0275  0.4426 -0.0811
  478MOL0     C64410   5.346   9.110   4.627  0.3361  0.1562  0.7197
  478MOL0     C64411   5.254   9.166   4.527  0.3782  0.9382 -0.2075
  478MOL0     N64412   5.212   9.309   4.547 -0.2424  0.4656  1.1442
  478MOL0     C64413   5.247   9.411   4.462  0.0637  0.2075  0.0369
  478MOL0     C64414   5.215   9.519   4.526  0.0263 -1.1235 -0.1682
  478MOL0     C64415   5.268   9.652   4.483 -0.0666  0.4556  1.3856
  478MOL0     C64416   5.423   9.663   4.494  0.4922  0.5047 -0.3488
  478MOL0     C64417   5.465   9.655   4.641 -0.0801  0.6265 -0.3802
  478MOL0     C64418   5.602   9.710   4.657 -0.9438 -0.1986 -0.5663
  478MOL0     O64419   5.700   9.629   4.593 -0.4286 -0.4343 -0.4816
  478MOL0     C64420   5.831   9.680   4.581 -0.2055 -0.8002 -0.8643
  478MOL0     C64421   5.928   9.609   4.515 -0.5439  1.0798  0.0406
  478MOL0     C64422   6.059   9.644   4.502 -1.2196  0.3785  0.8393
  478MOL0     C64423   6.105   9.764   4.553 -0.1660  0.8684  0.1631
  478MOL0     C64424   6.242   9.815   4.518  0.2143  0.7375  0.5792
  478MOL0     O64425   6.261   9.949   4.535  0.1520 -0.4829 -0.6545
  478MOL0     C64426   6.389   9.997   4.520  0.1155  0.1703 -0.0236
  478MOL0     C64427   6.452  10.022   4.404 -0.0638  0.4662  0.5351
  478MOL0     C64428   6.587  10.065   4.405  0.3868  0.2200 -0.2696
  478MOL0     C64429   6.667  10.078   4.520 -0.6689 -0.0293 -0.1448
  478MOL0     O64430   6.800  10.100   4.527 -0.2370 -0.4176  0.2754
  478MOL0     C64431   6.876  10.071   4.410 -0.4223 -1.0137 -0.0009
  478MOL0     C64432   7.020  10.125   4.424  0.4274  0.1825  0.2632
  478MOL0     C64433   7.108  10.056   4.526 -0.2553  0.2020 -0.2704
  478MOL0     C64434   7.188  10.161   4.588 -0.3967 -0.4904  0.7499
  478MOL0     C64435   7.303  10.094   4.658 -0.3842 -0.2129 -0.0764
  478MOL0     C64436   7.423  10.074   4.564 -0.6672 -0.1268 -0.2571
  478MOL0     C64437   7.521   9.992   4.641  0.9496  0.9717  0.0755
  478MOL0     C64438   7.628   9.929   4.546 -0.2385  0.7643 -0.2049
  478MOL0    Cl64439   7.700  10.062   4.440  0.5121  0.0813 -0.2541
  478MOL0     C64440   6.599  10.041   4.637  0.2687 -0.2826 -0.3119
  478MOL0     C64441   6.463  10.004   4.639 -0.6490 -0.4326 -0.2720
  478MOL0     O64442   6.323   9.734   4.477  0.7415  0.9674  0.6005
  478MOL0     C64443   6.012   9.839   4.624 -0.4826  0.1389  0.8825
  478MOL0     C64444   5.876   9.791   4.640  0.4533 -0.0432  0.3410
  478MOL0     N64445   5.159   9.489   4.648 -0.5779  0.2529  0.9949
  478MOL0     N64446   5.151   9.358   4.661 -0.7140 -0.6571 -0.6782
  478MOL0     C64447   6.331   9.061   4.878 -0.4317  0.4918 -0.4276
  478MOL0     C64448   6.447   9.031   4.815 -0.3747  1.3753 -0.2740
  478MOL0     C64449   6.850   9.138   4.559  0.7480 -0.4699  0.0161
  478MOL0     C64450   6.900   9.164   4.432  0.5945  0.2747  0.5029
  478MOL0     C64451   7.035   9.176   4.407 -0.7795  0.5090  0.0672
  478MOL0     C64452   7.128   9.161   4.508  0.1900  0.7408 -0.7675
  478MOL0     O64453   7.264   9.189   4.491 -0.4500 -0.0233  0.6187
  478MOL0     C64454   7.313   9.154   4.361 -0.0743  0.0600 -0.1908
  478MOL0     C64455   7.463   9.185   4.343 -0.2127  0.0772 -0.5253
  478MOL0     C64456   7.523   9.117   4.229 -0.0487 -0.5992 -0.3674
  478MOL0     C64457   7.674   9.135   4.205  0.6953 -0.2916  0.0920
  478MOL0     C64458   7.761   9.066   4.298  0.5072  0.0472 -0.0435
  478MOL0     C64459   7.835   9.017   4.375 -0.3773 -0.0468 -1.2310
  478MOL0     C64460   7.085   9.106   4.631 -1.1647  0.2386 -0.3677
  478MOL0     C64461   6.943   9.097   4.654  0.3862  0.1820 -0.6270
  478MOL0     C64462   6.898   9.051   4.791 -0.0191 -0.0532  0.8909
  478MOL0     H64463   6.490   9.332   4.670 -0.7404  0.7094 -2.1342
  478MOL0     H64464   6.259   9.358   4.743  1.9840  0.9518 -3.4039
  478MOL0     H64465   6.069   9.020   4.832  0.0465  1.8273 -3.0577
  478MOL0     H64466   6.014   9.049   4.995  4.6194  2.0223  1.6915
  478MOL0     H64467   5.960   9.224   4.754  0.7290  2.6374  0.9248
  478MOL0     H64468   5.890   9.245   4.920  0.2903 -1.7813  1.3757
  478MOL0     H64469   5.763   9.031   4.889 -2.5721 -0.6886 -1.0194
  478MOL0     H64470   5.830   9.009   4.731  1.2813  0.4389  1.1340
  478MOL0     H64471   5.689   9.279   4.792 -0.8207  0.0688  1.8433
  478MOL0     H64472   5.750   9.205   4.646  1.5770  1.5577  1.2382
  478MOL0     H64473   5.577   9.020   4.679  0.3726  1.0350 -0.6157
  478MOL0     H64474   5.534   9.096   4.830  1.5887 -0.5983  0.4544
  478MOL0     H64475   5.445   9.300   4.684  0.7166  0.0382  1.7240
  478MOL0     H64476   5.513   9.214   4.549  1.6581 -2.1013  0.1574
  478MOL0     H64477   5.294   9.101   4.723 -2.2469  2.1815 -0.3699
  478MOL0     H64478   5.387   9.011   4.605  0.5868  0.2887  0.5928
  478MOL0     H64479   5.292   9.147   4.426  0.8202  1.4781 -0.1504
  478MOL0     H64480   5.160   9.113   4.545  1.5640 -0.0816  4.3348
  478MOL0     H64481   5.291   9.402   4.363 -1.8516 -2.3879 -0.6756
  478MOL0     H64482   5.244   9.675   4.379  0.5652 -0.2647  1.0719
  478MOL0     H64483   5.218   9.734   4.536 -0.5326  1.4568 -0.5322
  478MOL0     H64484   5.481   9.596   4.430  1.2637  2.5908 -1.9372
  478MOL0     H64485   5.454   9.763   4.464 -2.7502  1.4167 -1.0628
  478MOL0     H64486   5.471   9.551   4.673 -1.8661  0.4586 -0.5214
  478MOL0     H64487   5.395   9.712   4.703 -0.0956  0.5744 -0.3508
  478MOL0     H64488   5.620   9.740   4.761 -2.3862  2.7093 -1.0547
  478MOL0     H64489   5.600   9.809   4.610 -0.9022 -1.2370 -2.8532
  478MOL0     H64490   5.900   9.517   4.465  0.4909  0.6005  0.3268
  478MOL0     H64491   6.116   9.572   4.445 -0.3988  1.8465 -0.2610
  478MOL0     H64492   6.396  10.026   4.312 -0.4042  1.8882  0.7750
  478MOL0     H64493   6.637  10.086   4.311  0.6543 -0.9738 -0.4112
  478MOL0     H64494   6.867   9.964   4.391  0.1045 -0.7294 -2.0918
  478MOL0     H64495   6.837  10.121   4.320  2.3641  3.4200  0.9416
  478MOL0     H64496   7.066  10.124   4.325  0.8686  1.1430  0.4464
  478MOL0     H64497   7.012  10.230   4.453 -1.5055  0.4033 -0.8981
  478MOL0     H64498   7.050  10.024   4.613  0.8317  1.0076  0.7833
  478MOL0     H64499   7.162   9.967   4.494  0.0288  0.5128 -0.6739
  478MOL0     H64500   7.125  10.208   4.665 -0.7020  1.5992 -0.6666
  478MOL0     H64501   7.224  10.243   4.526  0.4611 -0.7263  0.9334
  478MOL0     H64502   7.262  10.000   4.697 -1.3791  0.7619  1.2933
  478MOL0     H64503   7.330  10.157   4.743 -0.6384  2.5547 -1.9364
  478MOL0     H64504   7.380  10.020   4.479 -1.7822  1.5404 -0.8008
  478MOL0     H64505   7.462  10.170   4.527 -1.8650  2.5464  4.5611
  478MOL0     H64506   7.478   9.908   4.697  1.9037  1.1366  1.0898
  478MOL0     H64507   7.580  10.047   4.716  2.9465 -0.3991 -0.4372
  478MOL0     H64508   7.700   9.876   4.609  2.4086  0.6550 -3.0813
  478MOL0     H64509   7.586   9.848   4.485  1.0727 -1.7025  1.9852
  478MOL0     H64510   6.650  10.043   4.733 -0.7227 -0.5813  0.2368
  478MOL0     H64511   6.424   9.967   4.733 -0.1897 -0.6213 -0.1494
  478MOL0     H64512   6.045   9.919   4.688  0.4287 -1.1893  2.1215
  478MOL0     H64513   5.825   9.853   4.712  3.5623  1.0529  1.7822
  478MOL0     H64514   6.297   9.005   4.964  1.6801 -1.4336 -0.7453
  478MOL0     H64515   6.503   8.944   4.851  2.0600  3.5390  1.6236
  478MOL0     H64516   6.829   9.183   4.351 -1.1697  1.5440  2.2297
  478MOL0     H64517   7.066   9.212   4.309  0.2638  0.8500  0.5056
  478MOL0     H64518   7.265   9.207   4.278  3.0165 -0.7165 -2.6773
  478MOL0     H64519   7.297   9.048   4.338 -0.4444  0.3541 -1.3852
  478MOL0     H64520   7.511   9.148   4.435 -0.0495 -2.5181 -1.5625
  478MOL0     H64521   7.481   9.293   4.336 -0.2523  0.3489  2.2992
  478MOL0     H64522   7.471   9.147   4.137  0.7036 -1.8564 -1.2465
  478MOL0     H64523   7.503   9.011   4.247 -2.5617 -0.2175 -0.5069
  478MOL0     H64524   7.683   9.096   4.104 -0.2966 -0.8321  0.1952
  478MOL0     H64525   7.704   9.240   4.196 -0.3203  0.0741  0.7737
  478MOL0     H64526   7.913   8.969   4.430 -1.3067  3.7182  4.2220
  478MOL0     H64527   7.160   9.064   4.698 -3.8964 -0.9884  2.1787
  478MOL0     H64528   6.987   9.048   4.855 -0.7009 -1.3468  1.8265
  478MOL0     H64529   6.823   9.114   4.838  1.4087  1.4962  1.1724
  478MOL0     H64530   6.868   8.946   4.782  0.6319 -0.2634  1.0653
  479MOL0     O64531   3.642   7.524   2.181 -0.6005 -0.0435 -0.3393
  479MOL0     C64532   3.591   7.607   2.105  0.0776 -1.0569 -0.2766
  479MOL0     O64533   3.647   7.662   1.993 -0.0294 -0.0593  0.1490
  479MOL0     C64534   3.775   7.629   1.945  0.0738 -0.3817  0.7630
  479MOL0     C64535   3.794   7.691   1.819 -0.2577  0.2352  0.1081
  479MOL0     C64536   3.915   7.682   1.750 -0.3706 -0.2205 -0.6918
  479MOL0     C64537   4.022   7.605   1.808 -0.1285 -0.2938  0.1016
  479MOL0     O64538   4.139   7.581   1.743  0.5594  0.5302  0.4042
  479MOL0     C64539   4.260   7.628   1.796 -0.5090  0.2891 -0.0582
  479MOL0     C64540   4.338   7.712   1.692  0.1075  0.1462 -0.9657
  479MOL0     C64541   4.479   7.756   1.721 -1.1143 -0.1238 -0.3380
  479MOL0     C64542   4.584   7.647   1.739 -0.6691 -0.1959 -0.0977
  479MOL0     C64543   4.729   7.685   1.742 -0.6162  0.1917 -0.0524
  479MOL0     C64544   4.801   7.675   1.605 -0.9290  0.2903 -0.1272
  479MOL0     C64545   4.737   7.727   1.479  0.6431  0.9850  1.3648
  479MOL0     C64546   4.812   7.709   1.337 -0.2752  0.2597  0.1880
  479MOL0     N64547   4.960   7.689   1.340 -0.1574 -1.2994 -1.2153
  479MOL0     C64548   5.053   7.797   1.348 -0.0481 -0.0508  0.5040
  479MOL0     C64549   5.168   7.732   1.311  0.1289  0.1578 -0.5224
  479MOL0     C64550   5.304   7.792   1.295  0.0266 -0.1873 -0.5733
  479MOL0     C64551   5.331   7.832   1.148 -0.4458  0.0947 -0.2876
  479MOL0     C64552   5.460   7.913   1.138  0.1832  0.6099 -0.6080
  479MOL0     C64553   5.594   7.849   1.205  0.2031 -1.0711  0.2526
  479MOL0     O64554   5.589   7.852   1.353 -0.0126 -0.0045  0.6153
  479MOL0     C64555   5.717   7.835   1.415  0.1449  0.2975 -0.7157
  479MOL0     C64556   5.838   7.819   1.351  0.4588 -0.6655  0.3506
  479MOL0     C64557   5.961   7.808   1.417 -0.5009 -0.6046 -0.5796
  479MOL0     C64558   5.956   7.819   1.559 -0.3128  0.5208 -0.4710
  479MOL0     C64559   6.091   7.802   1.618  0.2706 -1.0410  0.2680
  479MOL0     O64560   6.200   7.799   1.537 -0.0717 -0.7576 -0.1348
  479MOL0     C64561   6.326   7.778   1.590 -0.0103 -0.1347 -0.0985
  479MOL0     C64562   6.381   7.878   1.685  0.9215  1.4295  0.2652
  479MOL0     C64563   6.512   7.866   1.733  0.0783 -0.0107  0.6099
  479MOL0     C64564   6.592   7.751   1.696 -0.4021 -0.2498 -0.7804
  479MOL0     O64565   6.714   7.740   1.744 -1.0679 -0.3537 -0.2461
  479MOL0     C64566   6.707   7.701   1.881  0.3039 -0.3293 -0.4862
  479MOL0     C64567   6.684   7.545   1.894  1.1325  0.0651 -0.4252
  479MOL0     C64568   6.812   7.465   1.897  0.0381 -0.6674  0.0667
  479MOL0     C64569   6.786   7.319   1.914  0.1701  0.0132 -0.2809
  479MOL0     C64570   6.913   7.229   1.907  1.0521 -0.3543 -0.5448
  479MOL0     C64571   7.012   7.236   2.032 -0.1447 -0.0545  0.7472
  479MOL0     C64572   6.931   7.227   2.172  0.3588 -0.9206 -0.2755
  479MOL0     C64573   6.847   7.106   2.213  0.4836  0.3085  0.8100
  479MOL0    Cl64574   6.778   7.131   2.374 -0.2257  0.1815 -0.4189
  479MOL0     C64575   6.538   7.657   1.598  0.3321 -1.4772  0.4986
  479MOL0     C64576   6.404   7.675   1.546 -0.9615  0.0102  0.3160
  479MOL0     O64577   6.089   7.794   1.738 -0.7849 -0.3055  0.0418
  479MOL0     C64578   5.840   7.833   1.629  0.0897  0.1003 -0.4881
  479MOL0     C64579   5.722   7.846   1.555 -0.2790 -0.0235 -0.3935
  479MOL0     N64580   5.146   7.597   1.281 -0.2866 -0.5251  0.0036
  479MOL0     N64581   5.020   7.574   1.313  1.2148  0.4193  0.2973
  479MOL0     C64582   3.995   7.537   1.935 -0.9106  0.2642  0.7694
  479MOL0     C64583   3.878   7.552   2.001 -0.2032 -0.5986 -0.2146
  479MOL0     C64584   3.455   7.657   2.139 -0.3856 -0.2939 -1.1555
  479MOL0     C64585   3.427   7.792   2.097 -0.2110  0.4361 -0.3872
  479MOL0     C64586   3.310   7.859   2.130  0.3958  0.6395  0.0558
  479MOL0     C64587   3.222   7.795   2.218  0.3710  0.7781 -0.6806
  479MOL0     O64588   3.120   7.868   2.272  0.2926 -0.4063  0.1309
  479MOL0     C64589   3.048   7.822   2.392 -0.1003  0.1735 -0.0745
  479MOL0     C64590   2.930   7.926   2.425 -0.7309  0.1535 -0.0276
  479MOL0     C64591   2.987   8.066   2.455  0.0477  0.0307  0.6158
  479MOL0     C64592   2.879   8.172   2.482 -0.6048 -0.5008  0.0152
  479MOL0     C64593   2.862   8.193   2.630 -0.4932 -0.2566  0.5153
  479MOL0     C64594   2.861   8.205   2.751  0.2559  0.6133  0.0353
  479MOL0     C64595   3.249   7.658   2.253  0.5978 -0.9113 -0.4731
  479MOL0     C64596   3.362   7.588   2.222  0.8926  0.0025  0.4036
  479MOL0     C64597   3.371   7.440   2.253 -0.2413 -0.2319 -0.3984
  479MOL0     H64598   3.718   7.757   1.778  2.1139  1.8200 -2.0534
  479MOL0     H64599   3.933   7.737   1.659  1.4035  0.0118 -0.2301
  479MOL0     H64600   4.252   7.685   1.889 -0.8385 -2.3145  1.5973
  479MOL0     H64601   4.323   7.539   1.805 -0.2337  0.5483  0.6348
  479MOL0     H64602   4.287   7.807   1.673  0.5119  0.8565  1.1778
  479MOL0     H64603   4.339   7.659   1.597  0.0986 -2.0301  0.1771
  479MOL0     H64604   4.483   7.822   1.808  0.0956 -0.3120 -0.2322
  479MOL0     H64605   4.506   7.814   1.633  0.6974 -0.1949  0.1165
  479MOL0     H64606   4.552   7.587   1.825 -1.0802  1.0798  0.6711
  479MOL0     H64607   4.582   7.585   1.648 -1.5948 -1.2869  0.6314
  479MOL0     H64608   4.727   7.787   1.784 -0.8247 -0.2648  1.0847
  479MOL0     H64609   4.775   7.623   1.819 -0.0853  1.7252  0.9335
  479MOL0     H64610   4.900   7.719   1.619  0.0127 -2.4409  3.3165
  479MOL0     H64611   4.832   7.570   1.593  0.4811  0.5941  0.6637
  479MOL0     H64612   4.706   7.830   1.499 -1.5455  0.0486  3.3033
  479MOL0     H64613   4.638   7.683   1.462  0.8171  0.3074  2.0410
  479MOL0     H64614   4.774   7.614   1.298  0.4600 -0.1283  0.3904
  479MOL0     H64615   4.775   7.789   1.273 -1.0416  0.1808  0.5220
  479MOL0     H64616   5.041   7.901   1.374  2.3687  0.3963  0.0421
  479MOL0     H64617   5.303   7.880   1.359 -1.0062 -0.9683  0.5296
  479MOL0     H64618   5.374   7.723   1.343  1.5348  2.2201  0.8823
  479MOL0     H64619   5.334   7.749   1.076 -0.0001  0.3854 -0.6107
  479MOL0     H64620   5.254   7.903   1.117 -0.4772 -0.7884 -2.3792
  479MOL0     H64621   5.448   8.007   1.193 -0.1999  0.7050 -0.8456
  479MOL0     H64622   5.471   7.919   1.029 -0.0921 -3.5002 -1.0275
  479MOL0     H64623   5.676   7.914   1.170  1.7292 -2.6804  0.6969
  479MOL0     H64624   5.612   7.747   1.169 -1.1550 -1.5450  0.8519
  479MOL0     H64625   5.831   7.820   1.243  1.0921  1.3725  0.2827
  479MOL0     H64626   6.054   7.785   1.367  0.0181 -1.9581  0.8963
  479MOL0     H64627   6.313   7.953   1.724  0.0948 -0.2442  2.2573
  479MOL0     H64628   6.539   7.945   1.802 -2.7035 -0.2658  2.1537
  479MOL0     H64629   6.798   7.721   1.937  0.4472 -1.5681 -0.2448
  479MOL0     H64630   6.620   7.741   1.934 -0.0416  0.0043 -1.2754
  479MOL0     H64631   6.637   7.534   1.992 -0.2730  2.1252 -0.8124
  479MOL0     H64632   6.621   7.506   1.813  5.3764 -2.3569 -2.9326
  479MOL0     H64633   6.864   7.487   1.804  1.3586  0.2773  1.0006
  479MOL0     H64634   6.888   7.496   1.968  1.4489  0.3542 -1.7929
  479MOL0     H64635   6.714   7.288   1.838  0.4516 -0.1375 -0.4861
  479MOL0     H64636   6.742   7.296   2.011 -0.0895  0.8688 -0.1870
  479MOL0     H64637   6.949   7.229   1.804 -1.9933  0.4956 -1.7142
  479MOL0     H64638   6.885   7.124   1.919  0.0137 -0.2315 -1.6819
  479MOL0     H64639   7.094   7.164   2.027  1.4943  1.7819 -0.0591
  479MOL0     H64640   7.068   7.330   2.031  2.6529 -1.6121 -0.0037
  479MOL0     H64641   6.874   7.320   2.181  1.3240 -0.3618  0.2222
  479MOL0     H64642   7.005   7.234   2.252 -1.0638  1.1543  0.9598
  479MOL0     H64643   6.780   7.086   2.129  1.9023  0.9316 -0.5097
  479MOL0     H64644   6.908   7.018   2.236 -2.8862 -2.0303  1.5341
  479MOL0     H64645   6.601   7.579   1.556 -1.5940 -2.3475 -0.9331
  479MOL0     H64646   6.366   7.608   1.469  1.8161  1.2697 -2.3829
  479MOL0     H64647   5.829   7.822   1.737 -1.0985 -7.3347 -0.8221
  479MOL0     H64648   5.632   7.864   1.613  1.6231  1.8219  2.2584
  479MOL0     H64649   4.078   7.490   1.986 -2.5073 -2.7421  0.7742
  479MOL0     H64650   3.864   7.504   2.097  0.1507 -1.1401 -0.4272
  479MOL0     H64651   3.508   7.845   2.048  2.1139 -1.3248  1.3164
  479MOL0     H64652   3.299   7.964   2.104 -2.9497  0.7814  1.5450
  479MOL0     H64653   3.119   7.815   2.475  0.2119 -1.1637 -0.4251
  479MOL0     H64654   2.997   7.725   2.385  2.0967 -0.9714 -1.6592
  479MOL0     H64655   2.879   7.902   2.518  2.0506 -1.0184  1.3168
  479MOL0     H64656   2.856   7.931   2.344  0.4138 -1.9943 -1.3038
  479MOL0     H64657   3.041   8.089   2.362 -0.9855  0.4423  0.1118
  479MOL0     H64658   3.056   8.068   2.540 -0.7590 -0.1672  1.2858
  479MOL0     H64659   2.907   8.264   2.429 -1.9069  0.4828  0.9743
  479MOL0     H64660   2.783   8.134   2.447 -0.4269  0.1436 -1.2535
  479MOL0     H64661   2.859   8.214   2.857 -0.0604 -2.6215  0.4125
  479MOL0     H64662   3.180   7.601   2.315  0.5995 -2.7842 -2.1228
  479MOL0     H64663   3.465   7.404   2.296 -0.8838 -2.3288 -0.6326
  479MOL0     H64664   3.287   7.387   2.299  0.4428 -1.6372 -0.6990
  479MOL0     H64665   3.381   7.389   2.157 -1.8815  1.7830 -1.7274
  480MOL0     O64666   1.928   5.319   2.340 -0.2032 -0.0066  0.1846
  480MOL0     C64667   1.873   5.385   2.254 -0.3499  0.1808 -0.0809
  480MOL0     O64668   1.879   5.520   2.231  0.3441 -0.8765  0.0886
  480MOL0     C64669   1.994   5.595   2.261 -1.3008 -0.2657  0.1953
  480MOL0     C64670   1.978   5.733   2.248  0.1944  0.5732  0.9977
  480MOL0     C64671   2.078   5.824   2.291 -0.0111  0.0848  0.2428
  480MOL0     C64672   2.205   5.777   2.338  0.1514  0.5587  0.0557
  480MOL0     O64673   2.303   5.870   2.376  0.1273 -0.4475  0.0232
  480MOL0     C64674   2.277   5.925   2.502  0.0749  0.2681 -0.2770
  480MOL0     C64675   2.400   6.007   2.555 -0.1638  0.4685 -0.1484
  480MOL0     C64676   2.523   6.023   2.458 -0.0866 -0.7048  0.1040
  480MOL0     C64677   2.619   6.136   2.503 -0.0278  0.5046  0.1519
  480MOL0     C64678   2.744   6.143   2.404  0.1228  0.3717 -0.4519
  480MOL0     C64679   2.843   6.242   2.456  0.0323 -0.9677  0.1470
  480MOL0     C64680   2.929   6.193   2.574 -0.2391  0.3348  0.5688
  480MOL0     C64681   3.071   6.241   2.556 -0.2632 -0.5626  0.5198
  480MOL0     N64682   3.148   6.255   2.682 -0.0916  0.5206 -0.2375
  480MOL0     C64683   3.255   6.175   2.713  1.1289 -0.8227  0.2046
  480MOL0     C64684   3.288   6.212   2.836 -0.1207  0.5886 -0.3252
  480MOL0     C64685   3.399   6.141   2.913 -0.0346  0.0357  0.2548
  480MOL0     C64686   3.537   6.172   2.853 -0.3812  0.4469 -0.8551
  480MOL0     C64687   3.572   6.089   2.730  0.8514  0.4357  0.4449
  480MOL0     C64688   3.723   6.075   2.702  0.1457  0.3674  0.9041
  480MOL0     O64689   3.803   6.188   2.717  0.3590 -0.1898  0.1205
  480MOL0     C64690   3.897   6.213   2.617 -0.2027 -1.2906  0.2416
  480MOL0     C64691   3.962   6.116   2.540 -0.1557  0.2771  0.4326
  480MOL0     C64692   4.052   6.159   2.442 -0.3694  1.4773 -0.0372
  480MOL0     C64693   4.080   6.295   2.418 -0.2268  0.3159 -0.2034
  480MOL0     C64694   4.185   6.329   2.327  0.1035  0.3100  0.1231
  480MOL0     O64695   4.231   6.226   2.257 -0.7315  0.0600  0.2762
  480MOL0     C64696   4.341   6.245   2.174  0.4399 -0.7381 -0.6892
  480MOL0     C64697   4.325   6.244   2.036 -0.5005  0.6949  1.1745
  480MOL0     C64698   4.433   6.258   1.952  0.2232  0.2763 -0.0199
  480MOL0     C64699   4.562   6.269   2.001 -0.5437  0.7534  0.9128
  480MOL0     O64700   4.665   6.265   1.910 -0.1215  0.3649  0.2774
  480MOL0     C64701   4.753   6.144   1.930  0.3259 -0.3736 -0.1923
  480MOL0     C64702   4.840   6.123   1.814 -0.6297  0.3151  0.7486
  480MOL0     C64703   4.932   6.003   1.816 -0.5409 -0.0470  0.1565
  480MOL0     C64704   4.988   5.972   1.681  0.0713 -0.2051 -0.2146
  480MOL0     C64705   5.076   5.851   1.702 -0.6304 -0.1425  0.6678
  480MOL0     C64706   5.158   5.816   1.574  0.8632 -0.4510 -0.2950
  480MOL0     C64707   5.224   5.679   1.592 -0.3236  0.2850 -0.1195
  480MOL0     C64708   5.282   5.613   1.472  0.0847 -0.0156  0.2929
  480MOL0    Cl64709   5.135   5.564   1.362  0.2429 -0.1592  0.1031
  480MOL0     C64710   4.579   6.269   2.142 -0.5500 -0.5855 -0.4910
  480MOL0     C64711   4.468   6.260   2.229  0.0799 -0.1754  0.3949
  480MOL0     O64712   4.206   6.448   2.305 -0.0772  0.0435 -0.4678
  480MOL0     C64713   4.021   6.389   2.503  0.5053 -0.9633  0.7875
  480MOL0     C64714   3.927   6.348   2.599  0.2052 -0.7884 -1.0847
  480MOL0     N64715   3.203   6.303   2.886 -0.6336 -0.4093  0.1794
  480MOL0     N64716   3.120   6.335   2.791  0.1976  0.2838 -0.1870
  480MOL0     C64717   2.227   5.638   2.342  0.7198  0.7907 -0.0403
  480MOL0     C64718   2.123   5.547   2.310  0.8826 -0.2325  0.2320
  480MOL0     C64719   1.772   5.323   2.168 -0.6336 -0.7293  0.1573
  480MOL0     C64720   1.650   5.386   2.153 -0.2350 -0.4439 -0.3693
  480MOL0     C64721   1.551   5.334   2.069 -0.4679 -0.3946 -0.4223
  480MOL0     C64722   1.576   5.217   2.003 -0.6981 -1.2232 -0.2963
  480MOL0     O64723   1.482   5.180   1.916 -0.0993  0.7485  0.3311
  480MOL0     C64724   1.351   5.132   1.958 -0.4875  0.7380 -0.9648
  480MOL0     C64725   1.303   5.014   1.859 -0.1841 -0.3057  0.2828
  480MOL0     C64726   1.298   5.045   1.713  0.3548  0.1692  0.9123
  480MOL0     C64727   1.273   4.921   1.633  0.4774  0.2053 -0.2918
  480MOL0     C64728   1.127   4.882   1.645 -1.0881 -0.4088  0.4051
  480MOL0     C64729   1.021   4.840   1.641  0.4587 -0.4541 -0.1372
  480MOL0     C64730   1.707   5.173   1.994  0.5893  0.1419  0.5691
  480MOL0     C64731   1.803   5.217   2.081 -0.2937 -0.1840 -1.5786
  480MOL0     C64732   1.947   5.154   2.076 -0.6530  0.1292  0.3476
  480MOL0     H64733   1.878   5.764   2.218  0.5242 -0.4378 -1.2851
  480MOL0     H64734   2.071   5.932   2.284  1.1360  0.1802  0.3901
  480MOL0     H64735   2.195   5.997   2.505 -1.2547 -1.2311  1.3458
  480MOL0     H64736   2.254   5.840   2.567  0.9332 -0.4083 -0.8410
  480MOL0     H64737   2.425   5.979   2.657 -2.1546 -0.1135  0.2264
  480MOL0     H64738   2.347   6.101   2.571 -1.5156  0.2768 -2.7606
  480MOL0     H64739   2.492   6.043   2.355 -0.9290 -3.7758 -0.3337
  480MOL0     H64740   2.580   5.930   2.453 -1.7484 -1.9655  2.6258
  480MOL0     H64741   2.564   6.230   2.497 -3.6084 -1.3238  1.2873
  480MOL0     H64742   2.644   6.127   2.609 -1.4161 -0.0199  0.4616
  480MOL0     H64743   2.792   6.046   2.387 -2.4725 -0.8294 -1.4813
  480MOL0     H64744   2.699   6.184   2.313 -0.7615  3.1844  1.1320
  480MOL0     H64745   2.910   6.280   2.378 -0.3424  3.5284  1.6961
  480MOL0     H64746   2.785   6.330   2.486  1.3322 -0.5570  1.5742
  480MOL0     H64747   2.932   6.086   2.599  1.6239  0.0549 -0.6666
  480MOL0     H64748   2.870   6.232   2.657 -4.5701 -3.7515 -0.1678
  480MOL0     H64749   3.127   6.166   2.500  2.2882 -0.7930  3.0977
  480MOL0     H64750   3.076   6.340   2.510  0.3750 -0.9260 -0.2224
  480MOL0     H64751   3.306   6.106   2.646  1.3799 -1.3225  0.9000
  480MOL0     H64752   3.395   6.180   3.016 -1.8920 -1.3184  0.7568
  480MOL0     H64753   3.391   6.034   2.934 -1.6693 -0.3327 -1.9316
  480MOL0     H64754   3.546   6.278   2.825 -0.0013  1.0778  1.4423
  480MOL0     H64755   3.613   6.141   2.925  2.1739  0.4805 -3.3744
  480MOL0     H64756   3.528   6.130   2.639 -0.9021 -0.2917  0.9168
  480MOL0     H64757   3.528   5.990   2.747 -3.2708  2.4074  2.9873
  480MOL0     H64758   3.725   6.055   2.595 -1.9034  0.5688  0.7890
  480MOL0     H64759   3.773   5.988   2.746  0.6227 -0.3848 -1.0202
  480MOL0     H64760   3.959   6.012   2.571  1.8124  0.2785  0.7859
  480MOL0     H64761   4.111   6.095   2.378  0.5951  1.8137  0.4950
  480MOL0     H64762   4.229   6.239   1.986  0.2059  0.5253 -0.2076
  480MOL0     H64763   4.424   6.236   1.846 -0.8369 -2.9988  0.6123
  480MOL0     H64764   4.808   6.167   2.021 -1.1116  1.7888  0.2025
  480MOL0     H64765   4.691   6.058   1.959  1.3586 -0.9235  0.4471
  480MOL0     H64766   4.779   6.109   1.724  0.4180 -0.1579  0.0891
  480MOL0     H64767   4.895   6.218   1.803 -0.7704  0.0983 -4.1964
  480MOL0     H64768   5.011   6.029   1.887 -1.0263  2.0321 -0.0144
  480MOL0     H64769   4.880   5.913   1.850 -1.2176  0.4824  0.5334
  480MOL0     H64770   5.053   6.053   1.646  0.5873 -1.0877 -1.3488
  480MOL0     H64771   4.903   5.955   1.615  1.1179  0.3252 -1.7518
  480MOL0     H64772   5.009   5.768   1.727 -1.9124  1.3009  2.3367
  480MOL0     H64773   5.147   5.864   1.785 -0.0767 -1.8318  0.5196
  480MOL0     H64774   5.092   5.826   1.487  0.8242  1.5018 -0.0940
  480MOL0     H64775   5.242   5.884   1.558  1.3693 -1.1033 -0.4623
  480MOL0     H64776   5.154   5.605   1.632  1.6160 -1.2781  0.5918
  480MOL0     H64777   5.307   5.688   1.663  1.5244 -1.4199 -1.9110
  480MOL0     H64778   5.335   5.697   1.426 -3.4482  2.0565 -0.4097
  480MOL0     H64779   5.349   5.528   1.486 -1.8831 -1.8564 -0.8451
  480MOL0     H64780   4.679   6.277   2.184 -0.5239 -0.8642 -0.4938
  480MOL0     H64781   4.486   6.267   2.336 -0.8877 -0.4514  0.5912
  480MOL0     H64782   4.059   6.491   2.507  0.4878 -0.9317  0.2469
  480MOL0     H64783   3.881   6.419   2.667 -0.4718 -2.4024  0.2235
  480MOL0     H64784   2.318   5.594   2.382  0.0332 -0.4073  0.2718
  480MOL0     H64785   2.131   5.439   2.312 -2.9742 -0.7076 -1.3230
  480MOL0     H64786   1.628   5.468   2.220 -0.2276 -2.0175  1.6958
  480MOL0     H64787   1.458   5.389   2.063  0.6577  2.5911  4.1955
  480MOL0     H64788   1.276   5.211   1.942 -1.5955  0.1141  0.8503
  480MOL0     H64789   1.346   5.100   2.063 -2.5072  5.2960  0.6060
  480MOL0     H64790   1.200   4.989   1.886 -1.1119  1.4616 -1.4265
  480MOL0     H64791   1.377   4.940   1.890  0.1490  0.6368  1.9068
  480MOL0     H64792   1.389   5.091   1.672  2.3237 -0.6087  4.0816
  480MOL0     H64793   1.211   5.109   1.694 -1.9475 -3.4246 -1.8247
  480MOL0     H64794   1.302   4.951   1.532  2.2923  1.6570  0.5842
  480MOL0     H64795   1.345   4.843   1.659  0.8523  0.5656 -0.2340
  480MOL0     H64796   0.924   4.799   1.622 -0.0357  0.5966  0.0096
  480MOL0     H64797   1.745   5.095   1.929  0.9340 -1.0981  2.1751
  480MOL0     H64798   2.020   5.236   2.071  1.5365 -1.7780 -0.8699
  480MOL0     H64799   1.969   5.094   2.164 -0.7739  1.6889  1.4954
  480MOL0     H64800   1.964   5.100   1.983 -2.0578 -1.4685  0.9792
  481MOL0     O64801   5.548   3.773   9.716  0.4189 -0.2046 -0.0898
  481MOL0     C64802   5.500   3.774   9.601  0.5891  0.0980  0.3105
  481MOL0     O64803   5.538   3.694   9.496 -0.3944  0.7598 -0.4665
  481MOL0     C64804   5.641   3.607   9.510  0.4130  0.1372  0.4430
  481MOL0     C64805   5.609   3.477   9.538  1.1760 -1.4366  0.1628
  481MOL0     C64806   5.712   3.383   9.535 -0.0317 -1.1875 -0.2951
  481MOL0     C64807   5.840   3.411   9.491  0.2427 -0.1115 -0.0691
  481MOL0     O64808   5.925   3.308   9.503 -0.0436 -0.4070 -1.6139
  481MOL0     C64809   6.051   3.324   9.430  0.0071  1.2615 -0.1846
  481MOL0     C64810   6.136   3.195   9.445  0.0076 -0.4015 -1.3187
  481MOL0     C64811   6.206   3.180   9.585 -0.6589 -0.5785 -0.2808
  481MOL0     C64812   6.290   3.306   9.638 -0.0850 -0.2121 -0.2392
  481MOL0     C64813   6.339   3.277   9.783  0.0045 -0.3474  0.6428
  481MOL0     C64814   6.449   3.375   9.831  0.2454  0.2277  0.0448
  481MOL0     C64815   6.406   3.520   9.814  0.1553 -0.1529  0.2117
  481MOL0     C64816   6.497   3.615   9.902  0.2983  0.0514 -0.1633
  481MOL0     N64817   6.631   3.660   9.858  0.3330  1.4530  0.3767
  481MOL0     C64818   6.642   3.747   9.760 -0.5499 -0.5041 -0.3059
  481MOL0     C64819   6.777   3.754   9.739 -0.0566 -0.7904 -0.5441
  481MOL0     C64820   6.845   3.825   9.628  0.5869 -0.8085 -0.5676
  481MOL0     C64821   6.898   3.730   9.524 -0.4548  0.3012  0.4071
  481MOL0     C64822   6.817   3.721   9.397  0.0369 -0.3770 -0.0191
  481MOL0     C64823   6.890   3.652   9.285  0.4823 -0.3279  0.0784
  481MOL0     O64824   6.991   3.726   9.223 -0.0186  0.1382 -1.0058
  481MOL0     C64825   7.090   3.665   9.150  0.1203  0.5299 -0.3762
  481MOL0     C64826   7.175   3.758   9.105 -1.0836 -0.2932  0.3012
  481MOL0     C64827   7.288   3.720   9.029  0.1112  0.8747 -1.3341
  481MOL0     C64828   7.306   3.589   9.005 -0.4090 -0.1386 -0.1359
  481MOL0     C64829   7.429   3.553   8.932  0.1843 -0.2321  0.6076
  481MOL0     O64830   7.488   3.656   8.852  1.4052  1.0580  0.2234
  481MOL0     C64831   7.596   3.625   8.774 -1.0956  0.0534 -0.1643
  481MOL0     C64832   7.729   3.614   8.829  0.2234 -0.7406 -0.3397
  481MOL0     C64833   7.828   3.562   8.755 -0.1454  0.4817  0.4075
  481MOL0     C64834   7.812   3.519   8.627 -0.0248 -0.3395  0.8496
  481MOL0     O64835   7.915   3.466   8.554  0.7392  0.2872  0.2593
  481MOL0     C64836   7.931   3.508   8.419  0.2953 -0.0568  0.5094
  481MOL0     C64837   7.992   3.644   8.415  0.6663  0.3405 -0.0832
  481MOL0     C64838   8.124   3.660   8.477  0.6298  0.1819  0.0258
  481MOL0     C64839   8.172   3.805   8.470 -0.4710 -0.9215 -0.2600
  481MOL0     C64840   8.296   3.839   8.555  0.7531  0.4198 -0.1996
  481MOL0     C64841   8.430   3.766   8.520  0.5686  0.3783  0.5786
  481MOL0     C64842   8.558   3.846   8.568  0.2831  0.6775  0.2274
  481MOL0     C64843   8.666   3.825   8.466  0.4560 -0.6485 -0.6779
  481MOL0    Cl64844   8.619   3.905   8.323  0.5150  0.0724 -0.1349
  481MOL0     C64845   7.685   3.537   8.570 -0.1462 -0.1346  0.7950
  481MOL0     C64846   7.580   3.598   8.643 -0.3578 -0.5789 -0.6026
  481MOL0     O64847   7.464   3.436   8.927 -0.7516 -0.2970 -0.2398
  481MOL0     C64848   7.213   3.494   9.050  0.1189  0.8652  0.2185
  481MOL0     C64849   7.098   3.528   9.124  0.5818 -0.3995  0.8368
  481MOL0     N64850   6.843   3.659   9.820 -0.1295  0.1029  0.3490
  481MOL0     N64851   6.755   3.610   9.903 -0.2873  0.7013  0.7376
  481MOL0     C64852   5.869   3.546   9.454  0.4121  0.6843  0.1802
  481MOL0     C64853   5.768   3.647   9.470 -0.0634  0.4403 -0.9506
  481MOL0     C64854   5.398   3.873   9.566  0.4481 -0.9003 -1.0755
  481MOL0     C64855   5.323   3.865   9.447  0.1372  0.3413 -0.3478
  481MOL0     C64856   5.227   3.954   9.409  0.1031  1.2111  0.2456
  481MOL0     C64857   5.192   4.066   9.485 -0.3468 -0.3219 -0.0234
  481MOL0     O64858   5.111   4.158   9.426  0.1000 -0.8370  0.4982
  481MOL0     C64859   5.051   4.263   9.505 -0.2635  0.4664 -0.7396
  481MOL0     C64860   4.928   4.212   9.580 -0.7914 -0.1309  0.1591
  481MOL0     C64861   4.870   4.328   9.665 -0.0057  0.0613  0.2654
  481MOL0     C64862   4.763   4.290   9.761  0.2121 -0.4935 -0.6719
  481MOL0     C64863   4.744   4.399   9.856 -0.1707  0.0923  1.0083
  481MOL0     C64864   4.740   4.496   9.931 -0.9443  0.3025  0.7717
  481MOL0     C64865   5.257   4.075   9.615  0.0676 -1.0120  0.6580
  481MOL0     C64866   5.355   3.984   9.651 -0.4878 -0.2929  0.0140
  481MOL0     C64867   5.415   4.004   9.788 -0.0596 -0.6676 -0.5823
  481MOL0     H64868   5.509   3.436   9.543 -0.3136  1.2540 -3.3876
  481MOL0     H64869   5.688   3.280   9.563 -2.1274 -0.4781  0.7752
  481MOL0     H64870   6.037   3.345   9.324  0.0625 -2.5937 -1.1081
  481MOL0     H64871   6.115   3.397   9.480  3.2459 -1.3529 -0.1386
  481MOL0     H64872   6.217   3.201   9.371  0.8513 -1.8279 -0.5681
  481MOL0     H64873   6.086   3.101   9.422 -0.4138  0.3370 -3.5952
  481MOL0     H64874   6.285   3.104   9.578  1.6352  0.9562  4.5635
  481MOL0     H64875   6.136   3.139   9.658 -1.4118 -2.7269 -2.0856
  481MOL0     H64876   6.372   3.322   9.567  0.1600 -0.6116 -0.0475
  481MOL0     H64877   6.238   3.402   9.629 -0.2066 -0.2024  0.4966
  481MOL0     H64878   6.248   3.296   9.841 -1.0908 -1.2207 -0.7290
  481MOL0     H64879   6.373   3.175   9.802 -0.5149 -0.5753  0.3805
  481MOL0     H64880   6.481   3.347   9.932  0.6414 -0.0603 -0.1552
  481MOL0     H64881   6.536   3.374   9.765  1.5583  0.3437  1.6910
  481MOL0     H64882   6.301   3.536   9.840  0.0287 -0.8151  0.1244
  481MOL0     H64883   6.404   3.543   9.707 -0.7885  1.3462  0.5246
  481MOL0     H64884   6.438   3.706   9.916 -0.6826 -0.5091 -0.5528
  481MOL0     H64885   6.515   3.565   9.997 -0.0427  0.0248 -0.1100
  481MOL0     H64886   6.566   3.805   9.709 -0.8813 -0.3228  0.3850
  481MOL0     H64887   6.772   3.892   9.583  0.9398  1.0950  1.5172
  481MOL0     H64888   6.921   3.885   9.678 -2.4838  0.8409  2.5718
  481MOL0     H64889   6.999   3.765   9.503 -0.4589 -0.6029 -1.2936
  481MOL0     H64890   6.916   3.630   9.564  1.3328  0.7501  0.8100
  481MOL0     H64891   6.786   3.819   9.358 -1.3659  0.2042  2.3571
  481MOL0     H64892   6.721   3.675   9.422  0.1071 -0.2611  0.4824
  481MOL0     H64893   6.815   3.651   9.205 -2.8825  2.1844  2.8484
  481MOL0     H64894   6.930   3.556   9.320  1.4753  0.1755  0.3488
  481MOL0     H64895   7.169   3.863   9.131 -2.3419  0.2225 -1.7900
  481MOL0     H64896   7.358   3.794   8.992  0.3063  0.8126 -1.0887
  481MOL0     H64897   7.756   3.649   8.928  3.9167 -1.1959 -1.0623
  481MOL0     H64898   7.927   3.541   8.794  0.1808  0.7822 -0.2518
  481MOL0     H64899   7.997   3.428   8.384  0.4600 -1.7200  4.1257
  481MOL0     H64900   7.834   3.495   8.370  1.3921 -1.2130 -1.4638
  481MOL0     H64901   7.992   3.686   8.314 -3.6125 -0.9466 -0.8178
  481MOL0     H64902   7.932   3.721   8.465 -0.6245  0.9984 -2.5014
  481MOL0     H64903   8.122   3.628   8.582  1.2415  1.1059  0.3291
  481MOL0     H64904   8.195   3.596   8.425 -0.3903 -0.2785 -0.8481
  481MOL0     H64905   8.090   3.874   8.492 -2.1297 -3.0387  0.5486
  481MOL0     H64906   8.200   3.830   8.367  0.8203  1.5228  0.5936
  481MOL0     H64907   8.276   3.821   8.661 -1.4618  3.3001 -0.0135
  481MOL0     H64908   8.318   3.946   8.551  1.8893  0.2309  0.4663
  481MOL0     H64909   8.427   3.671   8.575  0.6487  0.9243  1.5474
  481MOL0     H64910   8.438   3.740   8.414  2.0893  1.2838  0.4435
  481MOL0     H64911   8.594   3.821   8.668 -0.4775 -0.4583  0.2401
  481MOL0     H64912   8.542   3.953   8.581  2.7756  1.2162 -0.6208
  481MOL0     H64913   8.759   3.876   8.493 -0.4236  1.1719 -0.9414
  481MOL0     H64914   8.691   3.719   8.449 -1.3003 -1.7700  2.8309
  481MOL0     H64915   7.652   3.495   8.475  0.2647  0.3526  0.4344
  481MOL0     H64916   7.480   3.596   8.599 -1.9716  0.5709  2.6637
  481MOL0     H64917   7.228   3.388   9.029 -0.3550  1.1568 -1.8769
  481MOL0     H64918   7.043   3.444   9.165  0.5406 -1.7722 -1.8476
  481MOL0     H64919   5.963   3.584   9.415 -0.0210  1.1085 -0.4817
  481MOL0     H64920   5.791   3.749   9.442 -1.2947  0.5112 -1.8276
  481MOL0     H64921   5.344   3.779   9.386  3.4155  0.3306  0.5765
  481MOL0     H64922   5.181   3.944   9.312 -0.5699 -0.5708  0.7154
  481MOL0     H64923   5.016   4.336   9.431  0.3852  0.1731 -1.3484
  481MOL0     H64924   5.114   4.310   9.581 -0.5430 -0.8470  0.3491
  481MOL0     H64925   4.978   4.134   9.639 -0.3508 -1.1520 -1.5025
  481MOL0     H64926   4.856   4.164   9.513  2.1927 -2.3645 -1.6682
  481MOL0     H64927   4.838   4.412   9.603  0.5890  1.1180  1.3520
  481MOL0     H64928   4.954   4.363   9.727 -0.3921 -1.0694  1.4730
  481MOL0     H64929   4.671   4.275   9.705 -2.1984 -1.5098  3.1583
  481MOL0     H64930   4.791   4.197   9.812  2.1293  0.4745  0.1527
  481MOL0     H64931   4.731   4.580   9.997 -0.0161  1.4741 -0.5328
  481MOL0     H64932   5.232   4.156   9.683 -0.0406 -1.2202  0.8670
  481MOL0     H64933   5.396   4.105   9.825 -2.6325 -1.4259  0.3935
  481MOL0     H64934   5.365   3.934   9.856  0.7860 -1.3532 -0.6450
  481MOL0     H64935   5.524   3.991   9.786 -0.2091 -3.5040  1.9133
  482MOL0     O64936   0.957   2.099   0.252  0.0101 -0.0642 -0.3302
  482MOL0     C64937   0.908   2.201   0.203  0.4802  0.1084  0.0108
  482MOL0     O64938   0.971   2.307   0.139  0.0397 -0.4639  0.0821
  482MOL0     C64939   1.107   2.312   0.137  0.0233 -0.0949  0.8706
  482MOL0     C64940   1.160   2.431   0.172  0.1737 -0.1937 -0.6481
  482MOL0     C64941   1.298   2.456   0.147  0.5210  0.2786  0.0202
  482MOL0     C64942   1.387   2.358   0.089 -0.8223 -0.7797  0.9913
  482MOL0     O64943   1.518   2.390   0.052  0.3495 -0.3238 -0.4872
  482MOL0     C64944   1.522   2.520  -0.022  0.2359 -0.4504 -0.1874
  482MOL0     C64945   1.631   2.517  -0.121 -0.5812  1.3010  0.3100
  482MOL0     C64946   1.771   2.517  -0.063 -0.4245  0.1381  0.0024
  482MOL0     C64947   1.886   2.553  -0.158  0.9229  0.1398  0.7726
  482MOL0     C64948   2.029   2.522  -0.105  0.0426 -0.1076  0.2872
  482MOL0     C64949   2.061   2.376  -0.102  0.0155 -0.7939 -0.1199
  482MOL0     C64950   2.212   2.352  -0.083 -0.5081  0.3988  0.1695
  482MOL0     C64951   2.299   2.372  -0.211  0.0739 -0.3845 -0.1588
  482MOL0     N64952   2.416   2.292  -0.180 -0.1375 -1.1737  0.3245
  482MOL0     C64953   2.518   2.316  -0.084 -0.2156 -0.3478 -0.5012
  482MOL0     C64954   2.586   2.205  -0.070 -0.0945  0.0868  0.0223
  482MOL0     C64955   2.705   2.177   0.018  0.6650 -0.2755 -0.3726
  482MOL0     C64956   2.844   2.167  -0.041 -0.3650 -0.3554 -0.1588
  482MOL0     C64957   2.894   2.299  -0.092 -0.5546 -0.2429  0.1495
  482MOL0     C64958   3.039   2.287  -0.130  0.8003 -0.0838  0.2906
  482MOL0     O64959   3.086   2.422  -0.144 -0.0396 -0.0384 -0.1957
  482MOL0     C64960   3.220   2.439  -0.174  0.0565  0.0603 -0.1188
  482MOL0     C64961   3.282   2.564  -0.149  0.1443  0.4945  0.1573
  482MOL0     C64962   3.414   2.587  -0.180 -0.5353  0.1361  0.6623
  482MOL0     C64963   3.494   2.481  -0.243 -0.2932  0.9377 -0.9086
  482MOL0     C64964   3.635   2.506  -0.277 -0.0613  0.1231 -0.5540
  482MOL0     O64965   3.689   2.437  -0.382  0.1596 -0.1719  0.1820
  482MOL0     C64966   3.824   2.442  -0.396  0.3365  0.2065  0.4066
  482MOL0     C64967   3.889   2.490  -0.510 -0.1252 -0.0002 -0.7464
  482MOL0     C64968   4.030   2.495  -0.521  0.1599 -0.0593  0.9544
  482MOL0     C64969   4.106   2.434  -0.413 -0.0897 -0.9541  0.9365
  482MOL0     O64970   4.238   2.418  -0.422 -0.0250  0.2621 -0.8519
  482MOL0     C64971   4.300   2.551  -0.430 -0.6558  0.0907  0.6176
  482MOL0     C64972   4.377   2.583  -0.558 -0.1225  0.4155  0.3829
  482MOL0     C64973   4.425   2.726  -0.576  0.0997 -0.0406  0.2212
  482MOL0     C64974   4.513   2.742  -0.700 -0.6639 -0.0658  0.1696
  482MOL0     C64975   4.641   2.818  -0.666 -0.3400 -0.1883  0.7623
  482MOL0     C64976   4.738   2.725  -0.585  0.3481  0.1054  1.0007
  482MOL0     C64977   4.872   2.794  -0.572 -0.0579  0.2285 -0.3327
  482MOL0     C64978   4.983   2.698  -0.531  0.4278  0.1355 -0.1772
  482MOL0    Cl64979   5.017   2.589  -0.672 -0.0683  0.0111  0.0878
  482MOL0     C64980   4.035   2.385  -0.308 -0.3329 -0.0054  1.0542
  482MOL0     C64981   3.901   2.388  -0.294  0.3227 -0.3669  0.9047
  482MOL0     O64982   3.697   2.582  -0.203 -0.6136 -0.2312  0.4590
  482MOL0     C64983   3.430   2.358  -0.276  0.1293 -0.1366  0.5797
  482MOL0     C64984   3.299   2.336  -0.231 -0.1394 -0.0283  0.7114
  482MOL0     N64985   2.538   2.124  -0.175  0.0971  0.6874 -0.2742
  482MOL0     N64986   2.436   2.177  -0.239  0.3538  0.5547 -0.1769
  482MOL0     C64987   1.330   2.235   0.068 -0.5162 -0.0755  1.1093
  482MOL0     C64988   1.196   2.212   0.088  0.2815 -0.4476 -0.4946
  482MOL0     C64989   0.768   2.225   0.249  0.9200 -0.6570  0.4638
  482MOL0     C64990   0.715   2.356   0.243 -0.5500  0.5929  0.1453
  482MOL0     C64991   0.587   2.388   0.289  0.3707 -0.3847  0.8716
  482MOL0     C64992   0.510   2.290   0.351 -0.6395 -0.4224 -0.1688
  482MOL0     O64993   0.388   2.332   0.399  0.8323 -0.3613 -0.3247
  482MOL0     C64994   0.271   2.269   0.336 -0.5197  0.1436 -0.0262
  482MOL0     C64995   0.140   2.334   0.362  0.6481  0.2864 -0.1690
  482MOL0     C64996   0.126   2.334   0.522  0.9148  0.1260  0.1908
  482MOL0     C64997   0.152   2.473   0.585 -0.0755 -0.3361  0.2515
  482MOL0     C64998   0.147   2.450   0.727 -0.6446 -0.5240  0.6998
  482MOL0     C64999   0.143   2.439   0.846  0.4361  0.3135 -0.5086
  482MOL0     C65000   0.559   2.158   0.369 -0.1134  0.2375 -0.0282
  482MOL0     C65001   0.682   2.125   0.312  0.4064  0.0303  0.0932
  482MOL0     C65002   0.722   1.981   0.330  0.0953 -0.6293  0.5639
  482MOL0     H65003   1.099   2.502   0.226 -0.7461 -0.9699 -0.6275
  482MOL0     H65004   1.339   2.549   0.186  0.7290  0.2550 -0.1380
  482MOL0     H65005   1.429   2.532  -0.078 -2.0299  0.6648  3.4158
  482MOL0     H65006   1.534   2.602   0.049 -0.4017  0.9228 -1.6144
  482MOL0     H65007   1.623   2.605  -0.185 -1.3801 -0.5298 -2.2985
  482MOL0     H65008   1.609   2.433  -0.188 -1.6661  0.3913  1.7402
  482MOL0     H65009   1.795   2.419  -0.021  2.7667  0.5537 -0.5818
  482MOL0     H65010   1.763   2.592   0.016 -1.6756 -0.0490  0.0716
  482MOL0     H65011   1.865   2.497  -0.249  1.6194 -3.7660  2.7970
  482MOL0     H65012   1.886   2.661  -0.179 -1.5027 -0.2461 -1.7165
  482MOL0     H65013   2.105   2.561  -0.173 -0.4836  0.4509  0.0115
  482MOL0     H65014   2.040   2.570  -0.007 -3.7896  0.7485  0.4722
  482MOL0     H65015   2.012   2.326  -0.018 -0.6756 -2.2296 -1.3412
  482MOL0     H65016   2.015   2.321  -0.184 -1.0691  1.5101 -1.1327
  482MOL0     H65017   2.229   2.248  -0.054  1.2349  0.6111  0.0014
  482MOL0     H65018   2.244   2.422  -0.005 -2.5981  1.7505 -0.0742
  482MOL0     H65019   2.237   2.344  -0.297  1.0137 -0.2579 -0.8920
  482MOL0     H65020   2.313   2.481  -0.220 -1.4799 -0.2299 -1.1910
  482MOL0     H65021   2.527   2.407  -0.025  1.1818 -1.1213  0.5148
  482MOL0     H65022   2.705   2.255   0.094  0.8406 -1.8057  1.2737
  482MOL0     H65023   2.680   2.080   0.063  0.6622  0.2097  0.6898
  482MOL0     H65024   2.921   2.138   0.032  1.0405  1.0947 -1.0147
  482MOL0     H65025   2.856   2.095  -0.123  3.3824 -0.7803  0.5404
  482MOL0     H65026   2.884   2.385  -0.024 -0.0114  1.7255 -2.1299
  482MOL0     H65027   2.836   2.318  -0.182 -0.4056 -0.2096  0.0608
  482MOL0     H65028   3.043   2.229  -0.222  0.1573  1.1302 -0.5347
  482MOL0     H65029   3.079   2.236  -0.042 -0.5507 -0.7305  0.5516
  482MOL0     H65030   3.213   2.638  -0.110  0.1798 -0.5673  2.3659
  482MOL0     H65031   3.458   2.684  -0.158  0.2425 -0.2822  0.9668
  482MOL0     H65032   3.837   2.524  -0.598  0.0461  1.1143 -0.4303
  482MOL0     H65033   4.065   2.527  -0.618 -4.8556  1.8617 -0.5526
  482MOL0     H65034   4.223   2.626  -0.408 -2.0948 -1.4734  1.1801
  482MOL0     H65035   4.366   2.556  -0.342  0.4058 -2.6008  0.0672
  482MOL0     H65036   4.457   2.509  -0.553 -0.0389  0.4174 -0.7632
  482MOL0     H65037   4.312   2.556  -0.642  0.7075  1.5685 -0.6691
  482MOL0     H65038   4.334   2.787  -0.580  0.9964  1.2751 -1.4820
  482MOL0     H65039   4.472   2.756  -0.482 -1.7173  1.6192  0.6541
  482MOL0     H65040   4.460   2.807  -0.770 -2.4998 -1.8733 -0.1869
  482MOL0     H65041   4.542   2.643  -0.735  4.4800  1.6490 -1.3915
  482MOL0     H65042   4.616   2.901  -0.600  1.1539  0.2153  0.8667
  482MOL0     H65043   4.699   2.854  -0.751  1.6463  0.0440  2.1312
  482MOL0     H65044   4.694   2.707  -0.487 -0.7908  2.2366  0.9537
  482MOL0     H65045   4.751   2.633  -0.643  0.9494  0.4164  0.6223
  482MOL0     H65046   4.867   2.861  -0.486 -3.3011 -1.6327  1.1258
  482MOL0     H65047   4.906   2.853  -0.657  2.8409 -1.0388 -0.1695
  482MOL0     H65048   5.069   2.762  -0.507  1.2376 -0.5880 -1.0551
  482MOL0     H65049   4.955   2.646  -0.439  0.6897 -2.7225 -1.6089
  482MOL0     H65050   4.099   2.352  -0.227 -0.1939 -0.2214  0.8598
  482MOL0     H65051   3.838   2.355  -0.212  1.2797 -0.8351  1.4640
  482MOL0     H65052   3.478   2.275  -0.327  3.5925 -0.5906  4.1453
  482MOL0     H65053   3.256   2.246  -0.275 -0.9597  1.0190 -0.7313
  482MOL0     H65054   1.397   2.162   0.022  3.0635  1.7485  3.0030
  482MOL0     H65055   1.151   2.115   0.066  1.1908 -0.6189 -1.7177
  482MOL0     H65056   0.771   2.431   0.188 -0.5562 -0.2532 -1.0514
  482MOL0     H65057   0.553   2.490   0.274  2.2289  0.4581  2.0312
  482MOL0     H65058   0.269   2.164   0.366 -1.3816 -0.1059 -0.8905
  482MOL0     H65059   0.278   2.260   0.227 -2.6077 -2.1652 -0.0444
  482MOL0     H65060   0.061   2.274   0.317  1.4137  0.2895 -1.5729
  482MOL0     H65061   0.133   2.434   0.319  1.3136  1.4397  2.1815
  482MOL0     H65062   0.191   2.259   0.568  1.4682 -0.1551 -1.0153
  482MOL0     H65063   0.024   2.310   0.554  1.8834 -2.3571  1.7290
  482MOL0     H65064   0.251   2.504   0.549  0.2820 -1.4534  0.2372
  482MOL0     H65065   0.078   2.548   0.557  0.4238 -0.4793 -1.6095
  482MOL0     H65066   0.127   2.455   0.951  1.7507  0.6230 -0.3280
  482MOL0     H65067   0.496   2.081   0.414  0.8441 -1.0739 -0.8671
  482MOL0     H65068   0.643   1.923   0.378  0.6969 -0.3586  1.9356
  482MOL0     H65069   0.746   1.950   0.227 -0.4394  2.3071 -0.5284
  482MOL0     H65070   0.811   1.970   0.393 -0.5186  0.5968  1.6647
  483MOL0     O65071   7.887   8.517   0.333  0.6279 -0.7498 -0.4926
  483MOL0     C65072   7.824   8.434   0.269 -0.1431  0.6751  0.3276
  483MOL0     O65073   7.845   8.293   0.271 -0.3265 -0.7342  0.7674
  483MOL0     C65074   7.896   8.261   0.393  0.1441  0.0598 -0.5521
  483MOL0     C65075   7.817   8.183   0.484  0.6050  0.7799 -0.8589
  483MOL0     C65076   7.873   8.130   0.600  0.2256 -0.9130  1.0608
  483MOL0     C65077   8.010   8.158   0.630 -0.4305 -0.3894  0.7323
  483MOL0     O65078   8.080   8.112   0.743  0.9493  0.2426 -0.1199
  483MOL0     C65079   7.998   8.071   0.852  0.2863 -0.0202 -0.0152
  483MOL0     C65080   8.084   8.088   0.977 -0.0022 -0.5345  0.7145
  483MOL0     C65081   8.191   7.966   0.985 -0.1159  0.3576  0.4303
  483MOL0     C65082   8.300   7.979   1.104  0.6785 -0.6126  0.4831
  483MOL0     C65083   8.421   7.885   1.081  0.5863  0.2626  0.0605
  483MOL0     C65084   8.527   7.910   1.189  0.6960 -0.5351  0.0948
  483MOL0     C65085   8.650   7.813   1.172  0.5440  0.0930 -0.2184
  483MOL0     C65086   8.772   7.838   1.271 -0.5939  0.0649 -0.1733
  483MOL0     N65087   8.828   7.979   1.276 -0.0440  0.6337 -0.0143
  483MOL0     C65088   8.920   8.032   1.186  0.3473  0.2052 -0.0031
  483MOL0     C65089   8.917   8.166   1.214  1.1508 -0.1814 -0.2961
  483MOL0     C65090   9.002   8.272   1.148  0.2267 -0.3747 -1.0353
  483MOL0     C65091   9.024   8.393   1.237  0.3141  0.1385 -0.1262
  483MOL0     C65092   9.126   8.487   1.174 -0.1611  0.5908  0.3552
  483MOL0     C65093   9.135   8.613   1.253 -0.3495 -1.6644  0.1611
  483MOL0     O65094   9.254   8.688   1.208 -0.1101 -0.3718  0.1945
  483MOL0     C65095   9.338   8.739   1.302 -1.0413 -0.1068  0.4723
  483MOL0     C65096   9.290   8.814   1.410  0.4044  0.1290 -0.0213
  483MOL0     C65097   9.379   8.849   1.517  0.3221  0.4430  0.1597
  483MOL0     C65098   9.518   8.830   1.497  0.1018 -0.6253  0.2320
  483MOL0     C65099   9.605   8.886   1.593 -0.0819 -0.3141  0.1855
  483MOL0     O65100   9.736   8.842   1.590 -0.4954  0.5706 -0.0424
  483MOL0     C65101   9.839   8.908   1.655 -0.0094 -0.4086  0.2563
  483MOL0     C65102   9.831   9.047   1.693 -0.4464  0.8755 -0.4831
  483MOL0     C65103   9.932   9.096   1.776 -0.0481  0.0847  0.3543
  483MOL0     C65104  10.042   9.016   1.804 -0.5564  0.7021  0.2283
  483MOL0     O65105  10.152   9.071   1.860 -0.0542 -0.6842  0.2351
  483MOL0     C65106  10.230   8.994   1.952  0.0751  1.6442 -0.2060
  483MOL0     C65107  10.169   8.977   2.088  0.3121 -0.2661 -0.5186
  483MOL0     C65108  10.237   8.874   2.164  0.8605 -0.5357 -0.2180
  483MOL0     C65109  10.239   8.903   2.316  0.2533  0.2729 -0.1351
  483MOL0     C65110  10.324   8.784   2.386 -0.4960 -0.4764 -0.7432
  483MOL0     C65111  10.337   8.793   2.545 -0.1208 -0.4248 -0.2725
  483MOL0     C65112  10.440   8.700   2.599  0.0099 -0.3967 -0.2217
  483MOL0     C65113  10.470   8.726   2.745  1.0040  0.7130 -0.4655
  483MOL0    Cl65114  10.319   8.708   2.844  0.1165 -0.1023 -0.3955
  483MOL0     C65115  10.049   8.881   1.761  0.5169  0.4078 -0.7843
  483MOL0     C65116   9.939   8.826   1.695 -0.3189  0.7236  0.5945
  483MOL0     O65117   9.556   8.959   1.678  0.2264 -0.2467 -0.6187
  483MOL0     C65118   9.570   8.782   1.378  0.1013 -0.6046  0.0583
  483MOL0     C65119   9.479   8.731   1.283  0.3207  0.2567 -0.2625
  483MOL0     N65120   8.840   8.180   1.329 -0.4685  0.4197  0.0732
  483MOL0     N65121   8.788   8.072   1.368  0.2323 -0.9275  0.7927
  483MOL0     C65122   8.081   8.235   0.537 -0.7513  0.1941 -0.6417
  483MOL0     C65123   8.028   8.280   0.419 -0.3132 -0.6248 -0.4327
  483MOL0     C65124   7.734   8.498   0.168 -0.0448 -0.2580  0.8902
  483MOL0     C65125   7.783   8.612   0.108 -0.1093 -0.3817 -1.1790
  483MOL0     C65126   7.709   8.683   0.016  0.0551 -0.0165  0.6716
  483MOL0     C65127   7.583   8.638  -0.035  0.0706 -0.3733  0.4719
  483MOL0     O65128   7.516   8.689  -0.145  0.4131  0.5588 -0.0448
  483MOL0     C65129   7.558   8.818  -0.191 -1.1033 -0.3763  0.0088
  483MOL0     C65130   7.475   8.851  -0.311 -0.0180  0.1021 -0.4137
  483MOL0     C65131   7.468   8.739  -0.424 -0.1762 -0.0131 -0.3487
  483MOL0     C65132   7.326   8.735  -0.479  0.6350 -0.2870 -0.5178
  483MOL0     C65133   7.302   8.632  -0.580 -0.7133 -0.0098  0.0628
  483MOL0     C65134   7.297   8.547  -0.665  0.0882 -0.3476  0.0349
  483MOL0     C65135   7.543   8.521   0.020  0.6406 -0.2053 -0.2715
  483MOL0     C65136   7.608   8.447   0.118  0.0487  1.0078  0.2989
  483MOL0     C65137   7.552   8.322   0.184  0.2020  0.0646  0.7870
  483MOL0     H65138   7.713   8.173   0.456 -0.2496  3.6123  0.8985
  483MOL0     H65139   7.812   8.059   0.656 -1.3854 -2.3309 -2.1940
  483MOL0     H65140   7.915   8.141   0.861 -0.1871 -0.4916 -0.6553
  483MOL0     H65141   7.956   7.972   0.837 -1.8531  1.2009 -2.9080
  483MOL0     H65142   8.023   8.094   1.067 -1.2292 -2.3987  0.0576
  483MOL0     H65143   8.143   8.178   0.957 -0.8346 -0.5424 -2.2404
  483MOL0     H65144   8.229   7.966   0.883 -2.2849 -1.3693 -0.4740
  483MOL0     H65145   8.144   7.868   1.000  2.0298 -0.8823 -0.4424
  483MOL0     H65146   8.334   8.083   1.115 -0.7228  0.0005 -0.6721
  483MOL0     H65147   8.253   7.960   1.201 -1.5837 -0.1095 -0.4544
  483MOL0     H65148   8.397   7.779   1.094  3.1640 -0.2336  1.6167
  483MOL0     H65149   8.463   7.908   0.983  1.8070  2.1872  0.9791
  483MOL0     H65150   8.553   8.015   1.178  0.1374 -0.4716 -0.6215
  483MOL0     H65151   8.471   7.904   1.283 -1.3791  1.1751 -0.9687
  483MOL0     H65152   8.697   7.816   1.073 -0.4240 -2.6847 -0.8454
  483MOL0     H65153   8.607   7.714   1.186 -1.5289  0.5893 -2.3932
  483MOL0     H65154   8.736   7.804   1.368 -3.4564  0.7199 -0.9150
  483MOL0     H65155   8.858   7.771   1.259  0.3627  0.9306  1.4517
  483MOL0     H65156   8.986   7.987   1.114  0.6414 -2.5968  1.8621
  483MOL0     H65157   9.099   8.235   1.114 -0.0672 -0.9453 -1.2501
  483MOL0     H65158   8.941   8.305   1.064 -2.0432 -3.1478 -0.6341
  483MOL0     H65159   8.929   8.445   1.253  0.1545 -0.9165  2.9628
  483MOL0     H65160   9.066   8.366   1.334  2.6241 -0.3301 -1.1857
  483MOL0     H65161   9.097   8.506   1.070  0.4002  0.0753  0.1023
  483MOL0     H65162   9.219   8.430   1.173  0.2341  1.1888 -1.2934
  483MOL0     H65163   9.150   8.583   1.357  0.1578  0.2744  0.6785
  483MOL0     H65164   9.047   8.677   1.245  0.0004 -1.2522 -0.4213
  483MOL0     H65165   9.183   8.827   1.415  0.3923  1.3641 -2.2452
  483MOL0     H65166   9.322   8.897   1.596 -0.5271  0.0187 -0.1818
  483MOL0     H65167   9.742   9.107   1.678 -2.1645 -1.5102 -0.3906
  483MOL0     H65168   9.942   9.201   1.799 -2.7543  0.0979  1.8169
  483MOL0     H65169  10.273   8.907   1.903 -3.0265  0.4641 -1.0500
  483MOL0     H65170  10.316   9.060   1.969  1.2438  1.0430 -3.2121
  483MOL0     H65171  10.160   9.080   2.121 -2.2220 -0.0449 -1.6590
  483MOL0     H65172  10.066   8.945   2.071  0.5940  0.0672 -3.2937
  483MOL0     H65173  10.195   8.775   2.144  0.5996  0.0108 -2.6659
  483MOL0     H65174  10.341   8.866   2.130  0.0626 -2.4157 -2.4915
  483MOL0     H65175  10.138   8.907   2.356 -0.5573 -0.5572 -1.9901
  483MOL0     H65176  10.306   8.989   2.327  1.8879 -0.9760  0.0867
  483MOL0     H65177  10.425   8.795   2.345 -1.2699  3.3670 -2.0071
  483MOL0     H65178  10.291   8.684   2.358 -3.4184  0.1720  0.0412
  483MOL0     H65179  10.374   8.895   2.561  0.7998 -0.2620 -2.8817
  483MOL0     H65180  10.240   8.785   2.594 -0.3639  0.5383 -0.5818
  483MOL0     H65181  10.531   8.724   2.544  0.1185  0.1113  0.1647
  483MOL0     H65182  10.412   8.595   2.586 -1.9909 -0.7910  4.8836
  483MOL0     H65183  10.535   8.652   2.792 -1.1085  0.0491  1.5566
  483MOL0     H65184  10.511   8.827   2.750 -0.4458  1.2721  0.6138
  483MOL0     H65185  10.136   8.819   1.780  1.5816  0.9777 -3.3997
  483MOL0     H65186   9.950   8.723   1.663  3.2226  1.5741 -1.4795
  483MOL0     H65187   9.677   8.780   1.363  0.1892 -2.0430  0.7341
  483MOL0     H65188   9.507   8.664   1.202 -0.3739 -1.2970  0.7304
  483MOL0     H65189   8.185   8.255   0.559 -0.8017  0.9478 -1.0552
  483MOL0     H65190   8.087   8.339   0.350 -2.6371  0.6920 -1.4179
  483MOL0     H65191   7.884   8.643   0.130  0.8540 -1.7095 -3.3208
  483MOL0     H65192   7.753   8.771  -0.028  1.8976 -1.8719 -1.4293
  483MOL0     H65193   7.656   8.803  -0.236 -0.7312  0.5535  0.4905
  483MOL0     H65194   7.557   8.901  -0.120  1.0130  1.5787 -2.0653
  483MOL0     H65195   7.517   8.934  -0.369 -2.2192  0.9523 -0.8868
  483MOL0     H65196   7.370   8.873  -0.291  0.5272  1.3775  1.3548
  483MOL0     H65197   7.482   8.640  -0.379 -0.4386 -0.6377 -1.6168
  483MOL0     H65198   7.536   8.753  -0.508 -2.3211  0.1739 -2.1269
  483MOL0     H65199   7.260   8.711  -0.394  0.1891 -3.2398 -1.5743
  483MOL0     H65200   7.298   8.828  -0.529  2.8931  1.0569  0.5143
  483MOL0     H65201   7.281   8.469  -0.737 -2.4181 -0.4115  0.5791
  483MOL0     H65202   7.449   8.480  -0.017  0.5254  1.0739 -1.4860
  483MOL0     H65203   7.553   8.330   0.293 -0.3864  1.5885  0.7113
  483MOL0     H65204   7.449   8.311   0.147  0.5403 -2.6456  0.4946
  483MOL0     H65205   7.605   8.236   0.143 -0.3417  1.8326 -4.4446
  484MOL0     O65206   6.273   1.038   0.152 -0.0011  0.1581 -0.7539
  484MOL0     C65207   6.227   0.928   0.151 -0.4524  0.2037 -0.1811
  484MOL0     O65208   6.257   0.823   0.237  0.8342  0.2956 -0.4678
  484MOL0     C65209   6.372   0.837   0.308  0.3952 -0.6999 -0.2624
  484MOL0     C65210   6.380   0.921   0.423  1.0961 -0.5182 -0.5027
  484MOL0     C65211   6.498   0.930   0.495  0.1235  0.1669  0.6286
  484MOL0     C65212   6.613   0.874   0.453  0.0920 -0.1802 -0.9848
  484MOL0     O65213   6.727   0.891   0.526 -0.7169 -0.4516 -0.0112
  484MOL0     C65214   6.862   0.861   0.474 -0.6066 -0.1273  0.2677
  484MOL0     C65215   6.960   0.875   0.590  0.2339  0.4137 -0.0296
  484MOL0     C65216   7.106   0.866   0.542  0.1923 -0.0918  0.8221
  484MOL0     C65217   7.165   0.998   0.515  0.5125 -0.2578  0.0499
  484MOL0     C65218   7.318   0.993   0.537 -0.4797  0.2060  0.1118
  484MOL0     C65219   7.404   1.109   0.483 -0.7085  0.3966  0.0971
  484MOL0     C65220   7.555   1.074   0.502  0.1669 -0.6479  0.5210
  484MOL0     C65221   7.643   1.196   0.464 -0.7395  0.7167  0.7241
  484MOL0     N65222   7.784   1.156   0.471 -0.1238  0.2445 -0.6449
  484MOL0     C65223   7.866   1.128   0.367  0.5633 -0.4959  0.1688
  484MOL0     C65224   7.989   1.138   0.409 -0.5904 -0.6908 -0.3937
  484MOL0     C65225   8.114   1.087   0.318 -0.7569 -0.6867  0.5949
  484MOL0     C65226   8.085   0.961   0.240  0.0655 -0.0137 -0.1034
  484MOL0     C65227   8.195   0.915   0.144 -0.3172  0.4527 -0.2762
  484MOL0     C65228   8.310   0.837   0.207 -0.3014 -0.4103 -0.0595
  484MOL0     O65229   8.391   0.923   0.287 -0.5533 -0.3861 -0.1674
  484MOL0     C65230   8.531   0.908   0.303  0.3734  0.3294 -0.4532
  484MOL0     C65231   8.583   0.913   0.434 -0.6592  0.7483  0.4461
  484MOL0     C65232   8.722   0.912   0.460  0.2043  1.1604 -0.4865
  484MOL0     C65233   8.805   0.907   0.351 -0.8770  0.3057  2.0153
  484MOL0     C65234   8.948   0.929   0.366 -0.2118  0.6185 -0.5742
  484MOL0     O65235   9.027   0.891   0.258 -0.1479 -0.3502 -0.3118
  484MOL0     C65236   9.153   0.948   0.242  0.2776  0.3489 -0.0447
  484MOL0     C65237   9.252   0.853   0.207  0.2545 -0.2627  0.2268
  484MOL0     C65238   9.376   0.894   0.175  0.4146 -0.2705  0.0444
  484MOL0     C65239   9.420   1.033   0.180 -0.0346  0.4945 -0.4806
  484MOL0     O65240   9.551   1.063   0.138  0.9917  0.7293  0.4537
  484MOL0     C65241   9.601   1.188   0.172 -0.5977 -0.6451 -0.2845
  484MOL0     C65242   9.754   1.171   0.190  0.2347 -0.3844 -0.7305
  484MOL0     C65243   9.802   1.078   0.302  0.9509  0.5836  0.1594
  484MOL0     C65244   9.952   1.106   0.331  0.6375 -0.2218 -0.2821
  484MOL0     C65245   9.998   1.013   0.455  0.3423 -0.0542  0.6673
  484MOL0     C65246   9.950   1.064   0.591 -0.5331 -0.5871 -0.2591
  484MOL0     C65247  10.007   0.983   0.698 -0.4726  0.1268  0.8240
  484MOL0     C65248   9.971   1.024   0.845  0.1348 -0.1756 -0.6007
  484MOL0    Cl65249  10.038   1.198   0.874  0.1169  0.0008 -0.5530
  484MOL0     C65250   9.318   1.123   0.224  0.3793 -0.0966  0.2996
  484MOL0     C65251   9.189   1.077   0.254  0.1473 -0.3189 -0.4928
  484MOL0     O65252   9.000   0.975   0.470 -0.6221  0.0091  1.1316
  484MOL0     C65253   8.752   0.894   0.220  0.5435 -0.3556  0.8580
  484MOL0     C65254   8.617   0.888   0.205 -0.0106 -1.3896 -0.6183
  484MOL0     N65255   7.984   1.193   0.537 -0.2423  0.2014 -0.1811
  484MOL0     N65256   7.860   1.207   0.573  0.2522  0.6332  0.0046
  484MOL0     C65257   6.604   0.789   0.337 -0.3884  0.3488  0.3534
  484MOL0     C65258   6.484   0.782   0.264 -0.2380  0.0277 -0.4290
  484MOL0     C65259   6.113   0.919   0.054  0.5237  0.0605  0.0904
  484MOL0     C65260   6.119   0.988  -0.069 -0.2343 -1.4984 -0.3641
  484MOL0     C65261   6.010   0.993  -0.148  0.0515  0.2997  0.8598
  484MOL0     C65262   5.895   0.916  -0.122 -0.0209  0.1996 -0.2367
  484MOL0     O65263   5.803   0.933  -0.221  0.0192 -1.0148  0.3023
  484MOL0     C65264   5.673   0.876  -0.209  0.4551 -0.0045 -0.2567
  484MOL0     C65265   5.588   0.962  -0.109 -0.2823  1.1862  0.3225
  484MOL0     C65266   5.580   1.105  -0.173 -0.5210  0.0542 -0.3328
  484MOL0     C65267   5.505   1.211  -0.086 -0.5903  0.3476  0.5300
  484MOL0     C65268   5.376   1.163  -0.062 -0.3611  0.4142 -0.0303
  484MOL0     C65269   5.258   1.142  -0.050  0.6202  0.1495  0.2450
  484MOL0     C65270   5.880   0.849  -0.007 -0.8205  0.2626  0.3099
  484MOL0     C65271   5.990   0.843   0.082 -0.5617  0.0369  0.7042
  484MOL0     C65272   5.971   0.754   0.199 -0.8520 -0.3244  0.4879
  484MOL0     H65273   6.293   0.976   0.456  1.7433  0.7024 -0.7585
  484MOL0     H65274   6.497   0.981   0.590  0.4475  2.0421 -0.3402
  484MOL0     H65275   6.866   0.758   0.438 -1.0272 -0.3800  0.9202
  484MOL0     H65276   6.900   0.927   0.396  4.0604 -0.9706  1.4786
  484MOL0     H65277   6.934   0.811   0.675  3.6676 -1.6459 -0.3573
  484MOL0     H65278   6.941   0.975   0.630  2.7279  1.1367 -0.5150
  484MOL0     H65279   7.112   0.810   0.448  1.5785  0.5008  0.5323
  484MOL0     H65280   7.168   0.823   0.621  1.5879 -0.5915 -0.5088
  484MOL0     H65281   7.150   1.023   0.410  4.1554  0.8526 -0.3529
  484MOL0     H65282   7.133   1.081   0.579  2.8737 -0.3941  1.5708
  484MOL0     H65283   7.332   0.994   0.645  1.8881 -0.8978 -0.1174
  484MOL0     H65284   7.353   0.901   0.488 -0.2874 -0.4136  1.3821
  484MOL0     H65285   7.381   1.133   0.378  1.1368 -2.2367 -1.0119
  484MOL0     H65286   7.396   1.203   0.539  0.0486  0.4291  0.1534
  484MOL0     H65287   7.584   0.990   0.437 -1.9197 -0.3319 -0.9575
  484MOL0     H65288   7.575   1.057   0.608 -0.7631 -1.4772  0.5831
  484MOL0     H65289   7.631   1.224   0.359  1.7537 -1.3547 -0.2187
  484MOL0     H65290   7.612   1.287   0.516  0.4496  1.2841  0.4662
  484MOL0     H65291   7.821   1.090   0.275 -0.9772  1.4698  0.0430
  484MOL0     H65292   8.153   1.163   0.250 -0.2225 -0.5143  1.0964
  484MOL0     H65293   8.193   1.080   0.392 -0.4115  0.6204  0.3706
  484MOL0     H65294   8.054   0.877   0.303  1.0219 -1.2763 -1.2460
  484MOL0     H65295   8.001   0.979   0.172  0.5595  1.4719 -0.3456
  484MOL0     H65296   8.229   1.010   0.101 -1.4851  1.4884  0.9877
  484MOL0     H65297   8.144   0.838   0.085 -1.6697  0.3299  0.9902
  484MOL0     H65298   8.375   0.799   0.128 -2.0611 -1.9335 -0.8522
  484MOL0     H65299   8.275   0.754   0.269 -0.0644  1.1586  2.2887
  484MOL0     H65300   8.514   0.934   0.514  0.1375 -1.6468  1.8681
  484MOL0     H65301   8.755   0.940   0.559 -1.8422  0.1549  0.5486
  484MOL0     H65302   9.223   0.751   0.184  1.4000 -0.1964 -1.6573
  484MOL0     H65303   9.446   0.819   0.139 -1.9161 -3.3476  1.4411
  484MOL0     H65304   9.593   1.259   0.089  0.0097 -2.0035 -1.5432
  484MOL0     H65305   9.563   1.228   0.267  0.7337 -0.5844  0.2377
  484MOL0     H65306   9.781   1.137   0.090  1.6124  1.0445 -0.8851
  484MOL0     H65307   9.808   1.265   0.201 -2.4647  1.4133 -2.0527
  484MOL0     H65308   9.744   1.087   0.395  0.3559  1.3634 -0.2848
  484MOL0     H65309   9.787   0.979   0.258 -0.4199  1.9819 -2.7081
  484MOL0     H65310   9.961   1.210   0.363 -5.2277  0.0105  1.7819
  484MOL0     H65311  10.007   1.095   0.237 -1.2577  2.1275 -1.7974
  484MOL0     H65312  10.106   1.033   0.461 -0.0066  2.0042  0.6939
  484MOL0     H65313   9.988   0.905   0.444  0.5683  0.0101 -0.2403
  484MOL0     H65314   9.975   1.166   0.621 -0.5929 -1.5334  3.5224
  484MOL0     H65315   9.840   1.071   0.591 -0.4854  0.3205 -0.4777
  484MOL0     H65316  10.115   0.975   0.687 -0.7720 -0.8870 -2.5470
  484MOL0     H65317   9.961   0.884   0.685  0.2715 -0.1129 -0.0645
  484MOL0     H65318   9.863   1.018   0.855  0.2940  0.6612  3.0808
  484MOL0     H65319  10.011   0.956   0.921 -0.5910 -1.0730 -1.0107
  484MOL0     H65320   9.331   1.231   0.219 -1.4594  0.0945 -2.7427
  484MOL0     H65321   9.100   1.134   0.277  0.3200 -0.9970  2.1247
  484MOL0     H65322   8.818   0.906   0.135 -2.0500  2.2515 -0.9829
  484MOL0     H65323   8.585   0.900   0.102  0.0843 -1.5036 -0.6621
  484MOL0     H65324   6.692   0.739   0.298 -1.3448  0.4401 -2.0757
  484MOL0     H65325   6.473   0.714   0.180  1.1115 -0.9031  0.1120
  484MOL0     H65326   6.196   1.063  -0.084 -0.9824 -1.1911 -3.2782
  484MOL0     H65327   6.018   1.062  -0.231  0.4759 -1.2905 -0.4913
  484MOL0     H65328   5.670   0.772  -0.175 -0.3522 -0.7505 -2.4351
  484MOL0     H65329   5.629   0.881  -0.309  0.7700  3.6644 -0.3588
  484MOL0     H65330   5.630   0.959  -0.008  1.1441  1.6284 -0.2338
  484MOL0     H65331   5.486   0.921  -0.110 -0.0782  0.6676  0.4784
  484MOL0     H65332   5.537   1.100  -0.273  1.3937 -3.9743 -1.1468
  484MOL0     H65333   5.683   1.134  -0.196 -0.9540 -0.0542 -2.6225
  484MOL0     H65334   5.556   1.246   0.005  0.8233  1.9175 -0.7979
  484MOL0     H65335   5.496   1.301  -0.147  1.0983 -1.5155 -2.7827
  484MOL0     H65336   5.153   1.120  -0.041  0.7559 -1.0153 -0.7442
  484MOL0     H65337   5.786   0.796   0.007  0.1226 -2.0713 -1.5183
  484MOL0     H65338   6.037   0.667   0.189  0.5887  0.5898  1.6398
  484MOL0     H65339   5.996   0.796   0.296 -0.7185 -0.4309  0.5006
  484MOL0     H65340   5.866   0.728   0.210 -2.2220  4.0660 -0.1214
  485MOL0     O65341   8.114   7.670   1.219 -0.3842  0.2675  0.3276
  485MOL0     C65342   8.071   7.559   1.183 -0.5392  0.1604 -0.0310
  485MOL0     O65343   8.146   7.448   1.159 -0.1993 -0.1663 -0.1501
  485MOL0     C65344   8.281   7.462   1.183 -0.2588  0.1595 -0.0714
  485MOL0     C65345   8.339   7.431   1.308 -0.6027  0.2542 -0.1709
  485MOL0     C65346   8.480   7.417   1.317  0.6927 -1.0819 -0.0261
  485MOL0     C65347   8.567   7.446   1.214 -0.6206  0.2638 -0.5307
  485MOL0     O65348   8.704   7.455   1.227  0.8883 -0.3087  0.1599
  485MOL0     C65349   8.758   7.486   1.351  0.1751 -0.5656 -0.0967
  485MOL0     C65350   8.908   7.479   1.351 -0.4275 -0.0767 -1.0347
  485MOL0     C65351   8.980   7.577   1.454  0.6741 -0.1549 -0.1546
  485MOL0     C65352   9.000   7.498   1.579 -0.7038 -0.5469 -0.0355
  485MOL0     C65353   9.050   7.580   1.693  0.0807 -0.0010 -0.7841
  485MOL0     C65354   8.995   7.544   1.832  0.3653 -1.1144 -0.1766
  485MOL0     C65355   8.863   7.602   1.856 -0.3713 -0.4049  0.7651
  485MOL0     C65356   8.790   7.545   1.978 -0.2916 -0.1404 -0.1897
  485MOL0     N65357   8.858   7.590   2.101  0.5138  1.4578 -0.4684
  485MOL0     C65358   8.837   7.711   2.153 -0.1781 -0.1821 -0.0741
  485MOL0     C65359   8.890   7.710   2.275 -0.4023 -0.0598  0.1493
  485MOL0     C65360   8.907   7.814   2.387 -0.7925 -1.0711  0.2237
  485MOL0     C65361   8.952   7.949   2.331 -0.1777 -0.6491  0.2321
  485MOL0     C65362   9.079   7.934   2.234 -0.1325 -0.8444 -0.5661
  485MOL0     C65363   9.196   7.867   2.291  0.0291 -0.4564 -0.4657
  485MOL0     O65364   9.239   7.951   2.406  0.6957  0.2214 -0.1194
  485MOL0     C65365   9.360   7.920   2.462 -0.4130 -0.4911 -0.2453
  485MOL0     C65366   9.445   7.813   2.432  0.2833  0.0559 -0.3047
  485MOL0     C65367   9.571   7.793   2.496 -0.4405 -0.0325  0.1756
  485MOL0     C65368   9.628   7.891   2.577 -0.5626 -0.2226 -0.6796
  485MOL0     C65369   9.757   7.864   2.642 -0.8270  0.0684 -0.3496
  485MOL0     O65370   9.791   7.948   2.743  0.4782  0.1214  0.2534
  485MOL0     C65371   9.900   7.932   2.823 -0.8086 -0.2613  0.4756
  485MOL0     C65372  10.006   8.025   2.798 -0.2312 -0.6896 -0.9119
  485MOL0     C65373  10.126   8.015   2.880  1.2677 -0.2983 -0.2017
  485MOL0     C65374  10.140   7.925   2.979  1.2937 -0.3323  0.2805
  485MOL0     O65375  10.267   7.926   3.028 -0.3857  0.2755  0.4903
  485MOL0     C65376  10.330   7.808   3.069 -0.7715 -0.5673  0.1095
  485MOL0     C65377  10.469   7.832   3.130  0.1622  0.5617 -0.3381
  485MOL0     C65378  10.569   7.885   3.033 -0.4067 -0.4656 -0.0916
  485MOL0     C65379  10.708   7.906   3.106 -0.0358 -0.4148  0.8280
  485MOL0     C65380  10.802   7.971   3.004 -0.2771 -0.2037  0.0364
  485MOL0     C65381  10.931   8.030   3.057  0.1835  0.4495  0.5629
  485MOL0     C65382  11.028   7.914   3.089  0.0461  0.2323  0.2920
  485MOL0     C65383  11.156   7.969   3.115  0.1037 -0.0982 -0.8947
  485MOL0    Cl65384  11.289   7.852   3.108 -0.4019  0.1663 -0.2892
  485MOL0     C65385  10.035   7.834   3.005  0.0743 -0.3709 -0.3556
  485MOL0     C65386   9.908   7.842   2.931 -0.4657  1.2552  0.4661
  485MOL0     O65387   9.832   7.774   2.598  0.2008  0.0647  0.2812
  485MOL0     C65388   9.555   8.008   2.599  0.6644 -0.7481  0.2760
  485MOL0     C65389   9.418   8.017   2.548 -0.6152 -0.1293  0.6214
  485MOL0     N65390   8.950   7.582   2.288  0.4128 -0.2313  0.1831
  485MOL0     N65391   8.928   7.505   2.188 -0.1767 -0.3535  0.3012
  485MOL0     C65392   8.507   7.472   1.090 -0.8973 -0.3863  0.7052
  485MOL0     C65393   8.372   7.475   1.076 -0.2133 -0.3072 -0.2884
  485MOL0     C65394   7.918   7.545   1.188  0.6561  0.0742  0.3444
  485MOL0     C65395   7.868   7.427   1.242 -0.8031  0.1006 -0.0661
  485MOL0     C65396   7.740   7.396   1.241  0.0562  0.1818  0.1909
  485MOL0     C65397   7.643   7.487   1.195  0.3742  0.3652 -0.2409
  485MOL0     O65398   7.506   7.469   1.189 -0.4074 -0.1768 -0.3762
  485MOL0     C65399   7.451   7.349   1.245 -0.4603 -0.5181  0.9230
  485MOL0     C65400   7.452   7.338   1.396 -0.6733  0.7799 -0.5889
  485MOL0     C65401   7.355   7.437   1.476  0.9247 -0.5159 -0.8651
  485MOL0     C65402   7.206   7.381   1.502  0.4927  0.0273 -0.7196
  485MOL0     C65403   7.200   7.264   1.589  0.2181  0.3174 -0.3672
  485MOL0     C65404   7.165   7.171   1.663 -0.0125 -0.4805 -0.8359
  485MOL0     C65405   7.685   7.610   1.150 -0.3195 -0.6925 -0.5537
  485MOL0     C65406   7.819   7.639   1.140  0.4489 -0.0940  0.6964
  485MOL0     C65407   7.861   7.776   1.101 -0.2853 -0.0020  0.0796
  485MOL0     H65408   8.267   7.401   1.384 -0.5149  2.0426  0.6731
  485MOL0     H65409   8.516   7.383   1.414  0.7460 -0.8144  0.0481
  485MOL0     H65410   8.716   7.584   1.375 -2.8861 -0.8931 -3.2576
  485MOL0     H65411   8.733   7.416   1.431  2.2882 -0.8889  0.3549
  485MOL0     H65412   8.947   7.510   1.254  0.4604  2.8896  0.1599
  485MOL0     H65413   8.952   7.381   1.373  1.8774  1.5946  2.6844
  485MOL0     H65414   8.934   7.676   1.458  1.6942  0.4008 -1.4427
  485MOL0     H65415   9.083   7.598   1.424  0.8336  0.6885  0.9208
  485MOL0     H65416   8.901   7.458   1.604 -0.9220 -2.2450 -3.1817
  485MOL0     H65417   9.065   7.414   1.553  2.1529  1.5646 -0.1721
  485MOL0     H65418   9.159   7.571   1.699  0.2629  2.3782  0.8125
  485MOL0     H65419   9.036   7.686   1.674  0.0753  0.4480  1.4332
  485MOL0     H65420   8.996   7.435   1.844 -0.5121 -1.1938 -0.7200
  485MOL0     H65421   9.070   7.587   1.899  0.0711  0.1939 -0.6623
  485MOL0     H65422   8.795   7.593   1.771 -0.5726 -1.4275  1.0152
  485MOL0     H65423   8.868   7.711   1.863 -0.2916 -0.5021  3.2249
  485MOL0     H65424   8.684   7.568   1.960 -0.3445 -2.3196 -3.6031
  485MOL0     H65425   8.800   7.436   1.979 -2.8420 -0.4438  0.5732
  485MOL0     H65426   8.783   7.796   2.113 -0.1554  0.5557  1.4150
  485MOL0     H65427   8.802   7.831   2.413 -0.7651  0.1159 -0.4082
  485MOL0     H65428   8.968   7.781   2.471 -0.2258 -1.2694 -0.2618
  485MOL0     H65429   8.865   7.983   2.273 -1.0195 -1.1829  1.1446
  485MOL0     H65430   8.968   8.022   2.410 -1.4669 -0.8066  0.6572
  485MOL0     H65431   9.111   8.033   2.203  0.2031 -0.6724  0.3055
  485MOL0     H65432   9.055   7.865   2.152  1.9910 -2.4519  0.0517
  485MOL0     H65433   9.272   7.855   2.213 -0.2196  4.7425 -1.8952
  485MOL0     H65434   9.173   7.766   2.327 -0.5910 -1.1489 -2.6544
  485MOL0     H65435   9.418   7.744   2.352  2.3233  1.0771 -1.9551
  485MOL0     H65436   9.633   7.711   2.463  0.6977  1.0776 -0.5630
  485MOL0     H65437  10.014   8.104   2.724  3.7568  1.2582  1.2569
  485MOL0     H65438  10.212   8.076   2.854  1.6610 -0.4696  0.6581
  485MOL0     H65439  10.264   7.743   3.128 -1.9164  0.6395  0.1980
  485MOL0     H65440  10.347   7.739   2.986 -0.5721  2.7788 -2.8688
  485MOL0     H65441  10.455   7.903   3.212  2.4517  0.8281 -0.1243
  485MOL0     H65442  10.505   7.738   3.173  2.4810  0.5944 -2.0480
  485MOL0     H65443  10.588   7.815   2.952 -2.9168  0.3178 -1.4420
  485MOL0     H65444  10.538   7.983   2.996  4.1636  1.1668 -0.2399
  485MOL0     H65445  10.739   7.810   3.149  0.2481 -0.1832  1.1480
  485MOL0     H65446  10.686   7.987   3.176 -0.3469  2.8265 -2.7099
  485MOL0     H65447  10.736   8.042   2.953 -0.5741 -0.0803  0.5782
  485MOL0     H65448  10.816   7.887   2.935 -3.9648 -2.8313  2.1266
  485MOL0     H65449  10.976   8.089   2.977 -1.8592  2.4578  0.8106
  485MOL0     H65450  10.908   8.095   3.142 -1.9743 -0.1847  0.5084
  485MOL0     H65451  11.047   7.846   3.005  2.1400 -3.5930  3.5583
  485MOL0     H65452  10.995   7.847   3.169 -2.1620 -1.1449 -1.6514
  485MOL0     H65453  11.167   8.047   3.039  1.7532 -0.9210 -1.5387
  485MOL0     H65454  11.172   8.030   3.205  2.3008 -0.8582 -0.7198
  485MOL0     H65455  10.046   7.756   3.080  2.3944  1.7345  1.6701
  485MOL0     H65456   9.831   7.769   2.953  2.2409 -1.5741  1.3782
  485MOL0     H65457   9.595   8.084   2.666  1.5402 -0.9358 -0.0246
  485MOL0     H65458   9.372   8.114   2.565  0.6788  0.8450 -1.1354
  485MOL0     H65459   8.563   7.508   1.005  0.7069 -0.4262  1.7117
  485MOL0     H65460   8.332   7.512   0.981  1.6029  1.2146 -0.5126
  485MOL0     H65461   7.938   7.354   1.280 -2.3182 -1.5360 -0.3340
  485MOL0     H65462   7.709   7.297   1.272  1.1213  0.1344  1.1444
  485MOL0     H65463   7.494   7.262   1.195 -2.0106 -0.0828 -1.3112
  485MOL0     H65464   7.345   7.368   1.223 -0.7537  0.1671  2.7674
  485MOL0     H65465   7.551   7.342   1.442 -1.4102 -0.4074  1.2186
  485MOL0     H65466   7.418   7.237   1.421 -1.5517  1.2400  0.1458
  485MOL0     H65467   7.352   7.534   1.426 -1.0613 -1.3844 -2.5550
  485MOL0     H65468   7.409   7.441   1.571 -1.6748 -2.6608  0.8467
  485MOL0     H65469   7.152   7.465   1.546  2.5319 -0.5009  3.2052
  485MOL0     H65470   7.146   7.357   1.414 -1.9828  1.6771  0.4157
  485MOL0     H65471   7.136   7.092   1.729 -2.6825  1.1067  0.0682
  485MOL0     H65472   7.605   7.675   1.116  1.2647  1.2287 -0.8330
  485MOL0     H65473   7.774   7.837   1.075 -0.9230 -1.8928 -2.7296
  485MOL0     H65474   7.913   7.820   1.186 -2.7912  2.5684  0.4542
  485MOL0     H65475   7.923   7.769   1.011  0.9330 -0.9060  0.9484
  486MOL0     O65476   8.276  11.189  10.465 -0.8215  0.5039  0.1069
  486MOL0     C65477   8.221  11.253  10.379 -0.3675 -0.9316  0.3275
  486MOL0     O65478   8.284  11.325  10.280 -0.2202 -0.4314 -0.4174
  486MOL0     C65479   8.398  11.284  10.220 -0.4677 -0.2362  0.4799
  486MOL0     C65480   8.486  11.171  10.240 -0.6825  0.8208  0.9810
  486MOL0     C65481   8.606  11.159  10.162 -0.1919  0.0174 -0.1127
  486MOL0     C65482   8.646  11.257  10.072  0.4535  0.3057  0.0277
  486MOL0     O65483   8.737  11.237   9.970 -1.0529 -0.7928 -0.3543
  486MOL0     C65484   8.827  11.121   9.988  0.7781 -0.0544 -0.2791
  486MOL0     C65485   8.923  11.102   9.868 -0.2978 -0.0857 -1.0839
  486MOL0     C65486   9.058  11.188   9.882  0.2156  0.1124  0.5903
  486MOL0     C65487   9.149  11.162   9.754  0.9632 -0.3133  0.5984
  486MOL0     C65488   9.287  11.205   9.792  0.5140 -0.1760 -0.3782
  486MOL0     C65489   9.399  11.169   9.692  0.4843  0.3583 -0.6360
  486MOL0     C65490   9.531  11.142   9.764  1.3525 -1.2771 -0.4418
  486MOL0     C65491   9.650  11.147   9.678 -0.1075 -0.2609 -0.4459
  486MOL0     N65492   9.768  11.123   9.755  0.0776  0.1980 -0.3342
  486MOL0     C65493   9.799  11.020   9.837 -0.5646 -0.4286  0.2519
  486MOL0     C65494   9.916  11.050   9.891  0.5294 -0.3829  0.2964
  486MOL0     C65495   9.987  10.972   9.990 -0.3580  0.4278 -0.9594
  486MOL0     C65496  10.016  11.057  10.112  0.5577  0.4288 -0.3091
  486MOL0     C65497  10.087  10.973  10.217 -0.7415 -0.7698 -0.3548
  486MOL0     C65498  10.223  10.935  10.186  0.7031  0.0485  0.2729
  486MOL0     O65499  10.287  10.897  10.312 -0.6227  0.4346 -0.1442
  486MOL0     C65500  10.413  10.848  10.286  0.2086 -0.3266 -0.8241
  486MOL0     C65501  10.500  10.880  10.181  0.0871 -0.3367 -0.5627
  486MOL0     C65502  10.617  10.811  10.181 -0.7578  0.0364  0.3058
  486MOL0     C65503  10.661  10.715  10.274  0.2245  1.1549  1.0220
  486MOL0     C65504  10.780  10.629  10.266 -0.2859  0.2535  0.5912
  486MOL0     O65505  10.761  10.497  10.311  0.1142 -0.2740  0.3513
  486MOL0     C65506  10.842  10.393  10.279  0.3614  0.0958 -0.8977
  486MOL0     C65507  10.786  10.285  10.209 -0.7929 -0.1662 -0.3677
  486MOL0     C65508  10.857  10.168  10.201  0.4873 -0.0235 -0.3316
  486MOL0     C65509  10.986  10.149  10.256  0.5070 -0.1979 -0.5540
  486MOL0     O65510  11.052  10.026  10.236  0.3023 -0.0621 -0.8967
  486MOL0     C65511  11.074   9.979  10.103  0.1504  0.2797 -0.3138
  486MOL0     C65512  11.021   9.840  10.074 -0.1496  0.3504 -0.1138
  486MOL0     C65513  10.869   9.832  10.061 -0.9914  0.3987  0.0089
  486MOL0     C65514  10.824   9.694   9.997 -0.7088  0.2866  0.1171
  486MOL0     C65515  10.681   9.676   9.991 -0.5116  0.3089  1.5045
  486MOL0     C65516  10.639   9.533   9.931  0.3774  0.0043 -0.0119
  486MOL0     C65517  10.485   9.539   9.900 -0.4108 -0.1543 -0.1743
  486MOL0     C65518  10.420   9.401   9.886  0.4105  0.2522 -0.6977
  486MOL0    Cl65519  10.264   9.438   9.824  0.0196  0.0468 -0.6349
  486MOL0     C65520  11.041  10.252  10.331  0.0624 -0.4951 -0.0241
  486MOL0     C65521  10.964  10.376  10.346 -0.1370  0.5854 -0.3732
  486MOL0     O65522  10.872  10.668  10.197 -0.0222  0.9169 -0.3252
  486MOL0     C65523  10.575  10.689  10.380 -0.9943 -0.1299 -0.6922
  486MOL0     C65524  10.458  10.759  10.382 -0.0568  0.9855 -0.4546
  486MOL0     N65525   9.969  11.164   9.838  0.3963 -0.6307 -0.1414
  486MOL0     N65526   9.875  11.210   9.756  0.1998 -0.4298  0.0158
  486MOL0     C65527   8.565  11.368  10.057 -1.2898 -0.5433 -0.7920
  486MOL0     C65528   8.449  11.383  10.137 -0.1958  0.7841  0.0565
  486MOL0     C65529   8.076  11.265  10.387  0.0880  0.2560  1.0384
  486MOL0     C65530   8.017  11.302  10.514 -0.2291 -0.6073  0.5344
  486MOL0     C65531   7.878  11.313  10.520 -0.1503 -0.2840  0.6557
  486MOL0     C65532   7.800  11.296  10.405  0.5325 -0.4186  0.7263
  486MOL0     O65533   7.669  11.327  10.403 -0.5131 -0.1833 -0.4579
  486MOL0     C65534   7.592  11.355  10.526  0.3093 -0.5754 -0.6351
  486MOL0     C65535   7.546  11.224  10.595  0.0953 -0.2380 -0.7359
  486MOL0     C65536   7.494  11.256  10.743 -0.5396  0.1119 -0.3228
  486MOL0     C65537   7.449  11.136  10.830  0.5256 -0.3257  0.2025
  486MOL0     C65538   7.554  11.028  10.842  0.7145 -0.4947 -0.0445
  486MOL0     C65539   7.638  10.946  10.857 -0.0231  0.1155 -0.1861
  486MOL0     C65540   7.862  11.265  10.278 -0.4785  0.0065 -1.1550
  486MOL0     C65541   8.000  11.251  10.271 -0.3599 -0.4476 -0.1993
  486MOL0     C65542   8.057  11.211  10.137 -0.2085  1.0531 -0.1695
  486MOL0     H65543   8.455  11.088  10.302  3.4419 -3.1086 -1.5676
  486MOL0     H65544   8.675  11.076  10.176 -0.2404  0.2265  1.6081
  486MOL0     H65545   8.879  11.125  10.085 -1.3683 -1.5587  1.0163
  486MOL0     H65546   8.771  11.027   9.986  0.1563  0.2957  0.1410
  486MOL0     H65547   8.869  11.118   9.774 -0.9266 -2.2081 -1.1388
  486MOL0     H65548   8.943  10.995   9.875  1.1271  0.2752  2.3858
  486MOL0     H65549   9.100  11.150   9.975 -1.6628 -2.1422  0.6030
  486MOL0     H65550   9.033  11.293   9.899  1.7826  0.0928  3.7114
  486MOL0     H65551   9.144  11.057   9.725 -0.4377  0.7035 -3.4985
  486MOL0     H65552   9.120  11.222   9.668  1.1349  0.1243  0.8430
  486MOL0     H65553   9.282  11.313   9.804 -0.6166  0.0420 -2.3909
  486MOL0     H65554   9.310  11.151   9.885 -2.1579  1.3606  1.2948
  486MOL0     H65555   9.361  11.082   9.638  1.6633 -0.9611  0.5958
  486MOL0     H65556   9.415  11.249   9.618  0.5935  0.8435 -0.0955
  486MOL0     H65557   9.525  11.048   9.819 -2.9508 -0.9590 -0.0407
  486MOL0     H65558   9.546  11.218   9.841  2.4164  0.2940 -2.1104
  486MOL0     H65559   9.647  11.077   9.594 -0.1461 -2.4157  1.2682
  486MOL0     H65560   9.656  11.248   9.636  0.9178  0.5313  1.4543
  486MOL0     H65561   9.733  10.935   9.854  0.0627 -1.0405 -0.3194
  486MOL0     H65562   9.945  10.875  10.017  4.2765 -1.8495 -1.0117
  486MOL0     H65563  10.082  10.952   9.939  1.2388  1.3428  1.4718
  486MOL0     H65564  10.066  11.148  10.077 -0.4554  0.7116 -1.0641
  486MOL0     H65565   9.922  11.086  10.159  0.7258  2.3855 -1.0794
  486MOL0     H65566  10.022  10.886  10.230  0.0343 -1.3062 -0.0397
  486MOL0     H65567  10.087  11.039  10.305 -0.1706  1.5462 -1.9913
  486MOL0     H65568  10.276  11.021  10.144 -0.7780  0.1795 -1.4180
  486MOL0     H65569  10.224  10.856  10.110  0.2175  1.4178 -1.2016
  486MOL0     H65570  10.477  10.950  10.102 -0.2538  0.1607 -0.0294
  486MOL0     H65571  10.694  10.834  10.108 -0.3782 -2.4994 -0.1925
  486MOL0     H65572  10.683  10.293  10.176 -0.8711  0.3396 -0.0089
  486MOL0     H65573  10.811  10.090  10.142  1.2308  0.3018 -1.3676
  486MOL0     H65574  11.022  10.039  10.028 -0.4652 -0.5010 -0.5202
  486MOL0     H65575  11.180   9.990  10.079 -0.0098 -1.0677 -1.7898
  486MOL0     H65576  11.060   9.822   9.973 -3.0562  2.4354 -1.8068
  486MOL0     H65577  11.063   9.761  10.135  0.7855  0.6217 -0.3808
  486MOL0     H65578  10.821   9.833  10.159 -0.2442  1.9437  0.3874
  486MOL0     H65579  10.830   9.906   9.990  0.1342 -0.2334 -1.3120
  486MOL0     H65580  10.868   9.614  10.058  1.1326  0.8737 -0.3609
  486MOL0     H65581  10.875   9.690   9.900 -1.5195 -0.1138 -0.2990
  486MOL0     H65582  10.639   9.752   9.926 -1.2019 -1.2996 -0.0169
  486MOL0     H65583  10.651   9.693  10.095 -1.3090 -0.0108  1.3277
  486MOL0     H65584  10.691   9.517   9.836 -2.2070  0.1141 -1.5281
  486MOL0     H65585  10.663   9.455  10.005 -2.4210  0.2880  1.3350
  486MOL0     H65586  10.474   9.593   9.806 -1.5702  0.4605  0.2930
  486MOL0     H65587  10.439   9.591   9.984  0.5055  2.2288 -1.0562
  486MOL0     H65588  10.477   9.334   9.822  1.0981  0.7242 -0.5801
  486MOL0     H65589  10.417   9.346   9.981  3.8602  0.7345 -0.2039
  486MOL0     H65590  11.137  10.240  10.379  2.2755  1.7381 -3.4809
  486MOL0     H65591  10.998  10.445  10.422 -0.0021  0.3687 -0.2344
  486MOL0     H65592  10.588  10.611  10.454 -0.2048 -0.2371 -0.9356
  486MOL0     H65593  10.391  10.730  10.462 -1.5365 -0.2595 -2.0824
  486MOL0     H65594   8.589  11.445   9.985 -1.9803 -0.7663 -1.2805
  486MOL0     H65595   8.390  11.473  10.126 -1.9905 -0.2368  0.8873
  486MOL0     H65596   8.075  11.304  10.605 -4.7784  0.4699  3.7515
  486MOL0     H65597   7.842  11.337  10.620 -0.0933 -1.3442  0.9454
  486MOL0     H65598   7.503  11.415  10.503  0.3429 -0.1965  0.1753
  486MOL0     H65599   7.644  11.421  10.596 -1.3353  1.1422 -0.9454
  486MOL0     H65600   7.634  11.163  10.617 -0.6027 -0.9672  0.0977
  486MOL0     H65601   7.471  11.159  10.549 -0.2555 -1.5371  1.5012
  486MOL0     H65602   7.418  11.335  10.737 -0.9532  0.1680  3.4497
  486MOL0     H65603   7.589  11.292  10.783  0.0479  1.0527 -2.4028
  486MOL0     H65604   7.433  11.177  10.930  2.9233 -0.9818  0.9159
  486MOL0     H65605   7.348  11.097  10.812  0.3213  0.6070 -0.8058
  486MOL0     H65606   7.714  10.879  10.890 -1.4375 -1.1770  0.5971
  486MOL0     H65607   7.802  11.249  10.189  0.3240  0.8444 -1.8791
  486MOL0     H65608   8.023  11.277  10.057 -2.5132  1.0387  0.7249
  486MOL0     H65609   8.166  11.208  10.131 -0.1003  4.7360 -3.7115
  486MOL0     H65610   8.044  11.106  10.108 -0.5994  1.2924 -0.8791
  487MOL0     O65611   5.589   0.189  10.267 -0.1235  0.2320 -0.2724
  487MOL0     C65612   5.598   0.309  10.283  0.1702 -0.0287 -0.1724
  487MOL0     O65613   5.699   0.381  10.228 -0.4864 -0.8325 -0.2330
  487MOL0     C65614   5.777   0.312  10.130  1.1433 -0.6427  0.2161
  487MOL0     C65615   5.770   0.346  10.001  0.1577  1.2143  0.3576
  487MOL0     C65616   5.868   0.291   9.903 -0.6891 -0.3575  0.5740
  487MOL0     C65617   5.970   0.214   9.954 -0.0499 -0.7805  0.2632
  487MOL0     O65618   6.063   0.167   9.858 -0.3609  0.6401  0.1910
  487MOL0     C65619   6.121   0.029   9.883 -0.8543 -0.1134  0.2695
  487MOL0     C65620   6.203  -0.023   9.767 -0.1084  0.2691 -0.5424
  487MOL0     C65621   6.321   0.075   9.731  0.5765  0.7018  0.4077
  487MOL0     C65622   6.390   0.017   9.619  0.1512 -0.0045  0.6383
  487MOL0     C65623   6.505   0.097   9.572 -0.3720  0.3992  0.4038
  487MOL0     C65624   6.456   0.210   9.475  0.4024  0.5534  0.2654
  487MOL0     C65625   6.563   0.315   9.435  0.5314 -1.0923 -0.1861
  487MOL0     C65626   6.674   0.229   9.374 -0.2442 -0.4129 -0.4021
  487MOL0     N65627   6.791   0.304   9.331 -0.5629  0.4093 -0.5096
  487MOL0     C65628   6.912   0.301   9.390 -0.8097 -0.5701 -0.5379
  487MOL0     C65629   6.995   0.376   9.318 -0.5611 -0.4107 -0.3384
  487MOL0     C65630   7.144   0.403   9.348  0.3652  0.5104 -0.0221
  487MOL0     C65631   7.184   0.545   9.325  0.6134 -0.2896 -0.4394
  487MOL0     C65632   7.315   0.566   9.390  0.1498  0.0185  0.1952
  487MOL0     C65633   7.346   0.704   9.424  0.5708 -0.5625  1.1141
  487MOL0     O65634   7.466   0.711   9.500 -1.2180 -0.0482  0.0988
  487MOL0     C65635   7.557   0.818   9.490 -0.0890 -0.5480 -0.4688
  487MOL0     C65636   7.525   0.950   9.443  0.0287  0.1054 -0.7857
  487MOL0     C65637   7.628   1.050   9.438  0.2503  0.3849  0.7585
  487MOL0     C65638   7.761   1.023   9.468 -0.5559  0.3730  0.1242
  487MOL0     C65639   7.859   1.130   9.452 -0.4393  0.1414 -0.5033
  487MOL0     O65640   7.985   1.094   9.497  0.0912 -0.4337  0.5584
  487MOL0     C65641   8.091   1.179   9.481 -0.6049  0.0832  0.3023
  487MOL0     C65642   8.118   1.251   9.357 -0.1391 -0.1363 -0.1009
  487MOL0     C65643   8.237   1.324   9.343  0.9079  0.1815  0.2603
  487MOL0     C65644   8.327   1.331   9.454 -0.5318  0.5501  0.3576
  487MOL0     O65645   8.455   1.392   9.443 -0.3740 -0.4726 -0.1070
  487MOL0     C65646   8.518   1.405   9.318 -0.4780  0.3637  0.7500
  487MOL0     C65647   8.657   1.443   9.335 -0.3901  0.0010  0.7249
  487MOL0     C65648   8.723   1.468   9.199 -0.0462  0.2671 -0.1633
  487MOL0     C65649   8.874   1.490   9.231  0.0144  0.9297 -0.4650
  487MOL0     C65650   8.958   1.523   9.108  0.3238 -0.0950  0.6001
  487MOL0     C65651   8.945   1.672   9.084 -0.8587 -0.1451  0.0784
  487MOL0     C65652   9.015   1.709   8.951  1.1233 -0.7177  0.3134
  487MOL0     C65653   8.973   1.843   8.885 -0.0980  0.1206 -1.2669
  487MOL0    Cl65654   8.953   1.987   9.000  0.0242  0.5263 -0.2630
  487MOL0     C65655   8.292   1.265   9.573  0.2836  0.5116  0.9310
  487MOL0     C65656   8.180   1.188   9.589 -0.0086  0.4372 -0.6126
  487MOL0     O65657   7.827   1.244   9.421  0.3866  0.2376  0.8708
  487MOL0     C65658   7.796   0.895   9.519 -0.2613  0.3067 -0.3015
  487MOL0     C65659   7.690   0.801   9.525 -0.2160 -0.1085  0.1380
  487MOL0     N65660   6.916   0.421   9.211 -0.0103  0.5017 -0.9742
  487MOL0     N65661   6.792   0.379   9.217 -0.0357  0.4901  0.1247
  487MOL0     C65662   5.976   0.188  10.090  0.3812  0.2956  0.6302
  487MOL0     C65663   5.876   0.229  10.177 -0.0167  1.2757  0.0684
  487MOL0     C65664   5.486   0.386  10.349  0.2201 -0.1741  0.3269
  487MOL0     C65665   5.515   0.515  10.379 -0.1234 -0.8662 -0.0899
  487MOL0     C65666   5.416   0.605  10.441  0.4693 -0.3930 -0.2623
  487MOL0     C65667   5.279   0.555  10.448 -0.7311 -0.9700 -0.6169
  487MOL0     O65668   5.171   0.616  10.499  1.0542  0.5162  0.0183
  487MOL0     C65669   5.163   0.757  10.494  0.3242 -0.4934 -0.0125
  487MOL0     C65670   5.060   0.807  10.593 -0.1526 -0.0694  1.2637
  487MOL0     C65671   4.917   0.743  10.577  0.3562 -0.4638  0.2726
  487MOL0     C65672   4.836   0.778  10.697  0.3930 -1.0446  0.0357
  487MOL0     C65673   4.706   0.712  10.692 -0.6737 -0.2838 -0.1440
  487MOL0     C65674   4.593   0.665  10.689 -0.0582  0.1977 -0.2650
  487MOL0     C65675   5.250   0.429  10.403 -0.0774  0.2345  0.2484
  487MOL0     C65676   5.350   0.341  10.360 -0.8657 -0.1916 -0.0614
  487MOL0     C65677   5.314   0.193  10.314  0.4596 -0.5115  0.0981
  487MOL0     H65678   5.694   0.416   9.966  1.7745  1.7997 -2.2710
  487MOL0     H65679   5.864   0.313   9.796  1.7972 -1.7862  0.1145
  487MOL0     H65680   6.190   0.034   9.968  0.4772  0.8082 -0.8129
  487MOL0     H65681   6.043  -0.045   9.903 -0.0080 -1.5597 -1.4447
  487MOL0     H65682   6.145  -0.033   9.675 -1.3831  2.1703  0.0045
  487MOL0     H65683   6.247  -0.120   9.791 -0.9298  0.2420  0.9595
  487MOL0     H65684   6.388   0.083   9.817  0.3344  2.3463  0.4882
  487MOL0     H65685   6.282   0.175   9.707 -0.6829  0.3543  0.8994
  487MOL0     H65686   6.414  -0.086   9.647 -1.4331 -1.0456 -1.5982
  487MOL0     H65687   6.315   0.007   9.540 -2.7177  2.2944  2.8411
  487MOL0     H65688   6.556   0.141   9.659 -1.6482 -0.4340  1.6209
  487MOL0     H65689   6.576   0.029   9.526 -1.0119 -0.3760  0.5287
  487MOL0     H65690   6.414   0.161   9.387  0.0676 -1.6086  1.5658
  487MOL0     H65691   6.376   0.271   9.518 -0.0764 -0.1419  0.3654
  487MOL0     H65692   6.614   0.366   9.517  2.9648 -1.3508 -1.4218
  487MOL0     H65693   6.534   0.387   9.357  0.1513 -0.0823  0.8636
  487MOL0     H65694   6.720   0.163   9.449  2.0201 -0.8383 -2.0601
  487MOL0     H65695   6.634   0.170   9.291 -0.5798 -1.3373  0.3893
  487MOL0     H65696   6.950   0.252   9.478  0.8265  1.8692  0.2287
  487MOL0     H65697   7.161   0.372   9.452  3.7986  0.1835 -0.5738
  487MOL0     H65698   7.196   0.338   9.277  2.6087  2.0375  0.1228
  487MOL0     H65699   7.184   0.573   9.220 -1.7107 -0.0140 -0.4180
  487MOL0     H65700   7.105   0.598   9.379 -0.1575 -2.2972  0.4969
  487MOL0     H65701   7.389   0.508   9.334 -3.2001 -3.1685 -1.3356
  487MOL0     H65702   7.319   0.515   9.487  0.4926 -0.6534 -0.1612
  487MOL0     H65703   7.258   0.749   9.470  1.2572  1.9454  0.1603
  487MOL0     H65704   7.363   0.755   9.328  2.0253 -3.2009 -0.1317
  487MOL0     H65705   7.425   0.989   9.425 -0.4040  2.3187  4.5040
  487MOL0     H65706   7.597   1.148   9.403  1.5693  0.3990 -0.4804
  487MOL0     H65707   8.041   1.237   9.283 -1.9605  1.1888  1.4471
  487MOL0     H65708   8.265   1.380   9.255 -2.1329 -0.8795 -1.4879
  487MOL0     H65709   8.516   1.306   9.272 -1.1727  0.3676  0.7633
  487MOL0     H65710   8.465   1.480   9.258 -1.2702 -1.8189 -1.4845
  487MOL0     H65711   8.647   1.540   9.385  1.6195  0.4769  0.2749
  487MOL0     H65712   8.715   1.366   9.387 -0.9306 -0.4018  0.7449
  487MOL0     H65713   8.717   1.381   9.132 -0.8062  0.4314 -0.3168
  487MOL0     H65714   8.678   1.552   9.147  1.3453  0.1604 -1.6507
  487MOL0     H65715   8.915   1.398   9.272  0.8887  1.2014 -0.7088
  487MOL0     H65716   8.892   1.562   9.311  0.3100  0.2087  0.1234
  487MOL0     H65717   8.926   1.459   9.025  0.4669  0.3239  0.2194
  487MOL0     H65718   9.064   1.510   9.132  0.7440  0.3884 -0.8534
  487MOL0     H65719   8.842   1.707   9.074 -0.4237  1.2275  0.2212
  487MOL0     H65720   8.990   1.731   9.164 -2.6088  1.5641 -0.1317
  487MOL0     H65721   8.988   1.631   8.880 -0.4710  2.6688 -3.1844
  487MOL0     H65722   9.123   1.716   8.968  1.4411  3.6050 -2.0637
  487MOL0     H65723   9.046   1.877   8.811  2.5913  0.6747  1.4057
  487MOL0     H65724   8.879   1.814   8.839 -1.1793  0.1586  0.7921
  487MOL0     H65725   8.360   1.269   9.658  0.9168 -1.5465  0.5764
  487MOL0     H65726   8.149   1.136   9.679 -0.1412  1.6324  0.0548
  487MOL0     H65727   7.899   0.874   9.546  0.4143  0.1564 -2.7251
  487MOL0     H65728   7.718   0.704   9.565  2.1263 -0.2947 -1.7116
  487MOL0     H65729   6.056   0.127  10.132 -1.0354 -0.9606  1.6391
  487MOL0     H65730   5.888   0.205  10.282 -2.5818 -1.0028 -0.0379
  487MOL0     H65731   5.616   0.555  10.372  0.2518 -1.6291  0.7095
  487MOL0     H65732   5.456   0.692  10.492 -0.4784 -0.3574  0.4223
  487MOL0     H65733   5.134   0.787  10.393  0.5746 -2.4690 -0.7105
  487MOL0     H65734   5.258   0.807  10.514 -0.5254  0.0957  2.9315
  487MOL0     H65735   5.051   0.916  10.589 -0.2486 -0.1004 -0.1097
  487MOL0     H65736   5.098   0.775  10.690 -0.6940 -1.8229  0.9339
  487MOL0     H65737   4.920   0.634  10.588 -2.3336 -0.6017  0.5192
  487MOL0     H65738   4.868   0.775  10.484 -1.4030  0.4992  1.4682
  487MOL0     H65739   4.888   0.760  10.791  4.1381 -2.6926 -2.1380
  487MOL0     H65740   4.814   0.884  10.708 -1.0923 -1.5782  3.3124
  487MOL0     H65741   4.493   0.627  10.695  0.5904 -1.4094  1.0811
  487MOL0     H65742   5.148   0.391  10.407  0.2285 -1.1018 -2.3225
  487MOL0     H65743   5.368   0.125  10.380 -0.0890 -0.4441  0.6297
  487MOL0     H65744   5.207   0.170  10.306  0.1656  1.1340 -1.2742
  487MOL0     H65745   5.343   0.186  10.209  0.7311 -0.1735  0.1465
  488MOL0     O65746  10.875   6.289   6.580 -0.2945  0.2749  0.2066
  488MOL0     C65747  10.799   6.191   6.589  0.0563 -0.8605 -0.1342
  488MOL0     O65748  10.799   6.112   6.698 -0.4410 -0.6154 -0.4175
  488MOL0     C65749  10.908   6.109   6.793 -0.5190 -0.4002  0.8895
  488MOL0     C65750  10.887   6.055   6.924  0.7021 -0.1636  0.3969
  488MOL0     C65751  10.999   6.041   7.008  1.3616 -0.1539 -0.2685
  488MOL0     C65752  11.129   6.062   6.970 -0.4777  0.6384  1.0515
  488MOL0     O65753  11.236   6.050   7.057  0.4879  0.2774 -0.7010
  488MOL0     C65754  11.371   6.058   7.012  0.1542  0.3415 -0.5102
  488MOL0     C65755  11.470   6.010   7.110  0.8986  0.3949 -0.0964
  488MOL0     C65756  11.616   6.029   7.060 -0.1894 -0.7083 -0.2020
  488MOL0     C65757  11.711   6.016   7.186  0.4975 -0.2920 -0.2734
  488MOL0     C65758  11.850   6.055   7.155 -0.1035  0.4894  0.4148
  488MOL0     C65759  11.925   5.943   7.074 -0.0673 -0.6243  0.1218
  488MOL0     C65760  12.073   5.960   7.081 -1.1750 -0.2270  0.2170
  488MOL0     C65761  12.160   5.841   7.018 -0.5024  0.1741  0.2815
  488MOL0     N65762  12.297   5.858   7.080 -0.4062  0.2311  0.2356
  488MOL0     C65763  12.332   5.830   7.204 -0.3949 -0.5637  0.2412
  488MOL0     C65764  12.457   5.876   7.224  0.2021 -0.3851 -0.6437
  488MOL0     C65765  12.563   5.857   7.340  0.9859  0.0062  0.4570
  488MOL0     C65766  12.575   5.973   7.439  0.1554  0.1986  0.4122
  488MOL0     C65767  12.613   6.120   7.388  0.0930 -0.1236  0.1014
  488MOL0     C65768  12.738   6.124   7.304  0.6379 -0.0034  0.3339
  488MOL0     O65769  12.846   6.061   7.370 -0.2569 -0.3002 -0.1102
  488MOL0     C65770  12.970   6.048   7.315  0.2778  0.2652  0.6437
  488MOL0     C65771  13.043   5.928   7.334 -0.1184 -0.6737  0.2399
  488MOL0     C65772  13.161   5.902   7.274 -0.1165 -0.4956 -0.0140
  488MOL0     C65773  13.218   6.005   7.195 -0.0622  0.0972  0.1062
  488MOL0     C65774  13.360   5.995   7.146 -0.0214 -0.6762 -1.1026
  488MOL0     O65775  13.435   5.894   7.195  0.2936 -0.0691 -0.0773
  488MOL0     C65776  13.573   5.895   7.178  0.8780  0.8536  0.3435
  488MOL0     C65777  13.652   6.014   7.173 -0.6903 -0.1615  1.0325
  488MOL0     C65778  13.790   6.000   7.159 -0.5678  0.0580 -0.2204
  488MOL0     C65779  13.856   5.876   7.150  0.0717 -0.1619 -0.2244
  488MOL0     O65780  13.989   5.861   7.114  0.6904 -0.0415 -0.2690
  488MOL0     C65781  14.058   5.962   7.049 -0.4776  0.4079  0.2968
  488MOL0     C65782  14.198   5.899   7.036  0.1576  0.0411 -1.0191
  488MOL0     C65783  14.289   5.938   7.156 -0.4107  0.6925 -0.5466
  488MOL0     C65784  14.422   5.864   7.160  0.2976 -0.1105  0.1580
  488MOL0     C65785  14.508   5.912   7.281  0.3198 -0.8366 -0.2742
  488MOL0     C65786  14.656   5.869   7.267  0.0722  0.1341  0.4888
  488MOL0     C65787  14.749   5.951   7.363 -0.1071  0.3274  0.7029
  488MOL0     C65788  14.895   5.914   7.336 -0.2486 -0.3485 -0.6948
  488MOL0    Cl65789  14.942   5.785   7.453  0.2392 -0.1855  0.3472
  488MOL0     C65790  13.780   5.755   7.167 -0.6948 -0.0014  0.8009
  488MOL0     C65791  13.643   5.767   7.179  0.0473  0.0363  0.2921
  488MOL0     O65792  13.388   6.064   7.048 -0.0361  0.3050  0.3049
  488MOL0     C65793  13.150   6.126   7.177 -0.3936 -0.1379 -0.1335
  488MOL0     C65794  13.020   6.143   7.234 -0.6227  0.3851  1.5902
  488MOL0     N65795  12.497   5.932   7.101  0.3395 -0.2108  0.1781
  488MOL0     N65796  12.399   5.919   7.015  0.4606 -0.1571  0.1400
  488MOL0     C65797  11.145   6.107   6.844 -0.7110  0.5769  0.1867
  488MOL0     C65798  11.044   6.128   6.753  0.3902  0.3838  0.4546
  488MOL0     C65799  10.695   6.179   6.489 -0.7961  0.7461  0.6208
  488MOL0     C65800  10.561   6.139   6.512 -0.0196 -0.3194 -0.0053
  488MOL0     C65801  10.462   6.123   6.417 -0.7643  0.1330 -1.4135
  488MOL0     C65802  10.501   6.138   6.282  0.2796  0.3465  0.3324
  488MOL0     O65803  10.423   6.121   6.171  0.1503  0.7199  0.1850
  488MOL0     C65804  10.279   6.104   6.180 -1.0790  0.3712 -0.4969
  488MOL0     C65805  10.214   6.139   6.043  0.3027  0.1333  0.2354
  488MOL0     C65806  10.075   6.087   6.041 -0.1727 -0.8502 -0.1850
  488MOL0     C65807  10.012   6.107   5.909 -0.1283 -0.1692  0.3025
  488MOL0     C65808  10.088   6.059   5.795 -0.2440 -0.8065 -0.4041
  488MOL0     C65809  10.118   6.023   5.685  0.1372 -0.6119  0.1737
  488MOL0     C65810  10.637   6.175   6.251 -0.6286 -0.2520  0.3584
  488MOL0     C65811  10.736   6.200   6.351  0.1903 -0.5849 -0.4191
  488MOL0     C65812  10.873   6.236   6.290 -0.6954 -0.5647 -0.1518
  488MOL0     H65813  10.782   6.041   6.950  0.2751  1.7669 -0.1030
  488MOL0     H65814  10.986   6.009   7.111  0.2545 -0.4894 -0.5016
  488MOL0     H65815  11.390   5.997   6.923 -0.1770 -1.7967  0.8109
  488MOL0     H65816  11.377   6.162   6.980 -2.4462 -0.1209 -2.9712
  488MOL0     H65817  11.455   5.903   7.127 -0.2079  0.6772  0.8661
  488MOL0     H65818  11.456   6.053   7.210 -0.6529  1.5996 -0.7729
  488MOL0     H65819  11.634   6.130   7.022  0.3317 -0.2172  1.2877
  488MOL0     H65820  11.647   5.965   6.976 -0.9695  0.6333 -1.5475
  488MOL0     H65821  11.668   6.068   7.272  0.1051  0.4491 -0.9044
  488MOL0     H65822  11.710   5.914   7.224  1.5168  0.2253  1.2426
  488MOL0     H65823  11.837   6.152   7.106  1.1457 -0.0114 -0.9678
  488MOL0     H65824  11.907   6.066   7.248  0.0038 -3.8676  1.0481
  488MOL0     H65825  11.910   5.837   7.098  1.9075 -1.2658 -1.1659
  488MOL0     H65826  11.896   5.958   6.970  1.8559 -0.6770 -0.4499
  488MOL0     H65827  12.100   5.986   7.184 -0.4346  0.3313 -0.1050
  488MOL0     H65828  12.089   6.054   7.027 -3.0936  0.9060  1.5265
  488MOL0     H65829  12.107   5.754   7.057 -0.5771 -0.6413 -1.5838
  488MOL0     H65830  12.156   5.837   6.909 -0.0474 -0.5718  0.2918
  488MOL0     H65831  12.282   5.773   7.281 -0.1993 -1.7848 -0.5030
  488MOL0     H65832  12.547   5.758   7.384 -2.5389 -0.3321 -1.2476
  488MOL0     H65833  12.660   5.837   7.294  1.4440  0.8980  1.0217
  488MOL0     H65834  12.479   5.983   7.492 -1.2208  1.3115 -2.1166
  488MOL0     H65835  12.648   5.944   7.515 -0.9030  1.1345  1.8513
  488MOL0     H65836  12.617   6.177   7.481 -2.1790 -0.3613  0.4019
  488MOL0     H65837  12.523   6.165   7.343  0.0597 -0.7813 -0.5047
  488MOL0     H65838  12.758   6.231   7.289 -0.1602  0.1558  0.3481
  488MOL0     H65839  12.713   6.079   7.207  0.9434  0.3073  0.1054
  488MOL0     H65840  13.006   5.858   7.409  3.3095 -2.6434  0.3143
  488MOL0     H65841  13.216   5.811   7.294  1.3575  0.8654  2.4873
  488MOL0     H65842  13.603   6.110   7.185  3.3862  2.2089  0.6898
  488MOL0     H65843  13.841   6.095   7.145 -1.1160  0.6124  1.3493
  488MOL0     H65844  14.012   5.974   6.951  1.7975  0.5596 -0.8230
  488MOL0     H65845  14.055   6.059   7.101  3.2703  1.1324 -0.5146
  488MOL0     H65846  14.196   5.790   7.026 -0.4469  0.1006 -1.6787
  488MOL0     H65847  14.244   5.935   6.944 -1.6619 -2.3471 -3.0007
  488MOL0     H65848  14.317   6.042   7.140 -3.4358  2.1195  2.2329
  488MOL0     H65849  14.230   5.931   7.248 -2.7366  0.9530 -1.9149
  488MOL0     H65850  14.485   5.880   7.072  0.4442  1.7521  0.5638
  488MOL0     H65851  14.401   5.757   7.157  1.4326 -0.4030  1.6464
  488MOL0     H65852  14.475   5.865   7.374  1.5119 -0.2486  0.4762
  488MOL0     H65853  14.493   6.020   7.291  1.6618 -0.4847 -1.6785
  488MOL0     H65854  14.668   5.762   7.289 -0.1890 -0.4479 -1.9639
  488MOL0     H65855  14.690   5.877   7.164  2.6200  0.6305  1.2983
  488MOL0     H65856  14.724   5.937   7.468 -1.5829  0.9483  0.4553
  488MOL0     H65857  14.737   6.052   7.323 -2.4830 -1.0569 -2.5695
  488MOL0     H65858  14.916   5.882   7.234 -2.5393 -0.1287 -1.2984
  488MOL0     H65859  14.958   5.998   7.368  0.1288 -1.0429  0.4327
  488MOL0     H65860  13.829   5.659   7.176 -1.8355 -0.8348 -1.1508
  488MOL0     H65861  13.588   5.673   7.185 -1.0128  0.6907  1.1635
  488MOL0     H65862  13.200   6.199   7.114  0.4522  0.0754  0.7656
  488MOL0     H65863  12.979   6.243   7.227  2.4567  1.7248  1.5100
  488MOL0     H65864  11.247   6.115   6.809 -0.1807  0.9775  1.7390
  488MOL0     H65865  11.081   6.169   6.659  0.7275  0.0089  0.4207
  488MOL0     H65866  10.512   6.131   6.608 -1.5110  0.7543 -0.6382
  488MOL0     H65867  10.360   6.101   6.445 -0.3754  0.2309  0.1844
  488MOL0     H65868  10.234   6.176   6.249  2.7472  2.1936  0.3690
  488MOL0     H65869  10.268   5.999   6.210 -0.2548  0.1828 -0.8253
  488MOL0     H65870  10.290   6.089   5.981  1.6564  1.0307  1.1126
  488MOL0     H65871  10.210   6.241   6.003 -0.4596 -0.7080 -1.9579
  488MOL0     H65872  10.009   6.138   6.112 -0.0783 -0.3052 -0.4915
  488MOL0     H65873  10.081   5.979   6.062  3.3472 -0.4674  1.5431
  488MOL0     H65874   9.911   6.065   5.906 -0.3377  0.3651 -0.3428
  488MOL0     H65875  10.002   6.215   5.898  2.1356  0.0242 -0.4082
  488MOL0     H65876  10.155   5.994   5.588  2.4510 -0.1172  0.8551
  488MOL0     H65877  10.664   6.191   6.147  0.0727 -1.5294  0.3267
  488MOL0     H65878  10.948   6.163   6.324 -1.9537 -0.9100  2.0118
  488MOL0     H65879  10.868   6.232   6.181 -0.9547  1.3588 -0.2350
  488MOL0     H65880  10.900   6.337   6.323  1.3500 -0.0459 -3.0010
  489MOL0     O65881   8.673   3.464   5.386 -0.3242  0.0147  0.0275
  489MOL0     C65882   8.644   3.468   5.263  0.3005 -0.5327 -0.2038
  489MOL0     O65883   8.511   3.460   5.210  0.2347  0.2289 -0.4498
  489MOL0     C65884   8.401   3.435   5.295 -0.4161 -0.4513  0.6191
  489MOL0     C65885   8.363   3.531   5.379 -0.1763  0.3831 -1.1899
  489MOL0     C65886   8.245   3.519   5.453 -1.1201 -0.7573  0.0612
  489MOL0     C65887   8.162   3.412   5.437  0.3426 -0.4081  0.3182
  489MOL0     O65888   8.041   3.420   5.506 -0.4650 -0.0178 -0.1539
  489MOL0     C65889   8.063   3.409   5.651 -0.8762 -0.9966  0.7021
  489MOL0     C65890   7.950   3.331   5.708 -0.0076 -0.0963  0.0330
  489MOL0     C65891   7.825   3.415   5.687 -0.4614  0.8550  0.4427
  489MOL0     C65892   7.708   3.330   5.720  0.2257  0.6218 -0.5446
  489MOL0     C65893   7.649   3.249   5.604 -0.3991 -0.3484 -0.2379
  489MOL0     C65894   7.496   3.228   5.612  0.6238  0.1437 -0.3269
  489MOL0     C65895   7.435   3.158   5.494  0.6838 -0.0450 -1.5784
  489MOL0     C65896   7.447   3.226   5.347 -0.1413  0.6283 -0.9709
  489MOL0     N65897   7.582   3.232   5.283  0.5811 -0.1181  0.7035
  489MOL0     C65898   7.654   3.350   5.268 -0.7255 -0.1842 -0.1569
  489MOL0     C65899   7.758   3.313   5.193 -0.4936 -0.2312 -0.3538
  489MOL0     C65900   7.868   3.412   5.154  0.1298  0.4299 -0.3597
  489MOL0     C65901   7.832   3.486   5.024  1.0181 -0.3691  0.7240
  489MOL0     C65902   7.807   3.390   4.899  0.0185 -0.3826  0.0225
  489MOL0     C65903   7.945   3.340   4.851  0.7766  0.5960 -0.2086
  489MOL0     O65904   8.011   3.446   4.786 -0.0956 -0.2747 -0.7259
  489MOL0     C65905   8.147   3.438   4.770  0.3072  0.2874  0.5109
  489MOL0     C65906   8.219   3.543   4.724  0.2392 -0.0596  0.4014
  489MOL0     C65907   8.352   3.528   4.672 -0.3397 -0.1420 -0.2458
  489MOL0     C65908   8.421   3.410   4.692 -0.1736 -0.4012  0.5225
  489MOL0     C65909   8.554   3.380   4.629 -0.2683 -0.3325 -0.2968
  489MOL0     O65910   8.624   3.478   4.568 -0.9190 -0.1613 -0.1061
  489MOL0     C65911   8.761   3.469   4.558  0.3129  1.2299  0.5441
  489MOL0     C65912   8.855   3.395   4.628  0.2700 -0.7767 -0.2320
  489MOL0     C65913   8.991   3.409   4.592 -0.4507 -0.2586  0.5674
  489MOL0     C65914   9.035   3.493   4.485  0.3867 -0.0894  0.5186
  489MOL0     O65915   9.158   3.507   4.430 -0.3240  0.2725  0.1267
  489MOL0     C65916   9.268   3.431   4.495 -1.3275 -0.7447  1.7557
  489MOL0     C65917   9.399   3.459   4.425 -0.0342 -0.1521 -0.4546
  489MOL0     C65918   9.515   3.373   4.469 -0.3900 -0.0268 -0.2730
  489MOL0     C65919   9.640   3.418   4.389 -0.4260  0.1679  0.3013
  489MOL0     C65920   9.774   3.357   4.429 -0.1497  0.1161 -0.7613
  489MOL0     C65921   9.839   3.423   4.553 -0.1106  0.2240 -0.9285
  489MOL0     C65922   9.981   3.376   4.568  0.1065 -1.3221 -0.4136
  489MOL0     C65923  10.001   3.295   4.694  0.1177  0.3462 -0.6811
  489MOL0    Cl65924   9.909   3.137   4.689 -0.0827 -0.3330 -0.1918
  489MOL0     C65925   8.939   3.564   4.423  0.0820 -0.1856  0.7303
  489MOL0     C65926   8.804   3.556   4.463  0.2257 -0.3900  0.0272
  489MOL0     O65927   8.595   3.263   4.645 -0.7487  0.4834  0.7177
  489MOL0     C65928   8.350   3.304   4.755 -0.8154  0.4868  0.2919
  489MOL0     C65929   8.220   3.314   4.787  1.3684 -0.2148 -0.0733
  489MOL0     N65930   7.753   3.183   5.142  0.0334  0.1370 -0.7766
  489MOL0     N65931   7.646   3.141   5.205  0.3615  0.2436  0.1866
  489MOL0     C65932   8.202   3.316   5.342  0.6914  0.6011 -1.2862
  489MOL0     C65933   8.319   3.317   5.268 -0.1047 -0.7160  0.9207
  489MOL0     C65934   8.759   3.473   5.178 -0.7788 -0.9068 -0.0771
  489MOL0     C65935   8.854   3.572   5.188 -1.2492 -0.1335 -0.1608
  489MOL0     C65936   8.979   3.568   5.121  0.8304  0.7002 -0.1149
  489MOL0     C65937   8.992   3.464   5.028  0.1524 -0.9641  0.6934
  489MOL0     O65938   9.109   3.443   4.954  0.9272 -0.2980 -0.0758
  489MOL0     C65939   9.229   3.519   4.986  0.1383 -0.0430  0.5008
  489MOL0     C65940   9.347   3.472   4.903  0.0223 -0.0963 -0.6116
  489MOL0     C65941   9.474   3.552   4.957 -0.2232 -0.2435 -0.3926
  489MOL0     C65942   9.599   3.536   4.865  0.2174 -1.5758  0.1845
  489MOL0     C65943   9.660   3.402   4.886 -0.3396 -0.4983  0.0108
  489MOL0     C65944   9.714   3.291   4.903  1.1054  0.4265 -0.6900
  489MOL0     C65945   8.897   3.366   5.012 -0.5879  0.4658  0.5816
  489MOL0     C65946   8.784   3.367   5.089  0.9222 -1.2742  0.1529
  489MOL0     C65947   8.687   3.254   5.067 -0.2676  0.0072 -0.1863
  489MOL0     H65948   8.417   3.624   5.389  0.2597 -0.0621  1.4700
  489MOL0     H65949   8.216   3.614   5.499  1.9908 -0.0984  0.8469
  489MOL0     H65950   8.160   3.362   5.676 -1.1878 -2.5613 -0.8531
  489MOL0     H65951   8.060   3.511   5.689  1.1534 -0.3755 -0.6485
  489MOL0     H65952   7.968   3.314   5.814 -2.8373  1.4157  0.8637
  489MOL0     H65953   7.942   3.232   5.661 -0.4693 -0.0937  0.1038
  489MOL0     H65954   7.818   3.458   5.586  4.2039  0.2134 -0.3842
  489MOL0     H65955   7.823   3.502   5.754 -1.2289  2.4067 -1.4820
  489MOL0     H65956   7.718   3.259   5.803  0.1144 -0.8207 -1.7125
  489MOL0     H65957   7.643   3.400   5.773  0.3199 -1.3938  2.5053
  489MOL0     H65958   7.661   3.315   5.518 -1.5308  1.8906  1.2375
  489MOL0     H65959   7.713   3.160   5.601  1.7244  1.1263 -0.9848
  489MOL0     H65960   7.484   3.158   5.695 -0.6701 -2.6734 -2.6881
  489MOL0     H65961   7.444   3.323   5.626 -0.2265 -0.2930 -0.4553
  489MOL0     H65962   7.328   3.144   5.512  1.3299  0.0228  3.7234
  489MOL0     H65963   7.481   3.058   5.490  0.2973 -0.4672  1.8286
  489MOL0     H65964   7.386   3.171   5.275 -0.1475 -1.0781  0.2740
  489MOL0     H65965   7.409   3.327   5.330  0.2672  0.7061 -1.4451
  489MOL0     H65966   7.627   3.447   5.309 -0.4614  1.2532 -3.1006
  489MOL0     H65967   7.878   3.483   5.237 -2.1807 -0.3480  0.6895
  489MOL0     H65968   7.961   3.356   5.151  0.8204  1.2232  2.6599
  489MOL0     H65969   7.738   3.540   5.043  0.1910 -1.2301 -0.7426
  489MOL0     H65970   7.911   3.559   5.002  1.7408 -1.1051  0.8635
  489MOL0     H65971   7.754   3.445   4.820  0.5442 -0.9299 -0.7183
  489MOL0     H65972   7.743   3.306   4.926  1.1044 -1.0973  0.4160
  489MOL0     H65973   7.930   3.253   4.787  2.4002 -0.8544  1.2757
  489MOL0     H65974   8.003   3.309   4.938  2.4745  1.3404 -1.0147
  489MOL0     H65975   8.179   3.643   4.711 -1.5108 -0.2471  3.3270
  489MOL0     H65976   8.405   3.610   4.624 -0.5892  1.7246  2.4422
  489MOL0     H65977   8.838   3.330   4.713 -1.5923  3.0069  2.6006
  489MOL0     H65978   9.061   3.340   4.638  0.0243 -0.8981 -1.0313
  489MOL0     H65979   9.278   3.466   4.598  0.9897  0.8966  1.0635
  489MOL0     H65980   9.251   3.324   4.489 -1.2846 -0.7292  1.3523
  489MOL0     H65981   9.378   3.450   4.318  0.0150 -1.2106 -0.3836
  489MOL0     H65982   9.424   3.564   4.444 -2.9250  0.5884 -0.2662
  489MOL0     H65983   9.539   3.407   4.570  0.3922  0.8558 -0.7338
  489MOL0     H65984   9.490   3.267   4.463  1.1384 -0.4556  0.2470
  489MOL0     H65985   9.640   3.527   4.399  2.2856  0.2124  0.7143
  489MOL0     H65986   9.620   3.401   4.282 -3.1579 -0.8439  0.9075
  489MOL0     H65987   9.835   3.368   4.339 -2.4980 -0.4377 -2.5411
  489MOL0     H65988   9.762   3.249   4.439  1.2160  0.2057  3.9299
  489MOL0     H65989   9.834   3.532   4.545  0.3121  0.3718  0.5048
  489MOL0     H65990   9.789   3.389   4.644  4.2915  0.0840  1.7325
  489MOL0     H65991  10.033   3.471   4.569 -2.3445  0.1717 -2.2315
  489MOL0     H65992  10.022   3.324   4.481 -2.3414 -0.6546 -2.0786
  489MOL0     H65993  10.109   3.283   4.710 -0.0736  1.3322  2.0243
  489MOL0     H65994   9.964   3.347   4.784  3.3655  0.7842  0.5372
  489MOL0     H65995   8.965   3.641   4.352  1.4478  1.6463  3.0423
  489MOL0     H65996   8.733   3.619   4.412 -0.3514  0.9124  2.3137
  489MOL0     H65997   8.400   3.209   4.772  2.2615  1.3173 -2.8730
  489MOL0     H65998   8.172   3.227   4.832 -1.4415  0.8816 -0.7413
  489MOL0     H65999   8.140   3.227   5.334  0.2447  0.7301  0.3607
  489MOL0     H66000   8.354   3.242   5.198  1.6597  2.4047 -1.7924
  489MOL0     H66001   8.847   3.656   5.256 -0.9816  1.4431 -1.9969
  489MOL0     H66002   9.047   3.653   5.123  0.4468  1.0242 -0.6197
  489MOL0     H66003   9.249   3.498   5.091  1.9513  1.1059  0.4450
  489MOL0     H66004   9.207   3.626   4.974  0.1950  0.0024  0.7905
  489MOL0     H66005   9.336   3.495   4.797  3.3944 -0.7109 -1.1928
  489MOL0     H66006   9.359   3.365   4.919 -0.0787 -0.2705 -1.6478
  489MOL0     H66007   9.495   3.538   5.063  0.0916  0.6834 -0.3292
  489MOL0     H66008   9.444   3.655   4.938  0.6627 -0.2007 -1.7081
  489MOL0     H66009   9.564   3.535   4.761  0.3678 -3.8445  0.1122
  489MOL0     H66010   9.670   3.618   4.876 -2.2862  1.0427 -1.5210
  489MOL0     H66011   9.761   3.205   4.945  1.6055  0.4775 -1.1415
  489MOL0     H66012   8.928   3.282   4.950  2.1241  2.6769 -1.2919
  489MOL0     H66013   8.749   3.165   5.049  3.4825  1.9189  2.0232
  489MOL0     H66014   8.636   3.240   5.163 -0.8670 -1.8097 -0.7216
  489MOL0     H66015   8.617   3.273   4.985  0.5456  0.9609 -0.6830
  490MOL0     O66016   7.113   2.027   1.033  0.9654  0.2372 -0.3840
  490MOL0     C66017   7.045   1.968   0.948 -0.2827 -0.4374 -0.1830
  490MOL0     O66018   7.093   1.927   0.827 -0.1225 -0.0298 -0.2764
  490MOL0     C66019   7.228   1.942   0.815  0.0449  0.9725  0.0773
  490MOL0     C66020   7.300   2.065   0.818  1.1339  0.2275  0.6558
  490MOL0     C66021   7.432   2.085   0.789  0.3848 -0.3930  0.4171
  490MOL0     C66022   7.511   1.974   0.753 -0.1835 -0.5326  0.3225
  490MOL0     O66023   7.644   2.002   0.719  0.4386 -0.0348  0.3136
  490MOL0     C66024   7.706   1.923   0.617  0.1911  0.8308  0.8954
  490MOL0     C66025   7.812   1.836   0.682  0.5407 -0.3065 -0.3267
  490MOL0     C66026   7.895   1.905   0.796  0.0461 -0.1576  0.2557
  490MOL0     C66027   7.953   2.037   0.741  0.5191 -0.2367 -0.6326
  490MOL0     C66028   8.028   2.111   0.860  0.1969 -0.6997 -0.0827
  490MOL0     C66029   8.134   2.028   0.927 -0.3411  0.9370 -0.4507
  490MOL0     C66030   8.226   2.118   1.018  0.0683 -0.1974  0.5702
  490MOL0     C66031   8.335   2.033   1.084 -0.2840  0.5437  0.0805
  490MOL0     N66032   8.276   1.914   1.153 -0.6025  0.4308  0.1076
  490MOL0     C66033   8.195   1.924   1.262 -0.2567 -0.7781  0.3420
  490MOL0     C66034   8.170   1.795   1.291 -0.2119 -1.0747  0.5456
  490MOL0     C66035   8.061   1.759   1.390 -0.3977 -0.3598 -0.0622
  490MOL0     C66036   8.074   1.827   1.525  0.3847 -0.4753  0.6114
  490MOL0     C66037   8.107   1.726   1.639  0.3335 -0.5032 -0.1927
  490MOL0     C66038   8.242   1.663   1.630  0.3404  0.1084 -0.3581
  490MOL0     O66039   8.341   1.766   1.653 -0.6309  0.1270 -0.2024
  490MOL0     C66040   8.465   1.734   1.620 -0.2264  0.0559  0.9465
  490MOL0     C66041   8.538   1.659   1.714  0.0083 -0.3455 -0.6514
  490MOL0     C66042   8.675   1.631   1.694 -0.4129 -0.0668 -0.3072
  490MOL0     C66043   8.735   1.659   1.564 -0.0027 -1.3858  0.0193
  490MOL0     C66044   8.876   1.645   1.538 -0.1419 -0.2129  0.3895
  490MOL0     O66045   8.961   1.635   1.644 -0.4302 -0.4237 -0.1704
  490MOL0     C66046   9.092   1.637   1.611  0.3346  0.2863 -0.2541
  490MOL0     C66047   9.163   1.522   1.582  0.4912 -0.7716  0.2860
  490MOL0     C66048   9.284   1.530   1.510 -0.0633 -1.1794 -0.0115
  490MOL0     C66049   9.340   1.655   1.480  0.3565 -1.0120 -1.1181
  490MOL0     O66050   9.467   1.655   1.427  0.1510  0.0482 -0.7450
  490MOL0     C66051   9.513   1.534   1.360 -0.3993 -0.0777  0.7611
  490MOL0     C66052   9.656   1.566   1.312  0.0471 -0.0624  0.8145
  490MOL0     C66053   9.751   1.578   1.429 -0.4974  0.5336 -0.8306
  490MOL0     C66054   9.843   1.458   1.434 -0.9041 -0.2156  0.1491
  490MOL0     C66055   9.943   1.462   1.554  1.3083  0.2572  0.3903
  490MOL0     C66056  10.033   1.341   1.561 -0.1996 -0.5724  0.4860
  490MOL0     C66057  10.131   1.348   1.675 -0.5389  0.0739 -0.1484
  490MOL0     C66058  10.269   1.304   1.633 -0.1039  0.1242 -0.7783
  490MOL0    Cl66059  10.279   1.140   1.583 -0.0277 -0.2443  0.3660
  490MOL0     C66060   9.272   1.773   1.520  0.4406  0.3639 -0.0331
  490MOL0     C66061   9.147   1.764   1.580 -0.4660  0.1259 -0.5760
  490MOL0     O66062   8.912   1.653   1.423 -0.6734  0.0925 -0.1018
  490MOL0     C66063   8.649   1.724   1.465  0.4290 -0.2280 -0.0109
  490MOL0     C66064   8.513   1.756   1.492 -1.0507 -0.7762 -0.3427
  490MOL0     N66065   8.236   1.707   1.207  0.9784 -0.7694 -0.7979
  490MOL0     N66066   8.281   1.784   1.114 -0.3200  0.6811  0.3782
  490MOL0     C66067   7.444   1.845   0.746  0.4603  0.3145 -0.0571
  490MOL0     C66068   7.303   1.832   0.775 -0.3489 -0.5230  0.6731
  490MOL0     C66069   6.905   1.923   0.989 -0.4786  0.5601  0.0918
  490MOL0     C66070   6.863   1.820   0.908 -0.0884 -0.5458 -0.3822
  490MOL0     C66071   6.739   1.763   0.938 -0.0638  0.1991  1.4954
  490MOL0     C66072   6.655   1.814   1.031 -0.5230  0.6768 -0.0996
  490MOL0     O66073   6.547   1.737   1.055  0.2232 -0.3830  0.6318
  490MOL0     C66074   6.432   1.794   1.114 -0.1488  0.7611 -0.3709
  490MOL0     C66075   6.362   1.894   1.036  0.4312  0.8499 -0.0604
  490MOL0     C66076   6.311   1.850   0.898  0.7366 -0.7968  0.5100
  490MOL0     C66077   6.183   1.777   0.910 -0.1276  0.1369  0.4739
  490MOL0     C66078   6.159   1.725   0.775  0.1047 -0.5143 -0.8322
  490MOL0     C66079   6.155   1.677   0.667 -0.3986  0.6288 -0.5206
  490MOL0     C66080   6.697   1.925   1.102 -0.5762  0.4083  0.2765
  490MOL0     C66081   6.819   1.987   1.084  0.3313  0.6405  0.1559
  490MOL0     C66082   6.853   2.106   1.167  0.3007  0.4653  0.1551
  490MOL0     H66083   7.239   2.150   0.846  0.6448 -0.1703  0.8119
  490MOL0     H66084   7.475   2.184   0.775  0.8717 -0.9308 -2.6796
  490MOL0     H66085   7.640   1.855   0.562 -0.2449 -2.4720  4.9991
  490MOL0     H66086   7.739   1.994   0.541 -0.5416 -0.0603 -0.2936
  490MOL0     H66087   7.877   1.798   0.602 -2.2854 -0.3325 -2.7639
  490MOL0     H66088   7.759   1.757   0.735  0.4129 -0.3759 -0.5616
  490MOL0     H66089   7.985   1.853   0.828  1.0523  1.1945 -0.2993
  490MOL0     H66090   7.825   1.918   0.879  1.6329  1.2467  1.4485
  490MOL0     H66091   8.021   2.018   0.658  0.0233 -1.9854 -0.6814
  490MOL0     H66092   7.867   2.098   0.712  0.2012  1.2342  2.8469
  490MOL0     H66093   8.072   2.205   0.826  0.5205 -0.5872  0.6287
  490MOL0     H66094   7.953   2.145   0.932 -1.9509  1.6866 -3.1332
  490MOL0     H66095   8.088   1.950   0.988  1.7999 -1.0685 -1.2694
  490MOL0     H66096   8.189   1.978   0.847  0.0473 -3.0976  2.0646
  490MOL0     H66097   8.172   2.160   1.104 -2.2145  0.7291 -1.2181
  490MOL0     H66098   8.273   2.190   0.951 -1.4951  0.0074 -0.3539
  490MOL0     H66099   8.413   1.999   1.016 -1.1692 -0.7646 -0.3111
  490MOL0     H66100   8.381   2.084   1.169  0.6156 -0.4281  0.1917
  490MOL0     H66101   8.150   2.016   1.299  1.7736 -0.0451  1.1428
  490MOL0     H66102   7.962   1.780   1.349 -0.2245  0.1897 -0.2054
  490MOL0     H66103   8.078   1.651   1.398  3.1419  0.2381  2.5628
  490MOL0     H66104   8.153   1.903   1.527  2.4235 -2.4384  3.2919
  490MOL0     H66105   7.977   1.868   1.553 -0.3754 -1.3657 -0.6196
  490MOL0     H66106   8.021   1.660   1.653 -2.8232  3.3041  0.1744
  490MOL0     H66107   8.106   1.785   1.731  0.5415  0.0148 -0.5181
  490MOL0     H66108   8.261   1.623   1.530 -0.6002 -1.1533 -0.0479
  490MOL0     H66109   8.251   1.588   1.709  3.2961  1.0628  0.3627
  490MOL0     H66110   8.483   1.656   1.807 -0.1174 -1.5490 -0.7501
  490MOL0     H66111   8.731   1.584   1.773 -0.4909  0.9731  0.3884
  490MOL0     H66112   9.110   1.427   1.589 -2.8752  0.8298 -1.2132
  490MOL0     H66113   9.317   1.431   1.481 -1.7678 -3.1538  4.1298
  490MOL0     H66114   9.526   1.451   1.430  1.7212 -1.2973 -0.9483
  490MOL0     H66115   9.441   1.511   1.280 -2.7595  3.7454  1.5070
  490MOL0     H66116   9.686   1.478   1.254 -0.8654 -0.0051  0.2234
  490MOL0     H66117   9.655   1.659   1.254 -0.2216 -1.3990 -1.4793
  490MOL0     H66118   9.813   1.668   1.421  1.7563 -0.4996  2.6405
  490MOL0     H66119   9.688   1.586   1.518 -0.2819 -1.1963 -0.4857
  490MOL0     H66120   9.910   1.462   1.348 -3.2144 -1.2899 -1.8423
  490MOL0     H66121   9.775   1.372   1.438 -1.8609  0.4628 -0.6964
  490MOL0     H66122   9.883   1.457   1.646 -0.1234 -1.2350 -0.5699
  490MOL0     H66123   9.990   1.561   1.557  0.9001  0.4331  1.5155
  490MOL0     H66124   9.969   1.254   1.579 -1.3838  0.5285  1.9788
  490MOL0     H66125  10.086   1.324   1.467  0.8263 -0.5996  1.0555
  490MOL0     H66126  10.097   1.286   1.758 -0.1223 -1.5593 -1.1438
  490MOL0     H66127  10.126   1.451   1.711 -2.0377  0.8342 -2.2877
  490MOL0     H66128  10.299   1.368   1.549  3.3861 -0.4011 -0.0962
  490MOL0     H66129  10.345   1.315   1.711  2.5523 -2.7513 -2.7157
  490MOL0     H66130   9.322   1.867   1.500 -1.6025  1.6119  0.4075
  490MOL0     H66131   9.093   1.856   1.601  0.9986  0.7437  0.6042
  490MOL0     H66132   8.685   1.751   1.366 -1.3238  0.0717 -0.6058
  490MOL0     H66133   8.458   1.804   1.412  0.4495 -0.1361 -1.0393
  490MOL0     H66134   7.490   1.751   0.718 -0.0463 -0.3630  1.3265
  490MOL0     H66135   7.247   1.739   0.777 -3.5243  1.2530  1.7944
  490MOL0     H66136   6.912   1.775   0.822 -1.7811 -1.6023 -0.8561
  490MOL0     H66137   6.705   1.672   0.890 -2.7261  2.0374 -0.4247
  490MOL0     H66138   6.457   1.827   1.215  0.7589 -2.4590  0.5906
  490MOL0     H66139   6.369   1.710   1.145  0.0729  0.5591 -0.4545
  490MOL0     H66140   6.428   1.981   1.022 -0.8536  1.6812 -1.1650
  490MOL0     H66141   6.282   1.938   1.096  1.7019 -0.0498  2.4474
  490MOL0     H66142   6.384   1.781   0.854 -0.0668 -0.9639 -0.6221
  490MOL0     H66143   6.306   1.930   0.823 -0.6142 -0.6252  0.7724
  490MOL0     H66144   6.192   1.700   0.987 -0.8908  0.5779  1.0044
  490MOL0     H66145   6.109   1.846   0.950 -1.8735 -0.1426 -2.0177
  490MOL0     H66146   6.169   1.622   0.576 -1.2089  0.6842 -0.6833
  490MOL0     H66147   6.636   1.964   1.183 -2.1732 -4.0038  1.4814
  490MOL0     H66148   6.759   2.148   1.205 -0.4609 -2.9731  2.6323
  490MOL0     H66149   6.906   2.063   1.252 -0.6654 -0.6384  0.2293
  490MOL0     H66150   6.907   2.182   1.110  2.6376  0.9560  2.8456
  491MOL0     O66151   1.030   8.354   5.508  0.7018  0.1262 -0.3917
  491MOL0     C66152   0.974   8.455   5.556 -0.1156 -0.0385 -0.2856
  491MOL0     O66153   1.036   8.566   5.600 -0.1181 -0.6051  0.9301
  491MOL0     C66154   1.175   8.572   5.594 -0.0007  0.2677 -0.2331
  491MOL0     C66155   1.257   8.492   5.673  0.0085 -0.7487 -0.1646
  491MOL0     C66156   1.402   8.507   5.665 -0.2470  1.2496  0.9429
  491MOL0     C66157   1.460   8.598   5.576 -0.6378 -0.1808 -0.4979
  491MOL0     O66158   1.593   8.616   5.553 -0.8346  0.3219 -0.5558
  491MOL0     C66159   1.691   8.546   5.635  0.4992  0.0558 -0.1919
  491MOL0     C66160   1.828   8.600   5.595 -0.1925  0.6622 -0.0068
  491MOL0     C66161   1.929   8.521   5.678 -0.1006  0.7637 -0.2060
  491MOL0     C66162   2.074   8.533   5.629  0.5286 -0.6993  0.3485
  491MOL0     C66163   2.173   8.429   5.687 -0.3285  0.3301 -0.4678
  491MOL0     C66164   2.316   8.434   5.624  0.3937 -0.7311 -0.5082
  491MOL0     C66165   2.371   8.574   5.610  0.4253 -1.3501 -0.6822
  491MOL0     C66166   2.518   8.559   5.560 -0.0276 -0.0565  0.0914
  491MOL0     N66167   2.583   8.684   5.528  0.3699 -0.4967  0.2455
  491MOL0     C66168   2.672   8.746   5.612  0.3035 -0.2453 -0.0268
  491MOL0     C66169   2.742   8.829   5.537 -0.3717 -0.2698  1.0973
  491MOL0     C66170   2.832   8.935   5.600 -0.0712  0.2322 -0.5108
  491MOL0     C66171   2.959   8.930   5.524  0.0153  0.0231  0.4692
  491MOL0     C66172   3.077   9.004   5.583 -0.7008  0.3771 -0.4995
  491MOL0     C66173   3.076   9.157   5.565  1.0440  1.0209  0.2196
  491MOL0     O66174   3.107   9.197   5.431 -0.5699  0.3061  0.3734
  491MOL0     C66175   3.245   9.187   5.393  0.9882 -0.1387 -0.0372
  491MOL0     C66176   3.277   9.209   5.262 -0.1077 -0.4066  0.4930
  491MOL0     C66177   3.407   9.232   5.223  0.2327 -1.1072  0.2741
  491MOL0     C66178   3.510   9.215   5.311  0.1613 -0.7314  1.0326
  491MOL0     C66179   3.640   9.231   5.252  1.1615 -0.0238 -0.3947
  491MOL0     O66180   3.670   9.212   5.119 -0.6186 -0.4501 -0.8620
  491MOL0     C66181   3.795   9.237   5.069  0.8351 -0.0616  0.2319
  491MOL0     C66182   3.806   9.330   4.967  0.0300 -0.2842 -0.3720
  491MOL0     C66183   3.938   9.353   4.917  0.3227 -0.4104  0.2410
  491MOL0     C66184   4.046   9.270   4.949 -0.1964 -0.1314 -0.3327
  491MOL0     O66185   4.166   9.278   4.881 -0.4321  0.3623 -0.1640
  491MOL0     C66186   4.288   9.244   4.946  0.3617  0.5964  0.2727
  491MOL0     C66187   4.416   9.303   4.871  0.6286  0.0085 -0.4730
  491MOL0     C66188   4.540   9.253   4.944  0.0616 -0.7253 -0.6729
  491MOL0     C66189   4.566   9.099   4.929  0.2338  0.3770  0.4796
  491MOL0     C66190   4.701   9.049   4.983  0.3970  0.5330  0.0558
  491MOL0     C66191   4.814   9.111   4.908  0.1047  0.3346 -0.0589
  491MOL0     C66192   4.952   9.068   4.959 -0.4198 -0.6071 -0.2466
  491MOL0     C66193   5.064   9.155   4.910 -0.9053  0.6804 -0.1617
  491MOL0    Cl66194   5.212   9.081   4.971  0.0746  0.2266  0.1112
  491MOL0     C66195   4.033   9.174   5.054  0.0526 -0.0546 -0.1666
  491MOL0     C66196   3.907   9.170   5.113 -0.0116  0.6323 -1.0974
  491MOL0     O66197   3.718   9.256   5.341 -0.1989 -0.1199  0.4151
  491MOL0     C66198   3.485   9.179   5.445  0.1548  0.0504  0.4532
  491MOL0     C66199   3.355   9.175   5.489  0.2779 -0.3166 -0.4032
  491MOL0     N66200   2.697   8.813   5.408 -0.4514 -0.8602  0.6118
  491MOL0     N66201   2.599   8.733   5.398 -0.0977  0.2167  0.4079
  491MOL0     C66202   1.374   8.681   5.506 -0.8323  0.1569 -0.3137
  491MOL0     C66203   1.230   8.671   5.520 -0.1571 -0.0013  1.1506
  491MOL0     C66204   0.825   8.448   5.580 -0.8814  0.3884  0.5410
  491MOL0     C66205   0.779   8.318   5.628 -0.4352 -0.5229  0.2923
  491MOL0     C66206   0.643   8.296   5.658 -0.1079 -0.2053  0.8328
  491MOL0     C66207   0.552   8.391   5.631 -0.8482 -0.0959 -0.3369
  491MOL0     O66208   0.431   8.337   5.638  0.3765 -0.0868 -0.4161
  491MOL0     C66209   0.316   8.415   5.602  0.1398  0.0358 -0.0350
  491MOL0     C66210   0.180   8.339   5.596  0.6785 -0.3596 -0.0897
  491MOL0     C66211   0.174   8.239   5.491  0.1220  0.0707  1.0795
  491MOL0     C66212   0.034   8.198   5.439  0.2147  0.2023  0.5824
  491MOL0     C66213  -0.031   8.314   5.382  0.1823  0.1581 -1.4028
  491MOL0     C66214  -0.102   8.405   5.343  0.3649 -0.2512 -0.6442
  491MOL0     C66215   0.598   8.517   5.594  0.3042  0.4707 -0.0571
  491MOL0     C66216   0.730   8.553   5.572 -0.1647  0.2883 -0.2521
  491MOL0     C66217   0.774   8.697   5.542 -0.7613  0.2146  0.1492
  491MOL0     H66218   1.199   8.431   5.742 -0.7709  0.5101  0.3184
  491MOL0     H66219   1.461   8.442   5.727  1.6716  1.6255 -0.3871
  491MOL0     H66220   1.670   8.576   5.738 -2.8733  0.0429 -0.7585
  491MOL0     H66221   1.679   8.438   5.643  1.0798  0.0645  0.9630
  491MOL0     H66222   1.835   8.708   5.611 -1.6343  1.0547 -1.6985
  491MOL0     H66223   1.846   8.570   5.491 -1.1775  0.5584 -0.1535
  491MOL0     H66224   1.899   8.416   5.674 -0.1593  0.8205 -2.7198
  491MOL0     H66225   1.926   8.550   5.784 -2.4047 -0.7700  0.2009
  491MOL0     H66226   2.064   8.519   5.521 -2.1788  0.4037  0.3821
  491MOL0     H66227   2.110   8.635   5.646  0.6944 -0.6485 -0.2950
  491MOL0     H66228   2.186   8.448   5.794  1.9382  0.2877 -0.6730
  491MOL0     H66229   2.134   8.327   5.684 -1.2031  0.6487 -0.3256
  491MOL0     H66230   2.378   8.369   5.687 -0.8487  0.2053  1.7975
  491MOL0     H66231   2.325   8.395   5.522  0.2445  0.7322 -1.1040
  491MOL0     H66232   2.377   8.628   5.705 -0.5501  5.0716 -3.7914
  491MOL0     H66233   2.313   8.640   5.546  0.2292  0.4818  1.2798
  491MOL0     H66234   2.581   8.514   5.637  2.2583 -0.6551 -2.0226
  491MOL0     H66235   2.519   8.491   5.474  0.7120 -0.3531  0.3318
  491MOL0     H66236   2.686   8.737   5.719  1.1824  0.2932 -0.0842
  491MOL0     H66237   2.785   9.033   5.611 -0.3122 -0.2086  5.1886
  491MOL0     H66238   2.847   8.903   5.704 -0.9092  0.8702 -0.1836
  491MOL0     H66239   2.974   8.822   5.526 -2.6849 -0.5092 -1.8994
  491MOL0     H66240   2.954   8.949   5.416  1.2926  0.2947  0.4386
  491MOL0     H66241   3.165   8.957   5.539 -1.6592 -1.1798 -0.8267
  491MOL0     H66242   3.085   8.981   5.689  0.1034  0.1238 -0.6084
  491MOL0     H66243   3.132   9.208   5.645 -2.7332  0.3993  3.6171
  491MOL0     H66244   2.971   9.183   5.582  1.1619  1.2027  0.6938
  491MOL0     H66245   3.205   9.219   5.181  0.8024 -0.3780 -0.3343
  491MOL0     H66246   3.421   9.266   5.121 -0.4089  2.3049  1.2142
  491MOL0     H66247   3.723   9.389   4.930  0.3592 -0.4448 -1.4140
  491MOL0     H66248   3.958   9.438   4.853  0.8608 -1.9928 -1.8204
  491MOL0     H66249   4.285   9.293   5.044 -1.1240 -0.8553  0.9976
  491MOL0     H66250   4.288   9.135   4.942  2.5279  0.5871 -1.5001
  491MOL0     H66251   4.427   9.271   4.767  2.2980  0.3936 -0.4382
  491MOL0     H66252   4.419   9.412   4.863 -0.6624  0.0925 -0.0464
  491MOL0     H66253   4.624   9.309   4.900  1.1148  0.6749  2.7386
  491MOL0     H66254   4.528   9.274   5.051  3.1068 -1.9970  0.0393
  491MOL0     H66255   4.558   9.077   4.822  1.9238  0.3251  0.3357
  491MOL0     H66256   4.484   9.050   4.982 -0.9303  1.4366 -0.2812
  491MOL0     H66257   4.711   8.940   4.980 -0.2479  0.4025  1.5793
  491MOL0     H66258   4.688   9.080   5.087 -2.9744 -2.8825  0.8744
  491MOL0     H66259   4.810   9.088   4.801  0.5752  1.7065 -0.3839
  491MOL0     H66260   4.807   9.220   4.916 -1.8849  0.2395 -0.1623
  491MOL0     H66261   4.985   8.972   4.918  1.2399 -0.4450  0.6179
  491MOL0     H66262   4.951   9.058   5.068 -0.7060 -0.6945 -0.2560
  491MOL0     H66263   5.067   9.162   4.801  0.2954  0.4264 -0.1620
  491MOL0     H66264   5.060   9.259   4.943  0.4855  0.3267  1.3062
  491MOL0     H66265   4.108   9.099   5.079 -0.8012 -1.0983 -0.6733
  491MOL0     H66266   3.889   9.112   5.203 -1.8828  1.7518 -0.6968
  491MOL0     H66267   3.551   9.153   5.526 -0.2081 -0.0379  0.7222
  491MOL0     H66268   3.344   9.164   5.596 -1.4963  1.2183 -0.3679
  491MOL0     H66269   1.421   8.759   5.447  0.3063  0.3044  0.7497
  491MOL0     H66270   1.166   8.723   5.449  0.7895 -2.3118 -1.6317
  491MOL0     H66271   0.857   8.243   5.641  0.0451 -0.3364 -1.2939
  491MOL0     H66272   0.610   8.195   5.679  0.1993 -0.8965 -1.6869
  491MOL0     H66273   0.328   8.467   5.507 -0.8995 -1.4278 -1.0130
  491MOL0     H66274   0.313   8.497   5.674  4.5636  1.1225 -0.8252
  491MOL0     H66275   0.107   8.414   5.566  1.4309  0.5376  0.2843
  491MOL0     H66276   0.148   8.297   5.692 -1.1523  1.0467 -0.0272
  491MOL0     H66277   0.228   8.147   5.516  1.3346  0.7551  1.0430
  491MOL0     H66278   0.236   8.281   5.411  0.3910  2.2086  2.3475
  491MOL0     H66279   0.046   8.116   5.367  1.0006  1.2240 -0.5001
  491MOL0     H66280  -0.023   8.155   5.522  1.0825  1.0484  1.6525
  491MOL0     H66281  -0.160   8.489   5.312  0.6742 -0.1063 -0.8275
  491MOL0     H66282   0.529   8.601   5.590  0.1026  0.3260  0.3016
  491MOL0     H66283   0.696   8.755   5.491  0.0424  1.4295  0.2535
  491MOL0     H66284   0.795   8.745   5.638  3.0565  0.0443 -0.4201
  491MOL0     H66285   0.859   8.704   5.473 -0.6247  0.2562  0.3207
  492MOL0     O66286   0.769   9.152   2.230  0.5574  1.1169  0.4174
  492MOL0     C66287   0.701   9.087   2.151  0.1467  0.4880 -0.0988
  492MOL0     O66288   0.753   8.977   2.075  0.3521 -0.3795  0.4759
  492MOL0     C66289   0.891   8.976   2.066 -0.7830  0.0786 -0.9829
  492MOL0     C66290   0.974   8.961   2.183  0.1380  0.6716  0.0949
  492MOL0     C66291   1.114   8.948   2.167  0.7933  0.6380  0.6679
  492MOL0     C66292   1.172   8.962   2.040  0.2581 -0.4120  0.0719
  492MOL0     O66293   1.305   8.964   2.012 -0.3433  0.2694 -0.2430
  492MOL0     C66294   1.396   8.958   2.132 -0.0680  0.1401  0.6932
  492MOL0     C66295   1.530   9.005   2.090  0.2224  0.2640  0.4354
  492MOL0     C66296   1.618   9.012   2.216 -0.6217  0.2420  0.0940
  492MOL0     C66297   1.651   8.875   2.272 -0.1898  0.0130 -0.3742
  492MOL0     C66298   1.748   8.889   2.395 -0.6127  0.0533  0.2907
  492MOL0     C66299   1.895   8.932   2.363 -0.4138  0.1673  0.2305
  492MOL0     C66300   1.972   8.834   2.282 -0.0005  0.7783  0.0935
  492MOL0     C66301   2.125   8.850   2.287 -0.3299 -0.3863  0.6891
  492MOL0     N66302   2.174   8.745   2.200  0.1781  0.1111  0.5519
  492MOL0     C66303   2.164   8.727   2.065  0.6633  0.1296 -0.5409
  492MOL0     C66304   2.252   8.629   2.029 -0.5244  0.3169 -0.2810
  492MOL0     C66305   2.275   8.568   1.895  0.3626 -0.2255  0.3471
  492MOL0     C66306   2.303   8.666   1.779 -0.3556 -0.2953  0.2744
  492MOL0     C66307   2.435   8.740   1.805 -1.0662 -0.7521 -0.2639
  492MOL0     C66308   2.437   8.869   1.724 -0.3143  1.0615  0.0911
  492MOL0     O66309   2.372   8.974   1.800 -0.8702 -0.3798 -0.3398
  492MOL0     C66310   2.237   8.987   1.790 -0.4002 -0.0850  0.9376
  492MOL0     C66311   2.177   9.005   1.917  0.5272  0.4203  0.5814
  492MOL0     C66312   2.032   9.021   1.919 -0.1447  0.4583 -0.4991
  492MOL0     C66313   1.971   9.047   1.797 -0.3438 -1.1019 -0.3707
  492MOL0     C66314   1.832   9.114   1.787 -0.2517  0.6602  0.0276
  492MOL0     O66315   1.784   9.137   1.667 -0.2848 -0.1808 -0.1490
  492MOL0     C66316   1.654   9.175   1.646 -0.3855  0.8611  0.8764
  492MOL0     C66317   1.552   9.112   1.707 -0.2190  1.3814 -0.3185
  492MOL0     C66318   1.420   9.147   1.676 -0.4297  0.1400  0.6209
  492MOL0     C66319   1.387   9.252   1.585 -0.1899 -0.9741 -0.0061
  492MOL0     O66320   1.261   9.284   1.552  0.1246  0.7485  0.4315
  492MOL0     C66321   1.169   9.286   1.671  0.4055 -0.1784  0.0445
  492MOL0     C66322   1.200   9.406   1.757 -0.7355 -0.1196 -0.5605
  492MOL0     C66323   1.076   9.479   1.824  0.0138 -0.3730 -0.3894
  492MOL0     C66324   0.999   9.394   1.921  0.4232 -0.4245  0.2690
  492MOL0     C66325   0.868   9.461   1.971 -0.3907  0.3045 -0.4829
  492MOL0     C66326   0.876   9.607   2.022 -0.2456 -0.0412 -0.5016
  492MOL0     C66327   0.947   9.604   2.162 -0.3290  0.0941  0.3594
  492MOL0     C66328   0.869   9.537   2.274  0.3175  0.1296  0.1884
  492MOL0    Cl66329   0.689   9.602   2.273 -0.6517  0.0432  0.3121
  492MOL0     C66330   1.494   9.311   1.521 -0.1083 -0.9049 -0.7045
  492MOL0     C66331   1.626   9.277   1.555  0.2348 -0.2662 -0.6061
  492MOL0     O66332   1.778   9.140   1.892 -0.0665  0.2765  0.3487
  492MOL0     C66333   2.039   9.027   1.675  0.2266  0.8403 -0.6512
  492MOL0     C66334   2.170   8.981   1.672  0.1507  0.4363  0.6933
  492MOL0     N66335   2.325   8.596   2.141 -0.7492  0.7251 -0.5755
  492MOL0     N66336   2.270   8.669   2.237  0.1462  0.2669 -0.5800
  492MOL0     C66337   1.088   8.977   1.929  0.2236  0.7367  0.3159
  492MOL0     C66338   0.949   8.985   1.941  0.0163 -0.1196 -0.6493
  492MOL0     C66339   0.559   9.130   2.133 -0.1134  0.0309  0.6071
  492MOL0     C66340   0.536   9.264   2.140 -0.3049 -0.2133 -0.6579
  492MOL0     C66341   0.412   9.318   2.111 -0.4516 -0.5536  0.0416
  492MOL0     C66342   0.308   9.232   2.077 -0.5081 -0.2356  0.5022
  492MOL0     O66343   0.198   9.307   2.050  0.1437  0.4883 -0.1321
  492MOL0     C66344   0.081   9.225   2.014  0.7229  0.6273 -0.2470
  492MOL0     C66345  -0.041   9.299   1.991 -0.0936 -0.1766  0.1426
  492MOL0     C66346  -0.069   9.372   2.126  0.0093 -0.2775 -0.1619
  492MOL0     C66347   0.010   9.512   2.140 -0.0848 -0.0317 -0.5398
  492MOL0     C66348  -0.073   9.597   2.229  0.3093 -0.6492 -0.0091
  492MOL0     C66349  -0.135   9.674   2.301 -0.3357 -0.4568 -0.5682
  492MOL0     C66350   0.323   9.094   2.068 -1.0484  0.5537 -0.0389
  492MOL0     C66351   0.456   9.038   2.094 -0.7359 -0.1434  0.1662
  492MOL0     C66352   0.477   8.885   2.099  0.4212  0.0674  0.6778
  492MOL0     H66353   0.932   8.957   2.283 -1.0432  1.1368 -0.3655
  492MOL0     H66354   1.171   8.946   2.260  0.7886  3.4080  0.8010
  492MOL0     H66355   1.363   9.028   2.210  0.3993  1.2542 -0.0744
  492MOL0     H66356   1.395   8.862   2.184  0.7362  0.1134  0.6601
  492MOL0     H66357   1.530   9.107   2.051  3.4441  0.0271 -0.4912
  492MOL0     H66358   1.582   8.937   2.021  1.3433  1.2936  0.2289
  492MOL0     H66359   1.575   9.075   2.295 -2.1935  0.8945 -1.2177
  492MOL0     H66360   1.706   9.061   2.172 -2.2775  1.7055 -1.7977
  492MOL0     H66361   1.562   8.829   2.315  0.8099 -0.1066  1.6808
  492MOL0     H66362   1.693   8.811   2.194 -0.3196  0.7081 -1.0309
  492MOL0     H66363   1.705   8.961   2.465 -1.5449 -0.0732 -0.1482
  492MOL0     H66364   1.753   8.789   2.439  2.7219 -0.3467 -0.6473
  492MOL0     H66365   1.900   9.033   2.320  0.7059  0.7133  1.5674
  492MOL0     H66366   1.943   8.941   2.460 -0.9211  1.8324  0.3632
  492MOL0     H66367   1.929   8.834   2.182 -0.2421  0.2216  0.1956
  492MOL0     H66368   1.953   8.741   2.336 -1.7201  0.2636 -1.3329
  492MOL0     H66369   2.159   8.945   2.245 -1.8304  0.1803  0.6942
  492MOL0     H66370   2.161   8.840   2.390  3.5815 -1.2170 -0.5854
  492MOL0     H66371   2.103   8.780   1.993  2.0932  2.9346  0.1584
  492MOL0     H66372   2.363   8.503   1.905  2.0318  1.8546  0.0768
  492MOL0     H66373   2.192   8.501   1.874 -0.6118  0.3567  2.1214
  492MOL0     H66374   2.319   8.614   1.685  2.9776 -0.7380  0.9826
  492MOL0     H66375   2.222   8.739   1.763 -1.5587 -1.4000  1.0693
  492MOL0     H66376   2.510   8.672   1.762  1.3537  2.1313 -1.0089
  492MOL0     H66377   2.464   8.761   1.908  0.8531 -0.5014 -0.8001
  492MOL0     H66378   2.393   8.841   1.628  0.7657 -0.0174 -0.1002
  492MOL0     H66379   2.531   8.920   1.701 -0.8805  1.3439 -1.7177
  492MOL0     H66380   2.237   8.984   2.005 -1.2163 -2.5778  1.2271
  492MOL0     H66381   1.993   9.027   2.020 -0.4243 -6.0502  0.1973
  492MOL0     H66382   1.580   9.026   1.768 -3.4193  0.9876  0.7431
  492MOL0     H66383   1.336   9.085   1.706 -1.9100  1.5399 -0.4581
  492MOL0     H66384   1.070   9.310   1.632  1.4605  1.5792 -1.7243
  492MOL0     H66385   1.171   9.191   1.726 -0.8968  0.2431  0.8658
  492MOL0     H66386   1.269   9.389   1.840 -5.1080  0.4192  3.6095
  492MOL0     H66387   1.242   9.475   1.683 -0.0162 -0.9699 -0.9541
  492MOL0     H66388   1.115   9.564   1.880 -1.5900  0.5764 -0.6345
  492MOL0     H66389   1.010   9.510   1.742  1.4006  0.1789 -1.3371
  492MOL0     H66390   1.065   9.372   2.005  0.6550 -3.0424 -0.5369
  492MOL0     H66391   0.968   9.303   1.870  2.3004 -0.4070 -0.9723
  492MOL0     H66392   0.822   9.392   2.042  1.8128 -0.4365  0.3201
  492MOL0     H66393   0.809   9.462   1.879  0.4026  0.1710 -1.0046
  492MOL0     H66394   0.909   9.677   1.945 -1.4039 -1.8773 -2.7784
  492MOL0     H66395   0.769   9.632   2.022 -0.4394 -0.5778 -3.2586
  492MOL0     H66396   0.972   9.708   2.188 -1.9714  0.5253  0.3127
  492MOL0     H66397   1.044   9.555   2.153 -0.6735 -0.4835 -0.3277
  492MOL0     H66398   0.863   9.428   2.264  0.1432 -0.2708  3.5952
  492MOL0     H66399   0.918   9.556   2.370  2.3081  1.5668 -1.0355
  492MOL0     H66400   1.468   9.386   1.446  0.6738 -1.9000 -2.0126
  492MOL0     H66401   1.717   9.325   1.519  1.3828 -1.3399  0.7195
  492MOL0     H66402   1.998   9.030   1.575  1.0779 -2.3766 -1.2243
  492MOL0     H66403   2.225   8.978   1.579  0.6490  0.4387  0.9807
  492MOL0     H66404   1.132   8.997   1.832  1.0628 -1.6993  0.1229
  492MOL0     H66405   0.878   8.997   1.861  1.1431 -0.3587 -1.7067
  492MOL0     H66406   0.619   9.330   2.161  0.5348 -1.4117 -0.1157
  492MOL0     H66407   0.385   9.423   2.120 -0.8788 -0.6650  0.0466
  492MOL0     H66408   0.069   9.152   2.093  0.3424 -1.2010 -1.9114
  492MOL0     H66409   0.097   9.171   1.920 -0.9378 -1.2719  0.4856
  492MOL0     H66410  -0.118   9.226   1.962 -0.6568  0.6377 -0.4495
  492MOL0     H66411  -0.029   9.370   1.909  1.0213  1.0326  1.3035
  492MOL0     H66412  -0.040   9.322   2.220  0.3520  1.5103  0.7256
  492MOL0     H66413  -0.177   9.382   2.143 -0.0956  0.5231 -1.2547
  492MOL0     H66414   0.113   9.512   2.176  0.8891  0.5150 -3.1105
  492MOL0     H66415   0.000   9.574   2.050 -1.9314  2.2959  1.1331
  492MOL0     H66416  -0.203   9.741   2.349 -0.0842  0.6255 -1.6935
  492MOL0     H66417   0.235   9.034   2.048 -2.1731  2.7595 -2.2599
  492MOL0     H66418   0.506   8.849   2.199  0.9504  1.0837  0.9039
  492MOL0     H66419   0.385   8.837   2.067  1.3373 -0.4380 -1.3288
  492MOL0     H66420   0.554   8.847   2.031 -0.9335 -1.1516 -0.2499
  493MOL0     O66421  11.258   8.300   5.808 -0.7925 -0.3035  0.7916
  493MOL0     C66422  11.185   8.303   5.905  0.5376 -0.2602 -0.1984
  493MOL0     O66423  11.225   8.345   6.030  0.5876  0.3948 -0.7610
  493MOL0     C66424  11.355   8.399   6.027 -0.0286 -0.3017  0.1106
  493MOL0     C66425  11.382   8.531   5.987 -0.1691  0.5778  0.4624
  493MOL0     C66426  11.504   8.583   5.953  0.1905 -0.7361  0.1878
  493MOL0     C66427  11.617   8.509   5.987  0.6849  0.6286  0.4134
  493MOL0     O66428  11.729   8.582   5.946  0.0479  0.1539 -0.5053
  493MOL0     C66429  11.859   8.522   5.963 -0.0841 -0.0861  0.1385
  493MOL0     C66430  11.972   8.629   5.993 -0.2424  0.6444 -0.7289
  493MOL0     C66431  12.096   8.567   6.039 -0.5940  0.2767  0.1989
  493MOL0     C66432  12.219   8.643   5.981  0.3862  0.7681 -0.0130
  493MOL0     C66433  12.342   8.640   6.073  0.3045  0.5160 -0.1415
  493MOL0     C66434  12.442   8.754   6.046 -0.2300  0.8380  0.3728
  493MOL0     C66435  12.512   8.738   5.913  0.3289 -0.2751 -0.3571
  493MOL0     C66436  12.578   8.868   5.864 -0.5258  0.5293 -0.1003
  493MOL0     N66437  12.700   8.889   5.942 -0.0432  0.0258 -0.2854
  493MOL0     C66438  12.799   8.797   5.963 -0.6735 -0.2667  0.4756
  493MOL0     C66439  12.891   8.865   6.029 -0.2521 -0.0361  0.1891
  493MOL0     C66440  13.027   8.799   6.059 -0.4347 -0.1476 -0.0890
  493MOL0     C66441  13.127   8.800   5.935 -0.4722 -0.5295  0.9242
  493MOL0     C66442  13.212   8.932   5.920 -0.0369 -0.6422 -0.0438
  493MOL0     C66443  13.312   8.947   6.040  0.6585  0.7311 -0.1679
  493MOL0     O66444  13.394   9.060   6.013 -0.1526 -0.3028 -0.2118
  493MOL0     C66445  13.507   9.081   6.080 -0.3518 -0.3863 -0.3300
  493MOL0     C66446  13.568   9.199   6.075  0.3630 -0.7296  0.5137
  493MOL0     C66447  13.677   9.227   6.151  0.2363 -0.1738  0.0336
  493MOL0     C66448  13.731   9.135   6.242 -0.0240 -0.3128  0.5989
  493MOL0     C66449  13.875   9.162   6.308  0.6248  0.2752 -0.1774
  493MOL0     O66450  13.941   9.281   6.299 -0.4096 -0.1725 -0.2897
  493MOL0     C66451  14.076   9.290   6.319  0.0639  0.5125 -0.2925
  493MOL0     C66452  14.106   9.422   6.333  0.8053 -0.5973  0.7595
  493MOL0     C66453  14.229   9.472   6.368  0.1765  0.2038  0.7768
  493MOL0     C66454  14.338   9.378   6.370  0.0113 -0.2902 -0.0104
  493MOL0     O66455  14.471   9.407   6.384 -0.1042  0.3096 -0.0974
  493MOL0     C66456  14.510   9.505   6.292  0.1468 -0.1063  0.6698
  493MOL0     C66457  14.655   9.462   6.248 -0.5506 -0.1250  0.2640
  493MOL0     C66458  14.713   9.548   6.145 -1.2299  0.6750  0.4215
  493MOL0     C66459  14.825   9.479   6.062  0.4232 -0.8376 -0.2144
  493MOL0     C66460  14.821   9.528   5.906  0.5340 -0.0905 -0.5977
  493MOL0     C66461  14.943   9.483   5.826  0.0557  0.3297 -0.0079
  493MOL0     C66462  14.908   9.484   5.676 -0.3387 -0.5616  0.0029
  493MOL0     C66463  15.027   9.452   5.581 -0.6975 -0.7507 -0.3104
  493MOL0    Cl66464  15.147   9.579   5.622  0.0687  0.0646 -0.0957
  493MOL0     C66465  14.311   9.239   6.348  0.7276 -0.1893 -0.8935
  493MOL0     C66466  14.176   9.194   6.321  1.3164 -0.3700 -0.1431
  493MOL0     O66467  13.920   9.063   6.359  0.1502 -0.5576  0.1272
  493MOL0     C66468  13.672   9.009   6.241 -0.1179 -0.1320 -0.6827
  493MOL0     C66469  13.564   8.986   6.163 -0.0702 -0.2375  0.5545
  493MOL0     N66470  12.853   9.004   6.049 -0.5492 -0.0910 -0.0953
  493MOL0     N66471  12.734   9.010   5.997 -0.6184 -0.3807 -0.1063
  493MOL0     C66472  11.610   8.376   6.033 -0.4185  0.6209 -0.4462
  493MOL0     C66473  11.477   8.324   6.056 -0.5258  0.0715 -0.0806
  493MOL0     C66474  11.043   8.246   5.905  0.2093 -1.1317 -0.6083
  493MOL0     C66475  10.965   8.242   6.017 -0.5397  0.0596 -0.1370
  493MOL0     C66476  10.831   8.215   6.020 -0.4237  0.0516  0.2720
  493MOL0     C66477  10.763   8.191   5.905 -0.0819  0.7469  0.4156
  493MOL0     O66478  10.632   8.162   5.915  0.6206  0.1683  0.1326
  493MOL0     C66479  10.557   8.084   5.811  0.1317 -0.5303  0.4234
  493MOL0     C66480  10.419   8.030   5.866 -0.6807 -0.1405  0.3086
  493MOL0     C66481  10.311   8.133   5.852  0.6762 -0.8139  0.2404
  493MOL0     C66482  10.176   8.083   5.905 -0.2818 -0.1569 -0.1533
  493MOL0     C66483  10.090   8.040   5.805  0.1500 -0.2074  0.2701
  493MOL0     C66484  10.006   8.011   5.724  0.6158  0.2185  0.5423
  493MOL0     C66485  10.843   8.177   5.788  0.4763 -0.4641  0.4737
  493MOL0     C66486  10.975   8.213   5.775 -0.5995 -0.3316  0.3914
  493MOL0     C66487  11.047   8.197   5.646  0.7209 -0.5759  0.5034
  493MOL0     H66488  11.289   8.584   5.968 -0.8430 -0.3497  1.1087
  493MOL0     H66489  11.513   8.685   5.918 -1.4870 -1.1050 -1.4399
  493MOL0     H66490  11.867   8.452   6.047  0.6248 -0.4831 -0.2484
  493MOL0     H66491  11.894   8.474   5.871 -0.0837 -1.0975  0.6474
  493MOL0     H66492  11.935   8.711   6.055  0.8511  0.3955  0.3004
  493MOL0     H66493  11.991   8.688   5.903  1.4518  1.1363 -0.0884
  493MOL0     H66494  12.114   8.467   5.998  0.7180  0.0638  1.2266
  493MOL0     H66495  12.105   8.562   6.148  1.1780  2.0968  0.1847
  493MOL0     H66496  12.236   8.610   5.878 -1.2828  3.0971 -1.1158
  493MOL0     H66497  12.193   8.749   5.975 -0.9103  0.6747  2.4912
  493MOL0     H66498  12.310   8.655   6.177 -1.3795 -1.2914 -0.3382
  493MOL0     H66499  12.400   8.548   6.066  1.1268  0.9082  1.0764
  493MOL0     H66500  12.402   8.856   6.038  1.6341  1.6174  0.5132
  493MOL0     H66501  12.506   8.758   6.135  0.7806 -1.4962 -0.1651
  493MOL0     H66502  12.443   8.706   5.834 -0.5783 -1.0723  0.7239
  493MOL0     H66503  12.589   8.661   5.912 -0.7229 -1.3604 -1.5720
  493MOL0     H66504  12.606   8.864   5.759 -0.3038 -2.2380 -0.0141
  493MOL0     H66505  12.518   8.958   5.880  2.9456  2.8051  1.2358
  493MOL0     H66506  12.817   8.694   5.935  2.0970 -0.0977  1.3691
  493MOL0     H66507  13.077   8.833   6.150  1.4408 -3.2092  0.1672
  493MOL0     H66508  13.015   8.693   6.081  0.6534 -0.2285  0.1847
  493MOL0     H66509  13.204   8.724   5.950  0.2915 -0.6349 -2.7751
  493MOL0     H66510  13.074   8.770   5.844 -0.9152 -0.1133  1.0396
  493MOL0     H66511  13.142   9.017   5.912  0.7858 -0.0229 -0.8748
  493MOL0     H66512  13.277   8.925   5.832  0.4914  0.4814  0.2305
  493MOL0     H66513  13.366   8.853   6.057  0.8293  1.3186  3.4700
  493MOL0     H66514  13.254   8.956   6.133  1.8627 -2.7452  1.0968
  493MOL0     H66515  13.534   9.282   6.014 -1.8804 -2.5759 -0.8837
  493MOL0     H66516  13.716   9.327   6.135  0.9393 -0.5955 -1.0227
  493MOL0     H66517  14.029   9.498   6.329  0.0483 -1.1839  2.6952
  493MOL0     H66518  14.239   9.576   6.396 -0.4185  0.0565  1.5727
  493MOL0     H66519  14.450   9.497   6.201  1.1805 -1.4001  0.0694
  493MOL0     H66520  14.502   9.609   6.325 -0.8910 -0.2367  0.8593
  493MOL0     H66521  14.719   9.461   6.337 -1.6523 -1.2401  1.0765
  493MOL0     H66522  14.644   9.360   6.210  1.8517 -0.3718  0.0693
  493MOL0     H66523  14.628   9.568   6.079  1.0323  1.1577 -2.5678
  493MOL0     H66524  14.741   9.648   6.178 -0.7138  0.9441 -0.7675
  493MOL0     H66525  14.795   9.374   6.061  0.2038 -0.7746 -0.2948
  493MOL0     H66526  14.928   9.488   6.098  1.0861 -0.2489 -2.1031
  493MOL0     H66527  14.803   9.635   5.895  0.8371 -0.2414 -3.2388
  493MOL0     H66528  14.735   9.479   5.859  0.9817 -1.0886 -0.4019
  493MOL0     H66529  15.018   9.559   5.852 -1.2535  1.2585  1.2605
  493MOL0     H66530  14.978   9.383   5.854 -1.2249 -0.0746  0.1986
  493MOL0     H66531  14.871   9.584   5.652 -0.1857 -0.7657 -1.1079
  493MOL0     H66532  14.827   9.413   5.654 -0.5259 -0.4359  0.2820
  493MOL0     H66533  15.062   9.350   5.597  0.6321 -0.4241 -1.0126
  493MOL0     H66534  15.003   9.442   5.475 -1.4190 -0.9777 -0.1300
  493MOL0     H66535  14.384   9.160   6.333  1.3339  0.6356 -2.6394
  493MOL0     H66536  14.145   9.094   6.292  1.3703 -0.3764 -0.1772
  493MOL0     H66537  13.698   8.931   6.312 -0.7632  1.7438  1.7440
  493MOL0     H66538  13.515   8.889   6.173  1.6272 -0.9730  2.6945
  493MOL0     H66539  11.694   8.309   6.046 -1.6399 -2.3390 -5.1721
  493MOL0     H66540  11.458   8.222   6.090 -0.1119  0.2201  0.6145
  493MOL0     H66541  11.020   8.270   6.106  0.4120  0.4334 -0.8354
  493MOL0     H66542  10.772   8.240   6.108  0.6537  0.0554  1.0101
  493MOL0     H66543  10.608   7.993   5.778 -2.5536 -1.5896 -1.1207
  493MOL0     H66544  10.542   8.155   5.728  0.9066  0.7322  1.3212
  493MOL0     H66545  10.439   8.003   5.970  2.0869  1.7341  0.3769
  493MOL0     H66546  10.393   7.943   5.805  0.7014 -1.1023  1.0283
  493MOL0     H66547  10.309   8.163   5.747  2.6810 -1.1749  0.0709
  493MOL0     H66548  10.336   8.223   5.909 -1.7263 -0.1172  0.2915
  493MOL0     H66549  10.192   8.000   5.974 -3.2378  0.7601  1.8268
  493MOL0     H66550  10.130   8.161   5.966 -0.6690 -0.1488 -0.4532
  493MOL0     H66551   9.918   8.006   5.664 -0.7430 -0.0036  2.4447
  493MOL0     H66552  10.798   8.139   5.696  0.1144 -1.5136  1.0630
  493MOL0     H66553  10.995   8.138   5.569 -0.3221 -0.2600  0.9451
  493MOL0     H66554  11.061   8.297   5.604  1.8159 -0.8675  0.1590
  493MOL0     H66555  11.140   8.148   5.673  1.9731  2.2462  1.6726
  494MOL0     O66556   2.043   2.726   4.739 -0.0153  0.4750 -0.0350
  494MOL0     C66557   2.021   2.619   4.676  0.8170  0.2436 -0.5206
  494MOL0     O66558   2.106   2.555   4.586  0.1273 -0.6102 -0.0744
  494MOL0     C66559   2.228   2.604   4.543  0.1927 -0.2368  1.0767
  494MOL0     C66560   2.256   2.567   4.411 -0.0489 -0.1892  0.0120
  494MOL0     C66561   2.379   2.611   4.345 -0.0587  1.1773 -0.9401
  494MOL0     C66562   2.464   2.682   4.417  0.0642 -0.0969  0.1934
  494MOL0     O66563   2.591   2.722   4.376  0.4118  0.1684  0.5363
  494MOL0     C66564   2.647   2.645   4.266  0.5655 -0.2389  0.0397
  494MOL0     C66565   2.793   2.640   4.291  0.0951  0.2118 -0.0015
  494MOL0     C66566   2.856   2.764   4.226 -0.3447 -0.5910 -0.1829
  494MOL0     C66567   3.011   2.754   4.211 -1.5522 -0.1949 -0.1635
  494MOL0     C66568   3.059   2.856   4.114 -0.1735  0.3297 -0.4034
  494MOL0     C66569   3.204   2.892   4.122  0.4805 -0.2832 -0.9105
  494MOL0     C66570   3.300   2.783   4.053  0.2430  0.1645 -0.6169
  494MOL0     C66571   3.447   2.816   4.098  0.5603  0.1897  0.0755
  494MOL0     N66572   3.547   2.724   4.048  0.3484  0.2482 -0.1328
  494MOL0     C66573   3.584   2.616   4.115  0.7369 -0.3888 -0.3864
  494MOL0     C66574   3.681   2.564   4.028 -0.3469 -0.1457 -0.0484
  494MOL0     C66575   3.757   2.436   4.064 -0.2367  0.8376  0.2149
  494MOL0     C66576   3.905   2.426   4.011 -0.9484  0.4646 -0.5500
  494MOL0     C66577   3.990   2.542   4.057  0.9783 -0.2453  0.0999
  494MOL0     C66578   4.135   2.539   4.010 -0.1107  0.1676 -0.1643
  494MOL0     O66579   4.159   2.642   3.912 -0.1703 -0.6055 -0.4476
  494MOL0     C66580   4.284   2.690   3.887  0.1289 -0.4798  0.2055
  494MOL0     C66581   4.398   2.617   3.925 -0.1127 -0.5419 -0.5234
  494MOL0     C66582   4.523   2.680   3.913 -0.5094 -0.7623  0.2504
  494MOL0     C66583   4.539   2.806   3.843  0.5900  0.7166 -0.8044
  494MOL0     C66584   4.676   2.857   3.822  0.2439 -0.2833 -0.2468
  494MOL0     O66585   4.693   2.951   3.729 -0.5276  0.4252 -0.7101
  494MOL0     C66586   4.802   3.028   3.747  0.1300 -0.0949  0.2658
  494MOL0     C66587   4.803   3.131   3.845 -0.0305 -0.3472  0.4585
  494MOL0     C66588   4.924   3.194   3.865  0.5231  0.3688 -0.0283
  494MOL0     C66589   5.036   3.180   3.780  0.3455 -0.2038 -0.3433
  494MOL0     O66590   5.145   3.257   3.806 -0.1116 -0.0832 -0.5350
  494MOL0     C66591   5.262   3.240   3.728  0.5124 -0.2015 -0.7626
  494MOL0     C66592   5.368   3.331   3.789  0.8334  0.0739  0.4752
  494MOL0     C66593   5.334   3.474   3.745  0.4263  0.1742  0.5354
  494MOL0     C66594   5.439   3.576   3.809 -0.3639 -0.5593 -0.7752
  494MOL0     C66595   5.385   3.714   3.769 -0.0970 -0.5940 -0.1731
  494MOL0     C66596   5.478   3.809   3.838  0.2020 -0.4312 -0.1313
  494MOL0     C66597   5.437   3.954   3.825  0.7280  0.1378 -1.0118
  494MOL0     C66598   5.518   4.038   3.728  0.0263  0.0339 -0.8789
  494MOL0    Cl66599   5.538   3.947   3.577  0.4054 -0.1341  0.2546
  494MOL0     C66600   5.017   3.082   3.676  0.4983 -0.7378  0.0080
  494MOL0     C66601   4.907   3.007   3.657  0.3140  0.1485 -0.0809
  494MOL0     O66602   4.758   2.829   3.906 -0.3124  0.5485 -0.9083
  494MOL0     C66603   4.415   2.872   3.802 -0.3123  0.6274 -0.8714
  494MOL0     C66604   4.288   2.817   3.825 -0.5279  0.6758  0.7701
  494MOL0     N66605   3.689   2.642   3.913 -0.0037  0.7913 -0.1462
  494MOL0     N66606   3.603   2.742   3.927 -0.1236  0.2206 -0.6719
  494MOL0     C66607   2.437   2.727   4.547  1.0218  0.8566 -0.1916
  494MOL0     C66608   2.314   2.681   4.615 -0.3493 -0.1075  0.2323
  494MOL0     C66609   1.896   2.534   4.723 -0.1521  0.2628  0.7670
  494MOL0     C66610   1.908   2.393   4.729 -0.4403 -0.1572  0.1856
  494MOL0     C66611   1.806   2.310   4.781 -0.0666 -0.5145  0.8303
  494MOL0     C66612   1.686   2.377   4.819  0.1159  0.4780  0.3223
  494MOL0     O66613   1.587   2.297   4.870 -0.2902 -0.5972  0.4445
  494MOL0     C66614   1.582   2.158   4.860 -0.5279  0.3217 -1.1155
  494MOL0     C66615   1.458   2.120   4.945 -0.6452  0.2656  0.1949
  494MOL0     C66616   1.459   2.143   5.105 -0.2084 -0.5106  0.0279
  494MOL0     C66617   1.356   2.069   5.174  0.1681  0.5183 -0.0458
  494MOL0     C66618   1.218   2.088   5.121 -0.2112 -0.4303  0.3590
  494MOL0     C66619   1.111   2.102   5.065 -0.2286 -0.0610  0.1086
  494MOL0     C66620   1.665   2.511   4.807 -0.1541  0.4044  0.2561
  494MOL0     C66621   1.766   2.595   4.751  0.2635  0.4664 -0.4666
  494MOL0     C66622   1.749   2.739   4.721  0.0053 -0.6446  0.3924
  494MOL0     H66623   2.195   2.504   4.348  2.0798 -0.1266 -2.2831
  494MOL0     H66624   2.394   2.581   4.242  1.0394  1.4787 -0.8830
  494MOL0     H66625   2.620   2.540   4.276  2.1728 -0.6440  0.4399
  494MOL0     H66626   2.617   2.688   4.170 -2.5751 -3.5694 -0.6692
  494MOL0     H66627   2.831   2.552   4.240  0.3319 -0.6089  1.5240
  494MOL0     H66628   2.815   2.632   4.398  1.3342  2.5262 -0.0268
  494MOL0     H66629   2.834   2.852   4.286  2.5712 -1.1415  1.9071
  494MOL0     H66630   2.814   2.769   4.125  0.3545 -2.3442 -0.6063
  494MOL0     H66631   3.058   2.776   4.308 -0.1990  1.9729 -1.2258
  494MOL0     H66632   3.048   2.659   4.174 -1.1986  0.1329 -0.6576
  494MOL0     H66633   3.041   2.815   4.014  0.3918  0.0431 -0.3906
  494MOL0     H66634   3.004   2.950   4.124  3.7548  2.6767  1.2840
  494MOL0     H66635   3.210   2.984   4.063 -0.1884 -0.0395 -0.5992
  494MOL0     H66636   3.232   2.897   4.228  1.1686  2.1099 -1.1409
  494MOL0     H66637   3.292   2.786   3.944 -0.6518  1.8832 -0.5429
  494MOL0     H66638   3.264   2.685   4.085 -1.6100  1.4000  1.4185
  494MOL0     H66639   3.469   2.918   4.067  2.1710 -0.6276 -1.6955
  494MOL0     H66640   3.446   2.824   4.207 -3.7446  2.8311  0.0838
  494MOL0     H66641   3.559   2.574   4.211  2.1183 -1.9138 -0.6401
  494MOL0     H66642   3.760   2.402   4.168  2.8174  1.7451  0.5136
  494MOL0     H66643   3.702   2.353   4.019 -0.5032  0.7814  0.6390
  494MOL0     H66644   3.948   2.335   4.053  2.0942  2.3974  0.8069
  494MOL0     H66645   3.907   2.386   3.909 -1.8712 -1.1004  0.0137
  494MOL0     H66646   4.006   2.522   4.164  1.3048 -4.5219 -0.6077
  494MOL0     H66647   3.943   2.640   4.043 -2.4748 -1.6520  0.8079
  494MOL0     H66648   4.159   2.445   3.959 -0.9831  0.1336 -0.5160
  494MOL0     H66649   4.207   2.552   4.092  2.0793  3.0589 -2.3272
  494MOL0     H66650   4.398   2.518   3.969 -0.7446  0.1332  1.0643
  494MOL0     H66651   4.617   2.646   3.954 -0.6402  0.8342  2.0402
  494MOL0     H66652   4.715   3.156   3.904 -2.2616 -5.0918 -0.4122
  494MOL0     H66653   4.934   3.273   3.939 -0.0615  1.0371 -0.6527
  494MOL0     H66654   5.302   3.140   3.741  0.1268 -0.1802  0.7856
  494MOL0     H66655   5.236   3.271   3.627  0.0785  1.3700 -0.2128
  494MOL0     H66656   5.363   3.324   3.898 -1.9680 -2.2888  0.3132
  494MOL0     H66657   5.465   3.304   3.746  1.3131  1.0065  0.9319
  494MOL0     H66658   5.329   3.485   3.636 -0.6182  3.1246  0.8022
  494MOL0     H66659   5.232   3.498   3.777 -0.6645 -0.8240 -1.9399
  494MOL0     H66660   5.535   3.567   3.758 -0.4103 -0.1591 -0.9326
  494MOL0     H66661   5.456   3.569   3.916 -1.3478 -0.1681 -0.5763
  494MOL0     H66662   5.280   3.735   3.790 -0.1553  0.8388 -1.6493
  494MOL0     H66663   5.388   3.722   3.660 -0.2787  0.0612 -0.1398
  494MOL0     H66664   5.483   3.783   3.944  2.3777  2.3839  0.6020
  494MOL0     H66665   5.584   3.786   3.823 -0.0588 -1.5150 -0.3726
  494MOL0     H66666   5.435   4.004   3.923 -1.3157  4.0620 -2.8539
  494MOL0     H66667   5.335   3.966   3.788  0.7241  2.9039 -0.3515
  494MOL0     H66668   5.462   4.131   3.713  1.1115  0.4512 -2.6073
  494MOL0     H66669   5.610   4.066   3.779 -0.3585 -1.9106  1.0627
  494MOL0     H66670   5.102   3.065   3.611  0.7338 -0.7912  0.3276
  494MOL0     H66671   4.902   2.941   3.570 -1.1259  0.0403  0.0619
  494MOL0     H66672   4.423   2.970   3.757  0.2694  0.1882 -1.7464
  494MOL0     H66673   4.203   2.877   3.796 -0.8788 -0.3790 -0.4958
  494MOL0     H66674   2.510   2.784   4.604  2.6203 -0.7730 -0.4974
  494MOL0     H66675   2.296   2.713   4.717 -0.2815  0.8927 -0.0617
  494MOL0     H66676   2.007   2.354   4.706 -1.5539 -3.6836  0.6625
  494MOL0     H66677   1.828   2.205   4.800  0.4408 -0.7348 -0.8153
  494MOL0     H66678   1.673   2.114   4.900 -1.0845 -0.1357 -0.3121
  494MOL0     H66679   1.568   2.119   4.758 -1.4820 -3.7463  0.3430
  494MOL0     H66680   1.464   2.011   4.936  0.0828 -0.2837  4.6303
  494MOL0     H66681   1.369   2.162   4.898  0.5298 -0.1992 -2.5899
  494MOL0     H66682   1.455   2.246   5.140  1.3602 -0.6444  0.7101
  494MOL0     H66683   1.551   2.095   5.142 -1.6644 -1.2998  2.8967
  494MOL0     H66684   1.385   1.964   5.165 -2.4383 -0.3978  1.1924
  494MOL0     H66685   1.355   2.074   5.283  2.1282 -1.5881  0.1439
  494MOL0     H66686   1.009   2.095   5.032  0.0454 -3.1899 -0.4028
  494MOL0     H66687   1.572   2.566   4.822  0.0126  0.9986 -0.7701
  494MOL0     H66688   1.820   2.793   4.784 -0.0634  2.1060 -1.6806
  494MOL0     H66689   1.775   2.754   4.616  0.4333 -2.1359  0.2752
  494MOL0     H66690   1.649   2.781   4.737 -0.6162 -0.9980 -2.1340
  495MOL0     O66691   8.637   4.506   3.541 -0.2249  0.4279 -0.9876
  495MOL0     C66692   8.576   4.399   3.519  0.6913  0.1730  0.6638
  495MOL0     O66693   8.608   4.306   3.425 -0.5838 -0.5008 -0.5137
  495MOL0     C66694   8.726   4.318   3.360 -0.0942  0.4183 -0.1746
  495MOL0     C66695   8.847   4.275   3.426  0.0968 -0.5998  0.6750
  495MOL0     C66696   8.967   4.279   3.352  0.8939 -1.0856  0.6322
  495MOL0     C66697   8.970   4.324   3.211  0.6679 -0.4227 -0.1126
  495MOL0     O66698   9.092   4.318   3.148 -0.4152 -0.5659 -0.3314
  495MOL0     C66699   9.097   4.371   3.016  0.0814  0.0444  0.1348
  495MOL0     C66700   9.232   4.327   2.964 -0.4436 -0.7113 -0.1301
  495MOL0     C66701   9.280   4.396   2.834 -0.0508  0.2853  0.0136
  495MOL0     C66702   9.394   4.308   2.770  0.0193  0.3639 -0.1551
  495MOL0     C66703   9.407   4.342   2.621  0.8873 -0.4308  0.2666
  495MOL0     C66704   9.490   4.460   2.591  0.1028 -0.6002 -0.2163
  495MOL0     C66705   9.498   4.490   2.435 -0.5571  0.3220 -0.3894
  495MOL0     C66706   9.601   4.611   2.419  0.4456 -0.5744  0.3595
  495MOL0     N66707   9.656   4.637   2.285  0.1826  0.6016 -0.2204
  495MOL0     C66708   9.731   4.543   2.210 -0.1971  0.3829 -0.3767
  495MOL0     C66709   9.793   4.621   2.121 -0.1770  0.6758  0.2801
  495MOL0     C66710   9.891   4.573   2.015 -0.1554 -0.0077 -0.2559
  495MOL0     C66711  10.015   4.658   1.987 -0.0804 -0.2669  0.0169
  495MOL0     C66712  10.110   4.574   1.903 -0.0001 -0.1804 -0.3657
  495MOL0     C66713  10.248   4.635   1.891  0.4670  0.5257  1.2591
  495MOL0     O66714  10.324   4.562   1.786 -0.0461 -0.5753 -0.1102
  495MOL0     C66715  10.458   4.561   1.789  0.4861 -0.9929 -0.0887
  495MOL0     C66716  10.549   4.638   1.870  0.0401 -0.4483  0.0675
  495MOL0     C66717  10.691   4.620   1.862  0.3599  0.5281 -0.2421
  495MOL0     C66718  10.749   4.529   1.773  0.5676 -0.5113 -0.2346
  495MOL0     C66719  10.899   4.515   1.761  0.0455  0.0820  0.0423
  495MOL0     O66720  10.954   4.418   1.674  0.5333  0.0882 -0.3504
  495MOL0     C66721  11.086   4.396   1.670  0.1999  0.0428  0.3993
  495MOL0     C66722  11.155   4.390   1.546 -0.8440 -0.0877  0.4924
  495MOL0     C66723  11.298   4.390   1.537  1.1189 -0.1906  0.5252
  495MOL0     C66724  11.366   4.369   1.663 -0.2155  0.2722  0.5042
  495MOL0     O66725  11.503   4.361   1.674 -0.5011  0.2876 -0.3698
  495MOL0     C66726  11.585   4.327   1.554 -0.6625  0.3347 -0.4256
  495MOL0     C66727  11.731   4.349   1.609 -0.5666 -0.1747 -0.2299
  495MOL0     C66728  11.829   4.352   1.495  0.6394 -0.2114  0.2347
  495MOL0     C66729  11.963   4.408   1.533  0.6279 -0.1240  0.5890
  495MOL0     C66730  12.053   4.392   1.410 -0.2069 -0.2304 -0.0429
  495MOL0     C66731  12.176   4.491   1.420  0.1934  0.2931  0.8011
  495MOL0     C66732  12.255   4.466   1.548  0.6629  0.1973  0.2510
  495MOL0     C66733  12.350   4.349   1.560 -0.0541 -1.5182 -0.9805
  495MOL0    Cl66734  12.440   4.326   1.415  0.3630  0.0692  0.1688
  495MOL0     C66735  11.296   4.352   1.784  1.4099  1.4788 -0.7541
  495MOL0     C66736  11.159   4.373   1.790  0.2831 -0.0577 -0.2486
  495MOL0     O66737  10.967   4.593   1.826  0.5245 -0.6476 -0.4067
  495MOL0     C66738  10.658   4.442   1.703  0.1180 -0.1502  0.8086
  495MOL0     C66739  10.517   4.466   1.714 -1.0042  0.0384  0.6278
  495MOL0     N66740   9.746   4.752   2.132  0.0141 -0.8931 -0.5272
  495MOL0     N66741   9.675   4.764   2.236 -1.0090  0.6655  0.3923
  495MOL0     C66742   8.844   4.364   3.156  0.2656 -0.0838  0.5605
  495MOL0     C66743   8.733   4.363   3.232  0.5485  0.2786  0.4737
  495MOL0     C66744   8.451   4.371   3.597 -0.1166 -0.6599 -0.2100
  495MOL0     C66745   8.392   4.242   3.568  0.6803 -0.2680 -0.0553
  495MOL0     C66746   8.268   4.217   3.632  0.4862  0.7856 -0.0574
  495MOL0     C66747   8.207   4.304   3.722 -0.0556  0.1506  0.4163
  495MOL0     O66748   8.084   4.289   3.773  0.7889  0.9397  0.2141
  495MOL0     C66749   8.023   4.167   3.761 -0.4250 -0.6949  0.1252
  495MOL0     C66750   7.896   4.157   3.841 -0.3085  0.3149  0.7608
  495MOL0     C66751   7.811   4.031   3.807  0.0231  0.3831  0.5314
  495MOL0     C66752   7.702   4.009   3.904  0.6117 -0.3737 -0.6117
  495MOL0     C66753   7.574   4.082   3.875 -0.1922 -0.2303 -0.0139
  495MOL0     C66754   7.466   4.127   3.848 -0.4316  0.2041 -0.2106
  495MOL0     C66755   8.281   4.421   3.768  0.2211  0.3372  0.2544
  495MOL0     C66756   8.396   4.454   3.706 -0.8557 -0.0419  0.6132
  495MOL0     C66757   8.457   4.589   3.739  0.8329 -0.5145 -0.1387
  495MOL0     H66758   8.846   4.252   3.532  0.4656  0.4683  0.9224
  495MOL0     H66759   9.057   4.249   3.404  0.0233  1.2294  3.8274
  495MOL0     H66760   9.022   4.323   2.952 -0.1553 -0.1534  0.5528
  495MOL0     H66761   9.087   4.479   3.008 -1.6668 -0.2245 -2.1863
  495MOL0     H66762   9.230   4.220   2.940 -0.6121 -1.0916  1.4530
  495MOL0     H66763   9.300   4.342   3.048  1.6703 -3.4857 -1.1826
  495MOL0     H66764   9.324   4.496   2.837  0.8477  0.0764 -2.8157
  495MOL0     H66765   9.191   4.395   2.770  0.0554 -1.4828 -0.1400
  495MOL0     H66766   9.487   4.318   2.827 -0.7827 -1.2241  1.5582
  495MOL0     H66767   9.357   4.206   2.778  0.1705  0.2940 -0.3396
  495MOL0     H66768   9.458   4.265   2.563  1.8254 -0.0595  0.5713
  495MOL0     H66769   9.306   4.365   2.587  0.8595  2.2427  1.8428
  495MOL0     H66770   9.453   4.548   2.643  1.1023 -0.5431  0.4209
  495MOL0     H66771   9.592   4.446   2.628  0.1212  2.2184  1.0141
  495MOL0     H66772   9.401   4.530   2.405 -1.3541 -0.0237  1.5506
  495MOL0     H66773   9.528   4.399   2.381  3.8039 -0.3141  2.5220
  495MOL0     H66774   9.543   4.701   2.443 -1.8336 -1.9592  0.2687
  495MOL0     H66775   9.685   4.604   2.489 -0.0007  1.0433  1.1190
  495MOL0     H66776   9.738   4.435   2.219 -3.7200  0.1425  1.6708
  495MOL0     H66777   9.927   4.474   2.047 -0.9840 -0.6433 -1.2376
  495MOL0     H66778   9.847   4.554   1.917  0.9428 -0.6823 -0.6461
  495MOL0     H66779   9.993   4.753   1.938  0.3148 -0.4679 -0.5599
  495MOL0     H66780  10.064   4.683   2.082  0.5596 -0.9034 -0.1347
  495MOL0     H66781  10.074   4.572   1.800  0.0760 -1.0239 -0.3809
  495MOL0     H66782  10.123   4.472   1.938  0.6452  0.6145  1.8548
  495MOL0     H66783  10.305   4.623   1.983  2.1857 -0.1022  0.1698
  495MOL0     H66784  10.232   4.739   1.863  0.2333  0.1930  0.0995
  495MOL0     H66785  10.529   4.723   1.934 -0.6053  0.6425 -1.5466
  495MOL0     H66786  10.768   4.676   1.913  1.2945 -0.9297  0.0171
  495MOL0     H66787  11.104   4.413   1.453 -0.9052 -0.2309  0.4901
  495MOL0     H66788  11.345   4.397   1.440  2.0364 -2.3557  0.7522
  495MOL0     H66789  11.570   4.223   1.526 -0.8546 -0.1060  1.2228
  495MOL0     H66790  11.566   4.389   1.466 -0.4398 -0.9570 -1.4078
  495MOL0     H66791  11.736   4.442   1.667 -0.8014 -1.4560  1.9498
  495MOL0     H66792  11.763   4.266   1.673 -0.2037 -1.3968 -1.9113
  495MOL0     H66793  11.850   4.251   1.457 -0.3952  0.1219 -1.2822
  495MOL0     H66794  11.786   4.415   1.418 -0.7878 -2.0403 -0.5516
  495MOL0     H66795  12.003   4.356   1.620 -2.1747 -0.1670  1.9654
  495MOL0     H66796  11.960   4.512   1.567  2.4043 -0.0105  0.4874
  495MOL0     H66797  11.993   4.425   1.325  1.1027 -3.3648 -2.3825
  495MOL0     H66798  12.083   4.287   1.405 -0.4851 -0.4869  2.4769
  495MOL0     H66799  12.245   4.471   1.337  0.8832  0.5975  1.2923
  495MOL0     H66800  12.134   4.592   1.419  0.1881  0.2916  0.8963
  495MOL0     H66801  12.202   4.469   1.644  2.0624 -1.5679  1.1254
  495MOL0     H66802  12.323   4.551   1.544  2.1928 -0.8702  2.1773
  495MOL0     H66803  12.423   4.383   1.634 -0.6146  1.1778 -1.5824
  495MOL0     H66804  12.300   4.254   1.583 -0.2519 -2.1518 -3.6725
  495MOL0     H66805  11.341   4.330   1.880  2.1093  1.1625 -1.1492
  495MOL0     H66806  11.109   4.362   1.885  1.4940 -2.1128  0.2174
  495MOL0     H66807  10.701   4.374   1.629  3.2477  0.7956  1.6313
  495MOL0     H66808  10.451   4.415   1.645 -0.9898  1.7117 -0.7059
  495MOL0     H66809   8.831   4.392   3.051  0.2733 -2.4721 -0.1284
  495MOL0     H66810   8.638   4.392   3.188  1.1430  1.1421 -0.2965
  495MOL0     H66811   8.428   4.170   3.496  2.8974 -0.2063  0.9161
  495MOL0     H66812   8.216   4.131   3.591  0.6213  1.5729 -2.0189
  495MOL0     H66813   8.093   4.086   3.786  1.2580  0.9350  0.8730
  495MOL0     H66814   7.999   4.153   3.655 -0.4126  2.1406 -0.3123
  495MOL0     H66815   7.838   4.247   3.818 -2.1818 -0.4105  2.3448
  495MOL0     H66816   7.922   4.162   3.947  1.6026 -0.6947  0.3877
  495MOL0     H66817   7.888   3.954   3.803 -1.9450 -1.6168 -1.0360
  495MOL0     H66818   7.781   4.028   3.702 -1.1295 -1.3460  0.8700
  495MOL0     H66819   7.688   3.900   3.901  3.2978 -0.8111 -0.1523
  495MOL0     H66820   7.742   4.035   4.002 -1.9288  0.8459  0.1736
  495MOL0     H66821   7.375   4.180   3.831  1.1692  3.1284 -0.3731
  495MOL0     H66822   8.249   4.486   3.849  0.4961  2.9653 -1.6227
  495MOL0     H66823   8.415   4.618   3.836 -1.7485 -0.9034 -1.0403
  495MOL0     H66824   8.565   4.580   3.742  0.9477  0.8041  2.2819
  495MOL0     H66825   8.420   4.657   3.661  1.8950 -0.3934 -0.5501
  496MOL0     O66826   7.814  10.866   8.889  0.2020 -0.8126 -0.5650
  496MOL0     C66827   7.792  10.809   8.786 -0.0673  0.1951  0.5163
  496MOL0     O66828   7.883  10.794   8.687 -0.5183 -0.4070 -0.2013
  496MOL0     C66829   8.019  10.830   8.709  0.0257 -0.5552  0.1597
  496MOL0     C66830   8.106  10.853   8.601  0.2643 -0.4206  0.1803
  496MOL0     C66831   8.247  10.868   8.618  0.9215  0.2350 -0.5836
  496MOL0     C66832   8.305  10.861   8.748  0.3876 -0.5630 -0.1767
  496MOL0     O66833   8.442  10.860   8.774 -0.0941 -0.1438  0.1577
  496MOL0     C66834   8.550  10.869   8.674 -0.6192  0.5835 -0.4310
  496MOL0     C66835   8.689  10.882   8.759  0.7927  0.0952  0.5401
  496MOL0     C66836   8.827  10.897   8.688  0.6621 -0.9253 -0.5806
  496MOL0     C66837   8.953  10.894   8.786  0.6257 -0.4064 -0.8526
  496MOL0     C66838   9.076  10.932   8.713  1.0535  0.5987 -0.0156
  496MOL0     C66839   9.195  10.905   8.803  0.4149  0.6078 -0.1477
  496MOL0     C66840   9.321  10.933   8.732 -0.4752  0.0538 -0.1488
  496MOL0     C66841   9.439  10.867   8.816 -0.0399 -0.4315  0.6341
  496MOL0     N66842   9.569  10.925   8.777  0.1728  0.1337  0.0690
  496MOL0     C66843   9.599  10.979   8.657 -0.7805  0.5454  0.2902
  496MOL0     C66844   9.720  11.041   8.667  0.2151 -0.5198  0.0401
  496MOL0     C66845   9.804  11.103   8.563  0.2992  0.4912 -0.3948
  496MOL0     C66846   9.946  11.133   8.609  0.4116 -0.1339  0.7600
  496MOL0     C66847  10.031  11.170   8.488  0.2518  0.7371  0.3724
  496MOL0     C66848  10.167  11.220   8.516 -0.2856 -0.9833 -0.7428
  496MOL0     O66849  10.249  11.124   8.589  0.2010 -0.2084 -1.0490
  496MOL0     C66850  10.377  11.163   8.634 -0.1395  0.4360 -0.2505
  496MOL0     C66851  10.441  11.276   8.594 -0.7735  0.1095 -0.2715
  496MOL0     C66852  10.556  11.310   8.668  0.0941  0.5394 -0.2713
  496MOL0     C66853  10.617  11.235   8.760  0.0212  0.4396  0.0160
  496MOL0     C66854  10.742  11.275   8.835 -0.5257  0.6248  0.5586
  496MOL0     O66855  10.789  11.186   8.925 -0.0162 -0.0122 -0.0878
  496MOL0     C66856  10.907  11.210   8.994  0.2655  0.6685 -0.3431
  496MOL0     C66857  11.025  11.157   8.955 -0.8504  0.7565 -0.3309
  496MOL0     C66858  11.144  11.205   9.018 -0.2076 -0.4215 -0.0346
  496MOL0     C66859  11.144  11.299   9.124 -1.1865  0.2715 -0.2633
  496MOL0     O66860  11.267  11.314   9.186 -0.3761  0.1521  0.5714
  496MOL0     C66861  11.279  11.377   9.309  0.0396  0.5961  0.3859
  496MOL0     C66862  11.426  11.418   9.337  0.5254 -0.0288 -0.1421
  496MOL0     C66863  11.469  11.535   9.250 -0.1313  0.1450 -0.1927
  496MOL0     C66864  11.418  11.673   9.299 -0.2605 -0.6521 -0.1576
  496MOL0     C66865  11.475  11.797   9.222 -0.1339  0.0317 -0.5521
  496MOL0     C66866  11.374  11.916   9.219  0.6476 -0.1580  0.8329
  496MOL0     C66867  11.312  11.972   9.357 -0.3215 -0.2132 -0.5040
  496MOL0     C66868  11.409  12.055   9.427 -0.4596 -0.8853 -0.5038
  496MOL0    Cl66869  11.357  12.090   9.592  0.2332  0.2188  0.0638
  496MOL0     C66870  11.017  11.348   9.168 -0.0346  0.1523  0.0114
  496MOL0     C66871  10.903  11.302   9.099 -0.6832 -0.6050 -0.3324
  496MOL0     O66872  10.790  11.384   8.818 -0.0452 -0.2048  0.0619
  496MOL0     C66873  10.564  11.110   8.772  0.5691 -0.4649 -0.7885
  496MOL0     C66874  10.447  11.071   8.708  0.5464 -0.4339 -0.4746
  496MOL0     N66875   9.756  11.038   8.801  0.1768 -0.0688 -0.3119
  496MOL0     N66876   9.663  10.973   8.861  0.5128 -0.3447  0.4196
  496MOL0     C66877   8.214  10.844   8.854 -0.3989  0.8764  0.3802
  496MOL0     C66878   8.078  10.824   8.836 -0.4548  0.2809 -0.4897
  496MOL0     C66879   7.658  10.753   8.762 -0.6405 -0.0637  0.5443
  496MOL0     C66880   7.635  10.709   8.632 -0.3466  0.0044 -0.4739
  496MOL0     C66881   7.511  10.649   8.602  0.2282  0.2144  0.1102
  496MOL0     C66882   7.405  10.655   8.695 -0.4520 -0.0169 -0.2254
  496MOL0     O66883   7.276  10.612   8.669 -0.8909  0.9426 -0.3384
  496MOL0     C66884   7.243  10.600   8.534 -0.3580 -0.0443  0.5378
  496MOL0     C66885   7.096  10.621   8.502  0.5273  0.6580 -0.0981
  496MOL0     C66886   7.013  10.530   8.596 -0.1488  0.7669 -0.1066
  496MOL0     C66887   6.856  10.547   8.595  0.1444  0.1754 -0.8755
  496MOL0     C66888   6.804  10.564   8.461 -0.1092  0.2123  0.2790
  496MOL0     C66889   6.763  10.575   8.344 -0.9131  0.1870  0.2951
  496MOL0     C66890   7.429  10.708   8.821  0.1272  0.1774  0.0509
  496MOL0     C66891   7.556  10.745   8.858 -0.2642  0.2341  1.1301
  496MOL0     C66892   7.576  10.778   8.999  0.4571 -0.0090 -0.5629
  496MOL0     H66893   8.080  10.864   8.496  2.3432 -3.3994 -0.7834
  496MOL0     H66894   8.305  10.868   8.527  0.0085 -2.3677 -1.2519
  496MOL0     H66895   8.547  10.776   8.617  0.3857 -0.4083  1.0562
  496MOL0     H66896   8.538  10.957   8.610 -0.9248  2.9339  2.6430
  496MOL0     H66897   8.694  10.784   8.808 -0.1168 -0.7156 -0.9062
  496MOL0     H66898   8.677  10.962   8.832  0.5453 -0.2912  0.9292
  496MOL0     H66899   8.830  10.996   8.641 -0.5930  0.2174  1.5487
  496MOL0     H66900   8.849  10.819   8.615  2.5165 -0.7746 -0.2312
  496MOL0     H66901   8.929  10.960   8.870 -3.1471 -1.4865 -0.8622
  496MOL0     H66902   8.961  10.790   8.819 -2.5205 -0.9528 -1.4848
  496MOL0     H66903   9.081  10.864   8.628  3.5191  1.3367 -0.5270
  496MOL0     H66904   9.085  11.030   8.667  1.8109 -0.0537 -1.3028
  496MOL0     H66905   9.189  10.954   8.901  0.6653  0.1627  0.0971
  496MOL0     H66906   9.190  10.796   8.817  0.6555  0.2520 -2.4372
  496MOL0     H66907   9.336  11.041   8.729  0.3092 -0.0462 -0.0115
  496MOL0     H66908   9.327  10.889   8.632  3.4277  0.6114 -0.3060
  496MOL0     H66909   9.438  10.896   8.921  1.8570  2.0879  0.0332
  496MOL0     H66910   9.451  10.759   8.799  0.0980 -0.5837  1.6396
  496MOL0     H66911   9.547  10.975   8.563  1.6933  1.2767 -1.2014
  496MOL0     H66912   9.807  11.035   8.477  1.4988  2.1163 -1.6961
  496MOL0     H66913   9.745  11.189   8.532 -2.0849 -1.0513 -0.3749
  496MOL0     H66914   9.947  11.218   8.678  4.9786 -1.2770  2.5007
  496MOL0     H66915   9.982  11.040   8.654 -0.3152  0.4548  2.6557
  496MOL0     H66916   9.972  11.230   8.419  1.5068  2.5380  0.7920
  496MOL0     H66917  10.055  11.074   8.442 -1.4364  0.1272  0.6965
  496MOL0     H66918  10.169  11.315   8.570 -1.5378 -2.1554  1.5660
  496MOL0     H66919  10.216  11.236   8.420  0.3697  0.2846 -0.2218
  496MOL0     H66920  10.390  11.344   8.526 -0.2685  0.4510 -0.3124
  496MOL0     H66921  10.602  11.407   8.648  2.9613 -1.1328 -2.5223
  496MOL0     H66922  11.043  11.086   8.876  1.6101  1.2611 -0.2908
  496MOL0     H66923  11.243  11.176   8.983  0.0324  0.5442 -0.1916
  496MOL0     H66924  11.216  11.465   9.324  1.0906  1.3596  0.4636
  496MOL0     H66925  11.253  11.302   9.385 -1.1700  1.6428  1.0483
  496MOL0     H66926  11.445  11.438   9.443 -0.6280  3.3904 -0.4649
  496MOL0     H66927  11.489  11.333   9.309 -0.8963 -0.3953 -2.4308
  496MOL0     H66928  11.577  11.544   9.261 -0.3082  4.0780 -0.1176
  496MOL0     H66929  11.447  11.510   9.146  1.2909 -2.1388 -0.0098
  496MOL0     H66930  11.433  11.697   9.404  0.7335  2.8292 -0.9583
  496MOL0     H66931  11.308  11.667   9.294 -0.8142  3.3679  2.5581
  496MOL0     H66932  11.491  11.773   9.117 -0.3371  1.2208 -0.8710
  496MOL0     H66933  11.569  11.834   9.265 -0.2750  0.6084 -0.7264
  496MOL0     H66934  11.418  11.994   9.155  1.1880 -0.7961  0.4201
  496MOL0     H66935  11.289  11.870   9.169  0.8195 -0.5267  0.8772
  496MOL0     H66936  11.279  11.893   9.425  3.9051  0.5985  2.9240
  496MOL0     H66937  11.221  12.028   9.330  1.0057  0.5611 -3.8641
  496MOL0     H66938  11.498  11.993   9.443 -0.7001 -0.4536  3.2939
  496MOL0     H66939  11.436  12.144   9.370 -1.6566  1.5322  2.4779
  496MOL0     H66940  11.003  11.422   9.246  3.2472  1.1348 -0.1987
  496MOL0     H66941  10.814  11.341   9.147 -1.2232 -1.2092 -0.8342
  496MOL0     H66942  10.621  11.039   8.832  0.7293 -0.9281 -1.4685
  496MOL0     H66943  10.407  10.971   8.718 -0.4484 -0.2101 -1.9462
  496MOL0     H66944   8.251  10.812   8.951  2.0504 -0.2399 -0.8281
  496MOL0     H66945   8.017  10.783   8.917 -1.8452 -0.1337 -1.7085
  496MOL0     H66946   7.717  10.702   8.561 -2.3390 -3.8644 -2.7480
  496MOL0     H66947   7.501  10.585   8.515 -0.9411 -2.0564  1.7814
  496MOL0     H66948   7.274  10.502   8.496 -2.9170 -0.5622 -0.4244
  496MOL0     H66949   7.300  10.676   8.478  3.7390 -1.0720  2.8923
  496MOL0     H66950   7.078  10.583   8.401  0.2199  0.4327  0.0383
  496MOL0     H66951   7.067  10.726   8.515  3.9542  1.4697  2.2853
  496MOL0     H66952   7.044  10.540   8.700 -0.3523 -4.2394  0.6778
  496MOL0     H66953   7.041  10.429   8.563  0.6678  0.9612 -0.0303
  496MOL0     H66954   6.818  10.454   8.639 -3.8755  1.9072 -0.2824
  496MOL0     H66955   6.819  10.625   8.663  0.5310  0.9514 -1.5418
  496MOL0     H66956   6.738  10.596   8.242  0.7359 -0.5525 -0.2968
  496MOL0     H66957   7.343  10.686   8.884  0.5618 -3.7730 -0.4842
  496MOL0     H66958   7.671  10.739   9.036  0.6664 -2.0949 -2.9608
  496MOL0     H66959   7.566  10.887   8.993 -1.7786 -0.2052 -1.5804
  496MOL0     H66960   7.492  10.740   9.057 -0.0305  1.4242 -0.2928
  497MOL0     O66961   0.184   8.122   0.567  1.1311 -1.2389 -0.5768
  497MOL0     C66962   0.155   8.009   0.541 -0.0038 -0.7044  0.7178
  497MOL0     O66963   0.244   7.919   0.499 -0.1020 -0.2242 -0.1353
  497MOL0     C66964   0.377   7.927   0.523 -0.6951 -1.0502  0.5344
  497MOL0     C66965   0.454   7.832   0.464  0.4294 -0.1717 -0.1774
  497MOL0     C66966   0.587   7.802   0.484  0.3924  0.0476  1.1158
  497MOL0     C66967   0.660   7.881   0.567  0.5204  0.3536 -0.9933
  497MOL0     O66968   0.793   7.856   0.578 -0.3320  0.3316  0.1442
  497MOL0     C66969   0.835   7.855   0.712  0.3098 -0.2902 -1.0764
  497MOL0     C66970   0.989   7.829   0.720 -0.1660  0.1885 -0.4189
  497MOL0     C66971   1.088   7.920   0.646 -0.9191  0.4874 -0.1853
  497MOL0     C66972   1.220   7.904   0.714  0.1948  0.6633  0.4282
  497MOL0     C66973   1.302   7.781   0.655  0.0113  1.0852 -0.0905
  497MOL0     C66974   1.427   7.727   0.719 -0.7203 -0.2618 -0.7611
  497MOL0     C66975   1.410   7.728   0.873  0.0500 -0.0478  0.5843
  497MOL0     C66976   1.530   7.653   0.941  0.3386 -0.5576 -0.1122
  497MOL0     N66977   1.640   7.748   0.959 -0.5274 -0.4737  0.2128
  497MOL0     C66978   1.757   7.755   0.884 -0.1863  0.2788  0.1165
  497MOL0     C66979   1.844   7.848   0.941  0.0145 -0.5876  0.5412
  497MOL0     C66980   1.989   7.882   0.904 -0.0488  0.2690  0.3514
  497MOL0     C66981   2.018   8.031   0.891  0.1328  0.6434  0.2075
  497MOL0     C66982   2.090   8.077   1.020  0.0805  0.1908  0.3902
  497MOL0     C66983   2.087   8.232   1.025  0.0890 -1.1886 -0.1994
  497MOL0     O66984   2.176   8.281   1.124 -0.4362 -0.5176 -0.3363
  497MOL0     C66985   2.308   8.295   1.117  0.0124  0.3965  0.5023
  497MOL0     C66986   2.373   8.356   1.224 -0.2449 -0.1987  0.3957
  497MOL0     C66987   2.517   8.381   1.233 -0.2892 -0.5035 -0.2861
  497MOL0     C66988   2.603   8.337   1.129  0.2556  0.0216  0.4354
  497MOL0     C66989   2.744   8.342   1.136  0.0316  0.3220  0.3298
  497MOL0     O66990   2.802   8.363   1.260 -0.3015 -0.6708 -0.0431
  497MOL0     C66991   2.942   8.387   1.261 -0.2701  0.7914 -0.6720
  497MOL0     C66992   3.034   8.283   1.287 -0.3381  0.3580 -0.8502
  497MOL0     C66993   3.175   8.299   1.283  0.2040  0.7308  0.4844
  497MOL0     C66994   3.220   8.437   1.277  0.1244  0.3767 -0.4704
  497MOL0     O66995   3.348   8.470   1.289 -0.9600 -0.3391 -0.5027
  497MOL0     C66996   3.455   8.370   1.292  1.3111  0.4982 -0.1184
  497MOL0     C66997   3.468   8.284   1.426  1.0365 -0.8042  0.7822
  497MOL0     C66998   3.589   8.194   1.404 -0.1365  0.2228  0.0267
  497MOL0     C66999   3.586   8.090   1.512 -0.6594 -0.2923 -0.1147
  497MOL0     C67000   3.675   7.968   1.482 -0.3974  0.3274  0.3343
  497MOL0     C67001   3.629   7.874   1.375 -0.0756  0.7778 -0.0459
  497MOL0     C67002   3.728   7.758   1.353 -0.2520  0.5400  0.4025
  497MOL0     C67003   3.822   7.795   1.237  0.4985 -0.1382  0.1348
  497MOL0    Cl67004   3.945   7.669   1.218  0.1623 -0.0938  0.0639
  497MOL0     C67005   3.123   8.545   1.270  0.2687 -0.3133  0.9144
  497MOL0     C67006   2.983   8.518   1.258 -0.9100 -0.4331 -0.2421
  497MOL0     O67007   2.812   8.326   1.033 -0.3649  0.7051  0.5204
  497MOL0     C67008   2.535   8.269   1.018 -0.0352 -0.8328 -0.2388
  497MOL0     C67009   2.398   8.246   1.018 -0.7083  0.8345  0.3616
  497MOL0     N67010   1.776   7.897   1.052  0.8945  0.2675  0.5441
  497MOL0     N67011   1.654   7.838   1.056 -0.4373 -0.4915 -0.1241
  497MOL0     C67012   0.594   7.990   0.631  0.0388 -0.2505  1.1909
  497MOL0     C67013   0.455   8.013   0.615  1.2323  0.3450  1.0116
  497MOL0     C67014   0.016   7.975   0.533  0.2777 -0.4106  0.0514
  497MOL0     C67015  -0.036   7.878   0.618 -0.0279 -0.0903 -0.1102
  497MOL0     C67016  -0.164   7.821   0.595 -0.1412 -0.1920  0.2668
  497MOL0     C67017  -0.241   7.870   0.493 -0.9481  0.6249  0.3050
  497MOL0     O67018  -0.358   7.813   0.455  0.4954  0.3323  0.2530
  497MOL0     C67019  -0.365   7.675   0.457  0.4309 -0.2831 -0.4765
  497MOL0     C67020  -0.497   7.639   0.390 -0.6522 -0.5646  0.4883
  497MOL0     C67021  -0.526   7.492   0.406 -0.3292  0.1098  0.5744
  497MOL0     C67022  -0.636   7.463   0.298 -0.1528 -0.0265  0.3091
  497MOL0     C67023  -0.669   7.321   0.326  0.5280  0.5149  0.6087
  497MOL0     C67024  -0.697   7.206   0.344  0.5039  0.1099 -0.5884
  497MOL0     C67025  -0.193   7.981   0.421  0.2842  1.3049 -0.0592
  497MOL0     C67026  -0.066   8.027   0.429 -0.2709 -0.8074 -0.5791
  497MOL0     C67027  -0.015   8.139   0.355 -0.3314 -0.5504  0.2236
  497MOL0     H67028   0.398   7.766   0.399 -1.5807  1.2909 -0.0203
  497MOL0     H67029   0.631   7.727   0.418 -3.5038 -0.6546 -1.0338
  497MOL0     H67030   0.810   7.944   0.771 -0.9158 -1.1813 -0.1906
  497MOL0     H67031   0.796   7.771   0.771  1.7879  0.1478  0.5918
  497MOL0     H67032   1.014   7.729   0.682  0.6112  0.0557  0.4319
  497MOL0     H67033   1.001   7.831   0.828 -0.0553 -0.5202 -0.4129
  497MOL0     H67034   1.054   8.024   0.643 -2.1510  0.1902 -4.8859
  497MOL0     H67035   1.095   7.893   0.540 -0.5382  1.0332 -0.3042
  497MOL0     H67036   1.282   7.993   0.703  2.8074 -0.3522  4.6339
  497MOL0     H67037   1.199   7.897   0.822 -2.8672  0.6597 -0.0823
  497MOL0     H67038   1.237   7.695   0.637  1.2104  0.5268 -2.0334
  497MOL0     H67039   1.325   7.797   0.549 -1.0174  0.5116 -0.4072
  497MOL0     H67040   1.442   7.628   0.677  0.5995 -0.2064 -0.4543
  497MOL0     H67041   1.500   7.806   0.696 -1.4912  0.9363  0.6766
  497MOL0     H67042   1.321   7.666   0.892  0.9517 -2.2271 -1.7116
  497MOL0     H67043   1.394   7.827   0.916 -2.0220  0.0002 -0.1799
  497MOL0     H67044   1.496   7.623   1.040  1.0417 -3.0235 -0.5648
  497MOL0     H67045   1.561   7.572   0.875  0.4059 -1.2465  0.7469
  497MOL0     H67046   1.795   7.689   0.807 -1.8644 -0.3498 -0.2122
  497MOL0     H67047   2.056   7.834   0.976 -0.7219 -2.3300 -0.6562
  497MOL0     H67048   2.019   7.841   0.807  1.1908  1.8343  0.0240
  497MOL0     H67049   2.087   8.044   0.807 -0.3763 -2.2873 -0.7600
  497MOL0     H67050   1.922   8.082   0.879 -1.9988 -2.5408  2.2558
  497MOL0     H67051   2.197   8.053   1.018  0.5173  1.5099  2.9519
  497MOL0     H67052   2.038   8.034   1.106 -0.9658 -1.0326 -0.8266
  497MOL0     H67053   1.984   8.262   1.043  0.1079 -0.9477 -0.4800
  497MOL0     H67054   2.132   8.262   0.930  0.7840  0.3743  0.5913
  497MOL0     H67055   2.315   8.395   1.307 -0.0539 -0.1551  0.5081
  497MOL0     H67056   2.560   8.426   1.321  0.7989  1.6880 -1.8447
  497MOL0     H67057   3.008   8.179   1.305  1.2810  0.0563 -0.0457
  497MOL0     H67058   3.240   8.213   1.278 -0.0436  0.5948 -0.9728
  497MOL0     H67059   3.437   8.298   1.212  0.3384 -2.0514  2.2180
  497MOL0     H67060   3.553   8.419   1.286 -0.1604  3.7904  0.5427
  497MOL0     H67061   3.470   8.358   1.507 -2.3436  0.4355 -0.1112
  497MOL0     H67062   3.383   8.221   1.451  2.1213 -1.3271  3.5526
  497MOL0     H67063   3.573   8.128   1.318 -1.1298  2.3781 -1.5552
  497MOL0     H67064   3.678   8.256   1.390 -0.5346  0.8769  0.3480
  497MOL0     H67065   3.486   8.053   1.536 -0.4628 -1.0322 -0.4061
  497MOL0     H67066   3.640   8.123   1.601  0.4631 -4.1167  0.7940
  497MOL0     H67067   3.696   7.910   1.572  0.9249 -0.6364 -0.5462
  497MOL0     H67068   3.777   7.998   1.456 -0.8530 -0.5644 -3.0835
  497MOL0     H67069   3.532   7.833   1.406  0.4812 -1.3710 -0.9578
  497MOL0     H67070   3.616   7.919   1.276  1.1140  1.0169 -0.0950
  497MOL0     H67071   3.690   7.658   1.332  1.4900 -0.5154  1.9811
  497MOL0     H67072   3.773   7.732   1.449 -0.1265  1.8162  0.7171
  497MOL0     H67073   3.759   7.806   1.148 -1.5840 -1.4280  1.3670
  497MOL0     H67074   3.872   7.891   1.253 -0.0802  0.0436  0.9299
  497MOL0     H67075   3.160   8.646   1.282  0.6644 -0.2901 -0.4075
  497MOL0     H67076   2.906   8.595   1.253 -3.6097 -2.8525  0.7025
  497MOL0     H67077   2.595   8.223   0.939  3.0940  0.3801  1.2585
  497MOL0     H67078   2.359   8.183   0.938  0.8287 -1.3855  1.2431
  497MOL0     H67079   0.652   8.056   0.694  0.5126  0.3261  0.1880
  497MOL0     H67080   0.403   8.091   0.670 -1.9784 -1.3580  0.6714
  497MOL0     H67081   0.026   7.842   0.699  1.6714  1.6253 -0.5525
  497MOL0     H67082  -0.187   7.738   0.662 -1.9025 -1.2281 -1.5092
  497MOL0     H67083  -0.377   7.642   0.561  1.8435 -1.1604 -0.5667
  497MOL0     H67084  -0.291   7.617   0.400  0.7393 -0.3306 -0.0333
  497MOL0     H67085  -0.487   7.668   0.285  0.8335  0.9452  0.9857
  497MOL0     H67086  -0.585   7.685   0.435  0.9379  1.7832  1.3868
  497MOL0     H67087  -0.552   7.465   0.509  0.4171 -1.1100  0.4646
  497MOL0     H67088  -0.434   7.437   0.384 -0.2881  0.9619 -1.6714
  497MOL0     H67089  -0.717   7.536   0.309 -0.9819 -1.0159  0.8832
  497MOL0     H67090  -0.587   7.475   0.200  4.1684  0.1222  2.2465
  497MOL0     H67091  -0.700   7.103   0.372  0.9631  0.8342  2.4015
  497MOL0     H67092  -0.254   8.029   0.346  0.2475  0.2187 -0.7496
  497MOL0     H67093   0.079   8.111   0.306  1.2797  1.9244  1.6628
  497MOL0     H67094  -0.081   8.165   0.273  0.7890  1.9272  0.0313
  497MOL0     H67095   0.004   8.220   0.427 -1.5886  0.4753 -0.5696
  498MOL0     O67096  11.059   4.159   7.824 -0.6159 -0.2913 -0.0089
  498MOL0     C67097  11.031   4.193   7.705 -0.8851  0.1706  0.3110
  498MOL0     O67098  11.116   4.255   7.621 -0.0522  0.5325  0.4968
  498MOL0     C67099  11.252   4.239   7.653  0.5976 -0.7541  0.0078
  498MOL0     C67100  11.321   4.119   7.689  0.4280 -0.1206  0.2361
  498MOL0     C67101  11.463   4.114   7.697 -0.5278 -0.3259 -0.0457
  498MOL0     C67102  11.539   4.235   7.690 -0.3712 -1.0297 -1.1426
  498MOL0     O67103  11.672   4.237   7.717  0.5308 -0.2136  0.3176
  498MOL0     C67104  11.738   4.127   7.780 -0.1506 -0.5709 -0.0394
  498MOL0     C67105  11.887   4.149   7.808  0.2904 -0.6356  0.5293
  498MOL0     C67106  11.963   4.232   7.706 -0.1215  0.0644 -0.9005
  498MOL0     C67107  12.112   4.188   7.717  0.0590  0.4690  0.0103
  498MOL0     C67108  12.196   4.264   7.615 -0.6064  0.1884  0.0832
  498MOL0     C67109  12.341   4.253   7.647  0.6587 -0.6541  0.0515
  498MOL0     C67110  12.418   4.365   7.592 -0.0675 -0.3044  0.5682
  498MOL0     C67111  12.448   4.356   7.445  0.3325  0.0020 -0.1135
  498MOL0     N67112  12.553   4.446   7.409 -0.2287 -0.5393 -0.2905
  498MOL0     C67113  12.681   4.412   7.381  0.2201 -0.3114 -0.9089
  498MOL0     C67114  12.749   4.529   7.361  0.2472  0.0875  0.6857
  498MOL0     C67115  12.892   4.548   7.350 -0.3170 -0.2830  0.5823
  498MOL0     C67116  12.927   4.587   7.209  0.6070  0.1192  0.1772
  498MOL0     C67117  13.073   4.642   7.209  0.0081  0.7775  0.0659
  498MOL0     C67118  13.126   4.694   7.078 -0.6510 -0.8985 -0.1864
  498MOL0     O67119  13.109   4.600   6.979  0.2367 -0.1592 -0.3507
  498MOL0     C67120  13.193   4.626   6.872  0.7900  0.5869 -0.2822
  498MOL0     C67121  13.140   4.686   6.753  0.2780  0.3852 -0.2702
  498MOL0     C67122  13.218   4.721   6.649 -0.0678 -0.0148  0.0331
  498MOL0     C67123  13.367   4.698   6.655 -0.3863  1.0817 -0.5434
  498MOL0     C67124  13.461   4.741   6.558  0.5998  0.1837 -0.0419
  498MOL0     O67125  13.587   4.726   6.575 -0.4896  0.1576 -0.1838
  498MOL0     C67126  13.684   4.737   6.471 -0.6267 -0.2177 -0.2571
  498MOL0     C67127  13.678   4.819   6.356 -0.0801 -0.9350 -0.8438
  498MOL0     C67128  13.786   4.816   6.271 -0.5333  0.2475 -0.2836
  498MOL0     C67129  13.899   4.727   6.287 -1.0527  0.6756  0.3217
  498MOL0     O67130  14.000   4.720   6.194  0.4881  0.9641 -0.3620
  498MOL0     C67131  14.121   4.648   6.225  1.2885 -0.0157 -0.1426
  498MOL0     C67132  14.204   4.639   6.093 -0.8937 -0.5375  0.2248
  498MOL0     C67133  14.331   4.558   6.121 -0.5771  0.0730  0.2837
  498MOL0     C67134  14.421   4.539   6.002  0.0817 -0.0317  0.1684
  498MOL0     C67135  14.540   4.462   6.033 -1.3245 -0.4051  0.1433
  498MOL0     C67136  14.642   4.453   5.920  0.1741 -0.9212 -0.4341
  498MOL0     C67137  14.769   4.379   5.960  1.6372 -0.2337  0.2139
  498MOL0     C67138  14.853   4.333   5.845 -0.0737 -0.7802 -0.2405
  498MOL0    Cl67139  14.764   4.228   5.736  0.2278  0.4550  0.1052
  498MOL0     C67140  13.905   4.655   6.400  0.2464 -0.3186  0.1066
  498MOL0     C67141  13.801   4.654   6.496  0.8360 -0.7461  1.0479
  498MOL0     O67142  13.407   4.786   6.455  0.6602 -0.9369  0.0946
  498MOL0     C67143  13.412   4.629   6.770 -0.3062 -0.1401  0.1484
  498MOL0     C67144  13.328   4.590   6.875 -0.7017  0.1525  0.2313
  498MOL0     N67145  12.654   4.629   7.368  0.2835 -1.0018  0.4829
  498MOL0     N67146  12.541   4.580   7.385  0.0742  0.8129  0.0870
  498MOL0     C67147  11.469   4.358   7.664 -0.5486 -0.5213 -1.5363
  498MOL0     C67148  11.334   4.358   7.640  0.5355 -0.2304 -0.2687
  498MOL0     C67149  10.894   4.155   7.652  0.0711 -0.8514 -0.6633
  498MOL0     C67150  10.875   4.160   7.508 -0.6666 -0.1989 -0.5220
  498MOL0     C67151  10.752   4.131   7.449  0.1019  0.3691 -0.4017
  498MOL0     C67152  10.638   4.109   7.536 -0.0351  0.1092 -0.1871
  498MOL0     O67153  10.519   4.106   7.480 -0.0897  0.0587  0.9972
  498MOL0     C67154  10.421   4.028   7.551  0.3899 -0.5994 -0.2906
  498MOL0     C67155  10.331   4.122   7.636  0.7379  0.2380  0.0704
  498MOL0     C67156  10.237   4.201   7.554  0.4719 -0.2977 -0.2426
  498MOL0     C67157  10.148   4.296   7.646  0.8911 -0.6208  0.1708
  498MOL0     C67158  10.012   4.284   7.598  0.1971  0.1504  0.0918
  498MOL0     C67159   9.905   4.268   7.553 -0.0167 -0.3675  0.4091
  498MOL0     C67160  10.660   4.100   7.672  0.3442  0.3018  0.3923
  498MOL0     C67161  10.784   4.123   7.729 -0.2514 -0.0698 -0.7346
  498MOL0     C67162  10.796   4.110   7.877 -0.3407  0.3096 -0.8566
  498MOL0     H67163  11.264   4.029   7.710 -0.0667 -0.2791 -1.5807
  498MOL0     H67164  11.522   4.023   7.712 -1.8066 -1.1990 -0.1895
  498MOL0     H67165  11.690   4.100   7.874  0.5290 -3.6409 -0.4576
  498MOL0     H67166  11.727   4.040   7.715  0.4618 -0.5846 -0.1372
  498MOL0     H67167  11.932   4.051   7.819  1.5558  0.1699  3.4076
  498MOL0     H67168  11.902   4.188   7.909  0.7098  0.6445 -0.0053
  498MOL0     H67169  11.942   4.334   7.737 -0.4938 -0.2289 -0.1606
  498MOL0     H67170  11.935   4.207   7.604  5.3381 -1.6944 -2.3521
  498MOL0     H67171  12.146   4.213   7.818  1.1782 -1.4648  0.1564
  498MOL0     H67172  12.128   4.080   7.710 -0.4666  0.4812 -2.3407
  498MOL0     H67173  12.175   4.231   7.512 -3.7791  0.5699  0.4930
  498MOL0     H67174  12.169   4.369   7.626 -0.8448 -0.0144  1.7791
  498MOL0     H67175  12.358   4.257   7.755 -2.2850  0.5117  0.5444
  498MOL0     H67176  12.387   4.160   7.610  1.7578 -0.1366  0.0768
  498MOL0     H67177  12.511   4.361   7.648 -0.8294 -0.1849  1.8781
  498MOL0     H67178  12.381   4.466   7.614 -0.2872 -0.4665  0.9415
  498MOL0     H67179  12.482   4.252   7.433 -2.6645 -1.8798  4.8910
  498MOL0     H67180  12.360   4.386   7.387  0.8511 -0.0803 -0.9635
  498MOL0     H67181  12.719   4.310   7.382  1.4184  0.0615  1.9927
  498MOL0     H67182  12.918   4.625   7.422 -1.9970  1.3151 -0.4410
  498MOL0     H67183  12.939   4.455   7.384  1.0987 -0.3040 -1.3061
  498MOL0     H67184  12.912   4.502   7.143  1.4841  1.4519 -1.8119
  498MOL0     H67185  12.861   4.668   7.176 -2.6655 -0.9983  3.2518
  498MOL0     H67186  13.134   4.558   7.241 -1.6260  0.9178  4.1929
  498MOL0     H67187  13.082   4.725   7.280  0.9917  0.4579  0.3217
  498MOL0     H67188  13.231   4.706   7.103 -0.7593 -2.7533  1.3276
  498MOL0     H67189  13.081   4.791   7.053 -2.3351 -1.0152  2.0908
  498MOL0     H67190  13.035   4.697   6.729  0.3534 -0.2514 -0.9201
  498MOL0     H67191  13.169   4.758   6.559  0.7452 -0.3686 -0.5643
  498MOL0     H67192  13.589   4.877   6.333  0.3118 -1.4323 -4.0047
  498MOL0     H67193  13.791   4.899   6.202  1.9370 -0.2127 -0.7778
  498MOL0     H67194  14.179   4.701   6.301  3.4949 -1.2711 -0.8293
  498MOL0     H67195  14.108   4.544   6.254  0.8472 -0.3906 -1.5797
  498MOL0     H67196  14.142   4.578   6.027 -2.0871  1.9808 -1.1546
  498MOL0     H67197  14.215   4.740   6.051 -0.7604  0.2851  2.1059
  498MOL0     H67198  14.385   4.610   6.200 -0.8265  1.9314 -0.6988
  498MOL0     H67199  14.305   4.458   6.157 -2.2242  0.1123 -0.6941
  498MOL0     H67200  14.429   4.635   5.951 -0.7924  0.0670  0.1920
  498MOL0     H67201  14.358   4.478   5.937 -1.8233  1.9114  0.0593
  498MOL0     H67202  14.515   4.360   6.062 -0.5826 -1.5051 -2.7607
  498MOL0     H67203  14.592   4.505   6.119  0.4705 -2.2331  0.0395
  498MOL0     H67204  14.588   4.409   5.836 -0.1098 -2.1086  0.3416
  498MOL0     H67205  14.678   4.553   5.894 -4.1117  1.2904  1.1151
  498MOL0     H67206  14.756   4.295   6.030  1.4683  0.7832  1.4329
  498MOL0     H67207  14.820   4.462   6.009 -0.3954  1.2225  0.0124
  498MOL0     H67208  14.885   4.419   5.784  0.9137 -0.3676  0.8365
  498MOL0     H67209  14.945   4.294   5.888  3.2473  2.8793 -3.1957
  498MOL0     H67210  13.986   4.589   6.427 -0.5893 -1.1007  0.7777
  498MOL0     H67211  13.805   4.586   6.580 -0.8842 -3.6178 -1.0259
  498MOL0     H67212  13.518   4.610   6.781 -0.0318  0.9840 -0.4291
  498MOL0     H67213  13.366   4.539   6.962 -2.0371 -0.7505  0.3205
  498MOL0     H67214  11.525   4.447   7.638 -1.4215  0.8746  1.0260
  498MOL0     H67215  11.274   4.445   7.615 -1.2284 -1.1608  0.5736
  498MOL0     H67216  10.953   4.199   7.444  2.4622 -1.0125  2.4897
  498MOL0     H67217  10.739   4.122   7.342  2.6444 -0.6908 -0.7078
  498MOL0     H67218  10.461   3.950   7.616  1.1430 -0.0953 -0.1357
  498MOL0     H67219  10.357   3.976   7.479  0.0019  0.9159 -1.1006
  498MOL0     H67220  10.392   4.192   7.694  2.7938  0.4256 -2.1889
  498MOL0     H67221  10.267   4.063   7.703  1.3346  0.3651  0.7719
  498MOL0     H67222  10.171   4.129   7.504  0.0404  0.0797 -0.2258
  498MOL0     H67223  10.282   4.259   7.472 -0.2051  0.5194 -0.0503
  498MOL0     H67224  10.162   4.279   7.754 -1.8400  0.3366  0.7527
  498MOL0     H67225  10.172   4.402   7.634 -0.5991 -0.3598 -0.7558
  498MOL0     H67226   9.805   4.257   7.516  0.2621 -1.1507 -0.1396
  498MOL0     H67227  10.580   4.095   7.745  2.0689 -0.8029  2.3475
  498MOL0     H67228  10.704   4.090   7.934  0.2009  4.0578  1.7546
  498MOL0     H67229  10.869   4.031   7.894  0.4893  0.9544 -1.3406
  498MOL0     H67230  10.837   4.202   7.922 -0.5537 -0.0096  0.0236
  499MOL0     O67231   9.652   5.447   8.650  0.2208  0.0178  0.3606
  499MOL0     C67232   9.546   5.439   8.711 -0.1848 -0.1305  0.9989
  499MOL0     O67233   9.501   5.332   8.774  0.3291 -0.1517  0.3924
  499MOL0     C67234   9.600   5.234   8.796  0.4511 -0.1136  0.5413
  499MOL0     C67235   9.713   5.262   8.876  0.0402 -0.1723 -0.5163
  499MOL0     C67236   9.801   5.162   8.929 -0.6758 -0.9949  0.1549
  499MOL0     C67237   9.783   5.028   8.892  0.0398 -0.1418 -0.4990
  499MOL0     O67238   9.869   4.924   8.916 -0.1897  0.0413  0.0640
  499MOL0     C67239   9.955   4.938   9.034 -0.4834 -0.1150 -0.5474
  499MOL0     C67240  10.012   4.816   9.114 -0.2886  0.1530 -0.2100
  499MOL0     C67241  10.146   4.843   9.183 -0.1612 -0.4042  1.0026
  499MOL0     C67242  10.199   4.715   9.243  0.5098 -0.8675 -0.5408
  499MOL0     C67243  10.335   4.729   9.320  0.2045 -1.1688  0.6089
  499MOL0     C67244  10.461   4.747   9.221 -1.1634  0.8280 -0.0552
  499MOL0     C67245  10.592   4.714   9.290  0.8419  0.1919 -0.0908
  499MOL0     C67246  10.615   4.568   9.333  0.3324 -0.3138 -0.0388
  499MOL0     N67247  10.749   4.548   9.393  0.3960 -0.7762  0.1476
  499MOL0     C67248  10.785   4.562   9.525  0.1235 -0.1350  1.1020
  499MOL0     C67249  10.912   4.516   9.531 -0.3228  0.3321 -0.0682
  499MOL0     C67250  11.012   4.528   9.645 -0.2879  0.5165  0.2207
  499MOL0     C67251  10.955   4.569   9.777 -0.4881 -0.0086  0.5057
  499MOL0     C67252  11.057   4.565   9.895 -0.2207  0.4148  0.1398
  499MOL0     C67253  11.108   4.420   9.935  0.0693 -1.0291 -1.2096
  499MOL0     O67254  11.191   4.376   9.834  0.3758 -0.3887  0.1332
  499MOL0     C67255  11.320   4.358   9.872 -0.7092  0.4839 -0.2322
  499MOL0     C67256  11.417   4.456   9.840  0.0827  0.4251  0.0165
  499MOL0     C67257  11.548   4.434   9.891 -0.5951 -0.3353  0.0439
  499MOL0     C67258  11.581   4.325   9.969 -0.2599 -0.6544 -0.0636
  499MOL0     C67259  11.712   4.317  10.039 -0.0267 -0.5369 -1.0962
  499MOL0     O67260  11.780   4.435  10.026  0.6011 -0.1506 -0.5584
  499MOL0     C67261  11.916   4.430  10.016 -0.3972  0.6573  0.4620
  499MOL0     C67262  11.984   4.326   9.943  0.4269 -1.2811  0.2094
  499MOL0     C67263  12.127   4.329   9.952 -0.0856 -0.0250 -0.8592
  499MOL0     C67264  12.194   4.440  10.003 -0.0885 -0.1070  0.6270
  499MOL0     O67265  12.332   4.439   9.990  0.0049  0.8208  0.1301
  499MOL0     C67266  12.416   4.456  10.107 -0.1212  0.4423  0.4674
  499MOL0     C67267  12.520   4.565  10.088  0.5303  0.4293 -0.1008
  499MOL0     C67268  12.641   4.537  10.184 -0.6780  0.9597  0.4484
  499MOL0     C67269  12.652   4.590  10.328 -0.1019  0.4706 -0.5492
  499MOL0     C67270  12.776   4.538  10.401  0.0915  0.1359 -0.1613
  499MOL0     C67271  12.776   4.395  10.446  0.0770  0.6771 -1.0876
  499MOL0     C67272  12.689   4.353  10.569  1.1072 -0.1220  0.1867
  499MOL0     C67273  12.564   4.289  10.512  0.5513  0.0320 -0.7076
  499MOL0    Cl67274  12.615   4.124  10.458  0.0498 -0.4962  0.3913
  499MOL0     C67275  12.127   4.547  10.063 -0.0358 -0.2536 -0.2282
  499MOL0     C67276  11.987   4.533  10.079  0.0082  0.0474  0.3193
  499MOL0     O67277  11.741   4.225  10.120  0.2544  0.3442 -0.4321
  499MOL0     C67278  11.485   4.230   9.991  0.2079  0.7820 -0.4523
  499MOL0     C67279  11.354   4.243   9.948  0.0657  1.3936 -0.5078
  499MOL0     N67280  10.938   4.464   9.406 -0.5715  0.5872 -0.0781
  499MOL0     N67281  10.848   4.490   9.323  0.4073 -0.3814 -0.2452
  499MOL0     C67282   9.676   4.996   8.814  1.0785 -0.0448 -0.3470
  499MOL0     C67283   9.586   5.101   8.768 -0.0358  1.0138  0.6258
  499MOL0     C67284   9.450   5.551   8.694 -0.1108  0.3555  0.2131
  499MOL0     C67285   9.502   5.685   8.682 -0.4192  0.2905 -0.3373
  499MOL0     C67286   9.408   5.790   8.659  0.4279  0.1110  0.2964
  499MOL0     C67287   9.270   5.775   8.660  1.6750 -0.7247 -0.1897
  499MOL0     O67288   9.196   5.894   8.643 -0.3003 -0.0807  0.1173
  499MOL0     C67289   9.056   5.880   8.610 -0.9337 -0.0750  0.2602
  499MOL0     C67290   8.993   6.021   8.597  0.1034 -0.4930 -0.8540
  499MOL0     C67291   9.054   6.095   8.474 -0.2288 -0.1924 -0.8213
  499MOL0     C67292   8.991   6.241   8.478 -0.1238  0.6227  0.9416
  499MOL0     C67293   8.864   6.245   8.416 -0.2983 -0.2405 -0.3009
  499MOL0     C67294   8.747   6.242   8.380 -0.0080  0.4287  0.8294
  499MOL0     C67295   9.223   5.640   8.661  0.2223 -0.9110 -0.1462
  499MOL0     C67296   9.309   5.537   8.684 -0.8425  0.1285  0.7320
  499MOL0     C67297   9.253   5.396   8.688  0.8773 -0.2462 -0.0338
  499MOL0     H67298   9.729   5.364   8.908 -0.8514  0.5236 -2.1538
  499MOL0     H67299   9.891   5.197   8.977 -0.3163  1.3653 -2.0676
  499MOL0     H67300  10.043   4.998   9.010 -0.9093  1.1265  0.8686
  499MOL0     H67301   9.902   4.992   9.112 -1.0306  0.8046 -1.5349
  499MOL0     H67302  10.024   4.744   9.033 -1.9773 -0.5208  0.1036
  499MOL0     H67303   9.934   4.786   9.185 -1.7704 -0.5010 -2.0488
  499MOL0     H67304  10.131   4.920   9.259 -3.1408  0.0951  0.0416
  499MOL0     H67305  10.228   4.877   9.118  0.1722 -3.1068 -0.1252
  499MOL0     H67306  10.131   4.685   9.323  4.0652  0.0609  3.1983
  499MOL0     H67307  10.211   4.637   9.168 -0.9894  0.5999 -2.4215
  499MOL0     H67308  10.330   4.819   9.382  0.1091  2.6966 -4.3738
  499MOL0     H67309  10.334   4.636   9.377 -2.8729 -1.1803  0.7055
  499MOL0     H67310  10.464   4.682   9.134 -0.6757  1.4899 -0.5479
  499MOL0     H67311  10.473   4.853   9.194  2.3643  0.8269  0.9215
  499MOL0     H67312  10.589   4.772   9.383 -0.8477 -2.3578  1.5790
  499MOL0     H67313  10.669   4.746   9.219 -0.9137  2.7412 -0.9753
  499MOL0     H67314  10.545   4.545   9.413  0.9288 -2.5791 -0.0893
  499MOL0     H67315  10.589   4.498   9.253 -0.8190 -0.0930  0.1305
  499MOL0     H67316  10.733   4.615   9.604  0.6340  1.3687  0.4514
  499MOL0     H67317  11.052   4.427   9.651 -1.1003  0.0982 -1.1246
  499MOL0     H67318  11.093   4.596   9.618 -0.5706  0.9084  0.3425
  499MOL0     H67319  10.902   4.663   9.758  2.3987  1.2329 -2.2440
  499MOL0     H67320  10.877   4.501   9.811 -1.9198  0.8122 -0.9804
  499MOL0     H67321  11.014   4.618   9.980  0.3913 -0.1761  0.8341
  499MOL0     H67322  11.140   4.631   9.867 -0.3968  0.3498 -0.5698
  499MOL0     H67323  11.024   4.351   9.949 -0.9879  0.3573 -0.4899
  499MOL0     H67324  11.164   4.426  10.029  0.1014 -0.0443 -1.2828
  499MOL0     H67325  11.401   4.539   9.772  3.0291  0.6756 -0.4877
  499MOL0     H67326  11.622   4.513   9.886 -0.8861 -0.1152 -1.6434
  499MOL0     H67327  11.936   4.243   9.892 -2.0103 -0.7936  1.5312
  499MOL0     H67328  12.185   4.245   9.916  1.3393  0.8019 -0.5762
  499MOL0     H67329  12.352   4.481  10.192 -5.3293  3.2002 -3.6623
  499MOL0     H67330  12.450   4.353  10.123  2.1089  1.2095  0.9759
  499MOL0     H67331  12.550   4.568   9.982  0.1235 -0.9750 -0.2811
  499MOL0     H67332  12.476   4.659  10.121 -1.6061 -1.1352  1.7851
  499MOL0     H67333  12.654   4.429  10.190  1.9425  1.2418  1.0800
  499MOL0     H67334  12.727   4.575  10.127  1.1243 -0.7353  1.8991
  499MOL0     H67335  12.560   4.560  10.379  0.0104  1.6120  0.3611
  499MOL0     H67336  12.661   4.699  10.340  0.7708  0.3096  0.2999
  499MOL0     H67337  12.794   4.599  10.490  1.3628 -0.4320 -0.0026
  499MOL0     H67338  12.865   4.539  10.338  0.0986  0.2403 -0.1495
  499MOL0     H67339  12.774   4.330  10.358 -0.2951 -1.1604  0.2292
  499MOL0     H67340  12.875   4.368  10.483 -0.1488 -0.4977 -1.2956
  499MOL0     H67341  12.667   4.445  10.624  3.1794 -0.0664  1.0081
  499MOL0     H67342  12.728   4.282  10.642 -2.8797 -3.1204 -0.2497
  499MOL0     H67343  12.478   4.290  10.580  0.1429  1.1510 -1.2151
  499MOL0     H67344  12.528   4.349  10.428 -1.5059 -1.0660 -0.6915
  499MOL0     H67345  12.193   4.619  10.110  2.1274 -1.6302 -1.0052
  499MOL0     H67346  11.923   4.610  10.120 -0.3908 -1.4304  2.6658
  499MOL0     H67347  11.504   4.151  10.063 -1.1592 -0.6918 -1.6276
  499MOL0     H67348  11.274   4.174   9.974  1.3867  0.2175  0.6222
  499MOL0     H67349   9.665   4.890   8.797  1.3553  0.1865 -2.2231
  499MOL0     H67350   9.502   5.077   8.703  0.0846  3.9549 -0.7962
  499MOL0     H67351   9.608   5.709   8.683 -0.2002 -0.6594  0.2898
  499MOL0     H67352   9.440   5.894   8.654  1.6231 -0.1703  1.5147
  499MOL0     H67353   9.011   5.814   8.685  0.6934 -1.6891 -0.1314
  499MOL0     H67354   9.055   5.819   8.520  1.5383  0.1097  0.0502
  499MOL0     H67355   9.006   6.063   8.697 -2.4670  0.1621 -0.7308
  499MOL0     H67356   8.885   6.007   8.584  0.2860 -2.5110 -0.5356
  499MOL0     H67357   9.039   6.026   8.390  2.2893 -0.7051 -0.9310
  499MOL0     H67358   9.162   6.110   8.481 -0.3459  0.8271 -0.9761
  499MOL0     H67359   8.991   6.263   8.585  0.9553 -0.6782  1.2329
  499MOL0     H67360   9.056   6.302   8.415 -1.2751 -0.3215 -1.2589
  499MOL0     H67361   8.647   6.254   8.343 -0.1462 -1.6885  0.3703
  499MOL0     H67362   9.119   5.616   8.642 -0.5837  0.7035  1.7638
  499MOL0     H67363   9.240   5.347   8.785  1.3803  1.3219  0.8618
  499MOL0     H67364   9.154   5.395   8.641  0.5673  0.7456  0.5636
  499MOL0     H67365   9.313   5.329   8.626 -2.2383 -1.6645 -1.7921
  500MOL0     O67366   4.414   3.819   3.339  0.4398  0.7245  0.5969
  500MOL0     C67367   4.315   3.844   3.402  0.4210 -0.1765 -0.2330
  500MOL0     O67368   4.309   3.941   3.491 -0.2169  0.3181  0.0017
  500MOL0     C67369   4.400   4.036   3.487  0.4223 -0.9969  0.7059
  500MOL0     C67370   4.521   4.039   3.558 -0.1370  0.2337 -1.0094
  500MOL0     C67371   4.610   4.153   3.547 -0.2623 -1.1099 -0.1510
  500MOL0     C67372   4.577   4.271   3.472 -0.1538  0.2524  0.6041
  500MOL0     O67373   4.676   4.370   3.473 -0.1332  0.0149  0.6542
  500MOL0     C67374   4.652   4.494   3.406  0.3198  0.3129 -0.5638
  500MOL0     C67375   4.739   4.611   3.450  0.0427 -0.9764  0.4711
  500MOL0     C67376   4.889   4.590   3.426 -0.1882 -0.5767  0.0273
  500MOL0     C67377   4.924   4.487   3.318 -0.7189 -0.8504 -0.6281
  500MOL0     C67378   5.069   4.510   3.267 -0.1954 -0.0329  0.0324
  500MOL0     C67379   5.106   4.412   3.150  0.1676  0.6998  0.2793
  500MOL0     C67380   5.259   4.395   3.117 -0.8118 -0.9185  0.9303
  500MOL0     C67381   5.294   4.297   3.012 -0.0790  0.2516  0.4870
  500MOL0     N67382   5.431   4.284   2.971 -0.7290 -0.4788 -0.0237
  500MOL0     C67383   5.528   4.225   3.048 -0.1521 -0.2617 -0.4053
  500MOL0     C67384   5.650   4.247   2.987  0.8918 -0.0772  0.1254
  500MOL0     C67385   5.786   4.191   3.030  0.4428 -0.0912  0.4404
  500MOL0     C67386   5.897   4.298   3.013 -0.0673 -0.0580  0.3529
  500MOL0     C67387   6.026   4.233   3.061 -0.4648  0.0705 -0.0231
  500MOL0     C67388   6.155   4.315   3.021 -0.1049  0.2729  0.4102
  500MOL0     O67389   6.273   4.248   3.085 -0.4355 -0.5551  0.0957
  500MOL0     C67390   6.399   4.294   3.058  0.8820 -0.2607 -0.5267
  500MOL0     C67391   6.440   4.361   2.941  0.2115  0.5490 -0.5354
  500MOL0     C67392   6.577   4.407   2.914 -0.5523  0.6683  0.5553
  500MOL0     C67393   6.671   4.382   3.014  0.2587  0.5837 -0.3029
  500MOL0     C67394   6.814   4.421   2.993 -0.5039  0.1536 -1.1324
  500MOL0     O67395   6.893   4.441   3.103 -0.4115  0.5505 -0.7655
  500MOL0     C67396   7.026   4.436   3.086  0.5078 -0.5805  0.5195
  500MOL0     C67397   7.095   4.535   3.016  1.2102  0.1515  0.0769
  500MOL0     C67398   7.234   4.538   3.013  0.2564  0.0220  0.0492
  500MOL0     C67399   7.302   4.431   3.056  0.2936 -0.3712  0.2135
  500MOL0     O67400   7.442   4.438   3.049 -0.5778  0.3011 -0.5481
  500MOL0     C67401   7.510   4.310   3.017  0.0154 -0.1463  0.9466
  500MOL0     C67402   7.653   4.343   3.053 -0.0004  0.2246 -1.6540
  500MOL0     C67403   7.717   4.412   2.941  0.3274  0.7479  0.8344
  500MOL0     C67404   7.850   4.466   2.979  0.0418  0.2122 -0.0178
  500MOL0     C67405   7.911   4.547   2.876 -0.0775 -0.0558 -0.4952
  500MOL0     C67406   8.061   4.572   2.908 -0.0276  0.5159  0.1563
  500MOL0     C67407   8.123   4.674   2.817 -0.2822  0.8667 -0.1155
  500MOL0     C67408   8.108   4.814   2.882 -0.4533 -0.2240  0.2545
  500MOL0    Cl67409   8.212   4.833   3.013 -0.5625 -0.1806 -0.0089
  500MOL0     C67410   7.230   4.319   3.110  0.2245  1.3348 -0.3340
  500MOL0     C67411   7.094   4.324   3.123  0.0329  0.4937 -0.0304
  500MOL0     O67412   6.848   4.449   2.882  0.1330  1.0046  0.0859
  500MOL0     C67413   6.632   4.329   3.143 -0.1609 -0.4595  0.5597
  500MOL0     C67414   6.502   4.275   3.152  0.6143  0.8649 -0.4821
  500MOL0     N67415   5.623   4.328   2.883 -0.0029 -0.0103 -0.0071
  500MOL0     N67416   5.496   4.362   2.880 -0.0812 -0.7030 -0.1301
  500MOL0     C67417   4.452   4.263   3.399  0.1233 -0.0948 -0.5998
  500MOL0     C67418   4.373   4.148   3.409  0.2106  0.5971  1.5019
  500MOL0     C67419   4.190   3.750   3.406 -0.2201 -0.7436 -0.3512
  500MOL0     C67420   4.207   3.627   3.344  0.0051 -0.0638 -0.6279
  500MOL0     C67421   4.105   3.533   3.330 -0.4076  0.1225 -0.4157
  500MOL0     C67422   3.984   3.551   3.391 -0.0172 -0.2414  0.4521
  500MOL0     O67423   3.885   3.450   3.391 -0.2246 -0.3895 -0.1821
  500MOL0     C67424   3.792   3.434   3.503  0.2257 -0.2065  0.4637
  500MOL0     C67425   3.656   3.480   3.464  0.4939  0.8217 -0.5405
  500MOL0     C67426   3.570   3.460   3.590 -0.8567 -0.9652  0.0857
  500MOL0     C67427   3.419   3.466   3.554  1.2399  0.3152 -0.0613
  500MOL0     C67428   3.372   3.336   3.502 -0.7251 -0.3684  0.5265
  500MOL0     C67429   3.328   3.228   3.476  0.0529 -0.5699 -0.9491
  500MOL0     C67430   3.968   3.668   3.474 -0.3833  1.0681 -0.0394
  500MOL0     C67431   4.063   3.770   3.479  0.3720 -0.0942  1.1427
  500MOL0     C67432   4.023   3.881   3.572 -0.0221 -0.0281 -0.3399
  500MOL0     H67433   4.549   3.949   3.612  1.0711  0.4659 -1.2366
  500MOL0     H67434   4.710   4.153   3.589 -0.5682  2.0813  0.8970
  500MOL0     H67435   4.649   4.485   3.297  1.2463  0.6497 -0.6225
  500MOL0     H67436   4.554   4.522   3.445  0.6850  3.2249 -1.5117
  500MOL0     H67437   4.725   4.631   3.557  0.8287 -0.3387  0.4686
  500MOL0     H67438   4.709   4.700   3.392  0.1677 -2.8061 -2.6077
  500MOL0     H67439   4.934   4.559   3.521 -1.2124 -2.7077 -0.1234
  500MOL0     H67440   4.927   4.686   3.389 -1.2168 -0.4589 -0.7475
  500MOL0     H67441   4.931   4.392   3.371  4.6432 -0.9817 -1.0607
  500MOL0     H67442   4.846   4.501   3.242 -0.4242  1.5113 -0.5601
  500MOL0     H67443   5.093   4.614   3.244  2.1747 -0.1270  1.8393
  500MOL0     H67444   5.132   4.482   3.351  0.1941  1.2987  0.2154
  500MOL0     H67445   5.062   4.316   3.180  1.7990 -0.1150  0.1667
  500MOL0     H67446   5.055   4.440   3.058  0.4197 -0.7295 -0.3141
  500MOL0     H67447   5.315   4.379   3.210 -1.0542  1.1510  1.4712
  500MOL0     H67448   5.290   4.492   3.078 -0.2553 -1.0199  1.1078
  500MOL0     H67449   5.282   4.193   3.042  1.8530 -0.4014 -0.8258
  500MOL0     H67450   5.226   4.314   2.928 -0.4750  0.0336  0.7598
  500MOL0     H67451   5.504   4.170   3.138 -0.1668 -1.0193 -0.8608
  500MOL0     H67452   5.781   4.171   3.138  2.1771 -1.1358  0.3545
  500MOL0     H67453   5.810   4.098   2.978  0.0542 -0.3426  0.7020
  500MOL0     H67454   5.904   4.328   2.908 -1.0559 -0.4168  0.1736
  500MOL0     H67455   5.872   4.389   3.068  2.1793  1.4053 -0.9206
  500MOL0     H67456   6.049   4.136   3.016  2.0094  0.8447 -0.5951
  500MOL0     H67457   6.020   4.226   3.170  2.1105 -2.3959  0.0867
  500MOL0     H67458   6.132   4.416   3.054  1.2709  0.0623  2.1742
  500MOL0     H67459   6.177   4.319   2.914  3.0894  0.8816  0.9893
  500MOL0     H67460   6.372   4.366   2.856  2.3717  1.7444 -2.3084
  500MOL0     H67461   6.603   4.457   2.821 -0.4938  1.2964  0.9121
  500MOL0     H67462   7.036   4.609   2.963 -1.4989  0.3757  3.0609
  500MOL0     H67463   7.280   4.628   2.974 -2.5368  0.6966 -1.9357
  500MOL0     H67464   7.469   4.230   3.080 -2.7044  1.5708  1.5523
  500MOL0     H67465   7.505   4.288   2.910 -0.6324  3.0964  0.2028
  500MOL0     H67466   7.660   4.399   3.147 -0.4284  0.1594 -1.5805
  500MOL0     H67467   7.703   4.246   3.065  0.0301 -0.9254 -7.6734
  500MOL0     H67468   7.719   4.343   2.856 -1.9071 -0.3102  1.5387
  500MOL0     H67469   7.646   4.492   2.922 -1.3611 -1.1213 -1.3939
  500MOL0     H67470   7.913   4.377   2.991  0.4384  0.4633 -0.2203
  500MOL0     H67471   7.853   4.518   3.075  1.0748  1.6492 -0.7925
  500MOL0     H67472   7.850   4.637   2.858 -2.9890 -1.7116  0.3522
  500MOL0     H67473   7.920   4.486   2.786  1.3545 -1.3509  0.4696
  500MOL0     H67474   8.074   4.597   3.014  3.8554 -1.2344  0.2697
  500MOL0     H67475   8.101   4.471   2.895 -2.3123 -0.2859 -1.1873
  500MOL0     H67476   8.059   4.680   2.729  0.7390  2.1721 -0.8067
  500MOL0     H67477   8.229   4.656   2.795 -0.8006 -3.7979  0.1140
  500MOL0     H67478   8.140   4.883   2.803  1.9233 -1.4596  0.0545
  500MOL0     H67479   8.007   4.835   2.919 -0.4569 -2.4772  1.7223
  500MOL0     H67480   7.278   4.237   3.162  0.1046  1.8788  0.6783
  500MOL0     H67481   7.038   4.244   3.170  0.3360 -0.2760 -0.9564
  500MOL0     H67482   6.706   4.306   3.218 -0.4024 -4.8982 -0.3012
  500MOL0     H67483   6.467   4.224   3.241  1.9531 -2.3535 -1.6440
  500MOL0     H67484   4.413   4.345   3.341 -0.0372 -0.8936 -1.6419
  500MOL0     H67485   4.285   4.145   3.345  1.8478 -0.6105 -0.8682
  500MOL0     H67486   4.303   3.595   3.306  0.3318 -2.6244  2.0039
  500MOL0     H67487   4.118   3.434   3.287  2.0392 -0.2628  1.0281
  500MOL0     H67488   3.824   3.486   3.594 -1.2395  1.7004 -0.0650
  500MOL0     H67489   3.787   3.328   3.528 -0.5877  0.4869  3.6692
  500MOL0     H67490   3.607   3.419   3.387 -0.5135 -1.5422  1.8447
  500MOL0     H67491   3.651   3.583   3.427 -2.9519  1.3394  0.9847
  500MOL0     H67492   3.607   3.533   3.663  1.0338 -1.3699 -0.4085
  500MOL0     H67493   3.597   3.361   3.631 -1.9271 -1.0579  0.5999
  500MOL0     H67494   3.361   3.498   3.642  0.1752  0.0307 -0.6392
  500MOL0     H67495   3.403   3.549   3.484  3.0320  0.2704 -0.5500
  500MOL0     H67496   3.275   3.136   3.461 -0.5467 -0.5615  0.8946
  500MOL0     H67497   3.875   3.677   3.529 -0.5007  1.5211 -0.3071
  500MOL0     H67498   3.916   3.883   3.592 -0.9487  0.0840 -4.5286
  500MOL0     H67499   4.073   3.857   3.667 -2.1023 -0.0773  0.7861
  500MOL0     H67500   4.051   3.984   3.546 -0.6561  0.7352  1.7982
  501MOL0     O67501   8.136   9.873   5.958  0.1494 -0.2167 -0.3120
  501MOL0     C67502   8.223   9.845   5.875  0.6205  0.4391 -0.1770
  501MOL0     O67503   8.355   9.802   5.900  0.1472  0.3068  0.2612
  501MOL0     C67504   8.383   9.776   6.027 -0.5786  0.1479 -0.0018
  501MOL0     C67505   8.397   9.881   6.119  0.7266 -0.6126  0.5643
  501MOL0     C67506   8.406   9.859   6.253 -0.6766  0.3251 -0.4285
  501MOL0     C67507   8.422   9.723   6.301  0.0786 -0.7041 -0.8582
  501MOL0     O67508   8.427   9.710   6.440 -0.7936 -0.2278 -0.3164
  501MOL0     C67509   8.400   9.585   6.497 -0.0305 -0.5355  0.2562
  501MOL0     C67510   8.447   9.576   6.643  0.1108 -0.3958 -0.1500
  501MOL0     C67511   8.416   9.683   6.744  0.3527 -0.1785  0.5009
  501MOL0     C67512   8.513   9.690   6.860 -0.4750 -0.7263 -0.6616
  501MOL0     C67513   8.511   9.816   6.959  0.2087 -0.0439 -0.2712
  501MOL0     C67514   8.597   9.792   7.088 -0.2448 -0.3221  0.3294
  501MOL0     C67515   8.750   9.767   7.076 -1.7337  0.6263  0.4949
  501MOL0     C67516   8.820   9.902   7.081 -0.1936  0.0449 -0.6264
  501MOL0     N67517   8.968   9.888   7.069  0.2243 -0.2860  0.9538
  501MOL0     C67518   9.042   9.885   7.185 -0.8571 -0.2175  0.5885
  501MOL0     C67519   9.156   9.945   7.147 -0.1158  0.8396 -0.2909
  501MOL0     C67520   9.261   9.994   7.247  0.0729 -0.0752 -0.3395
  501MOL0     C67521   9.368  10.091   7.194  0.8696 -0.3449 -0.8966
  501MOL0     C67522   9.315  10.226   7.146 -0.6600 -0.0565 -0.0642
  501MOL0     C67523   9.204  10.293   7.237 -0.4627  0.3491  0.6849
  501MOL0     O67524   9.232  10.291   7.379  0.5853  0.7860 -0.3739
  501MOL0     C67525   9.317  10.392   7.430 -1.0148 -0.3550 -0.2194
  501MOL0     C67526   9.395  10.487   7.359  0.1687  0.3097  0.5201
  501MOL0     C67527   9.484  10.582   7.418  0.2433  0.2830 -0.7730
  501MOL0     C67528   9.487  10.592   7.557 -1.0160 -0.6658  1.6164
  501MOL0     C67529   9.575  10.693   7.618  0.0806 -0.5356 -0.4670
  501MOL0     O67530   9.627  10.799   7.542  0.3828  0.2041 -0.7937
  501MOL0     C67531   9.725  10.881   7.580 -0.3623  0.5847 -1.1543
  501MOL0     C67532   9.746  11.001   7.499 -0.3117 -0.0471  0.2093
  501MOL0     C67533   9.849  11.090   7.535  0.0122  0.0171 -0.0749
  501MOL0     C67534   9.922  11.065   7.657  0.6543  0.6266 -0.1804
  501MOL0     O67535  10.015  11.151   7.695  0.0049 -0.3007  0.0193
  501MOL0     C67536   9.984  11.289   7.691  0.2256  0.3079  0.2457
  501MOL0     C67537  10.072  11.368   7.793 -0.0117  0.2816  0.3283
  501MOL0     C67538  10.079  11.309   7.936  0.8860  0.9106 -0.9740
  501MOL0     C67539  10.150  11.395   8.036 -0.1792 -0.9732  0.0088
  501MOL0     C67540  10.290  11.438   7.975 -0.4637 -0.2202 -0.0050
  501MOL0     C67541  10.383  11.492   8.089  0.3785  0.4644 -0.3415
  501MOL0     C67542  10.521  11.513   8.022 -0.5152 -0.2835 -1.4457
  501MOL0     C67543  10.620  11.558   8.130 -0.4309 -0.7079  0.8205
  501MOL0    Cl67544  10.584  11.705   8.219 -0.3350 -0.4533  0.3812
  501MOL0     C67545   9.895  10.958   7.741 -0.4544  0.4514  0.1020
  501MOL0     C67546   9.803  10.862   7.695 -0.6103  0.1405 -0.7374
  501MOL0     O67547   9.589  10.679   7.737  0.0846  0.2495 -0.2890
  501MOL0     C67548   9.401  10.512   7.629 -0.2495  0.0162 -0.3989
  501MOL0     C67549   9.321  10.409   7.573  0.9894 -1.1985  0.1259
  501MOL0     N67550   9.149   9.963   7.016  0.0581  0.0499  0.1128
  501MOL0     N67551   9.047   9.921   6.960  0.1565  0.9338  0.5115
  501MOL0     C67552   8.426   9.616   6.204 -1.0429 -0.1006  1.2866
  501MOL0     C67553   8.404   9.648   6.068 -0.1796 -0.2074  0.5093
  501MOL0     C67554   8.179   9.855   5.732  0.3565  0.1901 -0.2046
  501MOL0     C67555   8.039   9.872   5.713 -0.0942  0.3570 -0.6136
  501MOL0     C67556   7.980   9.857   5.591  0.5081 -0.4525 -0.0000
  501MOL0     C67557   8.055   9.850   5.476 -0.4387 -0.0566  0.6011
  501MOL0     O67558   7.990   9.859   5.356  0.8735 -0.3341 -0.3621
  501MOL0     C67559   8.053   9.916   5.242 -0.1000  0.1702 -0.1673
  501MOL0     C67560   7.963   9.905   5.122 -0.1274  0.0595  0.8444
  501MOL0     C67561   7.844  10.007   5.143 -0.1902 -0.1844  0.7944
  501MOL0     C67562   7.751  10.022   5.017 -0.0868 -1.1301  0.5553
  501MOL0     C67563   7.832  10.055   4.892 -1.6238 -0.0964 -0.1396
  501MOL0     C67564   7.889  10.093   4.788 -0.2250 -0.7449  0.0559
  501MOL0     C67565   8.195   9.864   5.488 -0.1240 -0.6171  0.0792
  501MOL0     C67566   8.256   9.868   5.615 -0.7465  0.3584  0.4122
  501MOL0     C67567   8.406   9.851   5.613  0.7355  0.4185  0.1473
  501MOL0     H67568   8.397   9.985   6.088  0.6279  0.0878  2.6920
  501MOL0     H67569   8.408   9.939   6.327 -2.7130  0.3389 -0.3313
  501MOL0     H67570   8.291   9.577   6.503  0.1378 -5.4753  0.9628
  501MOL0     H67571   8.441   9.498   6.445  1.1653 -0.2442  0.6776
  501MOL0     H67572   8.553   9.549   6.642  0.6285  1.5144 -0.6791
  501MOL0     H67573   8.397   9.486   6.679 -0.3569  0.0789  0.4011
  501MOL0     H67574   8.312   9.675   6.777  0.1606 -2.1345 -0.4449
  501MOL0     H67575   8.422   9.781   6.695 -0.5529 -0.4506 -0.1809
  501MOL0     H67576   8.490   9.600   6.920 -0.0948 -2.1461 -2.5576
  501MOL0     H67577   8.612   9.676   6.816  1.2810 -0.1609  2.7776
  501MOL0     H67578   8.555   9.900   6.904  0.1532  0.7372  0.8305
  501MOL0     H67579   8.412   9.853   6.988  0.4833 -0.0067  0.6701
  501MOL0     H67580   8.574   9.877   7.153 -0.9568 -2.3586  2.9467
  501MOL0     H67581   8.545   9.701   7.121 -2.3871 -0.5886 -3.2201
  501MOL0     H67582   8.769   9.712   6.983 -4.2299 -0.3933  0.5230
  501MOL0     H67583   8.790   9.709   7.159 -2.0220 -0.2038  0.0608
  501MOL0     H67584   8.777   9.965   7.003 -0.8792  1.3123  0.7231
  501MOL0     H67585   8.806   9.959   7.173  1.3215  2.4249 -1.7714
  501MOL0     H67586   9.016   9.865   7.288  2.2057  2.4134  2.0420
  501MOL0     H67587   9.190  10.029   7.323 -0.8204  0.9212 -1.5916
  501MOL0     H67588   9.299   9.902   7.292  3.0917  0.2079 -2.0756
  501MOL0     H67589   9.432  10.123   7.277  1.3304  2.8894 -2.3307
  501MOL0     H67590   9.428  10.039   7.118 -1.1498  2.5945 -4.8912
  501MOL0     H67591   9.260  10.206   7.054 -2.8400  2.2196  0.6463
  501MOL0     H67592   9.398  10.294   7.126 -0.1128 -0.7949 -0.3558
  501MOL0     H67593   9.113  10.242   7.205 -2.0023  3.2456  0.1092
  501MOL0     H67594   9.177  10.389   7.192  0.7891 -0.2158 -1.3730
  501MOL0     H67595   9.379  10.499   7.252 -0.9145 -0.7892  0.5366
  501MOL0     H67596   9.538  10.652   7.356  0.9249 -1.3965 -2.1467
  501MOL0     H67597   9.681  11.031   7.418  0.5734  2.9525  0.5132
  501MOL0     H67598   9.860  11.180   7.474 -1.6428 -0.1941 -0.7435
  501MOL0     H67599  10.012  11.316   7.589 -1.9493  4.1790  0.4819
  501MOL0     H67600   9.876  11.305   7.704  0.0657  2.7257 -2.8335
  501MOL0     H67601  10.172  11.375   7.750 -1.0537  1.6799 -2.1264
  501MOL0     H67602  10.042  11.473   7.794 -0.5090  0.1498  1.9632
  501MOL0     H67603   9.977  11.304   7.975 -0.0493  3.6160 -2.7308
  501MOL0     H67604  10.119  11.207   7.935  0.9615  0.9094  0.2891
  501MOL0     H67605  10.157  11.333   8.125  0.5318 -2.3419 -0.9555
  501MOL0     H67606  10.089  11.485   8.048  0.7499 -0.1093 -1.3119
  501MOL0     H67607  10.276  11.517   7.901  0.2583  0.3149  0.4104
  501MOL0     H67608  10.344  11.358   7.923  1.0788  1.5897 -1.3675
  501MOL0     H67609  10.349  11.590   8.124  0.0837  0.7397 -1.3512
  501MOL0     H67610  10.389  11.425   8.175 -0.9708 -1.0748 -1.4019
  501MOL0     H67611  10.509  11.585   7.940 -1.6286 -0.8393 -1.7958
  501MOL0     H67612  10.564  11.419   7.988  2.1442 -0.0763  1.0690
  501MOL0     H67613  10.635  11.485   8.210  2.8019  0.0082  1.0469
  501MOL0     H67614  10.717  11.572   8.080 -1.2348  0.5117 -0.4852
  501MOL0     H67615   9.954  10.957   7.832  0.5564  2.8987 -0.4533
  501MOL0     H67616   9.787  10.771   7.752 -3.5376  1.7588  1.2633
  501MOL0     H67617   9.408  10.532   7.735 -1.5475 -0.7787 -0.1421
  501MOL0     H67618   9.267  10.333   7.629 -1.4496 -0.2360 -0.7931
  501MOL0     H67619   8.433   9.509   6.219  2.2603 -0.7375 -3.0358
  501MOL0     H67620   8.404   9.582   5.981 -0.1135  1.9798 -1.2546
  501MOL0     H67621   7.968   9.872   5.795  2.0084 -0.7114  1.3375
  501MOL0     H67622   7.872   9.865   5.581  0.7989  1.3441 -2.8865
  501MOL0     H67623   8.140   9.854   5.218  0.1339  0.8032 -1.0141
  501MOL0     H67624   8.105  10.011   5.258  4.4835 -2.0864 -0.2495
  501MOL0     H67625   7.917   9.805   5.120 -0.6288  0.2836  0.9748
  501MOL0     H67626   8.024   9.929   5.034  0.2246  0.7660  1.2776
  501MOL0     H67627   7.878  10.103   5.182  1.4044  0.5705 -2.1571
  501MOL0     H67628   7.772   9.965   5.214 -1.7240  1.2565  0.1426
  501MOL0     H67629   7.702   9.928   4.992  2.1710 -2.2846  0.2295
  501MOL0     H67630   7.676  10.098   5.043 -2.3134 -2.2629 -2.0647
  501MOL0     H67631   7.966  10.108   4.715  2.8541  1.5465  3.4272
  501MOL0     H67632   8.246   9.860   5.393  0.2951 -2.5864  0.3291
  501MOL0     H67633   8.446   9.884   5.517 -1.2434  2.3995 -0.0828
  501MOL0     H67634   8.461   9.910   5.687  2.6171 -2.7590  1.4678
  501MOL0     H67635   8.431   9.746   5.626  0.0789  0.1872 -0.3742
  502MOL0     O67636   2.069   4.385   7.138  0.0865 -0.5156  1.0976
  502MOL0     C67637   2.087   4.442   7.242  1.0951  0.4140  0.0016
  502MOL0     O67638   2.178   4.531   7.269 -0.0860  0.6152 -0.2692
  502MOL0     C67639   2.270   4.549   7.175 -0.4149 -0.0862  0.3562
  502MOL0     C67640   2.281   4.678   7.120 -0.5855 -0.3074  0.6295
  502MOL0     C67641   2.374   4.709   7.022 -0.1564 -0.5513  0.1799
  502MOL0     C67642   2.465   4.623   6.986 -0.4058 -0.4121  0.0064
  502MOL0     O67643   2.567   4.663   6.901 -0.2863 -0.1720 -0.3827
  502MOL0     C67644   2.669   4.574   6.873  0.6357  0.6211 -0.1297
  502MOL0     C67645   2.755   4.636   6.772 -0.3012  0.2670 -0.0427
  502MOL0     C67646   2.873   4.549   6.732  0.7308  0.1851  0.0394
  502MOL0     C67647   2.941   4.626   6.619 -0.5184 -0.0785  0.3539
  502MOL0     C67648   3.070   4.555   6.575 -0.1690 -0.3163 -0.6090
  502MOL0     C67649   3.169   4.564   6.691 -0.1952 -0.0265 -0.1731
  502MOL0     C67650   3.299   4.504   6.650 -0.5671  0.4776  0.6466
  502MOL0     C67651   3.411   4.565   6.740  0.5255  0.1190 -0.1946
  502MOL0     N67652   3.545   4.512   6.712  0.8509 -0.5628 -0.3294
  502MOL0     C67653   3.588   4.413   6.792  0.2861  0.1509  0.0648
  502MOL0     C67654   3.716   4.397   6.758 -0.6204  0.2239  0.5286
  502MOL0     C67655   3.800   4.298   6.822 -0.4990 -0.3365 -0.6417
  502MOL0     C67656   3.864   4.349   6.953  0.2896 -0.3266 -0.3563
  502MOL0     C67657   3.775   4.341   7.079  0.4035 -0.2190 -0.3930
  502MOL0     C67658   3.856   4.387   7.194  0.2976 -0.3674 -0.5356
  502MOL0     O67659   3.965   4.298   7.213 -0.6532  0.1110  0.1779
  502MOL0     C67660   4.072   4.342   7.287  0.3798 -0.0873  0.5825
  502MOL0     C67661   4.181   4.266   7.272 -0.7117 -0.7080  0.5826
  502MOL0     C67662   4.305   4.296   7.348 -0.3199 -0.1110  0.3843
  502MOL0     C67663   4.312   4.401   7.440  0.4383  0.4281 -0.1814
  502MOL0     C67664   4.441   4.441   7.506 -0.1205  0.3647 -0.0538
  502MOL0     O67665   4.565   4.404   7.448  0.8883  0.0576  0.2246
  502MOL0     C67666   4.681   4.401   7.512 -0.2149  0.3433  0.0987
  502MOL0     C67667   4.699   4.319   7.627 -0.1104  0.0195  0.4491
  502MOL0     C67668   4.818   4.313   7.688 -0.4383 -0.4889 -0.0218
  502MOL0     C67669   4.927   4.396   7.647  1.0688  0.6700 -0.3665
  502MOL0     O67670   5.041   4.387   7.732  0.1350  0.3431 -0.4445
  502MOL0     C67671   5.138   4.484   7.711  0.3810 -0.0540  0.4674
  502MOL0     C67672   5.242   4.464   7.820  0.3271  0.6361 -0.7135
  502MOL0     C67673   5.362   4.548   7.815 -0.5639 -0.3632 -0.2809
  502MOL0     C67674   5.466   4.498   7.930 -0.3987 -1.0747  0.4665
  502MOL0     C67675   5.582   4.595   7.955 -0.7712 -0.4073 -0.3882
  502MOL0     C67676   5.692   4.537   8.042  0.6086 -0.8259 -0.4275
  502MOL0     C67677   5.816   4.634   8.035 -1.6208  0.0751 -0.2573
  502MOL0     C67678   5.958   4.581   8.070  0.5337  0.3785  0.2788
  502MOL0    Cl67679   6.073   4.716   8.054  0.2052  0.0099 -0.1793
  502MOL0     C67680   4.918   4.469   7.527 -0.3463 -0.1424  0.2448
  502MOL0     C67681   4.794   4.470   7.459  0.0251  0.3515 -0.6222
  502MOL0     O67682   4.433   4.492   7.618  0.0513 -0.2978  0.1285
  502MOL0     C67683   4.194   4.473   7.450 -0.5937  0.0060 -0.1742
  502MOL0     C67684   4.076   4.446   7.376 -0.0481 -0.1170 -0.8355
  502MOL0     N67685   3.744   4.486   6.656 -0.2095  1.3285  0.4341
  502MOL0     N67686   3.640   4.539   6.616  0.0445 -0.4654  0.2527
  502MOL0     C67687   2.453   4.493   7.036  0.1005  0.0685 -0.8714
  502MOL0     C67688   2.366   4.460   7.138 -1.0098 -0.0026  0.1303
  502MOL0     C67689   1.987   4.403   7.359 -0.0498 -0.8089  1.4802
  502MOL0     C67690   2.003   4.479   7.481  0.1675  0.4077 -0.0564
  502MOL0     C67691   1.924   4.459   7.591  0.3828  0.0789 -0.2460
  502MOL0     C67692   1.830   4.353   7.592 -0.4220 -0.5208 -0.1844
  502MOL0     O67693   1.744   4.330   7.692 -0.4733  0.0298 -0.4510
  502MOL0     C67694   1.737   4.396   7.815  0.2495 -0.3896  1.0339
  502MOL0     C67695   1.585   4.427   7.865 -0.1817  0.2739  0.2419
  502MOL0     C67696   1.482   4.475   7.758 -0.3596  0.2308  0.9357
  502MOL0     C67697   1.356   4.531   7.827 -0.5500 -0.3633  0.2182
  502MOL0     C67698   1.286   4.420   7.887 -0.8995 -0.3042 -0.7737
  502MOL0     C67699   1.232   4.331   7.951  0.1003  0.6482 -0.0487
  502MOL0     C67700   1.813   4.282   7.476 -0.2622 -0.1478 -0.2383
  502MOL0     C67701   1.884   4.304   7.360  0.1913 -0.2205 -0.4073
  502MOL0     C67702   1.840   4.225   7.235  0.0571  0.1372 -0.6426
  502MOL0     H67703   2.213   4.757   7.152 -1.9744 -0.8620 -0.8750
  502MOL0     H67704   2.375   4.811   6.984 -1.4556 -0.6074 -0.0649
  502MOL0     H67705   2.733   4.555   6.960 -2.0505  1.0581  2.0958
  502MOL0     H67706   2.626   4.481   6.836  0.8648 -0.8759  3.0618
  502MOL0     H67707   2.799   4.731   6.806  1.7723  0.3568 -2.6802
  502MOL0     H67708   2.686   4.663   6.692 -1.1591  0.4811  0.7488
  502MOL0     H67709   2.842   4.445   6.716  1.7877 -0.8084  3.6727
  502MOL0     H67710   2.938   4.546   6.819  1.9849  2.0063 -0.7733
  502MOL0     H67711   2.863   4.631   6.543 -1.5156  0.1323  1.3580
  502MOL0     H67712   2.970   4.724   6.660 -0.3515  0.3434 -0.7443
  502MOL0     H67713   3.049   4.451   6.550  1.2098 -1.5547  2.8326
  502MOL0     H67714   3.099   4.597   6.478 -1.9333 -1.1937 -1.5664
  502MOL0     H67715   3.185   4.667   6.722 -2.3769  0.4771 -0.5456
  502MOL0     H67716   3.137   4.506   6.778 -1.3652 -0.0325 -0.5927
  502MOL0     H67717   3.322   4.512   6.543  2.0387  2.0709  1.2436
  502MOL0     H67718   3.302   4.398   6.677  2.2846 -0.2575 -1.8706
  502MOL0     H67719   3.417   4.674   6.727  0.6151  0.0926 -0.3863
  502MOL0     H67720   3.397   4.553   6.848  1.6662  2.5969  0.2921
  502MOL0     H67721   3.535   4.371   6.877  0.3763  1.6269  0.8850
  502MOL0     H67722   3.738   4.212   6.849 -1.4224 -0.0840 -1.8616
  502MOL0     H67723   3.879   4.264   6.755  1.7178  2.6661  0.2285
  502MOL0     H67724   3.952   4.286   6.970  1.1042  0.9035  0.1702
  502MOL0     H67725   3.903   4.450   6.938 -1.4347  0.0263 -3.0134
  502MOL0     H67726   3.742   4.239   7.098 -0.7288  0.2203  0.1149
  502MOL0     H67727   3.687   4.405   7.062 -0.5357 -1.4632 -0.3373
  502MOL0     H67728   3.799   4.396   7.287  2.9570  0.6022  1.1520
  502MOL0     H67729   3.896   4.486   7.170  2.7051 -0.7370  1.4308
  502MOL0     H67730   4.174   4.198   7.187  2.6834 -1.1431  0.4836
  502MOL0     H67731   4.394   4.241   7.318  0.7387  1.0651  1.2019
  502MOL0     H67732   4.619   4.254   7.660  0.6011 -0.1400  1.9101
  502MOL0     H67733   4.822   4.250   7.776 -1.6479 -0.1125  0.3259
  502MOL0     H67734   5.178   4.462   7.612 -5.1823 -0.8142 -1.9673
  502MOL0     H67735   5.095   4.585   7.710 -2.6328 -1.2428 -1.4641
  502MOL0     H67736   5.193   4.469   7.918  0.2156 -4.7207 -0.1936
  502MOL0     H67737   5.287   4.365   7.812  1.5179  0.7550  2.8621
  502MOL0     H67738   5.420   4.559   7.723 -3.9279 -0.5126 -2.6090
  502MOL0     H67739   5.328   4.652   7.828 -2.6490 -0.8375 -1.4518
  502MOL0     H67740   5.514   4.406   7.895  0.3239  0.4793 -3.0350
  502MOL0     H67741   5.407   4.496   8.022 -2.5622  1.9573 -0.6819
  502MOL0     H67742   5.543   4.690   7.994 -0.3173  0.3357 -1.6698
  502MOL0     H67743   5.627   4.610   7.856 -0.0720 -0.8882 -0.1407
  502MOL0     H67744   5.655   4.537   8.145  2.6192 -2.0610  0.3541
  502MOL0     H67745   5.718   4.433   8.017 -0.7401 -2.0229  2.6748
  502MOL0     H67746   5.803   4.719   8.103 -0.0425 -2.4443  3.5219
  502MOL0     H67747   5.832   4.677   7.935 -0.9768 -0.7655 -0.5239
  502MOL0     H67748   5.962   4.550   8.175  2.7051 -1.8608 -0.3935
  502MOL0     H67749   5.989   4.499   8.005  0.0293  1.9854 -2.1015
  502MOL0     H67750   4.997   4.523   7.476 -1.4575  0.0452 -1.3380
  502MOL0     H67751   4.795   4.529   7.368  1.0220 -0.5388 -1.2095
  502MOL0     H67752   4.191   4.566   7.507  1.8689  0.3630 -0.4825
  502MOL0     H67753   3.984   4.502   7.389  0.8204  1.1079  0.2825
  502MOL0     H67754   2.522   4.418   7.000  4.2030  2.1493  1.9502
  502MOL0     H67755   2.358   4.362   7.184 -2.9510  0.2317  0.3846
  502MOL0     H67756   2.085   4.551   7.485 -0.3136  0.9326  0.6077
  502MOL0     H67757   1.942   4.513   7.684 -0.5489 -1.9927  1.1983
  502MOL0     H67758   1.793   4.490   7.818 -2.1510  1.3597 -2.3641
  502MOL0     H67759   1.779   4.327   7.888 -0.0199 -1.0803  0.5436
  502MOL0     H67760   1.598   4.509   7.937  1.6061  1.2096 -1.0488
  502MOL0     H67761   1.548   4.347   7.928 -2.0479  0.9495  0.0581
  502MOL0     H67762   1.457   4.391   7.693  3.6950 -1.4859  1.2481
  502MOL0     H67763   1.529   4.538   7.682 -3.0107  0.1924 -0.8421
  502MOL0     H67764   1.391   4.601   7.903 -1.1954 -2.5282  2.6379
  502MOL0     H67765   1.295   4.585   7.754  1.0819  0.7910 -0.3588
  502MOL0     H67766   1.189   4.254   8.013 -1.0324  1.0363 -0.3227
  502MOL0     H67767   1.733   4.211   7.490  0.6626 -1.4698 -1.3026
  502MOL0     H67768   1.773   4.141   7.255 -0.7012  1.2473  1.7770
  502MOL0     H67769   1.793   4.293   7.163 -1.6589  1.0701  1.2691
  502MOL0     H67770   1.930   4.180   7.192 -0.4213 -1.4552 -0.0428
  503MOL0     O67771   9.810   3.849   3.265 -0.0266  0.2306  0.2715
  503MOL0     C67772   9.806   3.958   3.210  0.4198  0.1337 -0.2215
  503MOL0     O67773   9.901   4.000   3.112  0.1429 -0.6565 -0.6481
  503MOL0     C67774  10.020   3.933   3.123 -0.0693 -0.6136 -0.3015
  503MOL0     C67775  10.059   3.858   3.018  0.2256 -0.3227 -0.2298
  503MOL0     C67776  10.179   3.792   3.017  0.4337  0.2076 -0.5605
  503MOL0     C67777  10.275   3.807   3.121 -0.6291  0.1756 -0.1498
  503MOL0     O67778  10.392   3.743   3.107 -0.0578  0.6784 -0.3554
  503MOL0     C67779  10.496   3.785   3.196 -0.5073  0.2923  0.0256
  503MOL0     C67780  10.628   3.725   3.155  0.2358  0.3489 -0.5534
  503MOL0     C67781  10.688   3.769   3.020 -0.0818 -0.5376  0.2460
  503MOL0     C67782  10.611   3.729   2.888  0.3170 -0.5430 -0.6850
  503MOL0     C67783  10.698   3.783   2.774 -0.4773  1.1545 -0.4724
  503MOL0     C67784  10.623   3.737   2.650 -0.3007 -0.3144  0.4553
  503MOL0     C67785  10.707   3.755   2.523 -0.2271  0.2404  0.3721
  503MOL0     C67786  10.635   3.708   2.406  0.4843  0.3998  1.0983
  503MOL0     N67787  10.715   3.733   2.281  0.8621  0.8459  1.1078
  503MOL0     C67788  10.849   3.771   2.276 -0.6620  0.2671  0.0716
  503MOL0     C67789  10.864   3.786   2.141 -0.2521  0.3632 -0.2448
  503MOL0     C67790  10.975   3.859   2.083 -0.1612 -0.0143  0.3895
  503MOL0     C67791  11.038   3.962   2.159 -0.5508  0.2427 -0.4038
  503MOL0     C67792  11.169   4.007   2.087 -0.8868 -0.4417 -0.1000
  503MOL0     C67793  11.225   4.120   2.176 -0.3594  0.4922  1.0899
  503MOL0     O67794  11.268   4.074   2.302  0.7243  0.0110 -0.0936
  503MOL0     C67795  11.403   4.073   2.335 -0.5494 -0.0683  0.5930
  503MOL0     C67796  11.493   4.003   2.257 -0.6247  0.2590  0.0597
  503MOL0     C67797  11.628   4.007   2.286 -0.2675 -0.7595 -0.0642
  503MOL0     C67798  11.681   4.063   2.404 -0.7739 -0.6340  0.0361
  503MOL0     C67799  11.824   4.047   2.427 -0.0426  0.2005  0.0103
  503MOL0     O67800  11.883   4.114   2.532  0.6541  0.3247  0.3611
  503MOL0     C67801  12.015   4.094   2.557 -0.7514  0.8363  0.0403
  503MOL0     C67802  12.112   4.091   2.454 -0.6363  0.2243 -0.4668
  503MOL0     C67803  12.246   4.068   2.480 -1.0211  0.4350 -0.4824
  503MOL0     C67804  12.289   4.065   2.610 -0.2857  0.9118  0.5167
  503MOL0     O67805  12.426   4.032   2.625  0.2688 -0.3327 -0.4130
  503MOL0     C67806  12.473   4.041   2.762  0.1336  0.1152  0.0405
  503MOL0     C67807  12.613   3.992   2.754 -0.5888  0.0170 -0.3848
  503MOL0     C67808  12.670   3.978   2.892 -0.4779 -0.1422 -0.0206
  503MOL0     C67809  12.722   4.106   2.945 -0.4091 -0.1915 -0.1715
  503MOL0     C67810  12.765   4.097   3.100 -0.6492  0.0389  0.0452
  503MOL0     C67811  12.854   3.990   3.154 -0.2285 -0.0011  0.3318
  503MOL0     C67812  12.979   3.963   3.078 -0.1844  1.0491  0.4943
  503MOL0     C67813  13.076   4.076   3.056 -0.1707 -0.6741 -0.8087
  503MOL0    Cl67814  13.166   4.124   3.201  0.2460 -0.1129 -0.1891
  503MOL0     C67815  12.192   4.088   2.713  0.1547  0.8291  0.4453
  503MOL0     C67816  12.056   4.095   2.691 -0.4178  0.4232 -0.1850
  503MOL0     O67817  11.889   3.974   2.351  0.3844  0.2754  0.5706
  503MOL0     C67818  11.583   4.126   2.484  0.4218 -0.3636 -0.5904
  503MOL0     C67819  11.455   4.139   2.448  0.7609  1.1985 -0.3778
  503MOL0     N67820  10.746   3.766   2.074 -0.5478  0.8207  0.3562
  503MOL0     N67821  10.655   3.743   2.159  0.3835 -0.1063 -0.3066
  503MOL0     C67822  10.233   3.890   3.226  0.5114  0.8440 -0.0055
  503MOL0     C67823  10.114   3.956   3.226  1.4605  0.1161  0.0230
  503MOL0     C67824   9.702   4.057   3.244  0.1516 -0.3773  0.0302
  503MOL0     C67825   9.696   4.169   3.158  0.0719  0.3046  0.0533
  503MOL0     C67826   9.612   4.280   3.184 -0.2490  0.0665 -0.1303
  503MOL0     C67827   9.547   4.291   3.301  0.3429  0.2461 -0.1406
  503MOL0     O67828   9.461   4.398   3.327  0.1313 -0.2902 -0.2248
  503MOL0     C67829   9.381   4.389   3.443  0.1972  0.2916 -0.3079
  503MOL0     C67830   9.277   4.498   3.440  0.1673 -0.0369 -0.0675
  503MOL0     C67831   9.232   4.534   3.585 -0.6212  0.0802 -0.3353
  503MOL0     C67832   9.135   4.430   3.648 -0.1571 -0.3331  0.2102
  503MOL0     C67833   9.197   4.304   3.667  0.5109  0.8427 -0.8411
  503MOL0     C67834   9.256   4.197   3.690  1.6642  0.3252  0.0785
  503MOL0     C67835   9.555   4.173   3.389  0.3855 -0.5117 -0.2411
  503MOL0     C67836   9.624   4.062   3.365 -0.4154  0.0601  0.8108
  503MOL0     C67837   9.614   3.950   3.458  0.1469 -0.2668  0.0066
  503MOL0     H67838   9.991   3.856   2.933  1.0567 -2.2280 -0.8976
  503MOL0     H67839  10.183   3.722   2.934 -6.8015 -2.9085  0.9460
  503MOL0     H67840  10.519   3.892   3.194  0.1571  0.1428 -1.2798
  503MOL0     H67841  10.484   3.751   3.299  1.2360  1.4595  0.6530
  503MOL0     H67842  10.616   3.616   3.162  0.1392  0.4349  0.9734
  503MOL0     H67843  10.702   3.751   3.232 -0.2646  0.3442 -0.0664
  503MOL0     H67844  10.785   3.720   3.003  0.5285  0.6090  0.2856
  503MOL0     H67845  10.705   3.877   3.019  1.1354 -0.7121 -0.0808
  503MOL0     H67846  10.607   3.620   2.888  2.4780 -0.6938  1.0631
  503MOL0     H67847  10.513   3.777   2.890  1.3749  1.7802  0.9390
  503MOL0     H67848  10.703   3.893   2.775 -0.3934  1.1688 -1.7120
  503MOL0     H67849  10.797   3.737   2.776  0.3627  2.8664  0.7555
  503MOL0     H67850  10.583   3.636   2.666 -1.8184  0.3478  0.9968
  503MOL0     H67851  10.526   3.780   2.624 -0.9014 -1.4778  0.7083
  503MOL0     H67852  10.794   3.689   2.527 -1.3137 -1.4585 -2.1595
  503MOL0     H67853  10.748   3.856   2.522 -0.1725  0.2252  0.8244
  503MOL0     H67854  10.604   3.605   2.426  1.3759 -0.0094  0.4438
  503MOL0     H67855  10.544   3.763   2.381 -0.6878 -2.1839 -0.8462
  503MOL0     H67856  10.914   3.775   2.362 -0.4462 -1.0722 -0.0097
  503MOL0     H67857  11.060   3.793   2.070  1.6419  2.0625  0.9824
  503MOL0     H67858  10.942   3.908   1.991 -0.3647  1.5008  1.2287
  503MOL0     H67859  10.977   4.052   2.170 -2.0465 -0.4162 -2.6307
  503MOL0     H67860  11.077   3.924   2.253 -0.4250 -2.4892 -1.4541
  503MOL0     H67861  11.160   4.040   1.983  1.7904  2.0295  0.3424
  503MOL0     H67862  11.248   3.932   2.095 -0.5337  0.1220  2.1461
  503MOL0     H67863  11.151   4.198   2.194  1.4677  2.4399  0.4452
  503MOL0     H67864  11.299   4.177   2.121 -2.4676  1.3235 -1.0688
  503MOL0     H67865  11.463   3.955   2.165 -0.3587 -0.0295  0.1204
  503MOL0     H67866  11.682   3.961   2.203 -1.4675  0.6371 -1.7070
  503MOL0     H67867  12.096   4.100   2.347  3.5065  0.1082 -1.2357
  503MOL0     H67868  12.315   4.060   2.397  0.2686 -0.8231  0.6758
  503MOL0     H67869  12.474   4.146   2.792 -1.6812  0.3166 -0.5134
  503MOL0     H67870  12.413   3.982   2.832 -1.9588 -2.5064 -3.6564
  503MOL0     H67871  12.611   3.898   2.698  1.7354 -1.5851  1.9793
  503MOL0     H67872  12.676   4.059   2.696  3.4035 -1.8671  1.4232
  503MOL0     H67873  12.601   3.929   2.960 -1.2227  1.3798  0.3475
  503MOL0     H67874  12.753   3.907   2.876  1.1455  1.9516 -1.4412
  503MOL0     H67875  12.655   4.192   2.940  1.0645  1.0183  0.4711
  503MOL0     H67876  12.816   4.124   2.893  1.0269  1.5111  2.7586
  503MOL0     H67877  12.680   4.113   3.167  0.9555  2.1511  1.7128
  503MOL0     H67878  12.823   4.185   3.127  0.4140 -1.3831  2.7947
  503MOL0     H67879  12.892   4.024   3.251  4.5715  0.5500 -1.4916
  503MOL0     H67880  12.796   3.899   3.174  2.3392 -1.6615  0.7054
  503MOL0     H67881  12.954   3.921   2.980  2.3386 -3.6858  1.5526
  503MOL0     H67882  13.043   3.889   3.127  2.1502 -0.3554 -4.0817
  503MOL0     H67883  13.148   4.036   2.984  0.2853 -0.6601 -0.3697
  503MOL0     H67884  13.018   4.165   3.031 -0.7624  0.1298  2.7491
  503MOL0     H67885  12.219   4.100   2.817 -0.3097  1.9400  0.4486
  503MOL0     H67886  11.988   4.128   2.769 -0.2481  2.8492 -0.9837
  503MOL0     H67887  11.617   4.181   2.571  0.3311  1.7551 -1.8330
  503MOL0     H67888  11.381   4.190   2.509 -1.1888  0.6747 -2.1704
  503MOL0     H67889  10.293   3.913   3.313 -0.5903  0.3965  0.8919
  503MOL0     H67890  10.096   4.026   3.307  0.4445  0.3140 -0.3573
  503MOL0     H67891   9.759   4.179   3.071  1.0881  1.3248  0.8756
  503MOL0     H67892   9.609   4.356   3.107 -1.0454 -1.1554 -1.3520
  503MOL0     H67893   9.442   4.394   3.533 -1.2035  4.8103  0.6205
  503MOL0     H67894   9.334   4.290   3.435 -0.1485  0.5861 -4.5054
  503MOL0     H67895   9.195   4.471   3.373 -0.8350 -0.3180  1.2358
  503MOL0     H67896   9.331   4.586   3.403 -1.1252 -0.1723 -2.4572
  503MOL0     H67897   9.176   4.628   3.587  0.9744  1.0872 -1.4590
  503MOL0     H67898   9.316   4.539   3.654  2.9664 -4.1086 -3.8142
  503MOL0     H67899   9.093   4.476   3.737  1.3162  0.1849  0.6725
  503MOL0     H67900   9.052   4.426   3.577 -1.0962  1.0406  1.1882
  503MOL0     H67901   9.316   4.112   3.715  0.3136 -0.8879 -0.7022
  503MOL0     H67902   9.502   4.182   3.483  2.6972  0.1362  1.0804
  503MOL0     H67903   9.556   3.971   3.549 -1.8448  0.3429 -1.3346
  503MOL0     H67904   9.555   3.873   3.409 -0.1618 -0.8340  1.2300
  503MOL0     H67905   9.718   3.919   3.475  0.4991  1.1425  0.6082
  504MOL0     O67906   4.496   5.655   8.420  0.5884  0.3380 -0.7189
  504MOL0     C67907   4.407   5.592   8.361 -0.5026  0.2184  0.2106
  504MOL0     O67908   4.429   5.475   8.284 -0.4382  0.2549  0.3216
  504MOL0     C67909   4.557   5.449   8.249  0.7260 -0.5771 -0.4427
  504MOL0     C67910   4.633   5.357   8.323  0.3946 -0.1628 -0.0341
  504MOL0     C67911   4.764   5.329   8.294 -0.3309 -0.3338  0.1388
  504MOL0     C67912   4.829   5.394   8.188  0.5627 -0.2087 -0.8619
  504MOL0     O67913   4.944   5.350   8.130 -0.2658  0.2381  0.1050
  504MOL0     C67914   5.061   5.326   8.220  0.8704  0.5574 -0.6916
  504MOL0     C67915   5.191   5.341   8.154 -0.0588  0.1901  0.4499
  504MOL0     C67916   5.304   5.390   8.252 -0.6257  0.7463 -0.0229
  504MOL0     C67917   5.446   5.378   8.209  1.1356 -0.1409  0.3238
  504MOL0     C67918   5.543   5.450   8.304  0.4876 -0.8832 -0.5945
  504MOL0     C67919   5.676   5.466   8.251  0.2219 -0.0429 -0.4145
  504MOL0     C67920   5.778   5.539   8.354 -0.1878 -0.0066  0.5824
  504MOL0     C67921   5.829   5.462   8.470  0.0950  0.4382  0.1596
  504MOL0     N67922   5.914   5.347   8.439  0.1386  0.3859  0.6972
  504MOL0     C67923   5.857   5.220   8.439 -0.0384  0.3511  0.1018
  504MOL0     C67924   5.953   5.143   8.398  0.3078  0.6387  0.5597
  504MOL0     C67925   5.942   4.995   8.381  0.5003  0.2970 -1.1245
  504MOL0     C67926   6.043   4.919   8.484  0.0530 -0.7014  0.7378
  504MOL0     C67927   6.117   4.803   8.418  0.1717  0.6132  0.8293
  504MOL0     C67928   6.231   4.849   8.321 -0.5879 -0.1343  0.0737
  504MOL0     O67929   6.295   4.733   8.272 -0.3061  0.8438 -0.3000
  504MOL0     C67930   6.412   4.758   8.195  0.1313 -0.0953  0.1624
  504MOL0     C67931   6.459   4.880   8.151  0.5424 -0.9261 -0.3595
  504MOL0     C67932   6.584   4.901   8.086 -0.2120  0.5359 -0.0628
  504MOL0     C67933   6.666   4.785   8.050  0.0851 -0.0790  0.7242
  504MOL0     C67934   6.789   4.797   7.968 -0.7155 -0.7531  0.6635
  504MOL0     O67935   6.813   4.921   7.898 -0.7234  0.4567  0.5979
  504MOL0     C67936   6.931   4.938   7.816 -0.3175  0.0970 -1.0527
  504MOL0     C67937   7.057   4.875   7.829 -0.5354 -0.6835 -0.1075
  504MOL0     C67938   7.162   4.909   7.740 -0.6829 -0.6696 -0.9229
  504MOL0     C67939   7.147   5.008   7.646  0.3507  0.1103 -0.5844
  504MOL0     O67940   7.255   5.045   7.577 -0.4561 -0.2109  0.4571
  504MOL0     C67941   7.251   5.176   7.515 -0.3833 -0.3560  0.5895
  504MOL0     C67942   7.386   5.213   7.460 -0.3547 -0.4520 -0.7300
  504MOL0     C67943   7.395   5.320   7.354  0.4033  0.0508  0.8065
  504MOL0     C67944   7.348   5.458   7.410  0.5218  0.2477  0.0842
  504MOL0     C67945   7.385   5.570   7.317  0.4353  0.2947 -0.3392
  504MOL0     C67946   7.347   5.716   7.357 -0.0526  0.3972  1.1147
  504MOL0     C67947   7.334   5.823   7.241  0.1417 -0.5290  0.2090
  504MOL0     C67948   7.336   5.968   7.284 -0.4790 -0.4848  0.1327
  504MOL0    Cl67949   7.334   5.989   7.465 -0.1164 -0.4129 -0.4075
  504MOL0     C67950   7.014   5.061   7.628  0.1394  0.1907  0.0915
  504MOL0     C67951   6.918   5.035   7.724  0.1539  0.1726  0.5260
  504MOL0     O67952   6.856   4.693   7.948 -0.2351 -0.1011  0.6007
  504MOL0     C67953   6.615   4.661   8.096 -0.4920 -0.5570  0.5187
  504MOL0     C67954   6.492   4.653   8.170  0.1081  1.1196  0.6434
  504MOL0     N67955   6.073   5.219   8.392  0.0914  0.5700 -0.7958
  504MOL0     N67956   6.047   5.342   8.412  0.6338  0.0560 -0.4800
  504MOL0     C67957   4.754   5.484   8.105 -0.1048 -0.4797  0.0510
  504MOL0     C67958   4.621   5.517   8.136  0.0394 -0.5402  0.0007
  504MOL0     C67959   4.267   5.650   8.346  0.3426  0.3266  0.3196
  504MOL0     C67960   4.233   5.767   8.422 -0.6983 -0.3114  0.3308
  504MOL0     C67961   4.120   5.848   8.408  0.2462 -0.2617 -0.3141
  504MOL0     C67962   4.024   5.801   8.318  0.5537 -0.0620 -0.3591
  504MOL0     O67963   3.906   5.876   8.296 -0.3693 -0.2625  0.4173
  504MOL0     C67964   3.809   5.871   8.405  0.1478  0.2880  0.4992
  504MOL0     C67965   3.819   6.003   8.485  0.2879 -0.4020 -0.3015
  504MOL0     C67966   3.686   6.025   8.558 -0.0552 -0.6408  0.7079
  504MOL0     C67967   3.645   5.895   8.639 -0.0460 -0.3712 -0.3290
  504MOL0     C67968   3.536   5.957   8.717 -0.3477  0.0185  0.8279
  504MOL0     C67969   3.442   6.016   8.762  0.2615  0.2486  0.5619
  504MOL0     C67970   4.048   5.677   8.248  0.8769  0.5531 -0.7401
  504MOL0     C67971   4.169   5.607   8.254 -0.0780  0.4194 -0.8657
  504MOL0     C67972   4.175   5.481   8.174 -0.1193  0.9201  0.5058
  504MOL0     H67973   4.584   5.303   8.404  0.3839  0.4858  0.3971
  504MOL0     H67974   4.804   5.248   8.355 -1.0519 -1.3290 -0.6576
  504MOL0     H67975   5.056   5.393   8.306  0.0881 -1.1509  0.6454
  504MOL0     H67976   5.053   5.223   8.254  0.0346 -0.6125 -4.0223
  504MOL0     H67977   5.188   5.406   8.066  3.4694 -0.3422 -0.1905
  504MOL0     H67978   5.212   5.240   8.117  0.0003  0.4459 -0.2294
  504MOL0     H67979   5.303   5.330   8.344  1.1768  0.0479 -0.4015
  504MOL0     H67980   5.282   5.489   8.291  0.3841  0.1277  2.3219
  504MOL0     H67981   5.475   5.272   8.203 -0.3659 -0.4873 -2.2754
  504MOL0     H67982   5.439   5.411   8.105  0.6212 -1.9294 -0.2572
  504MOL0     H67983   5.510   5.552   8.326  3.8536  0.3675 -0.6620
  504MOL0     H67984   5.543   5.403   8.402 -0.4847 -1.3352 -0.7990
  504MOL0     H67985   5.731   5.373   8.238  2.5826  0.8163  2.5054
  504MOL0     H67986   5.665   5.522   8.157 -2.0000  0.2305 -0.0454
  504MOL0     H67987   5.715   5.617   8.397  0.3337  0.7285  0.0445
  504MOL0     H67988   5.861   5.584   8.298 -0.4190  0.9525  0.9969
  504MOL0     H67989   5.889   5.530   8.532  0.2857 -0.7768  1.3388
  504MOL0     H67990   5.749   5.419   8.531  1.9528 -2.7241  0.5486
  504MOL0     H67991   5.754   5.193   8.463 -1.0317  4.1721  0.8556
  504MOL0     H67992   5.835   4.972   8.384  0.0668  2.2321  0.2475
  504MOL0     H67993   5.970   4.978   8.276  0.8431  1.2075 -1.1894
  504MOL0     H67994   6.122   4.983   8.526  1.3480 -1.2550 -0.7576
  504MOL0     H67995   5.992   4.880   8.573 -1.6993  0.6156  0.3680
  504MOL0     H67996   6.037   4.749   8.366 -0.4931  1.7242  0.6655
  504MOL0     H67997   6.168   4.745   8.496  1.4083 -1.5223 -1.4386
  504MOL0     H67998   6.305   4.904   8.379 -0.5728  1.1792 -1.1395
  504MOL0     H67999   6.191   4.910   8.240 -2.7355 -1.9748 -0.3615
  504MOL0     H68000   6.404   4.972   8.166  0.7380 -0.9496  0.5343
  504MOL0     H68001   6.626   4.994   8.050  3.4910 -1.5659 -1.6652
  504MOL0     H68002   7.070   4.796   7.902 -2.6890 -1.7583 -0.8169
  504MOL0     H68003   7.252   4.850   7.751  0.4271  0.6068 -2.6887
  504MOL0     H68004   7.179   5.180   7.433 -1.5752  1.4755  1.6567
  504MOL0     H68005   7.231   5.254   7.589  1.9691  0.8153  0.1111
  504MOL0     H68006   7.460   5.233   7.538  0.2853  1.1590 -1.6915
  504MOL0     H68007   7.425   5.123   7.412  1.0577 -0.9735  1.2752
  504MOL0     H68008   7.498   5.329   7.317 -0.1611  2.6475 -0.3301
  504MOL0     H68009   7.336   5.305   7.263  1.3650 -0.4715  0.2441
  504MOL0     H68010   7.389   5.480   7.509 -1.6821  2.6208  0.5827
  504MOL0     H68011   7.242   5.448   7.436  1.7563 -2.6727  5.6127
  504MOL0     H68012   7.335   5.552   7.221 -1.9763 -0.1872  0.9370
  504MOL0     H68013   7.493   5.561   7.303  0.5396 -2.8914  1.7326
  504MOL0     H68014   7.254   5.710   7.414  0.2729 -0.3535  1.5769
  504MOL0     H68015   7.429   5.745   7.423 -1.4736  1.9760  2.2696
  504MOL0     H68016   7.245   5.794   7.185 -0.4164 -2.3827  1.9431
  504MOL0     H68017   7.419   5.793   7.179  0.5782  1.4169 -0.1849
  504MOL0     H68018   7.430   6.010   7.249 -0.7744  0.3173  0.2712
  504MOL0     H68019   7.250   6.009   7.229 -0.3858 -0.8789 -0.3141
  504MOL0     H68020   7.006   5.134   7.548 -2.0107 -1.6284 -1.4621
  504MOL0     H68021   6.819   5.080   7.719 -0.7448 -1.7693 -0.4821
  504MOL0     H68022   6.679   4.576   8.074  1.0080  0.4815  0.7591
  504MOL0     H68023   6.454   4.554   8.194  0.9648  0.6484  0.0872
  504MOL0     H68024   4.809   5.538   8.029 -0.7366  0.2277  0.0856
  504MOL0     H68025   4.566   5.590   8.078 -0.8750 -0.3101  1.1106
  504MOL0     H68026   4.300   5.810   8.496  0.8269 -0.7399 -0.7409
  504MOL0     H68027   4.101   5.937   8.467  0.5010  2.3836 -3.8630
  504MOL0     H68028   3.827   5.779   8.463  0.0873 -0.0879 -0.0663
  504MOL0     H68029   3.707   5.859   8.367  0.8818  0.9660 -1.7831
  504MOL0     H68030   3.851   6.088   8.424 -0.7165  0.5067  0.4018
  504MOL0     H68031   3.902   5.990   8.555 -0.0418 -0.7818  0.0230
  504MOL0     H68032   3.611   6.060   8.486 -1.0157  0.5860  2.2349
  504MOL0     H68033   3.704   6.100   8.635 -1.4939  0.7085 -0.2281
  504MOL0     H68034   3.611   5.819   8.567 -2.8055  1.2075 -0.8559
  504MOL0     H68035   3.718   5.861   8.713 -1.0519 -2.3015 -0.1479
  504MOL0     H68036   3.358   6.076   8.791  1.3574  1.8420  0.5889
  504MOL0     H68037   3.970   5.637   8.183 -0.0697 -0.0381  0.7093
  504MOL0     H68038   4.179   5.395   8.242  0.3980  2.0226  1.9190
  504MOL0     H68039   4.088   5.477   8.108  0.2604  1.0535 -0.0148
  504MOL0     H68040   4.266   5.478   8.113 -0.1115  0.8058  0.5233
  505MOL0     O68041   6.871   1.605   2.095 -0.8288 -0.2036  0.2974
  505MOL0     C68042   6.809   1.521   2.158  0.2907  0.3473 -0.5212
  505MOL0     O68043   6.855   1.398   2.203 -0.0444 -0.0098  0.3195
  505MOL0     C68044   6.983   1.366   2.175 -0.2116 -0.4939  0.8246
  505MOL0     C68045   7.008   1.256   2.086  1.1360  0.3277  0.5054
  505MOL0     C68046   7.145   1.233   2.054  0.1483 -0.1552  0.0527
  505MOL0     C68047   7.249   1.312   2.117  0.1414 -0.0479  0.1570
  505MOL0     O68048   7.381   1.281   2.082 -0.0889  0.3938  0.3539
  505MOL0     C68049   7.496   1.343   2.133 -0.1995 -0.4837  0.0002
  505MOL0     C68050   7.560   1.274   2.253 -0.2825  0.2039  0.3919
  505MOL0     C68051   7.697   1.335   2.293 -0.4255 -0.2495 -0.5861
  505MOL0     C68052   7.792   1.234   2.358  0.1583  0.6807  0.3432
  505MOL0     C68053   7.765   1.218   2.510  0.3116 -0.2555  0.3798
  505MOL0     C68054   7.843   1.098   2.560 -0.0543 -0.1114 -0.9168
  505MOL0     C68055   7.856   1.081   2.709 -0.2212  0.3032 -0.2212
  505MOL0     C68056   7.747   0.992   2.773  0.1276 -0.8700 -0.3972
  505MOL0     N68057   7.748   0.853   2.715 -0.4553  0.0165  0.2524
  505MOL0     C68058   7.850   0.762   2.726 -0.2614  0.4731 -0.0699
  505MOL0     C68059   7.830   0.664   2.633 -0.5445  0.2781  0.0537
  505MOL0     C68060   7.915   0.541   2.597 -0.0375  0.3184  0.1953
  505MOL0     C68061   8.033   0.582   2.512 -0.4556 -0.3043 -0.1522
  505MOL0     C68062   8.127   0.460   2.500 -1.3876 -0.4779  0.1822
  505MOL0     C68063   8.270   0.499   2.492 -0.1917 -0.2106 -0.6362
  505MOL0     O68064   8.341   0.379   2.467 -0.1208  0.1546  0.7727
  505MOL0     C68065   8.469   0.386   2.425  0.4961 -0.5832 -0.2919
  505MOL0     C68066   8.561   0.481   2.471  0.3964  0.8382  0.3165
  505MOL0     C68067   8.694   0.473   2.431 -0.2422 -0.1954 -0.5417
  505MOL0     C68068   8.731   0.388   2.329  0.2093  0.3260 -0.0593
  505MOL0     C68069   8.874   0.401   2.283 -0.2731  0.1008  0.0101
  505MOL0     O68070   8.918   0.302   2.196  0.7527  0.0280 -0.5921
  505MOL0     C68071   9.049   0.289   2.156  0.0799  0.1447  0.3306
  505MOL0     C68072   9.081   0.282   2.021 -0.3252  0.1187 -0.3838
  505MOL0     C68073   9.218   0.263   1.977 -0.2742 -0.8412  0.1626
  505MOL0     C68074   9.317   0.239   2.073 -0.3272 -0.6101 -0.9164
  505MOL0     O68075   9.443   0.192   2.036  0.2287 -0.0008  0.0391
  505MOL0     C68076   9.450   0.079   1.945  0.2287  0.1542  0.0064
  505MOL0     C68077   9.594   0.039   1.956 -0.1801  0.2893 -0.4151
  505MOL0     C68078   9.616  -0.101   1.894 -0.2718 -0.9183  0.4975
  505MOL0     C68079   9.752  -0.161   1.924  0.5977 -0.3018  0.7405
  505MOL0     C68080   9.865  -0.066   1.869 -1.0090 -0.6184  0.2556
  505MOL0     C68081  10.006  -0.109   1.912  0.0970 -0.3149  0.0290
  505MOL0     C68082  10.067  -0.229   1.840  0.2911  0.4763  0.5317
  505MOL0     C68083  10.193  -0.251   1.917 -0.4429  0.1991  0.0364
  505MOL0    Cl68084  10.323  -0.119   1.891 -0.0146 -0.4859 -0.3725
  505MOL0     C68085   9.286   0.254   2.208  0.6239  1.2622  0.2616
  505MOL0     C68086   9.156   0.284   2.246  0.1643  0.6614 -0.3022
  505MOL0     O68087   8.931   0.501   2.315 -0.0958  0.4186  0.3096
  505MOL0     C68088   8.640   0.289   2.283  0.2435  0.1508 -0.0156
  505MOL0     C68089   8.503   0.294   2.328 -0.3768  1.1101 -0.4855
  505MOL0     N68090   7.712   0.699   2.566  0.4022 -0.7600  0.2480
  505MOL0     N68091   7.662   0.807   2.620  1.0021  0.6450  0.4938
  505MOL0     C68092   7.216   1.397   2.223  0.1629  0.5930  0.6060
  505MOL0     C68093   7.079   1.433   2.244 -0.2643  0.4158  0.9528
  505MOL0     C68094   6.671   1.542   2.194 -0.1133  0.6349  0.0816
  505MOL0     C68095   6.642   1.667   2.264 -0.9117  0.4063 -0.1647
  505MOL0     C68096   6.508   1.710   2.301  0.3227  0.7945  0.1689
  505MOL0     C68097   6.407   1.630   2.254  0.1593  0.1913  0.2199
  505MOL0     O68098   6.281   1.681   2.283 -0.1012 -0.5086  0.4544
  505MOL0     C68099   6.167   1.642   2.211  0.2848 -0.2974 -0.0604
  505MOL0     C68100   6.081   1.555   2.304  0.1778 -0.8056 -1.1495
  505MOL0     C68101   5.984   1.465   2.228  0.9478 -0.6935  0.3947
  505MOL0     C68102   5.927   1.352   2.322 -0.1087 -0.2260  1.4613
  505MOL0     C68103   5.851   1.260   2.232 -1.3850  0.5009  0.3272
  505MOL0     C68104   5.784   1.193   2.159  0.7984 -0.0421  0.0840
  505MOL0     C68105   6.429   1.512   2.190  0.4720  0.2240 -0.5184
  505MOL0     C68106   6.557   1.461   2.159 -0.6646 -0.5953 -1.1031
  505MOL0     C68107   6.563   1.332   2.094  0.2766  0.7404  0.3793
  505MOL0     H68108   6.921   1.201   2.052  3.1338 -1.9405 -1.2497
  505MOL0     H68109   7.159   1.152   1.983 -0.0807 -0.1315 -0.0181
  505MOL0     H68110   7.571   1.338   2.054 -1.4600  1.0521 -1.3785
  505MOL0     H68111   7.485   1.449   2.159  2.7550 -0.1377  0.1096
  505MOL0     H68112   7.576   1.168   2.229 -1.4089  0.4816 -1.7183
  505MOL0     H68113   7.503   1.284   2.346 -0.2544 -1.5445  0.6295
  505MOL0     H68114   7.683   1.398   2.381 -0.1666 -0.2293 -0.5589
  505MOL0     H68115   7.747   1.377   2.206  1.1163  0.3922  0.5590
  505MOL0     H68116   7.777   1.141   2.303 -0.7588  0.6989  0.5399
  505MOL0     H68117   7.895   1.266   2.343  0.3056 -0.6367 -1.8505
  505MOL0     H68118   7.811   1.304   2.559 -1.0082  1.0635 -0.6079
  505MOL0     H68119   7.661   1.214   2.544 -0.1644 -0.7950 -1.0349
  505MOL0     H68120   7.806   1.003   2.518  0.7945 -0.7030 -0.3566
  505MOL0     H68121   7.943   1.098   2.514  0.2753 -1.4944 -0.2585
  505MOL0     H68122   7.860   1.180   2.757 -0.3141 -0.2298  0.9263
  505MOL0     H68123   7.955   1.039   2.730 -1.9347 -3.9679  0.1702
  505MOL0     H68124   7.767   0.987   2.880  0.5439  1.5730 -0.3109
  505MOL0     H68125   7.646   1.032   2.765  0.8109  0.5881 -2.8468
  505MOL0     H68126   7.935   0.774   2.792 -1.3490  1.7801  1.1262
  505MOL0     H68127   7.943   0.503   2.696 -2.7810  0.6424  1.1712
  505MOL0     H68128   7.854   0.464   2.550 -0.4838  1.8257 -1.8204
  505MOL0     H68129   7.998   0.628   2.419 -0.4151  0.5327  0.2358
  505MOL0     H68130   8.087   0.660   2.567  0.7707 -0.6409 -0.8207
  505MOL0     H68131   8.103   0.409   2.406  0.9955  0.8258 -1.2308
  505MOL0     H68132   8.126   0.393   2.586  0.2923 -1.2955 -0.3882
  505MOL0     H68133   8.306   0.540   2.586 -3.0419 -2.1739  1.4779
  505MOL0     H68134   8.278   0.571   2.409  1.7216 -1.1590 -1.3327
  505MOL0     H68135   8.532   0.550   2.550 -1.6412 -0.0020  0.3743
  505MOL0     H68136   8.762   0.550   2.469 -0.3817  0.7090 -2.0423
  505MOL0     H68137   9.005   0.261   1.947  0.9267  0.4642 -1.8214
  505MOL0     H68138   9.236   0.234   1.874  0.2074 -1.1777  0.3417
  505MOL0     H68139   9.387   0.001   1.989 -0.5549  1.9959  2.3928
  505MOL0     H68140   9.413   0.097   1.844  0.5387 -2.3047 -0.6108
  505MOL0     H68141   9.657   0.111   1.902 -0.4368  0.5102 -0.4224
  505MOL0     H68142   9.631   0.035   2.058  2.7158 -2.5222 -1.4146
  505MOL0     H68143   9.541  -0.173   1.927 -2.5065  0.5935 -1.0241
  505MOL0     H68144   9.605  -0.088   1.786 -0.0217 -3.2540  0.1365
  505MOL0     H68145   9.763  -0.256   1.873 -2.7690  0.1582 -1.1255
  505MOL0     H68146   9.764  -0.179   2.031  2.0966  1.3745  0.9138
  505MOL0     H68147   9.849   0.033   1.914  2.6983  0.9297 -1.3165
  505MOL0     H68148   9.870  -0.051   1.761  1.7530  0.4265  0.4508
  505MOL0     H68149  10.068  -0.023   1.884  2.0891 -1.4331  0.7500
  505MOL0     H68150  10.002  -0.127   2.019 -1.2908  1.5480  0.3293
  505MOL0     H68151  10.094  -0.206   1.737  2.0364 -1.6795  0.4340
  505MOL0     H68152  10.006  -0.320   1.841  0.6498  0.2179  2.1855
  505MOL0     H68153  10.163  -0.256   2.022  0.4467  0.2083  0.2947
  505MOL0     H68154  10.232  -0.351   1.892 -0.8372  0.3886 -1.4147
  505MOL0     H68155   9.367   0.237   2.278  1.7599  0.4880 -1.1899
  505MOL0     H68156   9.131   0.300   2.350 -4.0895 -0.0588 -1.0329
  505MOL0     H68157   8.677   0.216   2.212  1.6273  1.5072 -0.7588
  505MOL0     H68158   8.424   0.229   2.292  0.2043  0.1901 -0.1539
  505MOL0     H68159   7.293   1.435   2.290  1.0556  0.4292 -0.3004
  505MOL0     H68160   7.042   1.494   2.326 -0.8305  2.8233 -0.9924
  505MOL0     H68161   6.722   1.733   2.296 -0.2705 -1.3136  2.0273
  505MOL0     H68162   6.483   1.798   2.358 -4.0360 -0.4589  0.5847
  505MOL0     H68163   6.184   1.595   2.114  0.3652 -1.4406  0.4938
  505MOL0     H68164   6.102   1.728   2.191 -2.7416 -2.4834 -0.2646
  505MOL0     H68165   6.037   1.629   2.371 -0.6349 -2.2833  0.0111
  505MOL0     H68166   6.148   1.498   2.370 -0.8807  0.8158  1.4804
  505MOL0     H68167   6.039   1.420   2.145 -1.5061 -2.0566 -0.5766
  505MOL0     H68168   5.909   1.529   2.182  0.2135 -2.5130 -1.0502
  505MOL0     H68169   5.999   1.299   2.385  0.4554  1.3620  2.2034
  505MOL0     H68170   5.853   1.403   2.384  0.4955 -2.3507  4.1475
  505MOL0     H68171   5.724   1.132   2.094  1.9472 -1.9465  0.7310
  505MOL0     H68172   6.343   1.460   2.150 -0.1885  0.7659  0.1874
  505MOL0     H68173   6.647   1.344   2.025  0.5481  0.4736  0.6607
  505MOL0     H68174   6.596   1.254   2.163 -1.7213  0.2447  0.8362
  505MOL0     H68175   6.473   1.300   2.041  0.7520 -3.6090  1.8322
  506MOL0     O68176   3.432   7.589   9.590  0.3904 -0.0224  0.2051
  506MOL0     C68177   3.461   7.530   9.692  0.3182  0.1390 -0.3938
  506MOL0     O68178   3.558   7.436   9.709  0.6547 -0.1319  0.1453
  506MOL0     C68179   3.624   7.408   9.591 -0.2957  0.0359  0.0625
  506MOL0     C68180   3.571   7.325   9.494 -0.2332  0.1243 -0.0147
  506MOL0     C68181   3.650   7.291   9.382 -0.0065 -0.4790 -0.2052
  506MOL0     C68182   3.780   7.332   9.369 -0.1146 -0.0847  0.4493
  506MOL0     O68183   3.850   7.276   9.266  0.3240  0.6555  0.1768
  506MOL0     C68184   3.974   7.344   9.230  0.8010 -1.0358  0.5881
  506MOL0     C68185   3.955   7.481   9.155 -0.9407  0.5869 -0.3341
  506MOL0     C68186   4.080   7.554   9.119 -0.1874 -0.1200 -0.0573
  506MOL0     C68187   4.057   7.660   9.004 -0.1287  0.0401  0.0589
  506MOL0     C68188   4.190   7.730   8.976 -0.5847 -0.4196  0.4717
  506MOL0     C68189   4.176   7.806   8.852 -0.2576 -0.9590 -0.2655
  506MOL0     C68190   4.303   7.886   8.809  0.9289 -0.0367 -0.5719
  506MOL0     C68191   4.392   7.807   8.726 -0.7091  0.4841  0.3452
  506MOL0     N68192   4.529   7.861   8.709 -0.0993  0.0171 -0.5086
  506MOL0     C68193   4.625   7.791   8.638 -0.3818  0.2962  0.3053
  506MOL0     C68194   4.720   7.884   8.607 -0.4514  0.9573 -0.8521
  506MOL0     C68195   4.843   7.867   8.534  0.0549 -0.2159 -0.4476
  506MOL0     C68196   4.806   7.840   8.387 -0.2991  0.1045  0.0593
  506MOL0     C68197   4.939   7.815   8.305  0.2892  0.9797  0.1876
  506MOL0     C68198   4.984   7.669   8.301 -0.1241  0.1494  0.6914
  506MOL0     O68199   5.113   7.651   8.246  0.6570 -0.2973 -0.3150
  506MOL0     C68200   5.222   7.709   8.313 -0.7561  0.0406 -0.2027
  506MOL0     C68201   5.329   7.744   8.226 -0.2849  0.8895  0.1912
  506MOL0     C68202   5.452   7.786   8.277 -0.6103  0.3517 -0.6517
  506MOL0     C68203   5.472   7.814   8.411 -0.8259  0.6209 -0.3088
  506MOL0     C68204   5.606   7.857   8.464 -0.2856 -1.0944 -1.3012
  506MOL0     O68205   5.712   7.857   8.382 -0.1983 -0.9200  0.5728
  506MOL0     C68206   5.850   7.874   8.418  0.3387  1.3119 -0.9024
  506MOL0     C68207   5.907   7.831   8.543  0.9774  0.1624 -0.2812
  506MOL0     C68208   6.046   7.840   8.553 -0.2397  0.2451  0.1374
  506MOL0     C68209   6.131   7.871   8.451  0.1827 -0.5207  0.0884
  506MOL0     O68210   6.266   7.879   8.458 -0.4613  0.2724 -0.3791
  506MOL0     C68211   6.314   7.837   8.591  0.1043 -0.0891 -0.2563
  506MOL0     C68212   6.458   7.862   8.588 -0.9776  0.0242 -0.1920
  506MOL0     C68213   6.526   7.765   8.491  0.2718  0.0021  0.5192
  506MOL0     C68214   6.679   7.793   8.485  1.1722  0.4535 -0.0601
  506MOL0     C68215   6.704   7.933   8.415 -0.2637 -0.5317 -0.4687
  506MOL0     C68216   6.849   7.966   8.394  0.0258  0.1533 -0.1685
  506MOL0     C68217   6.924   7.877   8.293  0.5143 -0.3636 -1.2050
  506MOL0     C68218   6.861   7.839   8.156  0.3784  0.1058 -1.0081
  506MOL0    Cl68219   6.994   7.741   8.082 -0.0652  0.1466  0.0650
  506MOL0     C68220   6.073   7.907   8.334 -0.2220 -1.1483  0.0744
  506MOL0     C68221   5.938   7.918   8.322 -0.0230 -0.3500  0.5213
  506MOL0     O68222   5.614   7.891   8.583 -0.1673 -0.0925 -0.0594
  506MOL0     C68223   5.365   7.793   8.496  0.5232 -0.8725  1.2625
  506MOL0     C68224   5.239   7.752   8.447  0.0708  0.1889 -0.0965
  506MOL0     N68225   4.672   8.009   8.653  0.1927 -0.2807  0.4263
  506MOL0     N68226   4.555   7.990   8.708 -0.0749  0.4114 -0.0922
  506MOL0     C68227   3.828   7.419   9.469 -0.3033  0.6417  0.6397
  506MOL0     C68228   3.751   7.454   9.579  0.9545 -0.1029  0.5035
  506MOL0     C68229   3.373   7.550   9.814  0.3035  0.9451  0.0201
  506MOL0     C68230   3.405   7.468   9.928  0.2192  0.4155 -0.5626
  506MOL0     C68231   3.316   7.469  10.042  0.3009  0.8961  0.2088
  506MOL0     C68232   3.193   7.534  10.044  0.5557  0.4363  0.7039
  506MOL0     O68233   3.091   7.539  10.142  0.5854 -0.3846  0.3302
  506MOL0     C68234   3.063   7.420  10.224 -0.2269 -0.1531  0.4554
  506MOL0     C68235   2.931   7.447  10.300  0.1053  0.9515 -0.3517
  506MOL0     C68236   2.892   7.314  10.375  1.0886 -0.2449  0.0089
  506MOL0     C68237   2.772   7.333  10.465 -0.1010  0.7471  0.2714
  506MOL0     C68238   2.763   7.214  10.547  0.2631  0.7538  1.1460
  506MOL0     C68239   2.743   7.110  10.607  0.3956 -0.0651  0.2649
  506MOL0     C68240   3.164   7.610   9.929  0.3401  0.6224  0.8360
  506MOL0     C68241   3.252   7.622   9.816  0.9938  1.4282 -0.0401
  506MOL0     C68242   3.209   7.715   9.705  0.3678 -0.7185 -0.0159
  506MOL0     H68243   3.470   7.287   9.488  0.0864 -0.5915 -1.3630
  506MOL0     H68244   3.602   7.235   9.303 -0.3656  1.3472 -1.3264
  506MOL0     H68245   4.038   7.351   9.318  0.7769 -0.8993  0.5948
  506MOL0     H68246   4.037   7.281   9.167 -0.9693 -0.9497 -1.4022
  506MOL0     H68247   3.901   7.547   9.223 -0.3318  2.7191 -1.8243
  506MOL0     H68248   3.903   7.449   9.064  0.5550 -0.8767 -0.7288
  506MOL0     H68249   4.164   7.488   9.094  0.0193  0.2221 -0.2630
  506MOL0     H68250   4.115   7.612   9.205  0.4676 -1.8255  0.8984
  506MOL0     H68251   4.031   7.608   8.912 -0.9404  0.4771  0.0323
  506MOL0     H68252   3.980   7.730   9.039 -0.8937 -0.0691 -1.3375
  506MOL0     H68253   4.214   7.797   9.059 -3.1526 -0.6982  1.5171
  506MOL0     H68254   4.272   7.659   8.957 -0.0765  0.5358 -1.0797
  506MOL0     H68255   4.154   7.733   8.774 -0.1685 -2.5072  1.1041
  506MOL0     H68256   4.085   7.866   8.861 -0.0957 -0.2405 -2.6091
  506MOL0     H68257   4.361   7.919   8.896 -0.4567 -0.9701  0.7495
  506MOL0     H68258   4.267   7.975   8.756  0.0591  0.2290  0.4268
  506MOL0     H68259   4.402   7.707   8.769 -2.2745  0.4073  0.6102
  506MOL0     H68260   4.343   7.792   8.629  0.4004  2.5738 -0.6079
  506MOL0     H68261   4.627   7.687   8.609  0.0456  0.2726  0.4219
  506MOL0     H68262   4.907   7.955   8.527 -0.7223  0.2362 -3.2996
  506MOL0     H68263   4.887   7.782   8.586  1.4255 -0.0067 -1.2251
  506MOL0     H68264   4.739   7.754   8.391  0.3427 -0.4192  4.8222
  506MOL0     H68265   4.755   7.923   8.337 -0.8292 -2.5702 -4.4612
  506MOL0     H68266   5.017   7.873   8.357  1.5749 -2.1068  2.0139
  506MOL0     H68267   4.926   7.850   8.202 -1.9564 -1.5606 -0.5078
  506MOL0     H68268   4.925   7.599   8.240 -0.8847  0.1509  1.4072
  506MOL0     H68269   4.986   7.617   8.398 -3.5673 -3.3240 -0.8334
  506MOL0     H68270   5.306   7.729   8.121  1.1274 -2.0073  0.1896
  506MOL0     H68271   5.530   7.813   8.206  0.1936 -0.3196 -0.0459
  506MOL0     H68272   5.843   7.787   8.619 -0.6546  0.9431 -1.1632
  506MOL0     H68273   6.073   7.805   8.652  2.3801 -2.2037 -1.3026
  506MOL0     H68274   6.272   7.895   8.673 -1.4021 -1.8608  0.3183
  506MOL0     H68275   6.303   7.730   8.611 -1.3379  0.0684 -0.1019
  506MOL0     H68276   6.473   7.963   8.548  0.8635 -0.4494 -0.7981
  506MOL0     H68277   6.511   7.857   8.684 -1.9693 -3.2322  0.2738
  506MOL0     H68278   6.519   7.662   8.529  0.5998 -0.8843 -1.6526
  506MOL0     H68279   6.487   7.763   8.389  2.0954 -1.4437 -0.2141
  506MOL0     H68280   6.721   7.717   8.418  0.5227 -0.0164  0.0532
  506MOL0     H68281   6.734   7.795   8.580 -0.3714  0.5986  0.8592
  506MOL0     H68282   6.672   8.011   8.485  1.9971  0.1373 -0.1154
  506MOL0     H68283   6.650   7.946   8.321 -2.4595 -1.0092  0.6475
  506MOL0     H68284   6.862   8.062   8.343 -1.2012  0.7925  0.6567
  506MOL0     H68285   6.902   7.969   8.490 -0.8456  0.6670  0.3091
  506MOL0     H68286   6.949   7.780   8.337  2.3934  0.4794 -0.3289
  506MOL0     H68287   7.015   7.930   8.263 -0.0904  0.7631 -1.0950
  506MOL0     H68288   6.780   7.766   8.162  1.8994 -1.5591  1.4985
  506MOL0     H68289   6.839   7.925   8.093  0.0897  0.6425 -0.1868
  506MOL0     H68290   6.138   7.953   8.261 -1.4203  2.5041  1.0795
  506MOL0     H68291   5.903   7.949   8.224 -1.0435  3.5209  1.9375
  506MOL0     H68292   5.372   7.827   8.599  0.1001 -0.6965  1.2359
  506MOL0     H68293   5.163   7.751   8.524 -0.3639 -1.1094 -0.5260
  506MOL0     H68294   3.927   7.464   9.471  0.3872 -0.8170  0.8108
  506MOL0     H68295   3.797   7.526   9.645  0.7422 -0.6482  1.2628
  506MOL0     H68296   3.500   7.419   9.950 -1.3125 -2.1585  0.8741
  506MOL0     H68297   3.353   7.436  10.139  3.1814  0.8862 -0.7925
  506MOL0     H68298   3.146   7.407  10.294 -0.3877 -1.1131  0.4842
  506MOL0     H68299   3.060   7.333  10.157  1.2030  1.3048 -1.6364
  506MOL0     H68300   2.853   7.473  10.227  0.0085  2.6700  0.3177
  506MOL0     H68301   2.947   7.530  10.369 -3.7572  0.1806  1.7816
  506MOL0     H68302   2.979   7.269  10.424  0.6836 -2.9592 -1.5523
  506MOL0     H68303   2.863   7.247  10.293 -0.8076  2.3809 -1.6104
  506MOL0     H68304   2.777   7.413  10.539 -0.5043  1.1025 -0.0766
  506MOL0     H68305   2.682   7.346  10.404  0.7691 -0.8546 -1.4423
  506MOL0     H68306   2.713   7.030  10.672 -1.2147 -0.0727 -0.4395
  506MOL0     H68307   3.068   7.658   9.919 -0.0849 -0.5234 -1.3625
  506MOL0     H68308   3.175   7.657   9.619  1.6433 -2.3549  0.5210
  506MOL0     H68309   3.130   7.781   9.742  1.3204  0.7402 -0.5237
  506MOL0     H68310   3.295   7.775   9.674 -0.1682 -0.6972 -1.5568
  507MOL0     O68311   2.565   3.670   4.054  0.1829 -0.3776  0.6595
  507MOL0     C68312   2.577   3.705   4.169 -0.2788 -0.3156  0.0957
  507MOL0     O68313   2.696   3.752   4.226  0.0579  0.1961  0.3064
  507MOL0     C68314   2.792   3.808   4.148  0.7802 -0.6728 -0.6047
  507MOL0     C68315   2.775   3.857   4.020  0.0247 -0.7603 -0.2061
  507MOL0     C68316   2.884   3.886   3.935  0.6534 -0.1748 -0.6207
  507MOL0     C68317   3.011   3.901   4.000 -0.0904  0.6111  0.2569
  507MOL0     O68318   3.112   3.958   3.932  0.0771  0.0731  0.0912
  507MOL0     C68319   3.098   4.093   3.889 -0.1019  0.4752  0.1004
  507MOL0     C68320   3.198   4.182   3.957  0.2525 -0.3945  0.2307
  507MOL0     C68321   3.173   4.194   4.104  0.3508 -0.0103 -0.4322
  507MOL0     C68322   3.248   4.304   4.172 -0.9097 -0.1219  0.1246
  507MOL0     C68323   3.400   4.287   4.171 -1.0829 -0.1471  0.7047
  507MOL0     C68324   3.481   4.403   4.231  0.9585  0.0613 -0.0195
  507MOL0     C68325   3.626   4.360   4.260  0.4145  0.2141  0.8669
  507MOL0     C68326   3.722   4.481   4.285  0.0612 -0.3046  0.2585
  507MOL0     N68327   3.851   4.476   4.212  0.4120  0.6081  0.1167
  507MOL0     C68328   3.901   4.576   4.133 -0.0677 -0.3085 -0.4652
  507MOL0     C68329   4.020   4.525   4.097 -1.0516 -0.1629 -0.2414
  507MOL0     C68330   4.111   4.607   4.009 -0.6468  0.4616 -0.3749
  507MOL0     C68331   4.204   4.704   4.084 -0.9408 -0.2237 -0.1037
  507MOL0     C68332   4.329   4.627   4.143  0.2847 -0.1548  0.2847
  507MOL0     C68333   4.397   4.715   4.246  0.7925  0.2951 -0.4921
  507MOL0     O68334   4.461   4.827   4.184  0.0407 -0.2362  0.5788
  507MOL0     C68335   4.574   4.877   4.247 -0.0057  0.0061 -0.3740
  507MOL0     C68336   4.689   4.916   4.178 -0.0167  0.6316  0.5737
  507MOL0     C68337   4.817   4.939   4.239  0.2691  0.1937 -0.8420
  507MOL0     C68338   4.827   4.922   4.373 -0.5351 -0.1181  0.5827
  507MOL0     C68339   4.966   4.942   4.441 -0.4676  0.4853  0.1413
  507MOL0     O68340   5.069   4.987   4.360 -0.3056  0.3994 -0.5013
  507MOL0     C68341   5.196   4.996   4.406 -0.6340 -0.0597 -0.3761
  507MOL0     C68342   5.283   5.065   4.317  0.1461  0.6583  1.1013
  507MOL0     C68343   5.421   5.087   4.339  0.1928 -0.9867  0.2004
  507MOL0     C68344   5.470   5.039   4.457 -0.2624 -0.1246 -0.8885
  507MOL0     O68345   5.599   5.059   4.490 -1.0399 -0.4213 -0.1186
  507MOL0     C68346   5.701   4.963   4.458  0.4125  0.1848 -0.4620
  507MOL0     C68347   5.810   5.029   4.383  0.0732 -0.6486 -0.0268
  507MOL0     C68348   5.939   4.954   4.378 -0.3254 -0.3003  0.4098
  507MOL0     C68349   6.021   5.023   4.266 -0.2039 -0.4900  0.5484
  507MOL0     C68350   6.166   4.979   4.263 -0.0213 -0.2261  0.8001
  507MOL0     C68351   6.185   4.833   4.229 -0.7833 -0.2521 -0.1306
  507MOL0     C68352   6.327   4.804   4.198  0.3683  1.2008  0.0265
  507MOL0     C68353   6.412   4.812   4.323 -0.6199 -0.1406  0.3196
  507MOL0    Cl68354   6.574   4.743   4.269 -0.1696  0.1181  0.1543
  507MOL0     C68355   5.394   4.966   4.551  0.7548  0.5450 -0.1840
  507MOL0     C68356   5.254   4.946   4.528 -0.7107 -0.3387  0.0801
  507MOL0     O68357   4.976   4.912   4.559 -0.0192  0.0794  0.8566
  507MOL0     C68358   4.716   4.888   4.451  0.9198  0.9234 -0.4663
  507MOL0     C68359   4.592   4.855   4.391 -0.4099 -0.3256  0.9193
  507MOL0     N68360   4.042   4.394   4.146 -0.6330  0.0245  0.0436
  507MOL0     N68361   3.930   4.363   4.210 -0.0945 -0.5896  0.4115
  507MOL0     C68362   3.030   3.851   4.132 -0.6161  1.0488  0.3832
  507MOL0     C68363   2.921   3.796   4.202  0.4274 -0.0390 -0.4337
  507MOL0     C68364   2.469   3.676   4.264 -0.0736  0.0624  0.4419
  507MOL0     C68365   2.493   3.682   4.408  0.7525  0.9010 -0.6868
  507MOL0     C68366   2.388   3.645   4.494  0.0793 -0.4076  0.0159
  507MOL0     C68367   2.268   3.605   4.440  0.0767  0.8074  0.0499
  507MOL0     O68368   2.167   3.570   4.526 -0.0157 -0.6345 -0.8705
  507MOL0     C68369   2.042   3.521   4.471 -0.1456  0.5536 -0.1801
  507MOL0     C68370   1.943   3.502   4.592 -0.4669 -1.1618 -0.1633
  507MOL0     C68371   1.989   3.401   4.702 -0.2634  0.1759  0.4855
  507MOL0     C68372   1.879   3.392   4.806  0.1886  0.3887  0.0799
  507MOL0     C68373   1.869   3.522   4.875 -0.0980  0.1063 -0.6153
  507MOL0     C68374   1.865   3.634   4.925 -0.5623  0.6357 -1.0001
  507MOL0     C68375   2.249   3.613   4.306 -0.4215 -0.2237  0.5108
  507MOL0     C68376   2.342   3.641   4.211  0.5204 -0.7745 -0.0151
  507MOL0     C68377   2.306   3.643   4.067 -0.6911  0.1742  0.2399
  507MOL0     H68378   2.673   3.860   3.984  0.3450  0.2755 -1.0842
  507MOL0     H68379   2.879   3.928   3.835  1.2158 -4.0979 -2.4871
  507MOL0     H68380   3.085   4.110   3.782  1.0555  3.0065  0.2902
  507MOL0     H68381   3.002   4.128   3.929  0.4555 -0.2141  2.1879
  507MOL0     H68382   3.190   4.282   3.912 -0.3503 -0.9310 -0.8972
  507MOL0     H68383   3.301   4.150   3.937 -0.3501 -0.2923 -3.8754
  507MOL0     H68384   3.204   4.097   4.143  5.3994  0.4078 -2.6862
  507MOL0     H68385   3.065   4.201   4.120  0.3921  1.9427 -0.7219
  507MOL0     H68386   3.226   4.399   4.122 -1.2194 -0.3025 -0.0891
  507MOL0     H68387   3.217   4.320   4.276  0.9829 -0.4019  0.7824
  507MOL0     H68388   3.418   4.203   4.238  0.2289 -1.9189 -1.7146
  507MOL0     H68389   3.440   4.263   4.072 -1.5838 -1.6225  0.8396
  507MOL0     H68390   3.478   4.485   4.158  2.1878 -0.7874 -1.0501
  507MOL0     H68391   3.437   4.437   4.326  0.1081 -0.9385 -0.0330
  507MOL0     H68392   3.654   4.311   4.167  0.2501 -0.6586  1.2667
  507MOL0     H68393   3.638   4.289   4.342 -0.3362 -1.9791 -0.8263
  507MOL0     H68394   3.677   4.578   4.261  0.3527 -0.0897  0.5740
  507MOL0     H68395   3.738   4.490   4.393  0.4448  1.9940  0.0474
  507MOL0     H68396   3.869   4.677   4.110 -3.8669 -1.6472 -1.7770
  507MOL0     H68397   4.169   4.543   3.941 -0.6704 -0.8607  0.8066
  507MOL0     H68398   4.044   4.658   3.939 -1.7933 -0.4070  0.0701
  507MOL0     H68399   4.256   4.766   4.011  2.0915 -3.5265 -1.0726
  507MOL0     H68400   4.165   4.775   4.158  1.8335  2.0424 -0.6403
  507MOL0     H68401   4.403   4.592   4.071  0.9841  1.2891  0.2568
  507MOL0     H68402   4.297   4.530   4.182  2.6780 -0.3018  2.1731
  507MOL0     H68403   4.470   4.654   4.301 -1.2258 -1.2397  0.6030
  507MOL0     H68404   4.328   4.753   4.322  0.1244 -0.2487 -0.8130
  507MOL0     H68405   4.665   4.893   4.074 -3.7702  1.9268  1.0013
  507MOL0     H68406   4.902   4.965   4.177 -1.1177  2.6614 -1.8543
  507MOL0     H68407   5.239   5.105   4.226  0.2648 -1.9595 -0.1960
  507MOL0     H68408   5.485   5.144   4.272  1.1110 -2.9680 -0.6675
  507MOL0     H68409   5.728   4.916   4.553  1.8516  3.3008  0.8114
  507MOL0     H68410   5.655   4.894   4.387  0.5170  2.0377 -2.4084
  507MOL0     H68411   5.769   5.051   4.284  0.3464 -1.3318 -0.2911
  507MOL0     H68412   5.833   5.125   4.430  2.8161  0.6735 -3.5572
  507MOL0     H68413   5.991   4.973   4.472  1.1550 -3.4036  0.3499
  507MOL0     H68414   5.918   4.849   4.356  0.8575 -0.5362  0.3136
  507MOL0     H68415   6.016   5.132   4.276 -1.9491 -0.5983  1.0912
  507MOL0     H68416   5.991   4.992   4.165 -0.0812 -2.4328  1.0734
  507MOL0     H68417   6.212   4.999   4.360 -1.9558  0.9725  1.5392
  507MOL0     H68418   6.218   5.044   4.192 -0.0996 -0.2533  0.7173
  507MOL0     H68419   6.144   4.766   4.305 -0.2574  0.8526  1.1692
  507MOL0     H68420   6.128   4.825   4.136 -1.0401  0.5081 -0.0466
  507MOL0     H68421   6.365   4.872   4.121  1.4294  0.5697 -0.0404
  507MOL0     H68422   6.334   4.702   4.159  1.8047  0.0900  2.8763
  507MOL0     H68423   6.427   4.914   4.359  1.4649 -0.2849 -0.0166
  507MOL0     H68424   6.366   4.758   4.407  0.3465  1.1906  1.7560
  507MOL0     H68425   5.430   4.925   4.645 -1.2363 -2.9471 -0.7574
  507MOL0     H68426   5.200   4.897   4.608  0.4405 -0.2312  0.9462
  507MOL0     H68427   4.729   4.858   4.555 -1.7465 -1.2227 -0.6324
  507MOL0     H68428   4.523   4.803   4.457  1.6886 -3.2457  1.0018
  507MOL0     H68429   3.127   3.867   4.178 -1.7955  2.9881  2.3983
  507MOL0     H68430   2.924   3.767   4.306 -2.3245  2.9598  0.6393
  507MOL0     H68431   2.589   3.701   4.455  0.4808  2.6916 -0.7821
  507MOL0     H68432   2.392   3.652   4.603 -0.8387  0.0320  0.0362
  507MOL0     H68433   2.057   3.424   4.423 -4.6191 -0.8323  0.7632
  507MOL0     H68434   1.992   3.595   4.408 -3.2417 -0.2913  1.1095
  507MOL0     H68435   1.843   3.479   4.552  0.3402 -1.6973 -1.9626
  507MOL0     H68436   1.952   3.600   4.640  1.6691 -1.6398  0.4969
  507MOL0     H68437   2.084   3.429   4.749 -0.6742  2.5064  0.0708
  507MOL0     H68438   1.998   3.299   4.663 -0.5053  1.1963 -2.4670
  507MOL0     H68439   1.781   3.357   4.773  0.3107  2.0441 -2.2195
  507MOL0     H68440   1.923   3.320   4.876 -0.5271 -0.2215 -0.0831
  507MOL0     H68441   1.864   3.733   4.967 -0.4313  1.3807 -2.6912
  507MOL0     H68442   2.154   3.584   4.264  0.9281  0.6043 -3.5772
  507MOL0     H68443   2.198   3.630   4.063 -0.5292 -1.1197 -0.4229
  507MOL0     H68444   2.338   3.736   4.019  0.7793  0.8136  2.3204
  507MOL0     H68445   2.349   3.554   4.019 -2.5762 -0.4002 -0.4851
  508MOL0     O68446  10.877   3.696   6.079  0.3253  0.8274  0.0310
  508MOL0     C68447  10.833   3.780   6.004  0.2661  0.5194 -1.0982
  508MOL0     O68448  10.896   3.887   5.957  0.4872  0.5708 -0.2755
  508MOL0     C68449  11.023   3.901   5.999  0.5453 -0.1872 -0.3913
  508MOL0     C68450  11.128   3.844   5.937 -0.8397 -0.4032  0.2921
  508MOL0     C68451  11.265   3.876   5.975 -0.3924  0.3521  0.5673
  508MOL0     C68452  11.290   3.965   6.082  0.1187  0.1754  0.7354
  508MOL0     O68453  11.412   3.977   6.138 -0.0013 -0.5524 -0.6168
  508MOL0     C68454  11.528   3.963   6.054  0.1223  0.8124  0.3209
  508MOL0     C68455  11.636   4.053   6.110 -0.0469 -0.0877 -0.1674
  508MOL0     C68456  11.770   4.015   6.051 -0.3932  0.2428  0.1913
  508MOL0     C68457  11.885   4.101   6.117 -0.4309  0.6279 -0.0801
  508MOL0     C68458  12.023   4.092   6.048  0.3723 -0.6480 -1.2016
  508MOL0     C68459  12.091   3.959   6.094  0.8275  0.4582  0.0643
  508MOL0     C68460  12.212   3.915   6.021  0.2982  0.1027 -0.0413
  508MOL0     C68461  12.330   4.012   6.047  0.3642 -0.6563  0.5821
  508MOL0     N68462  12.460   3.958   6.023  0.3142  0.3574  0.4394
  508MOL0     C68463  12.570   4.026   5.968 -0.3899  0.1030  0.4050
  508MOL0     C68464  12.662   3.934   5.955  0.5333  0.3762 -0.3924
  508MOL0     C68465  12.804   3.970   5.917  0.9333 -0.4126  0.4963
  508MOL0     C68466  12.861   4.069   6.014  0.2354  0.7924 -0.7176
  508MOL0     C68467  13.014   4.058   6.011  0.6348 -0.5382 -0.8407
  508MOL0     C68468  13.068   4.166   6.108  0.7369 -0.4727  0.4477
  508MOL0     O68469  13.078   4.280   6.030 -0.5228  0.4605  0.4217
  508MOL0     C68470  13.196   4.308   5.964  0.0550 -0.6036 -0.1294
  508MOL0     C68471  13.288   4.223   5.913  0.3227  0.3020 -0.3968
  508MOL0     C68472  13.405   4.258   5.836  0.5808  0.4033 -0.1513
  508MOL0     C68473  13.431   4.393   5.825  0.7669 -0.5020 -0.3225
  508MOL0     C68474  13.553   4.456   5.774 -1.1669  0.0952  0.2304
  508MOL0     O68475  13.595   4.557   5.848  0.0901 -0.5942  0.1757
  508MOL0     C68476  13.699   4.628   5.804 -1.1030 -0.8535 -0.2704
  508MOL0     C68477  13.771   4.690   5.902 -0.0463  0.2546 -0.0570
  508MOL0     C68478  13.873   4.782   5.883  0.7048 -0.6320  0.4477
  508MOL0     C68479  13.915   4.811   5.755  0.6210  0.1538 -0.5511
  508MOL0     O68480  14.025   4.890   5.723  0.3540  0.7509 -1.0117
  508MOL0     C68481  14.084   4.967   5.827 -0.3878  0.5543 -0.0962
  508MOL0     C68482  14.173   5.089   5.784  0.1644  0.7151  0.2926
  508MOL0     C68483  14.276   5.044   5.676 -0.8980 -0.2073  0.3293
  508MOL0     C68484  14.371   5.153   5.629 -0.8746 -0.9104  0.1695
  508MOL0     C68485  14.468   5.116   5.510 -0.2155  0.5166 -0.4550
  508MOL0     C68486  14.573   5.022   5.552  0.0140  0.3329  0.1223
  508MOL0     C68487  14.644   4.960   5.431 -0.5624  0.0696  0.0541
  508MOL0     C68488  14.764   4.880   5.477 -0.1260  0.0997  0.0159
  508MOL0    Cl68489  14.887   4.975   5.550  0.1293 -0.1289 -0.6871
  508MOL0     C68490  13.841   4.762   5.652 -0.1588  0.0199 -0.0554
  508MOL0     C68491  13.732   4.674   5.679  0.1934  0.3118 -0.4700
  508MOL0     O68492  13.618   4.403   5.684  0.0438  0.0664 -0.6480
  508MOL0     C68493  13.340   4.488   5.876 -0.8038  0.3930  0.8831
  508MOL0     C68494  13.218   4.446   5.928  0.6186 -0.5297 -0.3059
  508MOL0     N68495  12.610   3.809   5.994 -0.3594  0.6704 -0.8776
  508MOL0     N68496  12.486   3.827   6.041  0.3206  0.2101 -0.0554
  508MOL0     C68497  11.172   4.012   6.143  0.5058  0.4397  0.0966
  508MOL0     C68498  11.048   3.997   6.097  0.4668  0.3990  0.1995
  508MOL0     C68499  10.693   3.782   5.973  0.3963  0.4288 -0.0003
  508MOL0     C68500  10.648   3.837   5.848 -1.0824 -0.4646  0.1935
  508MOL0     C68501  10.518   3.842   5.811  0.2142  0.0597  0.0125
  508MOL0     C68502  10.418   3.806   5.887 -0.0835 -1.0960 -0.9698
  508MOL0     O68503  10.285   3.828   5.841 -0.1098 -0.3345 -0.1182
  508MOL0     C68504  10.177   3.758   5.911 -0.9628  0.4032 -0.1891
  508MOL0     C68505  10.048   3.762   5.835  0.4810 -0.1673 -0.3276
  508MOL0     C68506   9.980   3.897   5.877  0.5703 -0.0735 -0.1413
  508MOL0     C68507   9.847   3.914   5.790 -0.4180 -0.3533  0.0497
  508MOL0     C68508   9.748   3.816   5.824  0.1242  0.8406 -0.7531
  508MOL0     C68509   9.668   3.723   5.833 -0.0625  1.3372  0.2625
  508MOL0     C68510  10.453   3.746   6.015  0.2301 -0.1429  0.5427
  508MOL0     C68511  10.586   3.730   6.055 -0.6689  0.0773  0.4312
  508MOL0     C68512  10.604   3.662   6.194 -0.6894 -0.5091 -0.5925
  508MOL0     H68513  11.124   3.774   5.854  2.5968 -2.9082  1.9664
  508MOL0     H68514  11.351   3.826   5.930  1.4596  3.3242  0.5716
  508MOL0     H68515  11.548   3.855   6.059 -2.9897  0.1394  0.2012
  508MOL0     H68516  11.505   3.994   5.952 -0.0437 -0.0278  0.0955
  508MOL0     H68517  11.648   4.029   6.216 -2.1659 -1.2443 -0.1386
  508MOL0     H68518  11.612   4.159   6.104 -0.1475 -0.1476 -0.8886
  508MOL0     H68519  11.775   4.024   5.942  2.7100 -1.9872  0.0215
  508MOL0     H68520  11.797   3.912   6.076 -0.0475 -0.2733 -2.0854
  508MOL0     H68521  11.849   4.203   6.105  0.4697  1.1436  1.3944
  508MOL0     H68522  11.890   4.060   6.219 -1.8539  1.9993  0.5787
  508MOL0     H68523  12.020   4.091   5.939  1.3264  1.6166 -1.2906
  508MOL0     H68524  12.080   4.180   6.080  0.5744 -1.1519 -0.1169
  508MOL0     H68525  12.121   3.972   6.198  1.5002  0.9735 -0.1806
  508MOL0     H68526  12.021   3.875   6.091  1.6472 -0.2786  0.7603
  508MOL0     H68527  12.187   3.906   5.914  1.1095  0.9546 -0.3109
  508MOL0     H68528  12.241   3.818   6.063 -1.1862  0.8402  2.8898
  508MOL0     H68529  12.306   4.109   6.001 -0.2401 -1.1090 -0.0840
  508MOL0     H68530  12.336   4.029   6.155  1.8018  0.6092  0.3282
  508MOL0     H68531  12.571   4.131   5.943 -1.2476 -0.4038 -1.9916
  508MOL0     H68532  12.863   3.879   5.902  3.7336  1.5196 -1.0180
  508MOL0     H68533  12.799   4.009   5.814 -1.3519 -0.7535  0.4217
  508MOL0     H68534  12.825   4.168   5.984 -3.5410 -0.5109 -1.0475
  508MOL0     H68535  12.819   4.052   6.114  0.5724  1.4865 -0.4524
  508MOL0     H68536  13.055   4.066   5.910  1.7773 -4.7441 -0.8856
  508MOL0     H68537  13.033   3.959   6.054 -1.7086 -1.4041 -1.6399
  508MOL0     H68538  13.167   4.152   6.152  2.4594  1.4942 -2.4124
  508MOL0     H68539  12.987   4.178   6.181 -2.0404  2.1262 -2.7019
  508MOL0     H68540  13.262   4.120   5.935 -0.0615  0.1168 -1.6598
  508MOL0     H68541  13.468   4.177   5.799  0.9326  0.2233  0.8141
  508MOL0     H68542  13.752   4.670   6.007  1.4131 -0.9837  0.0137
  508MOL0     H68543  13.927   4.826   5.967  0.7194 -4.7115  2.8117
  508MOL0     H68544  14.006   4.996   5.898 -0.4993  0.3000 -0.1140
  508MOL0     H68545  14.151   4.890   5.867 -0.2235 -0.8867 -2.8725
  508MOL0     H68546  14.108   5.167   5.742  0.2562 -0.0265 -1.2870
  508MOL0     H68547  14.214   5.136   5.874 -2.0193  3.3892  0.0460
  508MOL0     H68548  14.341   4.968   5.720 -1.0269 -0.0954  0.7111
  508MOL0     H68549  14.222   5.006   5.588 -2.3270  2.9704 -0.3033
  508MOL0     H68550  14.427   5.192   5.714 -1.5959  1.1710 -0.2411
  508MOL0     H68551  14.319   5.242   5.592  0.9411  1.1370  2.1965
  508MOL0     H68552  14.515   5.208   5.474 -2.1895  2.2530  1.1252
  508MOL0     H68553  14.405   5.082   5.428  2.9162  0.5762 -3.1005
  508MOL0     H68554  14.654   5.070   5.607  2.5008 -4.6507  1.3725
  508MOL0     H68555  14.538   4.941   5.616  2.0037  1.4181  2.8288
  508MOL0     H68556  14.669   5.048   5.371 -1.6298  0.0859 -0.3774
  508MOL0     H68557  14.578   4.892   5.376  0.3247  0.3266 -1.3834
  508MOL0     H68558  14.726   4.804   5.545  1.4869 -1.8099 -1.0971
  508MOL0     H68559  14.810   4.825   5.394  1.6842 -0.0789  1.0918
  508MOL0     H68560  13.885   4.779   5.554 -0.3035  1.2873  0.0890
  508MOL0     H68561  13.685   4.635   5.589  0.3799  1.6517 -1.1780
  508MOL0     H68562  13.362   4.593   5.864  0.4126  0.1104  0.4323
  508MOL0     H68563  13.146   4.521   5.956  1.7918  1.1246 -1.5003
  508MOL0     H68564  11.164   4.079   6.228 -2.7988  1.3356 -0.7646
  508MOL0     H68565  10.964   4.045   6.145  1.5603  0.7312  1.8651
  508MOL0     H68566  10.717   3.885   5.780 -1.7391 -0.3010 -0.3650
  508MOL0     H68567  10.504   3.874   5.708  1.0941  1.4674  0.3110
  508MOL0     H68568  10.157   3.785   6.015  1.4764  0.7464  0.2445
  508MOL0     H68569  10.208   3.653   5.914 -0.5667  0.5396  0.6353
  508MOL0     H68570   9.993   3.674   5.870  1.4267 -2.3925 -3.9051
  508MOL0     H68571  10.053   3.757   5.726 -2.3632  1.6679 -0.6538
  508MOL0     H68572  10.045   3.984   5.866 -0.9148  1.2351  0.8484
  508MOL0     H68573   9.949   3.897   5.982  0.0498 -4.0968 -0.1261
  508MOL0     H68574   9.809   4.015   5.809  2.6079  0.4353  2.9803
  508MOL0     H68575   9.866   3.895   5.684 -0.9602 -0.2674 -0.0638
  508MOL0     H68576   9.602   3.638   5.834 -1.7411  2.5375 -1.2774
  508MOL0     H68577  10.368   3.721   6.077  0.6279  0.2629  1.2655
  508MOL0     H68578  10.636   3.741   6.262 -1.0893 -1.0262  0.2151
  508MOL0     H68579  10.509   3.637   6.244 -0.5486  0.5025  0.1983
  508MOL0     H68580  10.674   3.578   6.189 -0.7504 -0.5197 -1.3233
  509MOL0     O68581   4.049  10.178  10.991 -0.4552 -0.2061  0.0909
  509MOL0     C68582   3.932  10.185  11.037  0.4370  0.3052 -0.2530
  509MOL0     O68583   3.889  10.273  11.143 -0.3208 -0.6615  0.9720
  509MOL0     C68584   3.979  10.369  11.194  0.2608  0.3618  0.6221
  509MOL0     C68585   4.021  10.470  11.107  0.2160 -0.0494 -0.2302
  509MOL0     C68586   4.104  10.576  11.153 -0.3410  1.5473 -0.4796
  509MOL0     C68587   4.141  10.576  11.290 -0.3961  0.2307 -0.0214
  509MOL0     O68588   4.214  10.684  11.344  1.1215 -0.4359 -0.2634
  509MOL0     C68589   4.234  10.805  11.267  0.7387  0.1062  0.3645
  509MOL0     C68590   4.301  10.910  11.337  0.4196  0.4034  0.5143
  509MOL0     C68591   4.256  10.920  11.490 -0.8954 -0.1780  0.4500
  509MOL0     C68592   4.297  11.060  11.551 -0.1729  0.8657  0.5263
  509MOL0     C68593   4.277  11.076  11.708  0.2975 -0.9261 -0.5373
  509MOL0     C68594   4.336  10.974  11.794  0.1509 -0.1923 -0.2588
  509MOL0     C68595   4.482  10.956  11.763  0.3793  0.2829 -0.5464
  509MOL0     C68596   4.565  10.850  11.835 -0.0988 -0.5866 -0.0480
  509MOL0     N68597   4.704  10.830  11.780 -0.3161  0.2060 -0.8903
  509MOL0     C68598   4.804  10.923  11.797 -1.3977 -0.1468  0.5617
  509MOL0     C68599   4.919  10.861  11.765  0.5626  0.0341 -0.5746
  509MOL0     C68600   5.058  10.925  11.763  0.3752  0.5567 -0.2380
  509MOL0     C68601   5.114  10.915  11.901  0.1183 -1.0230 -0.7409
  509MOL0     C68602   5.102  10.780  11.973  0.4722  1.1509 -0.5611
  509MOL0     C68603   5.193  10.676  11.909 -1.2910 -0.1368  0.3185
  509MOL0     O68604   5.197  10.558  11.989 -0.3127 -0.2331 -0.2703
  509MOL0     C68605   5.300  10.544  12.079  0.1025 -0.4915 -0.8460
  509MOL0     C68606   5.325  10.409  12.111  0.0544  0.9908  0.2414
  509MOL0     C68607   5.417  10.377  12.217  0.2501 -0.1179 -0.4161
  509MOL0     C68608   5.489  10.480  12.278 -0.0111  0.4599 -0.2290
  509MOL0     C68609   5.591  10.436  12.381  0.4690 -0.9797 -0.4216
  509MOL0     O68610   5.627  10.303  12.372  0.2110 -0.2651  0.0951
  509MOL0     C68611   5.711  10.260  12.465 -1.0268  0.2297  0.7538
  509MOL0     C68612   5.851  10.261  12.435  0.1821 -0.0116  0.1430
  509MOL0     C68613   5.953  10.224  12.525  0.4195 -0.6041 -0.4891
  509MOL0     C68614   5.915  10.174  12.648  0.4440 -0.4008  0.0895
  509MOL0     O68615   6.013  10.152  12.733 -0.2041 -0.4199 -0.1340
  509MOL0     C68616   5.994  10.064  12.844  0.5652  0.0202 -0.1033
  509MOL0     C68617   6.129  10.003  12.891 -0.0005  0.2723 -0.6722
  509MOL0     C68618   6.227  10.101  12.937  0.0829 -0.5815  0.1686
  509MOL0     C68619   6.344  10.045  13.011 -0.3885  0.0077 -0.3298
  509MOL0     C68620   6.441  10.168  13.042  0.4403 -0.2272  0.3942
  509MOL0     C68621   6.576  10.124  13.111 -0.3390 -1.1397  0.3946
  509MOL0     C68622   6.573  10.011  13.211 -0.6296  0.0278 -0.3322
  509MOL0     C68623   6.713   9.953  13.240  0.7647  0.4086  0.8096
  509MOL0    Cl68624   6.702   9.812  13.355 -0.0287  0.2909  0.1170
  509MOL0     C68625   5.775  10.168  12.682  0.0220  0.1706 -0.5560
  509MOL0     C68626   5.673  10.211  12.590 -0.3264  0.5233  0.3936
  509MOL0     O68627   5.643  10.522  12.453 -0.3195  0.1925 -0.7989
  509MOL0     C68628   5.464  10.610  12.237 -1.0753 -0.5952 -0.2139
  509MOL0     C68629   5.379  10.651  12.134  0.1365 -0.0219 -1.0750
  509MOL0     N68630   4.889  10.728  11.731  0.0039 -0.7884  0.1429
  509MOL0     N68631   4.762  10.710  11.741 -0.5300 -0.0337  0.0289
  509MOL0     C68632   4.100  10.471  11.376  0.2263 -0.1622 -0.2365
  509MOL0     C68633   4.010  10.373  11.324 -0.4644  0.0202  0.1101
  509MOL0     C68634   3.833  10.084  10.982 -0.7034 -0.3088 -0.0075
  509MOL0     C68635   3.710  10.092  11.037 -0.1169 -0.8583  0.3519
  509MOL0     C68636   3.609  10.011  11.002 -0.0177 -0.5057 -1.3201
  509MOL0     C68637   3.628   9.912  10.906  0.2368 -0.6033  0.0093
  509MOL0     O68638   3.531   9.828  10.857 -0.4391  0.1009  0.1015
  509MOL0     C68639   3.391   9.850  10.889  0.2586  0.9374 -0.5422
  509MOL0     C68640   3.341   9.799  11.028 -0.2209 -0.5085 -0.1690
  509MOL0     C68641   3.347   9.641  11.041 -0.3031  0.2628  0.8992
  509MOL0     C68642   3.250   9.572  11.137  0.3866 -0.4217  0.1243
  509MOL0     C68643   3.107   9.565  11.093  0.1599 -0.5519 -0.9742
  509MOL0     C68644   2.996   9.539  11.044  1.0755  0.2571 -0.9329
  509MOL0     C68645   3.751   9.905  10.845  0.2589 -0.1509 -0.2997
  509MOL0     C68646   3.856   9.986  10.885  0.2194  0.0456  0.1797
  509MOL0     C68647   3.983   9.954  10.821 -1.0605  0.8262  0.1494
  509MOL0     H68648   3.998  10.471  11.001  0.4698 -1.1353 -0.3103
  509MOL0     H68649   4.137  10.655  11.087  0.1501  1.4305 -0.3837
  509MOL0     H68650   4.286  10.781  11.174  1.9263  0.6708  0.8597
  509MOL0     H68651   4.137  10.846  11.237  0.8248 -1.4037 -2.1761
  509MOL0     H68652   4.290  11.008  11.290 -2.4508  0.3128  0.8369
  509MOL0     H68653   4.408  10.889  11.322  0.8685  3.7327 -2.0597
  509MOL0     H68654   4.298  10.843  11.554  1.7169  1.6955  1.1834
  509MOL0     H68655   4.147  10.909  11.489 -0.8861 -0.4576 -1.5842
  509MOL0     H68656   4.402  11.080  11.530 -0.0113  0.1447  0.6023
  509MOL0     H68657   4.237  11.135  11.498 -0.9946  0.4712  0.8642
  509MOL0     H68658   4.314  11.176  11.734 -1.9438  0.6545 -2.8480
  509MOL0     H68659   4.169  11.073  11.725 -0.0123  0.9419 -1.8709
  509MOL0     H68660   4.321  10.999  11.900 -1.3627 -4.2127  0.6390
  509MOL0     H68661   4.278  10.884  11.774  1.5725 -0.3830 -4.5099
  509MOL0     H68662   4.536  11.047  11.789  3.6520 -1.1074 -1.9376
  509MOL0     H68663   4.494  10.944  11.655 -1.6013 -2.1825 -0.5832
  509MOL0     H68664   4.575  10.879  11.940  3.9246 -0.0137 -0.4417
  509MOL0     H68665   4.517  10.752  11.831  0.1765 -0.7171 -0.2091
  509MOL0     H68666   4.800  11.024  11.838  1.5668  1.2931 -2.2874
  509MOL0     H68667   5.125  10.880  11.689  1.8295  1.0760  0.7251
  509MOL0     H68668   5.053  11.033  11.742 -2.2513  0.8188  1.2513
  509MOL0     H68669   5.217  10.952  11.911 -1.1284  2.5017  0.5609
  509MOL0     H68670   5.050  10.983  11.956 -0.9997  1.2122 -4.4240
  509MOL0     H68671   4.997  10.748  11.971  0.7613  0.2099 -2.0128
  509MOL0     H68672   5.126  10.799  12.078 -3.1039  1.4355  0.3284
  509MOL0     H68673   5.294  10.712  11.888  0.0447 -3.1558  1.0547
  509MOL0     H68674   5.164  10.638  11.810  1.2406 -1.5605  0.0325
  509MOL0     H68675   5.272  10.328  12.062 -2.2501  2.8434 -0.5242
  509MOL0     H68676   5.442  10.273  12.234  2.9219  0.7233  1.5464
  509MOL0     H68677   5.875  10.304  12.339 -2.2277  0.3941 -0.3369
  509MOL0     H68678   6.058  10.250  12.531 -0.4129  2.9801  3.2783
  509MOL0     H68679   5.952  10.130  12.920 -1.4894 -2.0692  0.6858
  509MOL0     H68680   5.921   9.985  12.827 -0.7681  1.0925  0.5100
  509MOL0     H68681   6.106   9.927  12.965 -0.3428  0.1655 -0.8881
  509MOL0     H68682   6.179   9.949  12.810 -0.0380 -1.5540  0.4626
  509MOL0     H68683   6.261  10.165  12.855  3.4637 -1.3691  0.8303
  509MOL0     H68684   6.181  10.173  13.005  1.0345 -1.5320  1.8905
  509MOL0     H68685   6.391   9.966  12.953 -0.5206 -0.9295  0.7991
  509MOL0     H68686   6.301  10.008  13.105 -1.3409 -3.3198 -1.9274
  509MOL0     H68687   6.374  10.233  13.100 -0.2899  0.0342 -0.7175
  509MOL0     H68688   6.467  10.223  12.951  1.1401 -1.4681 -0.1792
  509MOL0     H68689   6.645  10.097  13.031  2.3685  1.5040  1.6553
  509MOL0     H68690   6.625  10.210  13.158  1.1039 -1.4989 -0.3966
  509MOL0     H68691   6.519   9.923  13.174  1.9657 -0.6871 -2.8687
  509MOL0     H68692   6.536  10.048  13.307 -0.9040 -1.9025  0.3528
  509MOL0     H68693   6.751   9.930  13.141 -1.0034  1.9850 -0.2932
  509MOL0     H68694   6.777  10.030  13.285  2.4702 -0.4102 -0.1397
  509MOL0     H68695   5.745  10.141  12.783 -0.2123  2.2537 -0.0237
  509MOL0     H68696   5.570  10.201  12.622 -0.0646  0.8829  1.3938
  509MOL0     H68697   5.534  10.679  12.283  1.5347 -3.4765  0.4802
  509MOL0     H68698   5.355  10.753  12.109 -2.5185 -0.2280  0.2512
  509MOL0     H68699   4.115  10.465  11.483  1.1741 -1.6773 -0.4322
  509MOL0     H68700   3.954  10.302  11.383 -1.6173  2.0931  1.6442
  509MOL0     H68701   3.691  10.164  11.116  1.0409  1.0511 -1.0035
  509MOL0     H68702   3.511  10.030  11.045  0.9184 -0.3147  0.8644
  509MOL0     H68703   3.325   9.805  10.814 -0.4382 -0.6329  0.9417
  509MOL0     H68704   3.378   9.957  10.876  2.1001  1.2064 -0.4286
  509MOL0     H68705   3.235   9.822  11.040 -0.3841 -1.7849  1.2024
  509MOL0     H68706   3.399   9.850  11.106 -1.2678 -0.6662  0.7423
  509MOL0     H68707   3.447   9.604  11.064  0.9737  1.5005 -2.1069
  509MOL0     H68708   3.333   9.597  10.941  0.0153 -0.7803  1.2997
  509MOL0     H68709   3.281   9.468  11.137 -4.0302 -1.9717  0.1226
  509MOL0     H68710   3.264   9.609  11.239 -1.7626 -2.1604  1.1410
  509MOL0     H68711   2.898   9.528  11.003  1.0302 -1.1700 -0.4692
  509MOL0     H68712   3.769   9.817  10.783  0.4523 -1.2365  1.2510
  509MOL0     H68713   4.017  10.036  10.757  2.7386  0.4738  1.4552
  509MOL0     H68714   4.062   9.939  10.895 -1.2366 -1.3179 -0.0348
  509MOL0     H68715   3.975   9.857  10.773  2.4964  0.2821  0.3806
  510MOL0     O68716  11.276   9.959   6.542 -0.7858 -0.4008  0.1598
  510MOL0     C68717  11.299   9.885   6.446  0.6875  0.5129  0.5603
  510MOL0     O68718  11.415   9.814   6.420 -0.7533  0.8166  0.5618
  510MOL0     C68719  11.497   9.809   6.526 -0.6161 -0.0099  0.3266
  510MOL0     C68720  11.468   9.721   6.634 -0.0781  0.4659  0.6600
  510MOL0     C68721  11.549   9.727   6.745 -0.1365  0.2965 -0.9936
  510MOL0     C68722  11.668   9.810   6.747  0.0355  0.3711  0.1239
  510MOL0     O68723  11.748   9.812   6.865  0.0975  0.3446  0.7217
  510MOL0     C68724  11.877   9.855   6.870 -0.5153 -1.0368 -0.2398
  510MOL0     C68725  11.926   9.817   7.006 -0.3040  1.0745 -0.6667
  510MOL0     C68726  12.059   9.876   7.038 -0.1556 -0.3567 -0.9792
  510MOL0     C68727  12.081   9.851   7.184  0.1075 -0.0830 -0.1096
  510MOL0     C68728  12.228   9.859   7.222  0.0229  0.5716  0.5398
  510MOL0     C68729  12.256   9.845   7.373  0.7503 -0.3540 -0.1774
  510MOL0     C68730  12.410   9.845   7.410 -0.1138 -0.2064  0.2212
  510MOL0     C68731  12.448   9.776   7.540  0.0041 -0.7885  0.6255
  510MOL0     N68732  12.484   9.870   7.643 -0.3803 -0.2848 -0.1136
  510MOL0     C68733  12.599   9.956   7.648 -0.3345 -0.8239 -0.1944
  510MOL0     C68734  12.580  10.018   7.772  0.0599 -0.2096 -0.1282
  510MOL0     C68735  12.667  10.113   7.839 -0.6096  0.3637 -0.0878
  510MOL0     C68736  12.699  10.243   7.763 -0.1854  0.8042 -0.1988
  510MOL0     C68737  12.763  10.353   7.849 -0.9139  0.3091  0.2953
  510MOL0     C68738  12.783  10.488   7.775 -0.4358 -0.6302  0.2418
  510MOL0     O68739  12.889  10.469   7.677  0.0731  0.0082 -0.2415
  510MOL0     C68740  13.028  10.463   7.712  0.2956  0.6572 -0.2523
  510MOL0     C68741  13.125  10.440   7.605  0.4294  0.2932  0.0402
  510MOL0     C68742  13.265  10.430   7.631 -0.3472  0.0827  0.5929
  510MOL0     C68743  13.314  10.445   7.765 -0.1632  0.0699  0.0565
  510MOL0     C68744  13.460  10.456   7.788  0.8810 -0.1672  1.4712
  510MOL0     O68745  13.536  10.443   7.675  0.6770 -0.0287  0.5319
  510MOL0     C68746  13.667  10.470   7.693 -0.6750 -0.2091  0.1540
  510MOL0     C68747  13.724  10.597   7.689 -0.4348 -0.2614 -0.3292
  510MOL0     C68748  13.866  10.618   7.700 -0.2707 -0.9958  0.4093
  510MOL0     C68749  13.950  10.507   7.708 -0.0199 -0.0964 -0.8906
  510MOL0     O68750  14.084  10.530   7.728 -0.4416 -0.2557  0.3492
  510MOL0     C68751  14.175  10.422   7.760 -0.7313 -0.5885  0.6480
  510MOL0     C68752  14.317  10.450   7.716  0.3119  1.0727 -0.8741
  510MOL0     C68753  14.413  10.326   7.720  0.2301 -0.2996 -0.7780
  510MOL0     C68754  14.545  10.379   7.677 -0.0581  0.4120  1.3292
  510MOL0     C68755  14.635  10.255   7.677 -0.3658 -0.0510  0.6169
  510MOL0     C68756  14.763  10.296   7.610 -0.0654 -0.5445 -0.0750
  510MOL0     C68757  14.877  10.209   7.663  0.9333 -0.1223  0.0218
  510MOL0     C68758  15.002  10.247   7.578  0.0614  0.5028 -0.4600
  510MOL0    Cl68759  15.086  10.392   7.610 -0.4227 -0.1520 -0.1122
  510MOL0     C68760  13.888  10.375   7.705  0.2620  0.2791 -0.3450
  510MOL0     C68761  13.749  10.355   7.701  0.1410 -0.4011  0.1024
  510MOL0     O68762  13.502  10.460   7.900 -0.4842 -0.2423  0.3909
  510MOL0     C68763  13.226  10.466   7.865  0.2767  0.1355  0.1577
  510MOL0     C68764  13.089  10.467   7.843  1.2325 -0.0888  0.7796
  510MOL0     N68765  12.460   9.973   7.833 -0.6471 -0.1445  0.6770
  510MOL0     N68766  12.406   9.893   7.749  0.1092  0.2866  0.2905
  510MOL0     C68767  11.697   9.891   6.637 -1.5846 -0.3817  0.8735
  510MOL0     C68768  11.606   9.891   6.522  0.0647 -0.2219 -0.6112
  510MOL0     C68769  11.191   9.885   6.336  0.1227 -0.4248 -0.0944
  510MOL0     C68770  11.224   9.834   6.209  0.4051 -0.2077  0.3743
  510MOL0     C68771  11.139   9.849   6.098 -0.2748 -0.1236  0.2153
  510MOL0     C68772  11.017   9.926   6.114  0.3858  1.5091  0.4686
  510MOL0     O68773  10.934   9.927   6.004  0.2991 -0.4448 -0.0069
  510MOL0     C68774  10.863  10.053   5.986  0.3469 -0.4938  0.4277
  510MOL0     C68775  10.789  10.054   5.841  0.2861  0.8936 -0.5438
  510MOL0     C68776  10.895  10.007   5.741  0.7734 -0.0272 -0.6231
  510MOL0     C68777  10.893  10.066   5.603 -0.1949 -0.1118 -0.2122
  510MOL0     C68778  10.795  10.015   5.502 -0.2614  0.0986 -0.4096
  510MOL0     C68779  10.729   9.990   5.410 -1.2083  0.4002 -0.1019
  510MOL0     C68780  10.980   9.969   6.241 -0.7721 -0.3014 -0.2339
  510MOL0     C68781  11.063   9.950   6.353 -0.8397 -0.6880 -0.2520
  510MOL0     C68782  11.006  10.015   6.484  0.2794 -0.5978  0.0650
  510MOL0     H68783  11.393   9.645   6.614 -0.6002  1.5930 -1.9956
  510MOL0     H68784  11.522   9.675   6.836  1.0364 -0.9318 -1.3282
  510MOL0     H68785  11.942   9.824   6.788 -1.2809 -1.8258 -0.5689
  510MOL0     H68786  11.864   9.964   6.869  0.1110 -0.8986  2.0304
  510MOL0     H68787  11.952   9.710   7.007  5.9692  2.1795  1.3426
  510MOL0     H68788  11.853   9.836   7.084 -0.0297  2.9301 -0.8262
  510MOL0     H68789  12.072   9.979   7.003 -0.1675  0.2846  0.8007
  510MOL0     H68790  12.137   9.834   6.973 -1.7532  0.6686 -3.7660
  510MOL0     H68791  12.030   9.932   7.235  1.1527  0.2809  0.3687
  510MOL0     H68792  12.045   9.750   7.206  0.4726 -0.1791  0.0456
  510MOL0     H68793  12.275   9.773   7.174  0.0514  1.6266 -1.4369
  510MOL0     H68794  12.284   9.947   7.186  0.6054  0.9134  2.1728
  510MOL0     H68795  12.214   9.930   7.428  1.9819 -0.6950  1.3898
  510MOL0     H68796  12.204   9.763   7.421  3.7199 -0.1387  3.9961
  510MOL0     H68797  12.440   9.950   7.423  1.1081 -0.7101  1.9329
  510MOL0     H68798  12.465   9.790   7.334 -1.1413  0.2060 -0.8342
  510MOL0     H68799  12.367   9.709   7.572  0.1847 -0.7877  1.0920
  510MOL0     H68800  12.534   9.710   7.530  0.8080  0.5620 -2.5369
  510MOL0     H68801  12.679   9.965   7.575 -0.2323  0.0438  0.0116
  510MOL0     H68802  12.617  10.142   7.932 -2.9511 -2.8176 -0.2183
  510MOL0     H68803  12.759  10.064   7.873 -0.9376  0.1816  0.5626
  510MOL0     H68804  12.766  10.219   7.680  1.6326  1.0128  1.1310
  510MOL0     H68805  12.599  10.277   7.733 -1.1690  0.3800  2.3395
  510MOL0     H68806  12.865  10.330   7.880  0.3926  0.1468 -3.5634
  510MOL0     H68807  12.708  10.363   7.943  0.7085  0.2718  1.2734
  510MOL0     H68808  12.812  10.562   7.850 -0.7896 -0.3032  0.0548
  510MOL0     H68809  12.697  10.524   7.718 -0.0530 -1.3820 -0.8311
  510MOL0     H68810  13.087  10.433   7.503  3.5544 -1.7313 -1.1431
  510MOL0     H68811  13.326  10.426   7.542 -1.3700  0.4782 -0.1541
  510MOL0     H68812  13.655  10.681   7.690  1.1756  1.1237 -0.9555
  510MOL0     H68813  13.899  10.721   7.704  0.3856 -1.1747 -0.1602
  510MOL0     H68814  14.168  10.404   7.868  0.7436  0.3702  0.9245
  510MOL0     H68815  14.151  10.326   7.713  0.1985  0.9590 -3.3154
  510MOL0     H68816  14.312  10.495   7.617 -0.8890  0.1045 -1.2843
  510MOL0     H68817  14.358  10.513   7.795  0.8044 -0.8639  0.4864
  510MOL0     H68818  14.427  10.296   7.825 -0.1548 -0.1111 -0.6714
  510MOL0     H68819  14.372  10.249   7.655 -1.2969 -0.2835  0.1034
  510MOL0     H68820  14.579  10.453   7.750 -0.7129  1.6833  0.3810
  510MOL0     H68821  14.542  10.419   7.575 -0.5752 -0.3742  1.0335
  510MOL0     H68822  14.599  10.164   7.629  0.6332  0.2528 -0.7804
  510MOL0     H68823  14.648  10.222   7.780  0.7044 -3.6153 -0.5088
  510MOL0     H68824  14.753  10.278   7.502 -0.8308 -0.6911  0.0189
  510MOL0     H68825  14.792  10.401   7.610 -1.4652 -0.1175 -1.3213
  510MOL0     H68826  14.857  10.103   7.649 -4.3870  0.6647 -0.3078
  510MOL0     H68827  14.895  10.228   7.769 -0.1127 -0.3043  0.2348
  510MOL0     H68828  15.061  10.157   7.595 -3.4264 -1.7205  1.0883
  510MOL0     H68829  14.974  10.250   7.472  0.5690 -3.5756 -0.8625
  510MOL0     H68830  13.949  10.285   7.705  2.6163  1.7818 -1.9281
  510MOL0     H68831  13.702  10.257   7.702 -0.2088 -0.2540 -0.9063
  510MOL0     H68832  13.254  10.466   7.969 -1.6093  1.0697  0.6998
  510MOL0     H68833  13.031  10.466   7.935 -0.9600 -1.4778 -0.5192
  510MOL0     H68834  11.788   9.949   6.644 -1.0187 -1.2342  0.8122
  510MOL0     H68835  11.618   9.957   6.437 -1.7261 -0.3564 -1.0118
  510MOL0     H68836  11.320   9.785   6.202  1.3087  1.2284  1.9191
  510MOL0     H68837  11.173   9.813   6.002  0.8355  1.7790 -0.1456
  510MOL0     H68838  10.937  10.134   5.981  1.0510 -1.1958 -2.0045
  510MOL0     H68839  10.793  10.074   6.067  0.3848  2.1331 -0.1474
  510MOL0     H68840  10.755  10.153   5.809 -1.0119  0.8214  0.5090
  510MOL0     H68841  10.698   9.993   5.840  2.2376 -2.2489  0.5560
  510MOL0     H68842  10.890   9.898   5.738 -1.2468 -0.0346  0.9271
  510MOL0     H68843  10.995  10.031   5.778  0.9120 -1.6604  0.1641
  510MOL0     H68844  10.903  10.174   5.617 -0.5820 -0.1641  0.5271
  510MOL0     H68845  10.990  10.033   5.563 -0.7887  0.9279 -2.6291
  510MOL0     H68846  10.661   9.970   5.329 -1.5722  2.9008 -0.4883
  510MOL0     H68847  10.880  10.008   6.257 -0.6736  0.0801 -0.5298
  510MOL0     H68848  11.061  10.107   6.508  0.3693 -0.3455 -1.0256
  510MOL0     H68849  10.900  10.036   6.466  0.8049  1.4615 -1.0086
  510MOL0     H68850  11.017   9.949   6.570 -1.4592  0.8482  1.4662
  511MOL0     O68851   3.064   9.199   7.624  0.6847 -0.1581  0.3081
  511MOL0     C68852   3.013   9.301   7.590  0.1579  0.0865  0.1623
  511MOL0     O68853   3.059   9.394   7.507  0.3842  0.3939  0.8959
  511MOL0     C68854   3.187   9.406   7.462  0.0477 -0.1568  0.2005
  511MOL0     C68855   3.258   9.305   7.391  0.4821  0.0976 -0.1007
  511MOL0     C68856   3.387   9.324   7.339 -0.4326 -0.0696  0.0886
  511MOL0     C68857   3.464   9.438   7.379  0.1245 -0.1322  0.2137
  511MOL0     O68858   3.597   9.436   7.342 -0.6898  0.3139  0.2444
  511MOL0     C68859   3.692   9.523   7.413  0.1929  0.0312 -0.1662
  511MOL0     C68860   3.833   9.464   7.428 -0.0218  0.1675  0.0319
  511MOL0     C68861   3.955   9.570   7.432 -0.1632 -0.2440 -0.2663
  511MOL0     C68862   4.096   9.498   7.416 -0.6613  0.8328  0.6849
  511MOL0     C68863   4.145   9.479   7.268 -0.1294 -0.0215  0.0875
  511MOL0     C68864   4.287   9.414   7.238  0.2238  0.2848 -0.3991
  511MOL0     C68865   4.325   9.401   7.090  0.5905 -0.7687  0.2307
  511MOL0     C68866   4.441   9.313   7.051 -0.7791  0.6201  0.0700
  511MOL0     N68867   4.574   9.373   7.084  0.2518  0.3415  0.0721
  511MOL0     C68868   4.657   9.348   7.191  0.0517 -0.2889  0.3852
  511MOL0     C68869   4.762   9.440   7.171  0.0631  0.0681  0.1810
  511MOL0     C68870   4.871   9.463   7.269 -0.7593 -0.1584  0.4223
  511MOL0     C68871   5.005   9.426   7.202  0.2586  0.1680 -0.1166
  511MOL0     C68872   5.020   9.269   7.184 -0.4709 -0.0100  0.3728
  511MOL0     C68873   5.158   9.242   7.121  1.4181  0.0120 -0.2534
  511MOL0     O68874   5.254   9.299   7.206 -0.0144 -0.6526  0.1365
  511MOL0     C68875   5.389   9.253   7.199  0.4755  0.1684 -0.3499
  511MOL0     C68876   5.427   9.165   7.101 -0.3000 -0.3128  0.0231
  511MOL0     C68877   5.563   9.118   7.096  0.6017  0.3218  1.0888
  511MOL0     C68878   5.660   9.159   7.190 -0.1831 -1.2367 -0.1214
  511MOL0     C68879   5.798   9.116   7.186 -0.4824 -0.2996 -0.5307
  511MOL0     O68880   5.835   9.029   7.087  0.2701  0.2251  0.4719
  511MOL0     C68881   5.958   8.963   7.079  0.1141  0.4964 -0.4609
  511MOL0     C68882   6.050   8.932   7.179 -0.5588  0.3536 -1.1121
  511MOL0     C68883   6.169   8.870   7.153 -0.3736 -0.2192 -0.4978
  511MOL0     C68884   6.198   8.829   7.022  0.2170 -0.8681 -0.1592
  511MOL0     O68885   6.319   8.768   6.989 -0.1690 -0.2215 -0.6298
  511MOL0     C68886   6.434   8.728   7.082 -0.4481  0.6009  0.7482
  511MOL0     C68887   6.542   8.658   7.000 -0.2555 -0.2877  0.1648
  511MOL0     C68888   6.684   8.665   7.064 -0.5526 -0.0035 -0.0044
  511MOL0     C68889   6.787   8.560   7.001 -0.2544  0.4212 -0.1828
  511MOL0     C68890   6.929   8.585   7.046 -0.1099  0.0812 -0.1519
  511MOL0     C68891   7.018   8.514   6.951 -1.1207  1.3126 -0.1926
  511MOL0     C68892   7.148   8.601   6.923  0.2007  0.5546  0.2852
  511MOL0     C68893   7.254   8.589   7.040 -0.3310 -0.3321 -0.1861
  511MOL0    Cl68894   7.351   8.743   7.053 -0.3348 -0.0750 -0.1061
  511MOL0     C68895   6.108   8.858   6.919  0.2508 -0.1714  1.0708
  511MOL0     C68896   5.984   8.922   6.947 -0.7357 -0.4044 -0.4264
  511MOL0     O68897   5.879   9.167   7.266  0.3933  0.4976 -0.3675
  511MOL0     C68898   5.617   9.250   7.285  0.1833  0.3418  0.5341
  511MOL0     C68899   5.484   9.295   7.288  0.1717 -0.9731 -0.7117
  511MOL0     N68900   4.727   9.518   7.062 -0.5069  0.5162  0.3973
  511MOL0     N68901   4.624   9.470   7.010  0.1452 -0.6670  0.3093
  511MOL0     C68902   3.387   9.545   7.434 -0.7069 -0.1463 -1.3968
  511MOL0     C68903   3.256   9.530   7.489  0.3589  0.8332 -0.4287
  511MOL0     C68904   2.871   9.318   7.638  0.3574 -0.1811 -0.7856
  511MOL0     C68905   2.789   9.208   7.656  0.6157 -0.0189  0.7203
  511MOL0     C68906   2.650   9.229   7.669  0.1656  0.5888  0.1308
  511MOL0     C68907   2.599   9.360   7.679  0.7341  0.2588 -0.7761
  511MOL0     O68908   2.467   9.392   7.688  0.1360  0.0662 -0.7681
  511MOL0     C68909   2.379   9.301   7.631  0.6378 -0.4989 -0.2650
  511MOL0     C68910   2.235   9.356   7.632 -1.1537  0.0429 -0.0992
  511MOL0     C68911   2.129   9.275   7.563 -0.3033 -0.2312 -0.1279
  511MOL0     C68912   2.138   9.273   7.412  0.7770 -0.0635 -0.1753
  511MOL0     C68913   2.091   9.394   7.346  0.7183 -0.2846  0.1345
  511MOL0     C68914   2.052   9.490   7.280 -0.3502  0.2444 -0.4841
  511MOL0     C68915   2.689   9.465   7.691 -0.9617  0.1668 -0.8085
  511MOL0     C68916   2.826   9.446   7.665 -0.1416  0.4131 -0.7427
  511MOL0     C68917   2.920   9.569   7.656 -0.0425 -0.1426  0.8031
  511MOL0     H68918   3.204   9.212   7.371  0.4785 -0.7567  3.2513
  511MOL0     H68919   3.440   9.251   7.278 -1.9425  0.2555 -1.6915
  511MOL0     H68920   3.690   9.619   7.361  0.9229 -0.2605 -0.7555
  511MOL0     H68921   3.659   9.540   7.515 -0.3581 -1.0303 -0.1502
  511MOL0     H68922   3.849   9.383   7.356  0.0599 -0.5111  0.7985
  511MOL0     H68923   3.817   9.415   7.524 -3.1703 -2.5116 -1.6502
  511MOL0     H68924   3.934   9.611   7.532 -1.1542 -3.4181  0.9471
  511MOL0     H68925   3.951   9.648   7.356  0.4726  1.4359  1.3388
  511MOL0     H68926   4.160   9.559   7.479 -0.9324  0.7566  1.0404
  511MOL0     H68927   4.091   9.397   7.459  0.5801 -0.0435 -1.1109
  511MOL0     H68928   4.080   9.402   7.227  0.0144  0.1404 -0.4577
  511MOL0     H68929   4.129   9.565   7.203  1.6207  1.2238  1.2097
  511MOL0     H68930   4.366   9.473   7.285  2.0693 -1.7373 -0.8342
  511MOL0     H68931   4.276   9.313   7.277 -2.9634  0.2759 -1.0725
  511MOL0     H68932   4.316   9.496   7.036  0.1208 -1.7170 -1.4613
  511MOL0     H68933   4.239   9.346   7.050 -1.8779  3.8874 -1.7283
  511MOL0     H68934   4.432   9.214   7.097 -1.3332  0.7911  0.3242
  511MOL0     H68935   4.438   9.296   6.943  2.6903  2.4433 -0.4697
  511MOL0     H68936   4.639   9.276   7.271 -3.3445  1.6924  1.5871
  511MOL0     H68937   4.877   9.565   7.308  0.8402  0.0473 -0.2798
  511MOL0     H68938   4.858   9.399   7.357  0.5416  2.3275  2.5698
  511MOL0     H68939   5.009   9.470   7.102 -0.7609  0.5576  0.0104
  511MOL0     H68940   5.087   9.469   7.261  0.1076  1.0933 -0.5571
  511MOL0     H68941   4.956   9.221   7.109  2.3441 -2.6809 -0.4998
  511MOL0     H68942   5.020   9.212   7.278  1.2212 -0.2500  0.2558
  511MOL0     H68943   5.156   9.288   7.021  2.2179 -0.3851 -0.4652
  511MOL0     H68944   5.173   9.137   7.095 -0.4383 -0.2364 -0.3913
  511MOL0     H68945   5.366   9.108   7.032 -3.3823  0.1008  2.1538
  511MOL0     H68946   5.582   9.050   7.014 -1.5660  1.6634 -0.6356
  511MOL0     H68947   6.039   8.969   7.280 -0.8380  0.2011 -1.0855
  511MOL0     H68948   6.257   8.858   7.215 -0.6760 -1.5399 -0.2942
  511MOL0     H68949   6.476   8.821   7.121 -0.6740  1.2150 -0.4442
  511MOL0     H68950   6.409   8.666   7.169  0.3625 -0.7645  0.0402
  511MOL0     H68951   6.499   8.564   6.965 -0.0427  0.3688 -2.0492
  511MOL0     H68952   6.554   8.713   6.906 -3.1613 -1.1626 -0.8281
  511MOL0     H68953   6.728   8.765   7.064  1.7987 -0.9361 -2.3361
  511MOL0     H68954   6.665   8.635   7.167 -0.2173 -1.5473 -0.3626
  511MOL0     H68955   6.770   8.566   6.893 -0.9173 -0.5048 -0.1411
  511MOL0     H68956   6.753   8.466   7.044 -0.8648  0.7505  0.0745
  511MOL0     H68957   6.943   8.563   7.152  0.9692 -0.2213 -0.3491
  511MOL0     H68958   6.953   8.692   7.034  0.5426 -0.2163 -1.9009
  511MOL0     H68959   7.037   8.412   6.986 -5.0146  0.3524 -0.4531
  511MOL0     H68960   6.968   8.503   6.854 -2.1782 -2.4436  0.6231
  511MOL0     H68961   7.124   8.707   6.908  0.4098  0.1860 -3.7557
  511MOL0     H68962   7.195   8.573   6.829 -0.3647  0.9968 -0.1401
  511MOL0     H68963   7.192   8.583   7.131 -0.7959  1.2282 -0.3696
  511MOL0     H68964   7.319   8.502   7.031  0.5076 -0.3573  3.9099
  511MOL0     H68965   6.138   8.820   6.822 -0.3428 -0.5619  1.0333
  511MOL0     H68966   5.910   8.936   6.869 -3.5265 -0.1412  2.1093
  511MOL0     H68967   5.696   9.295   7.344 -0.4884  1.2416  0.7777
  511MOL0     H68968   5.449   9.365   7.363  0.3324  1.2387 -2.6204
  511MOL0     H68969   3.435   9.637   7.464 -1.7207  0.9021 -2.8319
  511MOL0     H68970   3.202   9.613   7.535  2.1068  1.5800  0.3376
  511MOL0     H68971   2.807   9.104   7.631 -1.2385 -0.0033 -0.9873
  511MOL0     H68972   2.580   9.147   7.670  2.2798 -1.3225  1.8365
  511MOL0     H68973   2.371   9.210   7.691 -1.7249 -0.2354 -0.0857
  511MOL0     H68974   2.416   9.265   7.535  0.9848  2.8425 -1.4987
  511MOL0     H68975   2.240   9.444   7.568 -2.9983 -0.9985 -1.8088
  511MOL0     H68976   2.203   9.377   7.735 -3.8556 -1.6536 -0.5094
  511MOL0     H68977   2.033   9.318   7.593 -0.7898 -1.1351 -0.3648
  511MOL0     H68978   2.121   9.180   7.616 -0.2919 -0.2975 -0.2442
  511MOL0     H68979   2.242   9.254   7.385  0.6138  1.2624 -1.9436
  511MOL0     H68980   2.071   9.193   7.379  0.4551 -0.5520  1.5513
  511MOL0     H68981   2.013   9.565   7.214 -1.3873 -0.8866 -1.2012
  511MOL0     H68982   2.650   9.560   7.724  0.3312 -0.0052  1.4418
  511MOL0     H68983   3.009   9.556   7.719 -0.7055 -2.0218  1.4251
  511MOL0     H68984   2.943   9.597   7.553  0.3951 -2.7262  0.1172
  511MOL0     H68985   2.869   9.654   7.703  1.5022  1.8086 -0.8784
  512MOL0     O68986   7.430   5.260  10.743 -0.4140 -0.6921  0.8474
  512MOL0     C68987   7.390   5.264  10.629 -0.5165  0.1511  0.3226
  512MOL0     O68988   7.467   5.308  10.533  0.6236  0.0849 -0.1034
  512MOL0     C68989   7.599   5.333  10.547 -0.8669 -0.7278 -0.1413
  512MOL0     C68990   7.689   5.243  10.597  0.3464  0.5138  0.3327
  512MOL0     C68991   7.824   5.280  10.613 -0.5725  0.1352  0.3942
  512MOL0     C68992   7.866   5.406  10.574  0.0463  0.1862  0.1873
  512MOL0     O68993   7.999   5.441  10.570 -0.4874  0.7098  0.1033
  512MOL0     C68994   8.106   5.365  10.620 -0.0111 -0.0066  0.4589
  512MOL0     C68995   8.233   5.446  10.588  0.7521 -0.0510 -0.8757
  512MOL0     C68996   8.355   5.417  10.685 -0.3467  0.2218 -0.0962
  512MOL0     C68997   8.429   5.285  10.663 -0.6533 -0.1777 -0.4739
  512MOL0     C68998   8.557   5.287  10.751  0.0861  0.0281  0.6644
  512MOL0     C68999   8.636   5.158  10.762  0.2555  0.3745  0.1691
  512MOL0     C69000   8.752   5.169  10.864 -0.2120 -0.9042  0.9653
  512MOL0     C69001   8.867   5.062  10.854  0.0859 -0.8276  0.7863
  512MOL0     N69002   8.960   5.097  10.742  0.0799  0.1425 -0.0077
  512MOL0     C69003   9.070   5.179  10.736  0.4008  0.6632  0.1816
  512MOL0     C69004   9.115   5.176  10.612  0.1159 -0.6366  1.3543
  512MOL0     C69005   9.234   5.258  10.554  0.0012  1.0803 -1.2553
  512MOL0     C69006   9.362   5.168  10.554 -0.1715 -0.5348 -0.5784
  512MOL0     C69007   9.391   5.105  10.692 -1.1799  0.2448 -0.0390
  512MOL0     C69008   9.523   5.025  10.702 -0.2249 -0.5928  0.7975
  512MOL0     O69009   9.630   5.123  10.710  0.1069 -0.3333 -0.2767
  512MOL0     C69010   9.734   5.101  10.801  0.0131 -0.0973  0.4255
  512MOL0     C69011   9.786   4.978  10.834  0.0177 -0.4990  0.8237
  512MOL0     C69012   9.889   4.965  10.920  0.0183  0.3968  0.9694
  512MOL0     C69013   9.955   5.072  10.980  1.1994 -0.0777 -0.1590
  512MOL0     C69014  10.052   5.045  11.088  0.1387 -0.2355 -0.0794
  512MOL0     O69015  10.115   4.923  11.074 -0.3824  0.5682 -0.4372
  512MOL0     C69016  10.191   4.875  11.176 -0.6584 -0.3241 -1.1842
  512MOL0     C69017  10.147   4.767  11.241 -0.1085  0.8933 -0.1473
  512MOL0     C69018  10.225   4.696  11.331 -0.1656  0.4586 -0.0183
  512MOL0     C69019  10.357   4.750  11.356  0.6781  1.4677 -1.0869
  512MOL0     O69020  10.428   4.677  11.457 -0.3434 -0.2774  0.4594
  512MOL0     C69021  10.547   4.620  11.408 -0.1756 -0.2023 -0.5227
  512MOL0     C69022  10.675   4.671  11.493  1.0860  0.5923  0.3177
  512MOL0     C69023  10.803   4.589  11.455  0.3680  0.5051 -0.4067
  512MOL0     C69024  10.909   4.619  11.553  0.4683 -0.1750  0.4930
  512MOL0     C69025  11.042   4.547  11.525  0.1953 -0.5916  0.7099
  512MOL0     C69026  11.123   4.544  11.656 -0.3342 -0.0613  0.6377
  512MOL0     C69027  11.269   4.500  11.641 -0.1480 -0.0590  0.5893
  512MOL0     C69028  11.364   4.549  11.748  0.6378 -0.4183 -0.6981
  512MOL0    Cl69029  11.357   4.721  11.761 -0.3531 -0.6371  0.4531
  512MOL0     C69030  10.402   4.869  11.301 -0.2734  0.3299 -0.5992
  512MOL0     C69031  10.319   4.927  11.202 -0.5782  0.0681  0.3066
  512MOL0     O69032  10.081   5.138  11.169  0.0361  0.2651  0.7410
  512MOL0     C69033   9.907   5.199  10.943  0.9836 -0.1826 -0.2924
  512MOL0     C69034   9.804   5.208  10.853  0.0562  0.9043  0.4313
  512MOL0     N69035   9.026   5.092  10.542  0.3956  0.6974 -0.3534
  512MOL0     N69036   8.932   5.052  10.613 -0.0289 -0.1012 -0.1538
  512MOL0     C69037   7.774   5.499  10.536  0.2034 -0.2932 -0.4753
  512MOL0     C69038   7.636   5.474  10.530 -0.3772 -0.3646  0.2929
  512MOL0     C69039   7.259   5.208  10.586 -0.8595  0.5860 -1.0017
  512MOL0     C69040   7.251   5.142  10.463 -1.1613 -0.1998  0.7266
  512MOL0     C69041   7.132   5.090  10.421 -0.2504 -0.1526  0.4471
  512MOL0     C69042   7.014   5.101  10.496 -0.0213 -0.7483  1.4454
  512MOL0     O69043   6.904   5.034  10.445 -0.2953  0.0722  0.1007
  512MOL0     C69044   6.791   5.049  10.521 -0.6329  0.4294 -0.1585
  512MOL0     C69045   6.671   5.018  10.430 -0.3214  0.2263  1.1942
  512MOL0     C69046   6.552   5.076  10.505  0.0326 -0.7304  0.9917
  512MOL0     C69047   6.421   5.041  10.434  0.2728  0.1737 -0.5109
  512MOL0     C69048   6.307   5.124  10.467 -0.6444 -0.2902 -0.0022
  512MOL0     C69049   6.213   5.197  10.483 -0.2981  0.2371 -1.0414
  512MOL0     C69050   7.021   5.179  10.607 -0.7935 -0.8934 -0.0082
  512MOL0     C69051   7.145   5.222  10.663 -1.2357  0.4080  0.2369
  512MOL0     C69052   7.127   5.295  10.796  0.3889 -0.0134 -0.2976
  512MOL0     H69053   7.660   5.139  10.612  2.1169  0.2702  2.4682
  512MOL0     H69054   7.899   5.203  10.628 -0.6120 -0.1961 -0.9835
  512MOL0     H69055   8.118   5.352  10.728  0.8405 -4.1486  0.0497
  512MOL0     H69056   8.114   5.271  10.565 -2.2437 -0.0500  0.1232
  512MOL0     H69057   8.210   5.553  10.597  2.0506  0.0485  3.3821
  512MOL0     H69058   8.269   5.432  10.485  1.1533  0.0248 -0.7476
  512MOL0     H69059   8.324   5.429  10.789 -0.4138 -2.4202  0.2675
  512MOL0     H69060   8.429   5.497  10.672  0.1652 -0.3064 -0.4709
  512MOL0     H69061   8.372   5.195  10.689 -1.3497 -0.2208 -1.9805
  512MOL0     H69062   8.456   5.273  10.557  1.0737 -3.6228  0.2102
  512MOL0     H69063   8.629   5.361  10.714  1.8840 -1.9716 -0.0253
  512MOL0     H69064   8.527   5.324  10.850 -0.5796  1.7131 -0.1214
  512MOL0     H69065   8.563   5.080  10.788  0.0062 -0.6993 -3.2619
  512MOL0     H69066   8.676   5.136  10.662 -0.7269  1.1593 -0.4166
  512MOL0     H69067   8.720   5.178  10.969 -0.5299 -2.0277  0.9844
  512MOL0     H69068   8.796   5.268  10.849 -2.5888  0.3431  1.8239
  512MOL0     H69069   8.931   5.066  10.943  1.0747 -0.9561  0.0910
  512MOL0     H69070   8.820   4.964  10.842  0.7327 -1.1837  1.1306
  512MOL0     H69071   9.119   5.232  10.817  2.6924  0.7091 -1.1543
  512MOL0     H69072   9.206   5.299  10.457 -0.5917  3.9104 -0.0031
  512MOL0     H69073   9.254   5.344  10.619  1.7496 -0.6869  0.7172
  512MOL0     H69074   9.338   5.087  10.485 -0.9420  1.0285 -2.2505
  512MOL0     H69075   9.453   5.218  10.519  0.4727 -1.0485  0.3291
  512MOL0     H69076   9.311   5.037  10.724 -1.9522  1.0282 -0.2630
  512MOL0     H69077   9.415   5.174  10.774  1.0888 -2.9226  2.2131
  512MOL0     H69078   9.542   4.956  10.619  0.6857 -0.6443  1.0274
  512MOL0     H69079   9.523   4.964  10.794  1.7790 -1.4458  0.2972
  512MOL0     H69080   9.744   4.883  10.801  2.3050 -1.6315  0.8997
  512MOL0     H69081   9.915   4.862  10.946 -1.0664  0.6132  3.0860
  512MOL0     H69082  10.052   4.727  11.207  0.8506 -0.7519 -1.0328
  512MOL0     H69083  10.192   4.601  11.373 -0.1248 -1.4752 -3.9024
  512MOL0     H69084  10.535   4.512  11.420 -0.8637  0.0837  2.0837
  512MOL0     H69085  10.563   4.634  11.301 -1.2950 -0.5948 -0.7492
  512MOL0     H69086  10.694   4.775  11.466 -0.6354  0.3817 -2.0740
  512MOL0     H69087  10.646   4.673  11.599 -0.6427  2.0322 -0.1368
  512MOL0     H69088  10.778   4.483  11.442 -0.2340  0.8004 -1.8748
  512MOL0     H69089  10.828   4.629  11.357  1.7235  2.2105  0.5861
  512MOL0     H69090  10.881   4.589  11.654  0.8636 -0.6210  0.4759
  512MOL0     H69091  10.924   4.727  11.563 -1.3770 -0.0213  2.2221
  512MOL0     H69092  11.090   4.583  11.433 -3.0405 -0.4676 -1.1053
  512MOL0     H69093  11.011   4.447  11.494 -0.1952 -0.0733 -0.6577
  512MOL0     H69094  11.126   4.645  11.698 -0.3949  0.9209 -1.5520
  512MOL0     H69095  11.070   4.484  11.730 -0.3134 -0.0156  0.6904
  512MOL0     H69096  11.294   4.540  11.542 -1.4187  2.1740  1.0876
  512MOL0     H69097  11.284   4.392  11.645 -0.8687 -0.1384  2.6816
  512MOL0     H69098  11.337   4.505  11.844  0.3354  0.5883 -0.3139
  512MOL0     H69099  11.469   4.520  11.733  1.7068  0.9386  3.0706
  512MOL0     H69100  10.501   4.911  11.314 -0.3707  0.2343  0.5223
  512MOL0     H69101  10.356   5.010  11.142  0.7290 -0.8697 -0.2342
  512MOL0     H69102   9.945   5.289  10.989 -4.3159  2.6218 -0.6339
  512MOL0     H69103   9.766   5.303  10.818  0.1737  0.3484 -1.3186
  512MOL0     H69104   7.812   5.597  10.512  0.0925  0.2555  1.4493
  512MOL0     H69105   7.551   5.540  10.510 -2.0435 -1.6142  2.8073
  512MOL0     H69106   7.337   5.137  10.396 -2.1557 -1.6374 -0.5255
  512MOL0     H69107   7.144   5.048  10.322  4.0605  0.2225  0.6268
  512MOL0     H69108   6.784   5.153  10.554 -2.1628  0.8637 -1.6779
  512MOL0     H69109   6.794   4.976  10.602 -1.2501  0.8180  0.2232
  512MOL0     H69110   6.652   4.915  10.398 -0.4610  0.8696 -0.9291
  512MOL0     H69111   6.691   5.074  10.338  1.3953 -2.1808 -0.0050
  512MOL0     H69112   6.555   5.185  10.505 -3.4290 -0.2577 -4.4798
  512MOL0     H69113   6.546   5.046  10.610 -1.3567 -1.4833  0.7286
  512MOL0     H69114   6.426   5.046  10.325 -0.7938 -0.6557 -0.6129
  512MOL0     H69115   6.388   4.940  10.458  1.4103 -0.1827 -0.3831
  512MOL0     H69116   6.136   5.269  10.502 -1.1745 -0.4738 -1.7519
  512MOL0     H69117   6.933   5.199  10.667 -2.7329 -0.3891 -2.8154
  512MOL0     H69118   7.220   5.337  10.836  0.1459 -0.0643  0.3430
  512MOL0     H69119   7.054   5.376  10.792 -0.7596 -1.0576 -1.5376
  512MOL0     H69120   7.091   5.216  10.863 -3.1580  0.6926 -1.1668
  513MOL0     O69121   0.729   5.906   8.467  0.5051 -0.6103 -0.9726
  513MOL0     C69122   0.690   5.811   8.407 -0.1622 -0.8088 -0.0925
  513MOL0     O69123   0.772   5.728   8.335 -0.5570  0.2447  0.0213
  513MOL0     C69124   0.908   5.754   8.317 -0.5669  0.7876  0.2217
  513MOL0     C69125   0.970   5.724   8.187  0.0477 -0.6966  0.5467
  513MOL0     C69126   1.106   5.748   8.158  0.0266 -0.0454 -0.9592
  513MOL0     C69127   1.194   5.797   8.261  0.1667  0.5696  0.8711
  513MOL0     O69128   1.330   5.818   8.251  0.2955 -0.5359  0.2958
  513MOL0     C69129   1.386   5.742   8.139  0.2811 -0.8379 -0.7368
  513MOL0     C69130   1.536   5.778   8.130 -0.1178 -0.2442 -0.2987
  513MOL0     C69131   1.600   5.696   8.016  0.0555  0.1792 -0.5402
  513MOL0     C69132   1.747   5.739   8.000  0.0555 -0.8171 -0.4035
  513MOL0     C69133   1.808   5.686   7.864  0.3259 -0.2988 -0.4590
  513MOL0     C69134   1.961   5.684   7.891 -0.5899  1.1416 -0.3712
  513MOL0     C69135   2.048   5.664   7.769 -0.2582  1.5229  0.1845
  513MOL0     C69136   2.027   5.521   7.696  0.1392  0.8168 -0.1427
  513MOL0     N69137   2.141   5.491   7.607 -0.1363 -0.7479  0.7862
  513MOL0     C69138   2.187   5.367   7.557  0.8009  0.4696  0.4535
  513MOL0     C69139   2.295   5.401   7.478 -0.5120 -0.0873 -0.4492
  513MOL0     C69140   2.382   5.308   7.402 -0.3776  1.2674  0.5147
  513MOL0     C69141   2.298   5.222   7.300  0.2341  0.0139 -0.6825
  513MOL0     C69142   2.386   5.123   7.233  0.7386 -0.0754 -0.5905
  513MOL0     C69143   2.498   5.180   7.144  0.2039 -0.0466  0.1780
  513MOL0     O69144   2.568   5.070   7.084  0.2040 -0.4562 -0.0369
  513MOL0     C69145   2.692   5.098   7.047 -0.5892  0.3540 -0.5218
  513MOL0     C69146   2.752   5.222   7.055  0.1660  0.1010  0.4401
  513MOL0     C69147   2.873   5.240   6.999 -0.3946  0.1886  0.0346
  513MOL0     C69148   2.952   5.134   6.956 -0.6387  0.2851  0.1734
  513MOL0     C69149   3.090   5.146   6.925  0.6662 -0.0654 -1.1452
  513MOL0     O69150   3.125   5.267   6.873 -0.7312  0.1668  0.2004
  513MOL0     C69151   3.260   5.290   6.857 -0.1073 -0.8593 -0.5758
  513MOL0     C69152   3.355   5.292   6.964 -0.0576  0.5862  0.5074
  513MOL0     C69153   3.492   5.294   6.923  0.1861 -0.3392 -0.2863
  513MOL0     C69154   3.528   5.318   6.791 -0.2715  0.5231 -0.7432
  513MOL0     O69155   3.659   5.314   6.756 -0.3680  0.7475 -0.0965
  513MOL0     C69156   3.748   5.404   6.830  0.3912 -0.9717 -0.4239
  513MOL0     C69157   3.886   5.393   6.760 -0.2095 -1.2083 -0.1752
  513MOL0     C69158   3.997   5.470   6.835 -0.6135  0.2829  0.4798
  513MOL0     C69159   4.017   5.422   6.981 -0.2515 -0.5220  0.2864
  513MOL0     C69160   4.135   5.507   7.040 -0.9468 -0.5185  0.2860
  513MOL0     C69161   4.208   5.433   7.154 -0.4123  0.1562  0.1530
  513MOL0     C69162   4.318   5.527   7.212  0.5851 -0.6473  0.3550
  513MOL0     C69163   4.340   5.518   7.360 -0.3603 -0.6745 -0.1684
  513MOL0    Cl69164   4.484   5.424   7.388  0.3730 -0.1374  0.6895
  513MOL0     C69165   3.438   5.315   6.688 -0.6317  0.1091 -1.0534
  513MOL0     C69166   3.302   5.308   6.717  0.2751 -0.3613 -0.2948
  513MOL0     O69167   3.159   5.047   6.938 -0.1255  0.6759  0.5537
  513MOL0     C69168   2.893   5.002   6.959 -0.7260 -0.3779  0.1428
  513MOL0     C69169   2.767   4.988   7.001 -0.5504  0.4186  0.1648
  513MOL0     N69170   2.307   5.538   7.477 -0.4723  0.1897 -0.3820
  513MOL0     N69171   2.217   5.586   7.553 -0.2174  0.9534  0.0848
  513MOL0     C69172   1.135   5.826   8.389 -0.1917  0.8992  0.0612
  513MOL0     C69173   1.002   5.806   8.417 -0.1103  0.8557  0.4702
  513MOL0     C69174   0.546   5.770   8.406 -0.9267 -0.3580  0.6364
  513MOL0     C69175   0.502   5.680   8.310  0.1780  0.2726 -0.3188
  513MOL0     C69176   0.372   5.650   8.298 -0.4297  0.3973 -0.6028
  513MOL0     C69177   0.267   5.697   8.383 -1.3743 -0.2683  0.2843
  513MOL0     O69178   0.137   5.666   8.355  0.1242 -0.0907 -0.3442
  513MOL0     C69179   0.038   5.758   8.395  1.1548  0.5348 -0.2411
  513MOL0     C69180  -0.092   5.701   8.338  0.7231  0.3062  0.3471
  513MOL0     C69181  -0.099   5.681   8.183 -0.4369 -0.3787 -0.7666
  513MOL0     C69182  -0.252   5.709   8.129 -0.1647  0.4969 -0.1139
  513MOL0     C69183  -0.320   5.583   8.101  0.7518 -0.0019 -0.0271
  513MOL0     C69184  -0.377   5.476   8.073  0.0498  0.2293 -0.2472
  513MOL0     C69185   0.311   5.776   8.491 -0.1907  0.2617  0.9243
  513MOL0     C69186   0.448   5.814   8.505 -0.7046 -0.4273  0.1757
  513MOL0     C69187   0.494   5.879   8.631 -0.4720 -0.0220  1.5339
  513MOL0     H69188   0.904   5.686   8.110 -1.1682  1.2385  0.5453
  513MOL0     H69189   1.137   5.718   8.058 -0.5589 -2.5591 -0.4612
  513MOL0     H69190   1.366   5.635   8.147 -1.5850 -0.5941 -1.5829
  513MOL0     H69191   1.345   5.760   8.040 -1.8702 -1.3187  0.0035
  513MOL0     H69192   1.584   5.758   8.226  1.9795  0.8415 -1.0457
  513MOL0     H69193   1.540   5.886   8.117  1.7860 -0.2131  0.2631
  513MOL0     H69194   1.539   5.728   7.931 -2.4874  0.1460  1.1388
  513MOL0     H69195   1.582   5.589   8.027 -1.6245  0.4287 -0.5781
  513MOL0     H69196   1.769   5.846   7.995  2.7667 -1.3199 -4.4257
  513MOL0     H69197   1.798   5.699   8.088  2.7038  0.1721 -1.3957
  513MOL0     H69198   1.774   5.583   7.844 -3.3881  0.7013 -0.0848
  513MOL0     H69199   1.781   5.747   7.778 -1.8950 -1.0899 -0.4046
  513MOL0     H69200   1.990   5.786   7.920  2.7322 -0.1812  1.4703
  513MOL0     H69201   1.978   5.610   7.970 -1.4443  0.6439 -0.6446
  513MOL0     H69202   2.154   5.684   7.780  0.5847 -1.0845 -2.0527
  513MOL0     H69203   2.013   5.738   7.696  0.7897  1.4377 -0.4170
  513MOL0     H69204   2.016   5.438   7.766 -0.7759  0.3052 -0.8681
  513MOL0     H69205   1.933   5.525   7.640 -1.2029  0.3569  1.9641
  513MOL0     H69206   2.146   5.267   7.568  0.2621  0.5327 -0.8266
  513MOL0     H69207   2.464   5.364   7.355 -0.8713  0.2787 -1.6853
  513MOL0     H69208   2.418   5.246   7.484 -0.0029  0.0138 -0.5519
  513MOL0     H69209   2.217   5.175   7.357  0.5678  0.1156 -0.1126
  513MOL0     H69210   2.258   5.292   7.226  2.2146  0.1347 -1.7153
  513MOL0     H69211   2.320   5.058   7.176 -0.2603 -0.4324  0.9045
  513MOL0     H69212   2.437   5.056   7.304 -2.3510 -2.6328 -0.5904
  513MOL0     H69213   2.569   5.237   7.204 -1.5134  3.4703 -0.8277
  513MOL0     H69214   2.459   5.247   7.067 -3.2039 -1.1652  0.7543
  513MOL0     H69215   2.700   5.314   7.084  0.4077  0.0527  1.0465
  513MOL0     H69216   2.916   5.340   6.996  1.6270 -0.5128  2.0206
  513MOL0     H69217   3.314   5.294   7.064 -2.2786 -1.1050 -0.2840
  513MOL0     H69218   3.558   5.302   7.008 -1.5524 -0.7196  1.1519
  513MOL0     H69219   3.715   5.508   6.837  1.1351 -0.7696  0.2290
  513MOL0     H69220   3.772   5.365   6.929  2.2990  2.1440  0.4888
  513MOL0     H69221   3.903   5.286   6.745 -1.6088 -1.3348 -1.0055
  513MOL0     H69222   3.881   5.434   6.658 -1.6428  2.5322  1.2282
  513MOL0     H69223   4.087   5.470   6.774 -1.6555  2.9395 -1.2507
  513MOL0     H69224   3.962   5.573   6.845  0.4835  0.7251 -0.1321
  513MOL0     H69225   4.033   5.314   6.982 -0.9521 -0.6825 -1.5004
  513MOL0     H69226   3.933   5.447   7.047  2.2798  1.4655  3.0480
  513MOL0     H69227   4.090   5.600   7.075  2.1967  1.6653 -1.0710
  513MOL0     H69228   4.204   5.535   6.960 -0.8520  1.9640  1.1765
  513MOL0     H69229   4.140   5.407   7.235  1.7235  3.0240  3.1304
  513MOL0     H69230   4.261   5.342   7.122  1.6856  0.7615  1.6655
  513MOL0     H69231   4.293   5.631   7.189 -0.1980 -0.9465 -0.1873
  513MOL0     H69232   4.408   5.515   7.151 -1.2623 -0.0486 -2.7046
  513MOL0     H69233   4.348   5.620   7.399  2.0112  0.1446 -2.4877
  513MOL0     H69234   4.256   5.461   7.402 -0.9580 -0.2800 -0.8056
  513MOL0     H69235   3.472   5.332   6.586  2.1024  3.2091  0.1984
  513MOL0     H69236   3.231   5.315   6.636  1.4315 -0.2324 -1.3165
  513MOL0     H69237   2.950   4.920   6.916  2.6936  1.9462 -0.1524
  513MOL0     H69238   2.718   4.892   6.995  1.6457 -0.6655 -1.5606
  513MOL0     H69239   1.203   5.869   8.462  1.2106  1.1578 -1.3586
  513MOL0     H69240   0.961   5.814   8.517  0.1456 -3.0780  1.0461
  513MOL0     H69241   0.569   5.637   8.235 -0.3553 -0.3684 -0.4337
  513MOL0     H69242   0.346   5.574   8.225  0.4304 -1.1269  0.6306
  513MOL0     H69243   0.053   5.855   8.345  0.6423  0.4013 -0.6668
  513MOL0     H69244   0.044   5.754   8.504  2.4727 -1.8334 -0.3578
  513MOL0     H69245  -0.167   5.774   8.371  2.8712  2.7428  0.0942
  513MOL0     H69246  -0.107   5.602   8.382  0.6472 -1.1782 -2.7430
  513MOL0     H69247  -0.072   5.576   8.168 -0.9730 -0.4496 -1.2846
  513MOL0     H69248  -0.021   5.746   8.143  0.5510  1.1575  3.1765
  513MOL0     H69249  -0.307   5.780   8.191 -2.8847 -0.3578 -1.4052
  513MOL0     H69250  -0.243   5.761   8.032 -0.4197  1.1679  0.2167
  513MOL0     H69251  -0.422   5.382   8.046  2.4157 -0.6946 -1.2456
  513MOL0     H69252   0.250   5.825   8.566 -0.6874 -0.3186  0.9033
  513MOL0     H69253   0.446   5.834   8.718  0.1600 -1.3780  1.2028
  513MOL0     H69254   0.598   5.849   8.648  0.4840  0.0546 -2.8531
  513MOL0     H69255   0.479   5.987   8.641 -0.9001  0.3029 -1.5096
  514MOL0     O69256   8.053   3.532   1.991  0.0885 -1.3053 -0.2843
  514MOL0     C69257   7.972   3.618   1.969  0.1835 -0.4928  0.2487
  514MOL0     O69258   7.991   3.753   1.970  0.1223 -0.1346 -0.4226
  514MOL0     C69259   8.118   3.797   1.961 -0.1166  1.1361  0.2257
  514MOL0     C69260   8.170   3.870   1.852 -0.6399  0.2113  0.4837
  514MOL0     C69261   8.303   3.913   1.844  0.8915 -0.5623  0.3050
  514MOL0     C69262   8.388   3.906   1.960 -0.0706  0.2336  0.4303
  514MOL0     O69263   8.522   3.948   1.970  0.2549  0.1230 -0.0521
  514MOL0     C69264   8.578   4.014   1.856  0.6644  0.1296 -0.8536
  514MOL0     C69265   8.723   4.051   1.888  0.3080 -0.3437  0.0856
  514MOL0     C69266   8.812   3.935   1.875  0.4808 -0.2526  0.1035
  514MOL0     C69267   8.960   3.973   1.849  0.1537 -0.0742  0.5049
  514MOL0     C69268   9.071   3.857   1.828  0.2757 -0.9041 -0.1817
  514MOL0     C69269   9.005   3.723   1.777 -0.0325 -1.1596 -0.4440
  514MOL0     C69270   9.115   3.613   1.765  0.0301 -0.2699 -0.0371
  514MOL0     C69271   9.052   3.479   1.743  0.2440 -0.1039  0.0456
  514MOL0     N69272   8.985   3.447   1.614 -0.7606  0.2120  0.6957
  514MOL0     C69273   9.035   3.448   1.488 -0.4589  0.0016 -0.1542
  514MOL0     C69274   8.931   3.415   1.414  0.3857 -0.1265 -1.0681
  514MOL0     C69275   8.942   3.427   1.260 -0.3417 -0.1114  0.6448
  514MOL0     C69276   8.804   3.473   1.210  0.1136  0.0087  0.3826
  514MOL0     C69277   8.781   3.616   1.256  0.0462 -0.4325  0.0005
  514MOL0     C69278   8.666   3.684   1.192  0.1548 -0.3823  0.1440
  514MOL0     O69279   8.701   3.817   1.170  0.5589  0.0777 -0.2560
  514MOL0     C69280   8.604   3.898   1.113  0.2490 -0.0717 -0.0170
  514MOL0     C69281   8.645   4.002   1.035  0.4699  0.9796 -0.0950
  514MOL0     C69282   8.551   4.090   0.979 -0.6333  0.1206  0.7446
  514MOL0     C69283   8.414   4.068   0.995 -0.4078 -0.3544  0.3303
  514MOL0     C69284   8.321   4.161   0.944 -0.7075  0.2132 -0.2818
  514MOL0     O69285   8.188   4.105   0.933  0.6386  0.8129 -0.0907
  514MOL0     C69286   8.083   4.192   0.910 -0.5393  0.8445 -0.1412
  514MOL0     C69287   8.084   4.293   0.810  0.2550 -0.7426 -0.1015
  514MOL0     C69288   7.959   4.360   0.799 -0.2609 -0.3479  0.2896
  514MOL0     C69289   7.856   4.336   0.892  0.2952 -0.4374  0.7577
  514MOL0     O69290   7.733   4.393   0.865 -0.5530 -0.4943  0.0507
  514MOL0     C69291   7.672   4.367   0.733  1.1661 -0.3295  0.4186
  514MOL0     C69292   7.685   4.480   0.635 -0.1875  0.1422  0.8142
  514MOL0     C69293   7.631   4.611   0.694 -1.1065  0.2712 -0.1763
  514MOL0     C69294   7.638   4.727   0.589 -0.0820  0.3386  0.1518
  514MOL0     C69295   7.559   4.852   0.633 -0.5802  0.5078  0.5241
  514MOL0     C69296   7.598   4.976   0.547 -0.2001  0.2199 -0.5746
  514MOL0     C69297   7.530   5.101   0.598  1.0135 -0.0329 -0.7170
  514MOL0     C69298   7.582   5.230   0.535  0.1675 -0.0992 -0.7750
  514MOL0    Cl69299   7.753   5.254   0.582  0.0009 -0.3665  0.1138
  514MOL0     C69300   7.864   4.248   0.990 -0.3116  0.8052 -0.3853
  514MOL0     C69301   7.984   4.173   0.999 -0.3324  0.0764  0.5260
  514MOL0     O69302   8.361   4.271   0.905 -0.5604 -0.1747  0.2453
  514MOL0     C69303   8.374   3.961   1.076  0.7308  0.1919  0.2479
  514MOL0     C69304   8.470   3.879   1.132  0.0095  0.0165  1.5153
  514MOL0     N69305   8.819   3.393   1.497  1.0044  0.1823 -0.4423
  514MOL0     N69306   8.856   3.423   1.616 -0.0048 -0.2180  0.0484
  514MOL0     C69307   8.335   3.834   2.065  0.7806  0.0935 -0.6115
  514MOL0     C69308   8.207   3.782   2.072  0.7946 -0.1325 -0.3508
  514MOL0     C69309   7.834   3.567   1.968 -0.2245 -0.0919 -0.2930
  514MOL0     C69310   7.808   3.428   2.009  0.4521 -0.6930  0.4187
  514MOL0     C69311   7.677   3.367   1.995  0.1248  0.3733 -0.3875
  514MOL0     C69312   7.578   3.441   1.943  0.2340  0.2697  0.0513
  514MOL0     O69313   7.452   3.385   1.949  0.4044 -0.1562 -0.0581
  514MOL0     C69314   7.335   3.466   1.967  0.1375 -0.3195 -0.4540
  514MOL0     C69315   7.221   3.398   2.033 -0.8657  0.1965  0.5987
  514MOL0     C69316   7.182   3.270   1.953  0.1524 -0.0933 -1.8698
  514MOL0     C69317   7.042   3.215   2.002 -0.6508 -0.6906  0.7365
  514MOL0     C69318   7.053   3.165   2.136 -0.2679  0.1560 -0.1518
  514MOL0     C69319   7.043   3.124   2.247  0.3421 -0.4965 -0.0176
  514MOL0     C69320   7.597   3.571   1.901 -0.8016 -0.0868  0.6057
  514MOL0     C69321   7.727   3.637   1.909  0.7232 -0.2355  0.1490
  514MOL0     C69322   7.739   3.770   1.844  0.4056  0.2036  0.0002
  514MOL0     H69323   8.100   3.895   1.773  1.3607 -0.0171 -1.4875
  514MOL0     H69324   8.336   3.975   1.762  2.4962 -0.8890  0.6784
  514MOL0     H69325   8.582   3.959   1.762 -0.2772 -2.0450  0.3024
  514MOL0     H69326   8.523   4.106   1.837  0.2216  0.2278  0.8007
  514MOL0     H69327   8.719   4.085   1.992 -3.8524 -0.3303  0.0823
  514MOL0     H69328   8.757   4.137   1.829  0.7108 -0.5143  0.0709
  514MOL0     H69329   8.785   3.875   1.787 -1.2124 -1.9265  1.6801
  514MOL0     H69330   8.803   3.878   1.967 -4.0898 -1.9863 -1.1298
  514MOL0     H69331   8.961   4.048   1.770 -2.2512  0.2226  0.6808
  514MOL0     H69332   9.001   4.034   1.930 -1.2656  3.2475 -1.0849
  514MOL0     H69333   9.153   3.892   1.764  2.7443 -3.9048  1.0618
  514MOL0     H69334   9.111   3.848   1.930 -2.0259 -1.8081  0.6935
  514MOL0     H69335   8.927   3.690   1.845  1.3349 -2.0512  0.7430
  514MOL0     H69336   8.974   3.742   1.674 -2.5852 -1.8848  0.1412
  514MOL0     H69337   9.167   3.616   1.862 -0.1137  1.7526  0.0299
  514MOL0     H69338   9.188   3.643   1.689 -0.4110 -2.0667 -1.2144
  514MOL0     H69339   9.132   3.407   1.761  1.7848  1.3041 -0.9338
  514MOL0     H69340   8.980   3.474   1.825  2.9912 -1.1767  2.6007
  514MOL0     H69341   9.139   3.472   1.463  0.1186 -0.2307  1.8741
  514MOL0     H69342   9.028   3.476   1.215 -0.3705 -0.3122  0.3677
  514MOL0     H69343   8.957   3.323   1.229 -3.1190 -0.6318  0.8031
  514MOL0     H69344   8.791   3.465   1.102 -3.6957  1.8926  0.5266
  514MOL0     H69345   8.725   3.404   1.243 -0.4357  1.2651  1.8382
  514MOL0     H69346   8.870   3.679   1.246  0.1646 -0.6560 -0.3568
  514MOL0     H69347   8.766   3.608   1.365 -0.5440 -1.6906 -0.1498
  514MOL0     H69348   8.581   3.688   1.261 -1.6606 -2.0255 -1.8471
  514MOL0     H69349   8.634   3.631   1.102 -0.0337  0.2232 -0.1514
  514MOL0     H69350   8.752   4.008   1.016  0.5956  0.0554  0.2115
  514MOL0     H69351   8.587   4.159   0.903 -0.7595  0.6977  1.2032
  514MOL0     H69352   8.174   4.312   0.751 -0.2914  1.5404 -0.2754
  514MOL0     H69353   7.946   4.414   0.705  0.3529  1.7474  1.3486
  514MOL0     H69354   7.716   4.279   0.684 -1.8912 -1.5540 -0.3904
  514MOL0     H69355   7.566   4.339   0.737  0.5226  2.0370  2.2530
  514MOL0     H69356   7.789   4.492   0.604  0.1084  1.4217  2.2153
  514MOL0     H69357   7.621   4.453   0.550  1.9573  0.0485 -0.8700
  514MOL0     H69358   7.525   4.612   0.721 -2.0426  0.1277 -3.4287
  514MOL0     H69359   7.695   4.644   0.776 -2.0905 -1.9289  1.5826
  514MOL0     H69360   7.598   4.696   0.493 -0.4776 -0.1078  0.4541
  514MOL0     H69361   7.742   4.754   0.569  0.5752 -1.6041  0.7536
  514MOL0     H69362   7.559   4.868   0.741 -0.3877  1.9628  0.3194
  514MOL0     H69363   7.454   4.825   0.616  0.5706 -2.8177 -2.8451
  514MOL0     H69364   7.706   4.992   0.541  0.6615 -3.7799  0.7431
  514MOL0     H69365   7.573   4.955   0.443 -2.7991 -1.7147  0.3506
  514MOL0     H69366   7.544   5.103   0.706 -1.3601 -0.9363 -0.3248
  514MOL0     H69367   7.423   5.098   0.575  1.0875  0.7207 -1.1873
  514MOL0     H69368   7.558   5.227   0.428 -2.0178  0.5480 -0.3594
  514MOL0     H69369   7.522   5.312   0.576 -0.5260 -1.3924  0.8629
  514MOL0     H69370   7.784   4.227   1.060  0.4581  0.2925  0.3674
  514MOL0     H69371   8.001   4.108   1.085 -0.2312  1.3603  1.5123
  514MOL0     H69372   8.270   3.936   1.093  1.0652 -0.8060  0.8666
  514MOL0     H69373   8.437   3.799   1.198  3.3554 -2.3020  0.6242
  514MOL0     H69374   8.407   3.821   2.145  0.6976  1.2412 -0.3286
  514MOL0     H69375   8.179   3.719   2.155 -2.0400 -0.1218 -1.2115
  514MOL0     H69376   7.891   3.382   2.062 -1.1193 -0.4488  3.2854
  514MOL0     H69377   7.653   3.267   2.031  1.2008  0.0054 -0.6453
  514MOL0     H69378   7.301   3.513   1.874 -1.2159  0.7509  0.5374
  514MOL0     H69379   7.375   3.550   2.025  0.6495  0.4199 -1.8206
  514MOL0     H69380   7.145   3.477   2.036  1.3461  2.5377 -1.0557
  514MOL0     H69381   7.246   3.371   2.136 -2.2447  0.1582  0.9446
  514MOL0     H69382   7.263   3.198   1.957  1.6020  1.4577 -2.1947
  514MOL0     H69383   7.158   3.287   1.847  0.0994 -3.1225 -2.4308
  514MOL0     H69384   6.965   3.293   2.001 -2.2396 -2.1924  0.3649
  514MOL0     H69385   7.004   3.137   1.936  0.6470  0.6448 -1.7098
  514MOL0     H69386   7.030   3.102   2.351  1.2937  0.5521  0.3354
  514MOL0     H69387   7.516   3.622   1.852  1.1579  1.2853 -1.3866
  514MOL0     H69388   7.658   3.782   1.771  1.0348  1.3476 -0.5294
  514MOL0     H69389   7.732   3.855   1.912 -1.6350  0.6056 -0.6279
  514MOL0     H69390   7.831   3.769   1.786 -0.1012  0.7885 -0.8412
  515MOL0     O69391   9.026   8.399   5.424  0.7918  0.4137  0.2407
  515MOL0     C69392   8.989   8.325   5.514 -0.0142  0.2110  0.3785
  515MOL0     O69393   9.043   8.333   5.646  0.7458 -0.1768 -0.1936
  515MOL0     C69394   9.147   8.413   5.686  0.2508 -0.9221 -0.1302
  515MOL0     C69395   9.255   8.469   5.607  0.4757 -0.1186 -0.2600
  515MOL0     C69396   9.360   8.540   5.668 -0.3690  0.4059 -0.3285
  515MOL0     C69397   9.362   8.571   5.805  0.3876  0.1944  0.4596
  515MOL0     O69398   9.452   8.654   5.871  0.1133  0.0675  0.8310
  515MOL0     C69399   9.551   8.724   5.793 -0.2061  0.6221 -0.6900
  515MOL0     C69400   9.623   8.807   5.898 -0.6563  0.1938 -0.8072
  515MOL0     C69401   9.545   8.934   5.929  0.9924  0.0244  0.2226
  515MOL0     C69402   9.623   9.028   6.022 -0.6066 -0.1023 -0.1399
  515MOL0     C69403   9.749   9.097   5.961 -0.5809 -0.1831 -0.2538
  515MOL0     C69404   9.818   9.184   6.067 -0.6367  0.4990  0.5593
  515MOL0     C69405   9.954   9.249   6.025 -0.5728 -0.9251 -0.3115
  515MOL0     C69406   9.942   9.364   5.912  0.6637 -0.2977  0.4408
  515MOL0     N69407  10.071   9.368   5.844  0.2179 -0.1354 -0.1687
  515MOL0     C69408  10.182   9.440   5.888 -0.1757 -0.5708 -0.1891
  515MOL0     C69409  10.274   9.439   5.785  0.8447  0.3487 -0.0986
  515MOL0     C69410  10.415   9.486   5.779 -0.0168  0.6236 -0.3633
  515MOL0     C69411  10.429   9.628   5.823  0.0753 -0.2037 -0.1614
  515MOL0     C69412  10.576   9.684   5.814  0.2066 -0.9690  0.0069
  515MOL0     C69413  10.671   9.640   5.921  0.3875  0.7668 -0.5599
  515MOL0     O69414  10.644   9.704   6.048  0.0717 -0.2278 -0.1654
  515MOL0     C69415  10.738   9.681   6.151  0.3494  0.3999  0.4573
  515MOL0     C69416  10.860   9.617   6.134 -0.3727  0.7207 -0.8814
  515MOL0     C69417  10.946   9.595   6.246 -0.2194  0.0074 -0.5346
  515MOL0     C69418  10.907   9.636   6.373 -0.5991  0.4695 -0.5873
  515MOL0     C69419  11.000   9.620   6.490 -0.8338 -0.4483  0.4610
  515MOL0     O69420  10.959   9.638   6.619 -0.1731  0.6752 -0.1965
  515MOL0     C69421  11.049   9.617   6.714  0.7579  0.7683 -1.2026
  515MOL0     C69422  11.101   9.724   6.779 -0.6096 -0.3933 -0.6249
  515MOL0     C69423  11.191   9.710   6.881  0.1890 -0.3622 -0.8722
  515MOL0     C69424  11.245   9.584   6.919 -0.1007  0.1858 -0.4948
  515MOL0     O69425  11.349   9.579   7.007  1.1772  0.1079 -0.0728
  515MOL0     C69426  11.431   9.464   7.031  0.0053  0.4668 -0.0511
  515MOL0     C69427  11.563   9.492   7.097 -0.2180 -0.2358 -0.4149
  515MOL0     C69428  11.666   9.392   7.056 -0.6138  0.1520 -0.4919
  515MOL0     C69429  11.775   9.399   7.159 -0.0861  0.4440 -0.2903
  515MOL0     C69430  11.903   9.307   7.132  1.0689 -0.5304 -0.3336
  515MOL0     C69431  12.030   9.329   7.220 -0.5094  0.4989 -0.3371
  515MOL0     C69432  12.096   9.463   7.181 -0.2720  0.3784 -0.1336
  515MOL0     C69433  12.238   9.470   7.249 -0.5279  0.1210  0.2019
  515MOL0    Cl69434  12.227   9.519   7.425  0.1668 -0.0059  0.0888
  515MOL0     C69435  11.178   9.466   6.876  0.5389 -0.0302 -0.0815
  515MOL0     C69436  11.086   9.489   6.764  0.4660  0.4041 -0.1073
  515MOL0     O69437  11.120   9.598   6.459 -0.6354 -0.0904  0.1824
  515MOL0     C69438  10.781   9.690   6.388  0.5403  0.1023 -0.4290
  515MOL0     C69439  10.691   9.705   6.278 -0.6829 -0.2926 -0.0825
  515MOL0     N69440  10.211   9.370   5.681  0.7273  0.4972  0.1945
  515MOL0     N69441  10.094   9.333   5.714  0.5737 -0.3432 -0.1219
  515MOL0     C69442   9.262   8.508   5.883 -0.3123  0.3609  0.2559
  515MOL0     C69443   9.163   8.426   5.825  0.5415 -1.0024 -0.9458
  515MOL0     C69444   8.898   8.210   5.483  0.7604 -0.1633 -0.0661
  515MOL0     C69445   8.766   8.221   5.440  0.0346  0.6786 -0.5316
  515MOL0     C69446   8.693   8.102   5.413 -0.4976  0.4132  0.2816
  515MOL0     C69447   8.757   7.974   5.410 -0.2491 -0.4997 -0.7530
  515MOL0     O69448   8.700   7.869   5.351  0.2024 -0.0610 -0.3352
  515MOL0     C69449   8.580   7.884   5.272 -0.5424  0.8145 -0.5137
  515MOL0     C69450   8.451   7.863   5.361 -0.8665  0.9709 -0.4448
  515MOL0     C69451   8.316   7.868   5.286 -0.2569 -1.0268  0.1441
  515MOL0     C69452   8.276   8.016   5.272 -0.0177  0.3351 -0.4277
  515MOL0     C69453   8.155   8.032   5.196  0.8411 -0.5156  0.2216
  515MOL0     C69454   8.061   8.035   5.116 -0.0185 -0.8316 -0.4770
  515MOL0     C69455   8.883   7.973   5.446  0.4192  0.3805  0.7069
  515MOL0     C69456   8.951   8.084   5.494  0.0109  0.2915 -0.4745
  515MOL0     C69457   9.093   8.059   5.541  0.1647 -0.2459  1.3660
  515MOL0     H69458   9.246   8.452   5.500 -0.5507 -0.2422 -0.1640
  515MOL0     H69459   9.444   8.567   5.606  2.9095 -0.0580  3.5427
  515MOL0     H69460   9.617   8.644   5.758 -2.3713 -2.0291  0.8408
  515MOL0     H69461   9.513   8.776   5.705  1.0531  3.4835  0.3380
  515MOL0     H69462   9.728   8.816   5.867 -0.7480 -1.4148 -1.7297
  515MOL0     H69463   9.625   8.754   5.994  0.5986  0.7434 -0.5049
  515MOL0     H69464   9.450   8.906   5.977  1.4283  0.7535  1.5831
  515MOL0     H69465   9.531   8.984   5.833 -0.7869 -2.9440 -1.2164
  515MOL0     H69466   9.546   9.095   6.062 -1.8973 -3.1578  2.9965
  515MOL0     H69467   9.657   8.973   6.110 -1.1424 -0.2405 -0.0169
  515MOL0     H69468   9.819   9.022   5.925  0.2897  0.3243  0.3377
  515MOL0     H69469   9.714   9.162   5.880 -4.6573 -1.0031  0.6015
  515MOL0     H69470   9.741   9.252   6.103 -0.2761  0.3255  1.7101
  515MOL0     H69471   9.832   9.109   6.147  0.2260 -1.0839 -1.0058
  515MOL0     H69472  10.023   9.168   6.002 -2.0094 -2.2510 -0.1360
  515MOL0     H69473   9.983   9.303   6.116 -3.2469 -0.7966  0.5504
  515MOL0     H69474   9.857   9.335   5.850 -1.1426  1.0443  2.1582
  515MOL0     H69475   9.912   9.460   5.955 -1.7341 -2.6653  4.7321
  515MOL0     H69476  10.189   9.490   5.984 -0.3284  0.0653 -0.5019
  515MOL0     H69477  10.456   9.410   5.845 -2.8167 -0.6230  0.0964
  515MOL0     H69478  10.444   9.480   5.674 -1.3987 -0.4758 -0.7267
  515MOL0     H69479  10.373   9.692   5.753  0.3371 -2.1630 -2.2831
  515MOL0     H69480  10.388   9.636   5.924  0.2069 -0.8971 -0.0530
  515MOL0     H69481  10.577   9.792   5.798  0.6744 -0.6002  2.1350
  515MOL0     H69482  10.618   9.649   5.720  1.1751  1.4482 -0.5245
  515MOL0     H69483  10.770   9.678   5.892  0.5090  1.7668  1.0294
  515MOL0     H69484  10.674   9.531   5.929 -0.1432  0.7150 -1.0171
  515MOL0     H69485  10.898   9.594   6.035 -0.9558 -0.9860 -0.7430
  515MOL0     H69486  11.046   9.563   6.216 -0.6799  1.3470 -3.9375
  515MOL0     H69487  11.061   9.822   6.754  2.2262  0.7691 -0.9417
  515MOL0     H69488  11.231   9.796   6.934  0.9151  0.1289 -2.1576
  515MOL0     H69489  11.372   9.385   7.079  2.5227 -1.3386  0.2714
  515MOL0     H69490  11.465   9.420   6.937  3.0125  0.1106  1.1110
  515MOL0     H69491  11.600   9.592   7.073  1.4457 -1.2980 -2.6980
  515MOL0     H69492  11.549   9.493   7.205  0.7013 -2.2122 -0.2253
  515MOL0     H69493  11.614   9.296   7.069 -1.2851  0.5988  0.1510
  515MOL0     H69494  11.703   9.407   6.954 -0.6967  0.2476 -0.5076
  515MOL0     H69495  11.736   9.375   7.258 -1.9807  1.8486 -0.6587
  515MOL0     H69496  11.814   9.501   7.165 -0.6827  0.9594 -3.5519
  515MOL0     H69497  11.937   9.320   7.028  1.7349  3.4391  0.2306
  515MOL0     H69498  11.882   9.201   7.149  0.1191 -0.1572  0.9887
  515MOL0     H69499  12.016   9.319   7.328  0.2830 -0.4878 -0.3072
  515MOL0     H69500  12.109   9.256   7.201 -0.0803  0.0645  2.5920
  515MOL0     H69501  12.036   9.546   7.220  0.5086  1.0180 -0.2659
  515MOL0     H69502  12.108   9.479   7.073  0.5382 -0.3977 -0.1640
  515MOL0     H69503  12.282   9.370   7.242  1.1517  0.9219 -2.2373
  515MOL0     H69504  12.303   9.548   7.208 -3.2126  2.0255 -0.6880
  515MOL0     H69505  11.216   9.368   6.904 -0.5077 -0.2600  0.5627
  515MOL0     H69506  11.031   9.407   6.717 -0.2221  1.4716 -1.2175
  515MOL0     H69507  10.761   9.724   6.489  1.8422 -1.3805  0.3832
  515MOL0     H69508  10.591   9.745   6.291 -0.9438 -1.0890  0.4402
  515MOL0     H69509   9.273   8.537   5.987 -2.1638  3.6331 -0.3399
  515MOL0     H69510   9.100   8.370   5.894 -1.7180 -0.9444 -2.8255
  515MOL0     H69511   8.716   8.316   5.429 -1.1157  0.2236  0.4935
  515MOL0     H69512   8.587   8.110   5.391 -0.3144 -1.3318 -1.4782
  515MOL0     H69513   8.587   7.798   5.206 -0.2983 -1.1285  1.8855
  515MOL0     H69514   8.569   7.974   5.210  2.4195  3.2987  2.1985
  515MOL0     H69515   8.443   7.935   5.443  0.2438  0.5481  0.0596
  515MOL0     H69516   8.460   7.763   5.405  1.2594  0.3035 -2.1964
  515MOL0     H69517   8.235   7.831   5.349 -2.1105  0.4756 -1.2337
  515MOL0     H69518   8.318   7.813   5.191  3.3383 -2.7630  1.0544
  515MOL0     H69519   8.265   8.063   5.370 -0.0557 -1.0402  0.2568
  515MOL0     H69520   8.347   8.067   5.208 -0.9655  0.6166 -1.2896
  515MOL0     H69521   7.985   8.053   5.042  1.0449  1.5599 -1.0915
  515MOL0     H69522   8.928   7.874   5.452  2.0179  0.6879 -3.1060
  515MOL0     H69523   9.155   8.076   5.452 -1.4860 -1.9515 -0.2123
  515MOL0     H69524   9.123   8.123   5.624 -0.8715  2.5234 -0.2613
  515MOL0     H69525   9.116   7.953   5.558  1.4010 -0.5770 -1.6431
  516MOL0     O69526   0.441   9.345   3.784  0.4506  0.7242 -0.8909
  516MOL0     C69527   0.475   9.304   3.897  0.8172  0.2015 -0.3280
  516MOL0     O69528   0.572   9.356   3.974  0.1985  1.0362 -0.0161
  516MOL0     C69529   0.665   9.440   3.928  0.0653  0.0693  0.7864
  516MOL0     C69530   0.680   9.518   3.809  0.3587 -0.6860  0.2483
  516MOL0     C69531   0.788   9.605   3.794  0.1086  1.3339 -0.0549
  516MOL0     C69532   0.889   9.608   3.887  0.1500  0.4130  0.2722
  516MOL0     O69533   1.001   9.682   3.861  0.5235 -0.0603 -0.1321
  516MOL0     C69534   0.998   9.825   3.901 -0.9722  0.8447  0.1749
  516MOL0     C69535   1.117   9.898   3.829  0.0139  0.2132  0.0590
  516MOL0     C69536   1.237   9.894   3.927  0.1728  0.2435 -0.4068
  516MOL0     C69537   1.350   9.972   3.870 -0.6611  0.2190 -0.0839
  516MOL0     C69538   1.457   9.972   3.981  0.3797  0.2437  0.5068
  516MOL0     C69539   1.413  10.032   4.121  0.3820  0.6900  0.4126
  516MOL0     C69540   1.354  10.180   4.099 -0.4301 -0.1265 -1.1640
  516MOL0     C69541   1.322  10.241   4.239 -0.1515  0.6535  0.1574
  516MOL0     N69542   1.242  10.356   4.214 -0.2410 -0.2203  0.5599
  516MOL0     C69543   1.277  10.466   4.141 -1.5145  0.1971 -0.4838
  516MOL0     C69544   1.169  10.544   4.155  0.8934 -0.5039 -0.6815
  516MOL0     C69545   1.175  10.687   4.132 -0.0259 -0.7247  0.3162
  516MOL0     C69546   1.206  10.779   4.249  0.4846  0.0536 -0.4977
  516MOL0     C69547   1.091  10.762   4.352  0.2033  0.3057 -0.0888
  516MOL0     C69548   0.950  10.790   4.303  0.6209 -0.5113  0.2391
  516MOL0     O69549   0.857  10.822   4.405  0.5687  0.6128  0.2951
  516MOL0     C69550   0.726  10.841   4.363  0.7361  0.8198 -0.0961
  516MOL0     C69551   0.668  10.820   4.232  0.2697  0.0334 -0.7781
  516MOL0     C69552   0.530  10.854   4.212  0.0007 -0.1144 -0.9340
  516MOL0     C69553   0.445  10.894   4.320 -0.0983  0.1509 -0.5482
  516MOL0     C69554   0.303  10.910   4.313  0.8523 -0.5328  0.6768
  516MOL0     O69555   0.240  10.991   4.405  0.1688  0.7365  0.2174
  516MOL0     C69556   0.102  11.010   4.397  0.5189 -0.0303 -0.4991
  516MOL0     C69557   0.011  11.002   4.288  0.3038 -0.6686  0.2160
  516MOL0     C69558  -0.131  11.019   4.307 -0.2572  0.5922 -0.5444
  516MOL0     C69559  -0.188  11.016   4.431 -0.1986 -0.2698  0.5546
  516MOL0     O69560  -0.326  11.018   4.462 -0.1347  0.2655 -0.3822
  516MOL0     C69561  -0.420  11.025   4.353 -0.5334 -0.9379 -0.0905
  516MOL0     C69562  -0.555  10.979   4.425 -0.3919 -0.1431  0.2149
  516MOL0     C69563  -0.656  10.935   4.316 -0.6573 -0.3043  0.0961
  516MOL0     C69564  -0.714  11.042   4.226  0.2587 -0.6438 -0.8438
  516MOL0     C69565  -0.831  10.992   4.140 -0.1675  0.1386  0.1663
  516MOL0     C69566  -0.902  11.095   4.042  0.3351  0.0802 -0.2534
  516MOL0     C69567  -1.007  11.012   3.977  0.3240 -0.2423  0.8707
  516MOL0     C69568  -1.064  11.068   3.856  0.2622 -0.6753  0.5026
  516MOL0    Cl69569  -1.169  11.214   3.899  0.5903 -0.1797 -0.0286
  516MOL0     C69570  -0.091  11.020   4.535 -0.7022 -0.2906  0.7639
  516MOL0     C69571   0.045  11.034   4.522  0.8569 -0.1227  1.0411
  516MOL0     O69572   0.252  10.841   4.228 -0.4546 -0.5850  0.2572
  516MOL0     C69573   0.504  10.914   4.445  0.1651  0.1623  1.0349
  516MOL0     C69574   0.643  10.883   4.460 -0.3022 -0.2773  0.1569
  516MOL0     N69575   1.069  10.478   4.224  0.2560  0.1068  1.0330
  516MOL0     N69576   1.112  10.363   4.252  1.0186  0.0950  0.1093
  516MOL0     C69577   0.888   9.535   4.000  0.4542 -0.4298 -0.0108
  516MOL0     C69578   0.769   9.457   4.024 -0.5995 -0.3099 -0.0840
  516MOL0     C69579   0.417   9.183   3.953  0.8819 -0.0549  0.4188
  516MOL0     C69580   0.505   9.089   3.996  0.4525  0.2826  0.4895
  516MOL0     C69581   0.451   8.979   4.073 -0.4465 -0.3669  0.3951
  516MOL0     C69582   0.316   8.950   4.073 -0.2764  0.0110  0.1999
  516MOL0     O69583   0.288   8.830   4.135  0.6486 -0.6983 -0.2655
  516MOL0     C69584   0.164   8.814   4.204 -1.5428 -0.9349 -1.6910
  516MOL0     C69585   0.059   8.756   4.110 -0.2109 -0.6760 -0.2151
  516MOL0     C69586  -0.080   8.750   4.181 -0.1537  0.3641 -0.7169
  516MOL0     C69587  -0.163   8.876   4.187  0.0708 -0.1682 -0.1597
  516MOL0     C69588  -0.159   8.960   4.060 -0.3716 -0.4197 -0.9083
  516MOL0     C69589  -0.145   9.047   3.982 -0.1725  0.3434  0.4053
  516MOL0     C69590   0.222   9.046   4.026  0.4116 -0.2592  0.5340
  516MOL0     C69591   0.276   9.165   3.971  0.6365  0.5510 -0.3389
  516MOL0     C69592   0.172   9.272   3.953  0.7715 -0.2302 -0.9247
  516MOL0     H69593   0.610   9.502   3.727 -0.4921 -5.5498  1.5591
  516MOL0     H69594   0.801   9.656   3.699  1.7421  0.4789 -0.3262
  516MOL0     H69595   0.899   9.864   3.873 -1.8978 -1.7443 -0.4996
  516MOL0     H69596   1.002   9.829   4.010 -0.2888  2.7730  0.1167
  516MOL0     H69597   1.080   9.998   3.805 -1.6479 -0.2526  0.5584
  516MOL0     H69598   1.147   9.834   3.746 -2.5125 -1.9471  0.6750
  516MOL0     H69599   1.256   9.792   3.961  3.0012  0.9123  0.2589
  516MOL0     H69600   1.199   9.948   4.014 -2.0098  0.3231 -1.3430
  516MOL0     H69601   1.390   9.912   3.788  2.2064  0.0634  1.3309
  516MOL0     H69602   1.312  10.066   3.831  1.8153  1.2161 -0.2025
  516MOL0     H69603   1.507   9.877   4.000  0.7962  0.3233 -0.1382
  516MOL0     H69604   1.534  10.041   3.942 -0.4937 -0.1213 -2.0464
  516MOL0     H69605   1.341   9.962   4.163  1.3176 -1.3049 -1.1520
  516MOL0     H69606   1.495  10.042   4.194 -0.4188  1.1939  1.2583
  516MOL0     H69607   1.264  10.180   4.036 -1.2838  1.8758 -0.0344
  516MOL0     H69608   1.429  10.242   4.049 -1.3545  0.4138 -1.9133
  516MOL0     H69609   1.262  10.165   4.289 -0.3679  0.1142 -0.8942
  516MOL0     H69610   1.419  10.256   4.288  1.6065  0.5087 -3.0003
  516MOL0     H69611   1.377  10.480   4.101 -1.5942  1.7485 -0.2094
  516MOL0     H69612   1.249  10.698   4.053 -0.3149  3.2997  0.4006
  516MOL0     H69613   1.079  10.711   4.084 -0.2936  0.2997  1.3089
  516MOL0     H69614   1.299  10.741   4.293 -0.5382  1.1422  2.8679
  516MOL0     H69615   1.219  10.883   4.220 -0.8754  1.4804  3.3338
  516MOL0     H69616   1.109  10.835   4.432 -3.7931  3.9603 -2.1025
  516MOL0     H69617   1.095  10.664   4.401 -1.9076  0.9490  1.5479
  516MOL0     H69618   0.920  10.706   4.240  0.8251 -0.9583  0.7261
  516MOL0     H69619   0.976  10.876   4.241  2.0148 -1.0826 -0.0175
  516MOL0     H69620   0.735  10.778   4.157 -0.2616 -1.4063 -0.4766
  516MOL0     H69621   0.489  10.820   4.117  0.9790 -1.4431 -0.9059
  516MOL0     H69622   0.063  10.995   4.193  0.1907 -3.6190  0.2683
  516MOL0     H69623  -0.193  11.029   4.218 -1.7341  4.1129  0.6946
  516MOL0     H69624  -0.423  11.130   4.321  2.9015 -0.0702  1.9276
  516MOL0     H69625  -0.406  10.957   4.268  1.4760 -1.0277  0.2595
  516MOL0     H69626  -0.537  10.892   4.489  0.5815 -0.9107 -1.0466
  516MOL0     H69627  -0.608  11.051   4.488 -1.8879  0.1596 -1.3278
  516MOL0     H69628  -0.616  10.854   4.253 -1.7632 -2.0532  1.5347
  516MOL0     H69629  -0.742  10.883   4.357 -1.0435  0.4017  0.1919
  516MOL0     H69630  -0.627  11.082   4.174  2.6950 -1.6566  2.1962
  516MOL0     H69631  -0.754  11.123   4.288  0.1015 -2.0219  0.9608
  516MOL0     H69632  -0.898  10.954   4.217 -0.3610 -1.1961 -0.6387
  516MOL0     H69633  -0.798  10.906   4.081 -0.2340 -1.2589  2.0739
  516MOL0     H69634  -0.950  11.169   4.106  0.9002  0.4978 -0.3045
  516MOL0     H69635  -0.826  11.142   3.978  1.2800  0.7785  1.3200
  516MOL0     H69636  -1.082  10.978   4.049  2.1093 -2.3594  1.8582
  516MOL0     H69637  -0.959  10.920   3.940  2.0282  0.8626  0.2149
  516MOL0     H69638  -0.984  11.100   3.789 -1.6828 -0.8455 -2.0361
  516MOL0     H69639  -1.125  10.997   3.799 -2.6362  0.1413  2.3391
  516MOL0     H69640  -0.126  11.026   4.638 -0.8687  0.2450  0.6775
  516MOL0     H69641   0.109  11.020   4.609  1.5804 -1.5430  0.3083
  516MOL0     H69642   0.439  10.939   4.528 -0.6861 -0.4012  0.5435
  516MOL0     H69643   0.675  10.899   4.562  0.1233 -0.3371  0.0354
  516MOL0     H69644   0.960   9.552   4.079  4.3328  1.1699 -3.5602
  516MOL0     H69645   0.782   9.403   4.117 -0.3872  1.4282  0.9387
  516MOL0     H69646   0.610   9.105   3.973  0.6166 -2.2402 -0.8470
  516MOL0     H69647   0.518   8.909   4.122  0.7333  0.3303 -0.1927
  516MOL0     H69648   0.129   8.905   4.253  3.4389  0.3939  0.0209
  516MOL0     H69649   0.194   8.748   4.287  3.3244  0.6251 -1.8775
  516MOL0     H69650   0.087   8.651   4.099  1.0107 -0.5279  1.0453
  516MOL0     H69651   0.045   8.809   4.016 -1.0486  0.7674  0.6871
  516MOL0     H69652  -0.069   8.724   4.286 -0.4518  1.0602 -0.5113
  516MOL0     H69653  -0.129   8.668   4.127  0.9537  1.0640 -2.9070
  516MOL0     H69654  -0.265   8.849   4.215  0.6187  0.8629  3.2578
  516MOL0     H69655  -0.128   8.944   4.266  1.8153  2.2804 -2.8222
  516MOL0     H69656  -0.124   9.114   3.901 -1.2693 -0.8624 -0.9494
  516MOL0     H69657   0.115   9.028   4.028  0.5125 -1.9607 -2.7384
  516MOL0     H69658   0.107   9.270   4.041 -0.1012 -3.3770 -1.5126
  516MOL0     H69659   0.221   9.370   3.945 -1.0642  0.6372 -2.0823
  516MOL0     H69660   0.107   9.256   3.867  0.9386  0.0835 -1.1127
  517MOL0     O69661   3.683   5.177   9.204  0.5813 -0.0553 -0.0777
  517MOL0     C69662   3.644   5.218   9.317 -0.4865  0.3086 -0.3198
  517MOL0     O69663   3.709   5.305   9.398 -0.4972  0.1577 -0.2426
  517MOL0     C69664   3.808   5.380   9.345 -1.0529  0.1971  0.1017
  517MOL0     C69665   3.919   5.318   9.280 -0.2597 -0.0120  0.2509
  517MOL0     C69666   4.012   5.395   9.218  0.3603  0.3146  0.4064
  517MOL0     C69667   4.026   5.527   9.258 -0.5054 -0.5636  0.4096
  517MOL0     O69668   4.143   5.600   9.226  0.4622 -0.0846  0.9615
  517MOL0     C69669   4.249   5.594   9.320 -0.9247 -0.3731 -0.0166
  517MOL0     C69670   4.391   5.588   9.252 -0.0971  0.1240  0.6875
  517MOL0     C69671   4.435   5.726   9.182 -0.7435  0.2686 -0.2486
  517MOL0     C69672   4.489   5.827   9.286 -0.1817 -0.0025 -0.0607
  517MOL0     C69673   4.537   5.954   9.220 -0.7051  0.9584  0.2681
  517MOL0     C69674   4.575   6.054   9.333  0.1474  0.7800  0.1045
  517MOL0     C69675   4.649   6.176   9.270 -0.2744  0.7862  0.1142
  517MOL0     C69676   4.736   6.254   9.364 -0.0781  0.4973  0.2828
  517MOL0     N69677   4.672   6.282   9.495 -0.0458  0.5783 -0.3966
  517MOL0     C69678   4.547   6.321   9.513  0.0164  0.4108  0.9123
  517MOL0     C69679   4.531   6.335   9.651 -0.4282  0.2731 -0.0774
  517MOL0     C69680   4.399   6.361   9.725  0.3182  0.8117  0.4488
  517MOL0     C69681   4.339   6.224   9.748  0.3874 -0.5242  0.1442
  517MOL0     C69682   4.181   6.240   9.750  0.8227 -0.7121  0.5828
  517MOL0     C69683   4.132   6.327   9.865  0.7921 -0.1341 -0.6302
  517MOL0     O69684   4.003   6.382   9.839  0.4464  0.2100  0.8555
  517MOL0     C69685   3.895   6.306   9.864  0.1758  0.5488  0.0137
  517MOL0     C69686   3.814   6.275   9.757 -0.3623  0.0971  0.2383
  517MOL0     C69687   3.696   6.206   9.788  0.3938 -0.5044 -0.0332
  517MOL0     C69688   3.658   6.168   9.918  0.9405 -0.4042  0.3763
  517MOL0     C69689   3.531   6.091   9.959  0.6564  0.1300 -0.2912
  517MOL0     O69690   3.509   6.051  10.095 -0.2479 -0.2369  0.3230
  517MOL0     C69691   3.402   5.968  10.119 -0.0165  1.2203 -0.3486
  517MOL0     C69692   3.438   5.831  10.157  0.6642 -0.4257 -0.5824
  517MOL0     C69693   3.328   5.746  10.203  0.4903 -0.2209  0.5270
  517MOL0     C69694   3.195   5.798  10.214 -0.4163  0.9098  0.2932
  517MOL0     O69695   3.091   5.733  10.271 -0.0396  0.1825  0.0356
  517MOL0     C69696   3.119   5.695  10.410 -0.4312  0.6582 -0.0003
  517MOL0     C69697   3.142   5.816  10.504 -0.1564  0.0057 -0.8435
  517MOL0     C69698   3.031   5.919  10.523  0.2983  0.2839 -0.0552
  517MOL0     C69699   3.084   6.021  10.631  0.5224 -0.4420 -0.1341
  517MOL0     C69700   2.987   6.135  10.643  0.1103  0.4075 -0.0330
  517MOL0     C69701   3.047   6.256  10.722 -0.4632  0.1962  0.0225
  517MOL0     C69702   2.953   6.371  10.750  0.3995 -0.2129  0.3482
  517MOL0     C69703   2.832   6.345  10.852  0.3144 -0.8760 -0.0490
  517MOL0    Cl69704   2.702   6.259  10.756  0.0591 -0.2866 -0.4389
  517MOL0     C69705   3.169   5.922  10.169  0.2209 -0.1740 -0.0911
  517MOL0     C69706   3.271   6.011  10.120 -0.1093 -0.2510  0.0586
  517MOL0     O69707   3.456   6.072   9.868 -0.2079 -0.2564  0.0740
  517MOL0     C69708   3.746   6.205  10.022  0.6492 -0.3189  0.5689
  517MOL0     C69709   3.863   6.274   9.994 -0.5665  0.4012  0.1007
  517MOL0     N69710   4.656   6.316   9.709  0.5083  0.2498 -0.4411
  517MOL0     N69711   4.739   6.297   9.613  0.1411  0.0374  0.1546
  517MOL0     C69712   3.918   5.591   9.329 -0.4349  0.1692  0.6171
  517MOL0     C69713   3.810   5.518   9.372  0.1008  0.4491 -0.0564
  517MOL0     C69714   3.515   5.163   9.356 -0.6633  0.2076  0.0420
  517MOL0     C69715   3.479   5.039   9.297 -0.0105 -0.4256 -0.1853
  517MOL0     C69716   3.359   4.980   9.326  0.5487 -0.2136  0.3168
  517MOL0     C69717   3.275   5.042   9.414  0.8649 -0.8700 -0.3661
  517MOL0     O69718   3.146   5.014   9.438  0.2650  0.1268 -0.3029
  517MOL0     C69719   3.092   4.881   9.408 -0.3034  0.7514  0.1548
  517MOL0     C69720   3.147   4.775   9.502 -0.5904 -0.5797  0.0365
  517MOL0     C69721   3.150   4.819   9.647 -0.0080  0.0913  0.0733
  517MOL0     C69722   3.206   4.700   9.733  0.3233  0.6771  0.6524
  517MOL0     C69723   3.187   4.740   9.875 -0.1956 -0.5706 -0.3071
  517MOL0     C69724   3.164   4.765   9.991 -0.8217 -1.6213  0.0333
  517MOL0     C69725   3.318   5.154   9.482 -0.1958  0.1212 -0.0560
  517MOL0     C69726   3.432   5.231   9.446 -0.1835  0.6887  0.0342
  517MOL0     C69727   3.457   5.359   9.517 -0.6894  0.1000  1.1142
  517MOL0     H69728   3.921   5.212   9.257  2.1815  0.2627 -1.2537
  517MOL0     H69729   4.091   5.349   9.159 -1.8678 -1.2425 -1.6007
  517MOL0     H69730   4.244   5.675   9.392  2.0160  1.1396 -1.3612
  517MOL0     H69731   4.236   5.498   9.371 -2.0988  0.3224  1.0494
  517MOL0     H69732   4.394   5.511   9.175  1.4215  2.2399 -1.5222
  517MOL0     H69733   4.468   5.560   9.325  0.1344  0.2169  0.4816
  517MOL0     H69734   4.353   5.774   9.129  0.1576  0.3756 -1.5957
  517MOL0     H69735   4.512   5.708   9.105 -0.9478  0.0242 -0.3972
  517MOL0     H69736   4.407   5.844   9.356 -0.7308  2.0237 -1.1045
  517MOL0     H69737   4.572   5.782   9.342  0.5974  1.1292 -0.2769
  517MOL0     H69738   4.625   5.927   9.161 -0.6811  1.4824  0.0599
  517MOL0     H69739   4.458   5.987   9.151  0.0456 -0.2280 -1.2139
  517MOL0     H69740   4.485   6.085   9.388 -3.4994 -5.1382 -1.5971
  517MOL0     H69741   4.653   5.999   9.387  2.1979  1.6986 -1.7737
  517MOL0     H69742   4.577   6.243   9.221 -0.8276  0.9918  1.1742
  517MOL0     H69743   4.713   6.145   9.186 -0.2621  1.0980  0.0086
  517MOL0     H69744   4.825   6.196   9.390 -1.2052 -0.9939  0.9573
  517MOL0     H69745   4.756   6.351   9.317 -2.5742  0.3745 -1.1873
  517MOL0     H69746   4.473   6.313   9.434  1.5864 -0.2807 -0.5386
  517MOL0     H69747   4.426   6.395   9.825  0.4337  0.0500  0.6849
  517MOL0     H69748   4.327   6.426   9.675  2.4482  3.9815  1.2344
  517MOL0     H69749   4.372   6.152   9.672  1.5231 -0.8707  0.9467
  517MOL0     H69750   4.368   6.181   9.844 -1.0867  1.3889  1.5195
  517MOL0     H69751   4.144   6.139   9.770  3.8213 -1.6558  2.1206
  517MOL0     H69752   4.150   6.277   9.652  1.8761 -2.5993 -0.5240
  517MOL0     H69753   4.203   6.406   9.893 -0.8580  0.3773  2.6312
  517MOL0     H69754   4.129   6.253   9.945  0.1693 -1.3430 -1.7467
  517MOL0     H69755   3.845   6.296   9.655  0.4175  0.6812  0.5899
  517MOL0     H69756   3.634   6.173   9.705 -0.7075  1.3714 -0.0197
  517MOL0     H69757   3.540   5.794  10.149  1.6806  2.0725 -0.0882
  517MOL0     H69758   3.363   5.648  10.232  1.7262  0.7325  2.4732
  517MOL0     H69759   3.030   5.640  10.441  0.1823 -1.4607 -1.7434
  517MOL0     H69760   3.202   5.624  10.409 -0.4786  0.5642  1.4201
  517MOL0     H69761   3.164   5.767  10.599 -0.6641  0.8489 -0.2717
  517MOL0     H69762   3.231   5.875  10.479 -0.3876  0.1282 -1.3997
  517MOL0     H69763   3.014   5.966  10.426 -0.7044  2.5382  1.1096
  517MOL0     H69764   2.935   5.877  10.555 -1.0484  3.5946  0.7351
  517MOL0     H69765   3.180   6.063  10.599 -0.6947  0.6811 -2.5033
  517MOL0     H69766   3.090   5.973  10.730  0.0792 -1.5617 -0.6341
  517MOL0     H69767   2.896   6.101  10.692  0.6296  1.8767  2.0879
  517MOL0     H69768   2.961   6.173  10.544 -0.5093  0.5390  0.1796
  517MOL0     H69769   3.078   6.213  10.817  0.0792 -1.3408 -0.8038
  517MOL0     H69770   3.128   6.289  10.657 -2.2998  0.3981 -2.3184
  517MOL0     H69771   2.919   6.412  10.654 -1.0917 -2.7821 -0.3321
  517MOL0     H69772   3.022   6.440  10.799 -0.1531  1.4690 -1.1487
  517MOL0     H69773   2.845   6.275  10.935  3.5879 -0.2464  0.0974
  517MOL0     H69774   2.790   6.443  10.875 -0.0346 -1.1206  0.3638
  517MOL0     H69775   3.070   5.948  10.204  0.6646 -0.7266  1.6429
  517MOL0     H69776   3.242   6.115  10.111 -2.1006 -0.5610  2.1430
  517MOL0     H69777   3.705   6.203  10.122 -1.8818  2.6803 -0.2396
  517MOL0     H69778   3.928   6.303  10.076 -1.0671  1.8304  0.0258
  517MOL0     H69779   3.920   5.699   9.346  0.3989  0.1326  0.8403
  517MOL0     H69780   3.729   5.569   9.422 -2.5052 -0.9884 -2.5240
  517MOL0     H69781   3.549   4.995   9.227  1.7856  2.0725 -0.0958
  517MOL0     H69782   3.334   4.888   9.275  1.7140 -0.7096  0.6064
  517MOL0     H69783   3.122   4.849   9.308 -1.4360  2.2510 -0.7229
  517MOL0     H69784   2.983   4.875   9.410 -0.2696 -0.2760 -0.3725
  517MOL0     H69785   3.248   4.752   9.467 -0.5349  1.2368 -1.1166
  517MOL0     H69786   3.086   4.685   9.489 -4.4661  1.9041 -0.5423
  517MOL0     H69787   3.052   4.841   9.691  1.4112  2.9427  2.0928
  517MOL0     H69788   3.215   4.906   9.660  1.0212 -0.9925  3.2198
  517MOL0     H69789   3.159   4.603   9.713  1.9004  0.1032 -0.4034
  517MOL0     H69790   3.312   4.686   9.709  0.2914  1.6061 -0.0829
  517MOL0     H69791   3.146   4.806  10.089 -2.6468  2.9937 -1.9714
  517MOL0     H69792   3.263   5.179   9.573  0.1404  0.5031  0.0484
  517MOL0     H69793   3.376   5.387   9.585 -1.8698 -1.6677  0.4937
  517MOL0     H69794   3.547   5.346   9.579 -0.4966  0.9917  1.0358
  517MOL0     H69795   3.472   5.449   9.458 -0.7053  1.7654  3.4867
  518MOL0     O69796   3.820   5.488  10.020 -0.3286 -0.4459  0.9087
  518MOL0     C69797   3.751   5.398   9.966  0.2380 -0.4047 -0.5185
  518MOL0     O69798   3.792   5.312   9.868  0.4263  0.3397  0.1963
  518MOL0     C69799   3.912   5.338   9.812  0.5884  0.1294  0.3813
  518MOL0     C69800   4.029   5.290   9.874  0.0331  0.2362 -0.3990
  518MOL0     C69801   4.160   5.317   9.823 -0.7632 -0.5336 -0.1496
  518MOL0     C69802   4.169   5.390   9.702  0.7604 -0.9473  0.2285
  518MOL0     O69803   4.287   5.424   9.642  0.7903  0.0133 -0.5066
  518MOL0     C69804   4.399   5.346   9.683  0.4894  0.2912 -0.2621
  518MOL0     C69805   4.509   5.397   9.598 -0.7399 -0.0339  0.2068
  518MOL0     C69806   4.514   5.548   9.615 -0.4348 -0.4750  0.1869
  518MOL0     C69807   4.571   5.605   9.745  0.4127  0.0402 -0.1732
  518MOL0     C69808   4.556   5.759   9.745 -0.8729 -0.4876  0.0348
  518MOL0     C69809   4.627   5.827   9.865  0.1428 -0.7481 -0.2140
  518MOL0     C69810   4.559   5.969   9.902 -0.7058  0.2476  0.0306
  518MOL0     C69811   4.583   6.025  10.035 -0.1748  1.1618  0.1289
  518MOL0     N69812   4.727   6.052  10.061  0.2856  0.2904  0.5585
  518MOL0     C69813   4.817   6.119   9.978  0.5039 -0.8589 -0.2925
  518MOL0     C69814   4.931   6.109  10.041  1.0303 -0.1426  0.1563
  518MOL0     C69815   5.053   6.192  10.003 -0.1243  0.0303 -0.5652
  518MOL0     C69816   5.074   6.326  10.093 -0.9920  0.0371 -0.5666
  518MOL0     C69817   5.068   6.301  10.248  0.0003  0.3009 -0.4847
  518MOL0     C69818   5.092   6.421  10.345 -0.0134 -0.0446  0.4696
  518MOL0     O69819   5.209   6.490  10.306  0.3402 -0.0038 -0.0941
  518MOL0     C69820   5.318   6.470  10.381 -0.6384 -0.1790 -1.5389
  518MOL0     C69821   5.441   6.447  10.318  0.0927 -0.6424 -0.7946
  518MOL0     C69822   5.560   6.427  10.394  0.3605 -0.2229  0.1363
  518MOL0     C69823   5.561   6.454  10.528  0.8435 -0.0897 -0.1175
  518MOL0     C69824   5.688   6.450  10.597  0.7076 -0.3492 -1.0405
  518MOL0     O69825   5.687   6.452  10.740 -0.1116  0.6261  0.5034
  518MOL0     C69826   5.806   6.457  10.808  0.4637  0.7114 -0.1430
  518MOL0     C69827   5.840   6.582  10.864  0.4059 -0.2558  0.5853
  518MOL0     C69828   5.960   6.592  10.945 -0.6299 -0.2202  0.5020
  518MOL0     C69829   6.041   6.476  10.970 -0.8261  0.0216 -0.5451
  518MOL0     O69830   6.148   6.483  11.061 -0.3060 -0.1973  0.3997
  518MOL0     C69831   6.265   6.420  11.012  0.0741 -0.5461 -0.0621
  518MOL0     C69832   6.372   6.459  11.116  0.6701 -0.6113  0.1872
  518MOL0     C69833   6.443   6.587  11.065 -0.0500  0.1225  0.5608
  518MOL0     C69834   6.548   6.636  11.163  0.0626  0.2438 -0.0712
  518MOL0     C69835   6.625   6.752  11.095  0.2786  0.0616  0.2476
  518MOL0     C69836   6.722   6.824  11.188  0.6516 -0.1202  0.5503
  518MOL0     C69837   6.851   6.754  11.210  0.0803  0.1441 -0.1830
  518MOL0     C69838   6.957   6.840  11.295  0.0696  0.6499 -0.6609
  518MOL0    Cl69839   7.026   6.981  11.205  0.2276  0.1431  0.1544
  518MOL0     C69840   5.999   6.355  10.924  0.0647  0.0200  0.8602
  518MOL0     C69841   5.877   6.347  10.857  0.0722  1.2450 -0.0362
  518MOL0     O69842   5.788   6.419  10.529 -0.0341  0.0840  0.1531
  518MOL0     C69843   5.444   6.489  10.594 -0.1474 -0.3604  0.1916
  518MOL0     C69844   5.323   6.491  10.519  0.5286 -0.2383  0.3808
  518MOL0     N69845   4.920   6.009  10.137  0.3659  0.5216 -0.2658
  518MOL0     N69846   4.793   5.983  10.154 -1.0192  0.6495 -0.7004
  518MOL0     C69847   4.061   5.422   9.628 -0.2325  0.3376  0.6429
  518MOL0     C69848   3.930   5.401   9.687 -0.6017 -0.7721 -0.1280
  518MOL0     C69849   3.619   5.361  10.025 -0.1126 -0.0771 -0.0484
  518MOL0     C69850   3.507   5.345   9.943 -0.3845 -0.0831  0.1971
  518MOL0     C69851   3.374   5.328   9.996 -0.2749  0.0161 -0.2745
  518MOL0     C69852   3.357   5.347  10.128 -0.5455  0.1797 -1.7308
  518MOL0     O69853   3.233   5.368  10.190 -0.4564  0.2583 -0.3336
  518MOL0     C69854   3.113   5.375  10.106  0.1682  0.5749 -0.0749
  518MOL0     C69855   2.990   5.337  10.179  0.0031 -0.6070  0.1536
  518MOL0     C69856   2.989   5.204  10.271 -0.0594  0.7765 -0.1687
  518MOL0     C69857   2.853   5.198  10.343  0.0134  0.0910  0.3003
  518MOL0     C69858   2.820   5.074  10.402  0.4016 -0.1168  1.0016
  518MOL0     C69859   2.814   4.963  10.453 -0.0469 -0.6575  0.4847
  518MOL0     C69860   3.465   5.372  10.213  0.4650 -0.0069 -0.2638
  518MOL0     C69861   3.598   5.385  10.162 -0.3228  0.7184 -0.0137
  518MOL0     C69862   3.708   5.408  10.258  0.6452  0.1941  0.2680
  518MOL0     H69863   4.014   5.231   9.964 -3.0443  0.3945 -0.7053
  518MOL0     H69864   4.246   5.289   9.884 -0.0124  1.1293 -0.3954
  518MOL0     H69865   4.422   5.363   9.788 -0.9237 -1.0300  0.2964
  518MOL0     H69866   4.367   5.242   9.673 -0.0130  0.3755  0.4080
  518MOL0     H69867   4.499   5.375   9.491  3.0515  1.7463 -0.6647
  518MOL0     H69868   4.604   5.352   9.627 -0.0901  0.4568 -1.0457
  518MOL0     H69869   4.421   5.596   9.585 -0.2833 -1.2617 -1.6576
  518MOL0     H69870   4.594   5.569   9.543 -2.7265  1.8999 -1.8580
  518MOL0     H69871   4.519   5.563   9.832 -0.3599  0.6222 -0.3449
  518MOL0     H69872   4.676   5.581   9.760 -0.3513 -3.8885  0.0156
  518MOL0     H69873   4.590   5.797   9.649  0.2875  2.0446  1.3487
  518MOL0     H69874   4.451   5.792   9.749 -0.4847  0.7773  0.2557
  518MOL0     H69875   4.637   5.760   9.951  3.3540  2.9044  2.5846
  518MOL0     H69876   4.732   5.842   9.837  0.3886  2.1910  1.8670
  518MOL0     H69877   4.453   5.950   9.883 -0.2488 -3.9790  0.7769
  518MOL0     H69878   4.583   6.042   9.824 -1.6709  1.7055  1.0287
  518MOL0     H69879   4.518   6.113  10.036 -1.2206  0.4689 -1.7566
  518MOL0     H69880   4.543   5.953  10.106  2.7399 -2.1046 -1.2487
  518MOL0     H69881   4.802   6.180   9.890 -2.1926  1.2214  1.4460
  518MOL0     H69882   5.144   6.133  10.009  0.9761  1.7687  0.9666
  518MOL0     H69883   5.038   6.228   9.901  1.4866  1.5185 -0.3255
  518MOL0     H69884   5.168   6.371  10.063  2.2797 -2.1565  4.8631
  518MOL0     H69885   4.990   6.395  10.083 -3.1695 -1.7465  3.0814
  518MOL0     H69886   5.130   6.213  10.268  0.1360 -0.0671 -2.3465
  518MOL0     H69887   4.970   6.260  10.277 -0.1758  1.6892  0.9822
  518MOL0     H69888   5.092   6.388  10.450 -1.1158 -0.6936  0.2745
  518MOL0     H69889   5.010   6.493  10.341 -0.6236 -0.7698 -0.4310
  518MOL0     H69890   5.457   6.451  10.211  0.7257 -2.1848 -0.8016
  518MOL0     H69891   5.656   6.416  10.345  1.5488  3.1951  1.3993
  518MOL0     H69892   5.785   6.672  10.839  2.0069  0.0829 -2.1502
  518MOL0     H69893   5.989   6.685  10.994  3.1489 -1.1600  0.3808
  518MOL0     H69894   6.257   6.311  11.017  0.8706 -0.6447 -0.8118
  518MOL0     H69895   6.284   6.464  10.914  1.0162 -0.2890  0.2279
  518MOL0     H69896   6.321   6.484  11.210  1.4583 -0.2206  0.5149
  518MOL0     H69897   6.449   6.385  11.136 -0.5917 -1.8160  0.7848
  518MOL0     H69898   6.487   6.574  10.966 -1.9787  2.3133 -0.6611
  518MOL0     H69899   6.374   6.671  11.054  3.0205  2.6191 -1.6114
  518MOL0     H69900   6.611   6.553  11.198 -2.8267 -1.7815  0.7264
  518MOL0     H69901   6.499   6.671  11.254  1.7656 -0.4972  1.2050
  518MOL0     H69902   6.556   6.827  11.054 -1.1588  0.3818  3.0554
  518MOL0     H69903   6.693   6.722  11.014  2.5690  3.4953  0.6777
  518MOL0     H69904   6.749   6.911  11.128  4.9087 -1.3266  0.3811
  518MOL0     H69905   6.673   6.857  11.280 -0.6489  0.9901 -0.5103
  518MOL0     H69906   6.892   6.724  11.113 -1.3921 -2.2184 -0.1425
  518MOL0     H69907   6.832   6.664  11.269  0.3402 -0.2714 -0.7183
  518MOL0     H69908   6.911   6.871  11.389  0.3456 -1.8951  0.3845
  518MOL0     H69909   7.042   6.778  11.324 -0.9286 -1.9405 -2.8266
  518MOL0     H69910   6.063   6.267  10.929 -1.2827 -1.0988 -0.6415
  518MOL0     H69911   5.846   6.246  10.830  3.0136  0.3025 -0.2037
  518MOL0     H69912   5.441   6.529  10.695 -0.6271 -1.1361  0.4983
  518MOL0     H69913   5.242   6.546  10.567 -1.1995 -0.8274 -1.7483
  518MOL0     H69914   4.071   5.452   9.524  2.3006 -0.9411  0.4225
  518MOL0     H69915   3.845   5.430   9.626 -1.6598  1.0242  2.0306
  518MOL0     H69916   3.517   5.348   9.835  5.6333 -2.9897  0.2741
  518MOL0     H69917   3.301   5.304   9.920 -0.1094 -0.8088 -0.1804
  518MOL0     H69918   3.125   5.300  10.027 -2.1035  1.5034 -1.4034
  518MOL0     H69919   3.106   5.470  10.053 -2.9158 -0.6314 -2.0546
  518MOL0     H69920   2.920   5.323  10.096  0.9863 -0.9183 -0.6295
  518MOL0     H69921   2.957   5.419  10.244  0.8000  0.8771 -1.2589
  518MOL0     H69922   3.073   5.195  10.340  0.3005  3.5943 -0.1080
  518MOL0     H69923   2.997   5.130  10.191  2.7274  0.1840  0.5482
  518MOL0     H69924   2.860   5.268  10.427  4.2718  0.3429 -0.0465
  518MOL0     H69925   2.773   5.244  10.285 -0.6257  1.6788  2.3327
  518MOL0     H69926   2.783   4.878  10.510 -3.5950  0.7834  0.9751
  518MOL0     H69927   3.446   5.380  10.320  0.3026  3.6450 -0.4429
  518MOL0     H69928   3.678   5.372  10.357  0.3638 -1.9842 -0.5558
  518MOL0     H69929   3.807   5.368  10.232  1.7804  0.5165  3.5200
  518MOL0     H69930   3.722   5.517  10.267  1.6866 -0.0370  2.1113
  519MOL0     O69931   7.173   1.495   7.047 -0.5752 -0.8627 -0.7015
  519MOL0     C69932   7.198   1.475   6.926 -0.4370  0.0790  0.2716
  519MOL0     O69933   7.107   1.423   6.832  0.0900 -0.3413 -0.0594
  519MOL0     C69934   6.971   1.453   6.833 -0.2044 -0.0667 -0.1235
  519MOL0     C69935   6.905   1.373   6.746  0.9493 -1.4245 -0.7158
  519MOL0     C69936   6.763   1.408   6.723 -0.9658  0.1911  0.4872
  519MOL0     C69937   6.708   1.510   6.798 -0.5441 -0.5687 -0.1899
  519MOL0     O69938   6.574   1.547   6.768 -0.1155  0.2238  0.5823
  519MOL0     C69939   6.493   1.627   6.858 -0.7157  0.7702  0.1858
  519MOL0     C69940   6.458   1.560   6.992  0.0934 -0.3864 -0.6619
  519MOL0     C69941   6.329   1.471   6.963  0.3564 -0.6107 -0.8015
  519MOL0     C69942   6.199   1.558   6.983 -0.0186 -0.2645  0.0198
  519MOL0     C69943   6.073   1.474   6.995  0.1783 -0.6150 -0.0058
  519MOL0     C69944   6.026   1.404   6.857 -0.0425  0.2669  0.5385
  519MOL0     C69945   5.979   1.491   6.736  0.6984  0.2733  0.6299
  519MOL0     C69946   5.856   1.582   6.780 -0.2036  0.1070  0.8776
  519MOL0     N69947   5.812   1.658   6.656 -0.0579  0.8483 -0.2803
  519MOL0     C69948   5.893   1.744   6.594  0.4995 -0.7243 -0.3820
  519MOL0     C69949   5.816   1.776   6.485  0.3436 -0.4959  1.2375
  519MOL0     C69950   5.867   1.866   6.363 -0.6889 -1.0916 -1.1811
  519MOL0     C69951   5.966   1.794   6.271  0.2214  0.7952 -0.3090
  519MOL0     C69952   6.095   1.742   6.351  0.5015 -0.4565  0.3132
  519MOL0     C69953   6.220   1.705   6.266  0.1929  0.2120 -0.1829
  519MOL0     O69954   6.327   1.645   6.355  0.6964  0.0474  0.3824
  519MOL0     C69955   6.451   1.619   6.298 -0.8487 -0.1607 -0.0160
  519MOL0     C69956   6.553   1.575   6.383  0.1524  0.4711  0.1379
  519MOL0     C69957   6.679   1.542   6.336  0.0202 -0.0846  0.5177
  519MOL0     C69958   6.708   1.560   6.199 -0.4474  0.0655  0.4474
  519MOL0     C69959   6.848   1.529   6.156 -0.6983 -0.3161 -0.6224
  519MOL0     O69960   6.899   1.602   6.046 -0.3129  0.4580  0.6624
  519MOL0     C69961   7.012   1.549   5.981  0.2838  0.3096  0.1763
  519MOL0     C69962   7.012   1.420   5.917 -0.1852 -0.4983 -0.3019
  519MOL0     C69963   7.122   1.381   5.845  0.3091 -1.2243 -1.2054
  519MOL0     C69964   7.225   1.468   5.824  0.0633 -0.7384 -0.7001
  519MOL0     O69965   7.316   1.429   5.728  0.1986  0.1963  0.5688
  519MOL0     C69966   7.395   1.310   5.771  0.1346 -0.0566  0.5935
  519MOL0     C69967   7.523   1.286   5.708 -0.1925  0.6439  0.0222
  519MOL0     C69968   7.530   1.292   5.554 -0.0152  0.2430  0.7695
  519MOL0     C69969   7.495   1.425   5.474  0.5365  0.4783 -1.1126
  519MOL0     C69970   7.572   1.551   5.519 -0.5486 -0.5618 -0.2756
  519MOL0     C69971   7.706   1.572   5.448  0.0761 -1.1800 -0.3756
  519MOL0     C69972   7.811   1.472   5.480 -0.4192 -0.3564  0.1656
  519MOL0     C69973   7.945   1.517   5.418 -0.2418  0.5023  0.4933
  519MOL0    Cl69974   8.088   1.409   5.436 -0.0405  0.4208  0.0465
  519MOL0     C69975   7.221   1.592   5.893  0.8715  1.0958  0.0893
  519MOL0     C69976   7.120   1.627   5.978  0.0898 -0.2176  0.2359
  519MOL0     O69977   6.909   1.459   6.229 -0.0569  0.0803  0.4134
  519MOL0     C69978   6.612   1.601   6.114  0.1911 -0.1016  1.0805
  519MOL0     C69979   6.486   1.628   6.164  0.3050 -0.3663  0.6398
  519MOL0     N69980   5.687   1.725   6.494  0.5195  0.2710  0.1160
  519MOL0     N69981   5.688   1.644   6.598 -0.3020 -0.2224  0.8248
  519MOL0     C69982   6.787   1.596   6.875  0.0253 -0.3300 -0.5514
  519MOL0     C69983   6.919   1.573   6.889 -0.2925 -0.5862  0.3282
  519MOL0     C69984   7.343   1.481   6.892 -0.4015  0.1483 -0.3754
  519MOL0     C69985   7.377   1.461   6.755 -0.9177 -0.3859  0.8260
  519MOL0     C69986   7.505   1.477   6.709 -0.3284 -1.0956 -0.5663
  519MOL0     C69987   7.614   1.508   6.799 -0.2891 -0.1204 -0.2630
  519MOL0     O69988   7.750   1.533   6.760 -0.3405 -0.5475 -0.0304
  519MOL0     C69989   7.820   1.418   6.713 -0.2182 -0.6899 -0.5689
  519MOL0     C69990   7.950   1.464   6.646  0.7913  0.3792  0.2387
  519MOL0     C69991   8.054   1.354   6.614 -0.0131  0.1839 -0.2128
  519MOL0     C69992   8.000   1.242   6.524  0.4984 -0.6448 -0.8682
  519MOL0     C69993   8.090   1.196   6.419 -1.4528 -0.5048 -0.2491
  519MOL0     C69994   8.163   1.177   6.326  0.8865  0.0058  0.5298
  519MOL0     C69995   7.591   1.514   6.935  0.0018  0.0519 -0.5030
  519MOL0     C69996   7.455   1.509   6.983  0.1986 -0.2414 -0.6772
  519MOL0     C69997   7.454   1.527   7.134 -0.7404  0.6937  0.2498
  519MOL0     H69998   6.964   1.298   6.694  2.9770  0.5150 -1.3786
  519MOL0     H69999   6.695   1.333   6.685 -0.3053 -1.2234  1.9871
  519MOL0     H70000   6.539   1.724   6.880 -1.7268  1.4434 -0.5836
  519MOL0     H70001   6.402   1.658   6.805 -0.7872  0.0525 -0.1187
  519MOL0     H70002   6.443   1.634   7.071  1.7879 -0.3959 -0.2866
  519MOL0     H70003   6.537   1.489   7.019 -0.4818 -1.0110 -0.6002
  519MOL0     H70004   6.329   1.380   7.024 -3.6624 -0.0327  0.3047
  519MOL0     H70005   6.333   1.438   6.859 -3.5909 -3.0464 -0.3875
  519MOL0     H70006   6.223   1.612   7.075  0.3552  4.1018 -2.3542
  519MOL0     H70007   6.190   1.641   6.912  0.7860  1.0791  1.4300
  519MOL0     H70008   6.091   1.400   7.073 -1.6895  1.2505  2.3240
  519MOL0     H70009   5.996   1.540   7.036  1.8832  0.2566  1.9584
  519MOL0     H70010   6.112   1.342   6.830  0.5647  0.6807  1.4563
  519MOL0     H70011   5.946   1.330   6.874  1.4425 -1.8542 -1.1442
  519MOL0     H70012   5.948   1.421   6.657 -1.0580  2.2616 -0.5363
  519MOL0     H70013   6.052   1.565   6.703  1.5968 -0.3607  1.1375
  519MOL0     H70014   5.772   1.522   6.820 -1.3355 -0.3612 -1.9899
  519MOL0     H70015   5.892   1.652   6.856  0.0370  0.5856  0.3245
  519MOL0     H70016   5.998   1.762   6.616  0.3231  1.0315 -0.7596
  519MOL0     H70017   5.777   1.898   6.309 -1.4035  1.1907  1.1987
  519MOL0     H70018   5.913   1.960   6.391  1.3905 -2.5050  0.4108
  519MOL0     H70019   5.930   1.704   6.221  2.4409 -0.1029 -0.3931
  519MOL0     H70020   5.998   1.863   6.193  1.0579 -0.4530 -1.0935
  519MOL0     H70021   6.067   1.652   6.406  0.6518 -3.6519 -4.2092
  519MOL0     H70022   6.120   1.831   6.409 -2.5997  1.6423 -1.2476
  519MOL0     H70023   6.269   1.795   6.229  0.6788 -0.6788 -1.7790
  519MOL0     H70024   6.198   1.635   6.185 -3.3579 -0.4785  1.1571
  519MOL0     H70025   6.536   1.558   6.489  2.2710  1.3098  0.6558
  519MOL0     H70026   6.757   1.501   6.399  2.0987 -1.4961 -2.7017
  519MOL0     H70027   6.930   1.351   5.936 -0.5808  0.5122  2.0448
  519MOL0     H70028   7.108   1.296   5.779 -2.7721  0.5606 -3.1191
  519MOL0     H70029   7.419   1.323   5.877  2.7461  0.3693  0.0085
  519MOL0     H70030   7.332   1.222   5.754  0.1192  0.2082 -0.7934
  519MOL0     H70031   7.588   1.362   5.754 -2.6874  1.4010  2.6030
  519MOL0     H70032   7.564   1.188   5.734  1.9219  1.4954  0.1827
  519MOL0     H70033   7.633   1.260   5.535 -0.1083 -0.0260  0.7203
  519MOL0     H70034   7.475   1.208   5.511  0.4172  0.8879 -1.1538
  519MOL0     H70035   7.387   1.435   5.491 -0.5111 -5.8033 -1.6643
  519MOL0     H70036   7.509   1.413   5.366  0.7482  0.1584 -1.0494
  519MOL0     H70037   7.595   1.553   5.626  4.6101  3.2304 -1.0809
  519MOL0     H70038   7.510   1.639   5.500 -2.3839 -2.0237 -1.4389
  519MOL0     H70039   7.681   1.572   5.341 -1.8623  1.4936 -0.0330
  519MOL0     H70040   7.731   1.671   5.485 -1.4275 -0.5091 -1.0326
  519MOL0     H70041   7.779   1.374   5.443  0.6147 -1.1666  1.3409
  519MOL0     H70042   7.820   1.460   5.588 -4.3753 -2.5511  0.4185
  519MOL0     H70043   7.924   1.521   5.310  2.4066 -0.5226 -0.1393
  519MOL0     H70044   7.979   1.617   5.447  1.8105 -0.3502  1.2069
  519MOL0     H70045   7.306   1.658   5.877 -0.0237  1.9463 -1.3887
  519MOL0     H70046   7.103   1.725   6.020 -1.9824  0.4665 -1.9923
  519MOL0     H70047   6.634   1.617   6.010  2.2756  0.8644  1.6189
  519MOL0     H70048   6.418   1.649   6.082  0.4766 -2.0002  0.0522
  519MOL0     H70049   6.749   1.675   6.940 -0.4282 -1.4303  0.5645
  519MOL0     H70050   6.983   1.636   6.950 -0.4606  1.0650 -1.0928
  519MOL0     H70051   7.306   1.417   6.685  1.5239 -1.3996 -1.1547
  519MOL0     H70052   7.531   1.460   6.605  3.7372  2.0344 -0.2891
  519MOL0     H70053   7.752   1.363   6.648 -0.3812  0.5950 -1.5149
  519MOL0     H70054   7.849   1.347   6.792  0.8849 -0.3942 -0.6870
  519MOL0     H70055   7.995   1.540   6.711 -0.5040  1.7924 -0.4561
  519MOL0     H70056   7.926   1.520   6.555 -2.1574  1.3614  1.4944
  519MOL0     H70057   8.079   1.300   6.706  0.6514  0.8295 -0.0016
  519MOL0     H70058   8.139   1.403   6.564  0.3720 -1.9603 -1.8266
  519MOL0     H70059   7.965   1.165   6.593  0.6472  0.4435  0.4654
  519MOL0     H70060   7.901   1.273   6.488 -1.2386  0.0389  3.7760
  519MOL0     H70061   8.230   1.161   6.243  3.0521 -0.0793  2.2137
  519MOL0     H70062   7.675   1.526   7.004 -0.8564  1.5094  0.3470
  519MOL0     H70063   7.405   1.620   7.161 -0.7626  1.0666 -0.9972
  519MOL0     H70064   7.403   1.440   7.176  0.1652 -0.3512 -0.7024
  519MOL0     H70065   7.554   1.534   7.179 -0.3753  1.0595 -0.5933
  520MOL0     O70066   1.933   2.672   8.526 -0.5974  0.3375 -0.3392
  520MOL0     C70067   1.981   2.675   8.645  0.5247  0.5169  0.7426
  520MOL0     O70068   2.107   2.714   8.672 -0.7338  0.1112 -0.2738
  520MOL0     C70069   2.196   2.715   8.568  0.3099 -0.6704 -0.9521
  520MOL0     C70070   2.282   2.821   8.570 -0.2702 -0.3323 -0.4508
  520MOL0     C70071   2.379   2.842   8.469 -0.7201  0.4365  0.4240
  520MOL0     C70072   2.390   2.754   8.356  0.5327  0.1980  0.2452
  520MOL0     O70073   2.500   2.751   8.265 -0.1353 -0.5029 -0.3290
  520MOL0     C70074   2.611   2.839   8.294 -0.0022  0.0910  0.4068
  520MOL0     C70075   2.712   2.827   8.183  0.1054 -0.5167 -0.1836
  520MOL0     C70076   2.826   2.921   8.204 -0.1532 -0.2331  0.3966
  520MOL0     C70077   2.923   2.886   8.091  0.3386  0.6684 -0.8082
  520MOL0     C70078   3.054   2.965   8.104  0.1486 -0.3892 -0.4632
  520MOL0     C70079   3.147   2.910   7.993  1.0653  0.3757  0.9672
  520MOL0     C70080   3.276   2.985   7.993 -0.1144  0.0965  0.2752
  520MOL0     C70081   3.368   2.927   7.897  0.3493  0.0627  0.7587
  520MOL0     N70082   3.491   2.999   7.888 -0.0575 -0.4497 -0.1364
  520MOL0     C70083   3.600   2.973   7.966 -0.1351 -0.2167 -0.6138
  520MOL0     C70084   3.686   3.070   7.948 -0.3905 -0.4384 -0.3100
  520MOL0     C70085   3.820   3.070   8.015 -0.8192  0.2192  0.4611
  520MOL0     C70086   3.836   3.175   8.131  0.2489 -0.1983 -0.1149
  520MOL0     C70087   3.859   3.317   8.082  0.1456 -0.2429 -0.2590
  520MOL0     C70088   3.882   3.402   8.207 -0.1170  0.6748  0.4070
  520MOL0     O70089   4.026   3.386   8.233 -0.1296  0.6332 -0.6474
  520MOL0     C70090   4.090   3.479   8.308 -0.1762 -0.3792  0.4222
  520MOL0     C70091   4.030   3.566   8.396 -0.1686 -1.1219 -0.0547
  520MOL0     C70092   4.100   3.659   8.468 -0.3797 -0.7192 -0.3514
  520MOL0     C70093   4.239   3.661   8.467 -0.4437 -0.6484  0.1276
  520MOL0     C70094   4.312   3.756   8.551 -1.0625  0.0799 -0.4834
  520MOL0     O70095   4.248   3.840   8.637 -0.3234 -0.0214 -1.0688
  520MOL0     C70096   4.322   3.923   8.717  0.3556 -0.2393  0.3974
  520MOL0     C70097   4.346   3.901   8.852  0.3289  0.3937  0.0094
  520MOL0     C70098   4.439   3.977   8.930 -0.0206 -0.9978 -1.0937
  520MOL0     C70099   4.501   4.094   8.875  0.4533 -0.4332  0.6513
  520MOL0     O70100   4.590   4.179   8.928 -0.2588 -0.3211  0.1153
  520MOL0     C70101   4.631   4.146   9.057  0.4240 -0.1546  0.1513
  520MOL0     C70102   4.730   4.243   9.126  0.3987  0.8658 -0.4723
  520MOL0     C70103   4.857   4.250   9.047 -0.8591  0.3727  0.0477
  520MOL0     C70104   4.963   4.317   9.141 -0.3551 -0.4898  0.3634
  520MOL0     C70105   5.101   4.341   9.080  0.1207  0.4204  0.9861
  520MOL0     C70106   5.178   4.206   9.077  1.1484 -0.3681  0.3003
  520MOL0     C70107   5.334   4.234   9.062  0.7087  0.7652 -0.4708
  520MOL0     C70108   5.415   4.127   8.996 -0.1563 -0.2295  0.1433
  520MOL0    Cl70109   5.413   3.967   9.072 -0.1167  0.0743 -0.6213
  520MOL0     C70110   4.470   4.119   8.741 -0.5784 -0.5145 -0.9408
  520MOL0     C70111   4.391   4.029   8.663  0.0402 -0.1171  0.6233
  520MOL0     O70112   4.433   3.761   8.540 -0.0105 -0.5898  0.1373
  520MOL0     C70113   4.301   3.579   8.372  0.3479  0.1374 -0.2703
  520MOL0     C70114   4.225   3.489   8.297  0.3889  0.1705  0.3904
  520MOL0     N70115   3.632   3.170   7.864  0.1657  0.8135 -0.3827
  520MOL0     N70116   3.518   3.123   7.822 -0.2887  0.8395  0.6829
  520MOL0     C70117   2.297   2.649   8.349  0.0544 -0.2744  0.4824
  520MOL0     C70118   2.204   2.633   8.456  0.1645  0.7862 -1.0072
  520MOL0     C70119   1.897   2.658   8.756 -0.4192  0.5572  0.4135
  520MOL0     C70120   1.883   2.761   8.857  0.5249 -0.5816 -0.5241
  520MOL0     C70121   1.797   2.736   8.974 -0.6589 -0.0621 -0.1418
  520MOL0     C70122   1.735   2.609   8.997  0.1721 -0.4729 -0.1531
  520MOL0     O70123   1.668   2.590   9.119 -0.4245 -0.2823 -0.4605
  520MOL0     C70124   1.597   2.699   9.168  0.1973 -0.3895  1.1155
  520MOL0     C70125   1.508   2.664   9.280 -0.3556 -0.0277 -0.6659
  520MOL0     C70126   1.398   2.570   9.241 -0.6386 -0.5230 -0.1289
  520MOL0     C70127   1.278   2.604   9.332 -0.6669  0.5539  0.0501
  520MOL0     C70128   1.313   2.576   9.470 -0.8694 -0.4916  0.0480
  520MOL0     C70129   1.338   2.540   9.580  0.5444  0.0673  0.2476
  520MOL0     C70130   1.753   2.512   8.898  0.3000 -0.5422 -0.0999
  520MOL0     C70131   1.828   2.532   8.780  0.7280  0.1691 -0.1434
  520MOL0     C70132   1.832   2.410   8.681 -1.2621  0.0096  0.1423
  520MOL0     H70133   2.281   2.887   8.656  0.3782  1.9975 -2.1050
  520MOL0     H70134   2.458   2.915   8.485  1.5872 -2.1084  1.5542
  520MOL0     H70135   2.574   2.941   8.285 -4.0970 -1.2122  0.3849
  520MOL0     H70136   2.662   2.811   8.387  0.3553  0.9185  0.4642
  520MOL0     H70137   2.665   2.848   8.087  0.8763  3.5774  0.1764
  520MOL0     H70138   2.749   2.725   8.197  2.2199  0.3722  1.2733
  520MOL0     H70139   2.866   2.907   8.304  0.7429  0.2078  0.1104
  520MOL0     H70140   2.794   3.025   8.204  0.2298 -0.1112  0.8821
  520MOL0     H70141   2.945   2.780   8.108 -2.9679 -0.0379 -0.1898
  520MOL0     H70142   2.877   2.890   7.992 -0.6534  1.7853 -0.3245
  520MOL0     H70143   3.031   3.072   8.112  0.7796 -0.3590  1.5381
  520MOL0     H70144   3.092   2.943   8.204  1.1567 -0.2412 -0.8005
  520MOL0     H70145   3.162   2.802   7.993 -3.0512 -0.3683 -0.0894
  520MOL0     H70146   3.099   2.933   7.897  0.9538 -1.2402  0.6185
  520MOL0     H70147   3.322   2.990   8.092  1.1721 -1.5107 -0.2053
  520MOL0     H70148   3.253   3.090   7.974 -2.4750  0.1649  2.8268
  520MOL0     H70149   3.397   2.826   7.929  1.1992  1.1786  3.8975
  520MOL0     H70150   3.332   2.928   7.794 -1.9037 -1.1763  1.4743
  520MOL0     H70151   3.617   2.887   8.030 -1.1917  0.1047  0.1187
  520MOL0     H70152   3.853   2.971   8.046 -0.0505  0.8083  1.6111
  520MOL0     H70153   3.895   3.100   7.942  0.1853 -4.6137 -0.8460
  520MOL0     H70154   3.755   3.163   8.204  0.4009 -0.2513  0.0460
  520MOL0     H70155   3.928   3.154   8.187  0.5820  3.3571  0.8965
  520MOL0     H70156   3.769   3.349   8.027  0.4696  2.1459  0.4922
  520MOL0     H70157   3.936   3.326   8.005 -1.7872 -0.9726 -2.4307
  520MOL0     H70158   3.822   3.361   8.289  0.2071 -0.2675  0.1821
  520MOL0     H70159   3.863   3.509   8.193 -2.2545  0.3118  0.0724
  520MOL0     H70160   3.923   3.564   8.412 -0.3185  0.1397 -0.7639
  520MOL0     H70161   4.049   3.732   8.531  0.1467  0.2886 -1.0646
  520MOL0     H70162   4.317   3.813   8.908  4.7412 -1.1885  0.2197
  520MOL0     H70163   4.451   3.938   9.031  3.7700  1.1713 -0.5109
  520MOL0     H70164   4.546   4.143   9.125 -0.6939  1.1466 -1.1342
  520MOL0     H70165   4.678   4.048   9.046  0.4028 -0.3117  1.3201
  520MOL0     H70166   4.680   4.340   9.140 -3.6897 -0.9396 -1.1917
  520MOL0     H70167   4.741   4.186   9.219 -2.2434 -0.5592 -0.9402
  520MOL0     H70168   4.900   4.155   9.013  4.0315  2.2507  0.2143
  520MOL0     H70169   4.834   4.309   8.958  0.5688  2.4881  1.0188
  520MOL0     H70170   4.977   4.254   9.230 -0.8448  0.2695  0.9961
  520MOL0     H70171   4.924   4.415   9.168  0.4333  0.0135 -0.2540
  520MOL0     H70172   5.157   4.405   9.149  0.8424  0.1015  0.7105
  520MOL0     H70173   5.095   4.377   8.976  3.3351 -4.3966 -1.2451
  520MOL0     H70174   5.157   4.144   9.165  0.4405  0.4475  0.7190
  520MOL0     H70175   5.146   4.139   8.996  1.3550 -2.4103  1.8299
  520MOL0     H70176   5.378   4.253   9.161  2.2759 -1.3964 -0.6778
  520MOL0     H70177   5.328   4.327   9.005 -2.4120  0.1184 -1.3853
  520MOL0     H70178   5.380   4.125   8.892 -1.6284 -2.1770  0.6051
  520MOL0     H70179   5.518   4.162   9.003 -0.0830 -0.4565  0.2016
  520MOL0     H70180   4.520   4.203   8.695 -1.5756  1.3870  1.2219
  520MOL0     H70181   4.377   4.039   8.556  1.7238 -2.1604  0.1449
  520MOL0     H70182   4.409   3.589   8.368  0.2417  1.5924  0.0205
  520MOL0     H70183   4.285   3.426   8.232  1.5198 -0.4545  1.9667
  520MOL0     H70184   2.303   2.586   8.261  1.3269 -0.1561  0.4723
  520MOL0     H70185   2.136   2.550   8.437  0.3607 -0.4604  2.7547
  520MOL0     H70186   1.927   2.859   8.848 -0.5270  0.0017  0.3799
  520MOL0     H70187   1.795   2.818   9.045 -2.1051 -0.1877 -0.0127
  520MOL0     H70188   1.539   2.752   9.092  2.1759 -0.6265 -0.6337
  520MOL0     H70189   1.673   2.768   9.205 -0.2341 -0.3717  2.0233
  520MOL0     H70190   1.472   2.760   9.318  0.2073  0.0223 -0.2470
  520MOL0     H70191   1.578   2.634   9.359 -2.4316  1.0859  1.7227
  520MOL0     H70192   1.437   2.468   9.246  1.7279  0.3922  2.1607
  520MOL0     H70193   1.380   2.583   9.134  1.9896  0.7760 -0.4944
  520MOL0     H70194   1.241   2.705   9.312 -3.0022  0.3609  2.7140
  520MOL0     H70195   1.201   2.531   9.303  0.0491  0.3974 -1.6097
  520MOL0     H70196   1.384   2.521   9.675  2.3180  0.1886 -0.5479
  520MOL0     H70197   1.706   2.414   8.907  0.5130 -0.7035 -0.7307
  520MOL0     H70198   1.928   2.361   8.663 -1.5160 -0.9762  1.3776
  520MOL0     H70199   1.772   2.327   8.718  2.1755 -1.9677  1.7460
  520MOL0     H70200   1.787   2.438   8.585 -1.8789  0.0531  0.4408
  521MOL0     O70201   9.761   8.217   5.466  0.2068  0.4654 -0.1022
  521MOL0     C70202   9.704   8.289   5.386 -0.3674 -0.0482 -0.0267
  521MOL0     O70203   9.750   8.417   5.349  0.1329  0.7087  0.5978
  521MOL0     C70204   9.873   8.451   5.396  0.4653 -0.3089 -0.8603
  521MOL0     C70205   9.883   8.479   5.537 -0.5076 -0.1035 -0.0880
  521MOL0     C70206  10.007   8.488   5.593  0.3078  0.7544 -0.0077
  521MOL0     C70207  10.117   8.490   5.510 -0.6482  0.4303  0.2574
  521MOL0     O70208  10.246   8.493   5.562 -0.5546  0.1373  0.2766
  521MOL0     C70209  10.286   8.600   5.659  0.3800  0.7874  0.2198
  521MOL0     C70210  10.365   8.541   5.773  0.7004  0.7382 -0.3361
  521MOL0     C70211  10.503   8.491   5.738 -0.2151  0.0238 -0.5190
  521MOL0     C70212  10.601   8.601   5.713 -0.0686 -1.5158 -0.0202
  521MOL0     C70213  10.743   8.544   5.690 -0.3933 -0.1749  0.3158
  521MOL0     C70214  10.845   8.662   5.676  0.8881 -0.5511 -0.6119
  521MOL0     C70215  10.993   8.601   5.648  0.8175  0.3456  0.2495
  521MOL0     C70216  11.081   8.711   5.579  0.0662  0.7213  0.3712
  521MOL0     N70217  11.096   8.827   5.663 -0.0690  0.8511 -0.4638
  521MOL0     C70218  11.143   8.825   5.792  0.3992 -0.6168 -0.0285
  521MOL0     C70219  11.142   8.961   5.832  0.4117  0.5323  0.2226
  521MOL0     C70220  11.199   9.014   5.960 -0.1056  0.0120  0.0967
  521MOL0     C70221  11.348   9.020   5.935  0.9503  0.0443  0.0310
  521MOL0     C70222  11.409   9.068   6.063 -0.1302  0.2168 -0.2455
  521MOL0     C70223  11.562   9.047   6.060  0.2746  0.3167  0.4345
  521MOL0     O70224  11.610   9.064   6.192 -0.1653 -0.4911 -0.3047
  521MOL0     C70225  11.737   9.033   6.219 -0.0221  0.8846  0.1144
  521MOL0     C70226  11.770   9.072   6.346 -0.2312  0.0849 -0.3520
  521MOL0     C70227  11.902   9.044   6.382  0.8143 -0.1166 -0.6931
  521MOL0     C70228  11.993   8.976   6.305 -1.2181 -0.0616 -0.6034
  521MOL0     C70229  12.125   8.961   6.360 -0.3031  0.8926  0.6358
  521MOL0     O70230  12.169   9.031   6.465 -0.3694  0.5896 -0.5912
  521MOL0     C70231  12.307   9.041   6.486  0.2222  0.7309 -0.0955
  521MOL0     C70232  12.413   9.042   6.389 -0.5335  0.2624 -0.7409
  521MOL0     C70233  12.544   9.067   6.432 -0.6241 -0.2470  0.6557
  521MOL0     C70234  12.568   9.091   6.568  0.2875 -0.2759  0.1564
  521MOL0     O70235  12.693   9.116   6.601  0.3187 -0.0045  0.2007
  521MOL0     C70236  12.708   9.249   6.664 -0.3284 -0.7930  0.0555
  521MOL0     C70237  12.832   9.262   6.737  0.2525 -0.7049 -0.3548
  521MOL0     C70238  12.852   9.406   6.790  0.2557 -0.7832  0.1261
  521MOL0     C70239  12.987   9.403   6.867  0.5086 -0.1288 -0.2652
  521MOL0     C70240  13.018   9.539   6.941 -0.6137 -0.6882  0.1796
  521MOL0     C70241  13.060   9.649   6.843 -0.5100 -0.2970 -0.0430
  521MOL0     C70242  13.204   9.618   6.799 -0.0402 -0.8672 -0.1389
  521MOL0     C70243  13.317   9.642   6.913  0.6950  0.1166 -0.2240
  521MOL0    Cl70244  13.471   9.616   6.826 -0.3230  0.2330  0.1108
  521MOL0     C70245  12.471   9.080   6.658  0.8942 -0.1343 -0.8553
  521MOL0     C70246  12.341   9.071   6.614 -0.4592  0.2239 -0.1274
  521MOL0     O70247  12.191   8.865   6.310  0.2785 -0.4317 -0.6954
  521MOL0     C70248  11.961   8.928   6.175  0.3070  0.0986  0.4181
  521MOL0     C70249  11.828   8.963   6.132 -0.6653 -0.2305 -0.1387
  521MOL0     N70250  11.099   9.028   5.718 -0.3904  0.0506 -0.2893
  521MOL0     N70251  11.070   8.957   5.621  0.5976  0.7436 -0.0477
  521MOL0     C70252  10.108   8.462   5.377 -0.9522  0.0311  0.1260
  521MOL0     C70253   9.983   8.447   5.316 -0.6480  0.4156 -0.2084
  521MOL0     C70254   9.568   8.244   5.336 -0.1025 -0.1508  1.3694
  521MOL0     C70255   9.485   8.345   5.276 -0.1434  0.3021 -0.4704
  521MOL0     C70256   9.358   8.311   5.236  0.3189  0.0401 -0.2786
  521MOL0     C70257   9.322   8.180   5.222 -0.1630 -0.4436 -1.7238
  521MOL0     O70258   9.203   8.166   5.149 -0.3446 -0.1376  0.1678
  521MOL0     C70259   9.149   8.029   5.145  0.7465 -0.2980 -0.0022
  521MOL0     C70260   9.004   8.032   5.108 -0.1646  0.4545 -0.0982
  521MOL0     C70261   8.948   7.896   5.077  0.4439  0.0944 -0.4385
  521MOL0     C70262   8.813   7.915   5.014 -0.3763  1.3224  0.2199
  521MOL0     C70263   8.750   7.782   5.007 -0.1888  0.2635  0.1893
  521MOL0     C70264   8.710   7.664   4.994  0.8048  0.6567 -0.8717
  521MOL0     C70265   9.396   8.084   5.283 -0.3866 -0.3177 -0.2637
  521MOL0     C70266   9.519   8.111   5.345  0.3797 -0.4468 -0.4411
  521MOL0     C70267   9.580   8.001   5.418 -0.5121 -0.6001 -0.1016
  521MOL0     H70268   9.806   8.462   5.612  0.5195 -0.2919  0.9609
  521MOL0     H70269  10.016   8.493   5.701 -0.3297 -3.6017  0.4230
  521MOL0     H70270  10.354   8.673   5.615  2.3489 -1.5076 -0.7576
  521MOL0     H70271  10.194   8.653   5.683 -3.6473 -2.3250 -5.7196
  521MOL0     H70272  10.298   8.467   5.817 -0.9452  1.3566 -1.6750
  521MOL0     H70273  10.376   8.614   5.853  2.0911  2.4795 -2.0053
  521MOL0     H70274  10.487   8.422   5.655 -0.9471 -1.3380  0.7158
  521MOL0     H70275  10.547   8.431   5.818 -2.9756  0.2916  1.3262
  521MOL0     H70276  10.564   8.654   5.624  1.1602 -2.5322 -1.1910
  521MOL0     H70277  10.606   8.664   5.803 -1.5310 -0.4285 -0.6556
  521MOL0     H70278  10.780   8.490   5.778  1.3811  0.3395 -0.0793
  521MOL0     H70279  10.740   8.479   5.602  0.4157 -1.0941  0.9510
  521MOL0     H70280  10.813   8.723   5.591 -3.3228  0.7421  1.6169
  521MOL0     H70281  10.828   8.736   5.755 -1.3839  1.3946 -2.7780
  521MOL0     H70282  10.979   8.518   5.578  0.1398 -0.3701  1.2163
  521MOL0     H70283  11.046   8.574   5.739 -0.2705  1.0828  1.1259
  521MOL0     H70284  11.167   8.658   5.537 -2.5052 -2.9933 -0.7805
  521MOL0     H70285  11.030   8.738   5.486  3.3353  2.7485 -1.0076
  521MOL0     H70286  11.192   8.739   5.837  1.2655  0.7762  1.7685
  521MOL0     H70287  11.147   9.106   5.990 -1.7719 -0.3408 -1.5155
  521MOL0     H70288  11.185   8.948   6.046 -0.4047 -0.6191 -0.4261
  521MOL0     H70289  11.400   8.928   5.909 -1.0701 -0.5613 -2.1853
  521MOL0     H70290  11.353   9.084   5.846  0.4789 -1.4330 -1.0899
  521MOL0     H70291  11.371   9.016   6.152  1.2454  0.3096  0.4265
  521MOL0     H70292  11.385   9.172   6.084 -1.6315 -0.0820 -0.3548
  521MOL0     H70293  11.600   9.128   5.998  1.5691  0.8764  1.8952
  521MOL0     H70294  11.583   8.952   6.010 -0.6898  0.0183  0.5636
  521MOL0     H70295  11.702   9.121   6.414 -0.9536 -1.1345 -0.1633
  521MOL0     H70296  11.931   9.079   6.481 -2.9074 -0.7105  0.7855
  521MOL0     H70297  12.397   9.011   6.286 -0.5351 -1.6832 -0.1947
  521MOL0     H70298  12.628   9.074   6.364 -1.0286 -0.1549  0.1521
  521MOL0     H70299  12.711   9.329   6.590 -0.5726  3.1716  3.8952
  521MOL0     H70300  12.617   9.273   6.720 -1.0123 -2.3155 -0.3361
  521MOL0     H70301  12.825   9.204   6.829 -1.8376 -3.5526 -2.1301
  521MOL0     H70302  12.915   9.220   6.678  3.1524  1.3024  1.9766
  521MOL0     H70303  12.855   9.487   6.716 -1.3386  1.4210  2.3245
  521MOL0     H70304  12.769   9.428   6.858  1.1961  0.2876  0.9619
  521MOL0     H70305  13.072   9.371   6.807  1.0876 -2.0077  1.4394
  521MOL0     H70306  12.972   9.330   6.948 -1.1141  1.1826  0.7084
  521MOL0     H70307  13.095   9.514   7.015 -0.8984 -0.7865  0.4479
  521MOL0     H70308  12.929   9.563   7.000 -0.0609 -2.4515  1.8714
  521MOL0     H70309  12.999   9.663   6.753  1.9490  0.7596 -1.6630
  521MOL0     H70310  13.074   9.744   6.896  2.5055 -1.6084  1.7945
  521MOL0     H70311  13.222   9.691   6.719  4.2547 -1.1376  0.3786
  521MOL0     H70312  13.208   9.523   6.745 -1.4584  1.0200 -3.9040
  521MOL0     H70313  13.317   9.738   6.966 -0.5651 -0.3092  0.6018
  521MOL0     H70314  13.317   9.563   6.988 -0.5164  0.3115  0.0117
  521MOL0     H70315  12.497   9.095   6.762  4.8240 -1.5108 -1.4778
  521MOL0     H70316  12.269   9.095   6.692  1.6249  3.3380  1.0044
  521MOL0     H70317  12.026   8.878   6.105  0.2198  2.0819 -1.1927
  521MOL0     H70318  11.798   8.927   6.035 -1.7013  0.6685 -0.1774
  521MOL0     H70319  10.199   8.435   5.325 -0.7888 -0.5914  0.7219
  521MOL0     H70320   9.974   8.436   5.208 -2.9024  0.6360 -0.0943
  521MOL0     H70321   9.528   8.441   5.251  2.0183 -1.2648 -3.3688
  521MOL0     H70322   9.291   8.383   5.190 -0.9555  0.0349  1.4365
  521MOL0     H70323   9.172   7.980   5.240  1.4213  2.6325  1.4504
  521MOL0     H70324   9.200   7.975   5.064  1.7137 -1.8815  1.5646
  521MOL0     H70325   8.992   8.098   5.021 -0.0303  1.1157  0.3765
  521MOL0     H70326   8.953   8.079   5.193  1.7311  1.7585  0.3789
  521MOL0     H70327   8.924   7.847   5.172 -1.7775  1.4201 -0.2528
  521MOL0     H70328   9.029   7.840   5.029  1.0196 -0.0792  0.6863
  521MOL0     H70329   8.761   7.988   5.077 -0.0451  2.2745 -0.5829
  521MOL0     H70330   8.826   7.946   4.910 -0.5916  2.5696  0.5482
  521MOL0     H70331   8.661   7.569   4.980  1.8052 -0.2448  1.3890
  521MOL0     H70332   9.367   7.980   5.269 -2.1171  0.1923 -0.5734
  521MOL0     H70333   9.539   8.013   5.518 -2.4195 -1.8226 -0.6777
  521MOL0     H70334   9.541   7.903   5.387  1.1432 -0.7658 -1.8618
  521MOL0     H70335   9.689   7.998   5.404  0.0473  0.2295  3.1635
  522MOL0     O70336   8.373   5.416   9.913 -0.0545 -0.1661 -0.0845
  522MOL0     C70337   8.282   5.375   9.845  0.3281 -0.8170 -0.5034
  522MOL0     O70338   8.237   5.245   9.847  0.2620 -0.7605 -0.4374
  522MOL0     C70339   8.293   5.148   9.915 -0.7473  1.2533  0.3792
  522MOL0     C70340   8.413   5.090   9.868  0.2268 -0.5618 -1.1674
  522MOL0     C70341   8.468   4.975   9.927 -0.3223 -0.1746  0.1337
  522MOL0     C70342   8.399   4.923  10.042 -0.1301  0.8035 -0.1670
  522MOL0     O70343   8.429   4.805  10.105 -0.1419 -0.0952 -0.0014
  522MOL0     C70344   8.565   4.758  10.094  0.8233  0.3636  0.1893
  522MOL0     C70345   8.579   4.639  10.199 -0.0493 -0.1754 -0.2421
  522MOL0     C70346   8.568   4.505  10.127  0.5400  0.3262 -0.5656
  522MOL0     C70347   8.439   4.480  10.036  0.2119 -0.0458  0.1465
  522MOL0     C70348   8.434   4.335   9.991 -0.5058 -1.0153  0.1177
  522MOL0     C70349   8.319   4.312   9.900 -0.4459  1.3042 -1.2245
  522MOL0     C70350   8.287   4.155   9.885  0.4934  0.3080 -0.6278
  522MOL0     C70351   8.398   4.092   9.802 -0.5033 -0.4122 -0.3025
  522MOL0     N70352   8.389   3.949   9.829 -0.0993 -0.7337  0.4609
  522MOL0     C70353   8.296   3.856   9.785  0.3371 -0.1531  0.0473
  522MOL0     C70354   8.325   3.742   9.861 -0.0714  0.9534 -0.1915
  522MOL0     C70355   8.255   3.612   9.884 -0.0778 -0.2833 -0.7026
  522MOL0     C70356   8.329   3.481   9.843  0.7161  0.1820  0.6687
  522MOL0     C70357   8.357   3.485   9.698  0.7736  0.0731 -0.1319
  522MOL0     C70358   8.487   3.559   9.657 -0.1430 -0.0066 -0.4243
  522MOL0     O70359   8.490   3.575   9.512 -0.3905 -0.7107 -0.5161
  522MOL0     C70360   8.600   3.654   9.464  0.3175  0.1166 -0.4270
  522MOL0     C70361   8.696   3.717   9.546  0.8788 -0.0115 -0.4777
  522MOL0     C70362   8.807   3.783   9.491  0.3342 -0.2217 -1.0583
  522MOL0     C70363   8.816   3.785   9.352  0.1826 -0.4812 -0.6572
  522MOL0     C70364   8.941   3.834   9.288  0.2961 -1.2106 -0.0148
  522MOL0     O70365   8.965   3.771   9.174 -0.1565  0.5099  0.4265
  522MOL0     C70366   9.096   3.776   9.126  0.3936  0.3464 -0.0188
  522MOL0     C70367   9.097   3.783   8.991 -0.0728  0.4946 -0.1950
  522MOL0     C70368   9.219   3.765   8.921 -0.4481 -0.2256  0.7261
  522MOL0     C70369   9.338   3.742   8.990 -1.1651 -0.4161  0.4184
  522MOL0     O70370   9.466   3.725   8.932  0.6954  0.5917 -0.3159
  522MOL0     C70371   9.475   3.766   8.800  0.1467  0.5913 -0.7013
  522MOL0     C70372   9.625   3.776   8.765 -0.0285 -0.5247  0.1293
  522MOL0     C70373   9.705   3.842   8.878 -1.3009 -0.3592 -0.3559
  522MOL0     C70374   9.851   3.872   8.842  0.1634  0.1283 -0.2005
  522MOL0     C70375   9.921   3.976   8.950 -0.1667 -0.2738 -0.3961
  522MOL0     C70376   9.859   4.117   8.946  0.0009  0.6094 -0.5038
  522MOL0     C70377   9.904   4.215   9.058 -0.8143  0.3227  0.5039
  522MOL0     C70378  10.051   4.240   9.069 -0.2242 -0.6954  0.4698
  522MOL0    Cl70379  10.071   4.363   9.188  0.0987 -0.2627 -0.7694
  522MOL0     C70380   9.339   3.740   9.133  0.0025  0.2387  0.0145
  522MOL0     C70381   9.213   3.764   9.200  0.6238  0.4030 -0.5478
  522MOL0     O70382   9.004   3.931   9.332  0.2606 -0.4365 -0.4987
  522MOL0     C70383   8.709   3.728   9.266 -1.1386  0.2791  0.3042
  522MOL0     C70384   8.602   3.667   9.325 -0.0314 -0.8495 -0.2485
  522MOL0     N70385   8.448   3.763   9.910 -1.2750 -0.6219 -0.7604
  522MOL0     N70386   8.482   3.883   9.898  0.8948  0.1102 -0.5452
  522MOL0     C70387   8.283   4.983  10.087  0.4288  0.3502 -0.0973
  522MOL0     C70388   8.230   5.095  10.027  0.1060 -0.0549 -0.0136
  522MOL0     C70389   8.231   5.467   9.733 -0.2172 -0.2075 -0.1850
  522MOL0     C70390   8.103   5.427   9.685 -0.4933 -0.3129  0.1678
  522MOL0     C70391   8.047   5.498   9.583  0.2289 -0.4134  0.0712
  522MOL0     C70392   8.108   5.602   9.521 -0.1589  1.1426  0.4232
  522MOL0     O70393   8.047   5.652   9.408 -0.4269 -0.4594  0.1856
  522MOL0     C70394   7.968   5.760   9.442  0.6956 -0.9704  0.1677
  522MOL0     C70395   7.876   5.814   9.334  0.6862  0.9477  0.1496
  522MOL0     C70396   7.940   5.904   9.231 -0.0607 -0.2681  0.0237
  522MOL0     C70397   7.873   5.901   9.091 -0.5074  0.0522  0.2730
  522MOL0     C70398   7.742   5.967   9.104 -0.0381 -0.1448 -0.8122
  522MOL0     C70399   7.630   5.995   9.108 -0.2328  0.2194 -0.2131
  522MOL0     C70400   8.229   5.653   9.564  0.0430 -0.0722  0.1459
  522MOL0     C70401   8.284   5.594   9.683 -0.0389  0.3704  0.2194
  522MOL0     C70402   8.415   5.650   9.729  0.2109 -0.2866  0.8427
  522MOL0     H70403   8.465   5.142   9.788 -0.1898 -1.5031 -2.0755
  522MOL0     H70404   8.562   4.936   9.889  1.5668  3.9597 -0.0369
  522MOL0     H70405   8.583   4.724   9.991 -3.9154  0.4530 -0.9184
  522MOL0     H70406   8.626   4.840  10.131 -0.7761  0.5040  2.7509
  522MOL0     H70407   8.507   4.646  10.281 -1.2792  0.0041 -1.2927
  522MOL0     H70408   8.681   4.636  10.238 -0.1922 -0.5469  0.1067
  522MOL0     H70409   8.570   4.431  10.209 -0.2501  0.3147 -0.5438
  522MOL0     H70410   8.658   4.486  10.069  2.1386  0.7758  1.6225
  522MOL0     H70411   8.350   4.502  10.097  0.8796 -0.5311  1.3222
  522MOL0     H70412   8.449   4.545   9.948 -4.1826 -3.2880 -3.2138
  522MOL0     H70413   8.524   4.317   9.930 -0.6211  1.1639 -0.8052
  522MOL0     H70414   8.439   4.268  10.077  4.4722 -1.9874 -0.5703
  522MOL0     H70415   8.223   4.347   9.940 -1.4379 -1.4261 -1.0157
  522MOL0     H70416   8.332   4.364   9.805 -1.2501 -0.9365 -2.6511
  522MOL0     H70417   8.195   4.141   9.828  0.0697  1.2646 -0.1997
  522MOL0     H70418   8.278   4.103   9.981  0.9868  0.9140 -0.2459
  522MOL0     H70419   8.392   4.115   9.695 -0.4453 -1.5855 -0.5714
  522MOL0     H70420   8.497   4.136   9.816 -0.7878 -0.3844  2.0117
  522MOL0     H70421   8.209   3.876   9.723  0.1670 -0.5388  0.1607
  522MOL0     H70422   8.230   3.605   9.990 -1.8631  0.9090 -0.9942
  522MOL0     H70423   8.158   3.612   9.832 -0.1338 -0.2567 -0.5995
  522MOL0     H70424   8.414   3.465   9.910  2.6028  2.3517 -1.0389
  522MOL0     H70425   8.258   3.399   9.857  1.6090 -0.8797 -0.7249
  522MOL0     H70426   8.268   3.522   9.647  0.6900  3.3925  2.1501
  522MOL0     H70427   8.354   3.382   9.662  0.0922  0.0855 -0.1225
  522MOL0     H70428   8.566   3.490   9.686 -1.1054 -1.4140 -1.0586
  522MOL0     H70429   8.493   3.657   9.706 -2.8951 -0.0432  0.1311
  522MOL0     H70430   8.696   3.722   9.654 -2.1703  0.8884 -0.4092
  522MOL0     H70431   8.879   3.816   9.565 -2.7422  0.4133  1.8901
  522MOL0     H70432   9.017   3.817   8.925 -0.3005 -0.9385 -0.6817
  522MOL0     H70433   9.221   3.765   8.813  2.7418 -0.0528  0.7027
  522MOL0     H70434   9.419   3.691   8.744  0.1654  0.9335 -1.1845
  522MOL0     H70435   9.429   3.864   8.787 -0.1311  1.3539  4.1327
  522MOL0     H70436   9.666   3.676   8.750  0.3183 -0.7198  2.0780
  522MOL0     H70437   9.635   3.831   8.671 -0.9720 -0.6023 -0.0230
  522MOL0     H70438   9.655   3.928   8.923 -1.7200 -2.5168  3.7979
  522MOL0     H70439   9.705   3.774   8.963  0.2772 -0.8556 -0.7128
  522MOL0     H70440   9.859   3.911   8.741  0.5002 -1.0083 -0.6238
  522MOL0     H70441   9.914   3.783   8.849  1.7379  1.2926  2.9746
  522MOL0     H70442  10.028   3.987   8.931 -0.5562  0.1234 -2.6578
  522MOL0     H70443   9.909   3.937   9.051  2.3291  2.5787  1.1681
  522MOL0     H70444   9.881   4.155   8.846  0.3989 -3.6301 -2.2231
  522MOL0     H70445   9.750   4.118   8.949 -0.0193  2.6447  0.0922
  522MOL0     H70446   9.860   4.195   9.156 -0.8215  1.3428  0.7205
  522MOL0     H70447   9.860   4.308   9.022 -0.2512 -0.6193 -2.9883
  522MOL0     H70448  10.117   4.161   9.107  3.5244  1.4749 -0.9486
  522MOL0     H70449  10.088   4.266   8.969 -1.8298 -2.0994 -0.5321
  522MOL0     H70450   9.435   3.727   9.182  1.1981  0.5412 -2.0951
  522MOL0     H70451   9.203   3.758   9.308  3.6820  2.8930  0.0479
  522MOL0     H70452   8.701   3.737   9.158 -1.5385 -0.1645  0.2952
  522MOL0     H70453   8.515   3.634   9.269  1.0939 -0.7781 -2.0887
  522MOL0     H70454   8.232   4.922  10.161  0.5136  0.8019  0.3338
  522MOL0     H70455   8.141   5.148  10.059  1.4870  0.4770  3.4218
  522MOL0     H70456   8.052   5.340   9.726 -1.1639  1.2961  3.0390
  522MOL0     H70457   7.955   5.458   9.543 -0.4027  1.2066 -0.1665
  522MOL0     H70458   8.023   5.846   9.482 -0.1189  1.4116 -3.3959
  522MOL0     H70459   7.897   5.733   9.522  0.6461 -1.2219  0.0401
  522MOL0     H70460   7.803   5.873   9.391 -0.8768 -2.8736  2.5331
  522MOL0     H70461   7.828   5.731   9.281  1.2891  0.6548  0.0581
  522MOL0     H70462   8.046   5.882   9.220  0.6588  3.1999 -1.4218
  522MOL0     H70463   7.943   6.008   9.266 -0.0708  0.4072 -1.8926
  522MOL0     H70464   7.926   5.967   9.022 -2.6709  0.3230 -1.2331
  522MOL0     H70465   7.869   5.799   9.051 -1.1447  0.5656 -1.0074
  522MOL0     H70466   7.524   6.009   9.119 -0.6936 -1.8471 -1.5309
  522MOL0     H70467   8.285   5.736   9.523 -0.1502  0.2890  0.5943
  522MOL0     H70468   8.498   5.621   9.664 -0.2304  1.5138 -0.5974
  522MOL0     H70469   8.412   5.759   9.727 -0.2326 -0.2769 -2.1329
  522MOL0     H70470   8.430   5.621   9.834 -0.1558 -5.1032 -0.1988
  523MOL0     O70471   3.462   6.585   3.992 -0.1563 -0.1682 -0.4123
  523MOL0     C70472   3.382   6.487   3.977 -0.0174  0.0572 -0.0179
  523MOL0     O70473   3.418   6.365   3.933  0.4384  0.6797  0.3067
  523MOL0     C70474   3.552   6.354   3.899  0.0770 -0.3228 -0.1089
  523MOL0     C70475   3.639   6.339   4.005 -0.1562 -0.1201 -0.4735
  523MOL0     C70476   3.774   6.310   3.976  0.2915 -0.5850  0.1408
  523MOL0     C70477   3.821   6.315   3.845  0.3679 -0.9151 -0.4844
  523MOL0     O70478   3.958   6.293   3.838  0.1073  0.0191 -0.1325
  523MOL0     C70479   4.017   6.302   3.708 -0.0637 -0.0626  0.6672
  523MOL0     C70480   4.165   6.299   3.728  0.0677 -0.4046  0.9108
  523MOL0     C70481   4.219   6.155   3.750 -0.9798  0.3556  0.5371
  523MOL0     C70482   4.360   6.165   3.797  0.4302  0.6542  0.9338
  523MOL0     C70483   4.413   6.025   3.790 -0.5289  0.3556 -0.5412
  523MOL0     C70484   4.560   6.013   3.835  0.0205  0.5609 -0.5855
  523MOL0     C70485   4.610   5.867   3.815 -1.0682  0.3089 -0.8093
  523MOL0     C70486   4.753   5.846   3.879  0.3088 -0.2880  1.2645
  523MOL0     N70487   4.816   5.736   3.807  0.3628  0.2162 -0.4965
  523MOL0     C70488   4.903   5.738   3.709 -0.6047  0.7384  0.5372
  523MOL0     C70489   4.895   5.610   3.664  0.5421 -0.0443  0.9485
  523MOL0     C70490   4.965   5.556   3.547 -0.8708 -0.1457  0.9505
  523MOL0     C70491   5.114   5.586   3.550 -0.4983 -0.2625  0.0787
  523MOL0     C70492   5.179   5.514   3.429  0.5011  0.2682  0.3903
  523MOL0     C70493   5.322   5.556   3.417  0.5844  0.8768 -0.1932
  523MOL0     O70494   5.398   5.516   3.532 -0.4468  0.0040 -0.1659
  523MOL0     C70495   5.527   5.562   3.541 -0.0566 -0.2489  0.1262
  523MOL0     C70496   5.605   5.529   3.651 -0.2041 -0.1552 -1.0354
  523MOL0     C70497   5.739   5.563   3.664 -0.4715 -0.1518  0.2710
  523MOL0     C70498   5.803   5.642   3.575 -0.4103 -0.0045 -0.9704
  523MOL0     C70499   5.938   5.697   3.590 -0.6093  0.5746  0.0802
  523MOL0     O70500   6.007   5.644   3.688  0.0797  0.0046 -0.6439
  523MOL0     C70501   6.135   5.693   3.705 -0.1568  0.5747  0.2612
  523MOL0     C70502   6.232   5.594   3.704  0.1228  0.2181  0.2936
  523MOL0     C70503   6.369   5.626   3.732  0.5143  0.3260 -0.1135
  523MOL0     C70504   6.404   5.763   3.750 -0.7196  1.0174 -0.9217
  523MOL0     O70505   6.538   5.795   3.753 -0.1183  0.2611  0.1228
  523MOL0     C70506   6.601   5.803   3.881  1.1348 -0.3204  0.6389
  523MOL0     C70507   6.661   5.670   3.926 -0.2164 -0.5466 -0.7573
  523MOL0     C70508   6.693   5.675   4.076  0.9626 -0.4702  0.4081
  523MOL0     C70509   6.759   5.553   4.129 -0.4013  0.4702  0.3849
  523MOL0     C70510   6.832   5.582   4.258  0.4930  0.7576 -0.0004
  523MOL0     C70511   6.738   5.627   4.370  0.5167 -0.0445 -0.3504
  523MOL0     C70512   6.784   5.610   4.515  0.7301 -0.6040  0.5113
  523MOL0     C70513   6.917   5.677   4.539  0.1859  0.2626 -0.2115
  523MOL0    Cl70514   6.889   5.855   4.528 -0.0632  0.1533 -0.1964
  523MOL0     C70515   6.303   5.858   3.761 -0.6480 -0.7176  0.0094
  523MOL0     C70516   6.168   5.828   3.734  0.1593  0.3357  0.7286
  523MOL0     O70517   5.986   5.768   3.499 -0.8413  0.0244 -0.2496
  523MOL0     C70518   5.723   5.691   3.472  0.1667  0.1185 -0.1235
  523MOL0     C70519   5.592   5.641   3.446  0.1473 -0.4267  0.8611
  523MOL0     N70520   4.812   5.536   3.740  0.7060  0.1921 -0.8011
  523MOL0     N70521   4.752   5.607   3.826 -0.4373  0.6168  0.3553
  523MOL0     C70522   3.726   6.339   3.740 -1.5456 -0.3536 -0.9039
  523MOL0     C70523   3.591   6.359   3.772 -0.0052  0.2532 -0.0313
  523MOL0     C70524   3.240   6.504   4.035  0.6586  0.6470 -1.0413
  523MOL0     C70525   3.175   6.382   4.090 -0.0703 -0.1057 -0.0105
  523MOL0     C70526   3.039   6.386   4.139  0.2428  0.0701  0.4551
  523MOL0     C70527   2.967   6.501   4.118  0.4372 -0.8212 -0.2120
  523MOL0     O70528   2.844   6.512   4.175  0.0450  0.3956 -0.5495
  523MOL0     C70529   2.755   6.607   4.113  0.3030  0.0463 -0.2860
  523MOL0     C70530   2.611   6.574   4.151 -0.7195  0.7954  0.6019
  523MOL0     C70531   2.510   6.680   4.113  0.1884  0.3921 -0.3605
  523MOL0     C70532   2.366   6.635   4.124  1.1407 -0.1935  0.5275
  523MOL0     C70533   2.327   6.577   4.254 -0.4736  0.4476 -0.9221
  523MOL0     C70534   2.296   6.509   4.346 -0.1070 -0.2428  0.0074
  523MOL0     C70535   3.029   6.618   4.068 -0.3646 -1.3339  0.4632
  523MOL0     C70536   3.165   6.622   4.028  0.0988  0.0184 -1.0090
  523MOL0     C70537   3.214   6.766   3.985  0.0615 -0.3261  0.3408
  523MOL0     H70538   3.614   6.356   4.109  3.4007 -0.4247  0.5678
  523MOL0     H70539   3.846   6.291   4.055  0.6725  2.1810  0.5259
  523MOL0     H70540   3.982   6.224   3.640 -0.4776 -0.5869  1.4678
  523MOL0     H70541   3.990   6.394   3.655  0.1117 -1.3036 -1.7040
  523MOL0     H70542   4.205   6.347   3.818  2.2541 -2.0535  0.9294
  523MOL0     H70543   4.222   6.352   3.651 -1.1111  0.8306  0.8536
  523MOL0     H70544   4.203   6.100   3.657 -0.6292 -1.9033  1.7406
  523MOL0     H70545   4.161   6.103   3.827 -0.7574  2.4010  2.1537
  523MOL0     H70546   4.419   6.239   3.742  1.7438 -1.2097 -0.3044
  523MOL0     H70547   4.349   6.197   3.901 -3.0715  1.6200  0.4088
  523MOL0     H70548   4.349   5.960   3.850 -2.5682  1.7010 -1.1490
  523MOL0     H70549   4.404   5.989   3.687 -0.7941 -0.2918 -0.2982
  523MOL0     H70550   4.628   6.080   3.782  1.4134 -0.9500 -0.8007
  523MOL0     H70551   4.569   6.028   3.943 -1.5529 -1.1933 -0.1622
  523MOL0     H70552   4.610   5.837   3.710  1.7474 -1.4207 -0.4229
  523MOL0     H70553   4.540   5.799   3.866  1.4366 -0.8356  1.3447
  523MOL0     H70554   4.806   5.941   3.881 -2.3279  1.3129  0.8469
  523MOL0     H70555   4.743   5.825   3.986  3.3137  2.0913  2.1566
  523MOL0     H70556   4.945   5.826   3.661  1.0312  2.2230  4.3501
  523MOL0     H70557   4.945   5.449   3.544 -4.3528  0.3747  1.6968
  523MOL0     H70558   4.938   5.604   3.452 -0.4613 -2.1672 -0.2385
  523MOL0     H70559   5.128   5.693   3.535 -2.8065  0.3944  2.0292
  523MOL0     H70560   5.160   5.559   3.646  0.4686 -0.6936 -0.4873
  523MOL0     H70561   5.128   5.536   3.335  0.7681 -1.6740 -0.2651
  523MOL0     H70562   5.176   5.404   3.431  0.8863  0.2219 -0.9434
  523MOL0     H70563   5.317   5.664   3.400 -2.8225  0.7406 -0.7142
  523MOL0     H70564   5.353   5.508   3.324 -3.5440 -2.2376 -0.2483
  523MOL0     H70565   5.559   5.464   3.725  0.5452 -0.2439 -0.6295
  523MOL0     H70566   5.796   5.523   3.748 -1.5356 -1.8590  0.2425
  523MOL0     H70567   6.202   5.495   3.672  1.8647  0.1641 -1.3907
  523MOL0     H70568   6.449   5.555   3.751  0.7549  1.0036  1.5407
  523MOL0     H70569   6.677   5.882   3.872  0.3490  0.5743  1.5896
  523MOL0     H70570   6.528   5.832   3.957  0.3983  0.5715 -0.3782
  523MOL0     H70571   6.581   5.596   3.921 -0.7243 -0.1032  0.4624
  523MOL0     H70572   6.746   5.641   3.863 -0.3938 -1.9233 -0.3904
  523MOL0     H70573   6.768   5.755   4.082  0.8236  0.3032 -4.3908
  523MOL0     H70574   6.605   5.683   4.141  0.5108 -2.9430  0.2040
  523MOL0     H70575   6.829   5.508   4.058 -1.8848 -1.1385 -0.1570
  523MOL0     H70576   6.674   5.483   4.131 -0.5561  0.6057 -0.6663
  523MOL0     H70577   6.907   5.656   4.228  1.4466 -0.3948 -0.5246
  523MOL0     H70578   6.880   5.487   4.282 -3.7374 -2.1525 -1.7610
  523MOL0     H70579   6.715   5.731   4.343  1.1434 -0.2297 -1.6687
  523MOL0     H70580   6.642   5.576   4.358 -1.2621  2.5540  1.5094
  523MOL0     H70581   6.792   5.502   4.530 -1.1908 -0.7059  1.0281
  523MOL0     H70582   6.711   5.646   4.588  0.4141  2.5863 -1.1952
  523MOL0     H70583   6.937   5.650   4.643 -0.4895  1.2509  0.1920
  523MOL0     H70584   6.995   5.643   4.470  0.1539  3.2115 -1.8566
  523MOL0     H70585   6.330   5.960   3.787 -3.5435 -0.3792  2.0640
  523MOL0     H70586   6.095   5.908   3.737 -1.7104 -0.9787 -2.8985
  523MOL0     H70587   5.775   5.761   3.407  3.0911 -1.8181 -0.0597
  523MOL0     H70588   5.541   5.674   3.356  2.3654  1.7379  0.2952
  523MOL0     H70589   3.763   6.342   3.638  2.3355 -0.3965  0.3540
  523MOL0     H70590   3.521   6.377   3.691  2.3490 -3.3561 -3.2914
  523MOL0     H70591   3.225   6.287   4.102 -0.1982 -0.2027 -0.2540
  523MOL0     H70592   3.001   6.300   4.193 -1.7445  0.6548  0.0487
  523MOL0     H70593   2.749   6.609   4.004 -2.0978  1.7382 -0.2183
  523MOL0     H70594   2.784   6.705   4.151 -0.1437  0.3913 -0.8096
  523MOL0     H70595   2.607   6.559   4.259 -0.0873 -1.1500  0.3962
  523MOL0     H70596   2.584   6.476   4.111 -0.6058  0.3247  1.6623
  523MOL0     H70597   2.539   6.728   4.019  0.9739 -0.3179 -0.5019
  523MOL0     H70598   2.521   6.745   4.200  2.8381 -1.4024  0.7975
  523MOL0     H70599   2.307   6.722   4.096 -0.0322 -2.0913 -3.7245
  523MOL0     H70600   2.346   6.563   4.043  1.2383 -1.0743  1.2657
  523MOL0     H70601   2.270   6.428   4.412  1.5949 -0.2947  0.6556
  523MOL0     H70602   2.972   6.710   4.065  0.9626 -0.4921 -0.1054
  523MOL0     H70603   3.311   6.804   4.017 -0.5730  2.1335 -0.4286
  523MOL0     H70604   3.214   6.765   3.876 -0.1801 -2.0726  0.3330
  523MOL0     H70605   3.135   6.831   4.026 -0.9677 -1.5175  0.3039
  524MOL0     O70606   0.374   1.920   2.337  0.3630 -0.7070  0.0070
  524MOL0     C70607   0.320   1.818   2.300 -0.6185  0.8387 -0.7567
  524MOL0     O70608   0.366   1.689   2.312 -0.4396  0.2173 -0.8678
  524MOL0     C70609   0.494   1.682   2.362 -0.2856 -0.5616  0.0216
  524MOL0     C70610   0.505   1.662   2.499  0.1824 -0.2771  0.4099
  524MOL0     C70611   0.631   1.651   2.562 -0.3342 -0.0571  0.0910
  524MOL0     C70612   0.747   1.670   2.490  0.2213  0.5082  1.3640
  524MOL0     O70613   0.870   1.660   2.545  0.4099  0.0509  0.2497
  524MOL0     C70614   0.881   1.677   2.688  0.1937  0.0460 -0.3420
  524MOL0     C70615   1.026   1.695   2.731  0.2065 -0.0786 -0.3360
  524MOL0     C70616   1.062   1.673   2.882  0.3826  0.2813 -0.2132
  524MOL0     C70617   0.969   1.767   2.972  0.3718  0.7185  0.0277
  524MOL0     C70618   1.013   1.754   3.116 -0.0658  0.0767 -0.6820
  524MOL0     C70619   1.152   1.802   3.150  0.6702  0.1455  0.8883
  524MOL0     C70620   1.168   1.945   3.109 -0.0239  0.0540  0.7288
  524MOL0     C70621   1.293   2.013   3.174 -0.3483  0.2703 -0.0943
  524MOL0     N70622   1.284   2.015   3.321 -0.1289  0.0758  0.0866
  524MOL0     C70623   1.173   2.051   3.390 -0.6717  0.1255  0.1870
  524MOL0     C70624   1.204   2.036   3.520 -1.1756  0.3057  0.0774
  524MOL0     C70625   1.110   2.058   3.635 -0.6130 -0.4999  0.7072
  524MOL0     C70626   1.021   1.937   3.676 -0.0451  0.7223  0.3047
  524MOL0     C70627   1.091   1.827   3.762 -1.2140 -0.8416 -0.3438
  524MOL0     C70628   1.162   1.889   3.877  0.6473  0.6739 -0.5854
  524MOL0     O70629   1.236   1.797   3.957 -0.2739  0.6324  0.1726
  524MOL0     C70630   1.376   1.788   3.938 -0.4593  0.4511  0.2564
  524MOL0     C70631   1.458   1.764   4.045 -0.8690  0.0006 -0.3772
  524MOL0     C70632   1.602   1.764   4.038  0.2193 -0.0341 -0.4497
  524MOL0     C70633   1.661   1.778   3.916  0.0352 -0.2196  0.1747
  524MOL0     C70634   1.804   1.804   3.905 -0.5741  0.3244  0.1048
  524MOL0     O70635   1.861   1.850   4.024 -0.1763  0.1787 -0.4170
  524MOL0     C70636   1.986   1.884   4.044  0.1695 -1.2052  0.9520
  524MOL0     C70637   2.078   1.918   3.949 -0.3898  0.2937  0.9442
  524MOL0     C70638   2.208   1.945   3.978  0.3088 -0.5346 -0.6412
  524MOL0     C70639   2.252   1.930   4.115 -0.2846 -0.2072  0.3962
  524MOL0     O70640   2.384   1.949   4.151  0.4609 -0.2707  0.4487
  524MOL0     C70641   2.426   2.064   4.230 -0.1157  0.3927 -0.2322
  524MOL0     C70642   2.567   2.045   4.288  0.4405 -0.2804  0.0309
  524MOL0     C70643   2.668   2.091   4.175 -0.4305 -0.7590  0.7564
  524MOL0     C70644   2.815   2.095   4.219  0.4504  0.2273 -0.3565
  524MOL0     C70645   2.911   2.162   4.109  0.0249 -0.0108 -0.3640
  524MOL0     C70646   3.052   2.159   4.157 -0.1064 -0.0943 -0.3665
  524MOL0     C70647   3.084   2.296   4.217 -0.5205  0.0985  0.5919
  524MOL0     C70648   3.220   2.286   4.276 -0.6824 -0.8631 -0.8097
  524MOL0    Cl70649   3.329   2.400   4.200 -0.3831  0.0588  0.3131
  524MOL0     C70650   2.164   1.887   4.210  0.1767 -0.9027 -0.4247
  524MOL0     C70651   2.026   1.868   4.179  0.5221 -0.3380 -0.2703
  524MOL0     O70652   1.865   1.787   3.801 -0.5540 -0.8950  0.3317
  524MOL0     C70653   1.578   1.809   3.804 -0.4167 -0.4151  0.1665
  524MOL0     C70654   1.439   1.810   3.810  0.2135 -0.3038 -0.8837
  524MOL0     N70655   1.332   1.977   3.537 -0.6605  0.9854 -0.0119
  524MOL0     N70656   1.369   1.959   3.412 -0.7567  0.1865  0.6525
  524MOL0     C70657   0.733   1.688   2.347 -0.7559 -0.3833  0.0406
  524MOL0     C70658   0.607   1.690   2.288  0.0077 -0.8095  0.2593
  524MOL0     C70659   0.190   1.835   2.221  0.1163 -0.4097  0.1192
  524MOL0     C70660   0.138   1.729   2.145 -0.1259 -0.8907  0.1870
  524MOL0     C70661   0.023   1.745   2.076 -0.4301  0.2657  0.1116
  524MOL0     C70662  -0.045   1.868   2.071  0.6900  1.1251  0.1779
  524MOL0     O70663  -0.171   1.877   2.013  0.2774 -0.6447 -0.4433
  524MOL0     C70664  -0.209   1.782   1.910  0.1038  0.6449 -0.4832
  524MOL0     C70665  -0.343   1.825   1.858 -0.3564 -0.1268  0.2798
  524MOL0     C70666  -0.421   1.714   1.786 -0.1266  0.4416 -0.2325
  524MOL0     C70667  -0.574   1.720   1.811 -0.6998  0.1001  0.8973
  524MOL0     C70668  -0.626   1.858   1.791 -0.4174 -0.2575  0.9919
  524MOL0     C70669  -0.654   1.981   1.792  0.3373  0.1792  0.2600
  524MOL0     C70670   0.002   1.976   2.145  0.6738  0.0507 -0.3704
  524MOL0     C70671   0.115   1.961   2.228 -0.6335 -0.1406  0.1549
  524MOL0     C70672   0.143   2.081   2.316 -0.3113 -0.3710  0.2311
  524MOL0     H70673   0.420   1.661   2.566 -0.3301  2.2246 -0.1003
  524MOL0     H70674   0.635   1.644   2.670  0.5003  1.6824  0.2093
  524MOL0     H70675   0.814   1.761   2.708 -1.9010 -2.0221  1.9113
  524MOL0     H70676   0.829   1.599   2.744  0.8768  0.2450  0.6039
  524MOL0     H70677   1.056   1.798   2.708  0.6765 -0.3300 -0.8763
  524MOL0     H70678   1.091   1.629   2.673  1.4875 -0.9766  1.9845
  524MOL0     H70679   1.169   1.678   2.904  0.4813 -0.7020 -0.4387
  524MOL0     H70680   1.036   1.568   2.901 -1.3703  1.2569  3.8640
  524MOL0     H70681   0.963   1.873   2.949 -0.9110  0.3401 -1.5616
  524MOL0     H70682   0.873   1.714   2.963  0.4919  0.2599  1.2874
  524MOL0     H70683   0.944   1.810   3.179  3.3106 -1.1330  4.7454
  524MOL0     H70684   0.996   1.651   3.149 -1.3728  0.3502 -0.4748
  524MOL0     H70685   1.154   1.804   3.260  1.6039  3.8448  0.9506
  524MOL0     H70686   1.235   1.742   3.112 -0.1174  0.2171 -1.0469
  524MOL0     H70687   1.084   2.013   3.125  0.1466  1.0654 -2.1457
  524MOL0     H70688   1.175   1.951   3.000 -1.0329  3.7424  0.7354
  524MOL0     H70689   1.386   1.962   3.147 -0.2009  0.4563  0.0520
  524MOL0     H70690   1.299   2.115   3.136 -4.3037  0.5878 -0.2636
  524MOL0     H70691   1.079   2.077   3.343 -0.3005  0.4721 -0.3643
  524MOL0     H70692   1.151   2.104   3.725 -2.7413 -0.3384  1.6447
  524MOL0     H70693   1.044   2.135   3.595 -0.5643 -0.0575  1.4667
  524MOL0     H70694   0.932   1.966   3.731 -0.2067 -0.4382  0.6787
  524MOL0     H70695   0.986   1.878   3.590  2.4122 -4.6669  2.5019
  524MOL0     H70696   1.166   1.786   3.695 -1.3696  3.3320 -3.4864
  524MOL0     H70697   1.025   1.746   3.796 -1.0171 -1.3526 -1.1518
  524MOL0     H70698   1.085   1.924   3.946 -1.1353 -2.6973 -0.6292
  524MOL0     H70699   1.233   1.968   3.851  2.2890 -1.2431 -2.3659
  524MOL0     H70700   1.418   1.755   4.146  0.0085 -0.4972 -0.0606
  524MOL0     H70701   1.666   1.740   4.121  0.0253 -0.9993 -0.5590
  524MOL0     H70702   2.029   1.944   3.856  0.8870  2.2380  0.7498
  524MOL0     H70703   2.271   1.976   3.895  2.9848  0.2274  1.5261
  524MOL0     H70704   2.433   2.155   4.170  3.0947  0.2596 -0.2399
  524MOL0     H70705   2.344   2.069   4.302  0.4984 -2.2083  0.7557
  524MOL0     H70706   2.576   2.095   4.385  1.8169 -1.3941  0.5055
  524MOL0     H70707   2.583   1.939   4.309  4.2697  0.5122  1.9206
  524MOL0     H70708   2.658   2.038   4.081  2.0726  0.1393 -0.0977
  524MOL0     H70709   2.654   2.197   4.151  2.6162 -0.9069 -2.4607
  524MOL0     H70710   2.850   1.992   4.232  3.1533  1.2109  1.0036
  524MOL0     H70711   2.825   2.142   4.318  1.2161 -1.9132  0.6331
  524MOL0     H70712   2.889   2.265   4.078 -2.9790 -0.8736 -1.4798
  524MOL0     H70713   2.905   2.110   4.013 -1.4290  0.3260 -0.4887
  524MOL0     H70714   3.077   2.080   4.229  0.3029  0.8935  0.5992
  524MOL0     H70715   3.115   2.138   4.070 -1.7836  0.1691 -1.7064
  524MOL0     H70716   3.008   2.319   4.293  1.2661  1.0601  2.1698
  524MOL0     H70717   3.076   2.373   4.139 -0.7817  0.2063  0.7207
  524MOL0     H70718   3.214   2.292   4.385 -1.0647 -2.6756 -0.7007
  524MOL0     H70719   3.256   2.184   4.262 -0.0712 -0.8140  0.3011
  524MOL0     H70720   2.208   1.874   4.308 -2.2484  0.8202  0.9898
  524MOL0     H70721   1.953   1.837   4.252  0.1134  2.8699  0.8297
  524MOL0     H70722   1.628   1.828   3.709  2.8538  2.0780  2.1803
  524MOL0     H70723   1.372   1.824   3.726  0.7056  1.2639 -1.0358
  524MOL0     H70724   0.815   1.730   2.289 -0.2789  2.0408  2.2821
  524MOL0     H70725   0.590   1.710   2.183 -0.3647  0.9680  0.6249
  524MOL0     H70726   0.169   1.625   2.140  2.6810 -0.0951 -1.3014
  524MOL0     H70727  -0.003   1.659   2.015 -1.0374  0.9296 -0.5869
  524MOL0     H70728  -0.215   1.682   1.955  1.8565  1.4798  1.7874
  524MOL0     H70729  -0.132   1.784   1.832  0.6387  1.1647  0.0515
  524MOL0     H70730  -0.342   1.911   1.790 -1.1345 -1.4375 -1.4852
  524MOL0     H70731  -0.402   1.856   1.944 -0.9561 -1.4252  0.3611
  524MOL0     H70732  -0.385   1.617   1.821 -1.6131  0.6284  2.0654
  524MOL0     H70733  -0.406   1.719   1.678  1.2027  3.0127 -0.0142
  524MOL0     H70734  -0.627   1.646   1.749  3.0660 -1.9957 -0.1466
  524MOL0     H70735  -0.595   1.698   1.916  0.6971 -1.5661  0.8683
  524MOL0     H70736  -0.698   2.078   1.802 -0.9052 -0.0797 -2.0809
  524MOL0     H70737  -0.051   2.070   2.149  0.6285 -0.0051  0.5711
  524MOL0     H70738   0.063   2.156   2.316  0.4900  0.5397  1.8300
  524MOL0     H70739   0.160   2.035   2.414  4.0034 -2.1004 -1.1190
  524MOL0     H70740   0.235   2.129   2.281 -0.4302 -0.5858 -0.3953
  525MOL0     O70741   2.202   4.294  11.299 -0.1532 -1.2518 -0.7624
  525MOL0     C70742   2.090   4.259  11.340  0.7397 -0.6359 -0.4879
  525MOL0     O70743   2.045   4.274  11.471  0.0405  0.0477  0.0900
  525MOL0     C70744   2.092   4.368  11.552 -0.0280  0.1289 -0.1933
  525MOL0     C70745   2.094   4.505  11.514 -0.0191  0.6439  0.3230
  525MOL0     C70746   2.163   4.598  11.590  0.0489  0.2485  0.1980
  525MOL0     C70747   2.229   4.561  11.714  0.4393 -0.1725  0.5424
  525MOL0     O70748   2.300   4.636  11.801 -0.2935 -0.9629 -0.0946
  525MOL0     C70749   2.298   4.776  11.783 -0.2369 -0.0411  0.0608
  525MOL0     C70750   2.402   4.836  11.877  0.3488  0.4015 -0.4955
  525MOL0     C70751   2.405   4.993  11.865 -0.6289 -0.1524 -0.6068
  525MOL0     C70752   2.285   5.057  11.924  0.0677 -0.6998 -0.9606
  525MOL0     C70753   2.314   5.199  11.961  0.2205 -0.2226 -0.1632
  525MOL0     C70754   2.336   5.288  11.836 -0.3487  0.5399 -0.9389
  525MOL0     C70755   2.337   5.439  11.877 -0.0172 -0.9258  0.0401
  525MOL0     C70756   2.205   5.492  11.926 -0.2024  0.1039 -0.1345
  525MOL0     N70757   2.216   5.643  11.955  0.1204 -0.0236  0.0899
  525MOL0     C70758   2.276   5.691  12.066 -0.1816 -0.0761 -0.7346
  525MOL0     C70759   2.264   5.825  12.055  0.5175  0.3727 -0.0863
  525MOL0     C70760   2.304   5.929  12.151  0.1203 -0.3598 -0.2232
  525MOL0     C70761   2.427   5.887  12.233 -0.4401 -0.0179 -0.3232
  525MOL0     C70762   2.392   5.835  12.368 -0.5073 -0.0322 -0.3524
  525MOL0     C70763   2.505   5.763  12.441 -0.2017  0.4521  1.1621
  525MOL0     O70764   2.558   5.652  12.369  0.0481 -0.2722 -0.0800
  525MOL0     C70765   2.697   5.651  12.374 -0.1204 -0.7523  0.6354
  525MOL0     C70766   2.777   5.660  12.491  0.3726  0.3120  0.7008
  525MOL0     C70767   2.917   5.648  12.481  0.6519  0.4174 -0.4432
  525MOL0     C70768   2.982   5.636  12.355  0.0463 -0.2469  0.3413
  525MOL0     C70769   3.128   5.635  12.341  0.3823 -0.5803  0.5168
  525MOL0     O70770   3.191   5.617  12.218  0.2700  0.6941  0.2113
  525MOL0     C70771   3.326   5.624  12.213  0.5847 -0.5938  0.1851
  525MOL0     C70772   3.392   5.749  12.238 -0.2846  0.2229  1.4450
  525MOL0     C70773   3.527   5.757  12.206 -0.6172 -0.5080  1.2186
  525MOL0     C70774   3.605   5.658  12.139 -0.2214  0.0048  0.8752
  525MOL0     O70775   3.734   5.684  12.105 -0.5982 -0.9839 -0.4296
  525MOL0     C70776   3.796   5.579  12.027 -1.3279  0.1358 -0.2773
  525MOL0     C70777   3.946   5.610  12.003 -0.2777  0.2882 -0.3707
  525MOL0     C70778   4.049   5.552  12.106 -0.1932 -0.1378  0.4771
  525MOL0     C70779   4.197   5.586  12.074 -0.2363  0.8381 -0.6039
  525MOL0     C70780   4.286   5.476  12.141  0.4608  0.3166 -0.1787
  525MOL0     C70781   4.435   5.509  12.123  0.2844 -0.1217 -0.3064
  525MOL0     C70782   4.521   5.418  12.202  0.2058  0.6374  0.2861
  525MOL0     C70783   4.665   5.406  12.153  0.0600 -0.1482 -0.0498
  525MOL0    Cl70784   4.747   5.276  12.249  0.1373 -0.5924  0.0199
  525MOL0     C70785   3.546   5.529  12.146  0.1654 -0.1536  0.1428
  525MOL0     C70786   3.406   5.517  12.180 -0.8322 -0.8321 -0.3920
  525MOL0     O70787   3.181   5.680  12.445  0.9206 -0.8959 -0.8775
  525MOL0     C70788   2.905   5.625  12.239 -0.3496  0.2691  0.3882
  525MOL0     C70789   2.765   5.622  12.249 -0.4332  0.8441 -0.0276
  525MOL0     N70790   2.200   5.851  11.938  0.1726  0.4673  0.1033
  525MOL0     N70791   2.172   5.740  11.873 -0.3258  0.4439  0.8586
  525MOL0     C70792   2.236   4.426  11.745  0.2841 -0.5369  0.2476
  525MOL0     C70793   2.167   4.330  11.668  0.6187  1.0403  0.0812
  525MOL0     C70794   2.003   4.194  11.245 -0.6726 -0.0742  0.6018
  525MOL0     C70795   1.937   4.072  11.280 -0.9109  0.1188 -0.5243
  525MOL0     C70796   1.843   4.016  11.194 -0.4857 -0.4586 -0.0675
  525MOL0     C70797   1.819   4.072  11.070  0.6330 -0.3106  0.4054
  525MOL0     O70798   1.733   4.020  10.981 -0.7048 -0.4612  1.2398
  525MOL0     C70799   1.665   3.897  11.000  0.2702 -0.0865  0.2737
  525MOL0     C70800   1.763   3.780  10.985  0.4474  0.4040  0.2269
  525MOL0     C70801   1.700   3.649  11.028  0.8319 -0.0619  0.9026
  525MOL0     C70802   1.618   3.597  10.907 -0.2071  0.0277  0.2761
  525MOL0     C70803   1.547   3.478  10.950 -1.0487 -0.0564  0.4592
  525MOL0     C70804   1.491   3.379  10.995  0.0777  0.1249 -0.7963
  525MOL0     C70805   1.892   4.193  11.030  0.4441  0.3845  0.5826
  525MOL0     C70806   1.974   4.258  11.120 -0.0832  0.7625 -0.1681
  525MOL0     C70807   2.020   4.399  11.101 -0.4310  0.1450  0.5307
  525MOL0     H70808   2.040   4.533  11.423 -0.6542 -2.0690 -0.2399
  525MOL0     H70809   2.161   4.694  11.540 -2.3004 -1.2411 -2.8591
  525MOL0     H70810   2.323   4.797  11.678 -0.1114  0.7948  0.2460
  525MOL0     H70811   2.195   4.810  11.794 -1.1307 -3.0471  2.3660
  525MOL0     H70812   2.502   4.796  11.857 -0.3547 -1.6534 -0.1106
  525MOL0     H70813   2.369   4.809  11.978 -3.0514  1.9510 -1.0629
  525MOL0     H70814   2.420   5.008  11.757  0.9626 -1.7742 -0.6514
  525MOL0     H70815   2.494   5.023  11.920  0.3679 -3.2776 -0.3491
  525MOL0     H70816   2.207   5.047  11.849 -1.8464  0.0684  0.8361
  525MOL0     H70817   2.252   4.995  12.008 -0.9126 -2.3741 -2.4936
  525MOL0     H70818   2.227   5.237  12.016  0.8094  1.6210 -0.4139
  525MOL0     H70819   2.403   5.202  12.023  0.4748 -2.5062 -0.3539
  525MOL0     H70820   2.428   5.259  11.785 -0.4162 -2.3032  0.3710
  525MOL0     H70821   2.254   5.276  11.764 -0.3430  1.7427 -1.1750
  525MOL0     H70822   2.372   5.502  11.794  0.2858  1.7002  2.0000
  525MOL0     H70823   2.410   5.450  11.958  1.6950 -0.2300 -1.5073
  525MOL0     H70824   2.121   5.480  11.857 -1.8270 -0.0252  1.7768
  525MOL0     H70825   2.188   5.447  12.024  4.5290  0.8040  1.2925
  525MOL0     H70826   2.307   5.636  12.154  2.7001  1.8992 -0.3460
  525MOL0     H70827   2.341   6.008  12.084  2.7646 -0.7633  0.6186
  525MOL0     H70828   2.215   5.965  12.203 -0.4474 -0.8776 -0.8162
  525MOL0     H70829   2.488   5.810  12.186 -0.6197 -2.6385  3.2751
  525MOL0     H70830   2.490   5.973  12.258 -0.8677  0.2426 -0.1412
  525MOL0     H70831   2.316   5.757  12.358 -0.0122 -0.3400 -1.8819
  525MOL0     H70832   2.338   5.907  12.430 -2.6016 -2.3559  0.6868
  525MOL0     H70833   2.468   5.717  12.533  3.0136  1.4556  3.1552
  525MOL0     H70834   2.589   5.831  12.459  1.1682 -0.5990 -0.8837
  525MOL0     H70835   2.725   5.670  12.585 -5.6819  1.7059 -2.2775
  525MOL0     H70836   2.964   5.657  12.578 -0.0869 -0.3362 -0.0114
  525MOL0     H70837   3.339   5.840  12.264  2.0989  1.8939  0.8046
  525MOL0     H70838   3.576   5.852  12.221  0.9223 -0.8925 -0.8245
  525MOL0     H70839   3.789   5.478  12.068  0.7510 -0.9546 -2.4152
  525MOL0     H70840   3.742   5.578  11.933 -2.0521  0.2265  0.1303
  525MOL0     H70841   3.976   5.583  11.901  0.8974 -0.3478  0.1206
  525MOL0     H70842   3.959   5.719  11.999  4.6511 -0.0737 -1.2709
  525MOL0     H70843   4.022   5.567  12.211  1.6504 -0.9330  1.1016
  525MOL0     H70844   4.038   5.445  12.092  1.3978 -0.5325  1.9129
  525MOL0     H70845   4.223   5.691  12.084  0.7501  0.9934 -3.7052
  525MOL0     H70846   4.198   5.577  11.965  0.9082  3.5611 -0.8915
  525MOL0     H70847   4.266   5.377  12.100  3.5235 -1.0642  1.3195
  525MOL0     H70848   4.268   5.477  12.248  0.0924  1.5719 -0.2280
  525MOL0     H70849   4.451   5.501  12.015 -1.7447  0.1417 -0.6611
  525MOL0     H70850   4.463   5.610  12.154  0.3984  0.4618 -2.2116
  525MOL0     H70851   4.481   5.316  12.198  1.4499  0.1448 -0.1570
  525MOL0     H70852   4.505   5.451  12.305  0.7324  1.2787  0.1719
  525MOL0     H70853   4.665   5.372  12.049 -1.0927 -0.7355  0.1178
  525MOL0     H70854   4.712   5.503  12.165  2.2260 -0.9359 -1.6525
  525MOL0     H70855   3.592   5.444  12.098 -2.7605  0.2438 -3.9472
  525MOL0     H70856   3.364   5.416  12.175  0.2542 -1.4260  1.5968
  525MOL0     H70857   2.951   5.611  12.142  1.8325 -1.7757  1.6144
  525MOL0     H70858   2.704   5.613  12.160  1.2167 -0.6468 -1.0752
  525MOL0     H70859   2.289   4.398  11.836 -0.3885 -0.2213  0.7426
  525MOL0     H70860   2.178   4.223  11.685 -0.4559  0.9241  0.1728
  525MOL0     H70861   1.968   4.019  11.369  2.6214 -0.4321 -1.9185
  525MOL0     H70862   1.799   3.925  11.232 -2.1801  1.9083  4.3536
  525MOL0     H70863   1.579   3.883  10.934  0.7943  0.0676 -0.4400
  525MOL0     H70864   1.625   3.887  11.102 -0.3045  1.9202  0.2871
  525MOL0     H70865   1.853   3.801  11.043 -0.9335  4.2114  1.3026
  525MOL0     H70866   1.793   3.778  10.880  1.4613 -2.7996  0.4940
  525MOL0     H70867   1.635   3.661  11.115  0.1432  1.0358  0.2624
  525MOL0     H70868   1.778   3.578  11.058 -0.5335 -2.5571 -1.0658
  525MOL0     H70869   1.540   3.669  10.879  2.9279  3.8523  0.6211
  525MOL0     H70870   1.682   3.570  10.822 -1.2506 -0.7607 -0.2884
  525MOL0     H70871   1.437   3.292  11.027  2.2239  0.2124  3.7353
  525MOL0     H70872   1.866   4.213  10.926  0.5391 -2.6836 -0.1414
  525MOL0     H70873   1.930   4.447  11.060 -1.3691 -1.7710  0.2092
  525MOL0     H70874   2.059   4.457  11.185 -1.5695  1.2526  0.3295
  525MOL0     H70875   2.104   4.389  11.031 -0.8534 -2.2235  0.2790
  526MOL0     O70876   4.041   9.125   8.711  0.3494 -0.1120  0.0952
  526MOL0     C70877   4.029   9.003   8.733 -0.5959  0.9052 -0.6608
  526MOL0     O70878   4.118   8.904   8.704  0.1910  0.2994 -0.1622
  526MOL0     C70879   4.218   8.932   8.622 -0.0142  0.5308 -0.4599
  526MOL0     C70880   4.198   8.954   8.484 -0.5516  0.4972  0.5207
  526MOL0     C70881   4.314   8.967   8.396 -0.0669  0.1332  0.4681
  526MOL0     C70882   4.443   8.968   8.453  0.0269 -0.5334  0.6035
  526MOL0     O70883   4.542   8.984   8.362  0.1943 -0.2236 -0.0578
  526MOL0     C70884   4.673   8.940   8.412  0.9079  0.2427 -0.6831
  526MOL0     C70885   4.766   8.944   8.286 -0.7286 -0.2207 -0.0263
  526MOL0     C70886   4.893   8.851   8.306  0.0003 -0.7890  0.1470
  526MOL0     C70887   4.976   8.831   8.184 -0.5826  1.0146  0.4399
  526MOL0     C70888   4.909   8.740   8.070 -0.6590 -0.3659 -0.4090
  526MOL0     C70889   4.986   8.752   7.935 -0.6782 -0.1593 -0.4797
  526MOL0     C70890   4.942   8.661   7.828 -0.7468  0.4648  0.3174
  526MOL0     C70891   5.030   8.667   7.708 -0.9688  0.8059  1.2302
  526MOL0     N70892   5.163   8.620   7.734 -0.1105 -0.0538  0.8701
  526MOL0     C70893   5.200   8.492   7.713 -0.1088 -0.3261 -0.1232
  526MOL0     C70894   5.338   8.494   7.741 -0.5917 -0.0653 -0.0305
  526MOL0     C70895   5.427   8.377   7.727 -0.3327 -0.6158  0.0996
  526MOL0     C70896   5.540   8.420   7.637 -0.3912 -0.0290  0.5399
  526MOL0     C70897   5.666   8.468   7.716 -0.6465  1.2124  0.0940
  526MOL0     C70898   5.793   8.442   7.629  0.2505 -0.2521 -1.1873
  526MOL0     O70899   5.909   8.473   7.712 -0.8390 -0.1629 -0.0582
  526MOL0     C70900   6.037   8.485   7.660  0.1971 -0.5851  0.5250
  526MOL0     C70901   6.147   8.434   7.729 -0.3457  0.9464  0.3680
  526MOL0     C70902   6.279   8.444   7.686 -0.5881  0.2897  0.4674
  526MOL0     C70903   6.307   8.521   7.569 -0.5808 -0.3533 -0.3445
  526MOL0     C70904   6.448   8.526   7.510  0.0971  0.0133  0.9675
  526MOL0     O70905   6.548   8.543   7.599  1.0539  0.7838 -0.5770
  526MOL0     C70906   6.679   8.539   7.560  0.0243 -0.0300  0.1152
  526MOL0     C70907   6.764   8.447   7.626  0.4801 -0.1964  0.0373
  526MOL0     C70908   6.896   8.421   7.598  0.2456  0.2365 -0.2594
  526MOL0     C70909   6.952   8.502   7.498 -0.1454  0.2659  0.1715
  526MOL0     O70910   7.081   8.492   7.450  0.4455 -0.4809 -0.6828
  526MOL0     C70911   7.167   8.421   7.528 -0.5485  0.5176 -1.0310
  526MOL0     C70912   7.300   8.409   7.434  1.3139  0.0558 -0.3689
  526MOL0     C70913   7.427   8.435   7.516  0.3362  0.3095 -0.1257
  526MOL0     C70914   7.553   8.453   7.430  0.2370  0.4113 -0.7204
  526MOL0     C70915   7.670   8.505   7.512  0.0666  0.4211  0.0828
  526MOL0     C70916   7.724   8.395   7.615 -0.1271  0.8289 -0.5178
  526MOL0     C70917   7.828   8.445   7.716  1.0595 -0.0118  0.5914
  526MOL0     C70918   7.912   8.561   7.672 -0.6540 -0.3113  0.2394
  526MOL0    Cl70919   8.047   8.594   7.789  0.0004 -0.4206  0.3221
  526MOL0     C70920   6.873   8.603   7.434 -0.4032 -0.4908 -0.4339
  526MOL0     C70921   6.738   8.618   7.465  0.3601 -0.6760 -0.3041
  526MOL0     O70922   6.459   8.509   7.393 -0.6077  0.5296  0.4791
  526MOL0     C70923   6.194   8.576   7.499  1.0735 -0.0992  0.1695
  526MOL0     C70924   6.060   8.555   7.541 -0.3736 -0.0457  0.3207
  526MOL0     N70925   5.377   8.615   7.779 -0.0464 -0.1985 -0.3508
  526MOL0     N70926   5.272   8.689   7.780  0.2184 -0.3340 -0.0202
  526MOL0     C70927   4.461   8.945   8.583  0.0631  0.2148 -0.1449
  526MOL0     C70928   4.350   8.923   8.666  0.0489  0.2973  0.5127
  526MOL0     C70929   3.910   8.979   8.826  0.6522 -0.0373 -0.1632
  526MOL0     C70930   3.833   9.088   8.864 -0.1082 -0.0219 -0.2951
  526MOL0     C70931   3.712   9.069   8.940 -0.3508  0.3641 -0.4971
  526MOL0     C70932   3.678   8.943   8.992 -1.7564 -0.8292 -0.6582
  526MOL0     O70933   3.582   8.931   9.088 -0.0697  0.1286  0.4731
  526MOL0     C70934   3.467   8.835   9.047 -0.0286 -0.0067 -1.3880
  526MOL0     C70935   3.355   8.824   9.150  0.6880 -0.0846  0.7702
  526MOL0     C70936   3.241   8.734   9.103 -0.0827  0.3565  0.3395
  526MOL0     C70937   3.121   8.748   9.197  0.5690  0.4308 -0.2345
  526MOL0     C70938   3.002   8.677   9.155 -0.1525  0.3986  0.5388
  526MOL0     C70939   2.904   8.613   9.111  0.0102  0.6728 -0.2719
  526MOL0     C70940   3.764   8.841   8.960  0.5069  0.0633  0.5608
  526MOL0     C70941   3.867   8.846   8.866 -0.2091 -1.0449  0.2336
  526MOL0     C70942   3.927   8.715   8.828  0.5801 -0.2551  0.0645
  526MOL0     H70943   4.097   8.955   8.445 -0.3803  2.1408  0.0555
  526MOL0     H70944   4.285   8.989   8.293  0.7568 -0.3233  0.1245
  526MOL0     H70945   4.716   9.010   8.484  0.8764 -1.0946  0.6795
  526MOL0     H70946   4.668   8.843   8.462 -1.7224  0.3039 -0.7034
  526MOL0     H70947   4.795   9.049   8.277  0.3253 -0.5929 -1.2856
  526MOL0     H70948   4.713   8.906   8.199 -2.4925 -0.4785  1.1150
  526MOL0     H70949   4.857   8.756   8.346  0.3255 -0.9542  0.0537
  526MOL0     H70950   4.955   8.877   8.393 -1.1214 -1.0838  1.0614
  526MOL0     H70951   5.018   8.922   8.141  2.5498 -0.3939  0.2385
  526MOL0     H70952   5.064   8.774   8.215 -0.9254 -0.6783 -1.4752
  526MOL0     H70953   4.914   8.640   8.113 -0.7196 -0.2973 -0.2443
  526MOL0     H70954   4.806   8.766   8.046 -0.2333  0.4552 -1.3908
  526MOL0     H70955   4.974   8.857   7.905  1.6172  0.3211  0.0543
  526MOL0     H70956   5.092   8.740   7.962 -0.6411 -1.8249 -1.2487
  526MOL0     H70957   4.837   8.672   7.801 -1.5372 -4.1627  0.6784
  526MOL0     H70958   4.942   8.560   7.869 -0.7400 -0.2675 -1.4314
  526MOL0     H70959   4.985   8.598   7.635 -0.5239 -0.2000  1.8919
  526MOL0     H70960   5.031   8.769   7.668  1.0823  0.4203  0.1349
  526MOL0     H70961   5.142   8.406   7.682  1.3008 -1.4537  0.2071
  526MOL0     H70962   5.458   8.334   7.823  0.1706 -2.8294 -0.9943
  526MOL0     H70963   5.372   8.296   7.679  1.6765 -2.2489  0.4184
  526MOL0     H70964   5.572   8.329   7.585  1.0256  0.7429  0.0098
  526MOL0     H70965   5.509   8.498   7.568  1.9063  2.2144  1.8708
  526MOL0     H70966   5.674   8.403   7.804 -0.7991 -0.2867 -0.9641
  526MOL0     H70967   5.663   8.574   7.740  2.5746  2.0561 -2.5977
  526MOL0     H70968   5.794   8.510   7.544  1.9672  0.3663 -0.7046
  526MOL0     H70969   5.800   8.336   7.600 -1.5154 -0.3349 -1.3982
  526MOL0     H70970   6.129   8.374   7.817  1.0454  0.4383  0.3328
  526MOL0     H70971   6.359   8.399   7.744 -1.1796  4.0117  4.6619
  526MOL0     H70972   6.727   8.384   7.706  0.1888 -3.4450 -2.4034
  526MOL0     H70973   6.956   8.344   7.644 -1.7824 -2.8527 -2.3661
  526MOL0     H70974   7.182   8.473   7.623 -0.8642 -3.1065  1.1718
  526MOL0     H70975   7.137   8.316   7.534  1.1632  0.0373 -0.4230
  526MOL0     H70976   7.308   8.313   7.383  3.0308 -0.8478  1.4550
  526MOL0     H70977   7.299   8.482   7.352  1.2029 -0.6236 -0.9800
  526MOL0     H70978   7.414   8.529   7.571  1.2783  0.3301  0.0833
  526MOL0     H70979   7.443   8.350   7.582  0.3571  2.2738  2.6038
  526MOL0     H70980   7.521   8.528   7.357 -1.3587  1.0775  0.6216
  526MOL0     H70981   7.581   8.359   7.382 -0.1497 -0.1984  0.2252
  526MOL0     H70982   7.641   8.589   7.576  0.2277  0.2905  0.3290
  526MOL0     H70983   7.755   8.531   7.449  1.2768 -3.6436 -0.2403
  526MOL0     H70984   7.640   8.359   7.674  1.3608  0.0652  1.2494
  526MOL0     H70985   7.757   8.306   7.561 -2.3548  1.9037 -3.9631
  526MOL0     H70986   7.899   8.367   7.746 -1.2205 -3.0098 -1.2062
  526MOL0     H70987   7.778   8.482   7.806 -1.0477 -1.3455  0.0397
  526MOL0     H70988   7.951   8.519   7.579 -1.0514 -1.0751  0.4119
  526MOL0     H70989   7.838   8.641   7.662 -0.3672  0.2523  2.2461
  526MOL0     H70990   6.922   8.665   7.360  0.7853  0.4454  1.0842
  526MOL0     H70991   6.663   8.678   7.414 -0.4520  0.8347  2.4655
  526MOL0     H70992   6.205   8.623   7.402  1.1885 -1.4490 -0.4916
  526MOL0     H70993   5.980   8.608   7.490 -0.0226  1.5369  1.3503
  526MOL0     H70994   4.552   8.963   8.640 -0.5561 -1.4964  1.4725
  526MOL0     H70995   4.340   8.900   8.772  0.1160  1.2495  0.7295
  526MOL0     H70996   3.857   9.190   8.836  0.7559 -0.2112 -0.2759
  526MOL0     H70997   3.646   9.151   8.967  0.0907  0.3090  0.7851
  526MOL0     H70998   3.500   8.732   9.030 -2.0443 -1.0930  0.7052
  526MOL0     H70999   3.428   8.866   8.950 -1.7505  1.1193 -0.3825
  526MOL0     H71000   3.324   8.928   9.163 -2.0669  0.1329 -4.5471
  526MOL0     H71001   3.394   8.779   9.242  0.8893  0.4711  0.9639
  526MOL0     H71002   3.279   8.632   9.088  2.5634  1.4373 -1.0179
  526MOL0     H71003   3.215   8.776   9.006 -0.3182  0.5125  0.4725
  526MOL0     H71004   3.141   8.698   9.292 -3.9423 -3.8639 -1.1441
  526MOL0     H71005   3.094   8.853   9.215  2.7882  0.9676  0.3038
  526MOL0     H71006   2.807   8.579   9.083  0.3590 -0.5959  0.0287
  526MOL0     H71007   3.729   8.741   8.984  0.1813  0.0423  0.0189
  526MOL0     H71008   3.874   8.640   8.887 -0.7963  3.1474  3.6363
  526MOL0     H71009   3.917   8.701   8.720 -1.9409 -0.2478  0.2556
  526MOL0     H71010   4.030   8.712   8.865 -0.0678 -0.5768  1.9549
  527MOL0     O71011   6.029  11.079   3.817  0.2484 -0.9071  0.3559
  527MOL0     C71012   6.083  11.159   3.887 -0.2106 -0.2388  0.2333
  527MOL0     O71013   6.021  11.206   4.005  0.0567 -0.6290  0.5973
  527MOL0     C71014   5.915  11.140   4.059 -0.0611 -0.7530 -2.0429
  527MOL0     C71015   5.910  10.999   4.074  0.3108  1.4342  0.0907
  527MOL0     C71016   5.793  10.946   4.129  0.5206  0.2336  0.1969
  527MOL0     C71017   5.686  11.022   4.170  0.0098  0.3474  0.5598
  527MOL0     O71018   5.585  10.971   4.250  0.4300  0.6166 -0.2678
  527MOL0     C71019   5.452  11.003   4.203 -0.2096 -0.0919 -0.3766
  527MOL0     C71020   5.340  10.930   4.284 -0.8877 -0.7437  0.4611
  527MOL0     C71021   5.211  10.992   4.277  0.2634  0.0352 -0.7601
  527MOL0     C71022   5.118  10.938   4.395  0.7900  0.1421 -0.4692
  527MOL0     C71023   4.995  11.013   4.393  0.2593 -0.1654 -0.1924
  527MOL0     C71024   4.891  10.967   4.497 -0.1834  0.1078  0.3287
  527MOL0     C71025   4.763  11.057   4.477 -0.1501 -0.0225 -0.6590
  527MOL0     C71026   4.675  11.024   4.355  0.6838  0.5735 -0.5081
  527MOL0     N71027   4.538  11.077   4.366  0.7091 -0.0250 -0.3046
  527MOL0     C71028   4.500  11.199   4.420 -0.4031  0.0848  0.4086
  527MOL0     C71029   4.370  11.184   4.431  0.4899  0.1708  0.3705
  527MOL0     C71030   4.273  11.298   4.450 -0.1811  0.4355 -0.3301
  527MOL0     C71031   4.218  11.300   4.592  0.8938 -0.2156  0.7188
  527MOL0     C71032   4.322  11.314   4.705 -0.5314  0.2651 -0.4283
  527MOL0     C71033   4.357  11.462   4.747 -0.1264  0.0935 -0.6841
  527MOL0     O71034   4.440  11.541   4.656  0.8717 -1.1777 -0.3449
  527MOL0     C71035   4.566  11.509   4.623  0.8558  0.0494  0.0163
  527MOL0     C71036   4.633  11.555   4.507  0.5473 -0.1056 -0.3937
  527MOL0     C71037   4.763  11.529   4.478  0.6708  0.7152  0.3983
  527MOL0     C71038   4.837  11.456   4.565 -0.7541 -0.5154 -0.6681
  527MOL0     C71039   4.987  11.425   4.544  0.6610  0.1706  0.5727
  527MOL0     O71040   5.045  11.490   4.429  0.4609 -0.6765 -0.1193
  527MOL0     C71041   5.184  11.492   4.414 -0.3030 -0.2807  0.8709
  527MOL0     C71042   5.247  11.617   4.392 -0.1360 -0.7884 -0.2840
  527MOL0     C71043   5.386  11.625   4.362 -0.1139 -0.6392 -0.2761
  527MOL0     C71044   5.459  11.506   4.340 -0.6933  0.5554 -0.0277
  527MOL0     O71045   5.591  11.498   4.283  0.0087 -0.1853  0.6711
  527MOL0     C71046   5.675  11.597   4.342  0.0764  0.7349 -0.0304
  527MOL0     C71047   5.824  11.562   4.313 -0.6656 -0.0324  0.4139
  527MOL0     C71048   5.875  11.578   4.176  0.4304  0.7214 -0.2690
  527MOL0     C71049   5.882  11.719   4.140 -0.3213 -0.2744  0.7282
  527MOL0     C71050   5.950  11.729   4.001 -0.2346  0.8536 -0.0719
  527MOL0     C71051   6.094  11.670   4.000  0.1167 -0.3846  0.3660
  527MOL0     C71052   6.182  11.717   3.883 -1.2875 -0.9159 -0.2305
  527MOL0     C71053   6.291  11.819   3.923 -0.1199 -0.6789  0.4664
  527MOL0    Cl71054   6.420  11.816   3.791  0.0403 -0.5284  0.4071
  527MOL0     C71055   5.401  11.387   4.372 -0.1219 -0.5192 -0.4129
  527MOL0     C71056   5.264  11.370   4.419 -1.0847  0.6933 -0.0513
  527MOL0     O71057   5.045  11.359   4.627 -0.4158  0.3847  0.3086
  527MOL0     C71058   4.780  11.400   4.677  0.9122 -0.3114  0.4360
  527MOL0     C71059   4.640  11.425   4.702  0.5494 -0.2723 -1.0229
  527MOL0     N71060   4.325  11.059   4.408  0.7051  0.9700  0.2047
  527MOL0     N71061   4.428  10.999   4.362 -0.2429  0.1319 -0.3277
  527MOL0     C71062   5.692  11.166   4.150 -0.3223  0.6040 -0.0804
  527MOL0     C71063   5.806  11.222   4.090 -0.7045 -0.1575  1.1784
  527MOL0     C71064   6.214  11.215   3.846 -0.2387  0.8125  0.3840
  527MOL0     C71065   6.274  11.315   3.930  0.1906 -0.2510  0.5447
  527MOL0     C71066   6.391  11.383   3.893  0.0475  0.4273 -0.3705
  527MOL0     C71067   6.450  11.345   3.774  0.7808  0.1949 -0.0480
  527MOL0     O71068   6.563  11.400   3.733 -0.3270  0.3447 -0.2092
  527MOL0     C71069   6.626  11.509   3.803  0.0596  0.7522 -0.2123
  527MOL0     C71070   6.704  11.604   3.715 -1.0195  0.1928  0.0908
  527MOL0     C71071   6.816  11.532   3.648 -1.3393 -0.6201 -0.1706
  527MOL0     C71072   6.903  11.624   3.562  0.4359 -0.0606  0.0397
  527MOL0     C71073   6.939  11.740   3.641  0.7683 -0.0290  0.3955
  527MOL0     C71074   6.948  11.850   3.691 -0.1878  0.6810  0.4692
  527MOL0     C71075   6.403  11.239   3.700 -0.6631 -0.2106 -0.2993
  527MOL0     C71076   6.294  11.169   3.728 -0.4971 -0.0341  0.0672
  527MOL0     C71077   6.266  11.046   3.648 -0.0603  0.2387  0.3065
  527MOL0     H71078   5.991  10.931   4.051 -0.1374  1.5410 -2.0266
  527MOL0     H71079   5.776  10.841   4.153 -2.0118 -0.0892 -2.4394
  527MOL0     H71080   5.437  11.111   4.208  1.2824  0.0822  2.5597
  527MOL0     H71081   5.443  10.979   4.097 -3.2420 -0.5939 -0.1037
  527MOL0     H71082   5.376  10.928   4.387  1.3254 -0.7968 -0.2787
  527MOL0     H71083   5.332  10.828   4.243 -1.0624 -0.0632 -1.2731
  527MOL0     H71084   5.173  10.967   4.178  2.6122 -1.2312 -1.4248
  527MOL0     H71085   5.218  11.101   4.271 -0.2258  0.3710  2.6637
  527MOL0     H71086   5.103  10.830   4.387  0.0315  0.3164 -1.8098
  527MOL0     H71087   5.157  10.944   4.497 -0.7263  0.9829  0.0921
  527MOL0     H71088   5.013  11.119   4.417  1.2820  0.0478 -1.7807
  527MOL0     H71089   4.957  11.016   4.291 -3.0318  3.6203  0.8517
  527MOL0     H71090   4.878  10.859   4.503 -2.2983  0.3670  1.4351
  527MOL0     H71091   4.929  10.986   4.598  1.2268  0.9822 -0.3363
  527MOL0     H71092   4.803  11.159   4.468 -1.1283  0.2754 -1.7842
  527MOL0     H71093   4.702  11.049   4.567  1.2031 -2.1874  0.1560
  527MOL0     H71094   4.723  11.062   4.264  0.6672 -0.4059 -0.9394
  527MOL0     H71095   4.669  10.917   4.334  1.0871  0.9766 -2.9712
  527MOL0     H71096   4.557  11.291   4.426  0.4712 -0.4894  1.2784
  527MOL0     H71097   4.322  11.391   4.419  3.0911 -1.5087 -1.5533
  527MOL0     H71098   4.194  11.282   4.376  0.3177 -3.2348 -0.2654
  527MOL0     H71099   4.153  11.388   4.592  2.3600  0.9453  2.7192
  527MOL0     H71100   4.153  11.214   4.611  0.9489 -0.3860  0.1548
  527MOL0     H71101   4.414  11.257   4.690 -1.4574 -1.9317  1.5164
  527MOL0     H71102   4.275  11.261   4.789 -1.6086  1.4465 -0.2612
  527MOL0     H71103   4.395  11.478   4.849  1.3480 -0.3770 -1.1440
  527MOL0     H71104   4.262  11.517   4.738  1.3600  2.6535 -1.6491
  527MOL0     H71105   4.582  11.625   4.442 -1.3110 -0.0039  1.0713
  527MOL0     H71106   4.796  11.569   4.383 -1.9062 -1.0900 -1.4048
  527MOL0     H71107   5.191  11.708   4.377 -0.3419 -0.9399 -0.4295
  527MOL0     H71108   5.434  11.719   4.336  1.0874 -1.6171 -1.8389
  527MOL0     H71109   5.652  11.700   4.313 -1.2886  0.4373 -0.0976
  527MOL0     H71110   5.656  11.587   4.449 -1.2481  0.3053 -0.2780
  527MOL0     H71111   5.887  11.613   4.387  2.0209 -3.4947  0.8410
  527MOL0     H71112   5.844  11.455   4.324  0.7756 -0.1676 -2.4217
  527MOL0     H71113   5.973  11.530   4.169  0.7881  1.6448 -2.1408
  527MOL0     H71114   5.813  11.527   4.102 -0.2109 -0.6893  1.1749
  527MOL0     H71115   5.933  11.774   4.219 -0.6412 -0.1002  0.8177
  527MOL0     H71116   5.781  11.761   4.139 -0.5355 -0.5241 -3.2464
  527MOL0     H71117   5.959  11.837   3.985 -0.1554  1.0535  1.2447
  527MOL0     H71118   5.892  11.695   3.915  1.8835 -1.4242 -0.7094
  527MOL0     H71119   6.144  11.684   4.097 -1.0759  0.4084  0.8962
  527MOL0     H71120   6.088  11.562   3.988  2.1516 -0.7923  2.3135
  527MOL0     H71121   6.125  11.757   3.799 -0.5575  2.4168  0.7173
  527MOL0     H71122   6.240  11.630   3.851  3.1968  1.7490 -0.2644
  527MOL0     H71123   6.240  11.915   3.915 -0.6326 -1.1333 -4.0834
  527MOL0     H71124   6.339  11.794   4.018 -0.8323  0.2848  1.0952
  527MOL0     H71125   5.466  11.301   4.364 -0.3482 -0.9395  1.7240
  527MOL0     H71126   5.232  11.267   4.431 -1.3496  0.3075 -3.0924
  527MOL0     H71127   4.829  11.331   4.745 -2.1829 -2.2978  0.8921
  527MOL0     H71128   4.594  11.381   4.790 -0.4305 -3.5997 -3.0073
  527MOL0     H71129   5.619  11.242   4.176 -1.1893  1.0173 -3.2700
  527MOL0     H71130   5.821  11.328   4.076 -3.8516  0.0934 -1.4038
  527MOL0     H71131   6.221  11.349   4.019  1.0471 -0.5141  1.1766
  527MOL0     H71132   6.430  11.449   3.970 -1.6143  0.1582  0.7610
  527MOL0     H71133   6.691  11.482   3.887  1.9499 -0.1287 -1.8435
  527MOL0     H71134   6.543  11.569   3.839 -1.5278 -0.9948 -0.8257
  527MOL0     H71135   6.743  11.681   3.782 -0.6432 -1.6183  2.0496
  527MOL0     H71136   6.641  11.664   3.648 -2.1374  1.4197  2.1229
  527MOL0     H71137   6.767  11.459   3.583 -2.9001  0.1890  0.0342
  527MOL0     H71138   6.888  11.482   3.714  1.8451  1.9620 -1.4218
  527MOL0     H71139   6.993  11.571   3.530  0.8260 -0.8023  2.1787
  527MOL0     H71140   6.836  11.657   3.481  0.8046  0.9175  0.1229
  527MOL0     H71141   6.961  11.947   3.735  1.6448  2.4007 -3.3905
  527MOL0     H71142   6.469  11.204   3.622 -0.4235  0.6831 -0.5045
  527MOL0     H71143   6.200  11.074   3.565  0.3240 -3.5005 -1.4476
  527MOL0     H71144   6.360  11.013   3.605  1.6251  1.0978  3.0893
  527MOL0     H71145   6.217  10.968   3.706 -1.5642  1.2650  0.4834
  528MOL0     O71146  10.194   0.314   1.967 -0.1986 -0.2557  0.1610
  528MOL0     C71147  10.218   0.290   1.848 -0.7034  0.7768 -0.1575
  528MOL0     O71148  10.346   0.255   1.800  0.5357 -0.3155 -0.6846
  528MOL0     C71149  10.455   0.255   1.885  0.3449  0.1405  0.4755
  528MOL0     C71150  10.538   0.147   1.900 -0.5434 -0.4770  0.3765
  528MOL0     C71151  10.666   0.161   1.962 -0.0425 -0.7986 -0.3662
  528MOL0     C71152  10.705   0.291   2.014  1.2485  0.8547  0.0494
  528MOL0     O71153  10.825   0.297   2.077 -0.2993 -0.0829 -0.6378
  528MOL0     C71154  10.841   0.386   2.197 -0.3065  0.6805  0.0503
  528MOL0     C71155  10.955   0.485   2.187  0.4441 -0.4994 -0.6800
  528MOL0     C71156  10.921   0.588   2.079 -0.7796 -0.6084 -0.3071
  528MOL0     C71157  11.042   0.684   2.063  0.5367  0.0020  0.1456
  528MOL0     C71158  11.016   0.780   1.944  0.7712  0.0259 -0.7323
  528MOL0     C71159  11.147   0.868   1.916 -0.5825  0.4579 -0.2401
  528MOL0     C71160  11.121   0.994   1.837  0.7338 -1.1521  0.2976
  528MOL0     C71161  11.071   1.120   1.917 -0.1874  0.0550  0.6564
  528MOL0     N71162  11.169   1.194   1.992  0.4753  0.8057  0.4585
  528MOL0     C71163  11.205   1.167   2.121  0.4715  0.1974  0.1441
  528MOL0     C71164  11.297   1.254   2.148  0.2647  0.2134 -0.0592
  528MOL0     C71165  11.350   1.294   2.287 -0.1532 -0.2981  0.1484
  528MOL0     C71166  11.298   1.432   2.316 -0.5147  0.1742 -0.6837
  528MOL0     C71167  11.374   1.490   2.437  0.6755  0.0609  0.8224
  528MOL0     C71168  11.346   1.639   2.455  0.2124  0.9106 -0.5542
  528MOL0     O71169  11.434   1.693   2.550  0.0922 -0.0548  0.0897
  528MOL0     C71170  11.398   1.815   2.610 -0.9952  0.2132 -0.4575
  528MOL0     C71171  11.307   1.907   2.551  0.1261 -0.0882  0.7112
  528MOL0     C71172  11.273   2.030   2.612 -0.4849  0.3864  0.4747
  528MOL0     C71173  11.331   2.066   2.736 -1.4591  0.4045 -0.5292
  528MOL0     C71174  11.309   2.194   2.807 -0.3687 -1.2136  0.3550
  528MOL0     O71175  11.199   2.262   2.765 -0.6973  0.1661  0.3299
  528MOL0     C71176  11.155   2.365   2.842 -0.3006 -0.9501  0.4083
  528MOL0     C71177  11.229   2.477   2.874  0.2314  0.0520 -0.4182
  528MOL0     C71178  11.167   2.588   2.936  0.0232  0.6375  0.8943
  528MOL0     C71179  11.035   2.588   2.970 -0.5893 -0.0605  0.9412
  528MOL0     O71180  10.995   2.702   3.031 -0.3116 -0.6804 -0.3573
  528MOL0     C71181  10.885   2.689   3.115 -0.0149 -0.5159  0.1561
  528MOL0     C71182  10.887   2.826   3.182 -0.2436 -0.3667 -0.1800
  528MOL0     C71183  11.011   2.864   3.271 -0.0986 -0.5569  0.3502
  528MOL0     C71184  11.008   2.788   3.406  0.5749  0.4773 -0.2227
  528MOL0     C71185  11.109   2.835   3.500 -0.6388 -0.4506 -0.4081
  528MOL0     C71186  11.088   2.777   3.638  0.0459 -0.7980 -0.0612
  528MOL0     C71187  11.192   2.823   3.742 -0.6483  0.0268  0.2877
  528MOL0     C71188  11.338   2.784   3.719  0.1977  0.1512  0.0498
  528MOL0    Cl71189  11.440   2.857   3.842 -0.3598  0.1870  0.4280
  528MOL0     C71190  10.954   2.480   2.927 -0.5689 -0.4066  0.9258
  528MOL0     C71191  11.019   2.372   2.861  0.2183  0.2368 -0.1886
  528MOL0     O71192  11.378   2.226   2.904 -0.1409  0.0892  0.2211
  528MOL0     C71193  11.426   1.974   2.804  0.9201 -0.3124  0.8616
  528MOL0     C71194  11.466   1.860   2.726  0.3444 -0.3015  0.2069
  528MOL0     N71195  11.329   1.331   2.034  0.2505 -0.3396 -0.0395
  528MOL0     N71196  11.259   1.280   1.939  0.3647 -0.1243  1.0562
  528MOL0     C71197  10.620   0.401   2.005 -0.2123  0.0920  0.1768
  528MOL0     C71198  10.491   0.382   1.953 -1.4423 -0.3185  1.4070
  528MOL0     C71199  10.098   0.297   1.759 -1.3467  0.3731 -0.4134
  528MOL0     C71200   9.972   0.297   1.819  1.3695 -0.9060 -0.8612
  528MOL0     C71201   9.853   0.297   1.743 -0.0301  0.0114  0.7993
  528MOL0     C71202   9.856   0.281   1.607 -0.2938 -0.0335  0.3449
  528MOL0     O71203   9.737   0.266   1.547  0.5678  0.1929  0.2014
  528MOL0     C71204   9.716   0.317   1.417 -0.3580 -0.2756 -0.0748
  528MOL0     C71205   9.563   0.358   1.401 -1.2071  0.3299 -0.6553
  528MOL0     C71206   9.468   0.238   1.405 -0.6423 -0.3859 -0.3646
  528MOL0     C71207   9.463   0.184   1.552  0.7116 -0.3914 -0.7141
  528MOL0     C71208   9.325   0.140   1.572 -0.0036  0.2676 -0.5553
  528MOL0     C71209   9.207   0.095   1.587 -0.1932  0.3711 -0.2257
  528MOL0     C71210   9.980   0.264   1.544 -0.3728  0.4495  0.0076
  528MOL0     C71211  10.103   0.273   1.619 -0.8073 -0.1934 -0.1816
  528MOL0     C71212  10.230   0.257   1.540  0.6076  1.0704 -0.0995
  528MOL0     H71213  10.527   0.043   1.870  0.2264 -0.7737  1.0764
  528MOL0     H71214  10.729   0.074   1.974  0.5372 -0.2341  0.9421
  528MOL0     H71215  10.748   0.442   2.214  0.3598  1.4643  1.3198
  528MOL0     H71216  10.870   0.319   2.278 -0.0937  0.1034 -0.4990
  528MOL0     H71217  11.045   0.430   2.158  1.5792  0.3398  1.0872
  528MOL0     H71218  10.979   0.539   2.279 -0.0983 -1.6504  0.1581
  528MOL0     H71219  10.829   0.640   2.105 -0.3155 -1.0486  2.6834
  528MOL0     H71220  10.909   0.529   1.988 -3.8946 -0.2706 -0.2258
  528MOL0     H71221  11.050   0.751   2.149  1.6678 -0.5920  0.5129
  528MOL0     H71222  11.130   0.621   2.046  0.6942  0.2171  0.1610
  528MOL0     H71223  10.989   0.726   1.852  0.1000 -2.0323  0.6050
  528MOL0     H71224  10.936   0.850   1.964  0.6542  0.4897 -2.6021
  528MOL0     H71225  11.175   0.903   2.016 -0.9004  0.7098 -0.2351
  528MOL0     H71226  11.224   0.801   1.879 -2.6435 -2.0245 -0.3331
  528MOL0     H71227  11.044   0.975   1.762 -3.0721  1.9884  2.9986
  528MOL0     H71228  11.211   1.031   1.787 -0.6355 -1.1019 -2.3396
  528MOL0     H71229  11.029   1.181   1.836  0.0061  0.8466  1.1473
  528MOL0     H71230  10.998   1.074   1.983 -0.8606 -0.1080 -0.1837
  528MOL0     H71231  11.144   1.104   2.185  0.0981  0.1538 -0.2466
  528MOL0     H71232  11.324   1.230   2.372 -1.3157  0.6945  0.5706
  528MOL0     H71233  11.459   1.293   2.281  0.2574  3.3240  3.4499
  528MOL0     H71234  11.317   1.510   2.242  1.7683  1.5749  1.2087
  528MOL0     H71235  11.192   1.425   2.341 -0.2820  2.3540  1.2602
  528MOL0     H71236  11.480   1.469   2.419  0.3960 -0.1565 -0.6964
  528MOL0     H71237  11.338   1.444   2.530  0.4777  2.0803  1.8113
  528MOL0     H71238  11.240   1.640   2.486 -0.8759  2.5037 -3.8550
  528MOL0     H71239  11.347   1.706   2.368 -0.8380  2.9094  0.8733
  528MOL0     H71240  11.256   1.883   2.459  1.7111  0.4696 -0.3630
  528MOL0     H71241  11.205   2.093   2.555 -0.5464  0.3051  0.4589
  528MOL0     H71242  11.336   2.475   2.855  0.6698 -1.5256  1.7610
  528MOL0     H71243  11.221   2.678   2.966  0.6547 -0.2509  2.5564
  528MOL0     H71244  10.801   2.656   3.054  0.7322  0.2488 -1.3537
  528MOL0     H71245  10.895   2.606   3.186 -2.5602 -3.6935 -2.8985
  528MOL0     H71246  10.871   2.907   3.110  0.4568 -2.7864 -3.3063
  528MOL0     H71247  10.800   2.823   3.248 -1.7891 -4.1902 -2.0272
  528MOL0     H71248  11.100   2.832   3.216 -0.1118 -3.1349  1.6565
  528MOL0     H71249  11.019   2.971   3.287 -1.2758 -0.5473  0.9664
  528MOL0     H71250  11.025   2.683   3.382 -0.0491 -0.1559  1.8680
  528MOL0     H71251  10.907   2.804   3.444 -0.1353  0.2296 -1.9074
  528MOL0     H71252  11.096   2.944   3.507 -2.6199 -0.6843 -0.0782
  528MOL0     H71253  11.211   2.821   3.463  0.2281  0.0706  1.6336
  528MOL0     H71254  10.983   2.783   3.668 -0.4055 -0.5006 -1.5932
  528MOL0     H71255  11.106   2.669   3.635  2.0485 -0.6007  2.1391
  528MOL0     H71256  11.147   2.790   3.836 -0.9520 -2.0025 -0.5122
  528MOL0     H71257  11.202   2.932   3.750  2.2910 -0.2917  3.4123
  528MOL0     H71258  11.343   2.676   3.737  1.3039  0.7200  4.2111
  528MOL0     H71259  11.378   2.825   3.626 -0.3187  0.7569  0.0931
  528MOL0     H71260  10.846   2.480   2.937 -0.8093  2.4127 -0.5658
  528MOL0     H71261  10.959   2.289   2.822 -0.5644  0.5022  0.4300
  528MOL0     H71262  11.470   2.002   2.899  0.0121 -0.3617  1.3104
  528MOL0     H71263  11.545   1.805   2.777  0.4262  0.0114  0.4248
  528MOL0     H71264  10.661   0.500   2.023 -0.7442  0.7007 -1.6736
  528MOL0     H71265  10.438   0.477   1.949 -0.3799  0.2721  1.0255
  528MOL0     H71266   9.960   0.296   1.927  4.0832 -0.6620 -0.4824
  528MOL0     H71267   9.754   0.292   1.788 -1.2363  0.2319 -1.6551
  528MOL0     H71268   9.744   0.250   1.334 -1.2842  0.2352 -0.8137
  528MOL0     H71269   9.781   0.404   1.407 -1.0057  0.1324 -0.7354
  528MOL0     H71270   9.547   0.416   1.310 -1.5724  0.2543 -0.6432
  528MOL0     H71271   9.537   0.418   1.489 -0.6029 -0.4750  0.0862
  528MOL0     H71272   9.509   0.161   1.339  1.3669 -2.5615  3.1299
  528MOL0     H71273   9.370   0.265   1.363  0.3984  0.9102 -2.1141
  528MOL0     H71274   9.525   0.094   1.548  0.8024 -0.5001  1.7564
  528MOL0     H71275   9.490   0.251   1.634  1.0730  0.4351 -1.4807
  528MOL0     H71276   9.111   0.048   1.596  0.2896 -0.7644 -0.7490
  528MOL0     H71277   9.986   0.245   1.437  3.0776 -1.9385  0.4482
  528MOL0     H71278  10.288   0.171   1.576 -0.4618 -0.9479 -2.8493
  528MOL0     H71279  10.199   0.227   1.440 -1.1182  0.3166  0.6199
  528MOL0     H71280  10.273   0.356   1.549 -0.8468  1.7814 -0.6266
  529MOL0     O71281   3.300   4.553   5.505  0.2650  0.4496  0.4685
  529MOL0     C71282   3.221   4.466   5.455  0.6040  0.6178  0.9486
  529MOL0     O71283   3.248   4.381   5.349  0.3011 -0.1947 -0.1398
  529MOL0     C71284   3.370   4.392   5.286 -0.2757  0.3023  0.0688
  529MOL0     C71285   3.454   4.287   5.282  0.4722  0.3300 -0.1003
  529MOL0     C71286   3.579   4.300   5.224  0.4813  0.8721  0.9627
  529MOL0     C71287   3.620   4.430   5.183 -1.2948 -0.4921  0.6528
  529MOL0     O71288   3.747   4.455   5.129  0.0098 -0.5076 -0.6384
  529MOL0     C71289   3.810   4.355   5.054  0.0531  0.4249 -0.0862
  529MOL0     C71290   3.943   4.400   5.002  0.1470 -0.5087  1.0006
  529MOL0     C71291   4.055   4.394   5.117 -0.5359  1.2011 -0.0762
  529MOL0     C71292   4.185   4.478   5.072 -0.3280 -0.7891 -0.2798
  529MOL0     C71293   4.306   4.457   5.165 -0.5154 -0.1639  0.0302
  529MOL0     C71294   4.290   4.526   5.303 -0.2529 -0.5107  0.3977
  529MOL0     C71295   4.403   4.530   5.396  0.1217 -0.6156  0.6815
  529MOL0     C71296   4.476   4.401   5.413 -0.4731 -0.4428 -0.2244
  529MOL0     N71297   4.547   4.400   5.545  0.7617  0.0943  0.4757
  529MOL0     C71298   4.661   4.462   5.570 -1.2879  0.6064 -0.1775
  529MOL0     C71299   4.682   4.432   5.706  0.7834 -0.2510  0.6638
  529MOL0     C71300   4.794   4.465   5.781  0.1959  0.1773  0.3067
  529MOL0     C71301   4.928   4.394   5.740  0.4677  0.2383  0.2780
  529MOL0     C71302   5.006   4.336   5.869  0.1023  0.0330  0.0192
  529MOL0     C71303   5.157   4.367   5.853 -0.0881  0.7218  0.6700
  529MOL0     O71304   5.210   4.293   5.737 -0.3777  0.0130 -0.6221
  529MOL0     C71305   5.346   4.297   5.725 -0.1158  0.0171  0.9585
  529MOL0     C71306   5.384   4.255   5.597 -0.5270 -0.0735  0.8988
  529MOL0     C71307   5.517   4.267   5.561 -0.9547 -0.3862 -0.1026
  529MOL0     C71308   5.612   4.307   5.662 -0.0932 -0.1384 -0.1430
  529MOL0     C71309   5.758   4.322   5.627  0.5187  1.3505 -0.1569
  529MOL0     O71310   5.842   4.367   5.722  0.1115 -0.7150  0.0981
  529MOL0     C71311   5.977   4.337   5.706  0.4348 -0.2937  0.3262
  529MOL0     C71312   6.024   4.212   5.661 -0.0132  0.7840 -0.5447
  529MOL0     C71313   6.161   4.179   5.669 -0.3037  0.2786 -0.5285
  529MOL0     C71314   6.263   4.266   5.693 -0.3059 -0.1838  0.0643
  529MOL0     O71315   6.397   4.235   5.708 -0.3305  0.1093 -0.7287
  529MOL0     C71316   6.465   4.119   5.653 -0.1822 -0.9011 -0.7720
  529MOL0     C71317   6.614   4.142   5.666 -0.0996  0.2287  0.1790
  529MOL0     C71318   6.666   4.229   5.544 -0.2272 -0.5305 -0.6033
  529MOL0     C71319   6.792   4.322   5.570 -0.3882 -0.8304 -0.2980
  529MOL0     C71320   6.920   4.251   5.608  0.4739  0.8542  0.3270
  529MOL0     C71321   6.988   4.156   5.503  0.4011  0.6502 -0.1582
  529MOL0     C71322   7.139   4.122   5.540  0.0495 -0.5209  0.3300
  529MOL0     C71323   7.165   3.984   5.487  0.8297 -1.1818 -0.4186
  529MOL0    Cl71324   7.168   3.991   5.306  0.1266  0.2467 -0.0955
  529MOL0     C71325   6.225   4.395   5.730  0.4819  0.3108  0.7475
  529MOL0     C71326   6.086   4.429   5.745  0.1819 -0.1670  0.6303
  529MOL0     O71327   5.788   4.267   5.523 -0.2947  0.0876 -0.7010
  529MOL0     C71328   5.575   4.340   5.794  0.9003 -0.6881  1.1653
  529MOL0     C71329   5.438   4.344   5.818  0.4906 -0.7287 -0.3869
  529MOL0     N71330   4.579   4.351   5.738  0.0899 -0.3738 -0.1685
  529MOL0     N71331   4.505   4.323   5.640 -0.2201  0.0838  0.3588
  529MOL0     C71332   3.529   4.539   5.189  0.1452 -0.4192 -0.3754
  529MOL0     C71333   3.407   4.516   5.244  0.7377 -0.2169  0.4283
  529MOL0     C71334   3.103   4.431   5.531 -0.4416 -0.2486 -0.5711
  529MOL0     C71335   3.080   4.297   5.577 -0.7407 -0.4895 -0.2091
  529MOL0     C71336   2.977   4.261   5.664  0.2143 -0.5349 -0.8222
  529MOL0     C71337   2.889   4.361   5.713 -0.1566  0.8582 -0.1216
  529MOL0     O71338   2.778   4.327   5.787 -0.3342  0.2269  0.3845
  529MOL0     C71339   2.651   4.361   5.731 -1.0822 -0.3994 -0.2422
  529MOL0     C71340   2.621   4.309   5.582 -0.4789 -0.5330 -0.1148
  529MOL0     C71341   2.594   4.155   5.599  1.0938 -0.2142  0.0163
  529MOL0     C71342   2.520   4.077   5.485  0.2673  0.3031  0.1561
  529MOL0     C71343   2.490   3.934   5.497 -0.1524 -1.1148  0.0401
  529MOL0     C71344   2.456   3.824   5.499  0.2587 -0.8283 -0.1896
  529MOL0     C71345   2.919   4.488   5.673 -0.2683 -0.5356 -0.1403
  529MOL0     C71346   3.025   4.532   5.594  0.3085  0.6516 -0.8692
  529MOL0     C71347   3.031   4.678   5.550 -0.3516  0.5735  0.3688
  529MOL0     H71348   3.419   4.190   5.315 -3.3489  1.3329 -0.6440
  529MOL0     H71349   3.648   4.217   5.216  0.4574  0.6564  2.6111
  529MOL0     H71350   3.831   4.275   5.125  2.5379 -0.2265 -1.4446
  529MOL0     H71351   3.745   4.322   4.973  1.7159  1.9701 -2.1599
  529MOL0     H71352   3.930   4.506   4.978  0.4595 -0.4704  0.9919
  529MOL0     H71353   3.960   4.335   4.915 -0.9175  1.6773 -0.9546
  529MOL0     H71354   4.089   4.291   5.127  0.8854  1.7958  1.8016
  529MOL0     H71355   4.007   4.432   5.208 -0.8371  1.9593 -0.5377
  529MOL0     H71356   4.218   4.456   4.970  3.7324 -0.5334  0.8328
  529MOL0     H71357   4.147   4.580   5.062 -0.2295 -0.8927 -2.1442
  529MOL0     H71358   4.322   4.351   5.185 -0.8959  0.1735  2.3875
  529MOL0     H71359   4.392   4.501   5.115 -0.2518 -1.9815 -1.2055
  529MOL0     H71360   4.259   4.629   5.283 -3.0085 -1.6459 -1.7972
  529MOL0     H71361   4.198   4.486   5.346 -0.4973  0.4877  0.8317
  529MOL0     H71362   4.368   4.574   5.490 -1.3677 -0.2093 -0.0280
  529MOL0     H71363   4.475   4.605   5.362 -0.1423 -1.0115 -0.8125
  529MOL0     H71364   4.403   4.320   5.416 -0.6429 -0.3024  2.6655
  529MOL0     H71365   4.548   4.384   5.333 -0.5122 -0.1949 -0.3118
  529MOL0     H71366   4.711   4.532   5.504 -0.1006  0.4145  0.4876
  529MOL0     H71367   4.807   4.574   5.787 -0.7892  0.2218  2.5472
  529MOL0     H71368   4.771   4.437   5.884 -0.1267  1.4266  0.5944
  529MOL0     H71369   4.904   4.310   5.675  1.1433  0.9073 -0.8729
  529MOL0     H71370   4.987   4.471   5.689 -1.4841  2.9398  1.7878
  529MOL0     H71371   4.984   4.231   5.890  2.8685 -0.5266  0.5860
  529MOL0     H71372   4.979   4.390   5.960 -0.2843  0.2800 -0.2432
  529MOL0     H71373   5.218   4.340   5.940  1.0390  1.5122  0.1523
  529MOL0     H71374   5.173   4.475   5.845  1.6030  0.3705 -1.8964
  529MOL0     H71375   5.320   4.195   5.532  0.0465  1.1207 -0.8178
  529MOL0     H71376   5.547   4.235   5.462 -1.9852 -0.5729 -0.3637
  529MOL0     H71377   5.948   4.139   5.639 -1.1673  2.8941 -4.4391
  529MOL0     H71378   6.197   4.077   5.668 -1.9785 -0.4509  2.0602
  529MOL0     H71379   6.459   4.028   5.712  1.3517 -0.8369 -0.4781
  529MOL0     H71380   6.447   4.098   5.547  0.7209  0.9329 -1.3347
  529MOL0     H71381   6.638   4.197   5.757 -1.5509 -2.5702  2.4192
  529MOL0     H71382   6.664   4.046   5.675  5.9717  2.6758 -2.3353
  529MOL0     H71383   6.698   4.155   5.470  1.9656  0.9406 -1.2401
  529MOL0     H71384   6.583   4.285   5.500 -2.2050 -2.1219  0.9237
  529MOL0     H71385   6.773   4.389   5.654  4.0534 -0.8391  0.9975
  529MOL0     H71386   6.797   4.388   5.482 -2.6745  5.0365  3.3776
  529MOL0     H71387   6.916   4.199   5.704  1.2602  3.2069  1.7109
  529MOL0     H71388   6.986   4.335   5.632 -1.5735  2.0649  2.0988
  529MOL0     H71389   6.925   4.067   5.498  2.5572 -1.0645  1.3829
  529MOL0     H71390   6.982   4.208   5.407 -0.5336  0.9973  0.0752
  529MOL0     H71391   7.164   4.122   5.646  3.8727 -0.8074 -0.4420
  529MOL0     H71392   7.211   4.191   5.494 -0.1400  0.0701  0.8913
  529MOL0     H71393   7.264   3.957   5.524  0.6620  0.5611  1.4762
  529MOL0     H71394   7.105   3.903   5.529  2.6473 -2.1824  0.3704
  529MOL0     H71395   6.311   4.457   5.755  0.7930  1.6439 -2.9837
  529MOL0     H71396   6.059   4.528   5.777  0.7102  0.9927 -2.1971
  529MOL0     H71397   5.651   4.369   5.865 -0.2083 -1.1706  2.6084
  529MOL0     H71398   5.405   4.356   5.921  2.8670  3.5314  0.1166
  529MOL0     H71399   3.563   4.632   5.144  1.1836 -0.7788 -0.3746
  529MOL0     H71400   3.334   4.595   5.255  0.9905  0.0402  0.2630
  529MOL0     H71401   3.147   4.218   5.548 -1.1224 -2.5167  3.7275
  529MOL0     H71402   2.957   4.160   5.699 -0.8024  0.3559  1.3745
  529MOL0     H71403   2.648   4.470   5.727  1.3114 -0.1095  2.4272
  529MOL0     H71404   2.572   4.344   5.805  1.4606 -0.7880  2.6052
  529MOL0     H71405   2.706   4.332   5.516 -2.4303  1.8818 -2.0029
  529MOL0     H71406   2.543   4.371   5.537 -0.3135  0.4522  0.9076
  529MOL0     H71407   2.527   4.140   5.685 -1.3021 -1.5583 -1.9577
  529MOL0     H71408   2.694   4.115   5.615  1.1989 -0.0043 -0.1169
  529MOL0     H71409   2.429   4.136   5.470 -0.3553 -0.6068  0.3140
  529MOL0     H71410   2.573   4.081   5.390  0.1245  0.1912  0.0714
  529MOL0     H71411   2.432   3.719   5.505 -0.6796 -0.6667 -0.8819
  529MOL0     H71412   2.842   4.557   5.705 -1.0333 -1.4023 -0.0597
  529MOL0     H71413   2.931   4.711   5.522 -0.9931  0.0168  1.8504
  529MOL0     H71414   3.079   4.728   5.635 -2.4493  1.4132  1.1201
  529MOL0     H71415   3.090   4.689   5.459 -2.4926  0.2153 -1.1223
  530MOL0     O71416   5.465   7.337   1.006 -0.4881  0.8609 -0.0422
  530MOL0     C71417   5.429   7.261   1.090  1.1685  0.0883 -0.0664
  530MOL0     O71418   5.491   7.204   1.188  0.0429 -1.0183 -0.5313
  530MOL0     C71419   5.615   7.251   1.219 -0.6739 -0.3109  1.1508
  530MOL0     C71420   5.717   7.158   1.234 -0.2440  0.0620  0.5134
  530MOL0     C71421   5.838   7.204   1.275  0.0576  0.3068  0.0225
  530MOL0     C71422   5.867   7.341   1.316 -0.3882  0.3053 -0.5635
  530MOL0     O71423   5.994   7.386   1.338  0.3358  0.8260  1.0816
  530MOL0     C71424   6.115   7.302   1.311 -0.1055 -0.8757 -0.0424
  530MOL0     C71425   6.235   7.384   1.349  0.8445 -0.0655 -0.1671
  530MOL0     C71426   6.363   7.296   1.335 -0.6308 -0.0691 -0.0214
  530MOL0     C71427   6.484   7.333   1.424 -0.3739 -0.6182 -0.0516
  530MOL0     C71428   6.596   7.241   1.411 -0.0220  0.4568  0.3361
  530MOL0     C71429   6.716   7.285   1.505  0.5478 -0.7557  0.6669
  530MOL0     C71430   6.845   7.208   1.470  0.4986  0.0679 -0.0212
  530MOL0     C71431   6.831   7.068   1.408  0.3515 -0.7455 -0.0332
  530MOL0     N71432   6.954   6.988   1.417 -0.5646 -0.2047  0.3473
  530MOL0     C71433   7.075   7.020   1.366  0.4757 -0.8803 -0.5083
  530MOL0     C71434   7.157   6.915   1.399  0.0593 -0.0586  0.5908
  530MOL0     C71435   7.303   6.922   1.358  0.5796  0.1258 -0.6036
  530MOL0     C71436   7.382   6.908   1.486 -0.0161  0.2072 -0.0927
  530MOL0     C71437   7.395   6.765   1.544 -0.1988  0.1296  0.1415
  530MOL0     C71438   7.522   6.721   1.620  0.4175 -0.2372  0.5725
  530MOL0     O71439   7.637   6.743   1.544 -0.2776  0.2519  0.5490
  530MOL0     C71440   7.758   6.753   1.613 -0.8660  0.4954  1.2905
  530MOL0     C71441   7.868   6.815   1.551  0.4521 -0.7325  0.2801
  530MOL0     C71442   7.980   6.856   1.618  0.2752  0.4046 -0.4812
  530MOL0     C71443   8.007   6.800   1.744  0.3360  0.3911 -0.2759
  530MOL0     C71444   8.140   6.808   1.806 -0.3877 -0.3512  0.1000
  530MOL0     O71445   8.148   6.742   1.927  0.7819 -0.2218 -0.6073
  530MOL0     C71446   8.267   6.743   1.993  0.6300 -0.3811 -0.0615
  530MOL0     C71447   8.313   6.622   2.025 -0.5436  1.0036 -0.3478
  530MOL0     C71448   8.435   6.608   2.093 -0.4937 -0.1266 -0.0892
  530MOL0     C71449   8.510   6.721   2.126 -0.0276  0.4815  0.0658
  530MOL0     O71450   8.630   6.702   2.194  0.8669  0.9652 -0.6667
  530MOL0     C71451   8.738   6.784   2.167 -0.2385 -1.0536  0.4372
  530MOL0     C71452   8.769   6.861   2.306  0.3341 -0.4369 -0.2068
  530MOL0     C71453   8.898   6.940   2.287  0.1864  0.0744  0.1092
  530MOL0     C71454   8.941   7.012   2.418  0.1101 -0.2662  0.4214
  530MOL0     C71455   9.066   7.094   2.387  0.8344 -0.5894 -0.1057
  530MOL0     C71456   9.137   7.117   2.516 -0.0666  0.0692  1.0457
  530MOL0     C71457   9.261   7.211   2.496  0.8797  0.2287  0.2769
  530MOL0     C71458   9.216   7.358   2.485  0.1469 -0.3213 -0.6164
  530MOL0    Cl71459   9.351   7.474   2.483  0.3317 -0.1293 -0.3283
  530MOL0     C71460   8.454   6.842   2.115 -0.8248 -0.2121  0.3790
  530MOL0     C71461   8.334   6.859   2.041 -0.3284 -0.7290 -0.1543
  530MOL0     O71462   8.233   6.872   1.752 -0.6883  0.1225  0.5270
  530MOL0     C71463   7.902   6.728   1.808 -0.2137 -0.0176 -0.2559
  530MOL0     C71464   7.774   6.711   1.747 -0.9596 -0.1863 -0.0513
  530MOL0     N71465   7.076   6.815   1.461 -0.0779  0.4340  0.4432
  530MOL0     N71466   6.959   6.871   1.476  0.1212  1.5061  0.9859
  530MOL0     C71467   5.761   7.430   1.311 -0.0245 -0.7799  0.0552
  530MOL0     C71468   5.636   7.383   1.257  0.2038 -0.0687  0.8493
  530MOL0     C71469   5.282   7.222   1.082 -1.1685  0.0008  0.6692
  530MOL0     C71470   5.180   7.288   1.150  0.1597 -1.4822 -0.0062
  530MOL0     C71471   5.054   7.247   1.140 -0.0151  0.7306  0.4717
  530MOL0     C71472   5.019   7.132   1.062  0.9822  0.0651  0.2235
  530MOL0     O71473   4.890   7.094   1.075 -0.2372 -0.4863  0.3685
  530MOL0     C71474   4.842   6.991   0.983 -0.6937  0.1267 -0.2456
  530MOL0     C71475   4.693   6.960   1.001  0.5397  0.4616  1.1723
  530MOL0     C71476   4.632   6.934   1.140 -0.5391 -0.6447 -0.8398
  530MOL0     C71477   4.665   6.789   1.178  0.3906  0.2495 -0.0186
  530MOL0     C71478   4.798   6.782   1.231 -1.6634  0.9931  0.2684
  530MOL0     C71479   4.915   6.765   1.276 -0.4153  0.6625  0.6602
  530MOL0     C71480   5.125   7.059   1.000  0.3627  0.0741 -0.0136
  530MOL0     C71481   5.258   7.102   1.007 -0.5260 -0.1350  0.4216
  530MOL0     C71482   5.370   7.016   0.950 -0.5703  0.1624 -0.5065
  530MOL0     H71483   5.698   7.054   1.210 -1.3165  0.5421 -0.8396
  530MOL0     H71484   5.916   7.129   1.279  0.9355  1.1209 -1.2192
  530MOL0     H71485   6.097   7.218   1.379 -2.3703 -1.3753 -1.1639
  530MOL0     H71486   6.129   7.262   1.210 -1.9350 -1.5347 -0.0731
  530MOL0     H71487   6.216   7.427   1.448  1.3370  0.3189 -0.2365
  530MOL0     H71488   6.242   7.467   1.278 -0.5828 -0.9683 -1.4178
  530MOL0     H71489   6.398   7.303   1.231 -1.0924 -1.8619 -0.3272
  530MOL0     H71490   6.338   7.193   1.360 -0.0840 -0.2464 -0.2037
  530MOL0     H71491   6.522   7.427   1.381 -1.7383 -0.5907 -1.2476
  530MOL0     H71492   6.457   7.335   1.530 -1.7228 -1.9718 -0.3481
  530MOL0     H71493   6.564   7.138   1.427  0.4246  0.2070 -0.3673
  530MOL0     H71494   6.626   7.233   1.306  0.0931 -0.4247  0.4296
  530MOL0     H71495   6.725   7.393   1.495  0.0895 -0.5119  2.5593
  530MOL0     H71496   6.684   7.265   1.608  2.2840  1.6170  1.7519
  530MOL0     H71497   6.913   7.208   1.555 -0.0311 -3.0003  0.5297
  530MOL0     H71498   6.902   7.266   1.397 -0.7645  2.2930  0.6949
  530MOL0     H71499   6.753   7.010   1.457 -0.1212  0.1466  0.2997
  530MOL0     H71500   6.800   7.088   1.305 -0.5100  1.1475  0.5388
  530MOL0     H71501   7.109   7.112   1.320  0.7860  0.4029  2.0942
  530MOL0     H71502   7.325   6.843   1.285 -2.7745 -2.0709  0.5521
  530MOL0     H71503   7.330   7.016   1.310  2.3071  0.5771  1.1498
  530MOL0     H71504   7.481   6.953   1.470  0.7483 -0.5567  2.0248
  530MOL0     H71505   7.332   6.966   1.564 -0.7840  1.7799 -1.7163
  530MOL0     H71506   7.379   6.684   1.472 -1.3714  1.3105 -0.9926
  530MOL0     H71507   7.305   6.757   1.606  0.8371 -1.9176  1.4743
  530MOL0     H71508   7.513   6.623   1.666  2.6954 -0.2459  1.1151
  530MOL0     H71509   7.517   6.799   1.697  0.5966  1.6889 -1.2441
  530MOL0     H71510   7.849   6.849   1.449  2.8782 -0.8747 -0.2685
  530MOL0     H71511   8.059   6.896   1.555  0.9658 -2.0713 -1.3290
  530MOL0     H71512   8.253   6.538   1.991  0.9617  0.9454 -3.1906
  530MOL0     H71513   8.474   6.511   2.121 -2.7029 -0.9443  0.3459
  530MOL0     H71514   8.826   6.732   2.129  1.2298  1.4742  0.1527
  530MOL0     H71515   8.700   6.856   2.094 -0.0655  0.0913  1.4368
  530MOL0     H71516   8.685   6.930   2.319  1.0467  0.5822 -0.8725
  530MOL0     H71517   8.767   6.788   2.388 -1.7672  0.2379  0.3949
  530MOL0     H71518   8.979   6.873   2.256 -0.3360 -2.3538  3.4230
  530MOL0     H71519   8.877   7.010   2.205 -3.5346 -1.3949 -0.4165
  530MOL0     H71520   8.971   6.944   2.498 -0.9434  1.6740  2.5862
  530MOL0     H71521   8.859   7.074   2.454  0.2744  0.4162 -0.3372
  530MOL0     H71522   9.027   7.188   2.348  2.4948  0.3179  0.3370
  530MOL0     H71523   9.130   7.051   2.309  0.9313  0.0211 -0.3708
  530MOL0     H71524   9.067   7.164   2.585  1.0762  1.0072  1.6019
  530MOL0     H71525   9.172   7.022   2.558  0.3168 -1.9763 -3.3202
  530MOL0     H71526   9.313   7.190   2.403  0.9414 -2.1230  0.7896
  530MOL0     H71527   9.335   7.196   2.575 -1.6186  1.2260  2.9907
  530MOL0     H71528   9.165   7.383   2.392 -1.0475 -0.7977 -0.1071
  530MOL0     H71529   9.148   7.372   2.569  2.3019  0.6303  1.0788
  530MOL0     H71530   8.512   6.933   2.129 -4.2134  2.6158 -1.9837
  530MOL0     H71531   8.304   6.958   2.007 -0.5789 -1.4616 -2.2057
  530MOL0     H71532   7.923   6.676   1.901 -2.2827 -1.4209 -0.5186
  530MOL0     H71533   7.698   6.664   1.807 -2.3731  0.7431 -1.0598
  530MOL0     H71534   5.780   7.527   1.355 -0.2642 -1.0393  0.7430
  530MOL0     H71535   5.552   7.450   1.272  0.1503 -0.4679  2.5162
  530MOL0     H71536   5.205   7.376   1.208 -0.8194 -1.8721  1.0785
  530MOL0     H71537   4.982   7.310   1.191 -2.7365 -0.8403 -1.2232
  530MOL0     H71538   4.898   6.898   0.993 -0.1672  0.4580 -0.0605
  530MOL0     H71539   4.857   7.025   0.880 -2.2622 -0.3071 -0.6537
  530MOL0     H71540   4.664   6.880   0.931 -2.0099  2.8937 -0.8155
  530MOL0     H71541   4.635   7.048   0.970  0.8625  1.4875  3.3461
  530MOL0     H71542   4.524   6.949   1.143 -0.5321 -0.5117  2.4021
  530MOL0     H71543   4.676   6.990   1.223 -0.2457 -1.7365 -0.2382
  530MOL0     H71544   4.598   6.766   1.262 -1.0930  2.8889 -0.3486
  530MOL0     H71545   4.641   6.724   1.094 -0.4481  2.0112 -1.2159
  530MOL0     H71546   5.013   6.741   1.312  0.6311 -0.9794 -2.7756
  530MOL0     H71547   5.102   6.970   0.943  0.8948  0.3349 -0.6477
  530MOL0     H71548   5.428   6.975   1.034 -0.8351 -0.4740 -0.6312
  530MOL0     H71549   5.332   6.930   0.894 -0.4180  0.2243 -0.7045
  530MOL0     H71550   5.438   7.069   0.883 -0.1932  1.2200  0.6859
  531MOL0     O71551   6.659   5.988   9.078  0.0081  0.3425 -0.0878
  531MOL0     C71552   6.671   5.884   9.017  0.2804  0.0466 -0.4862
  531MOL0     O71553   6.791   5.810   9.007  0.6332 -0.0698  0.7574
  531MOL0     C71554   6.905   5.857   9.074  0.6673 -0.4709  0.5182
  531MOL0     C71555   7.017   5.907   8.996  0.9761  0.0618 -0.0498
  531MOL0     C71556   7.129   5.962   9.065 -0.2571 -0.2672 -0.0737
  531MOL0     C71557   7.142   5.958   9.212 -0.3974 -1.2590  1.0945
  531MOL0     O71558   7.258   6.020   9.272 -0.4045  0.2661  0.8927
  531MOL0     C71559   7.264   6.025   9.417 -0.4526 -0.0735 -0.3549
  531MOL0     C71560   7.414   6.015   9.455 -1.4168  0.3793  0.7835
  531MOL0     C71561   7.500   6.138   9.410 -0.3998 -0.4456  0.4268
  531MOL0     C71562   7.646   6.129   9.458 -0.2888 -0.4419 -0.1678
  531MOL0     C71563   7.739   6.246   9.420 -0.5296 -0.1399  0.0870
  531MOL0     C71564   7.885   6.224   9.472  0.4101  0.4305 -0.8901
  531MOL0     C71565   7.977   6.338   9.423  0.8971 -0.8187  0.7310
  531MOL0     C71566   8.121   6.319   9.469  0.5500 -0.1260 -0.6163
  531MOL0     N71567   8.164   6.194   9.419 -0.3852 -0.7028  0.1618
  531MOL0     C71568   8.241   6.174   9.306  0.5973  0.3015  0.4464
  531MOL0     C71569   8.275   6.043   9.310 -0.1707 -0.3448  0.4497
  531MOL0     C71570   8.353   5.970   9.199  0.8335  0.4485  0.1219
  531MOL0     C71571   8.471   5.883   9.261 -0.1936 -0.4165 -0.5555
  531MOL0     C71572   8.573   5.959   9.330 -0.4691 -0.0619  0.1516
  531MOL0     C71573   8.596   5.913   9.470 -0.9458  0.3508 -0.1697
  531MOL0     O71574   8.656   5.779   9.470 -0.6113 -0.9468 -0.3444
  531MOL0     C71575   8.799   5.777   9.475  0.6104 -0.3349  0.5124
  531MOL0     C71576   8.852   5.673   9.554  0.1184 -0.1196 -0.3660
  531MOL0     C71577   8.992   5.672   9.588  0.0627  0.0941 -0.1597
  531MOL0     C71578   9.078   5.768   9.541  0.3405  0.0913  0.3133
  531MOL0     C71579   9.224   5.757   9.567  0.4302  0.7646 -0.4780
  531MOL0     O71580   9.308   5.814   9.482 -0.2549 -0.0289 -0.9811
  531MOL0     C71581   9.437   5.812   9.509 -0.4207  0.9788 -0.0175
  531MOL0     C71582   9.518   5.802   9.398 -0.0395 -0.2833  0.2831
  531MOL0     C71583   9.663   5.797   9.409 -0.1433 -1.3658  0.0323
  531MOL0     C71584   9.728   5.813   9.537  0.7174 -0.6301 -0.5546
  531MOL0     O71585   9.865   5.813   9.559  0.9315  0.3911 -0.4665
  531MOL0     C71586   9.955   5.770   9.453 -0.7343  0.0671  1.8407
  531MOL0     C71587  10.096   5.792   9.511  1.3213 -0.4266  0.0134
  531MOL0     C71588  10.208   5.740   9.422  0.2533 -0.8431 -0.1504
  531MOL0     C71589  10.339   5.763   9.497 -0.6526  0.5991 -0.3681
  531MOL0     C71590  10.368   5.663   9.602 -0.3211  0.0108 -0.4116
  531MOL0     C71591  10.516   5.648   9.640  0.5114  0.0814  0.0446
  531MOL0     C71592  10.534   5.503   9.701 -0.8617 -0.8339 -0.0833
  531MOL0     C71593  10.683   5.471   9.731 -0.1841 -0.0781  0.8581
  531MOL0    Cl71594  10.727   5.544   9.887  0.0021  0.0557  0.1117
  531MOL0     C71595   9.646   5.820   9.652  0.7499  0.4860 -0.9180
  531MOL0     C71596   9.502   5.816   9.632 -0.2869 -0.8334  0.2522
  531MOL0     O71597   9.260   5.685   9.661  0.0496 -0.3407 -0.8183
  531MOL0     C71598   9.032   5.876   9.466  0.1843  0.0508  0.6204
  531MOL0     C71599   8.894   5.883   9.432 -0.0342 -0.1713  0.5164
  531MOL0     N71600   8.235   5.983   9.425 -0.1722  1.1233 -0.0045
  531MOL0     N71601   8.169   6.074   9.487 -0.1849 -0.7093  0.3063
  531MOL0     C71602   7.025   5.916   9.287 -0.2965 -0.3182 -0.1778
  531MOL0     C71603   6.917   5.872   9.210  0.0221  0.5082 -0.6925
  531MOL0     C71604   6.561   5.823   8.944 -0.5044  0.4170  0.3182
  531MOL0     C71605   6.599   5.720   8.850 -0.3249  0.2028 -0.4677
  531MOL0     C71606   6.496   5.629   8.806 -0.0788 -0.8414  0.7028
  531MOL0     C71607   6.366   5.641   8.837 -0.7593 -0.0472  1.1416
  531MOL0     O71608   6.282   5.540   8.791  0.0649 -0.0355  0.1560
  531MOL0     C71609   6.139   5.563   8.765 -0.0548  0.0784 -0.6138
  531MOL0     C71610   6.055   5.479   8.859  0.9950 -0.1160 -0.2949
  531MOL0     C71611   6.039   5.331   8.798 -0.5606 -0.7706  0.4721
  531MOL0     C71612   5.944   5.246   8.880  0.1705 -0.3640  0.5526
  531MOL0     C71613   5.981   5.098   8.864 -0.4782 -0.7382 -0.4792
  531MOL0     C71614   6.046   5.002   8.838  0.7621  0.9781 -0.2293
  531MOL0     C71615   6.332   5.749   8.916 -0.0246  0.0532 -0.1845
  531MOL0     C71616   6.422   5.845   8.970  0.1757  0.4093  0.3978
  531MOL0     C71617   6.376   5.961   9.038 -0.3947 -0.0242  0.0475
  531MOL0     H71618   7.033   5.896   8.889  4.5343 -1.4878  0.4847
  531MOL0     H71619   7.204   6.009   9.001 -1.7446  0.2112 -1.5457
  531MOL0     H71620   7.214   6.118   9.446 -1.8229 -0.9570  0.2156
  531MOL0     H71621   7.199   5.951   9.464 -1.4397  1.3244  0.5640
  531MOL0     H71622   7.448   5.922   9.409  1.1707  1.4654  0.3230
  531MOL0     H71623   7.449   5.994   9.556  3.6336  0.4802 -0.6356
  531MOL0     H71624   7.457   6.228   9.453 -0.9473 -0.5226  0.0597
  531MOL0     H71625   7.493   6.154   9.302 -0.0134  0.6526  0.5541
  531MOL0     H71626   7.645   6.130   9.568  0.2173 -3.0469 -0.0883
  531MOL0     H71627   7.682   6.035   9.415 -0.9551 -0.3255 -1.0196
  531MOL0     H71628   7.759   6.249   9.312  3.3781  1.0674  0.6787
  531MOL0     H71629   7.695   6.343   9.446  0.8270 -0.2499  3.1949
  531MOL0     H71630   7.877   6.227   9.581  0.5460 -0.2053 -0.8547
  531MOL0     H71631   7.911   6.118   9.457 -1.0564 -0.3717  1.6435
  531MOL0     H71632   7.924   6.430   9.450 -2.2866 -2.2554 -0.1206
  531MOL0     H71633   7.980   6.331   9.314 -1.2904 -0.9079  0.6252
  531MOL0     H71634   8.180   6.401   9.427  0.0044  0.7525  0.2787
  531MOL0     H71635   8.135   6.321   9.578  0.6739  0.2850 -0.6367
  531MOL0     H71636   8.270   6.249   9.233  0.6373  0.9270  1.0966
  531MOL0     H71637   8.287   5.892   9.160  0.6883  0.3982  0.4692
  531MOL0     H71638   8.377   6.041   9.119 -0.0370  3.2051  2.1743
  531MOL0     H71639   8.408   5.826   9.329  0.2912 -1.5660 -1.0550
  531MOL0     H71640   8.518   5.810   9.195 -2.8645 -1.4889 -1.4146
  531MOL0     H71641   8.542   6.064   9.334  0.6766  0.3558 -1.0791
  531MOL0     H71642   8.667   5.962   9.274 -0.3223 -2.0792  0.2130
  531MOL0     H71643   8.494   5.915   9.508 -0.4066 -0.7046  1.4514
  531MOL0     H71644   8.651   5.997   9.515 -1.1978  1.3631 -1.6716
  531MOL0     H71645   8.790   5.594   9.596  2.2503 -1.5532  0.2509
  531MOL0     H71646   9.047   5.607   9.656  1.6919  0.4798 -1.0672
  531MOL0     H71647   9.478   5.797   9.297  3.6320 -0.6157 -1.3515
  531MOL0     H71648   9.725   5.789   9.320  0.5813 -0.4868  0.4395
  531MOL0     H71649   9.943   5.667   9.418 -4.9011  1.2224 -0.7964
  531MOL0     H71650   9.939   5.836   9.368  1.7689  1.5626  2.4319
  531MOL0     H71651  10.102   5.893   9.552 -2.4049 -1.1951  3.0769
  531MOL0     H71652  10.081   5.731   9.600 -0.1229 -0.5158 -0.2663
  531MOL0     H71653  10.190   5.632   9.417  0.6732 -0.9025 -0.4750
  531MOL0     H71654  10.204   5.782   9.321 -2.5662 -1.1635 -0.2470
  531MOL0     H71655  10.351   5.862   9.541 -0.5425  1.2443 -1.8171
  531MOL0     H71656  10.422   5.739   9.430  0.7154  0.4492  1.2941
  531MOL0     H71657  10.337   5.571   9.552  3.2425 -0.4479 -2.0566
  531MOL0     H71658  10.319   5.680   9.699 -0.4165  1.7701 -0.7422
  531MOL0     H71659  10.575   5.663   9.549  2.9838 -3.4393  0.8548
  531MOL0     H71660  10.535   5.720   9.720 -2.0127  0.5067  0.3194
  531MOL0     H71661  10.511   5.425   9.628 -1.0463 -0.3798 -0.5151
  531MOL0     H71662  10.465   5.478   9.782 -0.8400  0.0636  0.2163
  531MOL0     H71663  10.707   5.364   9.729 -1.1778 -0.3279  1.4037
  531MOL0     H71664  10.742   5.507   9.646 -4.0800  2.0617 -1.1795
  531MOL0     H71665   9.686   5.796   9.751  1.2178  1.5783 -0.8261
  531MOL0     H71666   9.450   5.808   9.727 -1.3650  1.2151 -0.0955
  531MOL0     H71667   9.107   5.944   9.427 -0.7443  0.1770 -1.0966
  531MOL0     H71668   8.854   5.978   9.399  0.0322  0.3866  1.9885
  531MOL0     H71669   7.017   5.909   9.396 -2.6075  0.3823 -0.2417
  531MOL0     H71670   6.830   5.837   9.265  0.5054 -0.9040 -0.7937
  531MOL0     H71671   6.704   5.708   8.826 -0.5156 -3.1911 -0.0470
  531MOL0     H71672   6.531   5.541   8.753  0.4423  1.0319 -2.3361
  531MOL0     H71673   6.121   5.536   8.661 -1.5715  1.8325 -0.8541
  531MOL0     H71674   6.100   5.665   8.765 -2.5707 -0.8056 -0.8803
  531MOL0     H71675   5.964   5.536   8.880  1.3111 -0.2291  1.5162
  531MOL0     H71676   6.111   5.473   8.952  1.1410  0.9940 -0.3032
  531MOL0     H71677   6.139   5.287   8.804 -0.6625 -1.2178 -0.9059
  531MOL0     H71678   6.013   5.340   8.692 -2.2702 -0.3135  0.8933
  531MOL0     H71679   5.961   5.281   8.982  3.9781  1.5453 -0.5214
  531MOL0     H71680   5.839   5.268   8.859  0.6124  1.8267  0.4535
  531MOL0     H71681   6.103   4.915   8.814  2.9941  2.3530 -0.1805
  531MOL0     H71682   6.231   5.735   8.953  1.4021 -4.7795  2.7400
  531MOL0     H71683   6.399   5.956   9.145  2.0484 -1.4106 -0.4793
  531MOL0     H71684   6.425   6.052   9.005 -0.6534  0.3833  0.7538
  531MOL0     H71685   6.268   5.963   9.018 -0.2240 -1.9714 -1.3606
  532MOL0     O71686   8.441   8.285  11.174 -0.4049 -0.4558 -0.2682
  532MOL0     C71687   8.487   8.388  11.127 -0.2670  0.6731 -0.5933
  532MOL0     O71688   8.600   8.449  11.164  0.0571  0.3278 -0.0225
  532MOL0     C71689   8.670   8.408  11.280 -1.3312  0.1119  0.3253
  532MOL0     C71690   8.791   8.337  11.258  0.0171  0.5877 -0.4644
  532MOL0     C71691   8.876   8.309  11.366  0.5941  0.2560  0.7744
  532MOL0     C71692   8.839   8.350  11.495  0.4531  0.6233  0.9642
  532MOL0     O71693   8.907   8.327  11.610  0.6815  0.7545 -0.2675
  532MOL0     C71694   9.050   8.338  11.591  0.3676 -0.9737 -0.3344
  532MOL0     C71695   9.114   8.381  11.723 -0.2430 -0.3026  1.1832
  532MOL0     C71696   9.269   8.413  11.722  0.1399  0.4136  0.2115
  532MOL0     C71697   9.289   8.478  11.854 -0.1087 -0.1562 -0.1585
  532MOL0     C71698   9.434   8.521  11.876 -1.0643  0.2409 -0.6713
  532MOL0     C71699   9.475   8.627  11.782  0.7407 -1.1382  0.7643
  532MOL0     C71700   9.592   8.715  11.849  0.2509  0.6921  0.2382
  532MOL0     C71701   9.661   8.818  11.764  0.5838  0.2709 -0.1180
  532MOL0     N71702   9.772   8.756  11.683  0.5006 -0.2322  0.6308
  532MOL0     C71703   9.908   8.752  11.715 -0.2165 -0.4171  0.2116
  532MOL0     C71704   9.966   8.709  11.602 -0.2062 -0.0039 -0.1072
  532MOL0     C71705  10.108   8.656  11.593  0.6741 -0.7158  0.2821
  532MOL0     C71706  10.139   8.559  11.705 -0.3024  0.0430  1.1393
  532MOL0     C71707  10.280   8.507  11.688 -0.2138  0.6636  0.5452
  532MOL0     C71708  10.333   8.435  11.811 -0.1193  0.2111  0.5627
  532MOL0     O71709  10.470   8.392  11.781 -0.0402 -0.5430  1.2903
  532MOL0     C71710  10.554   8.356  11.886  0.4191  0.0738  0.1185
  532MOL0     C71711  10.526   8.387  12.019  0.1147  1.3303 -0.4093
  532MOL0     C71712  10.621   8.360  12.117 -0.2060  0.4227  0.5645
  532MOL0     C71713  10.743   8.292  12.090 -0.1265 -1.2546  0.1321
  532MOL0     C71714  10.832   8.258  12.202 -0.1462 -0.2646 -0.1335
  532MOL0     O71715  10.934   8.166  12.162  0.3499  0.7338  0.3035
  532MOL0     C71716  11.029   8.126  12.249  0.2347 -0.0025  0.1101
  532MOL0     C71717  11.007   8.080  12.374  0.7182 -0.3997  0.2100
  532MOL0     C71718  11.103   8.071  12.472 -0.7051  0.5204  0.2393
  532MOL0     C71719  11.239   8.084  12.428 -0.2093 -0.2270 -0.5691
  532MOL0     O71720  11.329   8.060  12.526 -0.0885 -0.2833  0.2100
  532MOL0     C71721  11.463   8.094  12.493  0.1393  0.3505  0.0043
  532MOL0     C71722  11.547   8.066  12.619  0.1760  0.1117  0.0639
  532MOL0     C71723  11.655   7.965  12.605 -0.3306 -1.0082  0.2512
  532MOL0     C71724  11.616   7.826  12.563  0.2592 -0.2476 -0.2260
  532MOL0     C71725  11.516   7.761  12.657  0.7836  0.2812 -0.2642
  532MOL0     C71726  11.584   7.700  12.785 -0.0910  0.5943  0.4907
  532MOL0     C71727  11.500   7.605  12.870  0.1059  0.6008  0.1776
  532MOL0     C71728  11.488   7.468  12.797  0.0831  0.0919 -1.0512
  532MOL0    Cl71729  11.652   7.400  12.788  0.0233  0.4956  0.5879
  532MOL0     C71730  11.268   8.116  12.294  0.1222  0.6286 -0.3506
  532MOL0     C71731  11.159   8.147  12.209  0.2489 -0.3945  0.6671
  532MOL0     O71732  10.816   8.302  12.310 -0.1762 -0.0272  0.6215
  532MOL0     C71733  10.764   8.254  11.955  0.4644  0.2943 -0.2256
  532MOL0     C71734  10.670   8.292  11.855  0.0603 -1.4082 -0.1250
  532MOL0     N71735   9.872   8.681  11.511  0.8575 -0.9125 -0.0343
  532MOL0     N71736   9.750   8.709  11.558  0.1438 -0.5595 -0.4210
  532MOL0     C71737   8.712   8.408  11.510 -0.0686  0.2373 -1.3189
  532MOL0     C71738   8.631   8.440  11.410 -0.1297  0.5317  0.3420
  532MOL0     C71739   8.409   8.454  11.018 -0.0373  0.7997  0.5602
  532MOL0     C71740   8.471   8.560  10.955  0.7975  0.1768 -0.9481
  532MOL0     C71741   8.409   8.635  10.852 -0.4212  0.6192 -0.4549
  532MOL0     C71742   8.279   8.595  10.816 -0.0210 -0.3638 -0.5454
  532MOL0     O71743   8.209   8.681  10.728 -0.9218  0.4867  0.5159
  532MOL0     C71744   8.080   8.642  10.671  0.3633 -0.0645  0.3124
  532MOL0     C71745   8.017   8.768  10.611  0.4994 -0.7497  0.2764
  532MOL0     C71746   7.960   8.873  10.708  0.6789  0.0860 -0.9188
  532MOL0     C71747   7.834   8.835  10.786 -0.1427  0.6708  0.2617
  532MOL0     C71748   7.819   8.923  10.906 -0.2186  0.0734 -0.6943
  532MOL0     C71749   7.796   9.008  10.993 -0.5130 -0.4258 -0.2347
  532MOL0     C71750   8.221   8.476  10.865 -0.5369  0.1920 -0.6804
  532MOL0     C71751   8.285   8.403  10.965  0.1260 -0.6027  0.0562
  532MOL0     C71752   8.209   8.284  11.011 -0.3185 -0.0441 -0.1120
  532MOL0     H71753   8.812   8.305  11.157 -1.7215 -2.6438  0.0892
  532MOL0     H71754   8.960   8.243  11.347 -0.5940 -1.1474  0.1918
  532MOL0     H71755   9.082   8.242  11.550  3.0110 -0.3152 -0.0279
  532MOL0     H71756   9.081   8.417  11.521  0.2995  2.0714  2.7733
  532MOL0     H71757   9.100   8.312  11.807  0.7278 -1.4303  0.4545
  532MOL0     H71758   9.066   8.475  11.750  0.8637  0.2510  1.2914
  532MOL0     H71759   9.295   8.482  11.642  1.4950 -1.0063 -0.6346
  532MOL0     H71760   9.327   8.320  11.728 -2.5346 -1.3088  0.8508
  532MOL0     H71761   9.215   8.553  11.881 -0.2108 -1.3165  3.3231
  532MOL0     H71762   9.268   8.409  11.936 -1.6584 -1.4618 -1.5633
  532MOL0     H71763   9.447   8.553  11.980  0.6244  1.2476 -1.1655
  532MOL0     H71764   9.501   8.436  11.866 -0.7144 -0.1393  3.2397
  532MOL0     H71765   9.510   8.583  11.688  1.0182  1.0251 -0.2077
  532MOL0     H71766   9.395   8.695  11.749  1.3711 -0.9012 -0.3449
  532MOL0     H71767   9.659   8.641  11.893 -1.4746 -1.1061  0.0039
  532MOL0     H71768   9.536   8.765  11.929  0.6426  1.5057  0.0194
  532MOL0     H71769   9.588   8.859  11.694 -0.9597 -5.7425 -2.6676
  532MOL0     H71770   9.702   8.886  11.840 -2.0213 -0.2927  1.9532
  532MOL0     H71771   9.948   8.783  11.811 -1.7059 -1.8848  1.3764
  532MOL0     H71772  10.115   8.608  11.495 -2.6806 -1.5589  0.3129
  532MOL0     H71773  10.178   8.740  11.587  0.3542 -0.1683  3.0169
  532MOL0     H71774  10.133   8.601  11.806  0.0660 -0.5348  1.4148
  532MOL0     H71775  10.067   8.478  11.696 -1.7652  1.3643  0.6039
  532MOL0     H71776  10.346   8.591  11.662  1.8813 -0.1126  3.0000
  532MOL0     H71777  10.290   8.431  11.610  1.5457  1.7722 -0.3843
  532MOL0     H71778  10.261   8.358  11.843  0.2908 -0.5129 -0.2307
  532MOL0     H71779  10.333   8.517  11.884 -1.2101  1.2584 -0.5562
  532MOL0     H71780  10.442   8.446  12.053 -1.3423 -1.1482  0.5439
  532MOL0     H71781  10.606   8.394  12.219  0.8861  4.3081 -0.4027
  532MOL0     H71782  10.905   8.078  12.412  1.8248 -0.6570  3.4658
  532MOL0     H71783  11.090   8.044  12.576 -0.9295  1.3450  0.4337
  532MOL0     H71784  11.512   8.042  12.410 -2.8246 -0.6888 -1.1953
  532MOL0     H71785  11.476   8.202  12.479  3.0368  0.0661 -0.3027
  532MOL0     H71786  11.588   8.161  12.652 -1.4034  0.6183  0.6819
  532MOL0     H71787  11.481   8.033  12.700 -0.1870 -2.2331 -1.0774
  532MOL0     H71788  11.720   8.001  12.525 -0.1607 -0.8690  0.4515
  532MOL0     H71789  11.716   7.962  12.695  0.6917 -0.3934 -0.3977
  532MOL0     H71790  11.703   7.760  12.559  2.4782  2.4147  0.5420
  532MOL0     H71791  11.574   7.837  12.463 -1.4274  3.0522  0.6815
  532MOL0     H71792  11.458   7.683  12.605  2.2677  0.1441 -1.7979
  532MOL0     H71793  11.444   7.831  12.699 -1.3227 -2.4998  1.0930
  532MOL0     H71794  11.665   7.640  12.742  1.7957  1.4527  2.6521
  532MOL0     H71795  11.616   7.783  12.848  1.1757  1.5872 -1.3587
  532MOL0     H71796  11.400   7.649  12.875 -0.7444 -1.0414 -1.4475
  532MOL0     H71797  11.558   7.588  12.961  3.6801 -2.1439 -2.3341
  532MOL0     H71798  11.429   7.401  12.860  0.7978 -1.5298 -2.0434
  532MOL0     H71799  11.447   7.465  12.695  0.3131 -1.4502 -1.1324
  532MOL0     H71800  11.370   8.113  12.258  1.0419 -2.8523  2.0346
  532MOL0     H71801  11.164   8.187  12.108  1.4283 -0.6848  0.5974
  532MOL0     H71802  10.855   8.197  11.938  0.6798  0.9555 -1.3654
  532MOL0     H71803  10.690   8.274  11.749  2.2134 -0.0454 -0.0016
  532MOL0     H71804   8.677   8.439  11.608 -0.6697  2.1555 -2.0946
  532MOL0     H71805   8.536   8.491  11.424 -1.4901 -1.7528  0.0798
  532MOL0     H71806   8.573   8.586  10.982 -0.0070  1.5636  0.9837
  532MOL0     H71807   8.465   8.716  10.806  0.1391  0.7588  0.4445
  532MOL0     H71808   8.017   8.604  10.753  0.1860 -2.6630 -0.9221
  532MOL0     H71809   8.095   8.585  10.579  0.6760 -0.7213  0.7592
  532MOL0     H71810   7.942   8.741  10.537 -0.2759 -0.1182  0.8202
  532MOL0     H71811   8.091   8.809  10.541  0.5254 -0.6599  0.3561
  532MOL0     H71812   7.942   8.962  10.646  1.0747  0.2391 -0.8176
  532MOL0     H71813   8.030   8.903  10.787  1.1134  1.4033 -1.7568
  532MOL0     H71814   7.741   8.841  10.729 -1.1244  2.7633  1.9253
  532MOL0     H71815   7.837   8.735  10.830 -2.7470  1.2143  1.9338
  532MOL0     H71816   7.767   9.074  11.072 -2.7150 -1.5440 -0.0265
  532MOL0     H71817   8.125   8.440  10.828 -0.4763 -2.7586  1.6368
  532MOL0     H71818   8.240   8.185  10.975 -2.5951 -0.8143 -0.1346
  532MOL0     H71819   8.208   8.283  11.121 -1.1389 -2.0032 -0.0849
  532MOL0     H71820   8.104   8.290  10.981 -0.4141 -2.9559 -0.7207
  533MOL0     O71821   0.192   0.069   9.693 -0.5539 -0.2065  0.4755
  533MOL0     C71822   0.188   0.087   9.815  0.9734  0.5980 -0.4541
  533MOL0     O71823   0.303   0.099   9.890  0.0300 -0.5763  0.5103
  533MOL0     C71824   0.432   0.066   9.839  1.4578  0.2107  0.1018
  533MOL0     C71825   0.468  -0.057   9.787  0.2183 -0.2166 -0.0128
  533MOL0     C71826   0.590  -0.090   9.713 -0.4123  0.8263 -0.2975
  533MOL0     C71827   0.682   0.019   9.711  0.1215  0.9613 -0.0159
  533MOL0     O71828   0.815   0.004   9.681  0.4293  0.8372 -0.6068
  533MOL0     C71829   0.875  -0.130   9.654  0.1485 -0.7494 -0.0740
  533MOL0     C71830   1.020  -0.093   9.597 -0.7495  0.5661  0.1110
  533MOL0     C71831   1.088  -0.232   9.559  0.0222 -0.3659  1.2511
  533MOL0     C71832   1.230  -0.214   9.508 -0.3378  0.5585 -0.1564
  533MOL0     C71833   1.272  -0.337   9.421  0.5507 -0.9466 -0.4192
  533MOL0     C71834   1.414  -0.312   9.363 -0.4198  0.0099 -0.9872
  533MOL0     C71835   1.514  -0.283   9.475 -0.1742 -0.3058  0.1810
  533MOL0     C71836   1.648  -0.285   9.412 -0.7479 -0.8453 -0.1250
  533MOL0     N71837   1.753  -0.286   9.520 -0.2198 -0.3764  0.3692
  533MOL0     C71838   1.886  -0.271   9.490  0.0266  0.3283  0.3829
  533MOL0     C71839   1.937  -0.249   9.608  0.4820  0.2642 -0.1557
  533MOL0     C71840   2.082  -0.212   9.631  0.5591 -0.2205 -0.0357
  533MOL0     C71841   2.160  -0.316   9.705  0.3249  0.0417  0.4022
  533MOL0     C71842   2.208  -0.417   9.607 -1.4150  0.3361  0.5877
  533MOL0     C71843   2.290  -0.392   9.484  0.8378  0.1476 -0.0634
  533MOL0     O71844   2.222  -0.349   9.370 -0.6524 -0.5255 -0.3196
  533MOL0     C71845   2.286  -0.353   9.243  0.5945  0.0157 -0.4724
  533MOL0     C71846   2.193  -0.326   9.135 -0.4074 -0.8138  0.2256
  533MOL0     C71847   2.221  -0.331   8.996 -0.3282  0.1776 -0.6323
  533MOL0     C71848   2.345  -0.379   8.960  0.9563 -0.6286 -0.0024
  533MOL0     C71849   2.382  -0.392   8.818 -0.3575  0.8422 -0.6167
  533MOL0     O71850   2.277  -0.415   8.734  0.7267  0.9294  0.3756
  533MOL0     C71851   2.310  -0.475   8.617 -0.3097  0.5205 -0.0099
  533MOL0     C71852   2.282  -0.393   8.511 -0.1056  0.6619 -0.9430
  533MOL0     C71853   2.310  -0.432   8.379 -0.4200  0.3416 -0.4679
  533MOL0     C71854   2.364  -0.560   8.352  0.3277  0.0197 -1.0606
  533MOL0     O71855   2.364  -0.591   8.219  0.2513  1.0679  0.1288
  533MOL0     C71856   2.399  -0.728   8.174  0.0467 -0.5240 -0.3657
  533MOL0     C71857   2.482  -0.729   8.051 -0.1788 -0.4529  1.2819
  533MOL0     C71858   2.623  -0.677   8.062 -0.1361 -0.1892  0.1025
  533MOL0     C71859   2.730  -0.769   8.123  0.1035  0.0669 -0.1953
  533MOL0     C71860   2.868  -0.702   8.119  0.5133 -0.1988  0.0472
  533MOL0     C71861   2.902  -0.598   8.225 -0.7972  0.7316  0.2316
  533MOL0     C71862   3.033  -0.525   8.182 -0.0254 -0.2232  0.1973
  533MOL0     C71863   3.159  -0.611   8.180  0.2021 -0.3335  0.3404
  533MOL0    Cl71864   3.188  -0.716   8.328  0.2020 -0.3728 -0.1244
  533MOL0     C71865   2.406  -0.643   8.461  0.4875  0.7277 -0.6650
  533MOL0     C71866   2.366  -0.602   8.596  0.3891  0.1560 -0.4523
  533MOL0     O71867   2.499  -0.411   8.781 -0.6411 -0.4762 -1.1751
  533MOL0     C71868   2.433  -0.413   9.066 -0.0054  0.4542  0.3711
  533MOL0     C71869   2.404  -0.408   9.200  0.2977 -0.0928  0.3486
  533MOL0     N71870   1.840  -0.260   9.707 -0.2884  1.3480 -0.0638
  533MOL0     N71871   1.719  -0.280   9.650 -0.7926  0.3354  0.2386
  533MOL0     C71872   0.653   0.140   9.770 -0.6179 -0.1117  0.3811
  533MOL0     C71873   0.526   0.165   9.825  0.5292 -0.4125 -0.4796
  533MOL0     C71874   0.062   0.072   9.888 -0.0513  0.0191 -0.5967
  533MOL0     C71875   0.053   0.140  10.013 -0.1535  0.3102  0.4929
  533MOL0     C71876  -0.066   0.137  10.078 -0.2939  0.0160 -1.0216
  533MOL0     C71877  -0.183   0.073  10.030 -0.3525  0.5899  0.1185
  533MOL0     O71878  -0.304   0.076  10.091 -0.1982  0.0371  0.1950
  533MOL0     C71879  -0.328   0.183  10.181 -0.5699  0.8092  0.3981
  533MOL0     C71880  -0.469   0.170  10.238 -0.1863 -0.3717  0.3762
  533MOL0     C71881  -0.511   0.296  10.319 -0.6100  0.0355  0.3012
  533MOL0     C71882  -0.451   0.297  10.463  0.1807  0.1471 -0.1033
  533MOL0     C71883  -0.501   0.405  10.557 -0.2384 -0.3697 -0.1656
  533MOL0     C71884  -0.531   0.488  10.636  0.1215 -1.3297  1.0453
  533MOL0     C71885  -0.173  -0.005   9.918  0.0372  0.7230  0.0789
  533MOL0     C71886  -0.053  -0.014   9.845  0.0628 -0.0627 -0.2782
  533MOL0     C71887  -0.065  -0.096   9.722 -0.4798  0.0575 -0.0477
  533MOL0     H71888   0.384  -0.126   9.781  0.9927 -1.2714  0.9146
  533MOL0     H71889   0.613  -0.193   9.688  1.8477  1.4554 -1.0530
  533MOL0     H71890   0.880  -0.191   9.745  0.0740 -2.2744 -1.0587
  533MOL0     H71891   0.828  -0.186   9.573  0.7270 -3.6359  1.4458
  533MOL0     H71892   1.082  -0.034   9.664  0.1386 -0.2574  0.0399
  533MOL0     H71893   1.008  -0.036   9.505 -1.3002  1.5678  0.7899
  533MOL0     H71894   1.028  -0.275   9.479 -1.4097 -0.0618  2.1195
  533MOL0     H71895   1.077  -0.311   9.633 -0.5933 -0.8463  0.6624
  533MOL0     H71896   1.244  -0.117   9.460  0.3141  1.0661  1.0076
  533MOL0     H71897   1.296  -0.212   9.595 -2.7205  2.7538  1.7973
  533MOL0     H71898   1.277  -0.425   9.485  2.2257 -0.5147  0.1045
  533MOL0     H71899   1.200  -0.352   9.340  1.5187 -2.3213 -1.0800
  533MOL0     H71900   1.446  -0.397   9.302 -2.4599 -1.2794 -0.3910
  533MOL0     H71901   1.412  -0.223   9.301 -3.8441  0.4785 -0.4247
  533MOL0     H71902   1.509  -0.362   9.550 -0.2578 -0.9140 -0.4438
  533MOL0     H71903   1.494  -0.184   9.515  2.7273  1.4183 -2.1961
  533MOL0     H71904   1.661  -0.376   9.352 -0.5317 -0.2269 -1.0170
  533MOL0     H71905   1.675  -0.199   9.351  1.1278 -0.8036  0.7069
  533MOL0     H71906   1.938  -0.276   9.395 -0.6671 -0.8840  0.0480
  533MOL0     H71907   2.131  -0.176   9.540  0.7991  0.0641  0.2026
  533MOL0     H71908   2.089  -0.124   9.696 -1.9529 -0.9335  1.2860
  533MOL0     H71909   2.244  -0.270   9.759  0.9668  1.2945 -1.5361
  533MOL0     H71910   2.093  -0.363   9.777  3.8199 -4.0148  1.4377
  533MOL0     H71911   2.122  -0.471   9.566  0.3016 -1.6086 -0.6564
  533MOL0     H71912   2.253  -0.495   9.668  0.7443 -0.2513 -1.6170
  533MOL0     H71913   2.334  -0.492   9.470  2.0515  0.7791 -0.9674
  533MOL0     H71914   2.367  -0.318   9.509  0.0091  1.0008 -0.0017
  533MOL0     H71915   2.089  -0.316   9.166 -0.4138  0.6625 -0.1783
  533MOL0     H71916   2.146  -0.325   8.917 -1.5721 -1.8007  0.3171
  533MOL0     H71917   2.237  -0.296   8.525  3.2584  2.0876  1.1351
  533MOL0     H71918   2.268  -0.372   8.299 -1.4303 -1.0860 -1.0586
  533MOL0     H71919   2.460  -0.787   8.243 -1.0586 -0.7901  0.4015
  533MOL0     H71920   2.306  -0.784   8.162 -0.8605  0.1768  2.6680
  533MOL0     H71921   2.490  -0.831   8.012 -2.5395 -0.2724  0.1629
  533MOL0     H71922   2.439  -0.666   7.973  0.6508 -3.4646 -1.8196
  533MOL0     H71923   2.645  -0.654   7.957 -2.3037  1.2370 -0.1067
  533MOL0     H71924   2.620  -0.590   8.127 -1.3296  0.0457 -0.2296
  533MOL0     H71925   2.726  -0.859   8.062  0.2742 -0.7501  0.9607
  533MOL0     H71926   2.716  -0.793   8.229  1.7436  0.0855  0.0459
  533MOL0     H71927   2.898  -0.660   8.022 -1.3166  0.2892 -0.3458
  533MOL0     H71928   2.937  -0.787   8.127 -2.6299 -2.8605  1.6178
  533MOL0     H71929   2.816  -0.530   8.235 -0.6254  0.7321  2.0018
  533MOL0     H71930   2.924  -0.639   8.324 -0.8605 -2.3318 -0.9098
  533MOL0     H71931   3.045  -0.437   8.246  3.7263 -0.4865  0.0364
  533MOL0     H71932   3.005  -0.483   8.085 -3.4371 -0.9740  0.7036
  533MOL0     H71933   3.155  -0.684   8.100 -0.0075  0.4545 -0.3814
  533MOL0     H71934   3.245  -0.543   8.171 -0.2309 -0.0159 -1.8214
  533MOL0     H71935   2.462  -0.735   8.447  2.1949  1.2266  2.2595
  533MOL0     H71936   2.388  -0.669   8.678  0.1782  0.5945 -0.0365
  533MOL0     H71937   2.528  -0.452   9.029 -1.3105  0.8592 -4.0009
  533MOL0     H71938   2.471  -0.462   9.266  0.8818 -0.4655 -0.5390
  533MOL0     H71939   0.734   0.212   9.775  0.6834 -1.4678 -0.3517
  533MOL0     H71940   0.508   0.269   9.852  1.0332 -0.7198  1.1308
  533MOL0     H71941   0.142   0.186  10.056  1.8178 -2.1754 -0.6089
  533MOL0     H71942  -0.069   0.189  10.173  3.8332 -0.8833 -0.2076
  533MOL0     H71943  -0.313   0.268  10.113  1.1691 -0.3910 -0.8331
  533MOL0     H71944  -0.258   0.192  10.265 -0.0108  0.9091 -0.0689
  533MOL0     H71945  -0.482   0.079  10.297 -1.6842 -1.0262 -0.8727
  533MOL0     H71946  -0.535   0.162  10.151  0.9600 -1.2245 -0.4503
  533MOL0     H71947  -0.620   0.296  10.332 -0.3043 -1.0250  4.0470
  533MOL0     H71948  -0.490   0.387  10.262 -0.1875 -1.2192 -1.6323
  533MOL0     H71949  -0.476   0.199  10.504 -1.4322  0.5509 -0.0745
  533MOL0     H71950  -0.342   0.304  10.456  0.1524  0.8957  0.1391
  533MOL0     H71951  -0.556   0.570  10.701 -2.4667 -1.8110  0.7367
  533MOL0     H71952  -0.252  -0.068   9.878  0.3732  1.1159 -1.2547
  533MOL0     H71953  -0.126  -0.052   9.643  1.6666 -1.8382 -2.9923
  533MOL0     H71954   0.037  -0.112   9.686  0.3143  1.9829  1.1588
  533MOL0     H71955  -0.122  -0.186   9.747 -3.0713  2.0176  1.6771
  534MOL0     O71956  11.166   4.058   2.887  0.0544 -0.0643  0.5615
  534MOL0     C71957  11.045   4.057   2.890 -0.1086  0.4613  0.6629
  534MOL0     O71958  10.975   4.049   3.002 -0.0550  0.0840  0.0414
  534MOL0     C71959  11.020   4.026   3.125 -0.3655 -0.2807 -0.6914
  534MOL0     C71960  10.919   3.985   3.211  0.4621  0.3492  0.2709
  534MOL0     C71961  10.940   3.968   3.347 -0.7021 -1.2558 -0.2969
  534MOL0     C71962  11.068   3.992   3.406  0.8494  0.5120  0.1526
  534MOL0     O71963  11.092   3.991   3.534  0.0794  0.0253 -0.3698
  534MOL0     C71964  11.002   4.033   3.640  0.2590  0.0146 -1.1177
  534MOL0     C71965  11.101   4.075   3.752  0.1943 -0.4747 -1.0420
  534MOL0     C71966  11.213   3.970   3.781 -0.0589 -0.4309  0.8938
  534MOL0     C71967  11.346   3.992   3.703  0.1101  0.4943 -0.1055
  534MOL0     C71968  11.439   3.863   3.691  0.2675  0.1323 -0.1646
  534MOL0     C71969  11.537   3.873   3.577 -0.0310 -0.1187 -0.3531
  534MOL0     C71970  11.631   3.759   3.570  0.0261 -0.3571  0.3002
  534MOL0     C71971  11.760   3.803   3.496  0.8702  0.8940  0.0866
  534MOL0     N71972  11.851   3.690   3.476  0.5300  1.0981 -1.3946
  534MOL0     C71973  11.857   3.617   3.363  0.4169 -0.2698 -0.3644
  534MOL0     C71974  11.980   3.559   3.351 -0.7259  0.5052 -0.1495
  534MOL0     C71975  12.032   3.491   3.230  0.0067 -0.2778 -0.7323
  534MOL0     C71976  12.126   3.583   3.145  0.3837  0.3910 -1.1928
  534MOL0     C71977  12.271   3.576   3.200  0.5360 -0.0611 -0.2976
  534MOL0     C71978  12.378   3.634   3.094  0.0495 -0.4895 -0.0759
  534MOL0     O71979  12.511   3.650   3.156 -0.3496 -0.2882  0.6538
  534MOL0     C71980  12.625   3.642   3.078  0.4766 -0.6557 -0.8472
  534MOL0     C71981  12.744   3.635   3.153 -0.4411  0.1162  0.0697
  534MOL0     C71982  12.860   3.650   3.086  0.2656  0.6802  0.3445
  534MOL0     C71983  12.866   3.651   2.944  0.5177  0.4379  0.0250
  534MOL0     C71984  13.004   3.659   2.872 -0.1326 -0.3466 -0.4321
  534MOL0     O71985  13.114   3.651   2.950 -0.5009  0.0470  0.4353
  534MOL0     C71986  13.245   3.665   2.908 -0.0094  0.1638 -0.1946
  534MOL0     C71987  13.289   3.682   2.774 -0.0068  0.5539 -0.9236
  534MOL0     C71988  13.419   3.721   2.746  0.0077  0.5857 -0.4195
  534MOL0     C71989  13.523   3.731   2.839 -0.9112  1.2550  0.4470
  534MOL0     O71990  13.641   3.777   2.794  0.2197  0.3906  0.3000
  534MOL0     C71991  13.765   3.752   2.867 -0.3100 -0.2031 -0.3955
  534MOL0     C71992  13.884   3.771   2.761  0.3763 -0.3431 -0.2480
  534MOL0     C71993  14.018   3.744   2.828  0.0398 -0.2580 -0.0755
  534MOL0     C71994  14.133   3.757   2.735 -0.6143  1.0580 -0.5361
  534MOL0     C71995  14.250   3.737   2.833  0.4438 -0.1037  0.0097
  534MOL0     C71996  14.381   3.743   2.743  0.8415  0.1747  0.9228
  534MOL0     C71997  14.505   3.729   2.829 -0.3584 -0.3616  0.0402
  534MOL0     C71998  14.635   3.711   2.738 -0.2453 -0.1035 -0.4086
  534MOL0    Cl71999  14.764   3.731   2.854  0.1236  0.3069  0.0321
  534MOL0     C72000  13.483   3.702   2.973 -0.1581  0.5366 -0.5019
  534MOL0     C72001  13.343   3.684   3.004  0.3324  0.5075 -1.0441
  534MOL0     O72002  13.002   3.672   2.749 -0.9287  0.0948  0.4170
  534MOL0     C72003  12.750   3.650   2.867  0.4588 -0.1363 -0.2926
  534MOL0     C72004  12.630   3.664   2.937 -0.7852  0.3060 -0.4859
  534MOL0     N72005  12.040   3.579   3.473  0.1118  0.9293 -0.7187
  534MOL0     N72006  11.961   3.652   3.548  0.9295 -0.1975 -0.0591
  534MOL0     C72007  11.177   4.023   3.320  0.1256 -0.5727 -0.6289
  534MOL0     C72008  11.152   4.047   3.182 -0.5774  0.5913 -0.0134
  534MOL0     C72009  10.988   4.062   2.765  0.1405  0.0752 -0.2257
  534MOL0     C72010  10.881   4.145   2.747 -0.1234  0.0730  0.0278
  534MOL0     C72011  10.807   4.163   2.622 -0.3180 -0.6942  0.6183
  534MOL0     C72012  10.862   4.095   2.512 -0.4266  0.3103  0.0749
  534MOL0     O72013  10.813   4.108   2.384 -0.0777  0.8577 -0.2667
  534MOL0     C72014  10.720   4.211   2.342  0.7302  0.4857  0.0577
  534MOL0     C72015  10.574   4.175   2.389  0.8003  0.2390  0.5678
  534MOL0     C72016  10.514   4.063   2.311  0.2032  0.3668  0.0839
  534MOL0     C72017  10.524   4.060   2.155  0.3092  0.4139 -0.0123
  534MOL0     C72018  10.463   4.165   2.084 -0.9769 -0.4623 -0.0505
  534MOL0     C72019  10.419   4.270   2.025 -0.1521  0.1616 -1.0003
  534MOL0     C72020  10.979   4.029   2.525 -0.4064  1.0949  0.3680
  534MOL0     C72021  11.040   3.993   2.648  0.2294  0.7598 -0.2912
  534MOL0     C72022  11.154   3.897   2.650 -0.4004  0.8172  0.5250
  534MOL0     H72023  10.818   3.969   3.174  1.7275 -2.4933 -2.3273
  534MOL0     H72024  10.851   3.950   3.407 -1.3313  0.9868 -0.4809
  534MOL0     H72025  10.930   4.111   3.614  0.0208  1.6393  3.4239
  534MOL0     H72026  10.944   3.950   3.682  1.6247 -0.2490  0.3648
  534MOL0     H72027  11.038   4.098   3.839 -0.3428  1.7564 -1.9582
  534MOL0     H72028  11.154   4.169   3.736  0.7297 -1.2149 -4.1150
  534MOL0     H72029  11.168   3.871   3.766 -2.9289  0.7203  1.3298
  534MOL0     H72030  11.239   3.984   3.886  2.4050  3.9460 -0.0472
  534MOL0     H72031  11.321   4.036   3.606 -2.4572 -0.7855 -0.1170
  534MOL0     H72032  11.388   4.075   3.762 -0.6385 -1.1825  2.9956
  534MOL0     H72033  11.490   3.836   3.784 -0.1921 -1.0160 -0.2257
  534MOL0     H72034  11.370   3.785   3.656 -1.4372  2.3499 -2.0227
  534MOL0     H72035  11.487   3.886   3.481  0.1859  1.2925 -0.2931
  534MOL0     H72036  11.605   3.957   3.594  1.4827 -0.8714 -2.2795
  534MOL0     H72037  11.581   3.686   3.505 -1.1502  1.5571 -1.0210
  534MOL0     H72038  11.652   3.711   3.667  0.6734  0.6375  0.6701
  534MOL0     H72039  11.726   3.835   3.397  0.4503  0.3814  0.0637
  534MOL0     H72040  11.810   3.882   3.553  2.1180 -0.0648  0.3492
  534MOL0     H72041  11.778   3.609   3.289  0.1652  1.2067 -0.2754
  534MOL0     H72042  12.099   3.413   3.267 -1.5143  0.1522  3.4731
  534MOL0     H72043  11.951   3.444   3.174 -0.5858  2.0321 -1.8878
  534MOL0     H72044  12.128   3.529   3.050  0.1517 -1.4483 -0.2011
  534MOL0     H72045  12.097   3.688   3.144  1.9331  0.8961  0.9863
  534MOL0     H72046  12.303   3.472   3.212  0.3050  0.1053  2.3905
  534MOL0     H72047  12.273   3.627   3.297 -1.3918 -0.6664  0.1026
  534MOL0     H72048  12.358   3.733   3.054 -0.6689 -1.3689 -2.0469
  534MOL0     H72049  12.380   3.561   3.012 -0.3829  0.7098 -1.1847
  534MOL0     H72050  12.733   3.618   3.259  0.6963 -2.3059 -0.1443
  534MOL0     H72051  12.955   3.652   3.139 -0.3078  1.4053  1.3738
  534MOL0     H72052  13.226   3.655   2.690 -2.0569 -0.6887  0.9138
  534MOL0     H72053  13.447   3.722   2.641  1.4654  1.1468 -0.0446
  534MOL0     H72054  13.775   3.833   2.941  1.6583  1.7416 -2.5922
  534MOL0     H72055  13.776   3.653   2.911 -2.0776 -0.1338  0.2652
  534MOL0     H72056  13.874   3.693   2.684  3.8431 -1.1944 -0.0439
  534MOL0     H72057  13.870   3.864   2.706 -0.5905 -0.5922 -0.4331
  534MOL0     H72058  14.037   3.808   2.915  3.1599 -0.3582 -0.5587
  534MOL0     H72059  14.016   3.642   2.868  3.0506 -0.4465 -0.1632
  534MOL0     H72060  14.133   3.856   2.690 -1.5729  0.8608 -0.9913
  534MOL0     H72061  14.134   3.686   2.652  1.8129  0.7564 -0.3290
  534MOL0     H72062  14.254   3.635   2.872  0.9493 -0.3514 -0.6759
  534MOL0     H72063  14.243   3.809   2.915 -1.3811 -0.4749  0.2275
  534MOL0     H72064  14.381   3.655   2.677 -2.4635  0.8201 -0.1276
  534MOL0     H72065  14.375   3.835   2.684  2.5553 -0.2218  0.0674
  534MOL0     H72066  14.511   3.651   2.906 -0.4297  1.6502  2.2047
  534MOL0     H72067  14.525   3.824   2.879  1.5650 -0.5017 -0.3794
  534MOL0     H72068  14.649   3.621   2.677 -0.1183 -1.4798  1.5487
  534MOL0     H72069  14.631   3.795   2.669  1.3211 -0.1099 -0.5357
  534MOL0     H72070  13.560   3.700   3.050 -0.6976 -0.6834  0.0310
  534MOL0     H72071  13.303   3.681   3.104  0.6155 -1.3393 -0.9567
  534MOL0     H72072  12.746   3.653   2.758 -1.3604 -0.1002 -0.2601
  534MOL0     H72073  12.531   3.674   2.892 -1.7084  1.2110  1.6253
  534MOL0     H72074  11.275   4.042   3.362 -0.2197  0.2125 -0.1711
  534MOL0     H72075  11.240   4.077   3.126  2.7611  0.2027  4.4854
  534MOL0     H72076  10.850   4.193   2.839  0.2307 -0.6703  0.5345
  534MOL0     H72077  10.727   4.235   2.617  0.2752 -0.0901 -1.9992
  534MOL0     H72078  10.719   4.232   2.235 -2.2194  0.0115 -0.1001
  534MOL0     H72079  10.752   4.297   2.401 -1.8797  0.4044  1.7795
  534MOL0     H72080  10.499   4.255   2.389  1.6946  1.1034  1.4238
  534MOL0     H72081  10.574   4.149   2.495 -0.8835 -1.7708  0.1410
  534MOL0     H72082  10.408   4.073   2.335  0.2537  2.4221 -0.3857
  534MOL0     H72083  10.544   3.965   2.350 -2.1621 -1.7040 -2.8882
  534MOL0     H72084  10.629   4.073   2.128  0.4276  2.6712  1.2605
  534MOL0     H72085  10.483   3.965   2.120  1.5796 -0.2960  0.3770
  534MOL0     H72086  10.358   4.351   1.992  0.6912  0.6565 -1.3816
  534MOL0     H72087  11.023   3.980   2.439 -0.9856  2.9333 -1.0276
  534MOL0     H72088  11.246   3.956   2.647  0.2623 -0.1451  1.5817
  534MOL0     H72089  11.161   3.841   2.743 -4.8607 -0.2498  0.4648
  534MOL0     H72090  11.145   3.827   2.567  2.4200  0.1065  0.7163
  535MOL0     O72091   4.755   9.114   2.612  0.2320 -0.3211 -0.0338
  535MOL0     C72092   4.733   9.229   2.566  0.3213  0.6339  0.3385
  535MOL0     O72093   4.822   9.301   2.493  0.4003  0.2674  0.3011
  535MOL0     C72094   4.960   9.282   2.521 -0.4117 -0.9450  0.1101
  535MOL0     C72095   5.022   9.162   2.498  0.1849 -0.4842  0.1727
  535MOL0     C72096   5.150   9.140   2.554 -0.3634  0.2334  0.7951
  535MOL0     C72097   5.209   9.237   2.639 -0.8719 -0.4570  0.0495
  535MOL0     O72098   5.330   9.228   2.714 -0.4471  0.2085  0.2892
  535MOL0     C72099   5.390   9.101   2.726  0.1058 -0.0534  0.4904
  535MOL0     C72100   5.499   9.115   2.831  0.0771 -0.7039  0.0199
  535MOL0     C72101   5.581   8.991   2.828 -1.0257  0.7382 -0.8346
  535MOL0     C72102   5.662   8.962   2.700 -1.0108 -0.2189  0.4322
  535MOL0     C72103   5.757   8.848   2.728  0.1605 -0.6996 -0.2681
  535MOL0     C72104   5.805   8.760   2.613  0.3166 -0.3007 -0.4566
  535MOL0     C72105   5.959   8.764   2.581  0.4869  1.0197  0.1886
  535MOL0     C72106   6.023   8.666   2.682 -1.1650  0.3012  0.7697
  535MOL0     N72107   6.175   8.666   2.665 -0.1858 -0.0192 -0.3838
  535MOL0     C72108   6.252   8.586   2.585 -0.4458 -0.0390 -0.1759
  535MOL0     C72109   6.372   8.643   2.567  0.6902 -0.9340  0.3554
  535MOL0     C72110   6.492   8.610   2.472 -0.3003  0.5042  0.1370
  535MOL0     C72111   6.571   8.476   2.500 -0.2935 -0.9166 -0.2219
  535MOL0     C72112   6.672   8.460   2.388 -0.2587  0.1679  0.2319
  535MOL0     C72113   6.728   8.323   2.366 -1.1698  0.0122 -0.9859
  535MOL0     O72114   6.809   8.330   2.247  0.0153 -0.2893 -0.6493
  535MOL0     C72115   6.932   8.387   2.240 -0.5916  0.2532  0.9119
  535MOL0     C72116   7.007   8.416   2.355 -0.2075  0.0837 -0.3108
  535MOL0     C72117   7.140   8.450   2.342  0.2735 -0.5306  0.6589
  535MOL0     C72118   7.192   8.457   2.217  0.3933  0.2593  0.6889
  535MOL0     C72119   7.329   8.508   2.212  0.7305  0.5566  0.4722
  535MOL0     O72120   7.386   8.556   2.325  0.8296  0.0015  0.6029
  535MOL0     C72121   7.516   8.604   2.333 -0.5054 -0.7923 -0.3498
  535MOL0     C72122   7.619   8.550   2.256  0.6016 -0.1731 -0.2451
  535MOL0     C72123   7.750   8.597   2.248 -0.8052  0.0665 -0.5379
  535MOL0     C72124   7.783   8.700   2.328 -0.7696  0.1214  0.2249
  535MOL0     O72125   7.917   8.742   2.316 -0.1027 -0.6869 -0.1171
  535MOL0     C72126   7.973   8.840   2.410 -0.4956 -0.5606  0.1452
  535MOL0     C72127   8.116   8.880   2.362  0.5394  0.3471 -0.5502
  535MOL0     C72128   8.168   9.006   2.433  0.5702  0.1593  0.6744
  535MOL0     C72129   8.285   9.064   2.351  0.8679  1.1264 -0.0379
  535MOL0     C72130   8.335   9.194   2.406 -0.1249 -0.1845 -0.3804
  535MOL0     C72131   8.482   9.226   2.366  1.0373  0.2680 -0.4739
  535MOL0     C72132   8.510   9.229   2.218 -0.2286  0.0953 -0.0310
  535MOL0     C72133   8.648   9.282   2.195  0.0239 -1.0365 -0.5970
  535MOL0    Cl72134   8.648   9.448   2.255  0.2750 -0.5120 -0.0399
  535MOL0     C72135   7.685   8.748   2.420 -0.2048 -1.2528 -0.4645
  535MOL0     C72136   7.552   8.710   2.418  0.9856 -0.1572  0.4668
  535MOL0     O72137   7.383   8.509   2.099  0.3597  0.1279 -0.1221
  535MOL0     C72138   7.113   8.430   2.099  0.3253  0.0211 -0.0996
  535MOL0     C72139   6.988   8.381   2.113 -0.0646 -0.2557  0.9622
  535MOL0     N72140   6.363   8.762   2.626  0.7022 -0.6072 -0.5756
  535MOL0     N72141   6.253   8.773   2.688 -0.9051  0.3003 -0.1093
  535MOL0     C72142   5.156   9.367   2.645 -0.5448 -0.1686  0.0061
  535MOL0     C72143   5.032   9.388   2.581 -0.7949 -0.3229  0.2129
  535MOL0     C72144   4.600   9.279   2.598 -0.2042  0.3300  0.7361
  535MOL0     C72145   4.509   9.199   2.671  0.5139  0.9514  0.1846
  535MOL0     C72146   4.380   9.238   2.708  0.3694 -0.7772  0.4949
  535MOL0     C72147   4.333   9.365   2.672 -0.3039 -0.1082 -0.3315
  535MOL0     O72148   4.222   9.411   2.731  0.0420  0.0801 -0.2058
  535MOL0     C72149   4.187   9.553   2.735  1.1238 -0.3071 -0.2103
  535MOL0     C72150   4.055   9.559   2.817  0.3574 -1.0037 -0.2299
  535MOL0     C72151   4.093   9.511   2.959 -0.5283 -0.2294  0.9234
  535MOL0     C72152   4.175   9.607   3.043 -0.0396 -0.1152 -0.4983
  535MOL0     C72153   4.101   9.728   3.080  0.0705 -0.9066 -0.1063
  535MOL0     C72154   4.063   9.843   3.103  0.4119 -0.3713 -0.0058
  535MOL0     C72155   4.426   9.447   2.599  0.9132  0.7448 -0.0466
  535MOL0     C72156   4.555   9.406   2.559  0.8104  0.2984  0.2500
  535MOL0     C72157   4.639   9.513   2.483 -0.1371  0.4421  1.1798
  535MOL0     H72158   4.987   9.076   2.443  3.0201 -0.6287 -1.6185
  535MOL0     H72159   5.191   9.041   2.539 -0.8913  0.2358 -0.9352
  535MOL0     H72160   5.323   9.021   2.759 -0.1322  0.1421  0.4830
  535MOL0     H72161   5.437   9.072   2.632  1.7210 -0.0730  1.2582
  535MOL0     H72162   5.445   9.124   2.926 -0.6682 -0.3351 -0.4343
  535MOL0     H72163   5.560   9.202   2.808 -2.5853  1.9774  2.3242
  535MOL0     H72164   5.523   8.903   2.857  0.5905  0.0616  0.5282
  535MOL0     H72165   5.646   9.007   2.915 -2.4269  1.2820  0.1545
  535MOL0     H72166   5.588   8.947   2.620 -2.9055  3.0471  1.3892
  535MOL0     H72167   5.720   9.049   2.666  0.2969 -2.0605 -2.5012
  535MOL0     H72168   5.843   8.889   2.780  0.7592  2.5922 -3.4238
  535MOL0     H72169   5.703   8.778   2.792  3.2332 -2.6536  0.3929
  535MOL0     H72170   5.768   8.659   2.632  0.0704  0.2141  2.0694
  535MOL0     H72171   5.766   8.808   2.522 -2.5127  0.3986  1.0212
  535MOL0     H72172   6.000   8.865   2.586 -0.7962  1.5376  0.8185
  535MOL0     H72173   5.966   8.722   2.480 -2.1575 -0.7440  0.6138
  535MOL0     H72174   5.995   8.688   2.786 -2.0555  1.4520  0.3164
  535MOL0     H72175   6.001   8.563   2.655 -0.4288 -0.0805  1.5806
  535MOL0     H72176   6.222   8.502   2.523 -2.2331 -0.2128  0.8689
  535MOL0     H72177   6.452   8.618   2.371 -1.8211 -1.9736  0.4787
  535MOL0     H72178   6.572   8.683   2.493 -0.2843  0.5686 -0.1412
  535MOL0     H72179   6.595   8.483   2.606  0.5733 -0.4923 -0.4373
  535MOL0     H72180   6.499   8.394   2.494  0.2247 -1.3514 -0.6052
  535MOL0     H72181   6.755   8.531   2.392  0.8947 -1.0613 -0.9066
  535MOL0     H72182   6.618   8.472   2.293  0.8595 -0.4248 -0.5015
  535MOL0     H72183   6.653   8.245   2.355 -1.3988 -0.2014  1.5941
  535MOL0     H72184   6.795   8.299   2.450 -0.4135  1.7967 -1.0376
  535MOL0     H72185   6.964   8.418   2.455 -1.5655  1.4851 -0.8749
  535MOL0     H72186   7.185   8.467   2.439 -0.2414  0.6814  0.6959
  535MOL0     H72187   7.595   8.459   2.202  0.9468 -0.7264  0.5153
  535MOL0     H72188   7.826   8.554   2.183  1.7535  2.5738  0.5955
  535MOL0     H72189   7.920   8.935   2.402 -0.5813 -0.7731 -3.1752
  535MOL0     H72190   7.979   8.801   2.512  0.6564  0.2508  0.4038
  535MOL0     H72191   8.182   8.793   2.359 -0.6765 -0.6614  0.3101
  535MOL0     H72192   8.106   8.912   2.258  3.3114  0.1573 -0.9255
  535MOL0     H72193   8.091   9.082   2.451  0.4296  0.2707 -0.3462
  535MOL0     H72194   8.205   8.981   2.533  0.1896  0.8687  0.9929
  535MOL0     H72195   8.259   9.060   2.245  2.0175 -3.3563 -0.3621
  535MOL0     H72196   8.369   8.995   2.361  0.4065 -0.0127 -3.0356
  535MOL0     H72197   8.324   9.194   2.515 -1.4398 -2.8694 -0.4304
  535MOL0     H72198   8.268   9.274   2.372  2.0599  1.3417 -1.3066
  535MOL0     H72199   8.512   9.315   2.421  2.4306 -0.4603 -0.0149
  535MOL0     H72200   8.545   9.150   2.412  1.4884  1.4568  0.9253
  535MOL0     H72201   8.435   9.288   2.165 -1.1639 -0.6966  0.3803
  535MOL0     H72202   8.496   9.127   2.180 -1.6751  0.3550 -0.2393
  535MOL0     H72203   8.722   9.236   2.260 -0.9834  0.1563  1.4886
  535MOL0     H72204   8.663   9.273   2.087 -0.8479  1.2380 -0.9510
  535MOL0     H72205   7.712   8.828   2.488 -4.2484 -1.0917  1.2252
  535MOL0     H72206   7.471   8.758   2.471 -1.3358 -1.8751 -1.3195
  535MOL0     H72207   7.168   8.433   2.006 -1.0244 -1.1813 -0.9956
  535MOL0     H72208   6.930   8.345   2.029  0.5767  1.1854 -0.1261
  535MOL0     H72209   5.214   9.447   2.689  0.6634 -1.5018  0.9453
  535MOL0     H72210   4.994   9.489   2.591  2.0186  0.7302  1.4639
  535MOL0     H72211   4.530   9.098   2.707 -1.4467  1.7992  4.2313
  535MOL0     H72212   4.324   9.161   2.759  2.0600 -0.3672  3.1815
  535MOL0     H72213   4.170   9.589   2.633  1.0361  0.1901 -0.0211
  535MOL0     H72214   4.268   9.618   2.769  0.9350  0.3070 -0.9091
  535MOL0     H72215   3.971   9.497   2.783 -0.8327  1.0901 -1.2694
  535MOL0     H72216   4.014   9.659   2.830 -1.2942 -1.9025  2.2371
  535MOL0     H72217   4.155   9.421   2.961  1.6517  1.1846  0.5347
  535MOL0     H72218   4.003   9.498   3.020 -0.0976  0.1984  1.6572
  535MOL0     H72219   4.209   9.556   3.133 -0.2007 -0.1814 -0.4754
  535MOL0     H72220   4.264   9.642   2.988  0.7536 -0.6838  0.3953
  535MOL0     H72221   4.011   9.937   3.109  0.5259 -0.3718  1.2522
  535MOL0     H72222   4.400   9.548   2.570 -1.1069  0.0005 -1.0439
  535MOL0     H72223   4.715   9.557   2.549  1.7898  0.3182 -0.8442
  535MOL0     H72224   4.687   9.473   2.393  1.1502  3.4933  0.3791
  535MOL0     H72225   4.575   9.595   2.450 -1.6119  0.0399  2.8826
  536MOL0     O72226   3.972   9.337   4.017 -0.8154 -0.1239  0.6371
  536MOL0     C72227   3.873   9.305   4.081 -0.2779  0.3646  0.7472
  536MOL0     O72228   3.790   9.202   4.049 -0.2972 -0.3656 -0.9374
  536MOL0     C72229   3.847   9.100   3.974  0.0056 -0.2551 -0.1427
  536MOL0     C72230   3.886   9.109   3.839 -1.5365 -0.2682 -0.6041
  536MOL0     C72231   3.943   8.995   3.781  1.2202  0.2445 -0.3637
  536MOL0     C72232   3.964   8.878   3.850  0.1852 -0.2108 -1.0832
  536MOL0     O72233   4.025   8.766   3.807  0.1034 -0.0445 -0.1977
  536MOL0     C72234   4.012   8.736   3.668  0.1937 -0.9207  0.2890
  536MOL0     C72235   4.090   8.603   3.634 -0.2506  0.0089 -0.5624
  536MOL0     C72236   4.239   8.629   3.639  0.1293 -0.2545  0.2311
  536MOL0     C72237   4.321   8.516   3.568 -0.4513  0.3099 -0.3130
  536MOL0     C72238   4.471   8.540   3.560 -0.0551  0.1126 -0.3273
  536MOL0     C72239   4.511   8.680   3.491  0.2348 -0.7817 -0.2322
  536MOL0     C72240   4.663   8.689   3.495 -0.0016  0.0986  0.2563
  536MOL0     C72241   4.734   8.809   3.420  0.0852 -0.1642 -0.0193
  536MOL0     N72242   4.875   8.820   3.457  0.2142 -0.9141 -0.4863
  536MOL0     C72243   4.967   8.718   3.465 -0.3778 -0.5892  0.1569
  536MOL0     C72244   5.082   8.782   3.509  0.2246  0.1844 -0.5204
  536MOL0     C72245   5.219   8.717   3.534 -0.4461  0.3385  1.2690
  536MOL0     C72246   5.318   8.780   3.435  0.1912 -0.9728  0.3341
  536MOL0     C72247   5.458   8.712   3.413  0.2834  0.7612  0.0511
  536MOL0     C72248   5.537   8.792   3.314 -0.6000 -1.1623  0.3938
  536MOL0     O72249   5.605   8.903   3.377  0.4947 -0.2145  0.0433
  536MOL0     C72250   5.742   8.908   3.406  0.7215 -0.8191  0.3035
  536MOL0     C72251   5.803   9.030   3.383 -0.0523 -0.4089 -0.0930
  536MOL0     C72252   5.935   9.055   3.415 -0.2472 -0.7600  0.1610
  536MOL0     C72253   6.016   8.952   3.460 -0.3266  0.1019 -1.0665
  536MOL0     C72254   6.152   8.976   3.499  1.2543 -0.7807  0.0204
  536MOL0     O72255   6.186   9.101   3.476 -0.4481 -0.2761 -0.3224
  536MOL0     C72256   6.308   9.157   3.507  0.1295 -1.0965  0.2729
  536MOL0     C72257   6.332   9.282   3.448 -0.7293  0.6754  0.6259
  536MOL0     C72258   6.448   9.357   3.440  0.7051  0.8758  0.3824
  536MOL0     C72259   6.556   9.298   3.507 -0.1069 -0.2246 -0.4469
  536MOL0     O72260   6.686   9.348   3.523  0.2884  0.6760 -0.9785
  536MOL0     C72261   6.723   9.440   3.423 -0.4444 -0.0040  0.3740
  536MOL0     C72262   6.697   9.591   3.466 -0.2319 -0.0324  0.0981
  536MOL0     C72263   6.742   9.635   3.609  0.3942  0.7896  0.0592
  536MOL0     C72264   6.718   9.784   3.628 -1.0834  0.2012  0.8870
  536MOL0     C72265   6.736   9.831   3.770  0.2781  0.7257 -0.3220
  536MOL0     C72266   6.718   9.981   3.799 -0.4041  0.5471  0.2050
  536MOL0     C72267   6.578  10.034   3.772 -1.0921 -0.8037  0.4531
  536MOL0     C72268   6.572  10.180   3.803 -0.1915  0.7823 -0.0846
  536MOL0    Cl72269   6.701  10.269   3.715  0.0779 -0.1621  0.3102
  536MOL0     C72270   6.537   9.173   3.577 -0.6143 -0.0041  0.2499
  536MOL0     C72271   6.417   9.104   3.569  0.6180  0.5292  0.1611
  536MOL0     O72272   6.228   8.892   3.547 -0.9369 -0.7218  0.5090
  536MOL0     C72273   5.957   8.828   3.457 -0.3917 -0.3185 -0.3794
  536MOL0     C72274   5.820   8.801   3.427  0.4511  0.6453  1.0525
  536MOL0     N72275   5.059   8.915   3.531 -0.3243  0.8929 -0.2206
  536MOL0     N72276   4.940   8.936   3.498 -0.2653 -0.6020 -0.4661
  536MOL0     C72277   3.924   8.874   3.984 -1.2105 -0.3435  0.1078
  536MOL0     C72278   3.859   8.984   4.046 -0.3333  0.2451 -0.6013
  536MOL0     C72279   3.819   9.404   4.183 -0.3577  1.0656 -0.4383
  536MOL0     C72280   3.904   9.517   4.218  0.3492  1.4333 -0.3894
  536MOL0     C72281   3.872   9.606   4.315  0.8916 -0.9373 -1.0899
  536MOL0     C72282   3.747   9.594   4.379  0.4089 -0.1346  0.5004
  536MOL0     O72283   3.704   9.670   4.484 -0.2631  0.2464 -1.1183
  536MOL0     C72284   3.794   9.773   4.532  0.5615 -0.2854 -0.0288
  536MOL0     C72285   3.895   9.730   4.645 -0.4253 -0.0210  0.0798
  536MOL0     C72286   3.969   9.850   4.707  0.0859  0.4165  0.4951
  536MOL0     C72287   4.076   9.811   4.806 -0.6245  0.9595 -0.4354
  536MOL0     C72288   4.204   9.757   4.735  0.1777 -0.1193  0.2257
  536MOL0     C72289   4.299   9.714   4.665 -0.3127 -0.2126 -0.1464
  536MOL0     C72290   3.663   9.487   4.353  0.4304  0.1730 -0.4319
  536MOL0     C72291   3.704   9.385   4.264 -0.0011  0.2111 -1.3878
  536MOL0     C72292   3.613   9.267   4.247 -0.6469  0.2619  0.4572
  536MOL0     H72293   3.891   9.207   3.793  2.5938  0.4692  0.9453
  536MOL0     H72294   3.962   9.011   3.675  0.2899  1.8878 -0.3157
  536MOL0     H72295   3.906   8.730   3.642  0.6154 -0.0386 -1.8677
  536MOL0     H72296   4.053   8.822   3.614 -0.0977 -0.8925  0.1106
  536MOL0     H72297   4.064   8.574   3.532 -0.7393  0.3196 -0.5314
  536MOL0     H72298   4.065   8.520   3.701  1.0739 -0.2210 -0.3299
  536MOL0     H72299   4.261   8.631   3.746  1.0043 -0.9345  0.0679
  536MOL0     H72300   4.256   8.730   3.601 -0.2260  0.1947  1.2037
  536MOL0     H72301   4.305   8.421   3.620  1.4912 -0.3941 -0.8929
  536MOL0     H72302   4.282   8.513   3.466 -0.3702  1.1622 -0.3722
  536MOL0     H72303   4.518   8.533   3.658 -3.4424  0.5337  1.5061
  536MOL0     H72304   4.513   8.470   3.487 -2.0406 -1.2973 -0.2072
  536MOL0     H72305   4.462   8.685   3.394  0.6448  2.3365 -0.3647
  536MOL0     H72306   4.473   8.758   3.557 -2.8394 -1.4617 -1.0650
  536MOL0     H72307   4.711   8.598   3.457  3.0676  0.6501  2.4940
  536MOL0     H72308   4.693   8.689   3.600  0.7791 -2.9328  0.1534
  536MOL0     H72309   4.730   8.791   3.312  5.2633  0.9888 -0.6675
  536MOL0     H72310   4.687   8.904   3.444  1.7640  0.5843  0.4258
  536MOL0     H72311   4.957   8.616   3.430 -1.3276 -0.1187 -1.0126
  536MOL0     H72312   5.242   8.737   3.639  1.7257  1.8579  0.5618
  536MOL0     H72313   5.218   8.609   3.516 -0.9361  0.5356  0.0483
  536MOL0     H72314   5.260   8.785   3.343  0.0188 -4.1688  0.1438
  536MOL0     H72315   5.339   8.878   3.477  2.5802 -0.9476 -0.7459
  536MOL0     H72316   5.429   8.616   3.368 -4.6543  1.9602  0.0372
  536MOL0     H72317   5.508   8.685   3.506  0.6588 -0.0163 -0.3672
  536MOL0     H72318   5.482   8.830   3.227  0.5530 -2.3599 -0.9214
  536MOL0     H72319   5.614   8.732   3.263  0.5441 -0.1770  0.9169
  536MOL0     H72320   5.745   9.109   3.334 -2.6625 -0.2290  2.9676
  536MOL0     H72321   5.971   9.156   3.397 -0.7651 -1.2893 -5.3766
  536MOL0     H72322   6.249   9.319   3.388  0.0942  1.8673  0.2124
  536MOL0     H72323   6.443   9.455   3.395 -0.9249 -1.0371 -4.2351
  536MOL0     H72324   6.830   9.425   3.407 -0.8899  0.1805 -4.0201
  536MOL0     H72325   6.684   9.410   3.325 -1.3645 -1.1879  1.0779
  536MOL0     H72326   6.755   9.655   3.398 -0.7540 -0.1471 -0.4571
  536MOL0     H72327   6.592   9.614   3.449  0.5412  4.2335 -0.0963
  536MOL0     H72328   6.679   9.579   3.679  0.7454  2.4716  1.7996
  536MOL0     H72329   6.850   9.623   3.627  0.4871  0.2904 -0.7603
  536MOL0     H72330   6.622   9.816   3.585  0.0332  0.7913 -1.2874
  536MOL0     H72331   6.793   9.841   3.571 -1.8103  1.3250  1.0082
  536MOL0     H72332   6.833   9.809   3.816 -0.1228  0.3768  0.3651
  536MOL0     H72333   6.662   9.777   3.828  1.5758 -0.5936  0.1767
  536MOL0     H72334   6.738   9.989   3.906  0.5504  0.4057  0.0406
  536MOL0     H72335   6.797  10.033   3.743  1.1407 -0.4990  1.3458
  536MOL0     H72336   6.505   9.984   3.837 -3.4050  1.4572 -0.2326
  536MOL0     H72337   6.552  10.015   3.667  2.1163  1.0295 -0.8025
  536MOL0     H72338   6.474  10.219   3.775 -1.0758 -1.1951  0.0853
  536MOL0     H72339   6.586  10.189   3.911 -1.2804 -2.1182  0.3853
  536MOL0     H72340   6.620   9.139   3.638  0.1220 -0.0071 -0.7330
  536MOL0     H72341   6.399   9.018   3.632 -3.5598  1.2574  0.2336
  536MOL0     H72342   6.024   8.744   3.472  0.6488  0.5323 -0.2173
  536MOL0     H72343   5.786   8.699   3.416 -0.1021  0.9886 -0.9503
  536MOL0     H72344   3.938   8.778   4.035 -0.9234 -0.7254 -0.6838
  536MOL0     H72345   3.814   8.981   4.145  0.7044  0.5570 -0.1089
  536MOL0     H72346   4.003   9.528   4.173  1.6693  3.1508  2.5901
  536MOL0     H72347   3.939   9.687   4.339 -0.8612  0.7644 -1.6816
  536MOL0     H72348   3.743   9.864   4.567  1.9560  0.8932 -0.9326
  536MOL0     H72349   3.854   9.817   4.452 -0.3784  2.4739  0.6481
  536MOL0     H72350   3.958   9.646   4.616 -0.9191 -0.6379  0.7599
  536MOL0     H72351   3.837   9.686   4.726 -1.3319 -1.7828 -1.4651
  536MOL0     H72352   3.894   9.905   4.766 -0.8191  2.7545 -2.5814
  536MOL0     H72353   4.011   9.914   4.630  0.4136 -0.0924  0.2457
  536MOL0     H72354   4.098   9.899   4.867  0.3790  0.4457 -0.0436
  536MOL0     H72355   4.040   9.732   4.872  0.7186  1.0192  0.4076
  536MOL0     H72356   4.382   9.661   4.625 -0.2866 -0.8460  0.7043
  536MOL0     H72357   3.574   9.478   4.414 -0.0253  0.3699 -1.0440
  536MOL0     H72358   3.533   9.260   4.322  0.8702 -0.8972  2.0597
  536MOL0     H72359   3.585   9.271   4.141  1.1610  1.6007 -0.0176
  536MOL0     H72360   3.662   9.170   4.262  1.8721  0.9633 -2.3935
  537MOL0     O72361   8.069   5.391   7.252 -1.1329 -0.8306 -1.3463
  537MOL0     C72362   7.972   5.322   7.275 -0.0044  0.8585 -0.2614
  537MOL0     O72363   7.843   5.359   7.263  0.1975  0.3897  0.1615
  537MOL0     C72364   7.814   5.481   7.214  0.0589  0.1695 -0.9365
  537MOL0     C72365   7.790   5.583   7.306 -0.1018  0.1832 -0.3832
  537MOL0     C72366   7.766   5.713   7.268  0.3501  0.5283  0.3049
  537MOL0     C72367   7.777   5.746   7.125  0.9953 -0.0131  0.3864
  537MOL0     O72368   7.754   5.877   7.082 -0.0406 -0.1538 -0.7497
  537MOL0     C72369   7.808   5.918   6.950  0.8993 -1.0013 -0.4191
  537MOL0     C72370   7.822   6.068   6.943 -0.8073 -0.2361  1.2106
  537MOL0     C72371   7.831   6.136   6.807 -0.3876  0.4934  0.2409
  537MOL0     C72372   7.817   6.289   6.808  0.4105 -0.6623  1.0590
  537MOL0     C72373   7.843   6.364   6.674  0.3266  0.5199  0.1772
  537MOL0     C72374   7.982   6.347   6.621  0.2825 -0.7498  0.2374
  537MOL0     C72375   8.109   6.392   6.702  0.0707 -0.1865 -0.5321
  537MOL0     C72376   8.154   6.542   6.677 -0.3996 -0.7006  0.7979
  537MOL0     N72377   8.153   6.583   6.540 -0.0474  0.8402 -0.2680
  537MOL0     C72378   8.251   6.534   6.454 -0.8403  0.7754  0.5597
  537MOL0     C72379   8.194   6.550   6.325 -0.5744  0.2741 -0.1596
  537MOL0     C72380   8.267   6.513   6.200  0.0919  0.1530  0.2047
  537MOL0     C72381   8.219   6.599   6.079 -0.4504  0.0317  0.0320
  537MOL0     C72382   8.327   6.621   5.967 -0.1955 -0.7942  0.6073
  537MOL0     C72383   8.355   6.493   5.891  0.1894  0.1703 -0.1952
  537MOL0     O72384   8.425   6.398   5.978 -0.1532 -0.1219  0.6280
  537MOL0     C72385   8.417   6.262   5.954  0.1135 -0.4311  0.9655
  537MOL0     C72386   8.393   6.208   5.826  0.2656 -0.7184  0.0956
  537MOL0     C72387   8.373   6.068   5.810  0.3441  0.2775  1.1417
  537MOL0     C72388   8.379   5.982   5.920  0.0584  0.0278 -0.3140
  537MOL0     C72389   8.336   5.839   5.907  0.2556  0.4975  0.5380
  537MOL0     O72390   8.335   5.787   5.788  0.1566 -0.0271  0.5391
  537MOL0     C72391   8.321   5.650   5.780 -0.0409 -0.5034  0.1662
  537MOL0     C72392   8.428   5.571   5.826 -0.1921  1.0133  0.4013
  537MOL0     C72393   8.408   5.427   5.821  0.6404 -0.6745  0.9097
  537MOL0     C72394   8.296   5.377   5.771  0.6796  1.0639 -1.0382
  537MOL0     O72395   8.302   5.242   5.765 -0.1522  0.0171  0.0199
  537MOL0     C72396   8.177   5.176   5.786  0.6573 -0.3381  0.1407
  537MOL0     C72397   8.198   5.029   5.815  0.5558  0.5460  0.2073
  537MOL0     C72398   8.073   4.942   5.776  0.6015  0.3310 -0.6358
  537MOL0     C72399   7.984   4.911   5.897 -0.2091 -0.2169 -0.1935
  537MOL0     C72400   7.940   5.030   5.984  0.6471 -0.2250  0.1800
  537MOL0     C72401   7.840   4.977   6.081 -0.4966  0.4819 -0.4870
  537MOL0     C72402   7.774   5.087   6.159  0.1838  0.1296  0.1674
  537MOL0     C72403   7.627   5.041   6.192  0.2006  0.2964  0.0934
  537MOL0    Cl72404   7.527   5.049   6.058  0.1472  0.1212  0.1734
  537MOL0     C72405   8.194   5.457   5.710  0.7224 -0.3846  0.0815
  537MOL0     C72406   8.212   5.596   5.717  0.8884  0.1657  0.7169
  537MOL0     O72407   8.297   5.781   6.009 -0.5379 -0.4261 -0.8533
  537MOL0     C72408   8.421   6.037   6.044 -0.0995  0.9077  0.0788
  537MOL0     C72409   8.437   6.177   6.051 -0.1214  0.4403 -0.5597
  537MOL0     N72410   8.075   6.625   6.343  0.4755  0.6679  0.4566
  537MOL0     N72411   8.046   6.637   6.469  0.2834 -0.6403 -0.2835
  537MOL0     C72412   7.808   5.645   7.039 -1.0415  0.2844  0.1347
  537MOL0     C72413   7.835   5.517   7.084  0.1292  0.3133  0.0910
  537MOL0     C72414   8.006   5.190   7.345  0.4007 -0.4137  0.0316
  537MOL0     C72415   8.130   5.131   7.308  0.6043  0.1213  0.1573
  537MOL0     C72416   8.167   5.003   7.350  0.1012 -0.5743  0.6909
  537MOL0     C72417   8.083   4.931   7.432 -0.5539 -0.3582 -0.4826
  537MOL0     O72418   8.110   4.807   7.481  0.0842  0.6277  0.1080
  537MOL0     C72419   8.225   4.729   7.438 -0.2956 -0.2254  0.2187
  537MOL0     C72420   8.342   4.770   7.525  0.4236  0.0805 -0.0341
  537MOL0     C72421   8.328   4.705   7.672  0.4324 -0.5609 -0.2078
  537MOL0     C72422   8.406   4.785   7.784 -0.0053  0.3046 -0.3965
  537MOL0     C72423   8.542   4.810   7.741 -0.2282  0.2632 -0.3586
  537MOL0     C72424   8.656   4.818   7.694 -0.2522 -0.3427 -0.3128
  537MOL0     C72425   7.962   4.989   7.470  0.4429 -0.2908  0.7231
  537MOL0     C72426   7.919   5.113   7.430  0.8407 -0.5186  0.1481
  537MOL0     C72427   7.774   5.147   7.453 -0.7638  0.4736  0.1239
  537MOL0     H72428   7.794   5.574   7.414 -1.3791  0.7138 -0.2724
  537MOL0     H72429   7.750   5.800   7.331  0.7257  1.1164 -0.3943
  537MOL0     H72430   7.893   5.869   6.900  0.5739 -1.7534 -0.2534
  537MOL0     H72431   7.728   5.892   6.879  0.9377 -0.9420 -0.4839
  537MOL0     H72432   7.907   6.106   7.001 -1.4252  3.1503  0.1265
  537MOL0     H72433   7.736   6.106   6.999  0.7086  3.3868  1.3315
  537MOL0     H72434   7.752   6.094   6.744  0.1015  2.0073 -1.4336
  537MOL0     H72435   7.930   6.113   6.768  0.4617  3.3550  0.5130
  537MOL0     H72436   7.711   6.307   6.826 -0.5498 -0.4003 -3.5133
  537MOL0     H72437   7.876   6.335   6.888  2.7773  1.2056 -1.5185
  537MOL0     H72438   7.774   6.323   6.599  1.2665 -1.1119  0.1537
  537MOL0     H72439   7.829   6.472   6.683  3.3055  1.4246 -3.2931
  537MOL0     H72440   8.006   6.242   6.606  1.5521 -0.4280 -0.1493
  537MOL0     H72441   7.985   6.400   6.526  0.7276  0.9304  1.1385
  537MOL0     H72442   8.186   6.323   6.666 -1.0951 -1.3172 -0.9562
  537MOL0     H72443   8.096   6.384   6.810  0.7290  0.4514 -0.3990
  537MOL0     H72444   8.073   6.599   6.724 -1.1397 -0.6420 -0.5019
  537MOL0     H72445   8.251   6.569   6.722  0.6436 -1.2456 -1.0255
  537MOL0     H72446   8.341   6.480   6.484 -0.4279  0.5975 -0.9495
  537MOL0     H72447   8.374   6.532   6.216  0.1022  1.1410 -0.8718
  537MOL0     H72448   8.255   6.408   6.173 -0.1547  0.3102 -0.3110
  537MOL0     H72449   8.137   6.542   6.034  0.5745 -0.9674 -0.6149
  537MOL0     H72450   8.188   6.699   6.110  3.1557  2.0940 -2.2314
  537MOL0     H72451   8.418   6.660   6.015 -0.0114 -0.8698  0.3235
  537MOL0     H72452   8.300   6.693   5.889 -0.2479 -1.8984 -0.4235
  537MOL0     H72453   8.402   6.504   5.793  2.3296 -0.0361  0.7408
  537MOL0     H72454   8.260   6.442   5.873  1.0535 -1.8489  0.6363
  537MOL0     H72455   8.387   6.264   5.733  3.3452  3.8571  2.2639
  537MOL0     H72456   8.332   6.037   5.714 -3.0163  1.4191  2.0912
  537MOL0     H72457   8.522   5.601   5.870  1.2212 -1.0826 -1.0116
  537MOL0     H72458   8.491   5.362   5.844 -0.4489 -2.6544 -0.4305
  537MOL0     H72459   8.127   5.221   5.872  1.9612  2.0880 -0.2823
  537MOL0     H72460   8.121   5.190   5.692 -0.3129 -3.6739  0.1092
  537MOL0     H72461   8.277   4.986   5.753 -1.1847  1.9132 -3.2395
  537MOL0     H72462   8.217   5.017   5.922 -2.3518  0.3050  0.7797
  537MOL0     H72463   8.014   4.987   5.696  0.7045 -2.5436 -2.4635
  537MOL0     H72464   8.117   4.848   5.743  2.0438  0.8523 -0.2995
  537MOL0     H72465   8.032   4.834   5.958 -1.5064 -3.4178 -2.8930
  537MOL0     H72466   7.898   4.856   5.860 -0.5729  0.8674 -1.0195
  537MOL0     H72467   7.902   5.118   5.931 -3.6683 -0.0714  3.0756
  537MOL0     H72468   8.022   5.075   6.041  0.2396 -0.1408  0.7073
  537MOL0     H72469   7.767   4.924   6.019  0.9687 -0.9887 -1.0218
  537MOL0     H72470   7.889   4.910   6.152 -0.3170  1.2568  0.1415
  537MOL0     H72471   7.769   5.179   6.100  1.7229  0.4007  0.4280
  537MOL0     H72472   7.825   5.109   6.253  3.5078 -1.4223 -1.1148
  537MOL0     H72473   7.612   4.941   6.234 -1.6716  1.3786  2.2197
  537MOL0     H72474   7.593   5.104   6.275  0.3751 -2.4757  2.4513
  537MOL0     H72475   8.112   5.409   5.657  2.2698 -3.0201 -0.0647
  537MOL0     H72476   8.129   5.656   5.681  2.1210  0.0131 -2.8244
  537MOL0     H72477   8.436   5.973   6.130 -0.3292 -1.7380 -1.7274
  537MOL0     H72478   8.461   6.215   6.150 -2.9009 -1.3699  0.9509
  537MOL0     H72479   7.808   5.679   6.936 -0.5383 -0.4185 -0.1073
  537MOL0     H72480   7.858   5.436   7.015 -1.5890 -2.2964  2.3641
  537MOL0     H72481   8.192   5.188   7.240  1.6890  0.8672  1.7077
  537MOL0     H72482   8.262   4.965   7.314 -0.1670  0.9186 -1.8855
  537MOL0     H72483   8.244   4.748   7.333  1.6322 -2.3379  0.1251
  537MOL0     H72484   8.201   4.623   7.443  0.2468 -0.3017  2.5859
  537MOL0     H72485   8.353   4.879   7.524 -0.8428  0.2152 -0.9599
  537MOL0     H72486   8.434   4.725   7.487 -1.1127 -0.5470 -3.2842
  537MOL0     H72487   8.357   4.599   7.669 -3.9979 -2.2605  3.9088
  537MOL0     H72488   8.223   4.705   7.702  0.7100 -0.9037  0.8417
  537MOL0     H72489   8.359   4.880   7.811  0.1602  0.9291 -2.1773
  537MOL0     H72490   8.407   4.725   7.875 -1.6109  2.7093  1.3546
  537MOL0     H72491   8.754   4.813   7.652 -0.4959 -2.3055 -0.7590
  537MOL0     H72492   7.899   4.936   7.541 -1.4910  2.6569  1.3727
  537MOL0     H72493   7.762   5.246   7.499  1.8459  1.0026 -0.1779
  537MOL0     H72494   7.714   5.144   7.362 -1.5790  0.0385  0.6579
  537MOL0     H72495   7.723   5.083   7.525 -0.0374 -0.0558  0.1754
  538MOL0     O72496   0.617   1.975   7.850 -0.4950  0.0740  0.4512
  538MOL0     C72497   0.646   1.914   7.748 -0.1721 -0.1602  0.6139
  538MOL0     O72498   0.772   1.855   7.710 -0.4364  0.4344 -0.5934
  538MOL0     C72499   0.881   1.850   7.788  0.2812  0.4467  0.6796
  538MOL0     C72500   0.987   1.765   7.752 -0.7919  0.0972  0.2976
  538MOL0     C72501   1.109   1.769   7.818  0.1997 -0.7214  0.2173
  538MOL0     C72502   1.134   1.866   7.918  0.3674 -0.3892  0.9963
  538MOL0     O72503   1.259   1.890   7.978  0.0506  0.3114 -0.0534
  538MOL0     C72504   1.383   1.844   7.917  0.4233  0.1572 -0.3557
  538MOL0     C72505   1.510   1.914   7.976 -0.7119  0.1894 -1.1258
  538MOL0     C72506   1.496   2.058   7.955  0.2487 -0.3384  1.1472
  538MOL0     C72507   1.613   2.127   8.018 -0.8299 -0.0694  0.4946
  538MOL0     C72508   1.725   2.167   7.928  0.8230  1.3185 -0.5426
  538MOL0     C72509   1.698   2.289   7.844 -0.5373  0.4774 -0.6014
  538MOL0     C72510   1.767   2.289   7.704  0.0704 -0.6501  0.0842
  538MOL0     C72511   1.762   2.434   7.635 -0.2786  0.4925  0.1029
  538MOL0     N72512   1.894   2.458   7.586  0.2733  0.8341  0.1421
  538MOL0     C72513   2.002   2.513   7.643 -0.3714 -0.7243  0.3582
  538MOL0     C72514   2.098   2.516   7.547 -0.0810 -0.1143  0.5347
  538MOL0     C72515   2.235   2.563   7.562 -0.9306 -0.6958  0.2850
  538MOL0     C72516   2.234   2.721   7.544  0.5512 -0.0732 -0.2173
  538MOL0     C72517   2.360   2.810   7.555  0.1204 -0.2257  0.2270
  538MOL0     C72518   2.458   2.773   7.435  0.2601  0.6765  0.1835
  538MOL0     O72519   2.570   2.867   7.417  0.5014 -0.0342 -0.6114
  538MOL0     C72520   2.682   2.816   7.365 -0.3312  0.6473  0.6029
  538MOL0     C72521   2.765   2.708   7.423 -0.5188 -0.7615 -0.3668
  538MOL0     C72522   2.888   2.668   7.358  0.4957  0.0922  0.7126
  538MOL0     C72523   2.921   2.732   7.230  0.0220  0.6937 -0.1843
  538MOL0     C72524   3.049   2.692   7.171 -0.8077 -0.0797  0.1729
  538MOL0     O72525   3.139   2.789   7.124 -0.2925  0.3484  0.3346
  538MOL0     C72526   3.233   2.748   7.033 -0.7963 -0.3266  0.3530
  538MOL0     C72527   3.347   2.678   7.074 -0.9195 -0.3009  0.2629
  538MOL0     C72528   3.449   2.645   6.985  0.2591  0.1672 -0.2022
  538MOL0     C72529   3.434   2.671   6.850 -0.1463  0.1133 -0.6030
  538MOL0     O72530   3.522   2.632   6.752 -0.1592 -1.0470 -0.1920
  538MOL0     C72531   3.646   2.576   6.798 -0.0624 -0.6645  0.0115
  538MOL0     C72532   3.727   2.530   6.671 -0.5465  0.6038 -0.2236
  538MOL0     C72533   3.860   2.463   6.716  0.7740  0.0203 -0.0348
  538MOL0     C72534   3.950   2.455   6.594  1.1806  1.0746 -0.8976
  538MOL0     C72535   4.081   2.380   6.649 -0.4906  0.7460 -0.0904
  538MOL0     C72536   4.185   2.359   6.538 -0.1777  0.1461 -0.3424
  538MOL0     C72537   4.326   2.403   6.580  1.1317 -0.8340 -0.1288
  538MOL0     C72538   4.418   2.293   6.611  1.0456  0.4051  0.2025
  538MOL0    Cl72539   4.567   2.362   6.684 -0.2420  0.0528  0.2277
  538MOL0     C72540   3.326   2.752   6.817 -0.0998  0.2876  0.7367
  538MOL0     C72541   3.225   2.786   6.900  0.0013  0.3766  0.6671
  538MOL0     O72542   3.060   2.571   7.159 -0.0402 -0.2070 -0.0189
  538MOL0     C72543   2.849   2.839   7.177 -0.8860 -0.3789  0.1942
  538MOL0     C72544   2.726   2.881   7.247 -1.3394  0.1304  0.2986
  538MOL0     N72545   2.042   2.463   7.429 -1.0045 -0.5525 -0.1075
  538MOL0     N72546   1.917   2.426   7.452 -0.2396 -0.1984 -0.1443
  538MOL0     C72547   1.022   1.938   7.970 -0.3435  0.3467 -0.8326
  538MOL0     C72548   0.899   1.924   7.909 -0.2382  0.3583  0.3438
  538MOL0     C72549   0.528   1.873   7.643 -0.1452 -0.4049  0.2303
  538MOL0     C72550   0.552   1.769   7.548  0.2929 -0.7656 -0.5988
  538MOL0     C72551   0.450   1.738   7.456  0.0667 -0.6502 -0.0578
  538MOL0     C72552   0.331   1.814   7.449  0.1441  0.3543  0.3566
  538MOL0     O72553   0.240   1.790   7.351  0.2536  1.7578 -0.6603
  538MOL0     C72554   0.162   1.672   7.367  0.3154  0.7178 -0.6861
  538MOL0     C72555   0.008   1.689   7.358  0.0974  0.2791 -0.3008
  538MOL0     C72556  -0.038   1.731   7.214 -0.2354  0.0969  0.1584
  538MOL0     C72557  -0.178   1.782   7.203  0.2321 -0.3008  0.4269
  538MOL0     C72558  -0.199   1.906   7.289  0.2968 -0.3166  0.2039
  538MOL0     C72559  -0.211   2.011   7.345  0.2771 -0.1501  0.0830
  538MOL0     C72560   0.304   1.908   7.548 -0.3537 -0.1306 -0.2560
  538MOL0     C72561   0.403   1.938   7.646 -0.4226 -0.6334  0.0418
  538MOL0     C72562   0.357   2.042   7.746  0.3955 -0.6081 -0.3366
  538MOL0     H72563   0.970   1.693   7.673  1.3498  0.1640 -0.2934
  538MOL0     H72564   1.185   1.703   7.778  0.9055  0.2547 -0.0928
  538MOL0     H72565   1.393   1.737   7.934  1.5160  0.6147  2.4878
  538MOL0     H72566   1.367   1.861   7.810  2.2987 -0.2515 -0.7397
  538MOL0     H72567   1.594   1.872   7.920  1.2464 -0.2856  1.9459
  538MOL0     H72568   1.523   1.881   8.079 -2.6728 -0.7566 -1.1335
  538MOL0     H72569   1.404   2.103   7.994 -1.1194 -0.5150 -1.6667
  538MOL0     H72570   1.493   2.081   7.848 -1.6519 -1.5211  0.9074
  538MOL0     H72571   1.581   2.215   8.075 -1.5068 -1.5057  2.4451
  538MOL0     H72572   1.668   2.066   8.091  1.4677  2.1496  0.7455
  538MOL0     H72573   1.815   2.179   7.990  0.3587  0.8254  0.2373
  538MOL0     H72574   1.738   2.081   7.862 -1.1725  0.4723  0.0997
  538MOL0     H72575   1.592   2.307   7.823 -0.1238  2.2935 -1.3296
  538MOL0     H72576   1.745   2.377   7.888 -0.2366  1.5986 -3.0206
  538MOL0     H72577   1.729   2.209   7.638  0.6885 -1.2204  0.4011
  538MOL0     H72578   1.871   2.270   7.732  0.5545  2.3621  0.5995
  538MOL0     H72579   1.682   2.441   7.561 -0.9467 -0.2267  0.7428
  538MOL0     H72580   1.735   2.508   7.711 -2.6766 -2.4156  2.3483
  538MOL0     H72581   2.003   2.539   7.748 -5.9164  2.1685  0.0566
  538MOL0     H72582   2.290   2.540   7.654  1.1737  4.2286  0.5754
  538MOL0     H72583   2.282   2.529   7.470  0.7664 -0.3517  0.9888
  538MOL0     H72584   2.184   2.747   7.450 -0.0445  1.5341  0.5042
  538MOL0     H72585   2.168   2.760   7.622  3.3576 -0.4095  2.5304
  538MOL0     H72586   2.402   2.798   7.655  1.1887 -1.7108 -0.3452
  538MOL0     H72587   2.334   2.915   7.542 -0.4772 -0.0888  2.2401
  538MOL0     H72588   2.404   2.763   7.341 -2.0795 -1.4235  1.6047
  538MOL0     H72589   2.499   2.679   7.471 -1.4021  0.2199  1.0208
  538MOL0     H72590   2.734   2.660   7.515  1.0974  1.5534  1.5421
  538MOL0     H72591   2.948   2.591   7.403 -1.3337 -0.6555  2.0220
  538MOL0     H72592   3.346   2.651   7.179 -1.7314  1.5011  0.7701
  538MOL0     H72593   3.539   2.593   7.015 -0.5356 -0.1903  1.6964
  538MOL0     H72594   3.706   2.657   6.843 -0.0386  0.2509 -1.5844
  538MOL0     H72595   3.638   2.488   6.862 -1.3688 -0.4596  0.1592
  538MOL0     H72596   3.671   2.457   6.610  0.0197 -0.2734  0.2816
  538MOL0     H72597   3.756   2.610   6.602  0.0812 -0.4761 -1.2491
  538MOL0     H72598   3.904   2.532   6.788  0.0099  2.1893 -1.5257
  538MOL0     H72599   3.846   2.362   6.755  0.5258 -0.1599 -0.5676
  538MOL0     H72600   3.973   2.547   6.539 -0.5356  0.2650 -3.1007
  538MOL0     H72601   3.894   2.385   6.532  3.0852 -0.2824 -1.1858
  538MOL0     H72602   4.061   2.281   6.690 -1.2079  1.0511  0.3055
  538MOL0     H72603   4.126   2.438   6.730  2.4274 -1.4986  0.0761
  538MOL0     H72604   4.184   2.252   6.520 -1.9897  0.0398  0.1810
  538MOL0     H72605   4.167   2.412   6.444  1.2744  0.5130 -0.4293
  538MOL0     H72606   4.330   2.478   6.660  0.5363 -0.0168 -0.8391
  538MOL0     H72607   4.367   2.447   6.489 -0.2483  1.0317  0.0645
  538MOL0     H72608   4.367   2.221   6.675  0.0508  0.1586 -0.8252
  538MOL0     H72609   4.438   2.249   6.513  3.2773  0.3869  0.6235
  538MOL0     H72610   3.311   2.785   6.715 -1.1880  0.2707  0.8763
  538MOL0     H72611   3.144   2.850   6.866 -1.1376 -2.2379 -2.0789
  538MOL0     H72612   2.889   2.884   7.087  0.3295 -1.2651  0.2612
  538MOL0     H72613   2.674   2.973   7.224 -0.9435  1.3417  3.6621
  538MOL0     H72614   1.026   2.003   8.057 -1.3319 -1.5845  0.7239
  538MOL0     H72615   0.814   1.975   7.952 -0.3743 -0.7291  1.4342
  538MOL0     H72616   0.646   1.714   7.548  1.1571  0.6542 -1.0714
  538MOL0     H72617   0.471   1.660   7.384  1.3442 -1.0867  0.7479
  538MOL0     H72618   0.183   1.633   7.467 -0.4730  3.4585  0.6575
  538MOL0     H72619   0.183   1.590   7.297 -2.1176 -3.8817  3.3374
  538MOL0     H72620  -0.026   1.757   7.437 -1.1583 -1.1240  0.4087
  538MOL0     H72621  -0.051   1.601   7.383 -1.4204  0.9964 -1.2365
  538MOL0     H72622  -0.018   1.642   7.154 -0.6309  0.2725 -0.2463
  538MOL0     H72623   0.026   1.804   7.164 -1.4696  0.9036 -0.2921
  538MOL0     H72624  -0.204   1.811   7.101 -0.2854  2.2128  1.2201
  538MOL0     H72625  -0.251   1.706   7.234 -0.6880 -0.2060 -1.3815
  538MOL0     H72626  -0.209   2.105   7.395 -2.2610 -0.6523  1.3106
  538MOL0     H72627   0.204   1.950   7.545  0.2196  1.4261  1.0408
  538MOL0     H72628   0.248   2.054   7.741  0.2198 -2.3108 -1.4587
  538MOL0     H72629   0.391   2.023   7.848  2.9264 -2.0017 -1.3528
  538MOL0     H72630   0.402   2.136   7.710  3.3088 -2.1448 -1.0301
  539MOL0     O72631   3.429   1.884   1.147  0.1278  0.4312  1.3774
  539MOL0     C72632   3.371   1.876   1.035  0.6646 -0.0625  0.0354
  539MOL0     O72633   3.406   1.941   0.923 -0.2675  0.9147  0.1415
  539MOL0     C72634   3.530   2.005   0.931  0.0833  0.0966 -0.1556
  539MOL0     C72635   3.537   2.133   0.982  0.3253 -0.0357 -0.1585
  539MOL0     C72636   3.666   2.194   0.979 -0.2823  0.0413  0.4041
  539MOL0     C72637   3.782   2.123   0.949  0.4392  0.0098  0.2138
  539MOL0     O72638   3.899   2.184   0.956  0.4086  0.7876  0.3106
  539MOL0     C72639   3.923   2.284   0.850 -0.2084  0.0366  0.4936
  539MOL0     C72640   4.071   2.335   0.859  1.1835  0.3264 -0.7409
  539MOL0     C72641   4.086   2.447   0.755 -1.3553 -0.5693 -0.5049
  539MOL0     C72642   4.223   2.446   0.690 -1.3931 -0.0960 -0.1018
  539MOL0     C72643   4.253   2.337   0.589  0.0795  0.4491 -0.4199
  539MOL0     C72644   4.152   2.328   0.468 -0.0530 -0.2924 -0.6104
  539MOL0     C72645   4.219   2.239   0.359  0.5250 -0.0483 -0.0539
  539MOL0     C72646   4.221   2.081   0.397  0.1422 -0.1291  0.0932
  539MOL0     N72647   4.312   2.009   0.309  0.1222  0.2318 -0.2777
  539MOL0     C72648   4.438   2.047   0.286  0.4379 -0.6429  0.4246
  539MOL0     C72649   4.486   1.946   0.219  0.1111  0.7358  0.4898
  539MOL0     C72650   4.628   1.947   0.165  0.7774 -0.2152  0.1205
  539MOL0     C72651   4.716   1.846   0.233  0.5804  0.8279 -0.1283
  539MOL0     C72652   4.735   1.874   0.374 -0.8764 -0.6112 -0.3408
  539MOL0     C72653   4.853   1.790   0.413 -0.9816 -0.0765 -0.6227
  539MOL0     O72654   4.886   1.825   0.549  0.2222 -0.4677  0.2171
  539MOL0     C72655   4.996   1.770   0.600 -0.1924 -0.7216  0.0638
  539MOL0     C72656   5.087   1.688   0.530 -0.8536  0.3008 -0.5597
  539MOL0     C72657   5.201   1.643   0.585 -0.2993 -0.5412  0.5581
  539MOL0     C72658   5.222   1.652   0.716  0.0241  1.0869 -0.1788
  539MOL0     C72659   5.353   1.605   0.775  0.3785  0.3902  0.5864
  539MOL0     O72660   5.413   1.517   0.698  0.2978 -0.2336  0.0846
  539MOL0     C72661   5.536   1.490   0.735  0.0641  1.0026  0.3730
  539MOL0     C72662   5.646   1.568   0.687  0.6791 -0.8017  1.4025
  539MOL0     C72663   5.776   1.538   0.726  0.0302  0.9420 -0.2701
  539MOL0     C72664   5.810   1.424   0.799 -0.3738  1.0013  0.1689
  539MOL0     O72665   5.942   1.396   0.830 -0.2744 -0.5038 -0.0112
  539MOL0     C72666   5.974   1.257   0.853  0.4039  0.0261 -0.4695
  539MOL0     C72667   6.123   1.236   0.897  0.4796 -0.7690  0.0089
  539MOL0     C72668   6.216   1.256   0.781 -0.9263  0.2335 -0.1967
  539MOL0     C72669   6.317   1.372   0.826  0.5771 -0.6451  0.1900
  539MOL0     C72670   6.420   1.418   0.726  0.3537  0.8639  0.3581
  539MOL0     C72671   6.530   1.306   0.704 -0.0584 -0.0727 -0.7732
  539MOL0     C72672   6.659   1.344   0.630  0.0291 -0.3790  0.9533
  539MOL0     C72673   6.734   1.213   0.613 -0.5569 -0.6279 -0.9279
  539MOL0    Cl72674   6.909   1.228   0.566 -0.1628  0.2128  0.1043
  539MOL0     C72675   5.701   1.333   0.825  0.2165  0.5212 -0.2362
  539MOL0     C72676   5.571   1.368   0.799  0.9255  0.0470  0.8744
  539MOL0     O72677   5.401   1.646   0.883  0.7816  0.0653  0.3986
  539MOL0     C72678   5.131   1.732   0.795  0.0221 -0.3126 -0.1015
  539MOL0     C72679   5.021   1.795   0.733 -0.2397  0.0337 -1.0931
  539MOL0     N72680   4.395   1.842   0.203  0.6498 -0.5176  0.2110
  539MOL0     N72681   4.296   1.875   0.274  0.1169 -0.7268 -1.0144
  539MOL0     C72682   3.774   1.991   0.912 -0.5579  0.5421 -0.0028
  539MOL0     C72683   3.647   1.933   0.898 -0.0547 -0.1399 -0.2618
  539MOL0     C72684   3.220   1.842   1.041  0.6737 -0.6576  0.1020
  539MOL0     C72685   3.133   1.901   0.950  0.7482 -0.2476  0.0403
  539MOL0     C72686   2.999   1.882   0.961 -0.0173  0.0298  0.6412
  539MOL0     C72687   2.945   1.790   1.061 -0.6535  0.1743 -0.0842
  539MOL0     O72688   2.809   1.775   1.081 -0.0185 -1.1574 -0.1567
  539MOL0     C72689   2.727   1.768   0.966 -0.8470  0.0604 -0.0039
  539MOL0     C72690   2.592   1.701   1.007 -1.3133 -0.6076  0.5310
  539MOL0     C72691   2.617   1.566   1.063 -0.2808  0.3908  0.3677
  539MOL0     C72692   2.480   1.493   1.089 -0.6428 -0.7447  0.4339
  539MOL0     C72693   2.385   1.557   1.187  0.1352  0.3239 -0.4670
  539MOL0     C72694   2.298   1.610   1.256  0.7257 -0.1073 -1.1607
  539MOL0     C72695   3.035   1.724   1.142 -0.4944 -0.6525  0.7635
  539MOL0     C72696   3.172   1.742   1.136 -0.1419 -0.7993 -0.2507
  539MOL0     C72697   3.266   1.650   1.209 -0.4212 -0.2221  0.4657
  539MOL0     H72698   3.449   2.191   1.009  1.3423  2.7527 -2.2834
  539MOL0     H72699   3.670   2.302   0.992  1.1969  0.2976 -1.7735
  539MOL0     H72700   3.917   2.259   0.744  1.3195  2.9462 -0.4121
  539MOL0     H72701   3.855   2.369   0.860 -1.0025 -0.3020 -1.5892
  539MOL0     H72702   4.126   2.244   0.832 -0.0798 -0.7942  0.2897
  539MOL0     H72703   4.085   2.362   0.964  2.0918  0.1778 -0.8109
  539MOL0     H72704   4.085   2.544   0.804 -0.7724  0.8121 -3.0615
  539MOL0     H72705   4.005   2.447   0.681 -2.5734  0.4209  0.7857
  539MOL0     H72706   4.245   2.542   0.644 -0.7948  0.7762  1.9247
  539MOL0     H72707   4.299   2.423   0.765  0.2284  1.2122 -1.2796
  539MOL0     H72708   4.352   2.346   0.545  1.1677 -0.4647  1.6760
  539MOL0     H72709   4.246   2.237   0.635 -1.0253  0.5807 -0.2634
  539MOL0     H72710   4.067   2.276   0.514  0.4519  0.5805  1.4523
  539MOL0     H72711   4.122   2.429   0.437  1.6049  1.1934  2.2238
  539MOL0     H72712   4.312   2.293   0.340 -0.0643  1.1946  0.4867
  539MOL0     H72713   4.153   2.238   0.272 -1.5441 -4.1906  1.3075
  539MOL0     H72714   4.272   2.074   0.494  0.7370 -2.1437 -0.3187
  539MOL0     H72715   4.125   2.028   0.398  0.9334 -1.7284 -1.8067
  539MOL0     H72716   4.504   2.129   0.312  0.2464 -0.5834  0.7203
  539MOL0     H72717   4.613   1.928   0.058 -1.7445 -4.8221  1.0341
  539MOL0     H72718   4.673   2.046   0.172 -1.1519  0.6773  0.7330
  539MOL0     H72719   4.682   1.743   0.221 -0.0474  1.0978 -0.7229
  539MOL0     H72720   4.814   1.849   0.183  0.2441  0.7421 -0.8121
  539MOL0     H72721   4.648   1.842   0.431 -1.2320  3.5558  1.8099
  539MOL0     H72722   4.748   1.981   0.392  3.9051 -1.3264  2.3100
  539MOL0     H72723   4.944   1.812   0.356  0.6996  1.3595  2.3767
  539MOL0     H72724   4.827   1.684   0.417  1.3025 -0.7648 -1.7009
  539MOL0     H72725   5.082   1.671   0.423  1.1234  0.6094 -0.7244
  539MOL0     H72726   5.266   1.586   0.520  2.0630  3.0495 -0.5481
  539MOL0     H72727   5.612   1.662   0.644  0.1015 -0.9936  1.4203
  539MOL0     H72728   5.847   1.617   0.703 -0.2466  2.0986  2.4955
  539MOL0     H72729   5.916   1.223   0.939 -1.9338 -1.1684 -2.3961
  539MOL0     H72730   5.953   1.196   0.764  2.1939 -2.9243  0.9448
  539MOL0     H72731   6.151   1.304   0.977 -0.4337  0.0662 -0.3647
  539MOL0     H72732   6.139   1.134   0.933 -0.1814 -1.7738 -2.3089
  539MOL0     H72733   6.254   1.158   0.750 -0.9491 -0.0208  0.5497
  539MOL0     H72734   6.160   1.287   0.692 -0.0663 -0.6713 -1.0857
  539MOL0     H72735   6.360   1.352   0.925  1.3010  2.8388  0.7327
  539MOL0     H72736   6.260   1.461   0.853  1.6413  0.3927 -0.8724
  539MOL0     H72737   6.468   1.505   0.772 -0.9851  2.2748 -0.8416
  539MOL0     H72738   6.363   1.438   0.635 -1.9013 -0.4128  1.4067
  539MOL0     H72739   6.570   1.287   0.804  2.4369 -1.9199 -2.0099
  539MOL0     H72740   6.490   1.215   0.657  4.2022 -2.7732  0.2534
  539MOL0     H72741   6.721   1.413   0.688  0.3418  0.5861 -0.4775
  539MOL0     H72742   6.637   1.391   0.534  2.8971  0.8920  0.8262
  539MOL0     H72743   6.734   1.161   0.709  0.1806 -1.2246 -1.2359
  539MOL0     H72744   6.686   1.140   0.548  3.3836 -2.7693 -1.7225
  539MOL0     H72745   5.716   1.237   0.874 -0.3104  0.9833  0.8603
  539MOL0     H72746   5.484   1.306   0.821  1.6113 -0.2549  2.9663
  539MOL0     H72747   5.163   1.727   0.899 -0.7817 -3.4789  0.1158
  539MOL0     H72748   4.943   1.845   0.789 -3.2722 -2.8583 -2.4053
  539MOL0     H72749   3.861   1.928   0.892  0.8723  2.4704 -0.1521
  539MOL0     H72750   3.651   1.833   0.856 -1.1782 -1.4700  2.5273
  539MOL0     H72751   3.181   1.959   0.871 -1.0283  0.6515 -0.4197
  539MOL0     H72752   2.940   1.939   0.890  2.9023  1.0597 -1.1617
  539MOL0     H72753   2.772   1.707   0.887 -1.2457  0.9662 -0.9539
  539MOL0     H72754   2.727   1.870   0.927  2.0715  0.1491 -0.0446
  539MOL0     H72755   2.518   1.697   0.927  1.3828  1.8044 -2.3405
  539MOL0     H72756   2.556   1.763   1.090  0.0405  0.6277  0.2420
  539MOL0     H72757   2.688   1.565   1.147  0.3056  0.1982 -0.1194
  539MOL0     H72758   2.671   1.505   0.990  0.2348  0.2880  0.8231
  539MOL0     H72759   2.426   1.485   0.995 -2.2287  2.8710  0.8942
  539MOL0     H72760   2.512   1.395   1.128 -1.0559 -0.2030  2.2672
  539MOL0     H72761   2.221   1.647   1.321  1.1596  0.3490 -0.9037
  539MOL0     H72762   2.989   1.637   1.189 -2.8542 -0.5393 -1.1294
  539MOL0     H72763   3.217   1.583   1.280 -0.3729 -0.5375  0.2009
  539MOL0     H72764   3.301   1.575   1.138 -1.1639  0.2633 -0.4296
  539MOL0     H72765   3.348   1.704   1.259  1.6588  0.2951 -3.1776
  540MOL0     O72766   1.147   0.554  10.876 -0.0446 -0.3254 -0.4750
  540MOL0     C72767   1.172   0.469  10.962  1.3871 -0.0806  0.8813
  540MOL0     O72768   1.077   0.398  11.024  0.5766  0.4545  0.1525
  540MOL0     C72769   0.949   0.448  11.060  0.3900 -0.7637 -0.0289
  540MOL0     C72770   0.864   0.360  11.134  0.7759 -0.4871  0.0024
  540MOL0     C72771   0.740   0.396  11.191  0.9172  0.0983 -0.2082
  540MOL0     C72772   0.698   0.529  11.174 -0.4463  0.6545  0.4980
  540MOL0     O72773   0.582   0.574  11.224 -0.6447  1.1805 -0.3754
  540MOL0     C72774   0.474   0.540  11.147  0.1182  0.0882 -0.4157
  540MOL0     C72775   0.429   0.392  11.179  0.1305 -0.7088 -0.0773
  540MOL0     C72776   0.279   0.373  11.148 -0.6968 -0.2328  0.4814
  540MOL0     C72777   0.222   0.233  11.164  0.2811 -0.6256 -0.1985
  540MOL0     C72778   0.211   0.191  11.311 -0.2999  0.5233 -0.6649
  540MOL0     C72779   0.127   0.287  11.404 -0.1679 -0.6061  0.1906
  540MOL0     C72780  -0.016   0.307  11.353 -0.9054  0.6180 -0.0489
  540MOL0     C72781  -0.083   0.409  11.450 -0.2915 -0.3263 -0.0101
  540MOL0     N72782  -0.218   0.446  11.422  0.0561  0.5313 -0.9434
  540MOL0     C72783  -0.329   0.368  11.423 -0.3160 -0.7652  0.0200
  540MOL0     C72784  -0.432   0.458  11.417 -0.3313  0.3957  0.4950
  540MOL0     C72785  -0.583   0.421  11.412  1.2413  0.0105  0.3234
  540MOL0     C72786  -0.624   0.353  11.274  0.1240 -0.2192 -0.5695
  540MOL0     C72787  -0.571   0.439  11.156  0.0467  0.1854  0.0326
  540MOL0     C72788  -0.639   0.578  11.130 -0.2628  0.2238 -0.4340
  540MOL0     O72789  -0.614   0.628  10.999  0.3832 -0.2857 -0.0214
  540MOL0     C72790  -0.507   0.720  10.982  0.7031 -0.0450  0.5659
  540MOL0     C72791  -0.408   0.749  11.079 -0.2894  0.4514  0.0996
  540MOL0     C72792  -0.309   0.836  11.057 -0.2581 -0.1925  0.0843
  540MOL0     C72793  -0.299   0.909  10.939 -0.6567  0.6053  0.0734
  540MOL0     C72794  -0.189   0.997  10.912 -0.1707  0.7171  0.9955
  540MOL0     O72795  -0.172   1.041  10.783 -0.4444 -0.5348 -0.9652
  540MOL0     C72796  -0.060   1.114  10.763  0.0419  0.4548  0.2806
  540MOL0     C72797   0.052   1.051  10.754 -0.8717  0.6430  0.8928
  540MOL0     C72798   0.179   1.113  10.735 -0.5262 -0.3208  0.0343
  540MOL0     C72799   0.185   1.255  10.724 -0.1860 -0.5213 -0.0764
  540MOL0     O72800   0.293   1.341  10.705 -0.3031  0.6624  0.1461
  540MOL0     C72801   0.420   1.268  10.708 -0.8566 -0.4868  0.1413
  540MOL0     C72802   0.537   1.358  10.656  0.4453  0.2606  0.8906
  540MOL0     C72803   0.666   1.319  10.714  0.8729  0.2511 -0.5852
  540MOL0     C72804   0.773   1.379  10.631 -0.4471 -0.5147  0.7191
  540MOL0     C72805   0.908   1.404  10.699 -0.7489 -0.3240 -0.9158
  540MOL0     C72806   0.904   1.515  10.807  0.4531  0.9351 -0.4766
  540MOL0     C72807   1.044   1.574  10.839  0.7059 -0.9144  0.0427
  540MOL0     C72808   1.132   1.460  10.891  0.1157 -0.2251 -0.2683
  540MOL0    Cl72809   1.293   1.526  10.949 -0.0804 -0.4020 -0.1039
  540MOL0     C72810   0.059   1.326  10.728  0.5444  0.1962  0.4115
  540MOL0     C72811  -0.064   1.255  10.748 -0.0443  0.4927 -0.5238
  540MOL0     O72812  -0.119   1.029  11.006 -0.5535  0.0849 -0.3521
  540MOL0     C72813  -0.412   0.901  10.859 -0.7000 -0.0275  0.4065
  540MOL0     C72814  -0.510   0.802  10.874  0.6327  0.6156 -0.5802
  540MOL0     N72815  -0.388   0.582  11.403 -0.0439  0.5187  0.1851
  540MOL0     N72816  -0.262   0.577  11.410 -0.0702 -0.4873  0.1097
  540MOL0     C72817   0.788   0.614  11.116  0.4197  0.6772 -0.0086
  540MOL0     C72818   0.916   0.581  11.071 -0.4395  0.3667 -0.7283
  540MOL0     C72819   1.317   0.440  10.994  0.0459  0.0252  0.9966
  540MOL0     C72820   1.351   0.359  11.101  0.5539  0.0718  0.6303
  540MOL0     C72821   1.481   0.336  11.144 -0.0664  0.7361  0.1908
  540MOL0     C72822   1.586   0.415  11.101  0.2112 -0.8343 -1.2582
  540MOL0     O72823   1.702   0.398  11.173  0.1344  0.5012  0.1127
  540MOL0     C72824   1.827   0.454  11.134 -0.3264  0.6103  0.3089
  540MOL0     C72825   1.923   0.479  11.259  0.3508 -0.0821 -0.1497
  540MOL0     C72826   1.849   0.546  11.371  0.3104  0.6082  0.3441
  540MOL0     C72827   1.937   0.559  11.495  0.5391 -0.5069 -1.1367
  540MOL0     C72828   2.040   0.659  11.476 -0.0141  0.7792  0.4374
  540MOL0     C72829   2.122   0.744  11.474  0.8010  0.7447  0.7417
  540MOL0     C72830   1.554   0.513  11.000  0.6440 -0.0938 -1.0792
  540MOL0     C72831   1.428   0.513  10.936 -0.0976  0.3794 -0.2574
  540MOL0     C72832   1.414   0.607  10.818  0.4385 -0.3815  0.4786
  540MOL0     H72833   0.899   0.258  11.136 -3.8161 -2.3262 -1.5348
  540MOL0     H72834   0.683   0.314  11.235 -0.6359 -0.4691 -3.0670
  540MOL0     H72835   0.390   0.606  11.172 -1.1271 -3.0491  5.5099
  540MOL0     H72836   0.485   0.553  11.039 -0.9619 -1.0249 -0.6748
  540MOL0     H72837   0.440   0.368  11.285 -2.8702  0.8544  0.7007
  540MOL0     H72838   0.483   0.320  11.118  1.2646 -0.3045  0.4217
  540MOL0     H72839   0.277   0.402  11.043  2.6837  0.6564  0.5449
  540MOL0     H72840   0.215   0.443  11.203  0.4177 -0.1888  1.7861
  540MOL0     H72841   0.123   0.243  11.120  0.1389  0.4875  0.3548
  540MOL0     H72842   0.282   0.161  11.106  2.0422  1.7222 -1.4672
  540MOL0     H72843   0.171   0.090  11.307  0.0944  0.4076 -2.3452
  540MOL0     H72844   0.314   0.187  11.347  0.3011 -0.5173 -2.4242
  540MOL0     H72845   0.126   0.245  11.505 -2.8864 -3.2396 -0.7631
  540MOL0     H72846   0.178   0.382  11.419  0.2294 -1.1926  3.1692
  540MOL0     H72847  -0.058   0.206  11.363  0.9497 -0.6580 -3.4088
  540MOL0     H72848  -0.030   0.344  11.251  0.8328  0.4731 -0.3662
  540MOL0     H72849  -0.078   0.366  11.551  1.4545 -0.3238 -0.0636
  540MOL0     H72850  -0.022   0.499  11.451 -0.9079  0.0964  0.7798
  540MOL0     H72851  -0.323   0.261  11.442  5.8550 -0.6466  0.7237
  540MOL0     H72852  -0.609   0.346  11.487 -0.4950  1.3136  1.0935
  540MOL0     H72853  -0.646   0.510  11.420  1.2047 -0.0722  1.0104
  540MOL0     H72854  -0.572   0.258  11.261  3.6317  1.2089  1.4021
  540MOL0     H72855  -0.733   0.350  11.276  0.0567  1.4311  1.0212
  540MOL0     H72856  -0.580   0.374  11.069 -0.5524  0.8895 -0.4370
  540MOL0     H72857  -0.464   0.464  11.162 -0.0529  0.7052 -0.3458
  540MOL0     H72858  -0.617   0.653  11.206 -0.5620  3.5726 -3.3934
  540MOL0     H72859  -0.742   0.544  11.148  0.6875 -2.3743  0.6902
  540MOL0     H72860  -0.415   0.702  11.177  0.7416 -1.1513 -0.5489
  540MOL0     H72861  -0.229   0.846  11.130  1.7542 -1.9187 -1.7298
  540MOL0     H72862   0.049   0.943  10.759  1.4516  0.3477 -1.3445
  540MOL0     H72863   0.272   1.057  10.742  0.1142  0.8251  1.1026
  540MOL0     H72864   0.446   1.232  10.808  0.4783 -3.4852 -1.1504
  540MOL0     H72865   0.413   1.179  10.644 -0.9314  0.5717 -1.3652
  540MOL0     H72866   0.546   1.344  10.548  1.6638  1.2784  0.8371
  540MOL0     H72867   0.503   1.456  10.690 -2.3511 -1.6477  4.2536
  540MOL0     H72868   0.682   1.350  10.818  0.7941  0.0999 -0.5289
  540MOL0     H72869   0.678   1.211  10.718  0.5214  0.2230  2.1329
  540MOL0     H72870   0.737   1.474  10.592  0.5091 -1.1925 -1.9999
  540MOL0     H72871   0.785   1.308  10.549 -3.0741 -0.8484  0.5511
  540MOL0     H72872   0.982   1.437  10.626  1.9284 -2.6525  0.5586
  540MOL0     H72873   0.949   1.310  10.736 -1.4591  0.0943  1.0172
  540MOL0     H72874   0.838   1.596  10.772  0.4300  1.7900  1.4107
  540MOL0     H72875   0.858   1.475  10.898 -0.7359  0.5836 -1.2070
  540MOL0     H72876   1.029   1.651  10.915 -0.6977 -2.5110  1.4822
  540MOL0     H72877   1.083   1.628  10.752 -3.3522 -0.6329 -1.8364
  540MOL0     H72878   1.079   1.435  10.984 -0.0483  0.6405 -0.1170
  540MOL0     H72879   1.141   1.385  10.812 -1.9596 -0.6678 -0.1326
  540MOL0     H72880   0.073   1.434  10.730 -0.5240  0.3765  3.2054
  540MOL0     H72881  -0.149   1.318  10.769  0.2113  0.3739  0.9903
  540MOL0     H72882  -0.417   0.967  10.773 -1.4131  0.4184  0.7782
  540MOL0     H72883  -0.590   0.783  10.803 -0.0847  0.6995  0.1896
  540MOL0     H72884   0.752   0.716  11.116 -2.0285 -0.1238  0.2924
  540MOL0     H72885   0.976   0.666  11.042  0.6668  0.4218  1.4973
  540MOL0     H72886   1.273   0.292  11.136  2.2649 -2.1237  0.4438
  540MOL0     H72887   1.500   0.260  11.219  2.0412  2.4442  1.5337
  540MOL0     H72888   1.814   0.550  11.084  2.1592  1.6627  1.5399
  540MOL0     H72889   1.871   0.381  11.065 -0.4994  0.3411  0.4846
  540MOL0     H72890   2.013   0.534  11.231  0.7652 -0.9691 -0.6053
  540MOL0     H72891   1.951   0.381  11.300 -3.4469 -0.8145  1.1501
  540MOL0     H72892   1.757   0.493  11.397  0.3256 -0.1017 -0.9944
  540MOL0     H72893   1.805   0.637  11.329 -2.0849 -0.8194 -0.4307
  540MOL0     H72894   1.876   0.573  11.585  1.3026 -0.8817 -0.5486
  540MOL0     H72895   1.975   0.458  11.512 -1.2756 -1.1535 -0.6296
  540MOL0     H72896   2.209   0.806  11.482  0.9579  0.5443  0.6048
  540MOL0     H72897   1.638   0.570  10.962  2.0939 -0.4076  1.4186
  540MOL0     H72898   1.514   0.634  10.782  0.8935 -1.1287  1.1376
  540MOL0     H72899   1.358   0.553  10.741 -0.4444 -0.8332  1.4245
  540MOL0     H72900   1.361   0.695  10.853  0.7250 -0.6863  1.7030
  541MOL0     O72901   9.681   8.993  11.298 -0.6008  0.1815  0.3913
  541MOL0     C72902   9.692   9.016  11.420 -0.2206  0.2092  0.4944
  541MOL0     O72903   9.584   9.023  11.508  1.1193 -0.0436  0.4475
  541MOL0     C72904   9.458   8.978  11.477  0.8907 -0.5302 -0.5094
  541MOL0     C72905   9.342   9.038  11.528  0.0338 -0.0928 -0.2489
  541MOL0     C72906   9.213   8.998  11.496 -0.0448 -0.1471  0.8583
  541MOL0     C72907   9.196   8.886  11.414 -0.2274  0.8922 -0.0656
  541MOL0     O72908   9.066   8.837  11.405 -0.5852 -0.2211  0.1376
  541MOL0     C72909   9.043   8.725  11.314  0.4436 -0.3704  0.6331
  541MOL0     C72910   8.893   8.693  11.288  1.0135 -0.1224 -0.0237
  541MOL0     C72911   8.817   8.816  11.239  0.4675  0.1763  0.3302
  541MOL0     C72912   8.666   8.773  11.224 -0.2422  0.2971  0.1580
  541MOL0     C72913   8.580   8.883  11.161 -0.4121  0.3835 -1.0046
  541MOL0     C72914   8.605   9.031  11.202 -0.7619  0.6369  0.1284
  541MOL0     C72915   8.502   9.129  11.163 -0.0633  1.2029 -0.0782
  541MOL0     C72916   8.368   9.105  11.235 -0.1829  0.0535  0.4515
  541MOL0     N72917   8.282   9.201  11.169  0.3298 -0.1616 -0.5054
  541MOL0     C72918   8.177   9.170  11.089  0.1067  0.0608  0.2557
  541MOL0     C72919   8.122   9.286  11.050  0.1069  0.0095 -0.1920
  541MOL0     C72920   7.989   9.313  10.976  0.2271 -0.2536 -0.6100
  541MOL0     C72921   7.983   9.266  10.832  0.0365  0.2509 -0.8127
  541MOL0     C72922   8.093   9.327  10.748 -0.7470 -1.1319 -1.0323
  541MOL0     C72923   8.125   9.242  10.621  0.1203 -0.1284 -0.0437
  541MOL0     O72924   8.198   9.120  10.650 -0.2219  0.2582  0.4474
  541MOL0     C72925   8.322   9.131  10.693  0.9076  0.1810 -0.1341
  541MOL0     C72926   8.417   9.237  10.698  0.2213  0.8742 -0.4988
  541MOL0     C72927   8.537   9.229  10.754  0.1667  0.0659  0.8362
  541MOL0     C72928   8.591   9.103  10.785 -0.1630  0.4863 -0.2368
  541MOL0     C72929   8.724   9.083  10.840 -0.8168 -0.2566 -0.6815
  541MOL0     O72930   8.804   9.193  10.850 -0.5410 -0.3906  0.3357
  541MOL0     C72931   8.934   9.171  10.894 -0.8439  0.1340  0.5747
  541MOL0     C72932   8.972   9.126  11.020 -0.1272  0.5007  0.6078
  541MOL0     C72933   9.103   9.100  11.053  0.5663 -0.4402  0.3049
  541MOL0     C72934   9.206   9.117  10.962 -0.2103 -0.8878  0.8415
  541MOL0     O72935   9.338   9.091  10.982 -0.1396  0.0211 -0.1976
  541MOL0     C72936   9.379   9.093  11.116  0.0871  0.0713 -0.8784
  541MOL0     C72937   9.385   9.229  11.184 -0.8214 -0.8951  0.3604
  541MOL0     C72938   9.517   9.298  11.144 -0.2549  0.6745 -0.4876
  541MOL0     C72939   9.569   9.389  11.247  0.4661 -0.7694  0.2472
  541MOL0     C72940   9.693   9.460  11.196  0.1216  0.5472  0.0089
  541MOL0     C72941   9.824   9.381  11.238  0.6793  0.0166 -0.1854
  541MOL0     C72942   9.940   9.476  11.247 -0.1571 -0.9140  0.5359
  541MOL0     C72943  10.052   9.412  11.326 -0.4030 -0.0369 -0.1679
  541MOL0    Cl72944  10.193   9.522  11.293  0.0501  0.6088  0.4271
  541MOL0     C72945   9.173   9.166  10.837  0.2900  0.8644  0.0714
  541MOL0     C72946   9.039   9.192  10.810  0.2148  0.1696 -0.1890
  541MOL0     O72947   8.759   8.968  10.873 -0.4573  0.7082 -0.8580
  541MOL0     C72948   8.506   8.989  10.758  0.2788 -0.8256  0.3638
  541MOL0     C72949   8.376   9.002  10.713  0.4501  0.1191 -0.1626
  541MOL0     N72950   8.195   9.383  11.121 -0.7588 -0.0884  0.1601
  541MOL0     N72951   8.297   9.331  11.184  1.1456  0.2254  0.3204
  541MOL0     C72952   9.315   8.821  11.368 -0.1849  0.8809  0.7316
  541MOL0     C72953   9.439   8.863  11.399  0.1754  0.0974  0.2390
  541MOL0     C72954   9.829   9.048  11.479  0.9252 -0.1684  0.1956
  541MOL0     C72955   9.830   9.078  11.616 -0.4692 -0.0650 -0.2898
  541MOL0     C72956   9.951   9.102  11.686  0.5602 -0.2627 -0.4871
  541MOL0     C72957  10.073   9.098  11.611  0.0882  0.7734 -0.0732
  541MOL0     O72958  10.189   9.130  11.673 -0.3411  0.2043 -0.3806
  541MOL0     C72959  10.271   9.016  11.707 -0.0888 -0.5545  0.2866
  541MOL0     C72960  10.248   8.962  11.843  0.6292  0.8300 -0.7264
  541MOL0     C72961  10.354   8.857  11.861 -0.4335  0.2861  0.1188
  541MOL0     C72962  10.351   8.792  11.998 -0.2383  0.4129 -0.5751
  541MOL0     C72963  10.226   8.719  12.030  0.9033 -1.2508  1.0176
  541MOL0     C72964  10.120   8.664  12.073 -0.7001  0.2094  0.5626
  541MOL0     C72965  10.072   9.073  11.476  0.0741 -0.0367 -0.4684
  541MOL0     C72966   9.950   9.049  11.409  0.1672  0.4328  0.6843
  541MOL0     C72967   9.955   9.009  11.269 -0.2529  0.0565 -0.0430
  541MOL0     H72968   9.358   9.115  11.603  2.4829 -1.8629  1.1699
  541MOL0     H72969   9.128   9.054  11.533  0.7664  2.4639 -0.9114
  541MOL0     H72970   9.075   8.748  11.212  0.9300 -0.8674  0.6670
  541MOL0     H72971   9.097   8.632  11.334  1.2526 -0.6590 -2.3573
  541MOL0     H72972   8.853   8.655  11.383 -0.7882 -2.7662 -1.6893
  541MOL0     H72973   8.877   8.616  11.212 -2.0121  0.3170  0.0431
  541MOL0     H72974   8.866   8.853  11.148  0.5433 -1.6885 -0.4206
  541MOL0     H72975   8.820   8.899  11.310  0.0548 -1.2715  2.0886
  541MOL0     H72976   8.653   8.681  11.167  1.0123  0.5848 -0.6117
  541MOL0     H72977   8.634   8.752  11.326 -0.4876 -0.7036 -0.1174
  541MOL0     H72978   8.576   8.868  11.052 -1.9836 -1.6208 -0.7368
  541MOL0     H72979   8.479   8.860  11.195 -1.2614  3.9527 -0.6990
  541MOL0     H72980   8.623   9.033  11.310 -3.1472 -2.1908  0.6898
  541MOL0     H72981   8.700   9.064  11.159 -1.0578  2.5412  0.8390
  541MOL0     H72982   8.477   9.097  11.061 -3.5921 -1.0137  1.2947
  541MOL0     H72983   8.546   9.229  11.167  3.3614 -0.2111  0.3245
  541MOL0     H72984   8.327   9.006  11.215 -1.7142  0.6494  0.5167
  541MOL0     H72985   8.377   9.125  11.343  0.3281 -0.3344  0.4819
  541MOL0     H72986   8.145   9.074  11.050 -0.2123  1.1485 -2.3916
  541MOL0     H72987   7.905   9.263  11.026 -1.0433  0.6194 -1.7807
  541MOL0     H72988   7.943   9.412  10.983 -2.7797 -1.6082  0.5794
  541MOL0     H72989   8.009   9.160  10.836  1.2832  0.5766  1.8384
  541MOL0     H72990   7.879   9.276  10.800 -1.1928 -2.8027  1.7517
  541MOL0     H72991   8.180   9.348  10.811 -1.2918  1.8859 -1.1212
  541MOL0     H72992   8.046   9.421  10.717 -0.9517 -1.7913 -2.7953
  541MOL0     H72993   8.169   9.296  10.537 -1.4451 -0.8953 -1.4249
  541MOL0     H72994   8.027   9.217  10.580 -0.8526  0.8806  1.5591
  541MOL0     H72995   8.386   9.339  10.679  0.6852  1.5029  1.8480
  541MOL0     H72996   8.597   9.319  10.757 -1.6256  1.2679  2.5384
  541MOL0     H72997   8.898   9.119  11.100  0.2746 -2.0175  0.8326
  541MOL0     H72998   9.122   9.069  11.155  3.4351 -0.0972 -0.0397
  541MOL0     H72999   9.309   9.034  11.177 -0.3200  1.7521  0.3509
  541MOL0     H73000   9.480   9.054  11.132  0.0805  0.6886  0.8699
  541MOL0     H73001   9.302   9.292  11.151 -0.3540 -1.4349 -2.0158
  541MOL0     H73002   9.380   9.225  11.293  1.1838  2.5066  0.7340
  541MOL0     H73003   9.595   9.225  11.119  0.5601  0.6648  1.8275
  541MOL0     H73004   9.492   9.354  11.054  1.6604  1.6124 -0.4911
  541MOL0     H73005   9.593   9.343  11.343 -0.3661  0.7241  1.2018
  541MOL0     H73006   9.487   9.458  11.268 -0.7661 -2.0870 -0.0488
  541MOL0     H73007   9.691   9.547  11.261  0.7741  0.4246  0.2034
  541MOL0     H73008   9.688   9.485  11.089 -0.7102 -2.5449 -0.8016
  541MOL0     H73009   9.806   9.337  11.336 -1.1401  2.3649  0.6232
  541MOL0     H73010   9.852   9.303  11.167  1.9214  0.0467  0.2399
  541MOL0     H73011   9.901   9.569  11.288 -1.4757 -1.3838  0.4008
  541MOL0     H73012   9.983   9.496  11.148 -0.2112 -1.6846  0.3430
  541MOL0     H73013  10.032   9.412  11.434 -0.9017  1.5615 -0.2415
  541MOL0     H73014  10.074   9.311  11.289 -2.2180 -0.5657  0.1240
  541MOL0     H73015   9.244   9.186  10.757 -0.5781 -0.9507 -1.2257
  541MOL0     H73016   9.004   9.219  10.711  0.2018 -0.6559 -0.4151
  541MOL0     H73017   8.545   8.894  10.793 -2.6321 -1.2894  2.8629
  541MOL0     H73018   8.320   8.911  10.735  1.8474  0.1172  4.6797
  541MOL0     H73019   9.307   8.728  11.312  0.8197  1.4165 -0.3318
  541MOL0     H73020   9.520   8.814  11.346 -0.9517  0.2424 -1.7069
  541MOL0     H73021   9.736   9.077  11.670 -0.6013  0.0068 -0.5170
  541MOL0     H73022   9.938   9.123  11.791  1.4796  1.6486 -0.7216
  541MOL0     H73023  10.374   9.049  11.687  0.9508 -4.3970 -1.8571
  541MOL0     H73024  10.260   8.938  11.631  0.4689  2.6037 -3.3211
  541MOL0     H73025  10.155   8.905  11.852  2.0134 -1.3398  0.8965
  541MOL0     H73026  10.256   9.040  11.919 -0.6391 -0.7438  1.1347
  541MOL0     H73027  10.458   8.891  11.857 -0.1272 -0.5771  0.5361
  541MOL0     H73028  10.340   8.782  11.783  0.0397 -0.4915  0.7781
  541MOL0     H73029  10.432   8.721  12.016  0.0744  0.2651 -2.4588
  541MOL0     H73030  10.352   8.875  12.069 -2.9953 -0.7719  1.0186
  541MOL0     H73031  10.042   8.607  12.120 -0.9480  1.9947  2.4772
  541MOL0     H73032  10.167   9.081  11.422 -0.4564 -2.1880 -1.8442
  541MOL0     H73033   9.922   8.906  11.251  1.0634 -0.8986  2.4659
  541MOL0     H73034   9.892   9.078  11.212 -1.7413 -1.4942 -0.3951
  541MOL0     H73035  10.056   9.023  11.232 -0.7066 -1.6128 -2.0968
  542MOL0     O73036   2.787   1.537  10.723 -0.3670  0.5377 -0.5733
  542MOL0     C73037   2.749   1.640  10.779  0.1747 -0.3822 -0.1458
  542MOL0     O73038   2.822   1.727  10.834 -0.0565 -0.1398  0.3122
  542MOL0     C73039   2.957   1.720  10.811  0.4593  1.0377 -0.6923
  542MOL0     C73040   3.013   1.800  10.714 -0.0492  0.3717 -1.3091
  542MOL0     C73041   3.151   1.788  10.677  0.4495 -0.6465 -0.9306
  542MOL0     C73042   3.232   1.692  10.746  0.4194  0.2019 -0.1840
  542MOL0     O73043   3.364   1.687  10.709  0.3041 -0.4031 -1.0435
  542MOL0     C73044   3.455   1.609  10.782 -0.2902 -0.5267 -0.0377
  542MOL0     C73045   3.588   1.614  10.707  0.1484  0.4752 -0.5340
  542MOL0     C73046   3.575   1.540  10.569  0.3589 -1.2805 -0.4976
  542MOL0     C73047   3.670   1.611  10.470  0.3512 -0.0878 -0.1282
  542MOL0     C73048   3.820   1.581  10.496  0.7129 -1.3207 -0.5702
  542MOL0     C73049   3.891   1.641  10.384 -0.5643 -0.1383  0.1859
  542MOL0     C73050   4.043   1.627  10.388 -0.3465 -0.3373  0.3999
  542MOL0     C73051   4.105   1.727  10.494  0.7392  0.1297 -1.1314
  542MOL0     N73052   4.254   1.704  10.494  0.3014 -0.4509 -0.4180
  542MOL0     C73053   4.352   1.791  10.460 -0.3186 -0.0317 -0.4101
  542MOL0     C73054   4.471   1.727  10.491  0.0376 -0.0546  0.1698
  542MOL0     C73055   4.606   1.780  10.478 -0.7633 -0.2340  1.2066
  542MOL0     C73056   4.683   1.715  10.369 -0.4038  0.2347 -0.1251
  542MOL0     C73057   4.828   1.774  10.367 -0.2447 -0.5588 -0.0070
  542MOL0     C73058   4.927   1.702  10.270 -0.0835  0.7870  0.2000
  542MOL0     O73059   5.052   1.764  10.235  0.4348  0.1461 -0.4902
  542MOL0     C73060   5.158   1.742  10.318  0.1152  0.3027 -0.9758
  542MOL0     C73061   5.284   1.765  10.266 -1.6218 -0.6532  0.1011
  542MOL0     C73062   5.407   1.745  10.343 -0.2170 -1.2398 -0.5310
  542MOL0     C73063   5.396   1.687  10.478 -0.1742  0.7166  0.6026
  542MOL0     C73064   5.519   1.661  10.542 -0.3258 -0.7712 -0.3667
  542MOL0     O73065   5.631   1.730  10.497 -0.1655  0.1278 -0.1764
  542MOL0     C73066   5.763   1.691  10.527  0.8981 -0.5542  0.6481
  542MOL0     C73067   5.802   1.574  10.585 -0.6076  0.5918 -0.0664
  542MOL0     C73068   5.939   1.529  10.584 -0.2594 -0.4247 -0.3433
  542MOL0     C73069   6.035   1.621  10.533 -1.5311 -0.3252 -0.3960
  542MOL0     O73070   6.171   1.591  10.533 -0.1697  0.1388  0.0332
  542MOL0     C73071   6.216   1.495  10.439 -0.1570 -0.2033 -0.2492
  542MOL0     C73072   6.337   1.411  10.476  0.6582 -0.0976 -0.4959
  542MOL0     C73073   6.300   1.324  10.599 -0.5191 -0.1389 -0.2989
  542MOL0     C73074   6.419   1.232  10.658 -0.1704  1.0628  0.0248
  542MOL0     C73075   6.365   1.151  10.775 -0.2061 -0.7163  0.7951
  542MOL0     C73076   6.483   1.076  10.841 -0.2145  0.2920  0.7555
  542MOL0     C73077   6.430   0.988  10.957  0.1876  0.5344 -0.5490
  542MOL0     C73078   6.541   0.948  11.057  0.4805 -0.2599 -0.1747
  542MOL0    Cl73079   6.610   1.098  11.144  0.0517  0.1771  0.1881
  542MOL0     C73080   5.999   1.745  10.483  0.2169  0.1153 -0.6246
  542MOL0     C73081   5.860   1.775  10.482 -0.4132  0.3864 -0.1849
  542MOL0     O73082   5.509   1.598  10.649 -0.2608  0.4751 -0.1629
  542MOL0     C73083   5.264   1.661  10.529  0.5344 -0.4536  0.1584
  542MOL0     C73084   5.154   1.687  10.451  0.0356  0.0347  0.4290
  542MOL0     N73085   4.441   1.606  10.555  0.2991  0.3247  0.4086
  542MOL0     N73086   4.315   1.597  10.551  0.1237  0.2759 -0.2194
  542MOL0     C73087   3.178   1.618  10.859  0.1207 -0.1471  0.4897
  542MOL0     C73088   3.039   1.626  10.876 -0.4756 -0.1678 -0.3365
  542MOL0     C73089   2.599   1.656  10.793  0.0881 -0.8968 -0.7941
  542MOL0     C73090   2.514   1.545  10.796  1.2292  0.2689  0.5237
  542MOL0     C73091   2.375   1.563  10.832  0.0561 -0.7592  0.0501
  542MOL0     C73092   2.321   1.682  10.867  0.0224 -0.1932  0.1302
  542MOL0     O73093   2.190   1.703  10.902  0.1285  0.7188  0.8766
  542MOL0     C73094   2.100   1.592  10.857  0.3773 -0.7574  0.0738
  542MOL0     C73095   1.956   1.644  10.893 -1.3300 -0.8253  0.6833
  542MOL0     C73096   1.911   1.725  10.773  0.2274 -0.8310  0.2754
  542MOL0     C73097   1.774   1.789  10.802  0.1115 -0.6676 -0.1136
  542MOL0     C73098   1.738   1.876  10.694  0.8858 -0.0182 -0.2701
  542MOL0     C73099   1.704   1.971  10.627 -0.5902  1.1580 -0.8873
  542MOL0     C73100   2.417   1.785  10.863  0.1356 -0.7868  0.3528
  542MOL0     C73101   2.544   1.779  10.827 -0.2738  1.0869 -0.7439
  542MOL0     C73102   2.612   1.918  10.824 -0.4904  0.7469  0.9154
  542MOL0     H73103   2.951   1.870  10.660 -0.9831  1.0759  0.5826
  542MOL0     H73104   3.191   1.854  10.600 -0.3222  1.0249  0.0269
  542MOL0     H73105   3.469   1.660  10.877  1.7092  0.1598 -0.6677
  542MOL0     H73106   3.437   1.502  10.798  2.3827 -1.1239 -0.5249
  542MOL0     H73107   3.664   1.569  10.771  0.8299 -0.2251 -1.7846
  542MOL0     H73108   3.601   1.722  10.694 -3.8569  1.2252  0.2504
  542MOL0     H73109   3.476   1.549  10.525  0.5784 -0.2851 -0.8088
  542MOL0     H73110   3.595   1.433  10.571  1.1077 -1.1436 -0.1505
  542MOL0     H73111   3.643   1.575  10.370 -2.2468  0.9891  0.1115
  542MOL0     H73112   3.645   1.718  10.462 -0.2617 -0.3490 -2.4768
  542MOL0     H73113   3.861   1.630  10.584  2.6366 -0.1927 -2.0172
  542MOL0     H73114   3.842   1.474  10.490 -0.9735 -1.7275 -0.2159
  542MOL0     H73115   3.861   1.586  10.294  1.7758 -2.0145  0.4541
  542MOL0     H73116   3.859   1.745  10.375 -0.8429 -0.2815 -0.6083
  542MOL0     H73117   4.069   1.656  10.286 -0.9220  1.3305  0.6974
  542MOL0     H73118   4.088   1.527  10.393  2.4636  0.6947 -1.6064
  542MOL0     H73119   4.088   1.834  10.477  0.2594  0.5515  1.5496
  542MOL0     H73120   4.071   1.692  10.592 -0.9240 -2.5427 -2.5337
  542MOL0     H73121   4.348   1.892  10.422 -0.5449  1.5937  3.5083
  542MOL0     H73122   4.602   1.887  10.455  2.0495 -0.5154 -1.2825
  542MOL0     H73123   4.650   1.769  10.577 -2.6607  0.4048  2.1709
  542MOL0     H73124   4.699   1.609  10.390 -1.7578  0.2809  1.2836
  542MOL0     H73125   4.643   1.737  10.270  2.3903  0.0897 -1.3897
  542MOL0     H73126   4.869   1.776  10.468 -0.8158 -0.8860  0.2333
  542MOL0     H73127   4.825   1.874  10.323  1.9858 -0.3133  0.2899
  542MOL0     H73128   4.871   1.690  10.176  0.6834 -0.1405 -0.1542
  542MOL0     H73129   4.944   1.600  10.306  0.1177  1.4536  2.1162
  542MOL0     H73130   5.282   1.783  10.159 -0.5272 -1.2945 -0.0431
  542MOL0     H73131   5.499   1.782  10.299 -0.0892  1.2231  1.5225
  542MOL0     H73132   5.722   1.505  10.612  1.0279 -0.9535  1.0641
  542MOL0     H73133   5.949   1.423  10.605  2.5098 -0.2511 -0.4085
  542MOL0     H73134   6.140   1.418  10.421  0.6042 -1.3700  1.3028
  542MOL0     H73135   6.240   1.550  10.348 -1.3947 -0.4875 -0.7673
  542MOL0     H73136   6.352   1.345  10.390 -1.5499 -1.6189  0.1820
  542MOL0     H73137   6.420   1.480  10.492  0.8048 -0.1548 -0.9933
  542MOL0     H73138   6.255   1.385  10.677  0.3039  0.9282 -0.6285
  542MOL0     H73139   6.222   1.263  10.552 -1.0008  2.2114 -2.8527
  542MOL0     H73140   6.503   1.289  10.699 -1.2706  0.1332  3.9829
  542MOL0     H73141   6.448   1.165  10.577 -0.6433  0.3747  0.4174
  542MOL0     H73142   6.291   1.076  10.747  4.2639 -5.0143 -1.1644
  542MOL0     H73143   6.322   1.231  10.835  0.2122  0.6106 -0.5919
  542MOL0     H73144   6.527   1.004  10.771  1.7089  1.8160  0.2952
  542MOL0     H73145   6.565   1.140  10.875  1.6008 -0.4981 -1.8757
  542MOL0     H73146   6.387   0.896  10.916  3.8802 -1.7044  0.0988
  542MOL0     H73147   6.356   1.047  11.012 -1.6502 -2.3881  0.3194
  542MOL0     H73148   6.490   0.880  11.126 -3.4129  2.8050  0.2955
  542MOL0     H73149   6.619   0.889  11.008 -1.7378 -2.7665 -0.9258
  542MOL0     H73150   6.064   1.812  10.428 -1.2508 -0.1450 -2.7974
  542MOL0     H73151   5.829   1.860  10.422 -0.7988 -0.1036 -0.6870
  542MOL0     H73152   5.254   1.634  10.634 -0.7982 -0.7774 -0.0434
  542MOL0     H73153   5.063   1.667  10.508  1.4727 -0.1044  2.8153
  542MOL0     H73154   3.242   1.549  10.914  1.0407  1.6847  1.8642
  542MOL0     H73155   3.007   1.565  10.961  2.9379 -3.4031 -1.0973
  542MOL0     H73156   2.547   1.443  10.780 -0.5618 -0.4629  1.2737
  542MOL0     H73157   2.310   1.476  10.822 -0.8237  0.0048 -1.1108
  542MOL0     H73158   2.120   1.503  10.916  1.2962  0.9694  2.5244
  542MOL0     H73159   2.107   1.590  10.748  0.0868 -2.3655  0.0712
  542MOL0     H73160   1.959   1.715  10.976 -0.2028  1.7929 -1.4657
  542MOL0     H73161   1.890   1.563  10.925 -2.6161  0.3595  1.1158
  542MOL0     H73162   1.892   1.674  10.678  0.2792  0.9503 -0.7539
  542MOL0     H73163   1.981   1.806  10.751 -0.1206 -0.1714  1.5108
  542MOL0     H73164   1.702   1.708  10.815 -1.6080 -0.0067 -4.1623
  542MOL0     H73165   1.783   1.847  10.895  0.6531 -0.9984  0.0462
  542MOL0     H73166   1.655   2.042  10.563 -1.6915  0.0477 -1.3226
  542MOL0     H73167   2.377   1.883  10.886 -2.1410 -1.0112 -2.1435
  542MOL0     H73168   2.609   1.951  10.929  0.7905  2.5086  0.4459
  542MOL0     H73169   2.711   1.928  10.781  0.7212 -1.0211  3.0920
  542MOL0     H73170   2.550   1.990  10.769 -1.3371 -1.7758 -1.6351
  543MOL0     O73171   5.727   3.138   7.122  0.3872 -0.3518 -0.1862
  543MOL0     C73172   5.744   3.256   7.091 -0.3575  0.3447  0.7115
  543MOL0     O73173   5.769   3.358   7.176  0.0100  0.3580  0.0723
  543MOL0     C73174   5.802   3.318   7.302  0.6736  0.5282 -0.7979
  543MOL0     C73175   5.934   3.291   7.332  0.2391  0.3106 -0.5221
  543MOL0     C73176   5.967   3.220   7.450 -0.3500 -0.0014 -0.0421
  543MOL0     C73177   5.879   3.186   7.550  0.2227  0.0960 -0.9979
  543MOL0     O73178   5.921   3.105   7.654  0.3471  0.3102 -0.1891
  543MOL0     C73179   5.870   3.132   7.784  0.3922 -0.7905 -0.5053
  543MOL0     C73180   5.897   3.275   7.827 -0.5739 -0.2248  0.0692
  543MOL0     C73181   6.044   3.301   7.865  0.8261  0.7003 -0.8321
  543MOL0     C73182   6.083   3.452   7.830  0.4477 -0.5355 -0.1835
  543MOL0     C73183   6.230   3.474   7.825 -0.2246 -0.3466  0.2707
  543MOL0     C73184   6.300   3.495   7.959 -0.1940  0.0275 -0.0964
  543MOL0     C73185   6.445   3.528   7.913 -0.5534  0.9040  0.0040
  543MOL0     C73186   6.552   3.527   8.031 -0.0426  0.0960  0.2063
  543MOL0     N73187   6.533   3.629   8.133 -0.1631  0.0025  0.1567
  543MOL0     C73188   6.633   3.701   8.190 -0.1276  0.7252  0.3410
  543MOL0     C73189   6.579   3.763   8.300 -0.7519 -0.4923 -0.0829
  543MOL0     C73190   6.658   3.860   8.378 -0.9801 -1.5146 -0.1474
  543MOL0     C73191   6.731   3.963   8.291 -1.0710  0.2955  0.9300
  543MOL0     C73192   6.634   4.047   8.213  0.0916  0.6329  0.0290
  543MOL0     C73193   6.694   4.180   8.170 -0.4282 -0.6573 -0.1609
  543MOL0     O73194   6.730   4.257   8.285 -0.7630  0.0405  0.2753
  543MOL0     C73195   6.816   4.368   8.270  0.2897 -0.7309 -1.0112
  543MOL0     C73196   6.877   4.401   8.153 -0.1717  0.5914 -0.9312
  543MOL0     C73197   6.963   4.511   8.152 -1.2762 -0.0145 -0.0737
  543MOL0     C73198   6.975   4.591   8.270  1.0135 -1.2709  1.0826
  543MOL0     C73199   7.074   4.704   8.271  0.3028  0.7624 -0.6803
  543MOL0     O73200   7.178   4.696   8.174  0.4953 -0.3663 -0.2886
  543MOL0     C73201   7.284   4.785   8.182 -0.9947  0.0240  0.4418
  543MOL0     C73202   7.344   4.832   8.297 -0.7274  0.6119 -0.4732
  543MOL0     C73203   7.473   4.894   8.285 -0.4016  0.0346 -0.9492
  543MOL0     C73204   7.535   4.913   8.160 -1.0652 -0.1699  0.6858
  543MOL0     O73205   7.650   4.981   8.136  0.4753  0.0834  0.1845
  543MOL0     C73206   7.752   4.975   8.234 -0.9664 -0.6802  0.3602
  543MOL0     C73207   7.871   5.054   8.202 -0.1790  0.0179  0.2058
  543MOL0     C73208   7.957   5.064   8.330 -0.4278 -0.3585  0.6503
  543MOL0     C73209   8.097   5.126   8.310  0.3776  1.0686  0.1518
  543MOL0     C73210   8.190   5.044   8.221 -0.1632 -0.5025  0.2463
  543MOL0     C73211   8.340   5.084   8.228 -0.3677  0.2089  0.3210
  543MOL0     C73212   8.422   4.982   8.138  0.2358  0.0432 -0.7487
  543MOL0     C73213   8.506   4.892   8.231  0.1773  0.2894  0.8463
  543MOL0    Cl73214   8.618   4.822   8.118  0.2636 -0.3400 -0.1599
  543MOL0     C73215   7.468   4.874   8.044  0.6226  0.5211 -0.5256
  543MOL0     C73216   7.351   4.805   8.057  1.0830 -0.2513 -0.1002
  543MOL0     O73217   7.062   4.792   8.356  0.2213 -0.4192 -0.3579
  543MOL0     C73218   6.895   4.571   8.384 -0.2606  1.1141  0.5101
  543MOL0     C73219   6.818   4.454   8.386  0.8882 -0.2951  0.0721
  543MOL0     N73220   6.449   3.724   8.306 -0.7974  0.8665  0.1004
  543MOL0     N73221   6.422   3.638   8.215  0.3859  0.4456 -0.4426
  543MOL0     C73222   5.743   3.228   7.532 -0.2007  0.2995  0.4405
  543MOL0     C73223   5.706   3.303   7.408  0.4876  0.5433 -0.5260
  543MOL0     C73224   5.738   3.301   6.947  0.5668  0.5701  0.1485
  543MOL0     C73225   5.807   3.421   6.910  1.5579 -0.3097 -0.0730
  543MOL0     C73226   5.794   3.471   6.786 -1.5698 -0.1007 -0.5868
  543MOL0     C73227   5.724   3.399   6.691 -0.3647  0.2679  0.2949
  543MOL0     O73228   5.707   3.460   6.572  1.1713  0.3013  0.0433
  543MOL0     C73229   5.562   3.466   6.540  0.7150  0.5307 -0.6902
  543MOL0     C73230   5.504   3.609   6.572  0.5671 -0.7584 -0.5547
  543MOL0     C73231   5.571   3.721   6.481 -1.3925  0.1239  0.1081
  543MOL0     C73232   5.525   3.862   6.501 -0.0141  0.2520 -0.1699
  543MOL0     C73233   5.379   3.876   6.496  0.2708 -0.2279 -0.3787
  543MOL0     C73234   5.252   3.887   6.489  0.1053  0.6583  0.6059
  543MOL0     C73235   5.664   3.281   6.714 -0.7619  0.5856  0.5320
  543MOL0     C73236   5.668   3.231   6.846  0.6293  0.9983  0.0524
  543MOL0     C73237   5.583   3.102   6.869  0.4886 -0.2699  0.5519
  543MOL0     H73238   6.013   3.327   7.268  2.3555 -3.1050 -0.0859
  543MOL0     H73239   6.068   3.193   7.481 -1.3731 -2.8155  1.2196
  543MOL0     H73240   5.764   3.110   7.796  0.3315  0.2906  1.2879
  543MOL0     H73241   5.911   3.070   7.865 -1.5133 -0.0806  1.0910
  543MOL0     H73242   5.835   3.298   7.914  3.5904 -1.7376  3.8137
  543MOL0     H73243   5.868   3.351   7.753  2.1030  1.1921  0.3537
  543MOL0     H73244   6.104   3.212   7.840 -0.3866 -1.0397  1.9736
  543MOL0     H73245   6.048   3.294   7.974  1.1942 -1.6580 -0.9386
  543MOL0     H73246   6.043   3.481   7.733 -1.9976  2.1568  1.4357
  543MOL0     H73247   6.031   3.520   7.899  0.3975  0.4976 -1.2114
  543MOL0     H73248   6.289   3.406   7.763  1.2956  1.6267 -0.5679
  543MOL0     H73249   6.241   3.578   7.792 -2.8139  0.5818  1.9941
  543MOL0     H73250   6.253   3.584   8.003  2.3881  0.4027  2.1492
  543MOL0     H73251   6.290   3.404   8.019  3.1238 -0.5163 -0.1629
  543MOL0     H73252   6.448   3.628   7.870  0.2006  1.1189  0.5362
  543MOL0     H73253   6.481   3.451   7.844 -3.0365 -1.1911  0.8917
  543MOL0     H73254   6.560   3.429   8.079 -1.8607 -0.1839 -0.0174
  543MOL0     H73255   6.654   3.542   7.992 -0.1094  2.1844  0.7447
  543MOL0     H73256   6.733   3.691   8.148 -0.5476  3.0761 -1.4579
  543MOL0     H73257   6.581   3.902   8.444 -1.9894 -2.2165 -0.8360
  543MOL0     H73258   6.735   3.801   8.428  1.2933 -0.4151 -2.1714
  543MOL0     H73259   6.792   4.018   8.363 -1.4477 -0.3166  1.7290
  543MOL0     H73260   6.793   3.915   8.215 -2.6336  0.0173 -0.2434
  543MOL0     H73261   6.549   4.079   8.273 -0.5333  2.5861 -1.7768
  543MOL0     H73262   6.587   3.992   8.131  1.8919 -1.8555  0.5490
  543MOL0     H73263   6.628   4.234   8.101  1.3877  0.8813 -0.7840
  543MOL0     H73264   6.787   4.146   8.121  2.8848  2.7183  3.1143
  543MOL0     H73265   6.875   4.345   8.061  1.5158 -0.3504 -0.4474
  543MOL0     H73266   7.016   4.540   8.061  1.1585  0.8167  1.5136
  543MOL0     H73267   7.305   4.818   8.397 -0.8038  0.0728 -0.5758
  543MOL0     H73268   7.530   4.929   8.371 -1.6774 -0.2065  0.0191
  543MOL0     H73269   7.716   5.017   8.328  2.0879  0.9983  0.9283
  543MOL0     H73270   7.780   4.870   8.245 -0.5692 -1.1796 -3.7528
  543MOL0     H73271   7.912   4.994   8.119 -1.1759 -0.5390  0.1060
  543MOL0     H73272   7.846   5.156   8.171  1.3420  0.6223  0.8725
  543MOL0     H73273   7.920   5.131   8.408  0.8836 -2.5319  3.3106
  543MOL0     H73274   7.978   4.966   8.374  0.6837 -0.4337  0.0040
  543MOL0     H73275   8.141   5.124   8.410 -0.5384 -0.4745  0.5658
  543MOL0     H73276   8.088   5.231   8.281 -0.2544  0.8992 -0.2984
  543MOL0     H73277   8.152   5.028   8.120  1.5149  0.4342 -0.5898
  543MOL0     H73278   8.186   4.943   8.263 -3.4634 -0.7473 -0.4087
  543MOL0     H73279   8.365   5.184   8.191  3.8178 -2.0461 -4.1371
  543MOL0     H73280   8.373   5.085   8.332  1.5917  2.1824 -0.2389
  543MOL0     H73281   8.498   5.044   8.089  1.6109 -1.2560 -0.3436
  543MOL0     H73282   8.354   4.935   8.067  0.6387 -3.4594  0.9671
  543MOL0     H73283   8.566   4.933   8.314  2.4876 -2.0454  0.4552
  543MOL0     H73284   8.443   4.811   8.266 -0.3436  0.7410  0.9690
  543MOL0     H73285   7.519   4.889   7.949  3.4862  0.7524  0.9527
  543MOL0     H73286   7.319   4.762   7.962 -1.6947  0.6467  0.3627
  543MOL0     H73287   6.915   4.626   8.475  1.1255  1.4971 -0.0087
  543MOL0     H73288   6.758   4.416   8.468 -0.5190 -1.7065 -1.5170
  543MOL0     H73289   5.668   3.201   7.606 -0.4593  0.4625  0.2384
  543MOL0     H73290   5.602   3.325   7.386  0.8433  1.7920 -1.0025
  543MOL0     H73291   5.872   3.471   6.981 -1.6567  1.7243  1.6799
  543MOL0     H73292   5.843   3.565   6.767 -2.1233  0.5265  0.9541
  543MOL0     H73293   5.506   3.391   6.597 -0.9596  2.4885  0.3977
  543MOL0     H73294   5.554   3.432   6.437 -1.4331  0.1781 -0.4482
  543MOL0     H73295   5.537   3.629   6.674 -0.3720 -1.9715  0.0140
  543MOL0     H73296   5.396   3.611   6.559  0.4276  0.1219  0.5992
  543MOL0     H73297   5.535   3.688   6.383  0.7234 -1.5061 -0.1813
  543MOL0     H73298   5.679   3.714   6.490 -1.3849  0.2396  0.1134
  543MOL0     H73299   5.550   3.893   6.603  0.2985  0.6805 -0.3739
  543MOL0     H73300   5.566   3.931   6.426 -2.7288  2.0542 -0.1617
  543MOL0     H73301   5.146   3.898   6.493 -0.1221 -0.6929 -0.8346
  543MOL0     H73302   5.621   3.222   6.633 -1.7260  3.3241 -1.0712
  543MOL0     H73303   5.495   3.107   6.805 -0.0052 -0.3768  1.2109
  543MOL0     H73304   5.641   3.013   6.842 -0.4901 -0.1331 -2.3144
  543MOL0     H73305   5.550   3.091   6.973 -1.9145  0.3142 -0.1048
  544MOL0     O73306   1.863   4.302   1.633  0.4845  0.3597  0.5110
  544MOL0     C73307   1.864   4.190   1.691  0.2442  0.1212  0.0093
  544MOL0     O73308   1.966   4.140   1.762 -0.4165  0.4939  0.9306
  544MOL0     C73309   2.075   4.219   1.774 -0.5885 -0.1506  0.5333
  544MOL0     C73310   2.162   4.209   1.663 -0.9762  0.9452  0.1241
  544MOL0     C73311   2.283   4.281   1.670  0.3665 -0.4529  0.5300
  544MOL0     C73312   2.318   4.360   1.784  0.5264  0.5050  0.4364
  544MOL0     O73313   2.437   4.421   1.810  0.4828  0.4722  0.7480
  544MOL0     C73314   2.492   4.507   1.693  0.6943 -0.6333 -0.7803
  544MOL0     C73315   2.581   4.624   1.757  0.8648 -0.1013 -0.6927
  544MOL0     C73316   2.497   4.741   1.804  0.0359 -0.4535 -1.1918
  544MOL0     C73317   2.591   4.859   1.861  0.2872  0.2533  0.0279
  544MOL0     C73318   2.517   4.987   1.905  1.0187 -0.3579  0.1133
  544MOL0     C73319   2.446   5.049   1.786 -0.9066 -0.4752 -0.0758
  544MOL0     C73320   2.373   5.169   1.835  0.5045  0.2514  0.0119
  544MOL0     C73321   2.300   5.235   1.722 -0.0086 -0.3539  0.4823
  544MOL0     N73322   2.183   5.174   1.665  0.2159 -0.1364 -0.3829
  544MOL0     C73323   2.108   5.077   1.716  0.1138  1.1831  0.7209
  544MOL0     C73324   2.015   5.053   1.612  0.6849 -0.1048  0.0520
  544MOL0     C73325   1.894   4.965   1.631 -0.0753  0.3903  0.1852
  544MOL0     C73326   1.773   5.002   1.537  0.1490 -0.2251 -0.7618
  544MOL0     C73327   1.655   4.908   1.520 -0.0498 -0.2128  0.2333
  544MOL0     C73328   1.690   4.772   1.449 -0.7866  0.0792  0.2278
  544MOL0     O73329   1.576   4.695   1.450  0.5330  0.0853 -0.0225
  544MOL0     C73330   1.482   4.725   1.353  0.3746  1.5000 -0.6461
  544MOL0     C73331   1.354   4.680   1.380  0.3144 -0.6727 -0.0806
  544MOL0     C73332   1.247   4.700   1.289 -0.3039 -0.0283  0.3094
  544MOL0     C73333   1.270   4.771   1.164 -0.5483  0.0177 -0.6287
  544MOL0     C73334   1.164   4.774   1.068 -0.2101 -0.2527  0.6108
  544MOL0     O73335   1.049   4.698   1.090  0.9144 -0.2218 -0.0540
  544MOL0     C73336   0.941   4.688   1.005  0.3370  0.6180 -0.3311
  544MOL0     C73337   0.826   4.648   1.071 -0.2976  0.3979  0.2744
  544MOL0     C73338   0.707   4.621   1.013  0.0178 -0.4862 -0.1352
  544MOL0     C73339   0.692   4.638   0.876  0.3156 -0.4323  0.7393
  544MOL0     O73340   0.572   4.598   0.826 -0.2546  0.2496  0.4825
  544MOL0     C73341   0.532   4.622   0.696 -0.0245 -0.1372 -0.1084
  544MOL0     C73342   0.390   4.583   0.668  0.3908 -0.3814  0.2842
  544MOL0     C73343   0.295   4.690   0.719 -0.4291 -0.5638 -0.1523
  544MOL0     C73344   0.160   4.616   0.754  0.7481 -0.1509 -0.0154
  544MOL0     C73345   0.054   4.728   0.797 -0.1949 -0.0546 -0.6575
  544MOL0     C73346  -0.084   4.679   0.758  0.4511 -0.4175  0.0908
  544MOL0     C73347  -0.190   4.789   0.779  0.0277  0.4811 -0.4817
  544MOL0     C73348  -0.304   4.778   0.681 -0.0071 -0.1411  0.2940
  544MOL0    Cl73349  -0.410   4.643   0.708 -0.4046 -0.2055 -0.1642
  544MOL0     C73350   0.803   4.687   0.804 -0.4983  0.7440 -0.0394
  544MOL0     C73351   0.920   4.717   0.864 -0.3217  0.3343  0.4033
  544MOL0     O73352   1.192   4.841   0.969  0.2827 -0.7553  0.2895
  544MOL0     C73353   1.402   4.821   1.136  0.4457  0.2391  0.1991
  544MOL0     C73354   1.503   4.794   1.228  0.4747  0.2720 -0.1700
  544MOL0     N73355   2.049   5.129   1.503  0.1465  0.1060 -1.0495
  544MOL0     N73356   2.155   5.194   1.535 -0.1548 -0.7590  0.0448
  544MOL0     C73357   2.224   4.368   1.893  0.3785  0.2433 -0.5342
  544MOL0     C73358   2.101   4.303   1.882  1.0234  0.0871 -0.1474
  544MOL0     C73359   1.731   4.118   1.677 -0.6636 -1.1413  0.4453
  544MOL0     C73360   1.638   4.152   1.579  0.6578  0.2580 -0.1034
  544MOL0     C73361   1.509   4.101   1.571  1.3355  0.7349  0.3547
  544MOL0     C73362   1.466   4.020   1.671  0.7023 -0.7460  0.1832
  544MOL0     O73363   1.343   3.955   1.672 -0.1049 -0.0205 -0.3360
  544MOL0     C73364   1.236   3.985   1.583 -0.1708  0.2875  0.2523
  544MOL0     C73365   1.121   4.017   1.665 -0.1744  0.5467 -0.6825
  544MOL0     C73366   0.992   3.993   1.583 -0.1785  0.0384 -0.9195
  544MOL0     C73367   0.873   3.983   1.672 -0.7774 -0.6371  0.2954
  544MOL0     C73368   0.755   3.938   1.594  0.3146 -0.6883 -0.0716
  544MOL0     C73369   0.656   3.905   1.529  0.4883 -0.1359  0.0359
  544MOL0     C73370   1.557   3.986   1.768 -0.1274 -0.3414  0.0529
  544MOL0     C73371   1.689   4.029   1.773  0.4243  0.3918 -0.4786
  544MOL0     C73372   1.762   3.985   1.889  0.1467 -0.3721 -0.5180
  544MOL0     H73373   2.134   4.148   1.578  2.9478  0.3864 -0.9507
  544MOL0     H73374   2.335   4.271   1.576 -1.5261  1.4150 -0.8049
  544MOL0     H73375   2.540   4.434   1.627 -0.9400 -1.3613 -1.2256
  544MOL0     H73376   2.409   4.552   1.638  1.0968  0.8725 -0.2114
  544MOL0     H73377   2.647   4.664   1.679  2.2203 -1.1923 -0.1443
  544MOL0     H73378   2.649   4.583   1.832 -0.3155  1.9060  1.6429
  544MOL0     H73379   2.430   4.715   1.887 -1.1459  1.7121 -1.4084
  544MOL0     H73380   2.424   4.783   1.734 -3.8044  3.0006  4.1016
  544MOL0     H73381   2.643   4.818   1.948  2.0398  1.6708 -0.2997
  544MOL0     H73382   2.676   4.878   1.795  0.3384 -0.8719 -0.2438
  544MOL0     H73383   2.452   4.963   1.990  1.1207  0.0202  0.2975
  544MOL0     H73384   2.596   5.049   1.949 -2.5279  2.3727  3.2374
  544MOL0     H73385   2.520   5.078   1.710  0.5493 -2.2854  0.5797
  544MOL0     H73386   2.379   4.978   1.736 -1.0723 -0.1757 -0.2828
  544MOL0     H73387   2.457   5.232   1.867  1.2996 -1.2634  1.0755
  544MOL0     H73388   2.302   5.140   1.913  0.4274 -0.8527 -0.4491
  544MOL0     H73389   2.271   5.331   1.767 -2.9980 -0.0196 -1.8346
  544MOL0     H73390   2.376   5.262   1.648 -0.7859  0.8831  0.1058
  544MOL0     H73391   2.109   5.042   1.818 -4.0089 -0.2552  0.4748
  544MOL0     H73392   1.928   4.862   1.615 -3.1379 -0.7267  0.2507
  544MOL0     H73393   1.867   4.970   1.737 -1.4393 -1.3241 -0.0459
  544MOL0     H73394   1.737   5.094   1.584  1.2078 -0.1201 -0.1278
  544MOL0     H73395   1.809   5.033   1.438  0.7660  1.4282 -0.0528
  544MOL0     H73396   1.578   4.960   1.462  3.7710  3.0173 -2.4757
  544MOL0     H73397   1.619   4.884   1.620  1.6161 -0.1756  0.8604
  544MOL0     H73398   1.777   4.727   1.499  1.4471  1.3221 -2.3070
  544MOL0     H73399   1.729   4.796   1.350  1.9565 -0.4292  1.0910
  544MOL0     H73400   1.342   4.620   1.469 -2.2931 -1.0354 -0.5933
  544MOL0     H73401   1.148   4.657   1.303 -0.4749  0.1079 -0.4626
  544MOL0     H73402   0.840   4.640   1.179 -0.4452  0.0248  0.2664
  544MOL0     H73403   0.623   4.570   1.060 -0.7297  1.1334  0.3789
  544MOL0     H73404   0.533   4.731   0.684  2.2550 -0.2972 -1.9815
  544MOL0     H73405   0.598   4.579   0.620 -0.0741  1.2797 -0.9996
  544MOL0     H73406   0.377   4.570   0.560  1.1949  1.5531 -0.1045
  544MOL0     H73407   0.377   4.485   0.714  0.2974 -0.5392 -0.0759
  544MOL0     H73408   0.342   4.742   0.802 -0.1195  0.2831 -0.8388
  544MOL0     H73409   0.283   4.768   0.643  0.3682  0.8144  1.0988
  544MOL0     H73410   0.191   4.558   0.841  2.7862  0.1555 -0.4925
  544MOL0     H73411   0.112   4.556   0.677 -0.7784  0.4072  0.4714
  544MOL0     H73412   0.077   4.823   0.749 -3.0894 -0.2254 -2.6743
  544MOL0     H73413   0.059   4.737   0.906  0.3806 -3.3018 -0.2940
  544MOL0     H73414  -0.086   4.646   0.654 -0.6310 -1.7908  0.5254
  544MOL0     H73415  -0.121   4.591   0.811  1.3263 -1.7674 -1.4737
  544MOL0     H73416  -0.156   4.892   0.770 -3.1304  1.4694 -2.8979
  544MOL0     H73417  -0.229   4.763   0.878 -0.6595 -0.7861 -1.0622
  544MOL0     H73418  -0.362   4.870   0.696  1.2092  0.6954 -0.0628
  544MOL0     H73419  -0.274   4.771   0.576  0.1544 -1.8084  0.4155
  544MOL0     H73420   0.791   4.708   0.698 -0.2281  0.0575 -0.2086
  544MOL0     H73421   0.998   4.756   0.800  0.3848 -0.9217  0.4660
  544MOL0     H73422   1.425   4.873   1.044  0.5621  0.5144  0.3823
  544MOL0     H73423   1.599   4.824   1.186  1.0854  0.1817  1.1037
  544MOL0     H73424   2.254   4.437   1.971  0.0659  0.2170 -0.3889
  544MOL0     H73425   2.019   4.329   1.948 -0.1479  1.0111 -1.8893
  544MOL0     H73426   1.667   4.210   1.491 -0.6390 -3.4368 -3.2588
  544MOL0     H73427   1.439   4.129   1.494  2.1018 -0.9480 -1.0244
  544MOL0     H73428   1.224   3.890   1.530  3.5306 -0.0187 -0.3313
  544MOL0     H73429   1.246   4.070   1.515  0.2860  1.2042  1.4437
  544MOL0     H73430   1.127   4.122   1.693 -0.2386  1.0974 -2.5568
  544MOL0     H73431   1.120   3.948   1.750  0.1218  0.9539 -0.3454
  544MOL0     H73432   1.002   3.891   1.544  0.3512  0.2491 -1.3387
  544MOL0     H73433   0.975   4.062   1.499 -1.5159 -1.5527 -2.0442
  544MOL0     H73434   0.892   3.905   1.746  2.5341 -0.6436 -0.4134
  544MOL0     H73435   0.861   4.083   1.715  0.7245  0.4310 -1.6284
  544MOL0     H73436   0.568   3.863   1.484 -0.5126  1.6596  0.2494
  544MOL0     H73437   1.532   3.908   1.840  1.6364 -3.3249 -2.3398
  544MOL0     H73438   1.709   3.903   1.938  0.2136 -0.7342 -1.0429
  544MOL0     H73439   1.861   3.947   1.860  1.2428  1.2709  0.8589
  544MOL0     H73440   1.776   4.068   1.959 -1.6448  0.5178 -1.1792
  545MOL0     O73441   2.956   4.083  10.238  0.4256 -0.1333 -0.5396
  545MOL0     C73442   2.949   4.019  10.342  0.5491 -1.0074  0.1706
  545MOL0     O73443   3.054   3.936  10.389  0.3253 -0.5144  0.6633
  545MOL0     C73444   3.179   3.942  10.333  0.0116  0.5735 -0.3533
  545MOL0     C73445   3.251   3.825  10.351 -0.3285  0.3581  0.2442
  545MOL0     C73446   3.387   3.809  10.321 -0.1521 -0.6899  0.6792
  545MOL0     C73447   3.447   3.928  10.270  0.0892 -0.8034 -0.4319
  545MOL0     O73448   3.584   3.914  10.238  0.1020 -0.3660  0.3547
  545MOL0     C73449   3.650   4.020  10.171 -0.5330  0.0940 -0.1226
  545MOL0     C73450   3.691   4.132  10.272 -0.2124  0.4595  0.2768
  545MOL0     C73451   3.751   4.244  10.191 -0.5152 -1.4007  0.1899
  545MOL0     C73452   3.648   4.337  10.117  0.6798  0.5895 -0.3526
  545MOL0     C73453   3.708   4.459  10.037  0.8462  0.6482  0.0567
  545MOL0     C73454   3.801   4.558  10.112 -0.3669 -0.5363 -0.9745
  545MOL0     C73455   3.878   4.640  10.018  0.6595  0.2780 -0.7559
  545MOL0     C73456   3.991   4.715  10.082  0.3074 -0.1692 -0.1746
  545MOL0     N73457   3.959   4.852  10.128  0.4428  0.0518  0.3041
  545MOL0     C73458   3.913   4.879  10.251  0.1806  0.9196  0.3567
  545MOL0     C73459   3.879   5.007  10.257 -0.2013 -0.1975 -0.6086
  545MOL0     C73460   3.812   5.076  10.377  0.7030 -0.4378  0.7753
  545MOL0     C73461   3.898   5.184  10.438 -0.0364  0.3648 -0.6058
  545MOL0     C73462   3.850   5.258  10.556  0.3228 -0.2915  0.1749
  545MOL0     C73463   3.937   5.372  10.599  0.8634  1.0398 -0.1741
  545MOL0     O73464   3.870   5.441  10.702  0.1639  0.8346 -0.7337
  545MOL0     C73465   3.869   5.386  10.826 -0.1615  0.4443 -0.0544
  545MOL0     C73466   3.955   5.289  10.874  0.2434 -0.0433  0.7322
  545MOL0     C73467   3.940   5.228  10.993 -0.0593  0.2502  0.0709
  545MOL0     C73468   3.834   5.254  11.076  1.1243  0.6890  0.4469
  545MOL0     C73469   3.818   5.176  11.198  0.9805  0.0927  0.0414
  545MOL0     O73470   3.687   5.140  11.232  0.2496  0.1993  0.2335
  545MOL0     C73471   3.654   5.068  11.350  0.3717  0.9085  0.7339
  545MOL0     C73472   3.537   5.088  11.404 -0.3086  1.1399 -0.2654
  545MOL0     C73473   3.481   5.004  11.504  0.2935  0.3672  0.0415
  545MOL0     C73474   3.553   4.891  11.551  0.5840  0.2952  0.4424
  545MOL0     O73475   3.505   4.820  11.658  0.3890  0.1716  0.6006
  545MOL0     C73476   3.505   4.674  11.631  0.6180  0.5694 -1.1753
  545MOL0     C73477   3.422   4.616  11.751  0.3088 -0.0938  0.1141
  545MOL0     C73478   3.269   4.630  11.752  0.1607  0.8584 -0.2136
  545MOL0     C73479   3.198   4.561  11.878 -0.7390 -0.0298  0.2137
  545MOL0     C73480   3.195   4.402  11.892 -0.6906  0.5122 -0.8088
  545MOL0     C73481   3.131   4.367  12.028 -0.3954  0.6300  0.3690
  545MOL0     C73482   3.109   4.212  12.041 -0.0034  0.7224 -0.1985
  545MOL0     C73483   3.072   4.133  11.915  0.9885  0.0216  0.4164
  545MOL0    Cl73484   2.940   4.216  11.827  0.2763 -0.2892  0.2880
  545MOL0     C73485   3.682   4.878  11.489 -0.6586  0.1214  0.7947
  545MOL0     C73486   3.734   4.965  11.394 -0.6442  0.3552  0.5382
  545MOL0     O73487   3.918   5.149  11.261 -0.1097  0.0310  0.1087
  545MOL0     C73488   3.737   5.342  11.033 -0.1607  0.2076  0.4646
  545MOL0     C73489   3.764   5.406  10.911  0.3332  0.2981 -0.6980
  545MOL0     N73490   3.910   5.062  10.137 -0.1083  0.2327  0.4164
  545MOL0     N73491   3.948   4.964  10.056  0.5871  0.2538 -0.4699
  545MOL0     C73492   3.375   4.047  10.246 -0.9728 -0.1505  0.7178
  545MOL0     C73493   3.243   4.056  10.273 -0.6212  0.2593  0.0708
  545MOL0     C73494   2.826   3.996  10.415 -0.0797 -0.3389  0.4659
  545MOL0     C73495   2.812   3.881  10.497 -0.5600 -0.4631  0.2466
  545MOL0     C73496   2.700   3.863  10.581  0.5013 -0.0017  0.7627
  545MOL0     C73497   2.595   3.952  10.579 -0.7059  0.2815  0.8243
  545MOL0     O73498   2.491   3.917  10.655 -0.0195  0.7726  0.0325
  545MOL0     C73499   2.375   4.007  10.640 -0.0118  0.4520 -0.6212
  545MOL0     C73500   2.238   3.951  10.699 -0.8871 -0.5246  0.8825
  545MOL0     C73501   2.261   3.890  10.836  0.2796  0.5175  0.5380
  545MOL0     C73502   2.147   3.911  10.930  0.8911  0.3186  0.5345
  545MOL0     C73503   2.160   3.820  11.043 -0.0107  0.3512  1.2383
  545MOL0     C73504   2.180   3.742  11.127  1.0541 -0.1106  0.7697
  545MOL0     C73505   2.611   4.068  10.506 -0.1433 -1.0403 -0.7347
  545MOL0     C73506   2.725   4.093  10.427  0.0203  0.3227 -0.3518
  545MOL0     C73507   2.727   4.224  10.358 -0.6436 -0.2618  0.5334
  545MOL0     H73508   3.200   3.745  10.404  1.1493  0.4326  1.8639
  545MOL0     H73509   3.451   3.722  10.314 -0.1292 -0.5763 -1.0609
  545MOL0     H73510   3.733   3.989  10.107 -0.2758  2.6715 -1.1667
  545MOL0     H73511   3.579   4.066  10.102 -1.6587 -1.0472  0.2310
  545MOL0     H73512   3.761   4.088  10.343 -1.1504  0.9919  1.5808
  545MOL0     H73513   3.610   4.171  10.334 -0.0546 -0.3116  0.9947
  545MOL0     H73514   3.820   4.193  10.123 -2.5904 -4.1143 -0.0489
  545MOL0     H73515   3.814   4.307  10.255 -1.3060  0.1828 -0.5405
  545MOL0     H73516   3.589   4.273  10.052 -0.8433  0.6550  0.9213
  545MOL0     H73517   3.581   4.373  10.196 -1.8737 -0.0714 -2.0918
  545MOL0     H73518   3.756   4.405   9.955  0.8345  0.1957  0.3433
  545MOL0     H73519   3.623   4.514   9.995 -0.6266  0.1242  2.1555
  545MOL0     H73520   3.742   4.611  10.187  1.2404 -0.0386 -0.0080
  545MOL0     H73521   3.870   4.498  10.172 -1.7968 -0.9175  0.3725
  545MOL0     H73522   3.807   4.697   9.957 -1.1566 -1.1847 -0.1216
  545MOL0     H73523   3.935   4.566   9.961  0.8108  0.7796 -1.2704
  545MOL0     H73524   4.027   4.662  10.170 -1.5375  2.9914  2.7127
  545MOL0     H73525   4.075   4.726  10.012 -0.5655  1.6975 -1.0155
  545MOL0     H73526   3.905   4.813  10.337  2.5443 -2.4088 -1.7200
  545MOL0     H73527   3.729   5.135  10.338  1.8297 -1.0222 -2.8763
  545MOL0     H73528   3.783   5.006  10.457 -0.9833 -2.3900 -1.4076
  545MOL0     H73529   3.994   5.142  10.469  0.9558 -1.0616 -4.9913
  545MOL0     H73530   3.925   5.259  10.363 -0.5698 -1.8938 -3.2034
  545MOL0     H73531   3.826   5.201  10.647 -2.5082 -0.1012 -0.3478
  545MOL0     H73532   3.746   5.287  10.538  0.7819  0.3816 -1.5415
  545MOL0     H73533   3.937   5.448  10.521 -0.3671 -1.6227 -2.9645
  545MOL0     H73534   4.042   5.345  10.617  0.4210 -1.1541 -0.5407
  545MOL0     H73535   4.042   5.266  10.813 -0.2650  0.8366 -0.3688
  545MOL0     H73536   4.012   5.154  11.025 -2.1646 -1.3091  1.4629
  545MOL0     H73537   3.466   5.166  11.376  0.9898  2.8551  0.9943
  545MOL0     H73538   3.383   5.031  11.541 -0.9602 -0.1394 -2.6627
  545MOL0     H73539   3.460   4.648  11.535  1.6876 -2.6704 -0.9043
  545MOL0     H73540   3.599   4.617  11.630  0.7278  0.7550 -1.8674
  545MOL0     H73541   3.439   4.508  11.757 -2.8587 -0.7769 -1.2387
  545MOL0     H73542   3.466   4.657  11.843  0.3544 -1.5722  0.7827
  545MOL0     H73543   3.257   4.739  11.752  3.1264  1.2679  0.5945
  545MOL0     H73544   3.228   4.601  11.655 -1.0440 -0.3882  0.6130
  545MOL0     H73545   3.094   4.594  11.881 -1.2959 -1.5497 -1.3847
  545MOL0     H73546   3.249   4.601  11.966 -2.2206 -0.5923  1.3807
  545MOL0     H73547   3.292   4.354  11.901 -0.2243  1.6349  0.4738
  545MOL0     H73548   3.135   4.369  11.807 -0.1034 -0.8136 -0.7217
  545MOL0     H73549   3.200   4.399  12.107  0.6629 -0.9763  0.1288
  545MOL0     H73550   3.045   4.430  12.052 -0.0422  0.3427  2.6230
  545MOL0     H73551   3.031   4.196  12.116 -1.1275  1.6220 -1.1456
  545MOL0     H73552   3.205   4.175  12.080 -0.3955  0.1431  0.2565
  545MOL0     H73553   3.157   4.123  11.847 -0.3970  1.8380 -1.7157
  545MOL0     H73554   3.035   4.034  11.945 -1.3311  1.0254  1.0933
  545MOL0     H73555   3.754   4.803  11.520 -0.0533  0.7811  0.9959
  545MOL0     H73556   3.827   4.935  11.349 -0.7120 -0.7400  1.0895
  545MOL0     H73557   3.649   5.380  11.083  0.4363  1.9237  0.2722
  545MOL0     H73558   3.683   5.475  10.889 -3.1885 -2.3610  2.5029
  545MOL0     H73559   3.411   4.137  10.197  1.6630 -1.9072 -0.8971
  545MOL0     H73560   3.180   4.144  10.275 -1.1684 -0.1157 -0.2139
  545MOL0     H73561   2.882   3.797  10.496 -1.5132 -1.2734 -0.4806
  545MOL0     H73562   2.688   3.766  10.630  1.3173 -1.8878 -2.4852
  545MOL0     H73563   2.355   4.040  10.538  1.0028  2.2051 -0.3099
  545MOL0     H73564   2.406   4.095  10.698  0.6513 -0.3989  0.3655
  545MOL0     H73565   2.215   3.873  10.626 -0.5454  0.2664 -0.0850
  545MOL0     H73566   2.160   4.027  10.705 -0.5105 -0.0574  0.0188
  545MOL0     H73567   2.347   3.940  10.883 -0.3982  1.4535  0.8167
  545MOL0     H73568   2.276   3.783  10.821 -0.7538  0.3577  0.5545
  545MOL0     H73569   2.136   4.017  10.954  1.8317  0.1000  2.0311
  545MOL0     H73570   2.062   3.869  10.875  3.2017 -0.6716 -2.5743
  545MOL0     H73571   2.208   3.661  11.192  0.7459 -1.2719 -0.5111
  545MOL0     H73572   2.547   4.151  10.534 -1.0601 -1.8209 -0.4832
  545MOL0     H73573   2.649   4.294  10.390  1.8071  2.7801  0.3237
  545MOL0     H73574   2.819   4.281  10.375  0.5755 -1.7093 -0.8855
  545MOL0     H73575   2.711   4.198  10.253 -0.9131 -1.3718  0.8324
  546MOL0     O73576   7.449   7.629   1.755 -0.6239  0.1926 -0.0941
  546MOL0     C73577   7.427   7.719   1.671  0.8418  0.4284 -0.1460
  546MOL0     O73578   7.528   7.781   1.595 -0.1596  0.4554 -0.4530
  546MOL0     C73579   7.654   7.730   1.618  0.1624 -0.1448  0.2177
  546MOL0     C73580   7.719   7.737   1.744 -0.1136  0.1206  1.0341
  546MOL0     C73581   7.857   7.715   1.758  0.2971 -0.1808  0.2842
  546MOL0     C73582   7.938   7.698   1.642  0.9641  0.6268 -0.1260
  546MOL0     O73583   8.069   7.688   1.665 -0.2302 -0.6806 -0.6586
  546MOL0     C73584   8.152   7.679   1.542 -0.9126  0.0183 -0.2558
  546MOL0     C73585   8.304   7.672   1.581 -0.7196  0.1429  0.6739
  546MOL0     C73586   8.368   7.812   1.625  0.9868  0.4958  0.1237
  546MOL0     C73587   8.503   7.791   1.683 -0.0239  0.0270 -0.6299
  546MOL0     C73588   8.586   7.919   1.663 -0.2282  0.0885  0.1045
  546MOL0     C73589   8.730   7.902   1.716  0.0307 -0.5386  0.4685
  546MOL0     C73590   8.794   8.035   1.726 -0.3187 -0.3072 -0.6862
  546MOL0     C73591   8.930   8.044   1.787  0.2565  0.6382 -0.1754
  546MOL0     N73592   9.044   7.986   1.708 -0.3382 -0.3400 -0.5236
  546MOL0     C73593   9.052   8.003   1.577  0.2061 -0.3098 -0.1060
  546MOL0     C73594   9.163   7.930   1.539  1.0164  0.3228  0.0481
  546MOL0     C73595   9.209   7.892   1.400  0.5121  0.1494 -0.1942
  546MOL0     C73596   9.258   8.023   1.328  0.0553 -0.6947  0.8485
  546MOL0     C73597   9.395   8.003   1.259  0.3402 -0.1261  0.2839
  546MOL0     C73598   9.417   8.116   1.163 -0.7809  0.5052  0.0355
  546MOL0     O73599   9.421   8.249   1.204  0.4809 -0.4103 -1.0697
  546MOL0     C73600   9.513   8.276   1.294  0.3527 -1.3225 -0.1404
  546MOL0     C73601   9.480   8.393   1.363  0.3679 -0.5217 -0.2676
  546MOL0     C73602   9.568   8.438   1.463  0.9316  1.1253 -1.0295
  546MOL0     C73603   9.686   8.363   1.501 -0.4943  0.3793  0.3151
  546MOL0     C73604   9.782   8.427   1.594  0.5294  0.4929  0.0216
  546MOL0     O73605   9.910   8.372   1.608  0.2920  0.2042  0.1030
  546MOL0     C73606  10.004   8.406   1.706  0.0106  0.5006 -0.4168
  546MOL0     C73607   9.972   8.460   1.828  0.0800  0.3333  0.3374
  546MOL0     C73608  10.078   8.503   1.913 -0.7539 -1.0238  0.9134
  546MOL0     C73609  10.213   8.502   1.864  0.9126  1.2174 -0.9132
  546MOL0     O73610  10.308   8.556   1.947  0.4888 -0.3781 -0.0644
  546MOL0     C73611  10.433   8.487   1.974  0.4599  1.0915  0.5027
  546MOL0     C73612  10.516   8.558   2.079  0.3045  0.0991  0.2469
  546MOL0     C73613  10.634   8.480   2.134 -0.1698  0.3768 -0.1577
  546MOL0     C73614  10.718   8.566   2.236 -1.0292  0.6064  0.6535
  546MOL0     C73615  10.834   8.489   2.279  0.4309 -0.5644 -1.5419
  546MOL0     C73616  10.930   8.566   2.371  0.5105 -0.1765  0.7105
  546MOL0     C73617  11.028   8.480   2.447 -0.3679  0.5067  0.1769
  546MOL0     C73618  11.176   8.524   2.440  0.2059 -0.0140 -0.5110
  546MOL0    Cl73619  11.268   8.458   2.304 -0.3215  0.4870  0.3098
  546MOL0     C73620  10.248   8.451   1.738 -0.0281 -0.0882 -0.6237
  546MOL0     C73621  10.139   8.397   1.668  0.0733 -0.3856 -0.0545
  546MOL0     O73622   9.733   8.518   1.665 -0.0270  0.7590 -0.0811
  546MOL0     C73623   9.708   8.237   1.437  0.8768  0.6339 -0.3380
  546MOL0     C73624   9.621   8.204   1.327  0.2190 -0.2264 -0.3547
  546MOL0     N73625   9.214   7.878   1.648 -0.4639 -0.0550  0.1001
  546MOL0     N73626   9.156   7.919   1.755  0.6769 -0.5779  0.0957
  546MOL0     C73627   7.870   7.686   1.521 -0.8524  0.0861  0.2020
  546MOL0     C73628   7.735   7.715   1.505  0.2622 -0.2483  0.2581
  546MOL0     C73629   7.289   7.765   1.634  0.2122  0.1360 -0.5886
  546MOL0     C73630   7.281   7.860   1.523 -0.7447  0.0176  0.4351
  546MOL0     C73631   7.158   7.892   1.466 -0.1563 -0.7061  0.7012
  546MOL0     C73632   7.035   7.838   1.519  0.0468 -0.5142 -0.9234
  546MOL0     O73633   6.918   7.874   1.462  0.0896 -0.2811 -0.4696
  546MOL0     C73634   6.844   7.987   1.519 -0.9732  0.1700  0.0735
  546MOL0     C73635   6.896   8.119   1.460 -0.3865  0.5505  0.3239
  546MOL0     C73636   6.826   8.135   1.317  0.1417 -0.0916 -0.0118
  546MOL0     C73637   6.922   8.097   1.197  0.1341  0.1946 -0.6099
  546MOL0     C73638   7.055   8.172   1.199 -0.1160  0.9238  0.5520
  546MOL0     C73639   7.167   8.214   1.199  0.4112  0.4020 -0.2012
  546MOL0     C73640   7.041   7.746   1.633 -0.3424 -0.1262  0.0857
  546MOL0     C73641   7.163   7.723   1.687 -0.7220  0.3461 -0.4411
  546MOL0     C73642   7.167   7.620   1.799 -0.1350  0.6602 -0.5292
  546MOL0     H73643   7.663   7.758   1.834 -2.2465  0.1979 -0.2217
  546MOL0     H73644   7.904   7.714   1.856 -1.4636  0.6948  1.1662
  546MOL0     H73645   8.134   7.582   1.493  1.8879 -1.1200  0.7367
  546MOL0     H73646   8.121   7.757   1.471 -1.7182  0.7286  0.8557
  546MOL0     H73647   8.363   7.647   1.492 -0.9733 -0.1723  0.5924
  546MOL0     H73648   8.322   7.593   1.654 -0.9944 -1.5382 -0.9938
  546MOL0     H73649   8.304   7.855   1.702  1.5166 -1.0137  1.4711
  546MOL0     H73650   8.369   7.882   1.541  1.4549 -1.4974 -1.6091
  546MOL0     H73651   8.498   7.759   1.787 -1.7685 -0.4787 -0.8372
  546MOL0     H73652   8.554   7.711   1.628 -1.5451 -1.3589 -0.0876
  546MOL0     H73653   8.585   7.950   1.559 -0.6335 -0.9776 -0.2267
  546MOL0     H73654   8.536   7.998   1.720 -0.3955  0.6214 -0.7747
  546MOL0     H73655   8.737   7.866   1.819 -0.3344  0.1697  0.7460
  546MOL0     H73656   8.788   7.837   1.649  0.9539  1.6892 -0.9877
  546MOL0     H73657   8.735   8.104   1.786  2.1888 -0.2297  1.8875
  546MOL0     H73658   8.794   8.087   1.629 -1.5658 -0.9783 -1.0682
  546MOL0     H73659   8.950   8.149   1.811  1.6415  0.3878 -0.1961
  546MOL0     H73660   8.928   7.984   1.879  0.4586 -2.7894 -2.2172
  546MOL0     H73661   8.974   8.049   1.518 -0.5402  2.1700  2.5916
  546MOL0     H73662   9.304   7.839   1.416  1.7179  1.7937 -1.4729
  546MOL0     H73663   9.128   7.853   1.338 -0.7899  2.0208  0.2505
  546MOL0     H73664   9.183   8.051   1.253 -0.0334  0.0283  1.2086
  546MOL0     H73665   9.270   8.101   1.403  0.6236 -0.3981  0.4547
  546MOL0     H73666   9.388   7.914   1.196 -0.7255  0.6966 -0.8071
  546MOL0     H73667   9.473   7.998   1.337  0.8051 -1.4120 -0.2418
  546MOL0     H73668   9.339   8.110   1.086  0.7465 -0.5057 -1.4834
  546MOL0     H73669   9.508   8.089   1.109 -0.6170 -0.5577  0.8117
  546MOL0     H73670   9.391   8.448   1.335  1.3883  1.4502  0.1396
  546MOL0     H73671   9.532   8.528   1.511 -0.3570  0.0482  0.1004
  546MOL0     H73672   9.875   8.456   1.877 -0.9773  1.5172 -1.5163
  546MOL0     H73673  10.063   8.534   2.016  2.0490 -0.6571  1.2805
  546MOL0     H73674  10.417   8.384   2.007 -2.1881  1.1751 -0.2976
  546MOL0     H73675  10.489   8.483   1.880 -1.7469  1.4760 -0.9012
  546MOL0     H73676  10.559   8.648   2.033 -2.0720  1.2319  0.0443
  546MOL0     H73677  10.448   8.592   2.158 -1.5896  2.0526 -2.0465
  546MOL0     H73678  10.613   8.382   2.177  1.1765  0.9214  1.8893
  546MOL0     H73679  10.699   8.462   2.048 -1.5983  1.3743 -1.4965
  546MOL0     H73680  10.652   8.592   2.320 -1.9874 -2.5971  1.0193
  546MOL0     H73681  10.754   8.654   2.183  0.4644 -0.9243 -1.0217
  546MOL0     H73682  10.882   8.437   2.195 -0.6656  0.5607 -2.9184
  546MOL0     H73683  10.797   8.415   2.351 -0.5365  1.7379  0.4602
  546MOL0     H73684  10.976   8.637   2.302 -0.8539 -0.1044 -0.1518
  546MOL0     H73685  10.885   8.627   2.450 -1.3317  2.6260 -2.2662
  546MOL0     H73686  11.019   8.375   2.419 -3.8259  0.6636  0.3165
  546MOL0     H73687  11.003   8.476   2.554  1.1260 -1.1999  0.5305
  546MOL0     H73688  11.192   8.632   2.447  0.9377 -0.0265 -1.6505
  546MOL0     H73689  11.220   8.480   2.529 -0.6911 -0.8342 -0.4614
  546MOL0     H73690  10.352   8.437   1.711 -0.3171 -1.5336 -1.0969
  546MOL0     H73691  10.157   8.334   1.581  0.2805  3.2347 -2.8437
  546MOL0     H73692   9.794   8.177   1.466  0.5544  0.6046  0.5554
  546MOL0     H73693   9.637   8.114   1.268  1.6841  0.2771 -0.7834
  546MOL0     H73694   7.924   7.679   1.428  1.1427  1.9963  1.1345
  546MOL0     H73695   7.694   7.712   1.405  1.4762 -1.2721 -0.2180
  546MOL0     H73696   7.375   7.888   1.476 -0.3926  0.4537  1.3624
  546MOL0     H73697   7.154   7.953   1.377 -1.5764  0.3611  1.4545
  546MOL0     H73698   6.841   7.988   1.628 -0.2932  1.8353  0.1019
  546MOL0     H73699   6.743   7.983   1.479 -0.0097  0.7765 -2.6778
  546MOL0     H73700   7.005   8.126   1.448 -0.4546  2.5927  0.5135
  546MOL0     H73701   6.869   8.202   1.526  0.0546  3.6161 -3.0392
  546MOL0     H73702   6.797   8.239   1.305  0.0699  0.0068  0.9366
  546MOL0     H73703   6.728   8.086   1.315  0.0893  0.0497 -0.8575
  546MOL0     H73704   6.952   7.992   1.197 -0.2874 -0.0156  2.3376
  546MOL0     H73705   6.869   8.125   1.106 -0.5875  1.7609  0.2544
  546MOL0     H73706   7.256   8.272   1.209 -0.9802  2.4404  1.3667
  546MOL0     H73707   6.946   7.702   1.661 -0.7537 -0.3944 -1.6092
  546MOL0     H73708   7.065   7.590   1.825 -0.4623  0.3084 -2.1059
  546MOL0     H73709   7.211   7.528   1.760 -1.0366 -0.2037  0.3967
  546MOL0     H73710   7.230   7.653   1.882  0.7740 -0.1723 -0.8823
  547MOL0     O73711   6.898   0.234   4.392  0.2010 -0.2004 -0.2254
  547MOL0     C73712   6.978   0.284   4.473  0.4675 -0.6091  0.2599
  547MOL0     O73713   7.103   0.323   4.435 -0.5087  0.1803  0.1617
  547MOL0     C73714   7.137   0.349   4.306  0.0566  0.2510  0.7675
  547MOL0     C73715   7.266   0.317   4.269 -0.3901 -0.3405 -0.8991
  547MOL0     C73716   7.306   0.344   4.143  0.2964  0.4401 -0.6056
  547MOL0     C73717   7.231   0.414   4.050  0.3286  0.3492 -0.9964
  547MOL0     O73718   7.293   0.448   3.930 -0.0703  0.2742 -0.7476
  547MOL0     C73719   7.276   0.575   3.872  0.3680 -0.3112  0.4523
  547MOL0     C73720   7.416   0.626   3.826  0.0046  0.7936  1.3808
  547MOL0     C73721   7.412   0.741   3.715  0.5756 -0.5025 -0.1181
  547MOL0     C73722   7.553   0.791   3.672  0.2135  0.5300  0.1240
  547MOL0     C73723   7.553   0.845   3.531  0.2327 -0.5055  1.3231
  547MOL0     C73724   7.686   0.841   3.454 -0.2014  0.6947  0.3263
  547MOL0     C73725   7.711   0.703   3.395  0.1461 -0.0195 -0.3095
  547MOL0     C73726   7.857   0.666   3.348  0.0054 -0.5482  0.0224
  547MOL0     N73727   7.895   0.758   3.239 -0.1882 -0.1433  1.3822
  547MOL0     C73728   7.926   0.892   3.252  0.6009  0.1808 -0.3279
  547MOL0     C73729   7.964   0.923   3.127 -0.1739  0.4487  1.2137
  547MOL0     C73730   8.002   1.063   3.081  0.4981 -0.0012 -0.8985
  547MOL0     C73731   8.150   1.068   3.046 -0.2558  0.0608  1.0457
  547MOL0     C73732   8.191   1.203   2.988  0.7199 -0.0822  0.2144
  547MOL0     C73733   8.342   1.227   2.994 -0.5163  0.0852 -0.7989
  547MOL0     O73734   8.415   1.124   2.927  0.5649  0.2337 -0.0625
  547MOL0     C73735   8.549   1.113   2.953 -0.4215 -0.7165  0.4650
  547MOL0     C73736   8.619   1.178   3.054 -0.5902 -0.7252 -0.2336
  547MOL0     C73737   8.760   1.147   3.065 -0.4610 -0.3193  0.4991
  547MOL0     C73738   8.830   1.058   2.980  0.7380  0.3056  0.0948
  547MOL0     C73739   8.971   1.026   2.996 -0.0892 -0.0681 -0.0354
  547MOL0     O73740   9.029   1.094   3.097 -0.3641  0.1897 -0.8260
  547MOL0     C73741   9.154   1.047   3.144 -0.7928 -0.2701 -1.2051
  547MOL0     C73742   9.193   0.908   3.151 -0.5812 -0.4642  0.7709
  547MOL0     C73743   9.319   0.876   3.206  0.2474 -0.3266  0.7227
  547MOL0     C73744   9.403   0.975   3.255 -1.2941 -0.2396  0.8112
  547MOL0     O73745   9.526   0.928   3.307  0.2620 -0.0049 -0.0100
  547MOL0     C73746   9.642   1.010   3.298  0.3376 -0.7467 -0.9439
  547MOL0     C73747   9.667   1.049   3.145 -0.2549  0.0165  0.4643
  547MOL0     C73748   9.679   0.936   3.039  0.0429 -0.1162  0.4629
  547MOL0     C73749   9.801   0.845   3.083 -1.1629  0.3303 -0.3591
  547MOL0     C73750   9.799   0.726   2.994 -0.5504  1.2176  0.1681
  547MOL0     C73751   9.714   0.610   3.035  0.3231 -0.5566  0.9568
  547MOL0     C73752   9.715   0.482   2.950  0.0846  0.3393 -0.7713
  547MOL0     C73753   9.577   0.431   2.907 -0.6969  0.2164 -0.2739
  547MOL0    Cl73754   9.580   0.301   2.781 -0.9792 -0.0199 -0.1798
  547MOL0     C73755   9.362   1.109   3.248 -0.6294 -0.2923 -0.2281
  547MOL0     C73756   9.241   1.149   3.192  0.2889  0.2099 -0.3040
  547MOL0     O73757   9.033   0.946   2.922  0.5856  0.4865  0.2657
  547MOL0     C73758   8.751   0.987   2.886 -0.4074  0.3328  0.1767
  547MOL0     C73759   8.615   1.013   2.882  0.8477  0.0108 -0.2107
  547MOL0     N73760   7.953   0.813   3.040 -0.1138 -0.3098 -0.6417
  547MOL0     N73761   7.914   0.715   3.113 -0.2987 -0.5466 -0.2833
  547MOL0     C73762   7.091   0.443   4.076 -0.8213  1.0434 -0.1215
  547MOL0     C73763   7.048   0.410   4.205  0.1567  0.9993 -0.2876
  547MOL0     C73764   6.943   0.295   4.620 -0.4491 -0.5213 -0.8496
  547MOL0     C73765   7.037   0.271   4.715 -0.0179 -0.0092 -0.1714
  547MOL0     C73766   7.016   0.279   4.855  0.3494 -1.0375  0.0371
  547MOL0     C73767   6.888   0.309   4.902 -0.8505 -0.2148  0.2239
  547MOL0     O73768   6.861   0.308   5.039 -0.6891  0.5224  0.4632
  547MOL0     C73769   6.750   0.372   5.095  0.8431 -0.6821 -0.4239
  547MOL0     C73770   6.788   0.435   5.227  0.2193 -0.1400  0.4137
  547MOL0     C73771   6.846   0.341   5.332 -0.8168  0.6286 -0.0091
  547MOL0     C73772   6.860   0.410   5.464 -0.5836  0.0724  0.0212
  547MOL0     C73773   6.955   0.522   5.451  0.0873 -0.2673 -0.2628
  547MOL0     C73774   7.025   0.622   5.452  0.2790  0.1836  0.5434
  547MOL0     C73775   6.788   0.325   4.805  0.0325 -0.5319  0.4955
  547MOL0     C73776   6.807   0.321   4.661 -0.5379  0.7323 -0.1858
  547MOL0     C73777   6.691   0.354   4.563 -0.1591 -0.1035  0.8886
  547MOL0     H73778   7.334   0.268   4.338 -1.6829 -1.1973 -0.1865
  547MOL0     H73779   7.406   0.318   4.111  0.2680  1.6402 -1.7587
  547MOL0     H73780   7.212   0.566   3.784  1.0838  1.2717 -0.2785
  547MOL0     H73781   7.233   0.657   3.930  0.8067 -0.2685  0.7158
  547MOL0     H73782   7.469   0.535   3.794 -3.2406 -0.9943  0.6402
  547MOL0     H73783   7.471   0.664   3.913  3.3653  1.1656 -0.7270
  547MOL0     H73784   7.346   0.824   3.742 -2.2806 -3.1805  1.7929
  547MOL0     H73785   7.365   0.692   3.630 -0.1234  1.3185 -0.8237
  547MOL0     H73786   7.583   0.862   3.750 -1.1151 -1.4615  2.5927
  547MOL0     H73787   7.614   0.700   3.681  0.2188  0.7094  2.8524
  547MOL0     H73788   7.479   0.791   3.471  1.0318  0.7544 -0.9239
  547MOL0     H73789   7.523   0.950   3.525  0.3341 -0.5417 -1.5367
  547MOL0     H73790   7.690   0.904   3.365  0.2671 -0.4734 -0.5093
  547MOL0     H73791   7.766   0.870   3.522 -0.9144 -1.1850  2.0490
  547MOL0     H73792   7.645   0.698   3.308 -0.1053  1.4237 -0.2337
  547MOL0     H73793   7.678   0.623   3.462 -1.1540 -0.3277 -1.2812
  547MOL0     H73794   7.920   0.677   3.436 -1.8426  1.5818  1.1723
  547MOL0     H73795   7.847   0.561   3.318 -2.5548 -0.5809  0.7500
  547MOL0     H73796   7.919   0.959   3.337  1.6454 -0.3360  0.1813
  547MOL0     H73797   7.944   1.087   2.992  1.1434  0.0384 -1.3135
  547MOL0     H73798   7.992   1.140   3.158  0.7861 -0.4505 -0.4011
  547MOL0     H73799   8.214   1.028   3.126  0.1088  1.5635  1.5299
  547MOL0     H73800   8.177   0.994   2.970 -0.6880  1.0733 -0.1272
  547MOL0     H73801   8.139   1.284   3.041  1.2966 -1.4316  3.0673
  547MOL0     H73802   8.162   1.209   2.883 -0.7551  0.1236  0.6029
  547MOL0     H73803   8.378   1.235   3.097  2.7962 -1.4980 -1.7057
  547MOL0     H73804   8.365   1.321   2.942  1.2295 -0.3004 -0.7955
  547MOL0     H73805   8.589   1.258   3.121 -0.9731 -2.0635  1.2896
  547MOL0     H73806   8.817   1.208   3.133  1.6562 -0.4907 -0.9961
  547MOL0     H73807   9.129   0.826   3.124 -3.9029  2.3509 -0.6006
  547MOL0     H73808   9.347   0.771   3.209 -2.2408 -1.0589  0.1128
  547MOL0     H73809   9.636   1.098   3.362 -1.7422  0.5480 -2.7536
  547MOL0     H73810   9.725   0.949   3.335 -1.1428 -2.8603 -0.9498
  547MOL0     H73811   9.595   1.125   3.115  1.4400  1.5371  0.1106
  547MOL0     H73812   9.764   1.097   3.131  0.2821 -1.3429 -0.8197
  547MOL0     H73813   9.586   0.879   3.052 -0.6177  0.8383  0.0772
  547MOL0     H73814   9.698   0.978   2.940  0.0273 -1.6818 -0.2149
  547MOL0     H73815   9.801   0.812   3.187 -0.0694  2.5053  0.3975
  547MOL0     H73816   9.894   0.900   3.071 -1.0757  0.2650  0.0172
  547MOL0     H73817   9.901   0.687   3.002 -0.9252  0.0177 -0.8591
  547MOL0     H73818   9.780   0.755   2.891  2.4700 -1.4116 -1.3041
  547MOL0     H73819   9.746   0.584   3.136  0.8839  0.9896  1.1989
  547MOL0     H73820   9.612   0.651   3.036  1.4879  2.7138 -0.1018
  547MOL0     H73821   9.764   0.398   3.000  0.2302 -0.7411 -2.6126
  547MOL0     H73822   9.790   0.484   2.870  1.4287 -2.6186  0.2722
  547MOL0     H73823   9.531   0.396   3.000  0.6562  1.1168  0.7760
  547MOL0     H73824   9.526   0.518   2.866  1.6598  2.7559  1.7351
  547MOL0     H73825   9.426   1.173   3.308  0.1246 -1.7619  0.5961
  547MOL0     H73826   9.201   1.249   3.186 -0.9333 -0.0621  2.2449
  547MOL0     H73827   8.797   0.914   2.821  0.0570  1.9614 -1.3766
  547MOL0     H73828   8.544   0.983   2.805 -0.6603  1.7572  0.4334
  547MOL0     H73829   7.031   0.488   3.998 -1.6103  0.0977 -0.0753
  547MOL0     H73830   6.951   0.435   4.248 -0.9024 -2.4360 -0.3591
  547MOL0     H73831   7.135   0.244   4.678 -0.1604 -3.6310  1.6681
  547MOL0     H73832   7.095   0.269   4.929 -1.5074  1.9372  2.6814
  547MOL0     H73833   6.674   0.293   5.090  1.1471 -1.1356  1.3569
  547MOL0     H73834   6.727   0.454   5.026 -0.5929 -0.2380  0.5531
  547MOL0     H73835   6.699   0.480   5.273 -0.4725 -1.1605  0.0955
  547MOL0     H73836   6.866   0.507   5.198 -1.7561  1.5578 -0.9863
  547MOL0     H73837   6.947   0.315   5.297 -1.3357 -1.7247  0.0814
  547MOL0     H73838   6.790   0.247   5.332 -1.2892  0.9088 -0.5509
  547MOL0     H73839   6.756   0.437   5.487  0.1298  2.6927  0.5727
  547MOL0     H73840   6.885   0.339   5.543 -2.9435 -0.7344  0.1093
  547MOL0     H73841   7.073   0.719   5.452 -0.7564  0.7102  0.0557
  547MOL0     H73842   6.689   0.343   4.844  0.0769  0.7462  0.0668
  547MOL0     H73843   6.669   0.256   4.519  3.0451 -0.5839  0.1540
  547MOL0     H73844   6.606   0.400   4.616  0.7843  2.4474  0.3354
  547MOL0     H73845   6.709   0.430   4.487  1.4454 -0.4169  0.9283
  548MOL0     O73846   0.985   0.437   2.685 -0.9119 -0.0872 -0.4718
  548MOL0     C73847   0.937   0.499   2.589  0.3810 -0.5074 -0.2087
  548MOL0     O73848   1.003   0.577   2.504 -0.6316 -0.0602  0.1035
  548MOL0     C73849   1.134   0.618   2.521 -0.3146 -0.3859  0.1796
  548MOL0     C73850   1.206   0.635   2.646  0.5493 -0.1490  0.3494
  548MOL0     C73851   1.326   0.709   2.645 -0.0425  0.3944 -0.4711
  548MOL0     C73852   1.389   0.757   2.523 -0.5970 -0.4108 -0.8274
  548MOL0     O73853   1.519   0.805   2.522 -1.4368  0.1505 -0.2137
  548MOL0     C73854   1.573   0.858   2.641  0.1703 -0.0737  0.0659
  548MOL0     C73855   1.696   0.941   2.617  0.1418  0.1566  0.5000
  548MOL0     C73856   1.742   1.036   2.731 -1.1554 -0.7494  0.4912
  548MOL0     C73857   1.893   1.087   2.707 -0.0644 -0.1373  0.5795
  548MOL0     C73858   1.968   1.125   2.836 -0.1860 -0.6667  0.2715
  548MOL0     C73859   2.117   1.141   2.817  0.4505  0.0445  0.0970
  548MOL0     C73860   2.182   1.186   2.947  0.7432 -0.6131 -1.2435
  548MOL0     C73861   2.325   1.208   2.921 -0.2668 -0.8649 -0.3848
  548MOL0     N73862   2.397   1.253   3.045  1.0009 -0.1877  0.4919
  548MOL0     C73863   2.370   1.368   3.126 -0.8306  0.2249  0.3886
  548MOL0     C73864   2.446   1.340   3.228 -1.2152 -0.1370 -2.0763
  548MOL0     C73865   2.480   1.426   3.338  0.3158 -0.3872  0.0682
  548MOL0     C73866   2.597   1.510   3.288  0.4367  0.7017 -0.0310
  548MOL0     C73867   2.545   1.638   3.229  0.7457  0.4379  0.3512
  548MOL0     C73868   2.652   1.730   3.165 -0.0062  1.1941  0.0997
  548MOL0     O73869   2.748   1.771   3.261  0.0734  0.3371  0.1075
  548MOL0     C73870   2.861   1.819   3.205 -0.2180  0.1792  0.3443
  548MOL0     C73871   2.861   1.908   3.096 -0.4786 -0.3432  0.8260
  548MOL0     C73872   2.984   1.951   3.030  0.8441  0.0010  0.6077
  548MOL0     C73873   3.102   1.896   3.077  0.8065  0.0142 -0.4732
  548MOL0     C73874   3.224   1.928   3.007 -0.3214  0.5740  1.0499
  548MOL0     O73875   3.343   1.872   3.053 -0.0664 -0.1267 -0.5489
  548MOL0     C73876   3.453   1.893   2.974 -0.3319 -0.6239 -0.8493
  548MOL0     C73877   3.494   1.805   2.874 -0.0027  0.4801  0.3902
  548MOL0     C73878   3.615   1.814   2.808  0.4980 -0.2514 -0.5148
  548MOL0     C73879   3.713   1.905   2.852 -0.1966  1.0228 -0.2133
  548MOL0     O73880   3.831   1.895   2.781  0.1997  0.1582 -0.3969
  548MOL0     C73881   3.893   2.019   2.756 -0.2939 -0.8138 -0.0005
  548MOL0     C73882   4.024   2.035   2.839 -0.9343 -0.3319 -0.1465
  548MOL0     C73883   4.152   1.967   2.771  0.3253  0.4135 -0.1238
  548MOL0     C73884   4.203   2.064   2.656 -0.4619 -0.3703 -0.4196
  548MOL0     C73885   4.305   1.995   2.565  0.2228 -0.0795 -0.5696
  548MOL0     C73886   4.441   1.998   2.630  0.0168 -0.0973  0.5383
  548MOL0     C73887   4.550   1.924   2.546 -0.1931 -0.1729  0.3283
  548MOL0     C73888   4.677   1.883   2.620 -0.7824 -0.8368  0.1116
  548MOL0    Cl73889   4.741   1.777   2.499  0.0255  0.0668  0.0161
  548MOL0     C73890   3.684   1.993   2.961 -0.6254 -0.3076  0.9660
  548MOL0     C73891   3.551   1.988   3.016  0.5310  0.6425  0.1463
  548MOL0     O73892   3.223   2.001   2.908 -0.4059  0.5471 -0.2197
  548MOL0     C73893   3.101   1.816   3.190 -0.6486 -0.1168 -0.2161
  548MOL0     C73894   2.983   1.773   3.252 -0.3033 -0.3497 -0.3572
  548MOL0     N73895   2.512   1.215   3.219 -0.1174 -0.4676  0.6575
  548MOL0     N73896   2.480   1.163   3.105  0.6338  0.0653  1.0056
  548MOL0     C73897   1.323   0.732   2.412 -0.3047  0.0617 -0.8793
  548MOL0     C73898   1.202   0.667   2.406  0.1607  0.2038 -0.1381
  548MOL0     C73899   0.783   0.505   2.577 -0.2523 -0.5530 -0.5786
  548MOL0     C73900   0.721   0.560   2.461 -0.8249  0.0769 -0.1120
  548MOL0     C73901   0.584   0.556   2.432 -0.6391  0.1283 -0.0712
  548MOL0     C73902   0.502   0.520   2.539  0.0642  0.6907  0.2312
  548MOL0     O73903   0.361   0.538   2.553  0.1473  0.0003  0.8933
  548MOL0     C73904   0.285   0.577   2.432  0.8604  1.1484 -0.0540
  548MOL0     C73905   0.144   0.534   2.449 -0.4037  0.4713  0.2142
  548MOL0     C73906   0.066   0.635   2.527 -0.0390 -0.0122 -0.3941
  548MOL0     C73907  -0.087   0.631   2.514  0.0019 -0.2759 -0.2484
  548MOL0     C73908  -0.137   0.763   2.567  0.4531  0.7081  1.0211
  548MOL0     C73909  -0.176   0.878   2.589 -0.7320  0.3144  0.7248
  548MOL0     C73910   0.560   0.472   2.654 -0.2583 -0.4219  0.2262
  548MOL0     C73911   0.696   0.473   2.679 -0.2194  0.4188 -0.6374
  548MOL0     C73912   0.741   0.434   2.814 -0.5740  0.8003 -0.0144
  548MOL0     H73913   1.176   0.607   2.746 -2.9712  0.3232 -0.4222
  548MOL0     H73914   1.376   0.710   2.741 -2.0814  2.1943  0.6667
  548MOL0     H73915   1.493   0.923   2.679  0.3725  1.1600 -1.4966
  548MOL0     H73916   1.598   0.775   2.708  1.6665  0.8262  0.6666
  548MOL0     H73917   1.672   1.006   2.532 -0.5513  2.9691  2.7248
  548MOL0     H73918   1.775   0.874   2.581 -1.3058 -0.6592 -1.3406
  548MOL0     H73919   1.742   0.985   2.828  1.0080  0.1732  1.0289
  548MOL0     H73920   1.688   1.131   2.735  1.1166  0.7830 -1.6508
  548MOL0     H73921   1.947   1.004   2.660 -0.5626  0.1637 -0.5817
  548MOL0     H73922   1.894   1.176   2.644  2.4801 -0.3220  0.2762
  548MOL0     H73923   1.928   1.221   2.869  1.6860  0.3130 -0.2167
  548MOL0     H73924   1.953   1.060   2.923  2.2129  0.9239  1.9939
  548MOL0     H73925   2.174   1.057   2.776  1.4605  1.2600 -1.0874
  548MOL0     H73926   2.112   1.213   2.734  3.8637  0.7364  0.3652
  548MOL0     H73927   2.167   1.121   3.034  2.0889 -0.3407 -0.7842
  548MOL0     H73928   2.136   1.279   2.982 -3.7769 -3.2952  0.9552
  548MOL0     H73929   2.368   1.116   2.881 -0.2571 -2.3067  2.6395
  548MOL0     H73930   2.333   1.287   2.846 -3.0160 -0.6428 -0.5336
  548MOL0     H73931   2.298   1.449   3.114 -1.1616 -0.0342  0.5985
  548MOL0     H73932   2.395   1.487   3.369  0.2142  0.2333 -1.3838
  548MOL0     H73933   2.503   1.361   3.423 -0.7786 -0.1077  0.5989
  548MOL0     H73934   2.670   1.538   3.365  0.0049  3.0796 -0.3962
  548MOL0     H73935   2.662   1.444   3.230  0.1218 -0.3062  0.7339
  548MOL0     H73936   2.495   1.698   3.306 -0.1476  1.9724 -1.3360
  548MOL0     H73937   2.466   1.609   3.158 -1.0052 -1.7189  2.9668
  548MOL0     H73938   2.608   1.811   3.105  0.7282  1.2363 -0.3952
  548MOL0     H73939   2.700   1.658   3.098 -3.0767 -1.7037  0.7372
  548MOL0     H73940   2.764   1.937   3.058 -1.4994 -3.1983  1.0264
  548MOL0     H73941   2.971   2.012   2.942 -1.1942  2.2451  2.3348
  548MOL0     H73942   3.426   1.721   2.861 -1.6063  1.8102 -0.2269
  548MOL0     H73943   3.635   1.740   2.731  4.8489  1.0458 -0.9258
  548MOL0     H73944   3.916   2.029   2.649  0.9640 -2.1826  0.1109
  548MOL0     H73945   3.820   2.098   2.777 -0.5377 -1.3096  1.0969
  548MOL0     H73946   4.045   2.141   2.854 -0.6639 -0.0489 -2.1899
  548MOL0     H73947   4.025   1.993   2.940 -0.2005 -1.4148 -0.5799
  548MOL0     H73948   4.231   1.953   2.845  1.4654 -1.0349 -1.5487
  548MOL0     H73949   4.118   1.877   2.718 -2.9640  3.5056 -3.9585
  548MOL0     H73950   4.243   2.154   2.704  0.9832  0.1835 -2.4681
  548MOL0     H73951   4.126   2.097   2.585  2.4814  1.4771 -3.0472
  548MOL0     H73952   4.304   2.034   2.462 -1.4364 -0.4745 -0.7416
  548MOL0     H73953   4.270   1.892   2.550  1.0572 -0.5938  0.9123
  548MOL0     H73954   4.481   2.099   2.642  3.1878 -0.8519 -2.0392
  548MOL0     H73955   4.426   1.949   2.727 -0.1895 -0.9981  0.0622
  548MOL0     H73956   4.582   2.001   2.476  0.6967  0.7109  1.6482
  548MOL0     H73957   4.499   1.842   2.496 -1.3974 -0.0150  1.2485
  548MOL0     H73958   4.744   1.969   2.615 -0.4686 -1.0703  0.2228
  548MOL0     H73959   4.675   1.827   2.714  0.8808 -2.5648 -0.7875
  548MOL0     H73960   3.754   2.060   3.009 -1.1364  0.0668  1.2019
  548MOL0     H73961   3.529   2.055   3.098  0.6821 -0.1945  0.8844
  548MOL0     H73962   3.188   1.763   3.228 -0.9877 -1.1350 -0.8177
  548MOL0     H73963   2.979   1.688   3.319 -2.2344 -1.2564 -1.5326
  548MOL0     H73964   1.363   0.771   2.319 -1.3567  1.9455 -0.6014
  548MOL0     H73965   1.152   0.659   2.309 -2.0039  2.2300  0.7014
  548MOL0     H73966   0.781   0.599   2.379  3.0793 -0.4474  2.2263
  548MOL0     H73967   0.555   0.603   2.339 -1.6229  1.2478  0.7740
  548MOL0     H73968   0.311   0.524   2.341 -2.5851 -0.8429 -0.0403
  548MOL0     H73969   0.287   0.687   2.428  1.5018  1.1350 -0.2254
  548MOL0     H73970   0.142   0.435   2.496 -3.6157 -0.4527 -1.5716
  548MOL0     H73971   0.108   0.516   2.348 -0.5210  0.6497  0.2224
  548MOL0     H73972   0.090   0.739   2.502 -1.3274  0.7686  1.4319
  548MOL0     H73973   0.093   0.631   2.633 -0.8129 -0.0702 -0.1920
  548MOL0     H73974  -0.121   0.628   2.410  0.6979 -3.0942 -0.4474
  548MOL0     H73975  -0.130   0.552   2.576 -1.7198 -0.2655 -1.3620
  548MOL0     H73976  -0.207   0.975   2.620 -0.7952  0.7535 -0.6602
  548MOL0     H73977   0.486   0.446   2.729  0.6334 -2.2953  0.4980
  548MOL0     H73978   0.658   0.434   2.886 -1.4715 -0.9921 -0.9728
  548MOL0     H73979   0.791   0.337   2.819 -0.0961  1.0425 -0.0566
  548MOL0     H73980   0.812   0.508   2.850 -0.9355  0.7662  0.7945
  549MOL0     O73981   7.995   3.542   9.057  0.1511  0.0179  0.0826
  549MOL0     C73982   8.050   3.463   9.137  0.0433  0.2149 -0.0586
  549MOL0     O73983   8.178   3.429   9.132 -0.5822  0.7613  0.8540
  549MOL0     C73984   8.279   3.471   9.051  0.0016 -0.4342 -0.3760
  549MOL0     C73985   8.403   3.421   9.085 -0.3710 -1.2893 -0.3205
  549MOL0     C73986   8.519   3.457   9.022  0.3935  0.2075 -0.0255
  549MOL0     C73987   8.514   3.560   8.925 -0.1742  0.1416 -0.4166
  549MOL0     O73988   8.621   3.594   8.849  0.0028 -0.3244 -1.0198
  549MOL0     C73989   8.753   3.581   8.899 -0.3097  0.1274  0.1753
  549MOL0     C73990   8.846   3.540   8.788  0.9001  0.1024  0.4111
  549MOL0     C73991   8.963   3.447   8.816  0.2441  0.5562 -0.0223
  549MOL0     C73992   9.037   3.404   8.694  0.2140  0.1398 -0.6124
  549MOL0     C73993   9.156   3.324   8.735 -0.7587  0.0898  0.2785
  549MOL0     C73994   9.271   3.314   8.634  0.2091 -0.3953  1.0590
  549MOL0     C73995   9.406   3.267   8.683 -0.6901  0.1918 -0.3287
  549MOL0     C73996   9.478   3.368   8.775  0.5774  0.6259 -0.1049
  549MOL0     N73997   9.608   3.314   8.813  0.7370  0.2270  0.7408
  549MOL0     C73998   9.722   3.397   8.799  0.3112 -0.4968  0.2198
  549MOL0     C73999   9.808   3.356   8.888 -0.4246  0.5514  0.6902
  549MOL0     C74000   9.954   3.406   8.901  0.0662 -0.5133  0.3635
  549MOL0     C74001   9.966   3.495   9.031 -0.0089 -0.4152 -0.4179
  549MOL0     C74002  10.111   3.543   9.041 -0.8413 -0.4294  0.2515
  549MOL0     C74003  10.122   3.649   9.146 -0.6778  0.0170 -0.6518
  549MOL0     O74004  10.220   3.736   9.099 -0.5585  0.2780 -0.3689
  549MOL0     C74005  10.247   3.843   9.179 -0.4214  0.8346 -0.7395
  549MOL0     C74006  10.346   3.927   9.124 -0.1229  0.4372  0.2247
  549MOL0     C74007  10.390   4.034   9.195  0.3907 -0.2991 -0.2475
  549MOL0     C74008  10.331   4.074   9.315  0.4413  0.3057 -0.6258
  549MOL0     C74009  10.381   4.196   9.373  0.1620 -0.1439 -0.2846
  549MOL0     O74010  10.331   4.230   9.492 -0.3164  0.0684 -0.5811
  549MOL0     C74011  10.403   4.315   9.571 -0.1149  0.1184 -0.8171
  549MOL0     C74012  10.531   4.280   9.612 -0.8251  0.5194 -0.3156
  549MOL0     C74013  10.609   4.368   9.701  0.0490  0.5538 -0.2478
  549MOL0     C74014  10.550   4.483   9.753 -1.0959  0.2350  0.3355
  549MOL0     O74015  10.628   4.560   9.838  0.0411  0.2691  0.4782
  549MOL0     C74016  10.570   4.664   9.926  0.1413  0.0697 -0.3937
  549MOL0     C74017  10.677   4.715  10.027  0.4101  0.4833  0.5102
  549MOL0     C74018  10.715   4.605  10.127 -0.5243 -0.2455  0.0844
  549MOL0     C74019  10.619   4.551  10.234 -0.1532 -1.6983 -0.4094
  549MOL0     C74020  10.573   4.660  10.336  1.3934  0.7888 -0.8516
  549MOL0     C74021  10.467   4.600  10.432  0.2565 -0.3362 -0.7360
  549MOL0     C74022  10.426   4.695  10.552  0.0310  0.3779 -0.0353
  549MOL0     C74023  10.308   4.632  10.637  0.0121  0.0763  0.4284
  549MOL0    Cl74024  10.376   4.492  10.725  0.0303 -0.1805 -0.0983
  549MOL0     C74025  10.420   4.515   9.714 -0.6810 -0.2585 -0.0353
  549MOL0     C74026  10.348   4.431   9.629 -0.1799  0.4618 -1.0897
  549MOL0     O74027  10.466   4.257   9.309  0.4098  0.7180  0.0154
  549MOL0     C74028  10.230   3.991   9.374  0.2402  0.1699  0.0492
  549MOL0     C74029  10.191   3.868   9.309 -0.9304 -0.6360  0.1889
  549MOL0     N74030   9.763   3.239   8.949 -0.7603 -0.3112 -0.2118
  549MOL0     N74031   9.636   3.217   8.905  0.5429  0.2413  0.1318
  549MOL0     C74032   8.392   3.618   8.890  0.5706  0.2519  0.3987
  549MOL0     C74033   8.274   3.576   8.954 -0.3929  0.0192 -0.9315
  549MOL0     C74034   7.970   3.419   9.251 -0.6726  0.4522  0.3443
  549MOL0     C74035   8.022   3.403   9.384 -0.0467  0.8486  0.3451
  549MOL0     C74036   7.942   3.341   9.490 -0.5546 -0.7571 -0.1935
  549MOL0     C74037   7.805   3.334   9.479  0.2008 -1.1193  0.4986
  549MOL0     O74038   7.726   3.300   9.580 -0.7893  0.1532  0.3499
  549MOL0     C74039   7.724   3.157   9.620  0.3301 -0.0576  0.6749
  549MOL0     C74040   7.829   3.138   9.724 -0.2058 -0.2921  0.7707
  549MOL0     C74041   7.839   2.999   9.787  0.5691 -0.4910  0.5352
  549MOL0     C74042   7.856   2.995   9.938 -0.1915  0.2464  0.2521
  549MOL0     C74043   7.939   2.892   9.989  0.1438  0.1483  0.7219
  549MOL0     C74044   7.978   2.787  10.037 -0.0235 -0.6780 -0.9286
  549MOL0     C74045   7.746   3.359   9.350 -1.2174 -0.5897 -0.9566
  549MOL0     C74046   7.825   3.395   9.241 -0.2885 -0.0190  0.0480
  549MOL0     C74047   7.756   3.400   9.109  0.0149 -0.2711 -0.1022
  549MOL0     H74048   8.399   3.340   9.157  0.2150  0.3400  1.6189
  549MOL0     H74049   8.604   3.394   9.047 -0.8335 -2.0176 -1.2046
  549MOL0     H74050   8.781   3.680   8.937 -0.6200  0.5796 -0.7293
  549MOL0     H74051   8.768   3.517   8.986 -1.3881 -0.0860  0.2151
  549MOL0     H74052   8.884   3.628   8.736 -0.2665  0.8796  0.8397
  549MOL0     H74053   8.785   3.475   8.724  2.1153  0.8257 -1.5586
  549MOL0     H74054   8.928   3.367   8.883 -2.2567  0.8851 -0.8047
  549MOL0     H74055   9.036   3.508   8.870  0.3506  0.4496 -0.0463
  549MOL0     H74056   8.973   3.330   8.645  0.4927 -1.9662  1.9269
  549MOL0     H74057   9.075   3.483   8.629  1.3435  0.8230  0.8251
  549MOL0     H74058   9.196   3.383   8.818 -1.3498  1.9614 -0.7138
  549MOL0     H74059   9.126   3.227   8.774  0.3376  0.4365  2.1018
  549MOL0     H74060   9.245   3.246   8.552 -0.6179  0.9927  0.1354
  549MOL0     H74061   9.273   3.411   8.584 -0.8886 -0.0080  1.7372
  549MOL0     H74062   9.463   3.244   8.593  0.3226  0.5240  0.2174
  549MOL0     H74063   9.398   3.165   8.722 -3.2105 -1.2717 -4.1085
  549MOL0     H74064   9.488   3.465   8.727  0.5655 -0.0071 -1.4314
  549MOL0     H74065   9.420   3.382   8.867  1.3669  1.7672  0.2438
  549MOL0     H74066   9.743   3.475   8.726  0.7951  0.7147  1.6154
  549MOL0     H74067  10.018   3.318   8.912 -0.7036 -1.1980 -0.4862
  549MOL0     H74068   9.981   3.474   8.819  3.3572  1.3727  2.7477
  549MOL0     H74069   9.895   3.578   9.032 -0.5857 -0.9059  0.2370
  549MOL0     H74070   9.948   3.438   9.122  1.2766  0.0928  0.1804
  549MOL0     H74071  10.154   3.583   8.949  0.8702 -0.1898  1.1138
  549MOL0     H74072  10.173   3.458   9.072 -0.1019 -0.1102 -0.3174
  549MOL0     H74073  10.139   3.610   9.247 -2.4256  0.2327 -0.2424
  549MOL0     H74074  10.033   3.712   9.152  0.9475  2.3094  1.6887
  549MOL0     H74075  10.390   3.910   9.027  0.3405  0.0293  0.5054
  549MOL0     H74076  10.458   4.081   9.125  0.3366 -1.2920 -0.9867
  549MOL0     H74077  10.580   4.194   9.568 -1.3068 -0.0645  0.2730
  549MOL0     H74078  10.710   4.343   9.732 -0.9330 -1.3867  1.7069
  549MOL0     H74079  10.530   4.730   9.849 -3.8436 -1.9044 -0.2907
  549MOL0     H74080  10.484   4.618   9.976  0.6489 -1.6226 -1.0139
  549MOL0     H74081  10.767   4.757   9.982  0.9768 -0.4880  0.6903
  549MOL0     H74082  10.621   4.791  10.082 -3.2788  1.1851 -3.6621
  549MOL0     H74083  10.755   4.525  10.064 -0.3053  1.0039 -1.4409
  549MOL0     H74084  10.808   4.637  10.174 -2.7346  1.3879  3.7354
  549MOL0     H74085  10.659   4.468  10.292  1.1684  0.8362  2.6474
  549MOL0     H74086  10.527   4.525  10.181  0.0099 -0.4464 -1.3616
  549MOL0     H74087  10.516   4.743  10.295 -4.0836 -1.7985  0.6355
  549MOL0     H74088  10.658   4.695  10.395  0.8990  1.3049 -0.4460
  549MOL0     H74089  10.383   4.570  10.368 -2.7124  0.0389  2.6285
  549MOL0     H74090  10.516   4.512  10.476 -0.2477 -0.7233 -0.9371
  549MOL0     H74091  10.385   4.784  10.503 -2.5357 -0.2816  0.7918
  549MOL0     H74092  10.509   4.713  10.622 -1.0786 -1.2257  1.7983
  549MOL0     H74093  10.269   4.702  10.713  1.7785  2.7238 -0.9384
  549MOL0     H74094  10.227   4.587  10.579 -0.1826 -1.1438  1.6075
  549MOL0     H74095  10.370   4.606   9.747 -2.4878 -1.8462  1.8815
  549MOL0     H74096  10.247   4.461   9.601 -0.6396 -0.2361 -0.2215
  549MOL0     H74097  10.186   4.029   9.465 -2.3479  0.9489 -1.4371
  549MOL0     H74098  10.112   3.808   9.354 -2.0181 -0.3060 -1.1889
  549MOL0     H74099   8.403   3.698   8.817 -0.2342 -0.3361 -0.3756
  549MOL0     H74100   8.186   3.635   8.932  0.1518  1.2449  0.0013
  549MOL0     H74101   8.124   3.437   9.400  0.9933 -1.9397  0.1482
  549MOL0     H74102   7.980   3.327   9.591 -3.0950 -1.9109  0.7091
  549MOL0     H74103   7.740   3.088   9.536  3.5584 -0.6388  1.6176
  549MOL0     H74104   7.632   3.125   9.669  1.0720 -1.3894  1.2619
  549MOL0     H74105   7.814   3.217   9.798  2.3739  1.9236 -0.9072
  549MOL0     H74106   7.930   3.147   9.683 -0.2609 -1.0490  0.4421
  549MOL0     H74107   7.918   2.941   9.739 -1.2295 -2.3755 -0.2944
  549MOL0     H74108   7.745   2.945   9.776 -1.9530  3.5659  0.0864
  549MOL0     H74109   7.901   3.084   9.983 -0.4280 -0.9350  3.0135
  549MOL0     H74110   7.751   2.990   9.969 -0.8717 -1.8897 -2.0376
  549MOL0     H74111   8.017   2.696  10.078  0.9080  0.2948  0.4276
  549MOL0     H74112   7.642   3.333   9.334 -1.9514  0.4173  1.7143
  549MOL0     H74113   7.745   3.509   9.104  1.5612 -0.1109 -0.3932
  549MOL0     H74114   7.816   3.360   9.027  0.8481  0.9668 -0.1259
  549MOL0     H74115   7.649   3.379   9.113 -0.6203  2.5500  0.0307
  550MOL0     O74116   4.347   4.563   3.221 -0.2613  0.5618 -0.6241
  550MOL0     C74117   4.375   4.676   3.249 -0.0377  0.5719  0.8155
  550MOL0     O74118   4.482   4.744   3.195  0.0077  0.2210 -0.5593
  550MOL0     C74119   4.543   4.706   3.087 -0.1419 -0.4126  0.1496
  550MOL0     C74120   4.678   4.701   3.087 -0.4822  0.6844  0.8227
  550MOL0     C74121   4.749   4.651   2.981 -0.2019 -0.4222 -0.4630
  550MOL0     C74122   4.685   4.630   2.852  0.2824  0.7286 -0.9459
  550MOL0     O74123   4.769   4.615   2.747  0.1115  0.2672  0.1521
  550MOL0     C74124   4.727   4.637   2.613  1.1303  0.8913 -0.0032
  550MOL0     C74125   4.682   4.517   2.540  0.8263  0.9334  0.0168
  550MOL0     C74126   4.639   4.553   2.405 -0.2715  0.0481  1.0291
  550MOL0     C74127   4.616   4.434   2.325 -0.0677 -0.3307  0.4070
  550MOL0     C74128   4.583   4.481   2.184 -0.0906 -0.5808  0.8814
  550MOL0     C74129   4.567   4.365   2.088 -0.2625  0.0781 -0.0362
  550MOL0     C74130   4.464   4.405   1.978 -0.3038  0.2784 -0.3491
  550MOL0     C74131   4.435   4.296   1.875  0.9691 -0.0971  0.8627
  550MOL0     N74132   4.375   4.175   1.929 -0.3097  0.7699  0.1736
  550MOL0     C74133   4.244   4.149   1.958 -1.1175  0.8681  0.4827
  550MOL0     C74134   4.248   4.036   2.027  0.5557 -0.6258 -0.3178
  550MOL0     C74135   4.139   3.981   2.120  0.0996  0.7563  0.7480
  550MOL0     C74136   3.993   4.007   2.070 -0.5775  0.0774 -0.8013
  550MOL0     C74137   3.889   3.970   2.186  1.1458 -0.1275  0.1381
  550MOL0     C74138   3.741   3.978   2.153 -0.0736 -0.4069  0.2614
  550MOL0     O74139   3.665   3.914   2.268  0.5667 -0.5887 -0.0727
  550MOL0     C74140   3.527   3.933   2.271 -0.5204 -0.1412  0.0297
  550MOL0     C74141   3.453   3.908   2.387 -0.5520  0.0993 -0.6644
  550MOL0     C74142   3.311   3.931   2.390  0.2600  0.1255  0.6622
  550MOL0     C74143   3.238   3.964   2.278 -0.8777 -0.1785  0.3781
  550MOL0     C74144   3.095   3.974   2.280 -0.2465 -0.2800  0.4836
  550MOL0     O74145   3.033   3.975   2.400  0.1929  0.2748  0.3456
  550MOL0     C74146   2.895   3.989   2.403  0.1035 -0.0757  0.7474
  550MOL0     C74147   2.839   4.101   2.455 -0.0734  0.4124 -0.7561
  550MOL0     C74148   2.704   4.126   2.442 -0.3205 -0.0996  0.8326
  550MOL0     C74149   2.617   4.032   2.381  0.7483 -0.3326  0.1869
  550MOL0     O74150   2.480   4.053   2.389  0.5940 -0.1877 -0.5406
  550MOL0     C74151   2.393   3.945   2.429  0.4952 -0.3427  0.5575
  550MOL0     C74152   2.292   3.941   2.317 -0.4281 -0.0010  0.3596
  550MOL0     C74153   2.171   3.851   2.350 -0.7523  0.3120  0.2289
  550MOL0     C74154   2.094   3.841   2.225  0.3126  0.5317  0.4008
  550MOL0     C74155   1.973   3.752   2.250  0.7108  0.4370  0.0043
  550MOL0     C74156   1.999   3.601   2.265 -0.1291 -0.2779 -0.8044
  550MOL0     C74157   1.872   3.518   2.275  0.7507 -0.4140  0.2251
  550MOL0     C74158   1.828   3.447   2.154 -0.2473  0.1403  0.7972
  550MOL0    Cl74159   1.959   3.348   2.101 -0.2895  0.1632 -0.5899
  550MOL0     C74160   2.677   3.918   2.325  0.8978  0.0144  0.0785
  550MOL0     C74161   2.809   3.897   2.341 -0.3586 -0.4718  0.0883
  550MOL0     O74162   3.038   4.012   2.177  0.0969 -0.3926  0.5177
  550MOL0     C74163   3.311   3.985   2.161 -0.5887  0.4718  0.3690
  550MOL0     C74164   3.450   3.973   2.155 -0.4796  0.0107  0.0824
  550MOL0     N74165   4.372   3.976   2.025  0.6621 -0.2217 -0.7418
  550MOL0     N74166   4.447   4.061   1.962  0.0615 -0.3543  0.9169
  550MOL0     C74167   4.543   4.640   2.847  0.2080  0.0189  0.3177
  550MOL0     C74168   4.475   4.670   2.968  0.5415 -0.7297 -0.2893
  550MOL0     C74169   4.288   4.743   3.354  0.2827 -0.9857  0.2774
  550MOL0     C74170   4.303   4.883   3.389  0.1558  0.5684  0.5204
  550MOL0     C74171   4.220   4.941   3.484 -0.6649 -1.0432 -0.1942
  550MOL0     C74172   4.127   4.870   3.548  1.1435  0.7730  0.1727
  550MOL0     O74173   4.041   4.942   3.631 -0.3025 -0.7505  0.0573
  550MOL0     C74174   4.007   4.896   3.764  0.0456 -0.8956  0.0908
  550MOL0     C74175   3.866   4.943   3.790 -0.1499 -0.7764  0.7221
  550MOL0     C74176   3.766   4.865   3.700 -0.1526  0.0578 -0.0098
  550MOL0     C74177   3.613   4.873   3.744 -0.0726  0.4668 -0.0877
  550MOL0     C74178   3.594   4.767   3.846  0.0531 -1.2178  0.4721
  550MOL0     C74179   3.568   4.674   3.918  0.3759  0.9129  0.3564
  550MOL0     C74180   4.120   4.733   3.532 -0.2500  0.1701  0.1862
  550MOL0     C74181   4.194   4.660   3.429  0.2267 -0.2856 -0.0368
  550MOL0     C74182   4.148   4.520   3.411 -1.5293 -0.0614 -0.0014
  550MOL0     H74183   4.725   4.724   3.181 -1.6919  0.2615  1.5554
  550MOL0     H74184   4.857   4.667   2.989 -0.3363  0.2075  0.1739
  550MOL0     H74185   4.639   4.702   2.614  1.6538  1.6223  0.6205
  550MOL0     H74186   4.808   4.690   2.562 -0.2380  1.5378 -1.5964
  550MOL0     H74187   4.592   4.481   2.592  0.9830  0.2765 -0.1679
  550MOL0     H74188   4.760   4.441   2.538 -2.3057 -2.6123 -2.8301
  550MOL0     H74189   4.725   4.601   2.358 -0.5139  0.2178  0.7528
  550MOL0     H74190   4.546   4.611   2.396 -0.5922 -0.7517 -1.8147
  550MOL0     H74191   4.701   4.365   2.326 -1.2601 -2.0534 -2.6849
  550MOL0     H74192   4.538   4.375   2.375 -0.6732  0.1640  0.0643
  550MOL0     H74193   4.502   4.556   2.183  0.6246  0.3233 -2.4314
  550MOL0     H74194   4.672   4.534   2.150 -0.1277  0.1112  1.8222
  550MOL0     H74195   4.668   4.344   2.050 -0.4082 -1.9275  0.6070
  550MOL0     H74196   4.534   4.272   2.133  0.2225 -0.5165 -0.8720
  550MOL0     H74197   4.502   4.499   1.936  1.8045  0.0516  0.9307
  550MOL0     H74198   4.373   4.439   2.027 -0.9938 -1.6825 -0.1733
  550MOL0     H74199   4.357   4.319   1.801  0.4977 -0.7569  1.1478
  550MOL0     H74200   4.530   4.285   1.822  0.9521  1.3522  0.5090
  550MOL0     H74201   4.164   4.222   1.960 -0.0154  2.1823  3.5561
  550MOL0     H74202   4.162   3.875   2.136 -0.2713  1.0711  4.0392
  550MOL0     H74203   4.157   4.020   2.220  1.4324 -0.1775  0.9014
  550MOL0     H74204   3.985   4.116   2.059 -0.5291  0.1369 -0.2723
  550MOL0     H74205   3.956   3.962   1.977  0.7988  0.0460 -1.3596
  550MOL0     H74206   3.903   4.038   2.271  2.2746  0.9233 -0.8588
  550MOL0     H74207   3.916   3.873   2.228  4.4271  1.2657  1.5503
  550MOL0     H74208   3.727   3.915   2.065  3.6689  0.3295 -1.0419
  550MOL0     H74209   3.716   4.082   2.130  2.8805  0.2755 -0.3063
  550MOL0     H74210   3.508   3.880   2.476 -0.9205  0.7104 -0.2258
  550MOL0     H74211   3.248   3.900   2.473 -3.7479 -2.3560 -2.8781
  550MOL0     H74212   2.883   4.178   2.518 -0.0762 -1.1844  1.3152
  550MOL0     H74213   2.675   4.215   2.498  0.6752 -0.5832  2.1640
  550MOL0     H74214   2.450   3.855   2.454 -0.6900 -0.8990  1.3186
  550MOL0     H74215   2.334   3.987   2.510 -1.8983 -0.9361 -0.7810
  550MOL0     H74216   2.261   4.045   2.306  0.7550  0.2646 -0.5989
  550MOL0     H74217   2.338   3.915   2.221 -1.3981 -0.0393 -0.1087
  550MOL0     H74218   2.200   3.747   2.368 -0.5456  0.2084 -0.6406
  550MOL0     H74219   2.113   3.890   2.434  0.6831  3.1814  0.0278
  550MOL0     H74220   2.145   3.799   2.138 -1.0415 -1.3268  0.4241
  550MOL0     H74221   2.059   3.944   2.218 -2.9110 -0.3544  1.4594
  550MOL0     H74222   1.906   3.761   2.163  2.1555  0.9917 -1.0986
  550MOL0     H74223   1.920   3.794   2.336  0.6623 -0.0166  0.1975
  550MOL0     H74224   2.057   3.571   2.178  0.5547 -0.8502 -0.1634
  550MOL0     H74225   2.054   3.603   2.360 -2.3249  3.3047  0.6321
  550MOL0     H74226   1.786   3.574   2.314 -0.6004 -0.2742 -2.6817
  550MOL0     H74227   1.884   3.446   2.357 -2.0402 -1.3503 -0.0652
  550MOL0     H74228   1.741   3.382   2.170 -0.9917  0.5421 -1.2728
  550MOL0     H74229   1.791   3.524   2.086 -0.8318  0.0050  0.9586
  550MOL0     H74230   2.611   3.836   2.299  2.2071 -1.9263  2.5036
  550MOL0     H74231   2.866   3.814   2.302  0.0923 -0.6065  1.0201
  550MOL0     H74232   3.255   4.005   2.070 -2.3329  2.0881  1.7182
  550MOL0     H74233   3.489   3.983   2.055 -1.6878  1.0761 -0.3122
  550MOL0     H74234   4.481   4.635   2.758 -0.2366  2.2299  0.4433
  550MOL0     H74235   4.367   4.680   2.970  0.3730 -1.7250 -2.1582
  550MOL0     H74236   4.375   4.931   3.323 -0.0913 -0.8909 -0.8663
  550MOL0     H74237   4.225   5.048   3.504 -2.3915 -0.8814 -0.4497
  550MOL0     H74238   4.078   4.937   3.837 -0.6637  2.3050 -0.8597
  550MOL0     H74239   4.006   4.787   3.761 -3.0469 -1.0109  1.1727
  550MOL0     H74240   3.846   5.050   3.780 -2.4065 -1.2517 -0.3972
  550MOL0     H74241   3.847   4.914   3.894  3.3554 -0.5880  1.5609
  550MOL0     H74242   3.799   4.761   3.695  1.7184  0.2981  3.6473
  550MOL0     H74243   3.769   4.919   3.605 -0.7101 -1.5504 -0.9871
  550MOL0     H74244   3.588   4.973   3.783  0.9403  0.4415  0.6665
  550MOL0     H74245   3.538   4.854   3.667 -3.2119 -0.2325  2.8788
  550MOL0     H74246   3.556   4.594   3.988  0.9391  0.1511 -0.4006
  550MOL0     H74247   4.036   4.687   3.583 -0.1907 -0.5259 -0.3308
  550MOL0     H74248   4.070   4.481   3.478  1.9036 -2.1233  3.2388
  550MOL0     H74249   4.120   4.498   3.308  2.6773 -3.3390 -0.7312
  550MOL0     H74250   4.236   4.457   3.429 -0.6738  1.2909  0.7428
  551MOL0     O74251  10.840   1.778   8.377 -0.3629  0.1442 -0.4959
  551MOL0     C74252  10.940   1.752   8.451 -0.2796 -0.1299  0.1128
  551MOL0     O74253  10.931   1.693   8.571 -0.4872 -0.4625  0.3273
  551MOL0     C74254  10.805   1.634   8.605 -0.0502 -0.5487 -0.0227
  551MOL0     C74255  10.736   1.681   8.720 -0.0067 -0.8645 -0.2105
  551MOL0     C74256  10.621   1.622   8.772  0.6927 -0.1130 -0.1148
  551MOL0     C74257  10.558   1.527   8.695 -0.0371  0.9402  0.3748
  551MOL0     O74258  10.447   1.455   8.746 -0.0470  0.1290 -0.0732
  551MOL0     C74259  10.438   1.425   8.890 -0.9692 -0.0296 -1.0574
  551MOL0     C74260  10.363   1.284   8.919 -0.1272 -0.2035  0.5969
  551MOL0     C74261  10.221   1.280   8.858 -0.1793 -0.1494  0.1511
  551MOL0     C74262  10.194   1.177   8.744  0.3846  1.0011  0.4542
  551MOL0     C74263  10.287   1.192   8.631 -0.5780  0.3961 -0.3221
  551MOL0     C74264  10.241   1.084   8.530  0.0090  0.9836 -0.1751
  551MOL0     C74265  10.292   1.094   8.385 -1.0761 -0.7806  0.4128
  551MOL0     C74266  10.442   1.091   8.361 -0.4843  1.2615 -0.0574
  551MOL0     N74267  10.465   1.127   8.216  0.7290 -0.5305  0.6032
  551MOL0     C74268  10.464   1.050   8.103  0.4851  0.7784 -1.0005
  551MOL0     C74269  10.489   1.132   7.996 -0.4847 -0.8172  0.3150
  551MOL0     C74270  10.494   1.083   7.847 -0.2061 -0.6226 -0.0979
  551MOL0     C74271  10.644   1.089   7.804 -0.6407 -0.3761  0.4867
  551MOL0     C74272  10.648   1.066   7.647  0.4838 -0.8429 -0.9698
  551MOL0     C74273  10.790   1.071   7.578  0.5036 -0.4994 -0.2482
  551MOL0     O74274  10.839   1.207   7.580 -0.4285  0.5037 -0.1391
  551MOL0     C74275  10.974   1.225   7.601 -0.7189  0.9562  1.0394
  551MOL0     C74276  11.012   1.352   7.646 -1.2276  0.1079  0.5049
  551MOL0     C74277  11.150   1.392   7.655 -0.4418 -0.5270 -0.3262
  551MOL0     C74278  11.257   1.306   7.626 -0.3636  0.1726 -0.4340
  551MOL0     C74279  11.402   1.341   7.653  0.0300  0.8636 -0.6173
  551MOL0     O74280  11.429   1.468   7.711  0.3258  0.2981  0.1076
  551MOL0     C74281  11.557   1.496   7.770  0.1968 -0.5301  0.1887
  551MOL0     C74282  11.655   1.391   7.790  0.6653  0.0544  0.0773
  551MOL0     C74283  11.779   1.422   7.840 -0.2602 -0.3723 -0.2568
  551MOL0     C74284  11.818   1.559   7.869  0.2458 -0.0716 -0.5377
  551MOL0     O74285  11.930   1.603   7.927  0.3637 -0.3677 -0.0988
  551MOL0     C74286  12.030   1.502   7.959 -0.3373  1.0208 -0.2554
  551MOL0     C74287  12.141   1.580   8.019 -0.3445 -0.5166 -0.3705
  551MOL0     C74288  12.261   1.496   8.070  0.4711  0.2634  0.0224
  551MOL0     C74289  12.364   1.594   8.127 -0.2336  0.0351  0.2820
  551MOL0     C74290  12.496   1.525   8.156 -0.3100  0.0338 -0.0374
  551MOL0     C74291  12.588   1.623   8.225 -0.1181  0.0427  0.1489
  551MOL0     C74292  12.687   1.570   8.328 -0.0816  0.7862  0.2296
  551MOL0     C74293  12.812   1.522   8.249 -0.1969 -1.2872 -0.4388
  551MOL0    Cl74294  12.957   1.508   8.360  0.3709 -0.1145 -0.0594
  551MOL0     C74295  11.724   1.659   7.840 -0.4871 -0.9596 -0.4499
  551MOL0     C74296  11.599   1.634   7.785  0.2435  0.2137 -1.1577
  551MOL0     O74297  11.484   1.260   7.612 -0.2748 -0.3166 -0.3743
  551MOL0     C74298  11.215   1.171   7.595  0.1329  0.6970 -0.4430
  551MOL0     C74299  11.081   1.137   7.578 -1.0219  0.0017  0.2981
  551MOL0     N74300  10.502   1.259   8.042 -0.3525  0.1407 -0.1326
  551MOL0     N74301  10.479   1.261   8.171 -0.3638 -0.1922  0.1380
  551MOL0     C74302  10.607   1.490   8.573 -0.2074  0.2043 -0.1119
  551MOL0     C74303  10.734   1.544   8.524  0.1033 -0.5430  0.1914
  551MOL0     C74304  11.075   1.799   8.410 -0.0282 -0.0249 -0.0808
  551MOL0     C74305  11.096   1.860   8.286 -0.2223 -0.3268 -0.3797
  551MOL0     C74306  11.221   1.893   8.230 -0.4177 -0.2090  0.3323
  551MOL0     C74307  11.337   1.871   8.302  0.2915 -0.5560 -1.0132
  551MOL0     O74308  11.453   1.902   8.242  0.0750 -1.4916 -0.0361
  551MOL0     C74309  11.572   1.895   8.329 -0.2631  0.2926 -0.1317
  551MOL0     C74310  11.700   1.910   8.245  1.1138 -0.0621 -0.0672
  551MOL0     C74311  11.831   1.870   8.320 -0.5943 -0.2630 -0.3956
  551MOL0     C74312  11.935   1.842   8.218 -0.4653  0.7170  0.4264
  551MOL0     C74313  12.066   1.835   8.282 -0.3199 -0.2067  0.0932
  551MOL0     C74314  12.174   1.824   8.346  0.4766  0.0354  0.4420
  551MOL0     C74315  11.322   1.813   8.434 -0.0787 -0.4942  0.3132
  551MOL0     C74316  11.199   1.773   8.486 -0.5633 -0.0414  0.3467
  551MOL0     C74317  11.217   1.688   8.614  0.9075  0.1831 -0.1904
  551MOL0     H74318  10.789   1.756   8.779  0.0277 -0.9487 -0.1340
  551MOL0     H74319  10.579   1.661   8.864  1.3087  3.5890 -1.2180
  551MOL0     H74320  10.542   1.415   8.923 -1.8288 -1.0727  1.6652
  551MOL0     H74321  10.387   1.500   8.951 -0.8451 -0.4469 -0.4293
  551MOL0     H74322  10.343   1.272   9.026 -1.4051 -2.4724  0.1687
  551MOL0     H74323  10.424   1.196   8.898  0.7950  0.1316  1.7142
  551MOL0     H74324  10.193   1.378   8.818  0.5506 -0.4359 -1.1113
  551MOL0     H74325  10.146   1.259   8.935 -2.4883 -2.6568 -2.5107
  551MOL0     H74326  10.187   1.076   8.786 -1.8140  0.5445 -0.8574
  551MOL0     H74327  10.091   1.199   8.715  0.0279 -1.6287 -0.5953
  551MOL0     H74328  10.264   1.288   8.584 -0.1231  1.1586  0.9620
  551MOL0     H74329  10.392   1.193   8.661 -0.5923  1.9117 -0.2637
  551MOL0     H74330  10.266   0.987   8.573 -0.5060  1.4993  1.3411
  551MOL0     H74331  10.132   1.088   8.520 -0.0702 -0.5230 -0.1323
  551MOL0     H74332  10.259   1.191   8.347 -0.4101 -1.0437 -0.9293
  551MOL0     H74333  10.250   1.023   8.313 -2.0181 -1.7588  1.8857
  551MOL0     H74334  10.492   1.164   8.426  0.5203  0.9994 -0.5046
  551MOL0     H74335  10.475   0.988   8.378 -1.5094  1.1889  1.6259
  551MOL0     H74336  10.431   0.947   8.096 -4.1487  1.9601  0.2318
  551MOL0     H74337  10.449   0.984   7.854 -1.0134 -0.2914 -0.5373
  551MOL0     H74338  10.431   1.148   7.786 -1.3126 -0.9846  0.6231
  551MOL0     H74339  10.690   1.184   7.832 -1.6195  0.6019 -1.0511
  551MOL0     H74340  10.711   1.015   7.849  1.0623  0.2868 -0.8741
  551MOL0     H74341  10.585   1.138   7.593  0.2119 -0.2086  0.1585
  551MOL0     H74342  10.621   0.963   7.621  3.4568 -1.7096 -0.9786
  551MOL0     H74343  10.798   1.030   7.477  1.4928 -0.6856 -0.1033
  551MOL0     H74344  10.851   1.010   7.645 -0.1525 -1.6449 -0.6641
  551MOL0     H74345  10.940   1.429   7.671  0.2067  1.6653  0.0196
  551MOL0     H74346  11.176   1.495   7.678 -0.1020 -0.5686 -0.5212
  551MOL0     H74347  11.638   1.286   7.773  1.7586 -0.1588  0.2557
  551MOL0     H74348  11.845   1.336   7.848  0.0054 -0.0624  1.1122
  551MOL0     H74349  11.991   1.432   8.034  2.1836  2.6687  2.8612
  551MOL0     H74350  12.064   1.452   7.868 -1.0092 -2.0743  1.0867
  551MOL0     H74351  12.174   1.647   7.940 -3.4932  2.0606  0.3179
  551MOL0     H74352  12.105   1.635   8.106  1.6830  2.1618 -1.0956
  551MOL0     H74353  12.220   1.414   8.129 -1.2891  0.9102 -0.2492
  551MOL0     H74354  12.307   1.450   7.982  1.4405  0.3623  0.4584
  551MOL0     H74355  12.315   1.617   8.222  1.2013  2.8492  0.4408
  551MOL0     H74356  12.370   1.694   8.082 -0.5495  1.6902  3.6295
  551MOL0     H74357  12.538   1.489   8.061  1.4089 -0.0026  0.6934
  551MOL0     H74358  12.477   1.434   8.214 -0.8297  1.4271  2.0951
  551MOL0     H74359  12.629   1.685   8.144 -1.9479  2.2138  0.7559
  551MOL0     H74360  12.522   1.687   8.285  0.1899 -0.7438  1.3597
  551MOL0     H74361  12.658   1.482   8.387 -1.9098  1.8460  1.0109
  551MOL0     H74362  12.713   1.654   8.393 -0.9401  0.9424  0.3925
  551MOL0     H74363  12.797   1.424   8.203 -0.2227 -0.7650 -1.5878
  551MOL0     H74364  12.843   1.601   8.179 -0.2541 -0.2528  0.6704
  551MOL0     H74365  11.730   1.766   7.860 -0.6423 -0.8423 -1.0255
  551MOL0     H74366  11.540   1.719   7.754 -2.5117 -0.3059  2.1273
  551MOL0     H74367  11.290   1.101   7.560  0.5262  1.1035 -0.4340
  551MOL0     H74368  11.054   1.037   7.545 -3.0093  0.8300 -0.8353
  551MOL0     H74369  10.564   1.402   8.527 -0.6036 -0.7077  1.9347
  551MOL0     H74370  10.781   1.502   8.436  1.0785 -0.7233  0.7852
  551MOL0     H74371  11.011   1.892   8.227  0.3949 -1.2302 -1.7888
  551MOL0     H74372  11.221   1.911   8.123 -0.2023 -2.3819 -0.0812
  551MOL0     H74373  11.579   1.800   8.383  1.7355  1.4244  1.7268
  551MOL0     H74374  11.556   1.974   8.402 -2.0763  0.8523 -1.0708
  551MOL0     H74375  11.704   2.015   8.216 -1.8911 -0.3362 -1.8508
  551MOL0     H74376  11.692   1.841   8.160 -0.5054 -2.5743  1.9676
  551MOL0     H74377  11.811   1.781   8.381  1.5327 -1.3120 -1.1299
  551MOL0     H74378  11.856   1.956   8.384  1.0742  0.6495 -2.1728
  551MOL0     H74379  11.910   1.759   8.152 -0.1054  1.2260 -0.3660
  551MOL0     H74380  11.954   1.922   8.146  3.1238 -2.1871 -2.1956
  551MOL0     H74381  12.262   1.820   8.406  0.1577 -2.1760  0.8399
  551MOL0     H74382  11.416   1.789   8.483  1.0185 -0.2628 -1.6061
  551MOL0     H74383  11.158   1.744   8.688  1.3803  1.8090 -0.9776
  551MOL0     H74384  11.176   1.587   8.609 -1.1411  0.8525  1.5713
  551MOL0     H74385  11.318   1.674   8.654  0.9162  0.4918 -0.1036
  552MOL0     O74386   9.500   4.879   4.052 -0.5070  0.4957  0.6507
  552MOL0     C74387   9.489   5.002   4.043  0.2266  0.3888  0.0299
  552MOL0     O74388   9.589   5.094   4.069 -0.1328  0.9122 -0.1054
  552MOL0     C74389   9.722   5.063   4.040  0.0248 -0.3797  0.4255
  552MOL0     C74390   9.786   4.939   4.000 -0.2021 -0.5781  0.7697
  552MOL0     C74391   9.925   4.926   3.980  0.3551  1.1952 -0.3548
  552MOL0     C74392  10.006   5.034   3.997 -0.2328 -0.2203 -0.3110
  552MOL0     O74393  10.134   4.997   3.986  0.2826  0.0540 -0.2552
  552MOL0     C74394  10.232   5.098   3.985  0.5844 -0.3281 -0.8939
  552MOL0     C74395  10.365   5.039   3.946 -0.3672  0.3730 -0.0145
  552MOL0     C74396  10.436   4.947   4.054  0.9581  0.6713  1.0462
  552MOL0     C74397  10.397   4.986   4.195  0.4555 -0.5043  0.6017
  552MOL0     C74398  10.475   4.914   4.293 -0.4448  0.4431 -0.7127
  552MOL0     C74399  10.443   4.942   4.439 -0.2009 -0.8199 -0.6541
  552MOL0     C74400  10.453   5.081   4.508  0.0180  0.6414  0.2046
  552MOL0     C74401  10.584   5.162   4.503  0.4627 -0.3395 -0.1236
  552MOL0     N74402  10.685   5.117   4.599 -0.0475  0.0597  0.2337
  552MOL0     C74403  10.735   4.993   4.603 -1.0429  0.2976 -0.5416
  552MOL0     C74404  10.849   5.004   4.672 -0.3667 -0.2302  0.2505
  552MOL0     C74405  10.950   4.895   4.691 -0.1228  0.2096  0.2490
  552MOL0     C74406  10.906   4.785   4.788  0.3930  0.2492  0.3132
  552MOL0     C74407  10.978   4.655   4.757  0.5706  0.1748 -0.3976
  552MOL0     C74408  11.126   4.664   4.797  0.0171 -0.9713  0.1905
  552MOL0     O74409  11.143   4.702   4.935 -0.0238 -0.1121 -0.0226
  552MOL0     C74410  11.258   4.672   5.008 -0.2651  0.7224 -0.2641
  552MOL0     C74411  11.265   4.690   5.151  0.1623  0.1786 -0.0375
  552MOL0     C74412  11.384   4.663   5.219 -0.2322 -1.1171 -0.0994
  552MOL0     C74413  11.500   4.621   5.161 -0.5363 -0.6499  0.0815
  552MOL0     C74414  11.626   4.605   5.241 -0.7325 -0.2884 -0.8039
  552MOL0     O74415  11.738   4.568   5.169 -0.0717  0.0942 -0.7029
  552MOL0     C74416  11.847   4.520   5.229  0.1155  0.5372 -0.3186
  552MOL0     C74417  11.848   4.402   5.296 -0.5061  0.4241 -0.8044
  552MOL0     C74418  11.965   4.363   5.370  0.1656 -0.1653  0.1642
  552MOL0     C74419  12.078   4.446   5.383 -0.0746 -0.1811 -0.2689
  552MOL0     O74420  12.193   4.419   5.438 -0.2010  0.3417 -0.2083
  552MOL0     C74421  12.217   4.284   5.497  0.2068 -1.3163  0.2636
  552MOL0     C74422  12.325   4.303   5.607  0.1753 -0.0951  0.6873
  552MOL0     C74423  12.347   4.171   5.689  0.2574  0.7358 -0.3808
  552MOL0     C74424  12.373   4.037   5.617  0.2208 -0.4702  0.1790
  552MOL0     C74425  12.494   4.045   5.517  0.0038  0.1307  0.0581
  552MOL0     C74426  12.634   4.036   5.588  0.7659 -0.5541 -0.0471
  552MOL0     C74427  12.750   4.050   5.479  0.0141  0.5785 -0.6831
  552MOL0     C74428  12.893   4.049   5.540  1.3432 -0.5140 -0.5446
  552MOL0    Cl74429  12.956   3.885   5.576  0.2252 -0.0938  0.6908
  552MOL0     C74430  12.069   4.577   5.321  0.5472  0.7258  0.2042
  552MOL0     C74431  11.953   4.604   5.244  0.1173  0.5282 -0.2669
  552MOL0     O74432  11.622   4.615   5.366  0.0650 -0.3274  0.1732
  552MOL0     C74433  11.497   4.603   5.018 -0.1640 -0.3753 -0.3712
  552MOL0     C74434  11.376   4.633   4.946  0.3727  0.7332 -0.3656
  552MOL0     N74435  10.871   5.138   4.696 -0.1201 -0.7007  0.0008
  552MOL0     N74436  10.771   5.205   4.649  0.2765 -0.2503  0.3378
  552MOL0     C74437   9.953   5.160   4.035  0.9031  0.4130  0.0761
  552MOL0     C74438   9.812   5.167   4.046  0.1066 -0.0426  0.1568
  552MOL0     C74439   9.352   5.045   4.006 -0.0392  0.9003  0.1274
  552MOL0     C74440   9.242   4.948   4.011 -0.0207  0.2861 -1.2738
  552MOL0     C74441   9.109   4.973   3.981 -0.9445  0.1436  1.1856
  552MOL0     C74442   9.079   5.103   3.937 -0.1968 -0.3010 -0.1132
  552MOL0     O74443   8.949   5.139   3.920 -0.2485  0.2248 -0.4068
  552MOL0     C74444   8.874   5.200   4.027 -0.0728 -0.4721 -0.2735
  552MOL0     C74445   8.861   5.123   4.155 -0.3696 -0.5812 -0.4391
  552MOL0     C74446   8.772   4.991   4.130  0.0489  0.0890 -0.2340
  552MOL0     C74447   8.624   5.030   4.132  0.7087 -0.4607 -0.9166
  552MOL0     C74448   8.550   4.911   4.094 -0.3662  0.3480 -0.0930
  552MOL0     C74449   8.477   4.820   4.067  1.7793 -0.7469  0.1135
  552MOL0     C74450   9.188   5.198   3.916 -0.5575  0.3516  0.7614
  552MOL0     C74451   9.320   5.170   3.954  0.0664  0.3571  0.1908
  552MOL0     C74452   9.412   5.284   3.945 -0.7055  0.0795  0.0059
  552MOL0     H74453   9.727   4.851   3.977  1.5086 -0.8556 -3.4003
  552MOL0     H74454   9.964   4.827   3.959  1.0826  0.4603  3.6080
  552MOL0     H74455  10.209   5.170   3.906  2.1755 -1.8391 -2.8253
  552MOL0     H74456  10.232   5.145   4.083 -0.9712 -1.5150 -0.2767
  552MOL0     H74457  10.432   5.118   3.910  0.9679 -1.1142 -0.8928
  552MOL0     H74458  10.352   4.971   3.862 -0.5661 -1.1562  1.2251
  552MOL0     H74459  10.544   4.949   4.040  1.0672 -0.6627  1.4969
  552MOL0     H74460  10.401   4.845   4.036  0.7363  1.2814 -2.8313
  552MOL0     H74461  10.403   5.095   4.202  1.0198 -0.6135  2.1104
  552MOL0     H74462  10.291   4.967   4.216  0.1760  0.2108 -0.1375
  552MOL0     H74463  10.483   4.807   4.272  0.5223 -0.1397  2.1319
  552MOL0     H74464  10.576   4.953   4.279  0.3259 -1.3961 -0.5279
  552MOL0     H74465  10.340   4.910   4.456 -0.7986  2.0458  2.0240
  552MOL0     H74466  10.497   4.866   4.496  0.1576 -0.4869 -0.5431
  552MOL0     H74467  10.421   5.068   4.612  1.4794 -2.0038  0.4249
  552MOL0     H74468  10.378   5.147   4.462 -0.6663  2.1643  3.2770
  552MOL0     H74469  10.618   5.160   4.399  0.1328 -2.1129 -0.2267
  552MOL0     H74470  10.571   5.267   4.531  0.4804 -0.7186  1.3802
  552MOL0     H74471  10.676   4.908   4.571 -0.5614 -0.1476 -0.2487
  552MOL0     H74472  10.982   4.854   4.595  2.5876  0.4571  0.9636
  552MOL0     H74473  11.043   4.931   4.738 -1.0176  0.1984  2.1501
  552MOL0     H74474  10.908   4.831   4.887  0.5980  5.4112 -1.7276
  552MOL0     H74475  10.800   4.763   4.774  0.3887 -1.5566  2.7676
  552MOL0     H74476  10.961   4.635   4.651 -1.4884 -0.1640 -0.0489
  552MOL0     H74477  10.935   4.570   4.812  0.5790  0.0303 -0.6120
  552MOL0     H74478  11.161   4.744   4.732 -0.2791 -1.0831 -0.1134
  552MOL0     H74479  11.184   4.572   4.780  0.9174 -0.7732  1.9982
  552MOL0     H74480  11.181   4.734   5.203  1.1540  0.6432  1.2310
  552MOL0     H74481  11.383   4.678   5.326 -0.4906  2.3347 -0.4783
  552MOL0     H74482  11.765   4.332   5.300  1.2540 -1.7128  2.3499
  552MOL0     H74483  11.955   4.269   5.423  1.5119  1.7807  4.3424
  552MOL0     H74484  12.129   4.252   5.554 -0.9666  3.3530  1.5175
  552MOL0     H74485  12.240   4.214   5.416 -1.7047 -1.9220  0.1916
  552MOL0     H74486  12.409   4.346   5.551 -1.9400  4.4843  0.5973
  552MOL0     H74487  12.290   4.382   5.674  1.8458  0.1136  1.3430
  552MOL0     H74488  12.438   4.184   5.749  0.3897 -1.9021  0.0791
  552MOL0     H74489  12.268   4.155   5.764  1.2446 -3.4879 -0.0166
  552MOL0     H74490  12.285   4.007   5.559 -2.0200  1.3564  2.3475
  552MOL0     H74491  12.389   3.964   5.697 -2.7980 -0.1841  1.1835
  552MOL0     H74492  12.489   4.132   5.450 -0.0866  1.0754  1.2539
  552MOL0     H74493  12.488   3.958   5.452  1.2564  1.5402 -2.0556
  552MOL0     H74494  12.640   4.123   5.654 -1.7404  0.2964 -0.8133
  552MOL0     H74495  12.634   3.948   5.653 -0.4837  1.3020  2.7041
  552MOL0     H74496  12.742   4.137   5.414  1.7356  1.2934 -0.0082
  552MOL0     H74497  12.742   3.968   5.407 -0.5979  2.8605 -3.3756
  552MOL0     H74498  12.957   4.103   5.469  0.4643  1.5116  0.1478
  552MOL0     H74499  12.889   4.099   5.637 -1.8108 -3.0502  0.7787
  552MOL0     H74500  12.149   4.651   5.325  0.9908  0.2628 -0.0079
  552MOL0     H74501  11.956   4.706   5.206  1.5484  0.5337 -0.1693
  552MOL0     H74502  11.576   4.569   4.952  1.4066  0.0133  1.2309
  552MOL0     H74503  11.390   4.614   4.840  1.0212 -1.2146  0.0281
  552MOL0     H74504  10.008   5.251   4.056 -0.3062  1.4681 -1.1127
  552MOL0     H74505   9.768   5.265   4.057 -2.3375 -1.0855  0.2858
  552MOL0     H74506   9.271   4.848   4.040 -0.7920 -0.0023 -1.4823
  552MOL0     H74507   9.022   4.910   3.996 -1.4025  0.1123 -1.1533
  552MOL0     H74508   8.776   5.226   3.986 -0.1701  0.8400  0.7212
  552MOL0     H74509   8.927   5.295   4.040 -0.7130  0.4286 -3.4150
  552MOL0     H74510   8.824   5.190   4.233  3.3493  2.7111 -1.1944
  552MOL0     H74511   8.961   5.101   4.193  0.4982  2.4123 -0.7285
  552MOL0     H74512   8.804   4.921   4.208 -0.8406 -0.5729 -0.4555
  552MOL0     H74513   8.805   4.947   4.036  4.8718 -0.4352  1.3934
  552MOL0     H74514   8.594   5.077   4.227  0.9377  2.3675 -2.1277
  552MOL0     H74515   8.595   5.096   4.049  0.4113 -2.7942 -2.7583
  552MOL0     H74516   8.418   4.742   4.025  0.3981 -0.7050  1.8688
  552MOL0     H74517   9.157   5.299   3.894  0.1230  0.3222 -0.3950
  552MOL0     H74518   9.376   5.361   3.875 -1.6969  0.9953  1.4770
  552MOL0     H74519   9.444   5.335   4.036 -0.3202 -0.7523  0.3454
  552MOL0     H74520   9.501   5.241   3.898 -0.4341 -1.7296  2.0340
  553MOL0     O74521   2.737   8.729   3.167  0.0206  0.2342  0.1768
  553MOL0     C74522   2.639   8.681   3.110 -0.4540  0.1605 -0.2136
  553MOL0     O74523   2.645   8.585   3.022  0.3570  0.3513 -0.6036
  553MOL0     C74524   2.758   8.551   2.944 -0.2824 -0.1388  0.6756
  553MOL0     C74525   2.894   8.560   2.987  0.5363  0.2837  0.3204
  553MOL0     C74526   2.996   8.548   2.897 -0.1686 -0.0757 -0.4789
  553MOL0     C74527   2.975   8.530   2.764  0.1779 -0.4850  0.8841
  553MOL0     O74528   3.067   8.543   2.660  0.1653 -0.0179 -0.4615
  553MOL0     C74529   3.199   8.499   2.683 -0.3391 -0.5340 -0.0680
  553MOL0     C74530   3.273   8.476   2.545 -0.4414 -0.3010  0.3757
  553MOL0     C74531   3.218   8.349   2.475  0.7169 -0.1204 -0.3068
  553MOL0     C74532   3.331   8.294   2.380 -0.3901  0.1043 -0.0818
  553MOL0     C74533   3.380   8.387   2.268 -0.2214 -0.0750  0.4584
  553MOL0     C74534   3.261   8.424   2.172 -0.6343 -0.3816 -0.2611
  553MOL0     C74535   3.302   8.499   2.052  0.3550 -0.5331 -0.2098
  553MOL0     C74536   3.193   8.548   1.963  0.1562 -0.1436 -0.0201
  553MOL0     N74537   3.248   8.644   1.865  0.0396  1.0885  0.1424
  553MOL0     C74538   3.284   8.623   1.729  0.3517 -0.4973  0.1580
  553MOL0     C74539   3.298   8.743   1.669  0.4106 -0.3166  0.0328
  553MOL0     C74540   3.348   8.763   1.525 -0.1847 -0.2519 -0.1044
  553MOL0     C74541   3.491   8.709   1.510  0.1232 -0.2202  0.3575
  553MOL0     C74542   3.555   8.732   1.372 -0.3451  0.5626 -0.8217
  553MOL0     C74543   3.685   8.666   1.375 -0.1966 -0.7130 -0.1438
  553MOL0     O74544   3.752   8.689   1.249 -0.2071  0.4839 -0.6652
  553MOL0     C74545   3.859   8.766   1.255  0.6908 -0.0077  0.2262
  553MOL0     C74546   3.855   8.905   1.257 -0.6562 -0.5972 -0.0394
  553MOL0     C74547   3.976   8.981   1.277 -0.0562  0.8295 -0.3927
  553MOL0     C74548   4.097   8.912   1.289 -0.2486 -0.9635 -0.0658
  553MOL0     C74549   4.224   8.978   1.295  0.2754  0.6441 -0.9219
  553MOL0     O74550   4.327   8.901   1.250 -0.4744  0.2581  0.1236
  553MOL0     C74551   4.456   8.949   1.262 -0.5176 -0.9094 -0.6453
  553MOL0     C74552   4.496   9.067   1.200  0.1930 -0.1606 -0.0277
  553MOL0     C74553   4.625   9.100   1.191  0.1098  0.4660 -0.5102
  553MOL0     C74554   4.720   9.020   1.257  0.3010  0.2135 -0.5252
  553MOL0     O74555   4.851   9.060   1.242  0.1581 -0.9014 -0.0305
  553MOL0     C74556   4.940   8.998   1.328  0.2526 -1.1354 -0.0982
  553MOL0     C74557   5.084   9.046   1.313 -1.0837  0.3400  0.4404
  553MOL0     C74558   5.131   9.015   1.166 -0.4533 -0.5262  0.0885
  553MOL0     C74559   5.280   9.033   1.149  0.2699 -0.0689 -0.7741
  553MOL0     C74560   5.307   9.109   1.012 -0.0037 -0.2578  0.7126
  553MOL0     C74561   5.450   9.138   0.987 -0.3237  0.7200  0.0417
  553MOL0     C74562   5.475   9.179   0.843  0.2997  0.5011 -0.1077
  553MOL0     C74563   5.616   9.227   0.818  0.2832  0.0526 -0.4445
  553MOL0    Cl74564   5.641   9.379   0.898 -0.2004 -0.3230 -0.5906
  553MOL0     C74565   4.678   8.908   1.330 -0.6746  0.9483 -0.2032
  553MOL0     C74566   4.547   8.870   1.338  0.6429  1.7123  0.0150
  553MOL0     O74567   4.226   9.088   1.345 -0.3074 -0.7463  0.7576
  553MOL0     C74568   4.093   8.771   1.285 -0.0314 -0.5208  0.0230
  553MOL0     C74569   3.979   8.703   1.262  1.4034 -0.0780  0.6100
  553MOL0     N74570   3.260   8.840   1.762 -0.5178  0.0978  0.0804
  553MOL0     N74571   3.235   8.778   1.875 -0.3136  0.2926 -0.3959
  553MOL0     C74572   2.842   8.527   2.720  0.0472 -0.0299  0.4849
  553MOL0     C74573   2.732   8.542   2.804  0.6402  0.1860 -0.4181
  553MOL0     C74574   2.502   8.721   3.161 -0.1955 -0.3661  0.5746
  553MOL0     C74575   2.400   8.631   3.120  1.1671 -1.1283 -0.6833
  553MOL0     C74576   2.267   8.653   3.168  0.2871 -0.7317  1.0033
  553MOL0     C74577   2.234   8.759   3.245 -0.0355 -0.4910 -0.5221
  553MOL0     O74578   2.107   8.779   3.290  0.1440  0.9205  0.0485
  553MOL0     C74579   2.079   8.872   3.400 -0.3201  0.1102  0.6559
  553MOL0     C74580   1.934   8.861   3.449 -0.0160 -0.4911  0.2787
  553MOL0     C74581   1.929   8.911   3.590 -0.3777  0.0950  0.0145
  553MOL0     C74582   1.797   8.878   3.662  0.7794 -0.6527 -0.0907
  553MOL0     C74583   1.678   8.926   3.584  0.0978 -0.3804 -0.7080
  553MOL0     C74584   1.602   8.987   3.510 -0.0188  0.2758  0.1733
  553MOL0     C74585   2.340   8.848   3.288  0.9122  0.3725 -0.4397
  553MOL0     C74586   2.475   8.827   3.251  0.0772  0.4939  0.4920
  553MOL0     C74587   2.590   8.912   3.293 -0.1121 -1.0096  0.5483
  553MOL0     H74588   2.921   8.578   3.091 -1.4803 -1.4226  1.2167
  553MOL0     H74589   3.099   8.569   2.927  0.2244 -2.2790 -0.0874
  553MOL0     H74590   3.264   8.561   2.745 -0.8725 -1.0534  1.0399
  553MOL0     H74591   3.199   8.407   2.741 -0.0581 -0.3198  0.2754
  553MOL0     H74592   3.379   8.453   2.558 -0.2888 -1.8800 -2.8165
  553MOL0     H74593   3.254   8.558   2.475 -2.9535 -2.1182 -1.2659
  553MOL0     H74594   3.132   8.370   2.411 -0.0682 -1.6028  0.2189
  553MOL0     H74595   3.175   8.276   2.545 -0.8334 -0.2463 -1.3272
  553MOL0     H74596   3.412   8.277   2.450 -0.8616  2.7715  1.2067
  553MOL0     H74597   3.309   8.193   2.343 -4.8740  0.7556  0.2155
  553MOL0     H74598   3.416   8.479   2.316 -0.3356  0.9741 -1.4016
  553MOL0     H74599   3.454   8.340   2.203 -2.0865 -1.5741 -0.7005
  553MOL0     H74600   3.203   8.337   2.141 -1.3272 -0.5781  1.4544
  553MOL0     H74601   3.198   8.486   2.237  0.2138  0.0934  0.1218
  553MOL0     H74602   3.368   8.441   1.987  1.4139  1.8941 -1.4067
  553MOL0     H74603   3.373   8.576   2.083  0.2328 -1.2374  2.0170
  553MOL0     H74604   3.149   8.465   1.907 -0.2922  1.1699 -1.7108
  553MOL0     H74605   3.116   8.595   2.026 -1.4251  2.0601 -3.2648
  553MOL0     H74606   3.283   8.524   1.686  0.4931 -1.2979  1.9178
  553MOL0     H74607   3.282   8.712   1.454  1.2637 -2.4966  0.0801
  553MOL0     H74608   3.354   8.871   1.508  1.7179 -0.3373 -0.1813
  553MOL0     H74609   3.558   8.757   1.581 -0.4708 -2.2952  2.4499
  553MOL0     H74610   3.488   8.602   1.535 -0.7347 -0.5060 -0.8684
  553MOL0     H74611   3.563   8.839   1.354 -2.1736  1.2510  1.7929
  553MOL0     H74612   3.498   8.679   1.296  0.2131 -1.7774  0.2779
  553MOL0     H74613   3.691   8.559   1.395  0.8941 -0.7326 -0.4642
  553MOL0     H74614   3.746   8.712   1.454  0.6141  2.6763 -2.5000
  553MOL0     H74615   3.756   8.950   1.254 -1.3529 -1.8595  1.7587
  553MOL0     H74616   3.968   9.089   1.266 -2.2753  0.9026  1.2856
  553MOL0     H74617   4.425   9.121   1.140  0.4443  1.5830  1.1841
  553MOL0     H74618   4.663   9.181   1.130 -0.7731  2.2148  1.1716
  553MOL0     H74619   4.908   9.017   1.430  0.8698 -0.6450  0.0061
  553MOL0     H74620   4.943   8.890   1.307  1.6183 -1.0877 -0.2281
  553MOL0     H74621   5.097   9.149   1.347  1.6695 -0.8542  3.4336
  553MOL0     H74622   5.149   8.980   1.370  1.5035  1.7378 -0.7241
  553MOL0     H74623   5.088   8.917   1.140 -1.8550  0.1840 -0.3776
  553MOL0     H74624   5.082   9.096   1.111 -0.2171  0.7476  1.7117
  553MOL0     H74625   5.333   8.937   1.144 -2.4595 -1.6164 -3.1307
  553MOL0     H74626   5.328   9.086   1.232  1.4184 -0.8811 -0.8947
  553MOL0     H74627   5.252   9.203   1.015  0.8965  0.2491  2.6637
  553MOL0     H74628   5.269   9.055   0.925  0.7212  1.1027 -0.5038
  553MOL0     H74629   5.483   9.215   1.057 -1.1236 -0.0758  1.3113
  553MOL0     H74630   5.515   9.050   0.991 -0.1089  0.8960  0.5484
  553MOL0     H74631   5.402   9.256   0.816  0.2703  1.5633  2.6478
  553MOL0     H74632   5.458   9.092   0.779 -0.4572  0.3495  0.2791
  553MOL0     H74633   5.698   9.167   0.858  0.2831  0.8538  0.8277
  553MOL0     H74634   5.627   9.236   0.710  0.0354 -1.6357 -0.6288
  553MOL0     H74635   4.756   8.851   1.378  0.6619  1.4571 -1.7086
  553MOL0     H74636   4.522   8.784   1.399  2.0805  1.3555  0.1479
  553MOL0     H74637   4.184   8.712   1.285 -0.6233 -1.6020  3.2012
  553MOL0     H74638   3.988   8.597   1.239  1.7053 -0.0682  0.6892
  553MOL0     H74639   2.812   8.517   2.616  2.2768 -1.4511 -0.0838
  553MOL0     H74640   2.629   8.532   2.772  0.3324  1.5326  0.1007
  553MOL0     H74641   2.431   8.556   3.048  2.7677  0.3157 -1.5945
  553MOL0     H74642   2.187   8.595   3.123 -0.7885  1.3630  0.0801
  553MOL0     H74643   2.099   8.973   3.362 -1.0351 -0.2886 -0.8639
  553MOL0     H74644   2.153   8.853   3.478  1.1224 -2.2389 -1.1254
  553MOL0     H74645   1.893   8.760   3.446 -0.9046 -0.1450  0.5224
  553MOL0     H74646   1.884   8.933   3.383 -0.4425  2.0682  3.1969
  553MOL0     H74647   1.947   9.018   3.580  0.1312  0.1599  1.4542
  553MOL0     H74648   2.008   8.877   3.657 -0.1210  2.8447  1.2074
  553MOL0     H74649   1.797   8.769   3.670 -2.2722 -0.8437 -1.4334
  553MOL0     H74650   1.784   8.910   3.765  0.0832 -0.0680 -0.3495
  553MOL0     H74651   1.538   9.049   3.451 -0.3219  0.8263  1.0654
  553MOL0     H74652   2.318   8.940   3.340  1.3487  0.3722 -0.2458
  553MOL0     H74653   2.565   8.988   3.368 -0.4879 -0.6877  0.1014
  553MOL0     H74654   2.670   8.852   3.338  2.0959  1.1074 -0.3376
  553MOL0     H74655   2.629   8.965   3.206 -0.4469  1.3395  1.7345
  554MOL0     O74656   0.648   1.151   9.603  0.5276  0.0529 -0.2551
  554MOL0     C74657   0.612   1.219   9.512 -0.1609  0.4460 -0.5322
  554MOL0     O74658   0.695   1.298   9.433 -0.3655 -0.1040  0.1409
  554MOL0     C74659   0.822   1.315   9.468  0.3551  0.1418  0.6246
  554MOL0     C74660   0.906   1.327   9.354 -1.3139  0.7224 -0.0469
  554MOL0     C74661   1.048   1.337   9.372 -0.4779 -0.2163  0.6276
  554MOL0     C74662   1.098   1.333   9.508  0.3759 -0.1497  0.3385
  554MOL0     O74663   1.225   1.328   9.552  0.1138  0.0607 -0.3912
  554MOL0     C74664   1.331   1.321   9.455 -0.1128 -0.7800 -1.1287
  554MOL0     C74665   1.460   1.315   9.536  0.1064 -0.0602  0.2423
  554MOL0     C74666   1.586   1.329   9.447 -0.1854 -0.3219  0.0399
  554MOL0     C74667   1.587   1.257   9.306 -0.0625  0.0435  0.1922
  554MOL0     C74668   1.726   1.194   9.276 -0.2096 -0.0866  0.4940
  554MOL0     C74669   1.831   1.302   9.230  0.6257  0.1135 -0.8640
  554MOL0     C74670   1.980   1.261   9.249 -0.0488 -0.1980  0.0221
  554MOL0     C74671   2.011   1.140   9.180 -0.0815  1.5392  0.1956
  554MOL0     N74672   2.159   1.130   9.187 -0.4361  0.0485 -0.5330
  554MOL0     C74673   2.222   1.046   9.278  0.1004 -0.0369  0.3115
  554MOL0     C74674   2.354   1.068   9.258  0.0651 -0.0356  0.9398
  554MOL0     C74675   2.470   1.015   9.335 -0.0381  0.6643  0.6552
  554MOL0     C74676   2.611   1.032   9.270  0.7067  0.0119  0.7864
  554MOL0     C74677   2.715   0.959   9.357 -0.1896 -0.4938  0.7374
  554MOL0     C74678   2.757   1.030   9.486  0.3316  0.8394  0.6340
  554MOL0     O74679   2.898   1.030   9.502 -0.3692 -0.1971  0.0770
  554MOL0     C74680   2.933   1.055   9.634  0.1557  0.1761 -0.1670
  554MOL0     C74681   2.980   1.182   9.667 -0.1809  1.1082 -0.4388
  554MOL0     C74682   3.015   1.196   9.806  0.2418  0.6508 -0.0237
  554MOL0     C74683   3.021   1.090   9.896 -0.2426 -1.1796 -0.4097
  554MOL0     C74684   3.093   1.105  10.021 -0.0649 -0.0543  1.0688
  554MOL0     O74685   3.145   0.996  10.083 -0.5741 -0.4397  0.3292
  554MOL0     C74686   3.262   1.007  10.155 -0.1099  0.3202  0.3390
  554MOL0     C74687   3.343   1.124  10.183  0.2505  0.4429 -0.3987
  554MOL0     C74688   3.468   1.111  10.242  0.9941 -0.0266 -0.7120
  554MOL0     C74689   3.512   0.990  10.297  0.5050 -0.8317 -0.3462
  554MOL0     O74690   3.641   0.994  10.356  0.1696  0.0119  0.1438
  554MOL0     C74691   3.688   0.874  10.401 -0.1693  0.2809 -0.0347
  554MOL0     C74692   3.828   0.907  10.449 -0.2388  0.5897 -0.6704
  554MOL0     C74693   3.887   0.795  10.533 -0.2706  0.7597  0.2374
  554MOL0     C74694   4.036   0.795  10.514  0.5903 -0.1586  0.0117
  554MOL0     C74695   4.090   0.659  10.574 -0.4516 -0.0785 -0.5864
  554MOL0     C74696   4.032   0.616  10.707  0.2413 -0.2223  0.0322
  554MOL0     C74697   4.134   0.550  10.795 -0.1157  0.1463 -0.3058
  554MOL0     C74698   4.065   0.458  10.900  0.6946 -0.5536  0.0688
  554MOL0    Cl74699   4.025   0.564  11.040  0.1694  0.3363 -0.0779
  554MOL0     C74700   3.433   0.874  10.277  0.1628 -0.7711  1.4928
  554MOL0     C74701   3.313   0.885  10.197  0.3322  0.0052 -0.9026
  554MOL0     O74702   3.081   1.219  10.069  0.3824  0.3049  0.7973
  554MOL0     C74703   2.968   0.975   9.861 -0.2103 -0.1300  0.5300
  554MOL0     C74704   2.919   0.955   9.736  0.7904 -0.1273 -0.1522
  554MOL0     N74705   2.367   1.169   9.155  0.1884  0.1482 -0.3010
  554MOL0     N74706   2.248   1.202   9.114 -0.8336 -0.1626  0.9029
  554MOL0     C74707   1.008   1.321   9.618 -0.6266 -1.0219  0.3605
  554MOL0     C74708   0.872   1.315   9.592  0.0120  0.0678 -0.3443
  554MOL0     C74709   0.464   1.236   9.507  0.2161  0.0425  0.7276
  554MOL0     C74710   0.415   1.372   9.487  0.2254 -1.0243  0.5243
  554MOL0     C74711   0.278   1.385   9.460  0.7138  0.1870 -0.2695
  554MOL0     C74712   0.185   1.285   9.486  0.0163  0.2690 -0.0818
  554MOL0     O74713   0.056   1.297   9.469 -0.3609 -0.2157 -0.6418
  554MOL0     C74714  -0.001   1.433   9.454 -0.7772  0.8412 -0.1188
  554MOL0     C74715  -0.009   1.520   9.588  0.2375 -0.4662  0.8854
  554MOL0     C74716  -0.140   1.488   9.663  0.3867  0.1574  0.0035
  554MOL0     C74717  -0.138   1.492   9.810 -0.8683 -0.8050  0.4944
  554MOL0     C74718  -0.040   1.401   9.861 -0.0560  0.3171 -0.0870
  554MOL0     C74719   0.064   1.338   9.887 -0.4368 -0.7121  0.2354
  554MOL0     C74720   0.226   1.160   9.527 -0.1327  0.2119 -0.2311
  554MOL0     C74721   0.370   1.134   9.527 -0.2400  0.0231  0.7115
  554MOL0     C74722   0.405   0.985   9.563  0.0108 -0.1250  0.1708
  554MOL0     H74723   0.866   1.307   9.255 -1.1126 -0.5488  0.1117
  554MOL0     H74724   1.118   1.338   9.289 -0.0510 -0.8699  0.9762
  554MOL0     H74725   1.311   1.232   9.395 -1.6457 -0.1989 -1.5381
  554MOL0     H74726   1.321   1.408   9.389  0.2914  0.3914  0.3046
  554MOL0     H74727   1.465   1.212   9.572  0.0262 -0.4504 -0.8515
  554MOL0     H74728   1.468   1.398   9.608  1.3678 -1.6349  2.0076
  554MOL0     H74729   1.659   1.276   9.509  1.5053  3.3928  1.5177
  554MOL0     H74730   1.622   1.432   9.441 -0.2101 -0.3585 -0.9086
  554MOL0     H74731   1.516   1.175   9.317  0.8746 -0.8004  0.1348
  554MOL0     H74732   1.557   1.328   9.229 -0.2414  1.0171  1.1421
  554MOL0     H74733   1.756   1.143   9.368 -4.0656 -2.2466  0.7630
  554MOL0     H74734   1.715   1.127   9.189  1.4014  1.7493 -1.2229
  554MOL0     H74735   1.823   1.325   9.123 -0.5130 -1.0304 -1.0573
  554MOL0     H74736   1.812   1.392   9.290 -0.6392 -1.1005  0.6513
  554MOL0     H74737   1.997   1.244   9.356 -2.1391  0.2936  0.4725
  554MOL0     H74738   2.044   1.338   9.203 -0.5000 -0.2756 -0.7376
  554MOL0     H74739   1.971   1.057   9.240  0.9568  1.3639  0.6696
  554MOL0     H74740   1.983   1.143   9.074  1.1488  1.0346 -0.1602
  554MOL0     H74741   2.174   0.976   9.346  0.5555 -3.7954 -2.8598
  554MOL0     H74742   2.459   1.048   9.439  0.9034 -2.4452  1.8780
  554MOL0     H74743   2.455   0.906   9.337  3.3935  0.0639  0.4334
  554MOL0     H74744   2.624   0.979   9.176 -0.6461  0.6640  0.2132
  554MOL0     H74745   2.640   1.138   9.269  0.2587  0.1334  0.3530
  554MOL0     H74746   2.802   0.948   9.291  0.4523  1.4749  1.1863
  554MOL0     H74747   2.685   0.855   9.374 -1.2787 -0.9895 -3.0912
  554MOL0     H74748   2.711   0.982   9.574 -3.9809  0.0530 -1.7594
  554MOL0     H74749   2.705   1.126   9.496 -1.9250 -0.4097  1.6891
  554MOL0     H74750   2.995   1.265   9.598 -0.2193 -0.3433 -2.2547
  554MOL0     H74751   3.057   1.294   9.828 -0.0199  0.9360 -0.7743
  554MOL0     H74752   3.311   1.224  10.154 -1.3583  0.3913  1.0158
  554MOL0     H74753   3.525   1.199  10.270 -2.1603  1.5593  1.4414
  554MOL0     H74754   3.618   0.833  10.475 -1.6089  4.6338  1.3241
  554MOL0     H74755   3.701   0.802  10.319  2.7516  0.6473  0.0067
  554MOL0     H74756   3.886   0.928  10.359  1.1722  1.9477  0.5118
  554MOL0     H74757   3.811   0.993  10.515 -3.9980 -1.6039  1.5977
  554MOL0     H74758   3.863   0.819  10.637 -0.5155  0.9350  0.1419
  554MOL0     H74759   3.848   0.699  10.499  0.1069  0.9001 -0.6243
  554MOL0     H74760   4.074   0.875  10.578 -1.4327  0.4037  0.5495
  554MOL0     H74761   4.054   0.825  10.410 -3.4016 -1.2406 -1.1472
  554MOL0     H74762   4.199   0.663  10.590 -0.9657  0.9750  4.0099
  554MOL0     H74763   4.064   0.581  10.501 -0.7473 -0.8438  0.3232
  554MOL0     H74764   3.989   0.695  10.768 -0.8767  1.0062 -2.2065
  554MOL0     H74765   3.944   0.559  10.674  0.2246  0.3612 -1.0072
  554MOL0     H74766   4.200   0.622  10.846 -1.1385  0.3766  0.7448
  554MOL0     H74767   4.199   0.489  10.732  0.3471  0.1345  0.1675
  554MOL0     H74768   3.977   0.421  10.847 -0.4299  3.7454 -1.4858
  554MOL0     H74769   4.140   0.384  10.928  0.3333 -0.9251  0.0604
  554MOL0     H74770   3.465   0.779  10.319  0.4089 -0.5519  1.8076
  554MOL0     H74771   3.267   0.790  10.170  1.8345 -1.6099  1.7987
  554MOL0     H74772   2.972   0.901   9.940  5.2291  1.3125  1.9670
  554MOL0     H74773   2.895   0.853   9.707  2.0527 -0.2564 -0.8126
  554MOL0     H74774   1.034   1.316   9.723  1.0625 -0.2082  0.0268
  554MOL0     H74775   0.809   1.333   9.679  1.0978 -0.9983  0.6893
  554MOL0     H74776   0.483   1.456   9.472 -0.6414 -0.4015  0.0146
  554MOL0     H74777   0.237   1.484   9.443 -1.8025 -0.2988  2.2169
  554MOL0     H74778  -0.095   1.422   9.398  0.6236 -0.0537 -2.4261
  554MOL0     H74779   0.066   1.475   9.379  3.9904 -1.3349  2.5257
  554MOL0     H74780  -0.004   1.623   9.553  3.0412  0.0068  2.3584
  554MOL0     H74781   0.081   1.502   9.647  0.7906 -1.2206 -0.1536
  554MOL0     H74782  -0.176   1.387   9.641 -0.3394  0.4842 -0.3570
  554MOL0     H74783  -0.215   1.563   9.638  2.2558  2.0457 -0.1404
  554MOL0     H74784  -0.116   1.590   9.854  0.9358 -0.1712 -1.6365
  554MOL0     H74785  -0.231   1.468   9.862 -0.8148 -0.4263  0.7717
  554MOL0     H74786   0.156   1.296   9.922  0.4557  0.5012 -0.5825
  554MOL0     H74787   0.151   1.083   9.544 -0.0134 -0.4034 -2.1724
  554MOL0     H74788   0.485   0.957   9.493  0.0272 -0.9859  0.5282
  554MOL0     H74789   0.441   0.981   9.666  0.4477 -0.9882 -0.0116
  554MOL0     H74790   0.324   0.913   9.556  1.0796 -1.3194 -0.2613
  555MOL0     O74791  10.756   8.779   2.691 -0.9623  0.4910  0.5021
  555MOL0     C74792  10.853   8.853   2.712 -0.0923 -0.4905 -0.4405
  555MOL0     O74793  10.841   8.995   2.717  0.3432  0.0894 -0.0186
  555MOL0     C74794  10.735   9.061   2.661  0.0846 -0.1583 -0.4064
  555MOL0     C74795  10.730   9.060   2.526 -0.2436  0.0870  0.3838
  555MOL0     C74796  10.622   9.119   2.459 -0.1612  0.0967 -0.8457
  555MOL0     C74797  10.523   9.187   2.529  0.1026  0.7799  0.5683
  555MOL0     O74798  10.435   9.254   2.453  0.8172 -0.0575  0.1196
  555MOL0     C74799  10.294   9.243   2.500 -0.9545  0.0069 -0.1309
  555MOL0     C74800  10.210   9.284   2.381 -0.6127  0.7815  0.1170
  555MOL0     C74801  10.058   9.272   2.386  0.3381 -0.1956 -0.0178
  555MOL0     C74802   9.980   9.322   2.509 -1.2558  0.2021 -0.7041
  555MOL0     C74803   9.826   9.297   2.503  0.0924  0.4248 -0.1209
  555MOL0     C74804   9.773   9.407   2.414  0.0495 -0.8481  0.6259
  555MOL0     C74805   9.632   9.443   2.449  1.0383  0.6362 -0.1225
  555MOL0     C74806   9.613   9.524   2.572 -0.4475  0.2990 -0.1820
  555MOL0     N74807   9.468   9.555   2.587 -0.3041  0.1359  0.1360
  555MOL0     C74808   9.386   9.473   2.647  0.7125  0.4445  0.1299
  555MOL0     C74809   9.276   9.539   2.655  0.6150  0.5993  0.3385
  555MOL0     C74810   9.157   9.493   2.737  0.6517  0.0736  0.3357
  555MOL0     C74811   9.153   9.528   2.877 -0.9117 -0.4134  0.0586
  555MOL0     C74812   9.158   9.683   2.892 -0.1254  0.8158 -0.0478
  555MOL0     C74813   9.158   9.729   3.033  0.2739  0.8030  0.3824
  555MOL0     O74814   9.290   9.713   3.084  0.6904 -0.2889  0.1697
  555MOL0     C74815   9.303   9.721   3.220 -0.5691 -0.0821 -0.6005
  555MOL0     C74816   9.432   9.728   3.284 -0.1681 -0.3792 -0.2089
  555MOL0     C74817   9.445   9.745   3.422 -0.1740  0.3650  0.5446
  555MOL0     C74818   9.326   9.751   3.513 -1.0975 -0.0347  1.0209
  555MOL0     C74819   9.339   9.773   3.654 -0.1182  0.4511 -0.1561
  555MOL0     O74820   9.230   9.789   3.732  0.0555  0.2655  1.0446
  555MOL0     C74821   9.253   9.823   3.856 -0.1875 -0.1514 -0.9479
  555MOL0     C74822   9.285   9.729   3.952  0.7045 -0.6111  0.4516
  555MOL0     C74823   9.315   9.770   4.079  0.1116 -0.9402  0.7481
  555MOL0     C74824   9.327   9.909   4.109 -0.1976  0.2814  0.3150
  555MOL0     O74825   9.378   9.938   4.233  0.2529 -0.1200  0.7088
  555MOL0     C74826   9.386  10.080   4.270  0.0631 -0.5140 -0.5357
  555MOL0     C74827   9.370  10.097   4.426 -0.3948  0.7356 -0.6814
  555MOL0     C74828   9.266  10.209   4.474 -0.0614 -0.0152  0.2875
  555MOL0     C74829   9.174  10.188   4.590 -0.4939 -0.2179 -0.9971
  555MOL0     C74830   9.029  10.155   4.541 -0.3223 -0.5450  1.4128
  555MOL0     C74831   9.026  10.013   4.489  0.2486  0.5196 -0.5011
  555MOL0     C74832   8.894   9.974   4.425  1.3526 -0.6719 -0.0901
  555MOL0     C74833   8.771   9.975   4.511 -0.3374  0.4320 -0.3207
  555MOL0    Cl74834   8.621   9.985   4.406 -0.1345 -0.5478 -0.5045
  555MOL0     C74835   9.283  10.002   4.015 -0.9796 -0.3350  0.2536
  555MOL0     C74836   9.256   9.961   3.880  0.2559 -0.6230 -0.7045
  555MOL0     O74837   9.456   9.772   3.685  0.0079  0.0912 -0.6895
  555MOL0     C74838   9.208   9.748   3.446  0.9845 -0.6609  0.3934
  555MOL0     C74839   9.195   9.736   3.309  0.6909  0.9063 -0.1967
  555MOL0     N74840   9.293   9.656   2.591 -0.3616 -0.0265 -0.5319
  555MOL0     N74841   9.412   9.669   2.553  0.7741 -0.7971 -0.1985
  555MOL0     C74842  10.522   9.179   2.670 -0.0963 -0.2108 -0.3747
  555MOL0     C74843  10.628   9.115   2.737  0.0579 -0.1440  0.9044
  555MOL0     C74844  10.988   8.795   2.734 -0.5502  0.2167 -0.0121
  555MOL0     C74845  11.101   8.869   2.706 -0.7728 -0.1046 -1.0998
  555MOL0     C74846  11.235   8.824   2.734 -0.1016 -1.2734 -0.4148
  555MOL0     C74847  11.251   8.694   2.784  0.2471  0.3428  0.2406
  555MOL0     O74848  11.373   8.630   2.807 -0.3226  0.3182 -0.8853
  555MOL0     C74849  11.482   8.692   2.748 -0.9473  0.3187 -0.4247
  555MOL0     C74850  11.593   8.596   2.781 -0.1202  0.1943 -0.1090
  555MOL0     C74851  11.725   8.658   2.771  0.3567  0.3370 -0.4318
  555MOL0     C74852  11.808   8.639   2.895  0.5833  0.0937  0.5714
  555MOL0     C74853  11.775   8.738   2.996  0.5561  0.3747 -0.5689
  555MOL0     C74854  11.748   8.817   3.083  0.4462  0.0230  0.1590
  555MOL0     C74855  11.140   8.614   2.802 -0.0684  0.1148  0.4164
  555MOL0     C74856  11.013   8.668   2.783  0.8706  0.1061 -0.0036
  555MOL0     C74857  10.892   8.573   2.810 -0.2459  0.4548 -0.0275
  555MOL0     H74858  10.796   9.000   2.464 -0.6259 -0.6807  0.7053
  555MOL0     H74859  10.611   9.099   2.353  1.9921 -2.0687 -0.7476
  555MOL0     H74860  10.274   9.140   2.531 -1.4888  0.6411  1.7930
  555MOL0     H74861  10.280   9.302   2.592 -1.8379  1.2503 -1.0244
  555MOL0     H74862  10.256   9.222   2.303  0.5101 -0.8921  2.0120
  555MOL0     H74863  10.235   9.391   2.375 -0.7816  0.8344  0.3364
  555MOL0     H74864  10.034   9.165   2.384 -3.3336  0.3753  2.7276
  555MOL0     H74865  10.018   9.324   2.299  0.8352  0.6220  0.2249
  555MOL0     H74866  10.009   9.261   2.595 -0.2271  0.2707 -0.9891
  555MOL0     H74867  10.001   9.429   2.515 -1.3334  0.2366 -1.0290
  555MOL0     H74868   9.795   9.203   2.456 -1.1233  0.5631  0.3737
  555MOL0     H74869   9.777   9.303   2.600  0.4814  0.9877  0.0443
  555MOL0     H74870   9.821   9.505   2.428 -0.9105 -0.1458 -0.7890
  555MOL0     H74871   9.786   9.378   2.310 -0.4425  1.2144 -0.0684
  555MOL0     H74872   9.577   9.352   2.468  0.7350  1.2101  1.9152
  555MOL0     H74873   9.587   9.498   2.365  0.6003 -0.5340 -0.6786
  555MOL0     H74874   9.641   9.463   2.659  1.5586  0.0999 -0.9229
  555MOL0     H74875   9.682   9.608   2.562  2.0024 -1.7732 -2.3062
  555MOL0     H74876   9.403   9.375   2.691  0.2501 -0.2142 -1.0985
  555MOL0     H74877   9.072   9.540   2.687 -0.4164 -1.1244  0.9730
  555MOL0     H74878   9.149   9.384   2.727  1.9936 -0.0967  0.9319
  555MOL0     H74879   9.067   9.481   2.925 -0.7681 -0.6639  0.0702
  555MOL0     H74880   9.239   9.489   2.933 -2.1694 -1.1171  1.6035
  555MOL0     H74881   9.058   9.712   2.855 -1.1521  0.3190  2.1735
  555MOL0     H74882   9.242   9.720   2.833 -1.3316 -0.3760 -2.6791
  555MOL0     H74883   9.088   9.662   3.083 -0.5682  0.0059 -1.7553
  555MOL0     H74884   9.119   9.832   3.029  0.8478  1.0674 -4.7129
  555MOL0     H74885   9.519   9.719   3.220 -0.5474 -1.8923 -0.5462
  555MOL0     H74886   9.550   9.753   3.450  0.4907 -2.6141 -0.7168
  555MOL0     H74887   9.282   9.624   3.927  2.2279 -0.7097  0.5669
  555MOL0     H74888   9.355   9.703   4.155 -0.6076  1.3429  3.2529
  555MOL0     H74889   9.488  10.114   4.250 -0.4908  0.8555 -1.2054
  555MOL0     H74890   9.316  10.153   4.227  4.0355  3.7710 -0.4773
  555MOL0     H74891   9.344  10.005   4.479  3.4915  0.7034  1.5898
  555MOL0     H74892   9.471  10.124   4.458 -0.6657  1.5086 -0.4441
  555MOL0     H74893   9.340  10.285   4.504  1.3862 -1.4893  0.5883
  555MOL0     H74894   9.207  10.252   4.392  1.9383  0.5677 -0.9235
  555MOL0     H74895   9.159  10.288   4.631  1.8551  0.1288 -0.8148
  555MOL0     H74896   9.207  10.106   4.655 -0.0097  1.0991  0.4573
  555MOL0     H74897   8.986  10.228   4.471  0.7921  1.1671  2.4455
  555MOL0     H74898   8.971  10.151   4.634 -2.1834 -3.2795  0.2821
  555MOL0     H74899   9.091  10.013   4.401  1.2302 -0.0388  0.1925
  555MOL0     H74900   9.057   9.942   4.566  0.5914  1.9301  0.7128
  555MOL0     H74901   8.896   9.875   4.378  0.1152 -0.1798 -1.2416
  555MOL0     H74902   8.886  10.047   4.345  0.5965 -0.2768  0.3360
  555MOL0     H74903   8.766   9.894   4.585  1.9861  1.7442  1.4017
  555MOL0     H74904   8.784  10.067   4.569  0.5185  1.0142 -1.4059
  555MOL0     H74905   9.282  10.108   4.037  0.8074 -0.1895 -0.1488
  555MOL0     H74906   9.231  10.042   3.812 -1.8761 -0.1647  0.5271
  555MOL0     H74907   9.115   9.761   3.501  0.0183  1.6082 -1.5968
  555MOL0     H74908   9.097   9.750   3.265  0.8272 -1.3669 -1.3721
  555MOL0     H74909  10.441   9.226   2.724 -1.1921 -1.6759 -0.6520
  555MOL0     H74910  10.631   9.108   2.845  1.4452  1.4164  1.0138
  555MOL0     H74911  11.094   8.973   2.675 -0.4269  0.8016  1.5348
  555MOL0     H74912  11.320   8.881   2.697 -2.3477  0.8662 -2.6730
  555MOL0     H74913  11.495   8.787   2.801  0.7595 -0.6456  0.9787
  555MOL0     H74914  11.467   8.714   2.642  0.2457  0.3386 -0.6040
  555MOL0     H74915  11.597   8.528   2.696 -0.0272  1.8091 -1.4425
  555MOL0     H74916  11.579   8.551   2.880  0.6145  2.6947  1.2347
  555MOL0     H74917  11.711   8.765   2.752 -2.4997 -0.1830 -1.6335
  555MOL0     H74918  11.780   8.621   2.685  1.5153 -0.8172  0.7473
  555MOL0     H74919  11.788   8.539   2.935 -0.5797  0.6707  1.4626
  555MOL0     H74920  11.908   8.657   2.854  0.5711  0.5012  0.7197
  555MOL0     H74921  11.725   8.881   3.166 -2.3056 -1.0501  0.3286
  555MOL0     H74922  11.151   8.513   2.842 -0.7045 -0.5692 -1.0282
  555MOL0     H74923  10.818   8.604   2.884  1.8224 -0.9519  2.8349
  555MOL0     H74924  10.849   8.543   2.715 -1.7426  0.8656  0.5018
  555MOL0     H74925  10.924   8.475   2.847 -0.6285  1.0470  1.9908
  556MOL0     O74926   7.716   0.805   9.842 -0.6536  0.2734 -0.2835
  556MOL0     C74927   7.702   0.863   9.950  0.5500 -0.4427 -0.3807
  556MOL0     O74928   7.793   0.905  10.031  0.2648 -0.0371  0.4476
  556MOL0     C74929   7.927   0.915   9.992  0.8536 -0.0446 -0.2933
  556MOL0     C74930   7.999   0.806   9.930  0.3620  0.6957  0.0958
  556MOL0     C74931   8.128   0.822   9.886 -1.0081 -0.2142  0.4624
  556MOL0     C74932   8.197   0.940   9.911 -0.3350 -0.4126 -1.3545
  556MOL0     O74933   8.327   0.963   9.854  0.2646  0.2980 -0.1865
  556MOL0     C74934   8.426   0.863   9.879 -0.3638 -0.7687  0.0190
  556MOL0     C74935   8.534   0.920   9.977 -0.2286  0.0824 -0.6423
  556MOL0     C74936   8.596   1.049   9.917  0.3917 -0.5834 -0.6696
  556MOL0     C74937   8.718   1.021   9.819  0.0601 -0.1382 -0.2018
  556MOL0     C74938   8.859   1.034   9.880 -0.9931  0.5660 -0.1603
  556MOL0     C74939   8.974   1.018   9.780  0.4538 -0.7549 -1.3658
  556MOL0     C74940   9.095   1.083   9.845 -0.6259  0.6957  0.4994
  556MOL0     C74941   9.209   1.085   9.741  0.3765 -0.6208  0.1127
  556MOL0     N74942   9.321   1.139   9.820 -0.4140  0.0678 -0.1585
  556MOL0     C74943   9.327   1.273   9.858  0.8172 -0.3728 -0.1136
  556MOL0     C74944   9.457   1.288   9.890 -0.5840 -0.1415 -0.7574
  556MOL0     C74945   9.512   1.420   9.938 -0.6706  0.1983 -0.0028
  556MOL0     C74946   9.604   1.427  10.060 -0.4416  0.1455  0.3756
  556MOL0     C74947   9.743   1.364  10.030 -1.0209 -0.5050 -1.2445
  556MOL0     C74948   9.849   1.367  10.146 -0.1948 -0.4348 -1.1410
  556MOL0     O74949   9.885   1.505  10.165  0.2041 -0.9511  1.1712
  556MOL0     C74950  10.003   1.530  10.239 -0.4319  0.6605  0.2401
  556MOL0     C74951  10.066   1.658  10.226 -0.1436  0.1013 -0.3370
  556MOL0     C74952  10.185   1.692  10.279  0.1665 -0.2493  0.1511
  556MOL0     C74953  10.260   1.590  10.343  0.2148  0.4019 -0.0331
  556MOL0     C74954  10.397   1.622  10.392  0.6466 -0.2694 -0.2479
  556MOL0     O74955  10.482   1.510  10.409  0.0348 -0.3669 -0.5424
  556MOL0     C74956  10.597   1.534  10.472 -0.1908  0.4623 -0.0147
  556MOL0     C74957  10.710   1.554  10.388 -0.0212 -0.3218 -0.4397
  556MOL0     C74958  10.836   1.572  10.457  0.5809 -0.1273  0.3347
  556MOL0     C74959  10.849   1.592  10.597  0.1799  0.3293  0.1836
  556MOL0     O74960  10.968   1.639  10.650  0.2958 -0.2908  0.0527
  556MOL0     C74961  10.979   1.670  10.792 -0.2216 -0.1773  0.0192
  556MOL0     C74962  11.125   1.695  10.823 -0.8879  0.3877  0.8018
  556MOL0     C74963  11.177   1.830  10.770  0.5633  1.0895 -0.9914
  556MOL0     C74964  11.309   1.871  10.817 -0.5150 -0.4508  0.1605
  556MOL0     C74965  11.431   1.792  10.759 -0.3674  0.3097 -0.2909
  556MOL0     C74966  11.537   1.754  10.865 -0.4123  0.2029  0.8168
  556MOL0     C74967  11.650   1.676  10.808  0.7371 -0.0076 -0.6660
  556MOL0     C74968  11.726   1.624  10.927 -0.8307 -0.6626 -0.5374
  556MOL0    Cl74969  11.891   1.588  10.892 -0.1619 -0.0930  0.0357
  556MOL0     C74970  10.739   1.568  10.671 -1.2171 -0.2302  0.2782
  556MOL0     C74971  10.614   1.528  10.614  0.1407 -1.1154  0.1121
  556MOL0     O74972  10.422   1.738  10.422  0.0279  0.5384 -0.5254
  556MOL0     C74973  10.198   1.469  10.366 -1.0063 -0.6344 -0.2554
  556MOL0     C74974  10.073   1.437  10.315  0.0263  0.4157 -0.0650
  556MOL0     N74975   9.523   1.167   9.871  0.2255 -0.1307 -0.2240
  556MOL0     N74976   9.439   1.076   9.845 -0.5329  0.4758  0.4268
  556MOL0     C74977   8.136   1.050   9.976 -0.8014  0.1527 -0.1499
  556MOL0     C74978   7.998   1.037  10.020 -1.0801  0.2935  0.0885
  556MOL0     C74979   7.557   0.900   9.993 -0.1747  0.4032  0.1455
  556MOL0     C74980   7.512   0.856  10.121  0.2284  0.0375 -0.2529
  556MOL0     C74981   7.386   0.888  10.166 -0.1800 -0.0108  0.1650
  556MOL0     C74982   7.293   0.960  10.091  0.6719  0.5636  1.1251
  556MOL0     O74983   7.165   0.997  10.133 -1.4009  0.3663 -0.0611
  556MOL0     C74984   7.092   0.931  10.246 -0.5775 -0.6713 -0.5098
  556MOL0     C74985   7.021   0.824  10.174  0.6544 -0.2342  0.0536
  556MOL0     C74986   6.920   0.752  10.258  0.6315  0.4737 -0.0059
  556MOL0     C74987   6.833   0.654  10.183  0.5495 -0.2042  0.7238
  556MOL0     C74988   6.913   0.530  10.151  0.5396  0.4362 -0.0410
  556MOL0     C74989   6.977   0.435  10.112  1.0931  0.9521 -0.4219
  556MOL0     C74990   7.331   1.008   9.966  0.1979 -0.9324 -0.7999
  556MOL0     C74991   7.464   0.978   9.918 -0.1445  0.6067 -0.0092
  556MOL0     C74992   7.506   0.997   9.769 -0.7126  0.0992  0.5777
  556MOL0     H74993   7.933   0.723   9.908  0.6473  0.9805 -2.0435
  556MOL0     H74994   8.174   0.743   9.828 -0.2179 -1.6121  2.8577
  556MOL0     H74995   8.391   0.768   9.919  3.4049 -2.0617  0.6515
  556MOL0     H74996   8.464   0.835   9.780 -0.2225  1.3659 -0.5914
  556MOL0     H74997   8.615   0.846   9.985 -0.2671  0.1861  1.3689
  556MOL0     H74998   8.494   0.949  10.075 -0.3387  0.5964 -0.8383
  556MOL0     H74999   8.623   1.114  10.001 -0.2462 -2.1546  0.7984
  556MOL0     H75000   8.530   1.109   9.853  1.4158  4.2556  2.2344
  556MOL0     H75001   8.710   0.923   9.771 -1.1326  0.5856 -1.5460
  556MOL0     H75002   8.722   1.102   9.745 -1.9760  1.1313  1.0132
  556MOL0     H75003   8.867   1.140   9.908  0.4043  1.6315 -3.9720
  556MOL0     H75004   8.873   0.963   9.962 -1.1965 -0.6342 -1.1404
  556MOL0     H75005   8.988   0.912   9.759 -0.6145 -1.1387 -0.2560
  556MOL0     H75006   8.952   1.072   9.687 -1.7246  1.0702  0.1230
  556MOL0     H75007   9.113   1.026   9.937 -2.0315 -0.8114 -0.1153
  556MOL0     H75008   9.073   1.188   9.867  0.5003  1.1822 -0.5895
  556MOL0     H75009   9.236   0.990   9.696  1.4760 -0.9032  1.2932
  556MOL0     H75010   9.182   1.154   9.660 -0.5309 -0.1025  0.8281
  556MOL0     H75011   9.240   1.336   9.844  1.5885  0.2295 -2.7320
  556MOL0     H75012   9.573   1.465   9.858 -3.0452 -1.4225 -2.9639
  556MOL0     H75013   9.435   1.492   9.967 -1.2263  0.3898 -1.7749
  556MOL0     H75014   9.626   1.531  10.088 -2.0265  0.7253 -0.4317
  556MOL0     H75015   9.562   1.379  10.148  2.8131  2.3506  3.3902
  556MOL0     H75016   9.788   1.411   9.942 -1.6491  1.6307 -0.4840
  556MOL0     H75017   9.723   1.257  10.020  0.8576 -1.0166 -0.0754
  556MOL0     H75018   9.935   1.303  10.125  1.0422  0.9716 -0.6080
  556MOL0     H75019   9.802   1.324  10.234  1.6660  2.3707  1.4334
  556MOL0     H75020  10.009   1.738  10.180 -1.1332 -0.1191  0.4788
  556MOL0     H75021  10.217   1.795  10.281 -1.7932  0.4199 -0.9599
  556MOL0     H75022  10.710   1.551  10.279 -1.1252 -0.2545 -0.4436
  556MOL0     H75023  10.929   1.563  10.402 -0.6743  0.2307 -1.9610
  556MOL0     H75024  10.914   1.752  10.822 -0.5163 -1.0438  1.8832
  556MOL0     H75025  10.951   1.583  10.853 -0.7563 -0.2251 -0.2855
  556MOL0     H75026  11.145   1.690  10.931  3.2413 -3.2065  0.1638
  556MOL0     H75027  11.178   1.615  10.771 -0.3643  0.9435  0.4587
  556MOL0     H75028  11.167   1.829  10.661 -1.1940 -3.9481 -1.0247
  556MOL0     H75029  11.108   1.907  10.805 -1.3661 -1.1408  0.3726
  556MOL0     H75030  11.307   1.861  10.926  0.2693 -2.1472  0.0565
  556MOL0     H75031  11.320   1.979  10.799  1.0749 -0.8250 -1.3483
  556MOL0     H75032  11.479   1.853  10.681  0.3175  0.7327  0.4497
  556MOL0     H75033  11.386   1.706  10.710 -1.8109  0.2343  1.0979
  556MOL0     H75034  11.583   1.840  10.915  0.2676  0.0310  0.5096
  556MOL0     H75035  11.488   1.685  10.934 -0.9041 -2.0765 -1.6344
  556MOL0     H75036  11.715   1.742  10.749  1.7078  1.3677  1.7790
  556MOL0     H75037  11.620   1.593  10.743 -0.2284  1.0671 -1.6396
  556MOL0     H75038  11.717   1.684  11.017  1.7344 -0.0703 -0.5974
  556MOL0     H75039  11.689   1.523  10.948  1.0544 -1.1909  0.4468
  556MOL0     H75040  10.742   1.594  10.777 -1.9946 -2.5833  0.9419
  556MOL0     H75041  10.530   1.502  10.677 -1.0019 -2.1938 -1.7368
  556MOL0     H75042  10.263   1.399  10.418  0.3662  0.5196 -0.3488
  556MOL0     H75043  10.021   1.343  10.333 -2.2540  1.7656  0.7752
  556MOL0     H75044   8.196   1.139   9.992  1.2305 -0.9421 -1.2322
  556MOL0     H75045   7.938   1.113  10.068 -1.1435 -1.6983  3.4499
  556MOL0     H75046   7.572   0.797  10.189 -2.0657 -1.8137  0.2630
  556MOL0     H75047   7.353   0.868  10.268 -0.6492 -1.0890 -0.1847
  556MOL0     H75048   7.030   0.996  10.309 -0.2452 -1.2435  0.4193
  556MOL0     H75049   7.156   0.881  10.319  0.5879  0.5173 -0.6685
  556MOL0     H75050   7.094   0.747  10.148  1.2149 -1.0355  3.4619
  556MOL0     H75051   6.968   0.874  10.093 -0.3257  1.7819  1.8143
  556MOL0     H75052   6.844   0.822  10.295  1.7817  2.5234 -1.3522
  556MOL0     H75053   6.960   0.702  10.347 -0.8187 -0.3161  0.2421
  556MOL0     H75054   6.739   0.629  10.232  0.6651  0.4782  1.3201
  556MOL0     H75055   6.805   0.701  10.088 -0.1085 -0.1717  0.9276
  556MOL0     H75056   7.031   0.352  10.070 -0.6535  0.1504 -1.1690
  556MOL0     H75057   7.249   1.048   9.907  0.1280 -0.4518 -0.3851
  556MOL0     H75058   7.610   1.025   9.751 -1.7805  2.2685 -3.3428
  556MOL0     H75059   7.486   0.900   9.721  0.8457 -0.2183  0.5124
  556MOL0     H75060   7.447   1.069   9.712 -1.0985 -1.3430 -0.9074
  557MOL0     O75061   5.949   0.654   2.652 -0.0680 -0.2377  0.1593
  557MOL0     C75062   5.979   0.537   2.672  0.0720  0.3170  1.1254
  557MOL0     O75063   5.893   0.432   2.648 -0.1276 -0.5713 -0.0194
  557MOL0     C75064   5.769   0.467   2.612 -0.4172 -0.4754 -0.0264
  557MOL0     C75065   5.682   0.530   2.705  0.0285 -0.7033  0.6483
  557MOL0     C75066   5.546   0.554   2.668  0.2392  0.2102  0.2205
  557MOL0     C75067   5.507   0.526   2.537  0.3746  0.3278 -0.1213
  557MOL0     O75068   5.379   0.558   2.502 -0.2663 -0.1683 -0.6435
  557MOL0     C75069   5.341   0.603   2.369  0.6560  0.4077 -0.3079
  557MOL0     C75070   5.267   0.740   2.379 -0.5218 -0.5563  0.5064
  557MOL0     C75071   5.147   0.721   2.476 -0.5810  0.0583  0.5276
  557MOL0     C75072   5.079   0.866   2.483  0.6655  0.2378 -0.7764
  557MOL0     C75073   4.946   0.857   2.568 -0.1885 -0.4787  0.1984
  557MOL0     C75074   4.968   0.789   2.703 -0.7577  0.1626 -0.3854
  557MOL0     C75075   5.042   0.890   2.796 -0.1996 -0.6411  0.6300
  557MOL0     C75076   4.968   1.023   2.833 -0.0452  0.0003 -0.1700
  557MOL0     N75077   5.074   1.094   2.916  0.4306  0.2071 -1.0747
  557MOL0     C75078   5.125   1.040   3.033 -0.1060 -0.1086  0.2129
  557MOL0     C75079   5.223   1.135   3.059  0.0221  0.8111  0.7571
  557MOL0     C75080   5.303   1.134   3.177  0.4484  0.5059 -0.9664
  557MOL0     C75081   5.429   1.209   3.183  0.2299 -0.1704  0.4317
  557MOL0     C75082   5.477   1.227   3.332 -1.2337  0.0492 -0.2347
  557MOL0     C75083   5.620   1.286   3.333  1.2234  0.9163 -0.3843
  557MOL0     O75084   5.706   1.204   3.254  0.7739  0.4243 -0.2292
  557MOL0     C75085   5.836   1.260   3.238 -1.2567 -0.3218 -0.2978
  557MOL0     C75086   5.904   1.188   3.144 -0.2030  0.3972 -0.8413
  557MOL0     C75087   6.038   1.236   3.101  0.6611 -1.2017  0.5934
  557MOL0     C75088   6.095   1.357   3.163 -1.0138 -0.5023  0.2110
  557MOL0     C75089   6.232   1.400   3.119  0.3160 -0.9927 -0.1389
  557MOL0     O75090   6.287   1.498   3.191 -0.0716  0.1175  0.0082
  557MOL0     C75091   6.415   1.539   3.159 -0.1976 -0.1340  0.4316
  557MOL0     C75092   6.434   1.619   3.056  1.1177 -0.4840  0.9719
  557MOL0     C75093   6.555   1.665   3.021  1.0256 -0.6497 -0.2969
  557MOL0     C75094   6.669   1.610   3.084  0.1010 -0.0187  1.2054
  557MOL0     O75095   6.798   1.626   3.038 -0.6643  0.2265 -0.2155
  557MOL0     C75096   6.833   1.739   2.953  0.2414 -0.0885 -0.5545
  557MOL0     C75097   6.978   1.776   2.953  0.1071 -0.0741  0.1211
  557MOL0     C75098   7.065   1.662   2.894  0.0971  0.4413 -0.3989
  557MOL0     C75099   7.203   1.718   2.905 -0.1706 -0.0438 -0.1831
  557MOL0     C75100   7.299   1.600   2.902  0.4100  0.6924 -1.1228
  557MOL0     C75101   7.437   1.649   2.879  0.2094 -0.1735 -0.9943
  557MOL0     C75102   7.531   1.537   2.896 -0.7105  0.5057  0.2607
  557MOL0     C75103   7.661   1.578   2.827  0.4919  1.1992 -0.5161
  557MOL0    Cl75104   7.779   1.444   2.863  0.4607 -0.0196 -0.3928
  557MOL0     C75105   6.657   1.519   3.187 -0.3143  0.4473 -0.3621
  557MOL0     C75106   6.526   1.486   3.232  0.3557 -0.3156  0.2294
  557MOL0     O75107   6.264   1.361   3.006 -0.1169  0.3388  0.0240
  557MOL0     C75108   6.025   1.412   3.266  0.4798 -0.1412  0.2337
  557MOL0     C75109   5.893   1.373   3.296 -0.8827  0.6233  0.6053
  557MOL0     N75110   5.217   1.239   2.966 -0.8569 -0.3055 -1.1141
  557MOL0     N75111   5.127   1.213   2.881  0.5301 -0.0496  0.3557
  557MOL0     C75112   5.594   0.463   2.448 -0.5421 -0.3448  0.2884
  557MOL0     C75113   5.721   0.436   2.485 -0.4981  0.5443  0.0917
  557MOL0     C75114   6.113   0.512   2.728 -0.1896 -0.0654  0.5301
  557MOL0     C75115   6.122   0.406   2.810  0.0486 -0.8465 -1.7627
  557MOL0     C75116   6.237   0.361   2.876 -0.0875  0.7753 -1.3684
  557MOL0     C75117   6.355   0.429   2.863 -0.3670 -0.6251  0.4161
  557MOL0     O75118   6.481   0.392   2.905  0.3544  0.6288 -0.1196
  557MOL0     C75119   6.491   0.285   2.997 -0.5317 -0.2071 -0.5164
  557MOL0     C75120   6.636   0.256   3.025  0.0690 -0.7405  0.2141
  557MOL0     C75121   6.648   0.140   3.116 -0.1043  0.8983 -0.5813
  557MOL0     C75122   6.788   0.117   3.166 -0.4087  0.0288  0.4567
  557MOL0     C75123   6.789   0.009   3.261 -0.0180 -0.2077 -0.2891
  557MOL0     C75124   6.795  -0.074   3.352 -0.9631 -1.1473 -0.1022
  557MOL0     C75125   6.351   0.542   2.782 -0.2776  0.1841  0.4716
  557MOL0     C75126   6.234   0.588   2.718  0.3462 -0.3444  0.1719
  557MOL0     C75127   6.252   0.704   2.634 -0.3073  0.1079 -0.5866
  557MOL0     H75128   5.712   0.554   2.807  1.5655  1.6755 -0.2922
  557MOL0     H75129   5.481   0.607   2.737  0.5539  1.0492 -0.1021
  557MOL0     H75130   5.426   0.619   2.302  0.8191 -0.0775 -0.2188
  557MOL0     H75131   5.278   0.527   2.322  1.4496 -1.0897  0.9663
  557MOL0     H75132   5.238   0.764   2.277 -0.9272 -1.7299  0.3260
  557MOL0     H75133   5.328   0.823   2.415 -0.3985 -0.7296  0.7046
  557MOL0     H75134   5.193   0.687   2.569 -0.9548 -4.7893 -0.8119
  557MOL0     H75135   5.075   0.642   2.453  0.3101 -0.5295 -0.2620
  557MOL0     H75136   5.149   0.937   2.529  0.9558  0.3340 -1.3601
  557MOL0     H75137   5.038   0.894   2.386 -3.0435  1.1881  0.8741
  557MOL0     H75138   4.898   0.952   2.590  3.4511  0.7487  4.2719
  557MOL0     H75139   4.876   0.793   2.513  0.0858  0.0138 -0.7473
  557MOL0     H75140   4.873   0.770   2.754  0.6356  0.3736  2.5133
  557MOL0     H75141   5.018   0.694   2.684 -1.8136 -0.1423 -1.7757
  557MOL0     H75142   5.137   0.916   2.749 -0.1395  1.3897  1.7549
  557MOL0     H75143   5.065   0.823   2.878 -1.1442 -0.4771  1.0373
  557MOL0     H75144   4.951   1.080   2.741  2.4471  0.9542 -0.0994
  557MOL0     H75145   4.876   0.987   2.880 -0.5859 -1.1346 -2.0035
  557MOL0     H75146   5.103   0.950   3.088  3.8456 -1.3975 -0.0475
  557MOL0     H75147   5.240   1.173   3.257  0.7338 -1.9350  0.5804
  557MOL0     H75148   5.314   1.027   3.200 -2.9320  0.3286  0.3462
  557MOL0     H75149   5.495   1.142   3.127  0.7260  3.3717 -3.6839
  557MOL0     H75150   5.402   1.303   3.135 -3.3254  0.0759  2.5111
  557MOL0     H75151   5.479   1.135   3.392  2.2050  1.4575  2.0900
  557MOL0     H75152   5.411   1.295   3.385 -1.7815 -0.8672  0.2927
  557MOL0     H75153   5.658   1.283   3.435  0.5363 -0.7329 -0.1493
  557MOL0     H75154   5.610   1.384   3.286 -0.4770  0.2476 -1.5266
  557MOL0     H75155   5.867   1.098   3.096  2.2750 -0.4380 -1.3440
  557MOL0     H75156   6.087   1.178   3.024 -0.7943 -0.4890 -0.9211
  557MOL0     H75157   6.349   1.650   2.997 -0.1145 -2.4839  1.5991
  557MOL0     H75158   6.558   1.733   2.937  0.7445  0.3915  0.5185
  557MOL0     H75159   6.807   1.726   2.848  1.3550  1.7062 -1.0956
  557MOL0     H75160   6.799   1.833   2.997  0.6771  0.2522 -0.9388
  557MOL0     H75161   6.989   1.857   2.880 -0.1225  0.4565  0.6635
  557MOL0     H75162   7.002   1.808   3.055 -0.5595 -1.9942  0.9297
  557MOL0     H75163   7.061   1.570   2.952  0.7284  0.9748  0.5358
  557MOL0     H75164   7.037   1.637   2.792  2.2013  1.2098 -1.2221
  557MOL0     H75165   7.235   1.773   2.994  0.2480 -1.3673  0.5018
  557MOL0     H75166   7.219   1.791   2.825  2.7511  2.1516  2.1683
  557MOL0     H75167   7.280   1.533   2.819  0.2015 -0.5269 -0.1246
  557MOL0     H75168   7.308   1.549   2.999  0.3174  3.4073  0.4297
  557MOL0     H75169   7.446   1.696   2.780  2.2117 -2.4612 -2.0041
  557MOL0     H75170   7.459   1.727   2.952  2.5167  1.5916 -3.3802
  557MOL0     H75171   7.498   1.444   2.849  3.6993 -1.1907 -0.0461
  557MOL0     H75172   7.551   1.524   3.003  2.4083  0.3152 -0.2350
  557MOL0     H75173   7.643   1.608   2.723  0.5404  1.8973 -0.3320
  557MOL0     H75174   7.701   1.666   2.879 -0.9118  0.3146  2.2643
  557MOL0     H75175   6.735   1.456   3.231 -0.0271  0.8749 -0.2497
  557MOL0     H75176   6.518   1.426   3.322 -1.7714  0.4487  0.6077
  557MOL0     H75177   6.062   1.491   3.329 -2.6802 -0.1598  2.3295
  557MOL0     H75178   5.843   1.430   3.374  0.1216  0.1035  1.6711
  557MOL0     H75179   5.572   0.436   2.345  0.5472 -0.4841  0.0768
  557MOL0     H75180   5.791   0.383   2.421 -0.8782  1.4475 -1.1074
  557MOL0     H75181   6.032   0.344   2.814 -0.5017 -0.0354 -1.3772
  557MOL0     H75182   6.226   0.269   2.932 -2.1974  2.0549  0.4768
  557MOL0     H75183   6.449   0.197   2.947  1.0762 -0.7852 -0.9235
  557MOL0     H75184   6.432   0.309   3.086  0.6571 -0.8465  0.4752
  557MOL0     H75185   6.687   0.331   3.086  0.8253 -1.9966  1.1823
  557MOL0     H75186   6.698   0.235   2.937  1.2548 -2.6867  1.4106
  557MOL0     H75187   6.613   0.048   3.068  0.6605 -0.1492  0.7767
  557MOL0     H75188   6.589   0.175   3.201  0.4317  3.2621 -1.1206
  557MOL0     H75189   6.858   0.108   3.082  0.9217 -0.3471  1.5659
  557MOL0     H75190   6.822   0.208   3.217 -1.1287  0.1127  0.7957
  557MOL0     H75191   6.802  -0.142   3.435  3.0830  1.1981  1.7671
  557MOL0     H75192   6.451   0.577   2.762  1.0156 -2.6835  1.4015
  557MOL0     H75193   6.338   0.765   2.662 -1.2427  1.4169 -0.4744
  557MOL0     H75194   6.265   0.684   2.527 -1.1842 -2.0839 -0.3333
  557MOL0     H75195   6.174   0.776   2.662 -0.0592 -0.2150  1.0121
  558MOL0     O75196   8.338   6.393   7.417  0.2957  0.3895  0.7354
  558MOL0     C75197   8.296   6.279   7.452  0.7665  0.1926  0.3971
  558MOL0     O75198   8.373   6.161   7.462 -0.0163  0.4394 -0.5387
  558MOL0     C75199   8.506   6.153   7.412 -0.0927  0.7931 -0.0912
  558MOL0     C75200   8.588   6.045   7.465 -0.2356 -0.2753 -0.5541
  558MOL0     C75201   8.720   6.035   7.429 -0.1123 -0.0617  0.2982
  558MOL0     C75202   8.777   6.109   7.335 -0.1699 -0.5947  0.5889
  558MOL0     O75203   8.913   6.081   7.315  0.5918  1.0405  0.2275
  558MOL0     C75204   8.999   6.171   7.249  0.9494 -0.1232 -0.5934
  558MOL0     C75205   9.143   6.145   7.286 -0.8638 -0.1673 -0.1694
  558MOL0     C75206   9.228   6.253   7.208  0.2391 -0.1555 -0.3896
  558MOL0     C75207   9.377   6.224   7.206 -0.3527  0.6229  0.1834
  558MOL0     C75208   9.453   6.304   7.315  0.9165 -0.1050  0.1318
  558MOL0     C75209   9.586   6.239   7.340  0.0368  0.0889  0.0672
  558MOL0     C75210   9.681   6.243   7.216  0.0047  0.4848 -0.2634
  558MOL0     C75211   9.685   6.388   7.159  0.0323  0.0059 -0.8987
  558MOL0     N75212   9.786   6.405   7.044 -0.2353  0.3543 -0.5099
  558MOL0     C75213   9.804   6.310   6.947  0.1940  1.0749 -0.0083
  558MOL0     C75214   9.899   6.360   6.859  0.2625 -0.5626 -0.5097
  558MOL0     C75215   9.966   6.297   6.738 -1.3320 -0.4682 -0.0672
  558MOL0     C75216   9.869   6.294   6.617 -0.3044 -0.2342  0.3758
  558MOL0     C75217   9.944   6.266   6.484 -0.0130  0.5566  0.1076
  558MOL0     C75218   9.836   6.224   6.381  0.2753 -0.0721  0.5811
  558MOL0     O75219   9.791   6.097   6.412  0.7474  0.3127 -0.0274
  558MOL0     C75220   9.709   6.034   6.326 -0.2250  0.1215  0.1160
  558MOL0     C75221   9.616   5.958   6.388  0.4583  0.0636 -0.1533
  558MOL0     C75222   9.512   5.893   6.318  0.6367  1.0416 -0.2722
  558MOL0     C75223   9.513   5.890   6.180 -0.3063 -0.6959 -0.3917
  558MOL0     C75224   9.436   5.787   6.105  0.7418  0.2290 -0.2865
  558MOL0     O75225   9.392   5.677   6.178  0.0564  0.0728 -0.4028
  558MOL0     C75226   9.323   5.571   6.129 -0.7989 -0.0434 -0.3612
  558MOL0     C75227   9.230   5.584   6.025  0.2022  0.0026  1.1446
  558MOL0     C75228   9.163   5.466   5.972 -0.0225  0.2730 -0.5077
  558MOL0     C75229   9.177   5.338   6.038 -0.3235 -0.7194 -1.0556
  558MOL0     O75230   9.101   5.237   5.983 -0.2869 -0.1657  0.3980
  558MOL0     C75231   9.182   5.128   5.933 -0.6551 -0.6266  0.0408
  558MOL0     C75232   9.246   5.172   5.803  0.1808 -0.6323 -0.3741
  558MOL0     C75233   9.345   5.069   5.767  0.1846 -0.2787 -0.3516
  558MOL0     C75234   9.408   5.111   5.624 -0.4220 -0.1887 -0.5578
  558MOL0     C75235   9.507   4.998   5.582 -0.5165 -1.5380  0.3247
  558MOL0     C75236   9.607   4.961   5.687 -0.5719 -0.4989 -0.3667
  558MOL0     C75237   9.713   4.866   5.635  0.5052 -0.0377 -0.0137
  558MOL0     C75238   9.839   4.867   5.721  0.4677  0.7421  0.5304
  558MOL0    Cl75239   9.985   4.834   5.614  0.2792  0.0143 -0.3905
  558MOL0     C75240   9.253   5.337   6.156 -1.1304  0.1620 -0.9351
  558MOL0     C75241   9.324   5.448   6.198 -0.1569  0.4850  0.3375
  558MOL0     O75242   9.416   5.808   5.984  0.2612  0.3571 -0.3819
  558MOL0     C75243   9.608   5.966   6.115  0.1614  0.5929 -0.7196
  558MOL0     C75244   9.699   6.053   6.185  0.7687  0.5948  1.0306
  558MOL0     N75245   9.936   6.477   6.922  0.2067 -1.4598 -0.1072
  558MOL0     N75246   9.865   6.514   7.024 -0.0113  0.5427  0.0535
  558MOL0     C75247   8.700   6.221   7.280  0.0811  0.1618  0.3383
  558MOL0     C75248   8.561   6.236   7.313 -0.3584 -0.6954 -0.1917
  558MOL0     C75249   8.152   6.258   7.492 -0.3765 -0.4451  0.1825
  558MOL0     C75250   8.118   6.132   7.527  0.3309  0.0729 -0.0513
  558MOL0     C75251   7.985   6.098   7.554 -0.5659  0.2628 -0.3837
  558MOL0     C75252   7.880   6.181   7.525 -0.5468 -0.2792 -0.9801
  558MOL0     O75253   7.756   6.141   7.568  0.1013 -0.1681 -0.7404
  558MOL0     C75254   7.644   6.230   7.581  0.0127 -0.4860  0.2886
  558MOL0     C75255   7.564   6.181   7.704  0.6638  0.0369 -0.6690
  558MOL0     C75256   7.621   6.222   7.842  0.3454  0.4285 -0.4844
  558MOL0     C75257   7.505   6.205   7.945  0.5150 -0.0820  1.8061
  558MOL0     C75258   7.550   6.275   8.064  0.2245 -0.4280 -0.4663
  558MOL0     C75259   7.575   6.335   8.162 -0.8224  0.1554 -0.5389
  558MOL0     C75260   7.918   6.307   7.469  0.1498 -0.0092  0.1341
  558MOL0     C75261   8.047   6.350   7.462  0.1777  0.1612  0.9559
  558MOL0     C75262   8.070   6.492   7.414 -0.0662 -0.1325  0.1085
  558MOL0     H75263   8.548   5.972   7.534 -1.8446  2.8577  2.1044
  558MOL0     H75264   8.783   5.953   7.462  0.8739  0.3321 -0.5494
  558MOL0     H75265   8.988   6.173   7.141  1.2827  2.3126 -0.6352
  558MOL0     H75266   8.980   6.276   7.274 -1.9076 -0.0847 -2.5090
  558MOL0     H75267   9.174   6.044   7.257  0.6942 -0.0218  0.8012
  558MOL0     H75268   9.149   6.154   7.395  0.7801 -1.3150 -0.1126
  558MOL0     H75269   9.211   6.340   7.272  2.9463 -0.9246  1.5909
  558MOL0     H75270   9.206   6.273   7.103  1.8216  1.3016 -0.4959
  558MOL0     H75271   9.384   6.117   7.228 -2.8157  0.1939 -0.7303
  558MOL0     H75272   9.416   6.253   7.108  0.5498 -2.7950 -0.5976
  558MOL0     H75273   9.470   6.411   7.297  0.9743 -0.2041 -0.4416
  558MOL0     H75274   9.395   6.297   7.407 -1.0084 -0.1648 -1.0371
  558MOL0     H75275   9.626   6.293   7.426  0.0797 -0.8909  0.6757
  558MOL0     H75276   9.585   6.138   7.380  0.3041 -1.1155 -2.7429
  558MOL0     H75277   9.652   6.171   7.139  4.6761  0.8180 -2.6461
  558MOL0     H75278   9.780   6.222   7.258 -1.3530 -0.3142  2.8682
  558MOL0     H75279   9.587   6.427   7.131  0.1852  2.2004  1.3302
  558MOL0     H75280   9.723   6.448   7.242 -0.1072 -1.7066  0.4684
  558MOL0     H75281   9.775   6.205   6.950 -1.0179  1.4071  0.5059
  558MOL0     H75282  10.050   6.360   6.706 -1.0896 -1.0805 -0.6686
  558MOL0     H75283  10.002   6.201   6.776  1.9759 -0.2123 -2.1703
  558MOL0     H75284   9.781   6.234   6.642 -0.6621  0.2699  0.3318
  558MOL0     H75285   9.826   6.394   6.609  0.8412  0.2036 -0.6645
  558MOL0     H75286  10.023   6.196   6.512  0.7104  0.4598 -1.9735
  558MOL0     H75287   9.997   6.354   6.447  0.6980  0.8137  1.6814
  558MOL0     H75288   9.880   6.221   6.281 -1.2858 -1.3373 -0.1153
  558MOL0     H75289   9.750   6.290   6.372  0.3401 -0.0859 -0.2157
  558MOL0     H75290   9.605   5.935   6.493 -2.6283  2.6861  0.2755
  558MOL0     H75291   9.439   5.833   6.372 -0.1177  1.8706 -0.3371
  558MOL0     H75292   9.212   5.684   5.987  3.4421 -0.1179 -1.1001
  558MOL0     H75293   9.105   5.486   5.882 -2.6580  0.2562  1.0829
  558MOL0     H75294   9.263   5.106   6.004  1.1497 -0.9412 -2.0171
  558MOL0     H75295   9.119   5.039   5.922  0.6716 -1.5554 -0.3139
  558MOL0     H75296   9.167   5.185   5.728  1.9356  1.2562 -2.0050
  558MOL0     H75297   9.299   5.267   5.811  0.1473 -0.7171  1.2061
  558MOL0     H75298   9.418   5.065   5.849 -0.0577 -0.5321 -0.1487
  558MOL0     H75299   9.296   4.972   5.766  0.2356 -0.3078  0.0658
  558MOL0     H75300   9.456   5.209   5.631 -0.8417 -0.0266  0.0879
  558MOL0     H75301   9.333   5.136   5.548  0.4803  2.8228 -0.5704
  558MOL0     H75302   9.565   5.039   5.499  0.7032 -0.3464  1.7056
  558MOL0     H75303   9.453   4.906   5.558  1.2892 -1.7537 -3.6900
  558MOL0     H75304   9.650   5.054   5.728 -2.7502  0.0825  0.7424
  558MOL0     H75305   9.567   4.906   5.773  0.0700  0.2264  0.4228
  558MOL0     H75306   9.738   4.892   5.531  2.1690 -0.9243  0.1334
  558MOL0     H75307   9.670   4.766   5.641 -1.0430  0.5821 -0.3858
  558MOL0     H75308   9.859   4.964   5.769  1.3165  0.7025  0.2532
  558MOL0     H75309   9.820   4.792   5.799 -2.0257  1.1320  0.4064
  558MOL0     H75310   9.258   5.238   6.201 -1.4779  0.1321 -0.9576
  558MOL0     H75311   9.373   5.432   6.294 -3.5757 -1.1970  1.9509
  558MOL0     H75312   9.607   5.964   6.006 -0.3125  1.7569 -0.7439
  558MOL0     H75313   9.780   6.102   6.132  0.4538  1.2772  1.1831
  558MOL0     H75314   8.737   6.278   7.196  2.0191 -3.5453 -1.5570
  558MOL0     H75315   8.508   6.317   7.264  0.8606  1.8062  2.3317
  558MOL0     H75316   8.190   6.058   7.562  0.2544  0.3252  0.6581
  558MOL0     H75317   7.977   6.001   7.603 -1.5545  0.2978 -0.4689
  558MOL0     H75318   7.573   6.226   7.499 -0.5204  0.6460  0.6695
  558MOL0     H75319   7.689   6.329   7.591  0.6713 -0.7306 -0.2035
  558MOL0     H75320   7.549   6.073   7.703  0.8244  0.0112 -1.8174
  558MOL0     H75321   7.466   6.226   7.682 -0.4334 -1.0219  1.7203
  558MOL0     H75322   7.650   6.327   7.835  2.5749  0.7123  6.1533
  558MOL0     H75323   7.706   6.163   7.877  2.2295  3.6950  0.8080
  558MOL0     H75324   7.415   6.257   7.910  1.7038  1.4295  0.9284
  558MOL0     H75325   7.497   6.097   7.963 -1.9318 -0.0889  1.0115
  558MOL0     H75326   7.620   6.394   8.239  1.7621 -3.1629  0.7408
  558MOL0     H75327   7.829   6.364   7.447  0.5148  1.9505  3.1150
  558MOL0     H75328   7.981   6.550   7.442 -2.6579 -2.3444 -2.8266
  558MOL0     H75329   8.163   6.531   7.456  2.9685 -0.9814 -5.0555
  558MOL0     H75330   8.089   6.506   7.307 -0.0351  0.1423  0.1487
  559MOL0     O75331   2.896   0.476   2.411  0.3400  1.1456 -0.4869
  559MOL0     C75332   2.907   0.374   2.486 -0.0650  0.4903  1.0682
  559MOL0     O75333   2.999   0.270   2.478  0.5859 -0.0067 -0.1355
  559MOL0     C75334   3.063   0.257   2.356  0.4397  0.4069 -0.8862
  559MOL0     C75335   2.998   0.277   2.231  0.7079  0.0936 -0.5335
  559MOL0     C75336   3.055   0.239   2.112 -0.5957  0.0102 -0.2428
  559MOL0     C75337   3.192   0.194   2.117  0.7885 -0.8979  0.2913
  559MOL0     O75338   3.257   0.171   1.997 -0.0964 -0.1630 -0.2975
  559MOL0     C75339   3.395   0.211   2.002  0.3657  0.2763 -0.1613
  559MOL0     C75340   3.436   0.239   1.861  0.8458 -0.4799  0.0526
  559MOL0     C75341   3.589   0.263   1.847  0.0331 -0.2905 -0.0043
  559MOL0     C75342   3.630   0.271   1.707 -0.1780 -0.7108  0.5870
  559MOL0     C75343   3.782   0.268   1.695 -0.6033  0.0904  0.0565
  559MOL0     C75344   3.830   0.299   1.551 -0.6407 -0.0208  0.3066
  559MOL0     C75345   3.990   0.303   1.554 -0.0129  0.1121 -0.2628
  559MOL0     C75346   4.060   0.163   1.580  0.6367  0.1408 -0.4864
  559MOL0     N75347   4.187   0.148   1.506 -1.0453 -0.2071 -0.7928
  559MOL0     C75348   4.279   0.250   1.487 -0.1138  0.0867  0.2699
  559MOL0     C75349   4.357   0.213   1.387 -0.0828 -0.6613  0.2364
  559MOL0     C75350   4.469   0.296   1.331 -0.3538  0.0023 -0.0238
  559MOL0     C75351   4.534   0.395   1.431 -0.7354  0.0736 -0.5215
  559MOL0     C75352   4.626   0.323   1.531 -0.2993  0.5925 -0.9280
  559MOL0     C75353   4.675   0.438   1.623 -0.6938  0.5130 -0.1630
  559MOL0     O75354   4.763   0.535   1.558  0.3687  0.9237  0.1970
  559MOL0     C75355   4.896   0.523   1.555 -0.3338 -0.7932  0.4604
  559MOL0     C75356   4.965   0.631   1.514 -0.2772 -0.2659  0.1350
  559MOL0     C75357   5.104   0.623   1.477  0.4809 -0.1450  0.0640
  559MOL0     C75358   5.175   0.509   1.490 -0.9107  0.8126  0.4380
  559MOL0     C75359   5.319   0.489   1.488 -0.3740  0.5244 -0.0229
  559MOL0     O75360   5.375   0.369   1.528  0.2791  0.1927  0.2380
  559MOL0     C75361   5.508   0.373   1.527 -1.0125  0.3086  0.5857
  559MOL0     C75362   5.598   0.432   1.624 -0.2893  0.0969  0.2586
  559MOL0     C75363   5.734   0.432   1.610 -0.6832  0.2345 -0.4784
  559MOL0     C75364   5.785   0.374   1.492  0.0006 -0.7081  0.2245
  559MOL0     O75365   5.922   0.373   1.463  0.6407 -0.0618 -0.1925
  559MOL0     C75366   6.007   0.425   1.562  0.3913 -0.5557  0.1794
  559MOL0     C75367   6.158   0.422   1.519  0.4404  0.4088 -0.4359
  559MOL0     C75368   6.234   0.481   1.639 -0.0619  0.8884  0.9241
  559MOL0     C75369   6.382   0.419   1.639 -0.0052 -0.0618 -0.0821
  559MOL0     C75370   6.474   0.470   1.746 -0.0176 -1.2379  0.2144
  559MOL0     C75371   6.610   0.398   1.763 -0.5353  0.9271  0.3380
  559MOL0     C75372   6.684   0.462   1.877  0.6935 -0.2912 -0.1200
  559MOL0     C75373   6.801   0.392   1.935  0.2530  0.0307  0.1094
  559MOL0    Cl75374   6.928   0.364   1.821  0.1597  0.0827 -0.0286
  559MOL0     C75375   5.708   0.321   1.393 -0.0812 -0.3907 -0.9185
  559MOL0     C75376   5.574   0.306   1.425  0.0596  0.2615  0.1245
  559MOL0     O75377   5.383   0.591   1.456 -0.0306 -0.7328  0.1035
  559MOL0     C75378   5.100   0.391   1.529  0.5693 -0.1790  0.5654
  559MOL0     C75379   4.965   0.401   1.562  0.0756 -0.8300  0.0323
  559MOL0     N75380   4.310   0.089   1.344 -0.9514 -0.3040  0.2003
  559MOL0     N75381   4.221   0.048   1.416 -0.3561 -0.1240 -0.3284
  559MOL0     C75382   3.252   0.163   2.235 -0.0493  0.3287 -0.2238
  559MOL0     C75383   3.195   0.206   2.356 -0.0086  0.4774 -0.2177
  559MOL0     C75384   2.801   0.366   2.598  0.2658  0.5520  0.6290
  559MOL0     C75385   2.800   0.251   2.682  0.6487  0.1694  0.3419
  559MOL0     C75386   2.715   0.237   2.795  0.0955  0.9420 -0.7845
  559MOL0     C75387   2.637   0.341   2.830  0.2205  0.1663 -0.1246
  559MOL0     O75388   2.572   0.325   2.950 -0.6676 -0.9448 -0.0059
  559MOL0     C75389   2.504   0.428   3.015 -0.3707 -0.6096 -0.8614
  559MOL0     C75390   2.591   0.557   3.054 -0.4378  0.5705 -0.4276
  559MOL0     C75391   2.518   0.676   3.126 -1.0006  0.1366 -0.5948
  559MOL0     C75392   2.373   0.696   3.080  0.1339 -0.2219 -0.4073
  559MOL0     C75393   2.266   0.607   3.132 -0.6731 -1.0747 -1.6539
  559MOL0     C75394   2.184   0.533   3.181 -0.0601 -0.5288 -0.2296
  559MOL0     C75395   2.628   0.447   2.745  0.0203 -0.4317  0.3369
  559MOL0     C75396   2.696   0.457   2.625  0.1039  0.0599  0.2356
  559MOL0     C75397   2.648   0.574   2.547  0.6238  0.2338  0.2675
  559MOL0     H75398   2.905   0.333   2.229 -0.4903 -1.5452  2.3771
  559MOL0     H75399   3.007   0.266   2.018 -3.3229 -1.3649  0.6534
  559MOL0     H75400   3.410   0.305   2.056 -1.9925  0.7744 -0.2902
  559MOL0     H75401   3.457   0.139   2.056  2.8074  2.2098 -0.1751
  559MOL0     H75402   3.382   0.330   1.834  1.5911  0.6130  2.0299
  559MOL0     H75403   3.397   0.159   1.796  2.4277 -2.1129  1.0109
  559MOL0     H75404   3.633   0.166   1.872 -0.4347 -0.4784  0.0964
  559MOL0     H75405   3.624   0.346   1.909  0.6681  1.4088 -2.4625
  559MOL0     H75406   3.598   0.184   1.649 -0.9827  2.5493 -4.5698
  559MOL0     H75407   3.592   0.357   1.651 -0.7977 -1.4813 -0.2000
  559MOL0     H75408   3.837   0.333   1.764  3.1242  0.7238 -3.1415
  559MOL0     H75409   3.825   0.172   1.723  2.0090  0.1991 -2.9491
  559MOL0     H75410   3.795   0.216   1.489  1.7119 -3.1800  2.8525
  559MOL0     H75411   3.783   0.394   1.523 -0.2267  0.8138  2.2462
  559MOL0     H75412   4.016   0.371   1.636  2.2014 -3.1239  1.9667
  559MOL0     H75413   4.025   0.354   1.464 -2.0717  2.8738  0.3586
  559MOL0     H75414   4.085   0.155   1.686  1.5020 -2.2250 -0.8039
  559MOL0     H75415   3.988   0.082   1.559 -0.1930  0.1147  2.0734
  559MOL0     H75416   4.278   0.342   1.545 -1.3190  0.2160  0.0728
  559MOL0     H75417   4.547   0.231   1.292  0.2748  0.3726  0.5829
  559MOL0     H75418   4.431   0.346   1.242  2.1454  0.8798 -0.6723
  559MOL0     H75419   4.587   0.468   1.369  2.1075 -1.3417  0.1281
  559MOL0     H75420   4.457   0.450   1.487  0.6363 -0.6720  2.2338
  559MOL0     H75421   4.705   0.265   1.483 -1.1640 -3.0340  1.6273
  559MOL0     H75422   4.575   0.251   1.595 -1.2036  2.1299  0.1639
  559MOL0     H75423   4.726   0.400   1.711 -0.5998  0.3123 -0.3033
  559MOL0     H75424   4.587   0.493   1.657 -1.3784  0.6677 -2.0695
  559MOL0     H75425   4.921   0.728   1.496  1.4521  0.0332 -3.2032
  559MOL0     H75426   5.162   0.712   1.456 -0.4198  0.2488 -0.8129
  559MOL0     H75427   5.548   0.487   1.703 -1.3848  0.1495 -0.4553
  559MOL0     H75428   5.803   0.474   1.683 -0.3561 -1.8057  0.4584
  559MOL0     H75429   5.985   0.531   1.576  0.1012 -0.2420 -2.2021
  559MOL0     H75430   5.995   0.361   1.650 -2.3104 -1.4089 -0.7074
  559MOL0     H75431   6.180   0.318   1.491 -2.2306  0.0281 -1.4519
  559MOL0     H75432   6.158   0.495   1.438 -1.3981  2.9424  1.6948
  559MOL0     H75433   6.241   0.588   1.619  2.7331  0.5265 -0.4216
  559MOL0     H75434   6.190   0.448   1.734  0.7429 -0.0907  0.9699
  559MOL0     H75435   6.418   0.429   1.536 -1.8812  1.2412 -0.6642
  559MOL0     H75436   6.360   0.316   1.668  1.3608 -0.0654  1.0526
  559MOL0     H75437   6.422   0.468   1.842 -0.4332  1.4847  0.1090
  559MOL0     H75438   6.483   0.577   1.727 -0.1303 -1.5332 -1.8167
  559MOL0     H75439   6.594   0.293   1.789  2.9569  0.0614 -0.5067
  559MOL0     H75440   6.674   0.401   1.674  0.9375 -1.1345  1.2454
  559MOL0     H75441   6.615   0.476   1.960  2.0682  1.3697  0.7833
  559MOL0     H75442   6.718   0.562   1.848 -1.1842  0.6501  0.7798
  559MOL0     H75443   6.827   0.462   2.015 -3.8702  3.7017 -1.3493
  559MOL0     H75444   6.766   0.301   1.985 -0.0311  1.3291  2.3794
  559MOL0     H75445   5.747   0.277   1.302  1.2095 -0.9774 -0.1162
  559MOL0     H75446   5.508   0.254   1.355  0.4552  0.5522 -0.4776
  559MOL0     H75447   5.143   0.293   1.548  0.2197 -0.5274 -0.4136
  559MOL0     H75448   4.911   0.314   1.600  2.0108 -1.1001  2.4036
  559MOL0     H75449   3.339   0.099   2.229 -0.8366 -1.0802  2.0955
  559MOL0     H75450   3.230   0.173   2.454  0.1476  0.2575 -0.3460
  559MOL0     H75451   2.872   0.170   2.671  0.3914  0.0902 -0.9595
  559MOL0     H75452   2.709   0.153   2.865  3.0150  1.5879  0.3991
  559MOL0     H75453   2.456   0.381   3.100 -2.0684  1.7888 -0.3952
  559MOL0     H75454   2.430   0.460   2.941  2.8991  1.9890 -3.3841
  559MOL0     H75455   2.621   0.608   2.962  0.3859 -2.0116 -1.6840
  559MOL0     H75456   2.677   0.533   3.116 -0.3904  3.9469  1.0339
  559MOL0     H75457   2.566   0.771   3.101  2.1702 -0.8709  1.0717
  559MOL0     H75458   2.522   0.664   3.235  2.1086  1.4910 -0.4611
  559MOL0     H75459   2.342   0.793   3.122 -0.3144 -0.5759  0.0871
  559MOL0     H75460   2.367   0.704   2.971 -0.6610  3.5429 -0.2524
  559MOL0     H75461   2.110   0.472   3.230  0.1862 -0.2916  0.4490
  559MOL0     H75462   2.551   0.520   2.769 -0.6374 -1.2974  0.9237
  559MOL0     H75463   2.540   0.562   2.536  0.9248 -0.8794 -2.0247
  559MOL0     H75464   2.683   0.663   2.599 -0.3218 -0.3244  1.9511
  559MOL0     H75465   2.683   0.580   2.443 -1.1182 -2.1406 -0.5547
  560MOL0     O75466   9.444   4.658   8.843  0.5315  0.3298 -1.0002
  560MOL0     C75467   9.407   4.593   8.937  0.6170  0.4894 -0.7085
  560MOL0     O75468   9.274   4.547   8.957 -0.0576  0.4350  0.6459
  560MOL0     C75469   9.165   4.555   8.863 -0.7889 -0.2220  0.0853
  560MOL0     C75470   9.052   4.491   8.903 -0.2215  0.4685 -0.2508
  560MOL0     C75471   8.940   4.485   8.821  0.1436 -0.0924  0.2584
  560MOL0     C75472   8.944   4.555   8.701  0.3424 -0.3508  0.4967
  560MOL0     O75473   8.823   4.550   8.631  0.1938  1.2244 -0.2057
  560MOL0     C75474   8.789   4.656   8.549  0.3558 -1.4464  0.0187
  560MOL0     C75475   8.646   4.630   8.491  0.1907 -0.2753 -0.1193
  560MOL0     C75476   8.547   4.605   8.605  0.1994 -0.4283  0.9157
  560MOL0     C75477   8.400   4.611   8.551  0.5650  0.6553  0.3401
  560MOL0     C75478   8.320   4.708   8.634 -1.6480  0.2786 -0.1009
  560MOL0     C75479   8.174   4.719   8.580  1.2925 -0.3239  0.1581
  560MOL0     C75480   8.095   4.812   8.665  0.8578  0.1165 -0.5693
  560MOL0     C75481   7.950   4.762   8.668  0.1301 -0.4205 -0.1591
  560MOL0     N75482   7.853   4.863   8.708  0.2697 -0.5283 -0.1203
  560MOL0     C75483   7.806   4.876   8.837 -1.0426 -0.0395 -0.0568
  560MOL0     C75484   7.729   4.981   8.835  0.2291  0.0746 -0.8777
  560MOL0     C75485   7.662   5.062   8.948 -0.0326 -0.6961 -0.7102
  560MOL0     C75486   7.519   5.004   8.994  0.5193  0.1216 -0.5175
  560MOL0     C75487   7.526   4.856   9.030  0.7708 -0.3153 -0.2095
  560MOL0     C75488   7.425   4.806   9.133 -0.4191  0.1023 -0.0492
  560MOL0     O75489   7.452   4.671   9.175  0.4991  0.3883 -0.9386
  560MOL0     C75490   7.379   4.633   9.284 -0.3583 -0.6064  0.1498
  560MOL0     C75491   7.238   4.637   9.279 -0.3274  0.0491 -0.7284
  560MOL0     C75492   7.164   4.577   9.379 -0.2647 -0.2038  0.2697
  560MOL0     C75493   7.233   4.528   9.495  0.7834  0.7996  0.2635
  560MOL0     C75494   7.159   4.466   9.617  0.6522  0.6489  0.0788
  560MOL0     O75495   7.031   4.444   9.594 -0.1739 -0.5220  0.3616
  560MOL0     C75496   6.952   4.405   9.703  0.0137 -0.1258  0.1598
  560MOL0     C75497   6.834   4.472   9.726  0.8320  0.2161 -0.1282
  560MOL0     C75498   6.741   4.431   9.824 -0.0844 -0.8884  0.2444
  560MOL0     C75499   6.765   4.313   9.901 -0.5427 -0.1539  0.0103
  560MOL0     O75500   6.680   4.259   9.990  0.6308  0.1577  0.5890
  560MOL0     C75501   6.567   4.336  10.028 -0.0274  0.2992  0.5355
  560MOL0     C75502   6.498   4.263  10.135 -0.4665 -0.5485 -0.0562
  560MOL0     C75503   6.576   4.248  10.263  0.3390  0.4122 -0.6649
  560MOL0     C75504   6.493   4.163  10.358 -0.2099 -1.0107 -0.6253
  560MOL0     C75505   6.560   4.133  10.492 -0.6212  0.5997  0.8114
  560MOL0     C75506   6.482   4.013  10.558 -0.2003  0.3227 -0.7680
  560MOL0     C75507   6.560   3.965  10.679  0.0376  0.3495  0.0775
  560MOL0     C75508   6.606   4.078  10.772  0.1333  0.4414 -0.0172
  560MOL0    Cl75509   6.458   4.174  10.834 -0.2558  0.0560  0.3788
  560MOL0     C75510   6.885   4.252   9.873 -0.3015 -0.0328 -0.6273
  560MOL0     C75511   6.977   4.295   9.784 -0.9320  0.0332 -0.3987
  560MOL0     O75512   7.210   4.449   9.729  0.2354 -0.6558  0.0571
  560MOL0     C75513   7.367   4.516   9.492 -0.0945 -0.6012 -0.9594
  560MOL0     C75514   7.445   4.573   9.389  0.2694 -0.1322 -0.7514
  560MOL0     N75515   7.727   5.023   8.708  0.3688 -0.3686 -0.7066
  560MOL0     N75516   7.800   4.957   8.629 -0.2894 -0.5671  0.6023
  560MOL0     C75517   9.063   4.616   8.656 -0.3235  0.0925 -0.2459
  560MOL0     C75518   9.168   4.621   8.744  0.8268 -0.4258 -0.1981
  560MOL0     C75519   9.487   4.544   9.049 -0.2162  0.3655 -0.0896
  560MOL0     C75520   9.431   4.489   9.165 -0.5314  0.3664  0.3104
  560MOL0     C75521   9.506   4.447   9.280 -0.1088 -0.7671 -0.0535
  560MOL0     C75522   9.643   4.474   9.291 -0.2962  0.0935 -0.1579
  560MOL0     O75523   9.740   4.448   9.392  0.3089  0.1075  0.6872
  560MOL0     C75524   9.700   4.397   9.522  0.0775 -0.5258  0.9356
  560MOL0     C75525   9.820   4.352   9.592 -0.0007  1.0073 -0.4146
  560MOL0     C75526   9.933   4.283   9.512 -0.1613  0.8593 -0.0172
  560MOL0     C75527   9.901   4.152   9.440  0.0072  0.9087  0.1923
  560MOL0     C75528   9.897   4.036   9.528 -0.3715 -0.1003 -0.3149
  560MOL0     C75529   9.883   3.951   9.615  0.7990  0.0470 -0.4884
  560MOL0     C75530   9.698   4.531   9.172  0.3193 -0.1163 -0.3194
  560MOL0     C75531   9.622   4.557   9.049  0.3343  1.0491 -0.3062
  560MOL0     C75532   9.704   4.609   8.932  0.7542  0.9330 -0.6530
  560MOL0     H75533   9.049   4.446   9.001  1.5688  1.2174  0.1802
  560MOL0     H75534   8.852   4.426   8.845 -1.2091  1.8834  0.3833
  560MOL0     H75535   8.797   4.751   8.603 -1.8825  0.5001 -2.7539
  560MOL0     H75536   8.859   4.669   8.466  2.1343 -0.1968  1.6222
  560MOL0     H75537   8.655   4.537   8.434  2.4574 -0.8257  1.0032
  560MOL0     H75538   8.610   4.711   8.427 -1.7780  0.3987  1.7075
  560MOL0     H75539   8.560   4.685   8.678  0.3623  0.5604 -0.1825
  560MOL0     H75540   8.572   4.506   8.646 -0.5408 -0.8396  0.3976
  560MOL0     H75541   8.384   4.653   8.451 -2.6096  1.9407  1.2770
  560MOL0     H75542   8.357   4.511   8.563  2.4736  0.0614  2.9616
  560MOL0     H75543   8.313   4.682   8.740 -1.3355  1.7702  0.3190
  560MOL0     H75544   8.363   4.809   8.628  3.7614 -1.7043  0.0184
  560MOL0     H75545   8.164   4.752   8.476 -0.8424 -2.1237 -0.2805
  560MOL0     H75546   8.135   4.617   8.586  1.1476 -0.2791 -0.0110
  560MOL0     H75547   8.099   4.906   8.609  0.5520 -0.7911 -2.1782
  560MOL0     H75548   8.131   4.812   8.769 -0.9851  1.5891  0.1283
  560MOL0     H75549   7.931   4.726   8.567 -0.2382  2.5273 -1.2347
  560MOL0     H75550   7.947   4.680   8.741  1.7115 -0.5378 -0.1790
  560MOL0     H75551   7.831   4.808   8.918  0.1744  0.5499  0.0975
  560MOL0     H75552   7.730   5.066   9.034 -0.9162  0.0360 -0.0341
  560MOL0     H75553   7.654   5.167   8.918  0.6975 -0.9421 -1.8300
  560MOL0     H75554   7.485   5.053   9.086 -2.0060 -1.2109 -0.6430
  560MOL0     H75555   7.443   5.008   8.915 -0.7964 -4.7047  0.1643
  560MOL0     H75556   7.626   4.837   9.070  1.5920  1.8981 -1.0759
  560MOL0     H75557   7.519   4.799   8.937  0.8657 -0.1046 -0.3456
  560MOL0     H75558   7.325   4.830   9.095  0.2262  2.0728 -0.6670
  560MOL0     H75559   7.435   4.874   9.218 -0.0320 -0.7632  0.6095
  560MOL0     H75560   7.188   4.687   9.196  0.8840  0.1897 -1.3989
  560MOL0     H75561   7.056   4.568   9.383 -0.1331 -3.9524 -0.3174
  560MOL0     H75562   6.808   4.551   9.656 -2.0189 -0.7220 -0.2547
  560MOL0     H75563   6.648   4.486   9.836  0.3474 -0.1384  0.2224
  560MOL0     H75564   6.607   4.429  10.069  0.5361  0.0725  0.5127
  560MOL0     H75565   6.501   4.360   9.944 -0.3042  0.5657  0.8307
  560MOL0     H75566   6.403   4.314  10.153 -1.5248 -2.0843 -1.0465
  560MOL0     H75567   6.477   4.162  10.100 -0.3875 -0.4925 -0.2662
  560MOL0     H75568   6.666   4.190  10.239 -1.1499 -1.2752 -2.4658
  560MOL0     H75569   6.620   4.342  10.298  2.1360  0.7051 -3.4586
  560MOL0     H75570   6.462   4.065  10.323  0.2017 -2.0690  1.7818
  560MOL0     H75571   6.404   4.218  10.391  1.5796  0.2430  2.5853
  560MOL0     H75572   6.544   4.224  10.552 -2.7515  1.9984 -1.6633
  560MOL0     H75573   6.664   4.107  10.473 -1.3975 -2.4742  0.2300
  560MOL0     H75574   6.380   4.032  10.592  0.1002  1.9505 -0.7280
  560MOL0     H75575   6.472   3.933  10.484  2.3582 -1.6330  0.8159
  560MOL0     H75576   6.649   3.911  10.645 -1.5564 -1.8514 -0.7820
  560MOL0     H75577   6.515   3.882  10.735  2.1301 -0.8196  0.1434
  560MOL0     H75578   6.660   4.031  10.855  2.3302 -0.8684 -2.0642
  560MOL0     H75579   6.681   4.139  10.720  2.5624 -0.2587  2.4244
  560MOL0     H75580   6.903   4.164   9.933  0.6604  0.5904  0.0267
  560MOL0     H75581   7.063   4.231   9.771 -1.9335 -1.4142 -0.1458
  560MOL0     H75582   7.414   4.468   9.578 -2.4365 -2.2078 -0.4821
  560MOL0     H75583   7.551   4.548   9.391  0.6794  1.5142 -0.5126
  560MOL0     H75584   9.065   4.666   8.560 -2.3222  0.6057 -0.0647
  560MOL0     H75585   9.255   4.665   8.696 -0.3825  1.1988 -0.9916
  560MOL0     H75586   9.329   4.453   9.168 -0.8317  1.2303  1.3702
  560MOL0     H75587   9.445   4.393   9.352 -0.8545 -0.5339 -0.4999
  560MOL0     H75588   9.628   4.318   9.499  0.9761 -1.3835  1.0061
  560MOL0     H75589   9.647   4.469   9.585  0.6423  0.5847  0.1798
  560MOL0     H75590   9.776   4.293   9.673 -0.0253  0.1273 -1.0524
  560MOL0     H75591   9.867   4.441   9.635  2.0368 -0.2748  0.1496
  560MOL0     H75592  10.011   4.261   9.585  1.2203  3.4145 -0.6110
  560MOL0     H75593   9.974   4.356   9.441  1.5490 -0.1682 -0.1519
  560MOL0     H75594   9.808   4.162   9.384 -1.4337 -1.4131  1.9713
  560MOL0     H75595   9.975   4.136   9.361 -0.9971  1.2637 -0.8507
  560MOL0     H75596   9.880   3.876   9.692 -1.1723 -0.4256 -0.9706
  560MOL0     H75597   9.805   4.541   9.177  0.6776 -3.0089 -0.5663
  560MOL0     H75598   9.810   4.582   8.932  1.0568  2.0289  0.5586
  560MOL0     H75599   9.660   4.569   8.840 -1.9024  0.5569  0.6882
  560MOL0     H75600   9.710   4.718   8.931  1.0423  0.9227 -0.1457
  561MOL0     O75601   6.087  10.346   6.917 -0.3969 -0.1410 -0.1361
  561MOL0     C75602   6.053  10.257   6.839  0.2043 -0.2791  0.2795
  561MOL0     O75603   6.126  10.142   6.829 -0.2964 -0.3400  0.4853
  561MOL0     C75604   6.236  10.133   6.900 -0.5278  0.8296  0.3958
  561MOL0     C75605   6.238  10.098   7.033  0.1405  0.9121 -0.0115
  561MOL0     C75606   6.364  10.056   7.093 -0.6632  1.3531  0.6195
  561MOL0     C75607   6.486  10.072   7.022  1.0835 -0.2661 -0.5085
  561MOL0     O75608   6.606  10.052   7.080 -0.7697  0.0842 -0.2108
  561MOL0     C75609   6.623  10.109   7.211 -0.0130 -0.1677  0.9751
  561MOL0     C75610   6.755  10.174   7.241  0.5951  0.6082 -0.1290
  561MOL0     C75611   6.805  10.265   7.132 -0.3474  0.0658  0.6980
  561MOL0     C75612   6.956  10.302   7.168 -0.4302 -1.4397  0.8653
  561MOL0     C75613   7.021  10.427   7.090  0.0277  0.5551 -0.1143
  561MOL0     C75614   7.012  10.419   6.938 -0.2789 -0.3431 -0.7358
  561MOL0     C75615   7.103  10.531   6.879 -0.0094 -1.3078 -0.1792
  561MOL0     C75616   7.049  10.590   6.748  1.1959  0.0605 -1.0411
  561MOL0     N75617   7.160  10.633   6.657 -0.3957 -0.4190 -0.0537
  561MOL0     C75618   7.253  10.732   6.680 -0.2318 -0.8545  0.0973
  561MOL0     C75619   7.348  10.716   6.589  0.2308 -0.0074 -0.3297
  561MOL0     C75620   7.471  10.801   6.582  0.5151  0.6870 -0.1283
  561MOL0     C75621   7.516  10.823   6.438 -0.5894 -0.6041  0.7625
  561MOL0     C75622   7.420  10.904   6.348 -0.3375 -0.7103  0.0488
  561MOL0     C75623   7.426  11.052   6.381  0.4174  0.3056  0.3415
  561MOL0     O75624   7.381  11.135   6.270  0.0096 -0.4789  0.1213
  561MOL0     C75625   7.473  11.177   6.181 -0.3015  0.9112  1.4560
  561MOL0     C75626   7.439  11.282   6.097 -0.5579  0.3655 -0.9374
  561MOL0     C75627   7.537  11.329   6.006  0.1125 -0.3960  0.2344
  561MOL0     C75628   7.664  11.272   5.989  0.9256  1.6218 -0.6970
  561MOL0     C75629   7.768  11.319   5.895  0.0668  0.5788  0.6280
  561MOL0     O75630   7.885  11.268   5.918 -0.4471 -0.6058 -0.1794
  561MOL0     C75631   8.003  11.323   5.867  0.3180 -0.8525 -0.5603
  561MOL0     C75632   8.061  11.445   5.910  0.0901  0.5095 -0.3053
  561MOL0     C75633   8.179  11.487   5.851  0.2709  0.3714  0.5047
  561MOL0     C75634   8.237  11.403   5.750 -1.1070 -0.6928  0.2190
  561MOL0     O75635   8.363  11.426   5.688  0.0678 -0.2001 -0.3633
  561MOL0     C75636   8.414  11.565   5.687  0.4446  0.2016  0.5753
  561MOL0     C75637   8.553  11.565   5.622  0.0904  0.3078  0.3399
  561MOL0     C75638   8.631  11.685   5.675  0.6972  0.3210  0.4145
  561MOL0     C75639   8.780  11.675   5.636 -1.1561 -0.0725 -0.1892
  561MOL0     C75640   8.847  11.801   5.690 -0.4148 -0.8252  0.4029
  561MOL0     C75641   8.970  11.859   5.602 -0.6220 -0.2777 -0.0820
  561MOL0     C75642   8.917  11.906   5.462  0.4836 -0.4536 -0.3438
  561MOL0     C75643   9.016  11.997   5.400 -0.4830  1.2200  0.6044
  561MOL0    Cl75644   9.148  11.888   5.344  0.0461 -0.3086  0.5716
  561MOL0     C75645   8.172  11.289   5.711 -0.0925 -0.5580 -0.0009
  561MOL0     C75646   8.062  11.248   5.771  0.5792  0.9183  0.0729
  561MOL0     O75647   7.744  11.417   5.821  0.2424 -0.2810 -0.9126
  561MOL0     C75648   7.692  11.162   6.066 -0.6834 -0.2930 -0.0632
  561MOL0     C75649   7.598  11.116   6.160  0.5351  0.0178 -0.5122
  561MOL0     N75650   7.322  10.604   6.519 -0.2476 -0.1504  0.7639
  561MOL0     N75651   7.200  10.562   6.547 -0.2750  0.0751 -0.2723
  561MOL0     C75652   6.479  10.110   6.892 -0.4743 -0.1230 -0.1102
  561MOL0     C75653   6.355  10.141   6.826  0.5875 -0.0061  0.3466
  561MOL0     C75654   5.939  10.288   6.760 -0.9903  0.4556  0.1381
  561MOL0     C75655   5.916  10.418   6.714 -0.2465 -0.0943  0.0661
  561MOL0     C75656   5.795  10.450   6.649  0.3884 -0.0023  0.0238
  561MOL0     C75657   5.717  10.353   6.598  0.8389 -0.5688 -0.8608
  561MOL0     O75658   5.602  10.383   6.527  0.2983 -0.4282 -0.2552
  561MOL0     C75659   5.595  10.353   6.387 -0.2758  0.2715 -0.3749
  561MOL0     C75660   5.662  10.461   6.303  0.0382  0.4057 -0.4513
  561MOL0     C75661   5.614  10.459   6.165  0.1525 -0.9524  0.6085
  561MOL0     C75662   5.688  10.580   6.093 -0.0149  0.5064 -0.0015
  561MOL0     C75663   5.635  10.701   6.151 -0.9507 -1.0792 -0.0435
  561MOL0     C75664   5.603  10.805   6.205  0.7126  0.4382  0.2200
  561MOL0     C75665   5.740  10.222   6.636  0.1013 -0.7094 -0.2304
  561MOL0     C75666   5.847  10.187   6.724  0.4468  0.0480 -0.3656
  561MOL0     C75667   5.840  10.040   6.768 -0.0812 -1.0330 -0.5483
  561MOL0     H75668   6.141  10.082   7.078 -0.0458 -1.1732 -1.0590
  561MOL0     H75669   6.373  10.020   7.195  0.8975  1.3769  0.5182
  561MOL0     H75670   6.540  10.180   7.222 -0.2563 -0.1952 -0.4888
  561MOL0     H75671   6.611  10.024   7.280 -2.5081  0.1256  1.0071
  561MOL0     H75672   6.833  10.101   7.266  2.0979  1.4349 -2.1301
  561MOL0     H75673   6.747  10.234   7.332  2.1476  3.1410 -1.5401
  561MOL0     H75674   6.757  10.364   7.132 -0.0071  0.3035  3.2038
  561MOL0     H75675   6.806  10.215   7.036  0.0767 -0.5116  0.9970
  561MOL0     H75676   6.952  10.314   7.276 -2.4817 -0.4484  0.7192
  561MOL0     H75677   7.017  10.212   7.151 -0.1401 -1.4571  1.9497
  561MOL0     H75678   6.959  10.507   7.132  0.2068  1.2824 -1.1959
  561MOL0     H75679   7.126  10.443   7.114  0.3728 -1.9254  0.3547
  561MOL0     H75680   7.049  10.318   6.917  3.2483  0.4367  0.9443
  561MOL0     H75681   6.908  10.445   6.916  0.7512  2.6857 -2.6049
  561MOL0     H75682   7.205  10.493   6.870  1.7285  1.7940  3.5848
  561MOL0     H75683   7.102  10.606   6.959  2.1806 -0.0340 -1.2613
  561MOL0     H75684   6.990  10.516   6.692 -1.7053  1.4393 -0.0226
  561MOL0     H75685   6.976  10.669   6.769 -0.4368 -0.7899 -3.0421
  561MOL0     H75686   7.245  10.809   6.756  2.3411  1.1169 -1.4730
  561MOL0     H75687   7.458  10.892   6.642  1.1322  1.5921 -1.3144
  561MOL0     H75688   7.550  10.747   6.636  0.7266  0.8559 -0.2648
  561MOL0     H75689   7.609  10.880   6.439 -0.9375  0.0108 -0.2440
  561MOL0     H75690   7.545  10.736   6.377  0.8288  1.2732 -1.4308
  561MOL0     H75691   7.321  10.863   6.368 -0.3396  0.1120  2.0094
  561MOL0     H75692   7.436  10.890   6.241  0.2587  0.8718 -0.0966
  561MOL0     H75693   7.527  11.082   6.412  0.0900 -0.4353  2.2957
  561MOL0     H75694   7.362  11.069   6.468 -0.2515  2.5032 -0.5135
  561MOL0     H75695   7.343  11.331   6.102 -1.4835 -1.1438 -2.7922
  561MOL0     H75696   7.517  11.410   5.937 -0.3016  0.7600  1.6659
  561MOL0     H75697   8.007  11.489   5.993  1.3318 -0.6239  1.1701
  561MOL0     H75698   8.225  11.578   5.889  1.4589 -0.1363  0.3214
  561MOL0     H75699   8.345  11.630   5.635 -1.1771 -1.3927  0.6331
  561MOL0     H75700   8.429  11.600   5.790 -2.4918  1.3046  0.7297
  561MOL0     H75701   8.614  11.482   5.658  1.8147  1.6837  0.7513
  561MOL0     H75702   8.539  11.569   5.514 -0.2220 -0.7999  0.3328
  561MOL0     H75703   8.587  11.770   5.623  1.2747  0.1344 -0.4007
  561MOL0     H75704   8.635  11.686   5.784  1.2898  0.6304  0.3939
  561MOL0     H75705   8.800  11.660   5.530  3.1849  0.3275  0.3906
  561MOL0     H75706   8.838  11.588   5.670 -1.5955  0.5334  2.3000
  561MOL0     H75707   8.888  11.780   5.790  0.9717 -0.8095 -0.1375
  561MOL0     H75708   8.760  11.867   5.698 -0.4497 -0.8697  0.3900
  561MOL0     H75709   9.024  11.942   5.649  1.8364 -2.3330  0.9679
  561MOL0     H75710   9.039  11.776   5.586 -2.2358 -1.6939 -0.0113
  561MOL0     H75711   8.822  11.954   5.489 -1.1526 -4.0269  0.9623
  561MOL0     H75712   8.894  11.816   5.405 -2.4876 -0.0488  0.0465
  561MOL0     H75713   8.978  12.062   5.321 -1.6758  0.6618  0.7048
  561MOL0     H75714   9.068  12.054   5.478 -0.5397 -0.1082  1.6474
  561MOL0     H75715   8.234  11.224   5.651  1.7913 -2.3176  3.5356
  561MOL0     H75716   8.016  11.154   5.743  0.0221  1.6270 -1.4734
  561MOL0     H75717   7.777  11.097   6.047  0.5467  1.4167 -0.5871
  561MOL0     H75718   7.622  11.026   6.215  3.0588  0.3296 -0.9875
  561MOL0     H75719   6.579  10.116   6.849 -0.6929  1.0649 -0.4818
  561MOL0     H75720   6.361  10.167   6.721  2.0088  0.1395  0.4516
  561MOL0     H75721   5.981  10.497   6.751  1.2728 -1.0856 -0.4001
  561MOL0     H75722   5.782  10.556   6.631 -1.2621 -0.0979  0.5087
  561MOL0     H75723   5.488  10.345   6.366 -0.0739  0.3890 -1.5217
  561MOL0     H75724   5.633  10.252   6.370  0.8165  0.6625 -0.3075
  561MOL0     H75725   5.771  10.457   6.300  0.1371 -0.1332  1.8566
  561MOL0     H75726   5.649  10.560   6.348 -0.3578  0.3520 -0.4445
  561MOL0     H75727   5.505  10.471   6.158  0.0947  0.9031  3.4297
  561MOL0     H75728   5.642  10.367   6.111 -0.1044 -0.0832 -1.0850
  561MOL0     H75729   5.794  10.596   6.115 -0.3916 -0.4183  3.0235
  561MOL0     H75730   5.659  10.573   5.988 -0.3554 -1.0617  0.1895
  561MOL0     H75731   5.569  10.895   6.252 -1.3411  0.4912 -1.2786
  561MOL0     H75732   5.665  10.154   6.597 -2.8146  1.4826  1.1987
  561MOL0     H75733   5.738  10.003   6.775 -0.0112 -0.8867  2.2027
  561MOL0     H75734   5.903   9.982   6.700  0.6655 -2.3852  1.2284
  561MOL0     H75735   5.873  10.027   6.872  0.0692 -5.0759 -0.9326
  562MOL0     O75736   3.813  11.038   5.916  0.0673 -0.6211  0.2481
  562MOL0     C75737   3.794  10.946   5.992  0.7374 -0.7160  0.9596
  562MOL0     O75738   3.870  10.930   6.094 -0.0914  0.6565 -0.1752
  562MOL0     C75739   4.002  10.979   6.114  0.4278  0.8271  1.1125
  562MOL0     C75740   4.077  11.026   6.003 -0.0330 -1.0137  0.5875
  562MOL0     C75741   4.205  11.089   6.013  1.0131  0.4413  0.2469
  562MOL0     C75742   4.255  11.091   6.139 -0.8755 -0.0375 -0.1683
  562MOL0     O75743   4.361  11.167   6.183 -0.0368 -0.2445 -0.3385
  562MOL0     C75744   4.428  11.257   6.094  0.8295 -0.3040 -0.0788
  562MOL0     C75745   4.569  11.283   6.146 -0.0045  0.0679 -0.2935
  562MOL0     C75746   4.644  11.158   6.124  0.0656  0.1394  0.2993
  562MOL0     C75747   4.796  11.168   6.166 -0.3181  0.4710  0.9696
  562MOL0     C75748   4.878  11.037   6.137 -0.4501 -0.7580 -0.4065
  562MOL0     C75749   4.876  10.977   5.998  0.2338  0.0027  0.1832
  562MOL0     C75750   4.928  11.059   5.893 -1.1990  0.7017  0.7017
  562MOL0     C75751   4.912  10.978   5.758  1.1841  0.1305  0.4169
  562MOL0     N75752   5.000  11.020   5.647  1.1831 -0.9072 -0.0621
  562MOL0     C75753   5.067  10.950   5.556 -0.9628 -0.0709  0.0791
  562MOL0     C75754   5.151  11.048   5.501 -0.2253  0.6260  0.6084
  562MOL0     C75755   5.256  11.021   5.397 -0.5178  0.7429  0.9727
  562MOL0     C75756   5.385  10.984   5.473 -0.5017 -0.1453  0.5428
  562MOL0     C75757   5.494  10.907   5.392  0.3601  0.6429  0.0535
  562MOL0     C75758   5.621  10.849   5.463  0.1121 -0.6111  0.3935
  562MOL0     O75759   5.674  10.950   5.546 -0.5578 -0.6220  0.0392
  562MOL0     C75760   5.766  10.919   5.645 -0.2746 -0.1771 -0.7163
  562MOL0     C75761   5.735  10.962   5.778  1.0627 -0.2009  0.6914
  562MOL0     C75762   5.822  10.928   5.882  0.6284  0.2556  0.7086
  562MOL0     C75763   5.933  10.835   5.857 -0.3215  0.2338 -0.1900
  562MOL0     C75764   6.017  10.778   5.973 -0.0308 -0.2025 -0.3097
  562MOL0     O75765   5.990  10.810   6.106  0.4925  0.1017  0.2322
  562MOL0     C75766   6.076  10.770   6.205  0.1464 -0.2685  0.1781
  562MOL0     C75767   6.038  10.702   6.323 -0.2871  0.9430  0.2599
  562MOL0     C75768   6.127  10.679   6.421 -0.6871 -0.2923  0.0416
  562MOL0     C75769   6.261  10.726   6.414  0.7904  0.3096 -1.1537
  562MOL0     O75770   6.329  10.719   6.528  0.1961  1.0042  0.3097
  562MOL0     C75771   6.463  10.671   6.515  0.2797 -0.0041  0.2507
  562MOL0     C75772   6.468  10.524   6.537  0.1054 -0.0842 -0.3019
  562MOL0     C75773   6.421  10.474   6.676  0.3439  0.2350 -0.3754
  562MOL0     C75774   6.428  10.574   6.796  0.1601 -0.2073  0.9309
  562MOL0     C75775   6.429  10.518   6.935  0.3002  0.6768  0.6541
  562MOL0     C75776   6.418  10.625   7.046 -0.0373 -0.5632  0.2980
  562MOL0     C75777   6.409  10.551   7.176 -0.9230 -0.3296  0.4952
  562MOL0     C75778   6.269  10.508   7.219 -0.6070  0.0883 -0.3740
  562MOL0    Cl75779   6.268  10.475   7.398 -0.3519  0.0357 -0.0736
  562MOL0     C75780   6.300  10.806   6.310  1.0247 -0.7195 -0.4152
  562MOL0     C75781   6.211  10.828   6.200  0.2003  0.0414  0.7922
  562MOL0     O75782   6.118  10.719   5.943  1.0430  0.5479 -0.1638
  562MOL0     C75783   5.956  10.788   5.729 -0.2488  0.4183  0.7302
  562MOL0     C75784   5.880  10.835   5.622 -0.1960  0.1660  0.8199
  562MOL0     N75785   5.122  11.166   5.557 -0.0957  0.2525 -0.4816
  562MOL0     N75786   5.032  11.147   5.644 -0.1933 -0.5137 -0.3374
  562MOL0     C75787   4.192  11.030   6.248  0.2372  0.2795 -0.4367
  562MOL0     C75788   4.064  10.969   6.234 -0.7001  0.7365  0.1349
  562MOL0     C75789   3.662  10.877   5.986  0.7365 -0.2301  0.2738
  562MOL0     C75790   3.614  10.811   6.108 -0.4004  0.5824  0.1637
  562MOL0     C75791   3.481  10.760   6.110  0.4813 -0.2618 -0.2657
  562MOL0     C75792   3.399  10.756   5.992 -0.1860  0.3777 -0.0356
  562MOL0     O75793   3.264  10.716   5.993 -0.6405  0.2416  0.6764
  562MOL0     C75794   3.209  10.656   5.875  0.1511  0.2140  1.2555
  562MOL0     C75795   3.089  10.748   5.846 -0.2428 -0.0166 -0.0655
  562MOL0     C75796   3.016  10.710   5.716 -0.7677 -0.0958  0.6019
  562MOL0     C75797   2.895  10.787   5.673 -0.4638  0.0025 -0.3412
  562MOL0     C75798   2.912  10.936   5.684 -0.5021  0.4473 -0.0160
  562MOL0     C75799   2.909  11.053   5.694  1.0129  0.0058 -0.6454
  562MOL0     C75800   3.452  10.811   5.877 -0.1570  0.2323  0.9630
  562MOL0     C75801   3.577  10.877   5.871  0.8578 -0.2463  0.4530
  562MOL0     C75802   3.612  10.940   5.729 -0.2555  1.0322  0.0679
  562MOL0     H75803   4.034  11.043   5.904 -1.0158 -2.4581  0.7496
  562MOL0     H75804   4.258  11.136   5.931  2.8204 -0.3866  0.8803
  562MOL0     H75805   4.447  11.209   5.998  0.9011  0.5368 -0.4958
  562MOL0     H75806   4.384  11.357   6.087 -2.5756 -1.6223  0.4840
  562MOL0     H75807   4.571  11.304   6.253  2.7477 -2.0093  0.1938
  562MOL0     H75808   4.614  11.363   6.086 -2.4064 -0.2822 -2.7128
  562MOL0     H75809   4.661  11.135   6.018 -0.2142 -1.2605  0.5313
  562MOL0     H75810   4.594  11.074   6.174 -0.9405 -0.6426 -1.8992
  562MOL0     H75811   4.838  11.261   6.128  1.3846 -0.5713  0.1744
  562MOL0     H75812   4.803  11.184   6.274  3.2314  2.4754  0.5726
  562MOL0     H75813   4.978  11.053   6.178 -0.7498 -0.9457  0.4337
  562MOL0     H75814   4.842  10.965   6.211 -1.9030 -0.8535 -1.1657
  562MOL0     H75815   4.919  10.877   6.006 -2.2792 -1.1310  0.4093
  562MOL0     H75816   4.775  10.954   5.963  0.7982 -1.6576 -0.4398
  562MOL0     H75817   5.033  11.087   5.907 -0.2569 -1.1997 -1.8550
  562MOL0     H75818   4.873  11.152   5.874  0.0008  1.0151 -1.6978
  562MOL0     H75819   4.935  10.873   5.773 -1.5566 -0.6984 -0.5724
  562MOL0     H75820   4.812  11.004   5.722  1.3633 -1.3971 -1.3455
  562MOL0     H75821   5.053  10.844   5.535 -4.2379  0.1834  0.3771
  562MOL0     H75822   5.221  10.943   5.329 -1.2656  1.8679  0.0245
  562MOL0     H75823   5.271  11.112   5.339 -3.1209  1.2412  0.9555
  562MOL0     H75824   5.432  11.076   5.508  0.0747  0.9482 -2.7680
  562MOL0     H75825   5.382  10.926   5.566 -0.9410  0.3545  0.8387
  562MOL0     H75826   5.527  10.965   5.305 -0.6326 -0.5935 -1.2086
  562MOL0     H75827   5.443  10.817   5.356  0.0634  0.6953  0.3433
  562MOL0     H75828   5.702  10.836   5.390 -1.6233 -1.4010 -1.4576
  562MOL0     H75829   5.606  10.756   5.518  1.9126 -1.1743  0.0238
  562MOL0     H75830   5.646  11.023   5.792  0.1835 -1.5327  1.1877
  562MOL0     H75831   5.810  10.969   5.982  2.7053 -1.4121  1.7182
  562MOL0     H75832   5.937  10.664   6.328  0.3094 -0.7900 -0.3887
  562MOL0     H75833   6.090  10.617   6.502 -0.0858  0.8222  1.2048
  562MOL0     H75834   6.508  10.703   6.420  1.7097 -1.8671  0.2400
  562MOL0     H75835   6.525  10.722   6.589 -0.9621  0.6381  0.8895
  562MOL0     H75836   6.419  10.470   6.456  2.6165 -3.1723  0.0002
  562MOL0     H75837   6.574  10.494   6.536  0.5584  1.4184  0.0291
  562MOL0     H75838   6.327  10.420   6.663  0.9937 -1.0683  0.1445
  562MOL0     H75839   6.493  10.394   6.694  0.6817  0.5807 -0.1503
  562MOL0     H75840   6.339  10.638   6.794 -1.2873 -2.0121  2.7407
  562MOL0     H75841   6.513  10.639   6.777 -0.4350  0.0853 -1.0280
  562MOL0     H75842   6.517  10.457   6.953 -0.3907 -1.2290 -1.8900
  562MOL0     H75843   6.340  10.455   6.935  0.9449 -0.2899 -1.4592
  562MOL0     H75844   6.507  10.688   7.047  1.7511 -2.8335 -2.1330
  562MOL0     H75845   6.331  10.690   7.031 -1.6070 -2.4530  0.8336
  562MOL0     H75846   6.448  10.628   7.244  1.2374 -0.0948 -0.8816
  562MOL0     H75847   6.481  10.469   7.183 -0.5033  0.1134  1.5495
  562MOL0     H75848   6.203  10.594   7.207  1.6681  1.6941 -1.9921
  562MOL0     H75849   6.232  10.418   7.168 -0.2254 -0.0024 -0.4919
  562MOL0     H75850   6.399  10.852   6.312 -0.0841  1.8072  1.7959
  562MOL0     H75851   6.236  10.897   6.121 -3.0284 -0.3592 -0.7442
  562MOL0     H75852   6.039  10.719   5.721  0.3521  0.9644  2.0117
  562MOL0     H75853   5.893  10.775   5.532  1.1111 -0.7273  1.5663
  562MOL0     H75854   4.234  11.046   6.347  0.3029 -0.3592 -0.3549
  562MOL0     H75855   3.990  10.933   6.304 -0.8876 -0.1847 -0.5149
  562MOL0     H75856   3.680  10.806   6.194  0.0789 -3.4759 -0.2322
  562MOL0     H75857   3.430  10.726   6.199 -0.3310  1.3976 -0.0541
  562MOL0     H75858   3.177  10.556   5.907 -0.5704 -0.4094 -1.2081
  562MOL0     H75859   3.279  10.654   5.791 -1.3005 -0.7013  0.0032
  562MOL0     H75860   3.119  10.853   5.834 -2.1481  0.9466  2.6488
  562MOL0     H75861   3.024  10.742   5.934  1.2291  2.4540  1.3284
  562MOL0     H75862   2.987  10.605   5.724  1.6958 -0.9075 -0.1781
  562MOL0     H75863   3.097  10.718   5.642  1.2119  1.4296  2.8014
  562MOL0     H75864   2.875  10.755   5.570  0.1114 -0.0508 -0.4409
  562MOL0     H75865   2.814  10.748   5.735  0.7936  0.2377  1.5016
  562MOL0     H75866   2.914  11.160   5.692 -0.4917  0.0852 -1.2152
  562MOL0     H75867   3.402  10.809   5.781  1.9701 -1.6163 -0.1995
  562MOL0     H75868   3.609  11.049   5.732 -1.3000  0.9933  0.8161
  562MOL0     H75869   3.717  10.910   5.713  0.0366  1.8366  0.4323
  562MOL0     H75870   3.552  10.899   5.648 -0.1162 -1.4616  1.1263
  563MOL0     O75871   5.326  10.868  10.660 -0.0202 -0.3205  0.0207
  563MOL0     C75872   5.372  10.784  10.584  0.1676 -0.8968  0.1723
  563MOL0     O75873   5.503  10.774  10.530  0.0061  0.3080  0.5682
  563MOL0     C75874   5.606  10.845  10.593  0.8469  0.7521  0.4603
  563MOL0     C75875   5.610  10.948  10.687  0.1458  1.5304 -0.2879
  563MOL0     C75876   5.729  10.996  10.731  0.0481  0.1222 -0.4943
  563MOL0     C75877   5.860  10.947  10.689  0.2315 -0.6373  0.3426
  563MOL0     O75878   5.984  11.000  10.713  0.4731 -0.2905  0.2142
  563MOL0     C75879   5.994  11.094  10.816  0.4652 -0.0736 -0.1272
  563MOL0     C75880   6.130  11.139  10.836 -0.3941  0.0875 -0.8350
  563MOL0     C75881   6.195  11.024  10.917 -0.0749 -0.6380 -0.3916
  563MOL0     C75882   6.350  11.016  10.898  0.7447 -0.3432 -0.1910
  563MOL0     C75883   6.410  10.871  10.937  0.0721 -0.5111  0.4186
  563MOL0     C75884   6.555  10.875  10.917 -0.4214 -0.7403  0.5202
  563MOL0     C75885   6.624  10.756  10.974 -0.2760  0.0744 -0.0083
  563MOL0     C75886   6.630  10.627  10.900 -0.3372  0.5182  0.6338
  563MOL0     N75887   6.703  10.530  10.984 -0.6770  0.4750  0.6241
  563MOL0     C75888   6.824  10.543  11.051 -1.0430 -0.1105  0.0116
  563MOL0     C75889   6.834  10.430  11.123  0.5559 -0.7689  0.9030
  563MOL0     C75890   6.940  10.403  11.223 -0.1527  0.0057  0.5156
  563MOL0     C75891   6.952  10.252  11.262 -1.1631 -1.2248  0.0482
  563MOL0     C75892   7.055  10.250  11.372  0.4106 -0.6067 -0.0586
  563MOL0     C75893   7.093  10.110  11.420  0.1934 -0.4884 -0.2568
  563MOL0     O75894   7.202  10.059  11.344 -0.0954 -0.3694  0.1216
  563MOL0     C75895   7.330  10.100  11.380  0.5084 -0.3321  0.6362
  563MOL0     C75896   7.440  10.039  11.317 -1.1869  0.4485 -0.6764
  563MOL0     C75897   7.567  10.085  11.359  0.6499 -0.4057 -0.2272
  563MOL0     C75898   7.585  10.183  11.460 -0.5011 -0.4894  0.4654
  563MOL0     C75899   7.712  10.226  11.516  0.2762  0.8498  0.4629
  563MOL0     O75900   7.813  10.134  11.490 -0.1898  0.5041 -0.9887
  563MOL0     C75901   7.931  10.178  11.522  0.3623 -0.4393 -0.2810
  563MOL0     C75902   7.985  10.141  11.640 -1.0470 -0.3409 -0.9950
  563MOL0     C75903   8.114  10.192  11.678  0.4304  0.5321 -0.5828
  563MOL0     C75904   8.193  10.264  11.591  0.9641 -0.8277 -0.4460
  563MOL0     O75905   8.318  10.305  11.625 -0.0052  0.5339  0.2579
  563MOL0     C75906   8.404  10.237  11.718  0.7766 -0.4759  0.3444
  563MOL0     C75907   8.444  10.104  11.652 -0.0442 -0.6924  0.4774
  563MOL0     C75908   8.541  10.109  11.544  0.6611 -0.0575  0.6553
  563MOL0     C75909   8.689  10.098  11.586 -0.6149  0.0628  0.7701
  563MOL0     C75910   8.781  10.059  11.471 -0.2460 -0.5286  0.3690
  563MOL0     C75911   8.843  10.170  11.396  0.8374 -0.3938 -0.2696
  563MOL0     C75912   8.944  10.124  11.294  1.0062 -0.1415 -0.5551
  563MOL0     C75913   8.890  10.019  11.202 -0.2622 -0.1081  0.1058
  563MOL0    Cl75914   9.019   9.979  11.082  0.1721  0.4416 -0.0641
  563MOL0     C75915   8.132  10.301  11.471 -0.0175  0.0492 -0.0349
  563MOL0     C75916   8.009  10.250  11.430 -0.4385 -0.1359  0.4151
  563MOL0     O75917   7.725  10.339  11.575  0.0996  0.2622  0.0954
  563MOL0     C75918   7.475  10.250  11.508  0.6718 -0.0290  0.2490
  563MOL0     C75919   7.345  10.201  11.478 -0.0736  0.2245 -1.2479
  563MOL0     N75920   6.725  10.348  11.108  1.3170 -0.0993  0.0861
  563MOL0     N75921   6.646  10.413  11.023 -0.2216  0.4649 -0.0262
  563MOL0     C75922   5.852  10.846  10.593 -0.3085  0.1364  0.5820
  563MOL0     C75923   5.730  10.796  10.548 -0.1218  0.6941  0.1423
  563MOL0     C75924   5.281  10.689  10.537  0.6137  0.3698  0.7128
  563MOL0     C75925   5.147  10.726  10.511  0.5265  0.0425 -0.2328
  563MOL0     C75926   5.049  10.631  10.488  0.2818 -0.1847 -0.6831
  563MOL0     C75927   5.076  10.496  10.495  0.1780  0.8665  0.0379
  563MOL0     O75928   4.972  10.405  10.454  0.0526 -0.1599 -0.4754
  563MOL0     C75929   4.983  10.265  10.498 -0.2910  0.8928  0.2051
  563MOL0     C75930   4.836  10.198  10.489 -0.4247 -0.5484  0.5567
  563MOL0     C75931   4.734  10.300  10.554 -0.1122 -0.0899 -0.0556
  563MOL0     C75932   4.607  10.230  10.597 -0.3847  0.2832 -0.4584
  563MOL0     C75933   4.526  10.199  10.479  0.1645  0.2040 -0.0203
  563MOL0     C75934   4.474  10.163  10.373  0.0535  0.0958 -1.0022
  563MOL0     C75935   5.209  10.454  10.527  0.0014 -0.2815 -0.5633
  563MOL0     C75936   5.314  10.548  10.543  0.2621 -0.8674  0.3451
  563MOL0     C75937   5.450  10.489  10.572  0.0447 -0.3841 -1.3534
  563MOL0     H75938   5.521  10.995  10.726 -0.0329  2.3562 -1.6525
  563MOL0     H75939   5.732  11.082  10.798 -2.3841 -0.2557  0.1831
  563MOL0     H75940   5.938  11.182  10.784 -0.1023 -0.2702  0.3015
  563MOL0     H75941   5.953  11.058  10.911  0.7067 -0.1297 -0.0439
  563MOL0     H75942   6.134  11.227  10.902  1.9956  0.4607 -1.3690
  563MOL0     H75943   6.192  11.160  10.748  0.9887 -1.4397 -0.2888
  563MOL0     H75944   6.148  10.926  10.901 -1.3057 -0.1710  0.1778
  563MOL0     H75945   6.181  11.043  11.024  1.4401  0.9138 -0.4365
  563MOL0     H75946   6.376  11.052  10.798 -3.3034 -0.2813 -1.3642
  563MOL0     H75947   6.397  11.085  10.969  0.0118 -2.3209  2.3772
  563MOL0     H75948   6.377  10.864  11.041 -2.7479  1.1225 -0.2770
  563MOL0     H75949   6.364  10.795  10.873 -1.8679 -1.7863  3.1466
  563MOL0     H75950   6.578  10.884  10.811 -0.8441  0.0196  0.4894
  563MOL0     H75951   6.587  10.966  10.968 -1.5923 -0.7889  1.3960
  563MOL0     H75952   6.596  10.741  11.078 -0.7437  1.8529  0.1583
  563MOL0     H75953   6.727  10.793  10.981 -0.4320  1.5164 -3.2702
  563MOL0     H75954   6.528  10.588  10.890 -1.5743  3.1336  2.0002
  563MOL0     H75955   6.674  10.634  10.800 -2.9965 -1.8244 -0.8446
  563MOL0     H75956   6.899  10.619  11.029 -0.0952 -1.2784 -0.9818
  563MOL0     H75957   7.037  10.420  11.176 -0.5268 -2.3001 -1.2451
  563MOL0     H75958   6.918  10.467  11.310  2.8701  1.1354  0.5657
  563MOL0     H75959   6.859  10.225  11.313 -1.4096  2.1966  1.7059
  563MOL0     H75960   6.979  10.191  11.175 -0.1964 -2.5730  1.2412
  563MOL0     H75961   7.008  10.305  11.454  0.4349 -0.9739  0.2067
  563MOL0     H75962   7.141  10.308  11.340  1.6186 -1.0985  2.1199
  563MOL0     H75963   7.010  10.040  11.410 -0.3026 -0.1047  0.9909
  563MOL0     H75964   7.102  10.090  11.527 -1.1901 -0.9480 -0.2154
  563MOL0     H75965   7.432   9.963  11.239 -3.0951 -0.0217 -0.0921
  563MOL0     H75966   7.659  10.042  11.321  0.8108  1.5375 -2.2392
  563MOL0     H75967   7.913  10.082  11.695 -0.8801 -0.4756 -0.9203
  563MOL0     H75968   8.142  10.172  11.781 -2.2926 -0.0321  0.1418
  563MOL0     H75969   8.498  10.293  11.717  1.5118 -1.6606 -0.9215
  563MOL0     H75970   8.363  10.222  11.818  0.7648 -0.6833  0.3104
  563MOL0     H75971   8.479  10.037  11.732 -1.3594 -1.6122  0.3297
  563MOL0     H75972   8.354  10.054  11.614 -1.7084  1.8987  0.7766
  563MOL0     H75973   8.523  10.037  11.465  0.0454  0.9205 -0.1271
  563MOL0     H75974   8.539  10.204  11.489 -3.3475 -1.9461 -3.0178
  563MOL0     H75975   8.695  10.020  11.663 -4.3262  2.2915  3.6540
  563MOL0     H75976   8.708  10.195  11.632 -0.6393  0.9750 -1.0721
  563MOL0     H75977   8.722   9.994  11.405  0.6671 -1.6639  0.6331
  563MOL0     H75978   8.853   9.985  11.507  2.5100  0.8206 -2.0661
  563MOL0     H75979   8.765  10.224  11.343 -1.9844 -1.4703  2.4891
  563MOL0     H75980   8.888  10.239  11.469 -0.4478  0.3579 -0.1695
  563MOL0     H75981   9.025  10.078  11.352 -0.3626 -3.0370 -0.8083
  563MOL0     H75982   8.977  10.214  11.241  1.0292 -0.9201 -1.8960
  563MOL0     H75983   8.860   9.930  11.258 -0.6178  0.8248  1.4557
  563MOL0     H75984   8.805  10.057  11.144 -0.5264 -1.6161 -0.5443
  563MOL0     H75985   8.195  10.359  11.404  1.4420 -0.5732  0.7504
  563MOL0     H75986   7.971  10.272  11.332  2.3568 -2.6517 -1.4315
  563MOL0     H75987   7.473  10.323  11.588 -4.9327  0.0743  0.3895
  563MOL0     H75988   7.263  10.237  11.540  0.5207  0.8539 -0.8031
  563MOL0     H75989   5.941  10.802  10.549 -1.2659 -0.4514 -0.8175
  563MOL0     H75990   5.737  10.718  10.474  2.1794  1.8912 -1.0230
  563MOL0     H75991   5.111  10.828  10.509 -0.2385 -0.2302 -0.6528
  563MOL0     H75992   4.949  10.666  10.468 -0.9809 -2.5171  1.0282
  563MOL0     H75993   5.008  10.267  10.605 -2.0017  2.4231  0.6338
  563MOL0     H75994   5.060  10.207  10.447 -1.9775 -2.5376  1.2286
  563MOL0     H75995   4.836  10.100  10.537 -0.1929 -0.5012  0.6575
  563MOL0     H75996   4.814  10.182  10.384 -3.4114 -1.2316  1.1919
  563MOL0     H75997   4.714  10.384  10.485 -0.2590 -1.3972 -1.6730
  563MOL0     H75998   4.787  10.347  10.636 -1.7578  2.5231 -0.3645
  563MOL0     H75999   4.627  10.135  10.646  1.7960  0.5204 -0.8169
  563MOL0     H76000   4.568  10.300  10.672  0.2481  1.4069 -1.1371
  563MOL0     H76001   4.426  10.130  10.283  1.3234 -1.4099 -1.1630
  563MOL0     H76002   5.225  10.346  10.529  0.8544 -0.1614  1.4244
  563MOL0     H76003   5.488  10.536  10.663 -1.7842  0.9331 -1.2156
  563MOL0     H76004   5.438  10.382  10.588 -0.1940 -0.0428  1.1719
  563MOL0     H76005   5.523  10.514  10.494  0.2760  2.1873 -0.4311
  564MOL0     O76006   5.177  10.039   3.758  0.3161  0.1759  0.4018
  564MOL0     C76007   5.227   9.923   3.733 -0.3753 -0.4310 -0.7337
  564MOL0     O76008   5.134   9.812   3.724  0.0082 -0.4385 -0.2135
  564MOL0     C76009   5.004   9.833   3.759 -0.7856  0.0481 -0.1545
  564MOL0     C76010   4.943   9.739   3.839  1.3506 -0.0901 -0.3958
  564MOL0     C76011   4.803   9.738   3.873  0.3327 -0.4236 -0.4571
  564MOL0     C76012   4.720   9.836   3.827  0.4294  0.0436 -0.8448
  564MOL0     O76013   4.591   9.846   3.871  1.3265  0.2544 -0.9897
  564MOL0     C76014   4.496   9.794   3.781  0.7942  0.8060  0.6406
  564MOL0     C76015   4.385   9.716   3.856 -0.0236 -0.0667 -0.0894
  564MOL0     C76016   4.259   9.698   3.778 -0.2278 -0.1067  0.0752
  564MOL0     C76017   4.162   9.606   3.854 -1.0752 -0.6019  0.1042
  564MOL0     C76018   4.028   9.604   3.777 -0.3176 -0.4924  0.0611
  564MOL0     C76019   4.023   9.499   3.664  0.3490 -0.4045  0.1478
  564MOL0     C76020   3.902   9.518   3.579  0.2069 -0.6645  0.1127
  564MOL0     C76021   3.852   9.390   3.521 -0.2262 -0.6275 -0.2345
  564MOL0     N76022   3.947   9.306   3.437  0.0268 -0.4337 -0.9301
  564MOL0     C76023   3.978   9.324   3.305 -0.3140  0.4640 -0.4944
  564MOL0     C76024   4.066   9.224   3.275  1.5678  0.0398  0.1483
  564MOL0     C76025   4.097   9.203   3.136 -0.1240 -0.0721  0.1144
  564MOL0     C76026   4.114   9.052   3.109  0.4647  0.2622  0.0177
  564MOL0     C76027   4.179   9.030   2.970 -0.2079  0.6894  0.3621
  564MOL0     C76028   4.162   8.890   2.922 -0.3290 -0.5367  0.5359
  564MOL0     O76029   4.172   8.896   2.776  0.0040  0.5669  0.3459
  564MOL0     C76030   4.286   8.880   2.707  0.4195  0.3787 -0.3894
  564MOL0     C76031   4.272   8.846   2.575 -0.1677 -1.1382  0.3127
  564MOL0     C76032   4.379   8.796   2.500  0.3427  0.0219 -0.0279
  564MOL0     C76033   4.511   8.788   2.552 -0.7300  0.1125  0.4117
  564MOL0     C76034   4.633   8.736   2.480 -0.5124 -0.0039 -0.3313
  564MOL0     O76035   4.634   8.730   2.340 -0.5768  0.1324  0.7357
  564MOL0     C76036   4.744   8.669   2.274  0.0627 -0.2951 -0.4930
  564MOL0     C76037   4.883   8.673   2.313 -0.8104  0.2898 -0.0525
  564MOL0     C76038   4.992   8.646   2.232  0.5454  1.0493 -0.0422
  564MOL0     C76039   4.963   8.598   2.100 -0.6028 -0.1493 -0.2337
  564MOL0     O76040   5.064   8.571   2.012 -0.6948  0.7844  0.6124
  564MOL0     C76041   5.126   8.691   1.958  1.1003  0.2422  0.1437
  564MOL0     C76042   5.272   8.672   1.972  0.8781  0.4655 -0.0137
  564MOL0     C76043   5.351   8.790   1.931  0.3515 -0.0047  0.3823
  564MOL0     C76044   5.503   8.760   1.905 -0.2561 -0.1149  0.5828
  564MOL0     C76045   5.582   8.882   1.879  0.0104  0.1064 -0.1613
  564MOL0     C76046   5.737   8.865   1.860  0.8720 -0.7002  0.3814
  564MOL0     C76047   5.772   8.770   1.740  0.2725  0.6761 -0.1806
  564MOL0     C76048   5.927   8.778   1.728  0.5034 -0.1722 -0.1921
  564MOL0    Cl76049   5.978   8.689   1.587  0.1072 -0.0929 -0.1769
  564MOL0     C76050   4.824   8.591   2.063 -0.7716  0.0735 -0.0569
  564MOL0     C76051   4.720   8.627   2.148  0.4717  0.0331 -0.7664
  564MOL0     O76052   4.728   8.710   2.557  0.2264 -0.0509  0.1227
  564MOL0     C76053   4.524   8.835   2.682 -1.4038 -0.9153 -0.2072
  564MOL0     C76054   4.414   8.879   2.755 -0.2002  0.5057  0.1263
  564MOL0     N76055   4.106   9.171   3.393 -1.3795  0.4032  0.0905
  564MOL0     N76056   4.036   9.211   3.491  0.2990 -0.1980  0.4821
  564MOL0     C76057   4.783   9.927   3.736  0.3412 -0.1541 -0.1819
  564MOL0     C76058   4.923   9.929   3.709 -0.3684  0.7503  0.4511
  564MOL0     C76059   5.380   9.922   3.716  0.0384  0.2977 -0.7483
  564MOL0     C76060   5.456  10.045   3.709 -0.3440 -0.0162  0.0869
  564MOL0     C76061   5.600  10.041   3.694  0.6070 -0.5234 -0.0271
  564MOL0     C76062   5.664   9.921   3.702  0.3924  0.1993 -0.2824
  564MOL0     O76063   5.801   9.922   3.701  0.1104 -0.1893 -0.0604
  564MOL0     C76064   5.874   9.806   3.741 -0.4089 -0.7892  0.9576
  564MOL0     C76065   6.029   9.838   3.749 -0.3899  0.5715  0.0852
  564MOL0     C76066   6.099   9.854   3.611  0.1318 -0.5636  0.1928
  564MOL0     C76067   6.244   9.890   3.624 -0.4441  0.1299 -0.4031
  564MOL0     C76068   6.316   9.778   3.684 -0.7194 -0.0038 -0.6780
  564MOL0     C76069   6.375   9.686   3.740 -0.8072 -0.4020  0.3377
  564MOL0     C76070   5.590   9.800   3.712 -0.2409 -0.6067 -0.2195
  564MOL0     C76071   5.451   9.802   3.711 -0.2030 -0.5108 -0.3011
  564MOL0     C76072   5.387   9.670   3.711  0.0423  0.1448 -0.1983
  564MOL0     H76073   5.016   9.663   3.864  3.0325  0.1225 -3.8888
  564MOL0     H76074   4.761   9.653   3.926  0.3775 -1.7716 -2.4676
  564MOL0     H76075   4.445   9.872   3.724 -1.4188 -3.2030 -3.4711
  564MOL0     H76076   4.540   9.726   3.708 -1.1972 -1.1599  1.1644
  564MOL0     H76077   4.364   9.766   3.951 -2.3694 -0.1511 -0.5137
  564MOL0     H76078   4.434   9.619   3.871  0.8326  0.5172  1.1487
  564MOL0     H76079   4.270   9.661   3.676 -0.5250 -0.0111  0.0053
  564MOL0     H76080   4.206   9.794   3.770 -1.0007 -0.5105  0.2172
  564MOL0     H76081   4.210   9.509   3.868  0.0681 -0.0023  0.5157
  564MOL0     H76082   4.137   9.645   3.954  0.6069 -1.3787  0.8626
  564MOL0     H76083   3.945   9.574   3.841 -2.0153 -0.5428 -2.0663
  564MOL0     H76084   4.008   9.707   3.747 -0.3631  0.0926  1.9174
  564MOL0     H76085   4.113   9.498   3.601  0.7534 -1.1864  0.7181
  564MOL0     H76086   4.024   9.398   3.704  1.6008 -2.0346 -3.5107
  564MOL0     H76087   3.912   9.594   3.500  1.0140 -1.3618 -0.4836
  564MOL0     H76088   3.821   9.544   3.647 -2.2170 -6.0107 -0.2405
  564MOL0     H76089   3.818   9.338   3.611  1.9806 -0.7465  0.5822
  564MOL0     H76090   3.766   9.422   3.461  0.5557 -0.9756 -1.5903
  564MOL0     H76091   3.929   9.397   3.241 -0.6082  2.2150  1.5979
  564MOL0     H76092   4.016   9.241   3.074  0.0152  1.2556  0.7181
  564MOL0     H76093   4.187   9.258   3.109  0.1616 -0.7441 -0.3417
  564MOL0     H76094   4.156   8.992   3.190 -3.1672 -1.6775  0.6808
  564MOL0     H76095   4.012   9.011   3.110  0.1874  0.9531  0.2118
  564MOL0     H76096   4.283   9.063   2.981 -0.3600  0.9488  1.1179
  564MOL0     H76097   4.136   9.095   2.894  2.7371  1.3590 -0.8583
  564MOL0     H76098   4.069   8.847   2.961 -0.0073 -1.2147  0.5798
  564MOL0     H76099   4.241   8.836   2.975  0.5131  0.4778  0.3478
  564MOL0     H76100   4.170   8.851   2.537  0.6057  4.5729 -2.1059
  564MOL0     H76101   4.361   8.759   2.399 -0.3420  0.4940 -0.0888
  564MOL0     H76102   4.907   8.706   2.414 -2.5125 -2.3790  1.3268
  564MOL0     H76103   5.093   8.653   2.271  0.6757 -0.4316 -0.0309
  564MOL0     H76104   5.111   8.697   1.850 -0.7445  0.9329  0.3978
  564MOL0     H76105   5.091   8.783   2.006  0.5339 -0.4047  1.0039
  564MOL0     H76106   5.306   8.644   2.073 -0.6142 -0.8859  0.1383
  564MOL0     H76107   5.298   8.595   1.899  1.7111  0.6391  0.0813
  564MOL0     H76108   5.316   8.827   1.834  3.2212  2.6745  0.1971
  564MOL0     H76109   5.335   8.869   2.005 -1.8985  1.4018 -1.4699
  564MOL0     H76110   5.510   8.693   1.819 -1.7542 -1.0194  1.1436
  564MOL0     H76111   5.544   8.719   1.998 -3.6925 -0.2354  2.1651
  564MOL0     H76112   5.560   8.951   1.960 -0.4718 -2.1166  1.7007
  564MOL0     H76113   5.546   8.918   1.781  0.6972 -2.1381 -1.3160
  564MOL0     H76114   5.777   8.964   1.838 -0.9087  0.2778  1.2568
  564MOL0     H76115   5.783   8.842   1.957  2.2113  3.4751  0.9462
  564MOL0     H76116   5.727   8.805   1.646  0.1837 -0.7387 -0.6907
  564MOL0     H76117   5.731   8.670   1.754  0.3031  0.4605 -1.4920
  564MOL0     H76118   5.964   8.877   1.700 -2.8996  0.9380 -1.3247
  564MOL0     H76119   5.979   8.740   1.816  1.9403  0.0434 -0.9212
  564MOL0     H76120   4.802   8.539   1.970 -1.4485  0.3157 -0.0404
  564MOL0     H76121   4.615   8.619   2.123 -0.1301  0.2503  1.4669
  564MOL0     H76122   4.616   8.826   2.739 -0.8945 -1.1006 -1.0354
  564MOL0     H76123   4.433   8.914   2.856  3.0218  0.8260 -0.4941
  564MOL0     H76124   4.717  10.003   3.695  0.7754 -0.7761 -2.1689
  564MOL0     H76125   4.960  10.015   3.654 -0.4768  0.5629  0.0813
  564MOL0     H76126   5.397  10.133   3.686 -2.4663 -1.8059 -1.6067
  564MOL0     H76127   5.655  10.133   3.677  0.1963 -0.3953 -0.7281
  564MOL0     H76128   5.865   9.724   3.670  0.1162  0.4891 -0.6564
  564MOL0     H76129   5.837   9.768   3.836 -2.0941 -2.6827 -0.3803
  564MOL0     H76130   6.068   9.759   3.814  1.6160  2.5129  1.4006
  564MOL0     H76131   6.039   9.935   3.799 -0.3483 -0.3143  1.8775
  564MOL0     H76132   6.038   9.932   3.565 -1.2782 -1.0349  1.1741
  564MOL0     H76133   6.082   9.769   3.545  0.0440  0.8481 -1.6698
  564MOL0     H76134   6.290   9.924   3.531  0.3505  0.3461  0.0598
  564MOL0     H76135   6.253   9.969   3.700 -2.1560 -1.1354  1.2080
  564MOL0     H76136   6.421   9.611   3.802 -1.8273  0.8142  2.6806
  564MOL0     H76137   5.637   9.702   3.717  1.9273  0.4627  2.9711
  564MOL0     H76138   5.449   9.581   3.720  1.2502  0.5147 -3.4146
  564MOL0     H76139   5.317   9.662   3.794 -1.5715  0.1306 -1.4974
  564MOL0     H76140   5.322   9.663   3.623 -2.1980  0.0946  1.3883
  565MOL0     O76141   6.033   9.569  10.791 -0.3615 -0.1231 -0.1185
  565MOL0     C76142   5.990   9.677  10.841 -0.5386  0.5007  1.5911
  565MOL0     O76143   6.065   9.796  10.840  0.0531 -0.5820  0.6024
  565MOL0     C76144   6.178   9.788  10.765  1.2376 -1.1954  0.9234
  565MOL0     C76145   6.180   9.856  10.647  0.3701 -0.3459 -0.7069
  565MOL0     C76146   6.297   9.868  10.577  1.1885 -0.3766  0.1736
  565MOL0     C76147   6.409   9.804  10.624 -0.2547  0.0511  0.6647
  565MOL0     O76148   6.530   9.825  10.551  0.3591 -0.2018 -0.4057
  565MOL0     C76149   6.650   9.749  10.572 -0.7097  0.1537 -0.1069
  565MOL0     C76150   6.723   9.792  10.699 -0.9742  0.3641 -0.0745
  565MOL0     C76151   6.844   9.710  10.717 -0.3433  0.5041 -0.2373
  565MOL0     C76152   6.960   9.754  10.637 -1.2627 -0.8996 -0.9164
  565MOL0     C76153   7.089   9.696  10.699  0.3001  0.6285  0.7268
  565MOL0     C76154   7.119   9.552  10.659 -0.1176 -1.1699 -0.2002
  565MOL0     C76155   7.265   9.500  10.689 -1.0580 -0.5640  0.2338
  565MOL0     C76156   7.367   9.559  10.588  0.5464  0.3232 -0.9819
  565MOL0     N76157   7.478   9.468  10.578  0.1273 -0.8000 -0.5202
  565MOL0     C76158   7.544   9.432  10.474 -0.0839 -0.6471  0.4537
  565MOL0     C76159   7.633   9.335  10.515  0.3752  0.1205  0.2901
  565MOL0     C76160   7.723   9.248  10.426 -0.9024 -0.5274 -1.1133
  565MOL0     C76161   7.646   9.145  10.363 -0.6596  0.7876  0.3418
  565MOL0     C76162   7.733   9.046  10.296 -0.5752  1.1479  0.7668
  565MOL0     C76163   7.783   9.105  10.154  0.0161  0.3210  0.0550
  565MOL0     O76164   7.887   9.021  10.109 -0.4765  1.3588 -0.5465
  565MOL0     C76165   8.008   9.075  10.147  1.0406 -0.3217  0.6025
  565MOL0     C76166   8.073   9.032  10.259 -0.1133 -0.3928 -0.3366
  565MOL0     C76167   8.195   9.095  10.300 -0.7285  0.0907 -0.3295
  565MOL0     C76168   8.247   9.201  10.231 -0.2800  0.4979  0.7656
  565MOL0     C76169   8.375   9.263  10.284 -0.0930 -0.8750  0.5081
  565MOL0     O76170   8.447   9.205  10.381 -0.1831 -0.9369 -0.3578
  565MOL0     C76171   8.566   9.268  10.409  0.0889 -0.7479 -0.3974
  565MOL0     C76172   8.586   9.401  10.450 -0.0141  0.2531 -0.7857
  565MOL0     C76173   8.717   9.447  10.465  0.7501 -0.7515 -0.6302
  565MOL0     C76174   8.830   9.379  10.427  0.1576 -0.1369 -0.4060
  565MOL0     O76175   8.953   9.441  10.406 -0.1760  0.3878  0.0640
  565MOL0     C76176   9.013   9.516  10.513  0.3221 -0.3890 -1.1173
  565MOL0     C76177   9.052   9.651  10.449  0.0091 -0.4556  0.1632
  565MOL0     C76178   9.156   9.725  10.534  0.7715 -0.1719 -0.0512
  565MOL0     C76179   9.163   9.876  10.500 -0.9946  0.2843  0.3843
  565MOL0     C76180   9.294   9.930  10.555  0.9509  0.4312  0.2480
  565MOL0     C76181   9.319   9.919  10.705 -0.1133 -0.3206  0.1352
  565MOL0     C76182   9.456  10.000  10.744  1.7285 -0.4710 -0.0717
  565MOL0     C76183   9.503   9.984  10.890  0.0764 -0.4084 -0.1086
  565MOL0    Cl76184   9.559   9.808  10.907 -0.0920 -0.3570  0.1625
  565MOL0     C76185   8.806   9.251  10.375 -0.5561  0.0909 -0.1780
  565MOL0     C76186   8.676   9.196  10.366 -0.2917 -1.0828 -0.1368
  565MOL0     O76187   8.413   9.360  10.222  0.0235 -0.1293  0.0370
  565MOL0     C76188   8.181   9.248  10.114 -0.1784  0.2813  0.0210
  565MOL0     C76189   8.054   9.189  10.076  0.0427 -0.4542  0.0510
  565MOL0     N76190   7.615   9.316  10.650  0.2604  0.2592  0.9596
  565MOL0     N76191   7.528   9.395  10.689 -0.2582 -1.0638 -0.5454
  565MOL0     C76192   6.410   9.732  10.741 -0.1516  0.5707 -0.2095
  565MOL0     C76193   6.296   9.734  10.820  0.4707  0.2649  0.2371
  565MOL0     C76194   5.850   9.679  10.888  0.1634  0.1480 -0.3567
  565MOL0     C76195   5.768   9.795  10.862 -0.4210  0.4653  0.8616
  565MOL0     C76196   5.642   9.800  10.913  0.3192 -0.0591 -0.0969
  565MOL0     C76197   5.575   9.695  10.977 -0.1550 -0.3163 -0.4022
  565MOL0     O76198   5.448   9.711  11.025  0.8040  0.8001 -0.7699
  565MOL0     C76199   5.359   9.697  10.906 -0.5220 -0.8133  0.2622
  565MOL0     C76200   5.216   9.689  10.959 -0.6530 -0.0709  0.9937
  565MOL0     C76201   5.158   9.557  10.937  0.1364  0.1564  0.7189
  565MOL0     C76202   5.011   9.554  10.986 -0.3842  0.9919 -0.0533
  565MOL0     C76203   4.927   9.629  10.896 -0.5095 -0.8125 -0.4325
  565MOL0     C76204   4.869   9.710  10.825 -0.0112 -0.5219 -0.5295
  565MOL0     C76205   5.657   9.583  11.002  0.4064 -0.1000  0.3033
  565MOL0     C76206   5.794   9.567  10.957 -0.7005 -0.5006 -0.2447
  565MOL0     C76207   5.856   9.434  10.975 -0.2208 -0.6453  1.1502
  565MOL0     H76208   6.093   9.910  10.612  0.3278 -0.7731 -1.2870
  565MOL0     H76209   6.305   9.937  10.493  1.0848 -0.0663  0.4187
  565MOL0     H76210   6.626   9.642  10.573  0.7241 -0.2250 -2.1980
  565MOL0     H76211   6.710   9.762  10.482 -0.7979 -1.1029 -0.3551
  565MOL0     H76212   6.666   9.777  10.791 -1.9661  0.6187 -0.6272
  565MOL0     H76213   6.745   9.898  10.690  1.3320 -0.0828 -0.1745
  565MOL0     H76214   6.824   9.602  10.708 -2.5622  0.7587  1.0249
  565MOL0     H76215   6.876   9.718  10.821 -1.2682 -2.4915  0.4003
  565MOL0     H76216   6.945   9.729  10.532 -0.0218 -0.5348 -1.1956
  565MOL0     H76217   6.976   9.862  10.639  3.5078 -1.3620  1.2998
  565MOL0     H76218   7.174   9.761  10.674  0.9198  0.3220  1.9590
  565MOL0     H76219   7.087   9.688  10.808 -0.3205 -2.8429  0.5595
  565MOL0     H76220   7.048   9.504  10.727  0.6229 -0.4792  1.1218
  565MOL0     H76221   7.077   9.523  10.563  2.6407 -3.1232 -0.9439
  565MOL0     H76222   7.255   9.394  10.664 -2.1876  0.1436 -2.7166
  565MOL0     H76223   7.293   9.524  10.792 -1.4507  1.0926 -0.0165
  565MOL0     H76224   7.316   9.558  10.491 -0.7299 -3.8330 -0.4646
  565MOL0     H76225   7.398   9.661  10.613  2.4631 -0.4347 -0.0443
  565MOL0     H76226   7.541   9.456  10.369  2.4352 -0.8196  0.2659
  565MOL0     H76227   7.770   9.307  10.347  2.9631 -1.3381  0.3555
  565MOL0     H76228   7.809   9.216  10.486 -0.3297  1.4925 -0.8034
  565MOL0     H76229   7.593   9.088  10.440 -0.8995  0.0223 -0.3754
  565MOL0     H76230   7.559   9.180  10.308  0.3927  0.2551 -1.7853
  565MOL0     H76231   7.691   8.947  10.278  0.0870  0.9451  0.2911
  565MOL0     H76232   7.824   9.027  10.353 -0.2508  1.5009  0.3793
  565MOL0     H76233   7.824   9.206  10.168  1.5532 -0.6003  2.8782
  565MOL0     H76234   7.703   9.117  10.080  1.1847  0.5503 -1.2320
  565MOL0     H76235   8.030   8.957  10.324 -1.7821  1.5291  0.9077
  565MOL0     H76236   8.237   9.052  10.390 -1.1622  0.7628  0.2100
  565MOL0     H76237   8.506   9.470  10.471 -0.4181  0.5013 -2.9602
  565MOL0     H76238   8.726   9.550  10.500 -0.5191 -0.4133 -1.2500
  565MOL0     H76239   8.947   9.544  10.595  2.7914  4.1412 -0.3046
  565MOL0     H76240   9.098   9.459  10.553 -2.3460 -4.0970 -0.1941
  565MOL0     H76241   9.099   9.627  10.353  2.2685 -0.3627  1.1793
  565MOL0     H76242   8.964   9.715  10.442 -0.8374 -1.7415 -1.5957
  565MOL0     H76243   9.137   9.711  10.640  1.9485  1.4966  0.4232
  565MOL0     H76244   9.256   9.684  10.517  2.3786  3.1566  0.4804
  565MOL0     H76245   9.071   9.915  10.545 -0.2416  2.9220 -0.1681
  565MOL0     H76246   9.166   9.896  10.392 -2.4924  0.5785  0.3719
  565MOL0     H76247   9.302  10.037  10.533  2.9088  0.3697  0.4722
  565MOL0     H76248   9.371   9.885  10.491  0.4330  2.4376 -1.9485
  565MOL0     H76249   9.230   9.953  10.759  0.2594  0.2188  0.4135
  565MOL0     H76250   9.341   9.817  10.737 -3.3975 -1.1177  0.2430
  565MOL0     H76251   9.431  10.105  10.727 -1.1667 -1.0546  0.0768
  565MOL0     H76252   9.531   9.966  10.672  0.4817  0.4660 -1.8820
  565MOL0     H76253   9.588  10.049  10.911 -1.2066  1.6390 -0.9616
  565MOL0     H76254   9.422  10.020  10.954 -1.1601 -1.9104 -0.7602
  565MOL0     H76255   8.889   9.189  10.343  0.1897  0.5033  0.9187
  565MOL0     H76256   8.654   9.095  10.333 -1.1088 -2.1156  3.2084
  565MOL0     H76257   8.226   9.323  10.049 -0.6388 -0.8888 -1.7363
  565MOL0     H76258   8.005   9.226   9.987  3.6698 -0.4385 -2.1471
  565MOL0     H76259   6.499   9.682  10.778 -0.6141  1.1713  1.8665
  565MOL0     H76260   6.293   9.679  10.913 -3.0897 -2.2328 -1.1341
  565MOL0     H76261   5.825   9.873  10.812  3.0706  0.3620  4.2167
  565MOL0     H76262   5.596   9.898  10.907 -0.3688 -0.3876 -0.3711
  565MOL0     H76263   5.387   9.601  10.861  0.9705 -0.1218 -0.3538
  565MOL0     H76264   5.377   9.784  10.842  2.0589 -0.2244  1.6101
  565MOL0     H76265   5.158   9.763  10.903 -0.8800  1.0990  2.7027
  565MOL0     H76266   5.214   9.717  11.064  1.7910 -1.1937  1.4354
  565MOL0     H76267   5.218   9.491  11.000  0.5660 -1.2459 -1.0990
  565MOL0     H76268   5.164   9.523  10.833  1.1383  3.0385 -0.2748
  565MOL0     H76269   4.972   9.452  10.986  1.5890  0.1598  1.0200
  565MOL0     H76270   5.003   9.590  11.089  2.1602  1.5479  0.0332
  565MOL0     H76271   4.811   9.792  10.787  1.2838  0.3570 -0.6441
  565MOL0     H76272   5.618   9.494  11.051  1.8093 -2.5088 -2.6668
  565MOL0     H76273   5.776   9.363  11.000 -1.0741  0.4745  1.6932
  565MOL0     H76274   5.907   9.400  10.884  1.2448 -0.7615  1.9927
  565MOL0     H76275   5.936   9.437  11.049  2.0492  1.4989 -1.1860
  566MOL0     O76276   1.432   8.995   7.038  0.0085 -0.5123 -0.4930
  566MOL0     C76277   1.466   8.933   6.934  0.2713 -0.4008 -0.2371
  566MOL0     O76278   1.594   8.932   6.880  0.2540 -0.1036 -0.4495
  566MOL0     C76279   1.707   8.996   6.923  1.0979  0.6386 -0.2410
  566MOL0     C76280   1.814   8.979   6.840  0.4413 -0.1845  0.5175
  566MOL0     C76281   1.921   9.061   6.846  0.2960  0.4852  0.6072
  566MOL0     C76282   1.932   9.155   6.950 -0.3914 -0.5122 -0.6581
  566MOL0     O76283   2.023   9.255   6.984 -0.3137 -0.5382 -0.5882
  566MOL0     C76284   2.159   9.236   6.948  0.9199  1.2816 -0.0954
  566MOL0     C76285   2.260   9.296   7.040 -0.0043 -0.5991  0.1914
  566MOL0     C76286   2.377   9.341   6.951 -0.5151 -0.0823 -0.5889
  566MOL0     C76287   2.498   9.397   7.033  0.2642  0.7333  0.5373
  566MOL0     C76288   2.452   9.508   7.129  0.0861  0.0614 -0.4718
  566MOL0     C76289   2.569   9.586   7.179  0.0949 -0.7450 -0.5679
  566MOL0     C76290   2.667   9.504   7.264  0.3528 -0.6293  0.7636
  566MOL0     C76291   2.784   9.440   7.185  0.1415  0.3508 -0.2735
  566MOL0     N76292   2.882   9.544   7.136 -0.6882  0.1769  0.1406
  566MOL0     C76293   2.970   9.617   7.214 -0.6343  0.2355  0.4180
  566MOL0     C76294   3.040   9.694   7.126  0.2230 -0.1883 -1.1277
  566MOL0     C76295   3.145   9.803   7.155 -0.8648 -0.1677  0.4615
  566MOL0     C76296   3.259   9.810   7.058  0.0448 -0.1560  0.4826
  566MOL0     C76297   3.352   9.703   7.078 -0.4709  0.4029  0.2772
  566MOL0     C76298   3.471   9.709   6.974  0.6012 -0.4189  0.5692
  566MOL0     O76299   3.572   9.603   6.986  0.2154 -0.0738  0.2365
  566MOL0     C76300   3.697   9.638   6.939  0.3098 -0.8487  0.0346
  566MOL0     C76301   3.802   9.551   6.982  0.2419 -0.6053 -0.2967
  566MOL0     C76302   3.930   9.563   6.939  0.2526  0.3651 -1.2344
  566MOL0     C76303   3.960   9.670   6.852 -0.6240  0.2512  0.1017
  566MOL0     C76304   4.096   9.688   6.796 -0.7055 -0.0987  0.0115
  566MOL0     O76305   4.105   9.784   6.702  0.4255  0.1637  0.4418
  566MOL0     C76306   4.228   9.840   6.671 -0.1727  1.0441 -0.5272
  566MOL0     C76307   4.235   9.912   6.546 -0.0405  0.8378 -0.3170
  566MOL0     C76308   4.358   9.964   6.506 -0.8098 -0.1335 -0.3598
  566MOL0     C76309   4.477   9.946   6.582 -1.2343 -0.5012  0.1767
  566MOL0     O76310   4.595   9.996   6.523 -0.0941 -0.2986 -0.0279
  566MOL0     C76311   4.692  10.035   6.617 -0.2405 -0.2004  0.4406
  566MOL0     C76312   4.777  10.131   6.536 -0.0009  0.5873 -0.2992
  566MOL0     C76313   4.899  10.174   6.605  1.3428 -0.0521  0.1510
  566MOL0     C76314   4.999  10.064   6.605 -0.0245 -0.3828  0.1393
  566MOL0     C76315   5.143  10.122   6.638  0.5552  0.7586  0.9960
  566MOL0     C76316   5.151  10.206   6.765  0.1754  0.4565 -1.0820
  566MOL0     C76317   5.297  10.247   6.798  1.0631  0.2759 -0.1936
  566MOL0     C76318   5.383  10.122   6.842 -0.0576  0.6363  0.6896
  566MOL0    Cl76319   5.551  10.175   6.914  0.0963  0.2342  0.2991
  566MOL0     C76320   4.464   9.888   6.703 -0.1334  0.3995 -0.3911
  566MOL0     C76321   4.345   9.839   6.752  0.4835  0.7815  0.0153
  566MOL0     O76322   4.193   9.617   6.836  0.4624  0.4170 -0.3699
  566MOL0     C76323   3.854   9.761   6.814  0.5109  0.7963  0.1306
  566MOL0     C76324   3.719   9.736   6.853 -1.6494  0.1392  0.5443
  566MOL0     N76325   2.990   9.669   6.997 -0.6157 -0.0228  0.6551
  566MOL0     N76326   2.893   9.585   7.008 -0.3516 -0.4445 -0.3329
  566MOL0     C76327   1.823   9.166   7.034 -0.1073  0.3344  0.2347
  566MOL0     C76328   1.710   9.091   7.018 -0.2188 -0.2960 -0.5108
  566MOL0     C76329   1.372   8.844   6.862  0.7946 -0.5531  0.1054
  566MOL0     C76330   1.423   8.756   6.764 -0.4566 -1.1321  0.2961
  566MOL0     C76331   1.336   8.674   6.695 -0.2579 -0.6972  0.5197
  566MOL0     C76332   1.197   8.669   6.719 -0.4835 -0.5249  0.0643
  566MOL0     O76333   1.110   8.590   6.658  0.6536 -0.3238 -0.1351
  566MOL0     C76334   1.010   8.662   6.581  0.3522  0.5553  0.3647
  566MOL0     C76335   0.914   8.565   6.527  0.8619 -0.5468  0.0813
  566MOL0     C76336   0.971   8.440   6.465  0.4526  0.3306  0.3826
  566MOL0     C76337   0.875   8.378   6.359  0.2803 -0.6337 -0.1483
  566MOL0     C76338   0.730   8.371   6.407 -0.1565  0.1217  0.7437
  566MOL0     C76339   0.611   8.355   6.435 -0.4935 -0.7781  0.3491
  566MOL0     C76340   1.143   8.753   6.817 -0.1554  0.4761  0.2761
  566MOL0     C76341   1.233   8.836   6.896 -1.1248  0.7490 -0.4677
  566MOL0     C76342   1.173   8.901   7.014  0.8569  0.0595 -0.7690
  566MOL0     H76343   1.813   8.896   6.770  0.9894 -0.6476  1.0367
  566MOL0     H76344   2.003   9.050   6.776  0.4181  2.5870  0.3457
  566MOL0     H76345   2.178   9.128   6.959  0.4359  1.2605  0.6221
  566MOL0     H76346   2.176   9.260   6.843 -2.1707 -3.0580 -1.8991
  566MOL0     H76347   2.305   9.226   7.111  0.2230 -0.0836  0.5585
  566MOL0     H76348   2.208   9.376   7.094 -1.7652 -1.2918 -0.3896
  566MOL0     H76349   2.337   9.420   6.886 -0.3749  0.9133  0.4959
  566MOL0     H76350   2.412   9.263   6.883  0.6972 -1.0409  1.0728
  566MOL0     H76351   2.551   9.324   7.095  2.1085  1.8280  0.3505
  566MOL0     H76352   2.569   9.435   6.959  2.2129  1.3490  2.6002
  566MOL0     H76353   2.385   9.581   7.083  1.8664  1.4042 -1.0415
  566MOL0     H76354   2.395   9.481   7.218  2.3282  0.6053  1.2058
  566MOL0     H76355   2.615   9.642   7.097 -1.1424  0.0640 -0.7409
  566MOL0     H76356   2.531   9.670   7.238 -0.3984  0.0273 -1.9514
  566MOL0     H76357   2.605   9.425   7.308  0.7327 -1.6255 -0.4137
  566MOL0     H76358   2.709   9.556   7.350  1.3481  0.1269 -0.1482
  566MOL0     H76359   2.833   9.366   7.249  1.9723  0.5823 -1.3438
  566MOL0     H76360   2.738   9.383   7.103 -0.4216  2.8426 -1.8003
  566MOL0     H76361   2.981   9.622   7.321  3.1458 -0.9085  0.2550
  566MOL0     H76362   3.090   9.898   7.156 -2.8913 -1.1388 -3.2315
  566MOL0     H76363   3.198   9.791   7.250 -0.4215  0.0271  0.2433
  566MOL0     H76364   3.225   9.800   6.954  2.8818  0.3203 -0.5687
  566MOL0     H76365   3.318   9.901   7.070  0.9993 -0.7822  0.7009
  566MOL0     H76366   3.293   9.614   7.058  1.7448 -1.1076  0.1292
  566MOL0     H76367   3.394   9.690   7.178  1.3847 -1.2539 -0.6424
  566MOL0     H76368   3.511   9.810   6.986  0.2987 -0.4696  2.3828
  566MOL0     H76369   3.424   9.699   6.876  3.0200 -1.8588 -0.5348
  566MOL0     H76370   3.779   9.472   7.054 -0.1414  0.2846  0.5715
  566MOL0     H76371   4.000   9.486   6.969  1.4932  0.2422 -4.0608
  566MOL0     H76372   4.141   9.940   6.499  0.0764  1.9882  0.1242
  566MOL0     H76373   4.372  10.004   6.406  0.7586 -0.9027 -0.4730
  566MOL0     H76374   4.649  10.096   6.697  2.3371  0.6871  1.2456
  566MOL0     H76375   4.745   9.946   6.653  0.9234  0.2915 -0.0227
  566MOL0     H76376   4.795  10.078   6.442 -3.9068 -1.9160  0.1026
  566MOL0     H76377   4.710  10.216   6.518 -0.8303  0.0647  0.2467
  566MOL0     H76378   4.936  10.255   6.540 -0.3673 -1.6062 -2.9631
  566MOL0     H76379   4.881  10.212   6.706  2.4822 -0.4344  0.5225
  566MOL0     H76380   5.014  10.022   6.505 -1.9147 -1.2187  0.1695
  566MOL0     H76381   4.984   9.980   6.673 -0.7298 -0.7903 -0.4954
  566MOL0     H76382   5.168  10.191   6.556  0.3630 -0.4023 -0.0675
  566MOL0     H76383   5.212  10.038   6.650  0.5298  0.3586 -1.2597
  566MOL0     H76384   5.091  10.297   6.754  0.3394  0.6442 -0.4810
  566MOL0     H76385   5.107  10.161   6.855  2.8315  0.7034  0.4355
  566MOL0     H76386   5.296  10.319   6.881  0.2123  0.7655 -0.6147
  566MOL0     H76387   5.334  10.297   6.708  0.1432 -1.2468 -1.4820
  566MOL0     H76388   5.334  10.058   6.916 -3.5193  0.8888 -1.1685
  566MOL0     H76389   5.395  10.045   6.766  1.1688  2.2936 -0.8783
  566MOL0     H76390   4.549   9.893   6.770 -0.5176  3.8870  0.0625
  566MOL0     H76391   4.353   9.793   6.850 -2.9819 -3.1823 -1.2868
  566MOL0     H76392   3.881   9.844   6.750 -0.0801  1.8211  1.1721
  566MOL0     H76393   3.647   9.807   6.812  0.2345  1.7087 -0.2307
  566MOL0     H76394   1.821   9.237   7.116  2.1103 -0.8805  1.4648
  566MOL0     H76395   1.625   9.114   7.082 -0.0701  1.2708 -0.8309
  566MOL0     H76396   1.527   8.748   6.736  0.2911  2.2137  1.6559
  566MOL0     H76397   1.374   8.615   6.612  0.9695 -0.3779  0.8410
  566MOL0     H76398   1.052   8.704   6.489  0.3680  1.5450  0.8053
  566MOL0     H76399   0.976   8.750   6.637  0.3246  0.2485  0.8326
  566MOL0     H76400   0.855   8.622   6.454  1.0103  0.4130  0.6954
  566MOL0     H76401   0.856   8.534   6.614  1.3846 -1.2153  0.1955
  566MOL0     H76402   0.978   8.372   6.550 -0.2226  1.1425  1.0990
  566MOL0     H76403   1.067   8.457   6.415  1.5271 -1.8106  1.5772
  566MOL0     H76404   0.884   8.428   6.262 -0.2186 -2.3005 -1.0980
  566MOL0     H76405   0.910   8.275   6.354 -0.2184 -0.8198  0.1197
  566MOL0     H76406   0.515   8.328   6.475 -0.3840  1.4232  2.3213
  566MOL0     H76407   1.038   8.760   6.841  0.2265  2.5676  1.6612
  566MOL0     H76408   1.065   8.883   7.024  0.4441  2.1063 -0.8966
  566MOL0     H76409   1.211   8.864   7.110 -0.3036 -4.7397 -1.9094
  566MOL0     H76410   1.179   9.010   7.006  1.0973 -0.0193 -1.6559
  567MOL0     O76411   9.329   1.548   5.961 -0.0409 -0.6926  0.6146
  567MOL0     C76412   9.292   1.660   5.980 -0.4398 -0.0961 -0.4287
  567MOL0     O76413   9.379   1.770   5.981  0.0062  0.2054 -0.3889
  567MOL0     C76414   9.514   1.746   5.964  0.6684 -0.8036  0.3686
  567MOL0     C76415   9.571   1.820   5.865 -0.0488 -0.0666  0.1709
  567MOL0     C76416   9.700   1.804   5.833 -0.7297 -0.7047  0.0232
  567MOL0     C76417   9.791   1.723   5.907  0.4220  0.4612  0.0363
  567MOL0     O76418   9.925   1.729   5.870 -0.2996 -0.5166  0.2109
  567MOL0     C76419  10.019   1.676   5.958 -0.8908 -0.6175  0.0179
  567MOL0     C76420  10.160   1.685   5.917  0.6068  0.5645 -0.7039
  567MOL0     C76421  10.183   1.626   5.781  0.3290 -0.5646  0.3443
  567MOL0     C76422  10.333   1.645   5.755 -0.0498 -0.0325 -0.2400
  567MOL0     C76423  10.373   1.633   5.611  0.4358 -0.1692 -0.5789
  567MOL0     C76424  10.327   1.491   5.561 -0.1011 -1.1030  0.6541
  567MOL0     C76425  10.383   1.457   5.424  0.2014  0.7410 -0.5122
  567MOL0     C76426  10.423   1.312   5.442  0.1284 -0.7611  0.0237
  567MOL0     N76427  10.539   1.292   5.535 -0.0199  0.7656  0.2301
  567MOL0     C76428  10.673   1.328   5.521 -0.4429  0.8259  0.1840
  567MOL0     C76429  10.731   1.294   5.643 -0.7466  0.2278  0.0738
  567MOL0     C76430  10.888   1.292   5.681  0.1188  0.4173  0.5054
  567MOL0     C76431  10.935   1.440   5.710 -0.5032  0.5995 -1.2058
  567MOL0     C76432  10.879   1.488   5.840  0.4003  0.4102 -0.4667
  567MOL0     C76433  10.928   1.415   5.969 -1.0894  0.3496  0.0341
  567MOL0     O76434  10.869   1.464   6.091  0.0089  0.0394  0.0074
  567MOL0     C76435  10.738   1.428   6.113  0.0330  0.0893 -0.3785
  567MOL0     C76436  10.676   1.485   6.225 -1.0624 -0.5098  0.0821
  567MOL0     C76437  10.544   1.472   6.253  0.5420  0.3742  0.1069
  567MOL0     C76438  10.459   1.403   6.160 -0.2656 -0.0957  0.1506
  567MOL0     C76439  10.311   1.384   6.195  0.1168 -0.1961 -0.2913
  567MOL0     O76440  10.261   1.416   6.319 -0.0715  0.2261  0.3270
  567MOL0     C76441  10.122   1.380   6.335 -0.4762  0.4266 -1.2508
  567MOL0     C76442  10.079   1.328   6.458 -0.2856  0.7577 -0.5397
  567MOL0     C76443   9.939   1.294   6.479 -0.1291 -0.4297 -0.5717
  567MOL0     C76444   9.846   1.340   6.392  0.2431  1.1764 -1.4044
  567MOL0     O76445   9.712   1.325   6.421 -0.0838  0.1501 -0.0602
  567MOL0     C76446   9.671   1.427   6.516  0.8188  0.3052 -0.0127
  567MOL0     C76447   9.515   1.419   6.525  0.1900  0.3215  0.1430
  567MOL0     C76448   9.453   1.516   6.422 -0.9968 -1.2306 -0.2123
  567MOL0     C76449   9.304   1.537   6.458 -0.0266 -0.4239 -0.5315
  567MOL0     C76450   9.225   1.615   6.353  1.2799  0.3768  0.0981
  567MOL0     C76451   9.080   1.644   6.375  0.1528  0.7070 -0.6580
  567MOL0     C76452   8.998   1.520   6.384  0.0603  0.5191  0.2888
  567MOL0     C76453   8.850   1.544   6.389  1.4081  1.2358 -0.2152
  567MOL0    Cl76454   8.803   1.675   6.477 -0.0071  0.0442 -0.1356
  567MOL0     C76455   9.886   1.400   6.283 -0.7871 -0.5378 -0.2361
  567MOL0     C76456  10.019   1.415   6.252 -0.4552 -0.0573  0.3625
  567MOL0     O76457  10.241   1.336   6.108 -0.3066  0.3026 -0.2697
  567MOL0     C76458  10.514   1.331   6.055  0.2483 -1.0139  0.1148
  567MOL0     C76459  10.650   1.346   6.026 -0.2719 -0.7003 -0.1452
  567MOL0     N76460  10.637   1.229   5.726  0.3816 -0.2495  0.2532
  567MOL0     N76461  10.525   1.237   5.660 -0.4280 -0.6229  1.0663
  567MOL0     C76462   9.737   1.661   6.024  0.1359 -0.0104  0.5008
  567MOL0     C76463   9.600   1.671   6.046 -0.3131  0.2761  0.3238
  567MOL0     C76464   9.149   1.680   6.001  0.2368  0.3419  0.7738
  567MOL0     C76465   9.065   1.566   6.027 -0.1945 -0.6342 -0.6361
  567MOL0     C76466   8.929   1.578   6.051 -0.5319  0.7426  0.0946
  567MOL0     C76467   8.862   1.697   6.028  1.0025  0.1341  0.1263
  567MOL0     O76468   8.720   1.690   6.045  0.0079  1.0711  0.4326
  567MOL0     C76469   8.648   1.808   6.026  0.3801 -0.1268 -0.6516
  567MOL0     C76470   8.604   1.843   5.878 -0.2251  0.1935 -0.4407
  567MOL0     C76471   8.527   1.723   5.805 -0.0928 -0.4751  0.4738
  567MOL0     C76472   8.553   1.700   5.653  0.3150 -0.7196 -0.7907
  567MOL0     C76473   8.476   1.593   5.591 -0.1856  0.5782 -0.9957
  567MOL0     C76474   8.407   1.500   5.553 -0.7885  0.4235 -0.4712
  567MOL0     C76475   8.940   1.795   5.976  0.4014  0.7029 -0.5406
  567MOL0     C76476   9.080   1.792   5.962 -0.2248 -0.0956 -0.0165
  567MOL0     C76477   9.133   1.918   5.902  0.8654 -0.2051 -0.3564
  567MOL0     H76478   9.505   1.889   5.811  1.0844  0.0816 -1.0758
  567MOL0     H76479   9.744   1.863   5.753 -1.3316  2.3439  1.7986
  567MOL0     H76480  10.004   1.725   6.055 -0.1897  2.0192 -1.1289
  567MOL0     H76481   9.991   1.570   5.964 -0.6713 -0.7405 -1.0972
  567MOL0     H76482  10.226   1.642   5.993  0.1154  0.0413 -0.5726
  567MOL0     H76483  10.178   1.793   5.913 -1.0553  0.8437 -3.1393
  567MOL0     H76484  10.126   1.679   5.705  0.1066 -1.0078  0.1959
  567MOL0     H76485  10.167   1.518   5.793  2.6137 -0.7281  2.9091
  567MOL0     H76486  10.360   1.747   5.784  1.8076  0.1829 -2.5095
  567MOL0     H76487  10.390   1.580   5.822  0.2144  0.2650 -0.1771
  567MOL0     H76488  10.323   1.711   5.553 -3.2079  0.5408  3.0115
  567MOL0     H76489  10.480   1.647   5.595  0.2074 -0.3239 -2.3981
  567MOL0     H76490  10.357   1.426   5.644  0.6815 -1.1486  0.3466
  567MOL0     H76491  10.218   1.481   5.555 -0.4319  2.3187 -2.9951
  567MOL0     H76492  10.465   1.521   5.392 -0.2700  1.7269  0.2078
  567MOL0     H76493  10.302   1.455   5.350 -0.3655 -2.5910  0.0396
  567MOL0     H76494  10.339   1.258   5.486  0.1682  0.5173  1.8046
  567MOL0     H76495  10.440   1.275   5.341 -0.6780  0.0695 -0.4303
  567MOL0     H76496  10.728   1.363   5.434  1.3993  0.9819  1.3606
  567MOL0     H76497  10.899   1.215   5.758 -1.4921  0.6759  1.0342
  567MOL0     H76498  10.937   1.256   5.591 -3.2182 -3.0566 -0.1875
  567MOL0     H76499  11.044   1.451   5.713 -0.3754 -0.6538  0.4084
  567MOL0     H76500  10.911   1.506   5.627  2.4912  1.7589 -1.2910
  567MOL0     H76501  10.771   1.489   5.827  0.0429 -1.5400  1.5583
  567MOL0     H76502  10.916   1.589   5.859  0.9773  0.3323 -1.1231
  567MOL0     H76503  11.036   1.431   5.973 -1.3694  2.3988  0.8532
  567MOL0     H76504  10.920   1.307   5.958  2.5445  0.2011 -2.9191
  567MOL0     H76505  10.733   1.547   6.294 -1.6627  1.7884 -1.3615
  567MOL0     H76506  10.496   1.515   6.340  1.6492  0.4195  0.7266
  567MOL0     H76507  10.146   1.309   6.541  3.4287 -0.1549 -3.4873
  567MOL0     H76508   9.907   1.247   6.571  0.1485  2.3191  1.0266
  567MOL0     H76509   9.717   1.415   6.614  2.2833 -2.1646 -0.8879
  567MOL0     H76510   9.706   1.520   6.472  0.5137  1.0972  1.3890
  567MOL0     H76511   9.468   1.321   6.523 -1.8563  1.2471 -0.0241
  567MOL0     H76512   9.500   1.455   6.627  1.6757  0.5979  0.2854
  567MOL0     H76513   9.510   1.609   6.423  0.0127 -1.7757 -1.9837
  567MOL0     H76514   9.444   1.479   6.319 -3.1257  2.0724 -1.3833
  567MOL0     H76515   9.289   1.602   6.545  0.1362  0.0823 -0.8782
  567MOL0     H76516   9.269   1.437   6.487  0.5873 -0.3932  0.3682
  567MOL0     H76517   9.245   1.559   6.261 -1.9621 -1.1420  0.1843
  567MOL0     H76518   9.276   1.710   6.337 -1.0914  2.0535  1.7867
  567MOL0     H76519   9.070   1.706   6.465 -2.0409 -0.7187  0.1973
  567MOL0     H76520   9.045   1.698   6.287 -0.0024  2.4063  0.3885
  567MOL0     H76521   9.027   1.460   6.471 -1.1383 -1.2461 -0.4474
  567MOL0     H76522   9.022   1.457   6.297  3.6037 -0.4705  1.8168
  567MOL0     H76523   8.806   1.571   6.293  3.6572  0.6306 -1.4956
  567MOL0     H76524   8.803   1.459   6.439  1.4516  2.2839  1.7201
  567MOL0     H76525   9.818   1.441   6.208 -2.4244  0.8837  1.9033
  567MOL0     H76526  10.046   1.480   6.170 -0.5812  0.5219  0.7775
  567MOL0     H76527  10.460   1.272   5.982  0.1713  0.3688 -0.9927
  567MOL0     H76528  10.690   1.290   5.943 -2.2400 -0.0590 -1.5925
  567MOL0     H76529   9.791   1.598   6.094  1.6329 -0.9340 -1.4095
  567MOL0     H76530   9.545   1.612   6.117 -0.7272 -1.2602 -1.2063
  567MOL0     H76531   9.106   1.470   6.058 -0.8494 -0.5624  0.5378
  567MOL0     H76532   8.885   1.492   6.101  3.1183 -3.6856 -3.3913
  567MOL0     H76533   8.708   1.883   6.079 -0.4995  0.0340  0.1542
  567MOL0     H76534   8.553   1.805   6.081 -0.8878  0.1908 -2.7062
  567MOL0     H76535   8.697   1.870   5.827  1.6164 -1.5909  1.8184
  567MOL0     H76536   8.543   1.934   5.873  2.7863  2.3614 -0.8105
  567MOL0     H76537   8.420   1.741   5.819 -0.1644 -0.1297 -0.4265
  567MOL0     H76538   8.539   1.630   5.860  0.7605 -0.6963 -0.0642
  567MOL0     H76539   8.537   1.790   5.593 -0.5920 -1.6035 -1.9028
  567MOL0     H76540   8.662   1.686   5.648  0.9049  2.8013 -0.0789
  567MOL0     H76541   8.352   1.415   5.519 -1.3934  1.1473 -1.3464
  567MOL0     H76542   8.896   1.891   5.952 -1.8488  0.1325  0.9941
  567MOL0     H76543   9.224   1.908   5.842  1.4910 -0.2380  0.5881
  567MOL0     H76544   9.058   1.975   5.846 -1.5968 -3.1901 -0.3920
  567MOL0     H76545   9.169   1.979   5.985 -1.1035 -1.0406  1.1911
  568MOL0     O76546   7.259  10.834   0.694 -0.2062 -0.3887 -0.0329
  568MOL0     C76547   7.229  10.747   0.771 -0.7080 -0.2927 -0.3939
  568MOL0     O76548   7.322  10.687   0.861 -0.6015  1.3239  0.7352
  568MOL0     C76549   7.457  10.717   0.848  0.1083 -0.0741  0.1940
  568MOL0     C76550   7.502  10.843   0.854 -0.4031  0.0159  0.4242
  568MOL0     C76551   7.644  10.876   0.881 -0.3172  0.1138  0.3908
  568MOL0     C76552   7.738  10.764   0.879 -0.1667  0.6084 -0.0755
  568MOL0     O76553   7.874  10.776   0.910 -0.0245 -1.2632  0.3700
  568MOL0     C76554   7.920  10.917   0.939 -0.5032  0.1444  0.2523
  568MOL0     C76555   8.072  10.905   0.963 -0.4203  0.2365  0.2746
  568MOL0     C76556   8.121  11.008   1.058 -0.5043  0.4123  0.1991
  568MOL0     C76557   8.234  10.952   1.152 -0.0344  0.5409  0.3366
  568MOL0     C76558   8.348  10.901   1.064  0.1121  0.7631  0.3508
  568MOL0     C76559   8.411  10.994   0.969  0.4517 -0.1517  0.1233
  568MOL0     C76560   8.547  10.948   0.918 -0.2062  0.1082  0.5996
  568MOL0     C76561   8.636  11.055   0.866 -0.2580  0.2672 -0.4157
  568MOL0     N76562   8.767  11.010   0.837 -0.4334 -0.2878  0.3372
  568MOL0     C76563   8.878  10.998   0.918 -0.2941 -0.6506 -0.3806
  568MOL0     C76564   8.977  10.969   0.836  1.3101  0.4674  1.0375
  568MOL0     C76565   9.111  10.930   0.869 -0.1576  0.3277 -0.3247
  568MOL0     C76566   9.137  10.928   1.021 -0.2401 -0.1170 -0.6403
  568MOL0     C76567   9.289  10.902   1.061  0.2706 -0.4999  0.3051
  568MOL0     C76568   9.328  10.762   1.017  0.2645 -0.2300  0.3878
  568MOL0     O76569   9.423  10.692   1.093 -0.3483  0.6828 -0.1939
  568MOL0     C76570   9.551  10.745   1.102  0.0090  0.3368 -0.0938
  568MOL0     C76571   9.605  10.856   1.029  0.0211  0.5842 -0.4358
  568MOL0     C76572   9.743  10.883   1.041 -0.8662  0.5363 -0.8258
  568MOL0     C76573   9.829  10.802   1.111 -0.2081  0.2769 -0.0425
  568MOL0     C76574   9.969  10.848   1.128  0.6562 -0.8998  0.4723
  568MOL0     O76575  10.027  10.788   1.236  0.2004 -0.0715 -0.2584
  568MOL0     C76576  10.158  10.796   1.265  0.0494  0.1288  1.2937
  568MOL0     C76577  10.193  10.788   1.395 -0.3098  0.3009  0.4366
  568MOL0     C76578  10.329  10.810   1.435 -0.3885 -0.3173 -0.8572
  568MOL0     C76579  10.432  10.841   1.354  0.8381  0.2010  0.6078
  568MOL0     O76580  10.557  10.868   1.405  0.3061 -0.6771 -0.8869
  568MOL0     C76581  10.668  10.813   1.333  0.5113  0.2599  0.4462
  568MOL0     C76582  10.752  10.744   1.437  0.5287  0.1688  0.1690
  568MOL0     C76583  10.876  10.669   1.371  0.3855  0.1336 -0.1989
  568MOL0     C76584  10.958  10.603   1.482  0.5530  0.1503 -0.1064
  568MOL0     C76585  11.067  10.503   1.429  0.4056 -0.8557  0.4332
  568MOL0     C76586  11.187  10.582   1.380  0.6826 -0.6261  0.5137
  568MOL0     C76587  11.292  10.488   1.304 -0.5752  0.2494  0.1356
  568MOL0     C76588  11.229  10.387   1.209 -0.0915 -0.0955 -0.0562
  568MOL0    Cl76589  11.129  10.483   1.098 -0.5360  0.1509 -0.0988
  568MOL0     C76590  10.400  10.852   1.220 -0.1869  0.2623  0.2369
  568MOL0     C76591  10.267  10.823   1.175 -0.3508 -0.8650 -0.1904
  568MOL0     O76592  10.017  10.932   1.049 -0.4290  0.3035 -0.6747
  568MOL0     C76593   9.781  10.688   1.175  0.9862  1.1255 -0.6592
  568MOL0     C76594   9.644  10.668   1.179  0.1169 -0.2285 -0.3953
  568MOL0     N76595   8.927  10.958   0.697  0.5171  0.2055 -0.5156
  568MOL0     N76596   8.797  10.990   0.702  0.2649 -0.4263 -0.2545
  568MOL0     C76597   7.688  10.637   0.871  0.8753  0.4455  1.3963
  568MOL0     C76598   7.548  10.610   0.848 -1.1391  0.1474 -0.3407
  568MOL0     C76599   7.087  10.701   0.786  0.1238  0.6893  0.1896
  568MOL0     C76600   7.049  10.632   0.898 -0.2109  0.0647  0.1011
  568MOL0     C76601   6.915  10.588   0.917  0.0945 -0.4340  0.3950
  568MOL0     C76602   6.822  10.612   0.821 -0.6178  0.8355 -0.3146
  568MOL0     O76603   6.692  10.564   0.845 -0.5293  0.9270  0.1599
  568MOL0     C76604   6.618  10.648   0.938  0.3212 -0.3029  0.0672
  568MOL0     C76605   6.487  10.594   0.991  0.0052  0.6290 -0.2663
  568MOL0     C76606   6.406  10.562   0.873 -0.3874  0.0351  0.4657
  568MOL0     C76607   6.267  10.510   0.919 -0.1047 -0.4525  0.0163
  568MOL0     C76608   6.270  10.370   0.970  0.1875 -0.1953 -1.7870
  568MOL0     C76609   6.293  10.264   1.020  0.2780 -0.3695  0.6356
  568MOL0     C76610   6.856  10.689   0.711  0.2213 -0.2751  0.7168
  568MOL0     C76611   6.985  10.722   0.689 -0.2437 -0.6745 -0.0518
  568MOL0     C76612   7.013  10.812   0.570  0.8764 -0.2504 -0.2777
  568MOL0     H76613   7.434  10.927   0.863  0.5288  1.0256 -1.4451
  568MOL0     H76614   7.666  10.979   0.907  2.3392 -0.1700 -0.4508
  568MOL0     H76615   7.907  10.972   0.845 -0.7859  0.2594  0.3568
  568MOL0     H76616   7.876  10.962   1.028 -0.2051 -1.4796  1.2724
  568MOL0     H76617   8.130  10.912   0.870 -0.6901  1.4605  0.1814
  568MOL0     H76618   8.092  10.808   1.008  0.0491 -0.0016 -0.4263
  568MOL0     H76619   8.035  11.048   1.112 -0.5400  1.0928 -0.3452
  568MOL0     H76620   8.156  11.096   1.002 -1.2024  0.1947 -0.5992
  568MOL0     H76621   8.281  11.023   1.220  0.3917  1.8587 -1.2838
  568MOL0     H76622   8.199  10.865   1.209  1.6084  0.6636  1.6240
  568MOL0     H76623   8.426  10.870   1.134 -0.4310  0.1241  0.6902
  568MOL0     H76624   8.320  10.823   0.992 -0.5748 -1.3812  2.7596
  568MOL0     H76625   8.345  11.013   0.885 -1.9366  2.3989  2.3638
  568MOL0     H76626   8.412  11.087   1.028 -3.3944 -2.1978  4.0096
  568MOL0     H76627   8.532  10.869   0.845 -1.4781 -0.7546  1.7412
  568MOL0     H76628   8.608  10.902   0.997 -1.0904 -2.8718 -0.3189
  568MOL0     H76629   8.587  11.104   0.781  0.0310  0.8167 -0.2704
  568MOL0     H76630   8.645  11.132   0.943 -2.2829 -0.4266  0.5573
  568MOL0     H76631   8.889  11.023   1.023  1.7300  1.4933 -1.0104
  568MOL0     H76632   9.124  10.823   0.846  3.3349  0.6127 -0.1746
  568MOL0     H76633   9.180  10.988   0.807 -1.0787 -0.1035 -1.8240
  568MOL0     H76634   9.104  11.025   1.060  2.4507  0.7341 -0.2681
  568MOL0     H76635   9.075  10.858   1.076 -1.4141 -0.1310 -1.9434
  568MOL0     H76636   9.302  10.898   1.170  0.3627 -3.3550  0.2531
  568MOL0     H76637   9.352  10.977   1.011  0.5816 -2.6286 -2.7705
  568MOL0     H76638   9.348  10.758   0.910 -1.0742  0.4468  0.0926
  568MOL0     H76639   9.243  10.696   1.040 -0.0232  0.2825  0.8245
  568MOL0     H76640   9.555  10.909   0.950 -1.5563 -2.5004 -1.6740
  568MOL0     H76641   9.768  10.967   0.978 -0.9206 -0.1131 -1.7346
  568MOL0     H76642  10.120  10.757   1.469 -0.8189 -1.4640 -0.7418
  568MOL0     H76643  10.352  10.798   1.540  0.2062 -0.4938 -1.0042
  568MOL0     H76644  10.630  10.739   1.262 -1.7995  1.6150  0.1675
  568MOL0     H76645  10.721  10.887   1.273  1.3589  0.2844  1.2001
  568MOL0     H76646  10.793  10.828   1.495 -1.1595  0.3503  1.1431
  568MOL0     H76647  10.696  10.684   1.509  0.9797  1.9201  2.1082
  568MOL0     H76648  10.831  10.582   1.321  3.3014 -3.4640  2.8020
  568MOL0     H76649  10.938  10.733   1.308  0.9817 -1.8877 -1.8023
  568MOL0     H76650  10.886  10.544   1.540 -0.3623  2.9531  1.8477
  568MOL0     H76651  11.001  10.674   1.554  3.3301 -1.3053 -0.1924
  568MOL0     H76652  11.008  10.433   1.369 -2.1348  0.6880  0.9343
  568MOL0     H76653  11.100  10.461   1.524 -1.2594  0.0806  1.4898
  568MOL0     H76654  11.156  10.664   1.316  1.4837 -0.3566  0.4568
  568MOL0     H76655  11.238  10.634   1.462 -1.1338  0.4698  1.0058
  568MOL0     H76656  11.354  10.424   1.368  0.4702 -1.6544 -2.5666
  568MOL0     H76657  11.361  10.555   1.253  1.0721 -0.5523  1.1928
  568MOL0     H76658  11.308  10.327   1.162  0.9695  1.4221 -0.3051
  568MOL0     H76659  11.157  10.319   1.255  0.4212  0.2174  1.2771
  568MOL0     H76660  10.482  10.857   1.149 -0.6039 -1.8819 -0.4768
  568MOL0     H76661  10.246  10.842   1.071 -1.2280  0.3834  0.1895
  568MOL0     H76662   9.847  10.623   1.230  0.1790  1.3025  0.5492
  568MOL0     H76663   9.615  10.580   1.236 -1.9358  1.3271  1.1524
  568MOL0     H76664   7.745  10.545   0.873 -1.2172 -0.9242  2.1601
  568MOL0     H76665   7.518  10.506   0.843 -1.0017  0.1831 -3.7288
  568MOL0     H76666   7.125  10.608   0.972  0.2185  4.4517  1.3697
  568MOL0     H76667   6.897  10.546   1.015 -2.9785  0.8756  0.4949
  568MOL0     H76668   6.594  10.745   0.894 -1.6014  0.7623  3.1126
  568MOL0     H76669   6.684  10.680   1.020  2.3080 -1.9081 -0.8061
  568MOL0     H76670   6.441  10.670   1.055 -3.1024 -0.9915 -0.4121
  568MOL0     H76671   6.518  10.515   1.060  0.9245  2.1190  1.1066
  568MOL0     H76672   6.453  10.482   0.814  1.0706  1.0865  0.1443
  568MOL0     H76673   6.393  10.647   0.806  1.4856 -1.0100 -1.3602
  568MOL0     H76674   6.205  10.575   0.981 -3.1370 -4.8751  2.1691
  568MOL0     H76675   6.210  10.507   0.826 -0.3913 -0.8642  0.1976
  568MOL0     H76676   6.315  10.170   1.066  1.2677  0.2000  1.3527
  568MOL0     H76677   6.783  10.709   0.633  0.4399 -0.3305  0.4976
  568MOL0     H76678   7.086  10.765   0.504 -1.2910 -2.0403 -1.5400
  568MOL0     H76679   6.920  10.822   0.515 -0.5607 -2.9512  1.4635
  568MOL0     H76680   7.035  10.916   0.598 -0.9096 -0.2342  1.2728
  569MOL0     O76681   5.093   6.147  10.784 -0.1523 -0.2421  0.5699
  569MOL0     C76682   5.066   6.265  10.756  0.4305  0.8655 -0.0827
  569MOL0     O76683   5.142   6.368  10.792  0.0417  0.4978 -1.0184
  569MOL0     C76684   5.243   6.325  10.873  1.1020 -0.0733 -0.8818
  569MOL0     C76685   5.359   6.261  10.819 -0.2536 -0.0138  0.3915
  569MOL0     C76686   5.468   6.234  10.902 -0.2741 -0.2575  0.7740
  569MOL0     C76687   5.451   6.251  11.040 -0.3127  0.1727  0.4034
  569MOL0     O76688   5.560   6.217  11.118 -0.1928  0.8584 -0.1085
  569MOL0     C76689   5.561   6.268  11.247 -0.3203 -0.2540  1.0924
  569MOL0     C76690   5.700   6.247  11.309  0.8162  0.4756  0.0475
  569MOL0     C76691   5.804   6.346  11.244 -0.2210  1.1795 -0.3670
  569MOL0     C76692   5.938   6.335  11.314 -0.0352  0.5593  0.5128
  569MOL0     C76693   6.003   6.204  11.259  0.1776  0.3575 -0.6284
  569MOL0     C76694   6.137   6.189  11.321  0.3439 -0.1490  0.4223
  569MOL0     C76695   6.205   6.060  11.279  0.7156 -0.8958 -0.9428
  569MOL0     C76696   6.310   6.014  11.374  0.5758  0.5950  0.1158
  569MOL0     N76697   6.433   6.096  11.364 -0.1926  0.1896  0.3953
  569MOL0     C76698   6.525   6.093  11.257 -1.2107 -0.1365  0.0118
  569MOL0     C76699   6.649   6.127  11.309 -0.1111  0.2441  0.0477
  569MOL0     C76700   6.774   6.153  11.229  0.3514  0.5128 -0.2194
  569MOL0     C76701   6.749   6.256  11.125  0.6238 -0.4811  0.3480
  569MOL0     C76702   6.868   6.297  11.045 -0.0305 -0.7193  0.1304
  569MOL0     C76703   6.967   6.371  11.126 -0.3248 -0.2597  0.3729
  569MOL0     O76704   7.044   6.464  11.043 -0.1135 -0.2250 -0.1350
  569MOL0     C76705   7.147   6.524  11.108 -0.2303  0.9872  0.5310
  569MOL0     C76706   7.171   6.521  11.240  0.7124 -0.1916 -0.2097
  569MOL0     C76707   7.273   6.596  11.292  0.3653 -0.4733  0.0481
  569MOL0     C76708   7.364   6.670  11.218 -0.0040  0.1444  0.3824
  569MOL0     C76709   7.467   6.750  11.283  0.4999 -0.3099  0.8919
  569MOL0     O76710   7.544   6.831  11.202  0.5511 -0.0760 -0.4358
  569MOL0     C76711   7.628   6.916  11.273 -0.3261  0.4170  0.0844
  569MOL0     C76712   7.605   7.052  11.260  0.8778 -0.8125 -0.5333
  569MOL0     C76713   7.694   7.148  11.320  0.5939  0.4832 -0.2016
  569MOL0     C76714   7.813   7.109  11.383 -0.2765  0.2150 -0.4566
  569MOL0     O76715   7.903   7.193  11.432 -1.2826  0.7031 -0.1567
  569MOL0     C76716   7.896   7.336  11.397  0.7683 -0.0629 -0.1866
  569MOL0     C76717   7.991   7.436  11.466 -0.1939 -0.4864  0.5442
  569MOL0     C76718   8.130   7.385  11.480  0.1054 -0.2985  0.1378
  569MOL0     C76719   8.216   7.476  11.569 -0.8284  0.2383 -0.1922
  569MOL0     C76720   8.355   7.437  11.556  0.2157  0.8411  0.5518
  569MOL0     C76721   8.446   7.506  11.660  0.6101 -0.0932  0.2753
  569MOL0     C76722   8.591   7.501  11.614 -0.1453  0.5020  0.5520
  569MOL0     C76723   8.703   7.545  11.720 -0.2577  0.2997 -0.3903
  569MOL0    Cl76724   8.730   7.725  11.734  0.3442  0.4145  0.1499
  569MOL0     C76725   7.834   6.972  11.395 -0.4779 -0.4705 -0.2758
  569MOL0     C76726   7.745   6.875  11.335  0.6939 -0.2282 -0.7787
  569MOL0     O76727   7.457   6.759  11.402  0.0125 -0.4286 -0.0802
  569MOL0     C76728   7.331   6.682  11.077  0.6386 -1.3859 -0.3039
  569MOL0     C76729   7.233   6.597  11.020 -0.1801  0.3744  0.4823
  569MOL0     N76730   6.631   6.153  11.439  0.0944 -0.0047  0.4093
  569MOL0     N76731   6.505   6.141  11.472  0.3417  0.7032 -0.1054
  569MOL0     C76732   5.328   6.289  11.098  1.3645  0.3389 -0.2377
  569MOL0     C76733   5.224   6.331  11.012  0.0096  0.7558 -0.9455
  569MOL0     C76734   4.951   6.297  10.670  1.3835 -0.1639  0.4857
  569MOL0     C76735   4.879   6.422  10.682 -0.0976  0.8630 -1.2832
  569MOL0     C76736   4.783   6.465  10.600  0.1637 -0.0717  0.0057
  569MOL0     C76737   4.734   6.380  10.504  0.5011  0.9654 -0.4108
  569MOL0     O76738   4.624   6.421  10.429 -0.1295 -0.4434 -0.0101
  569MOL0     C76739   4.570   6.335  10.329  0.2533  0.8412 -0.5046
  569MOL0     C76740   4.456   6.406  10.255 -0.3014  0.4512 -0.1819
  569MOL0     C76741   4.476   6.559  10.230 -0.2784 -0.1423 -0.4557
  569MOL0     C76742   4.377   6.633  10.133 -0.5607 -0.0682  0.5689
  569MOL0     C76743   4.236   6.597  10.164 -0.1877 -0.6579 -0.2352
  569MOL0     C76744   4.120   6.588  10.168  1.2680  0.0948 -0.1214
  569MOL0     C76745   4.801   6.255  10.484 -0.8052  0.8152 -0.1649
  569MOL0     C76746   4.906   6.216  10.565  0.0570  0.9370  0.1986
  569MOL0     C76747   4.964   6.083  10.522  0.7173  0.6047 -1.1036
  569MOL0     H76748   5.376   6.249  10.713 -1.0829  0.9096  0.1442
  569MOL0     H76749   5.559   6.205  10.852  0.4730  1.6787  0.9345
  569MOL0     H76750   5.539   6.375  11.244  0.2107 -0.1570 -1.6622
  569MOL0     H76751   5.479   6.223  11.304 -0.5980  1.8989  2.5058
  569MOL0     H76752   5.724   6.140  11.305 -1.0504  0.0691 -1.5578
  569MOL0     H76753   5.688   6.264  11.416  1.6712 -0.9227  0.3940
  569MOL0     H76754   5.776   6.451  11.256  1.1341  1.6150 -0.8549
  569MOL0     H76755   5.813   6.326  11.137 -0.7275 -3.4329  0.2515
  569MOL0     H76756   6.002   6.422  11.297  0.4394  0.2223  0.5707
  569MOL0     H76757   5.919   6.327  11.422  3.9133  1.3870  1.4329
  569MOL0     H76758   5.940   6.118  11.283  2.2818 -0.2480  3.6683
  569MOL0     H76759   6.012   6.207  11.150  1.7068  0.2947 -0.5310
  569MOL0     H76760   6.213   6.266  11.304  0.6659 -0.2873  1.1769
  569MOL0     H76761   6.119   6.191  11.429  1.9659  1.8371  0.7196
  569MOL0     H76762   6.235   6.069  11.174  1.1784  1.4671 -0.6473
  569MOL0     H76763   6.126   5.984  11.277 -0.7812  0.6267 -1.6866
  569MOL0     H76764   6.273   6.032  11.476 -1.0653  2.1739 -0.7110
  569MOL0     H76765   6.332   5.907  11.369 -4.1121 -0.5732 -0.1255
  569MOL0     H76766   6.502   6.066  11.154 -0.1821 -1.0164 -0.0107
  569MOL0     H76767   6.853   6.184  11.299  2.7594 -1.0999 -2.0684
  569MOL0     H76768   6.800   6.060  11.178  4.1396  1.9953 -1.3828
  569MOL0     H76769   6.675   6.227  11.049  1.1202 -0.1027 -0.2842
  569MOL0     H76770   6.708   6.339  11.183  0.9990  0.0351 -0.1160
  569MOL0     H76771   6.841   6.362  10.962 -0.4029  1.2701  1.7373
  569MOL0     H76772   6.910   6.206  11.000 -2.9774 -1.8875 -0.5385
  569MOL0     H76773   7.030   6.307  11.190  1.1803  1.1558  0.3501
  569MOL0     H76774   6.905   6.433  11.192 -0.1515  0.8627 -0.4943
  569MOL0     H76775   7.103   6.474  11.310 -2.4607  2.0231 -1.5473
  569MOL0     H76776   7.288   6.586  11.399  3.9269 -1.1908 -0.3909
  569MOL0     H76777   7.525   7.080  11.192  1.7163  1.5750 -0.6117
  569MOL0     H76778   7.660   7.249  11.301 -0.4430  0.0654 -0.6097
  569MOL0     H76779   7.894   7.344  11.288 -0.9825  2.5905 -0.0525
  569MOL0     H76780   7.797   7.370  11.430  0.5582  0.9936 -1.7842
  569MOL0     H76781   7.993   7.531  11.411  1.7931 -1.8041 -1.8703
  569MOL0     H76782   7.968   7.451  11.572 -0.8214  1.2102  0.1988
  569MOL0     H76783   8.121   7.287  11.528 -1.7032  0.1049  0.6733
  569MOL0     H76784   8.175   7.389  11.380 -0.3103 -1.1147 -0.0881
  569MOL0     H76785   8.170   7.478  11.668 -1.6669  1.3077 -0.5880
  569MOL0     H76786   8.216   7.581  11.538  2.4126  0.4367  0.1250
  569MOL0     H76787   8.389   7.460  11.454 -2.0176 -1.7211 -0.9029
  569MOL0     H76788   8.357   7.328  11.572 -1.2923 -0.0480 -3.7757
  569MOL0     H76789   8.429   7.614  11.671  1.1567  0.0332 -0.0557
  569MOL0     H76790   8.434   7.464  11.760 -0.6886  0.8287  0.5288
  569MOL0     H76791   8.598   7.577  11.535 -0.7192  0.6176  0.6121
  569MOL0     H76792   8.614   7.397  11.591 -3.8310 -0.7289  1.6985
  569MOL0     H76793   8.676   7.504  11.818  0.4182  0.1494 -0.2628
  569MOL0     H76794   8.802   7.498  11.710 -0.0476 -0.0547  2.4654
  569MOL0     H76795   7.924   6.937  11.446  0.0567  0.3125 -0.6586
  569MOL0     H76796   7.772   6.770  11.333 -0.2489 -0.4646 -1.1403
  569MOL0     H76797   7.407   6.744  11.029  0.1202 -1.1588 -0.8506
  569MOL0     H76798   7.220   6.593  10.913  0.4491 -0.5891  0.4291
  569MOL0     H76799   5.305   6.290  11.204  2.6630  0.9895  0.0540
  569MOL0     H76800   5.125   6.359  11.045 -0.6046 -2.1100 -0.0286
  569MOL0     H76801   4.900   6.491  10.763 -0.4787 -3.0764  2.5123
  569MOL0     H76802   4.735   6.559  10.624  1.0881 -0.5135  4.2812
  569MOL0     H76803   4.536   6.245  10.381  0.2496 -0.0531 -1.9811
  569MOL0     H76804   4.638   6.310  10.247  1.5854  2.3300  0.0819
  569MOL0     H76805   4.365   6.396  10.315 -1.8997  2.8053 -2.0390
  569MOL0     H76806   4.424   6.353  10.165  0.3603  0.6724 -0.5570
  569MOL0     H76807   4.575   6.570  10.187 -0.6170  1.2184 -0.9392
  569MOL0     H76808   4.485   6.611  10.326  0.2373 -1.4065  0.1944
  569MOL0     H76809   4.384   6.742  10.143  1.3607 -0.1678  0.6729
  569MOL0     H76810   4.393   6.601  10.029  2.0328 -0.2920  0.9551
  569MOL0     H76811   4.016   6.568  10.149  1.3133  0.1154 -0.4023
  569MOL0     H76812   4.765   6.192  10.404 -2.3333 -0.5533  1.5121
  569MOL0     H76813   4.949   6.066  10.415  0.8988  0.8785 -1.1717
  569MOL0     H76814   5.072   6.081  10.540  0.7398 -1.3748 -1.2242
  569MOL0     H76815   4.907   6.014  10.585  0.2601  0.4139 -1.7167
  570MOL0     O76816   9.616   1.484   7.342  1.1133  0.5256 -0.7412
  570MOL0     C76817   9.542   1.404   7.409  0.7982  0.9989  0.8291
  570MOL0     O76818   9.580   1.341   7.523  0.3046  0.1447 -0.3606
  570MOL0     C76819   9.671   1.417   7.599 -0.1653  0.4601 -0.7407
  570MOL0     C76820   9.645   1.548   7.627  0.1222  0.6067 -0.5175
  570MOL0     C76821   9.733   1.626   7.707 -0.7220  0.0871  0.3002
  570MOL0     C76822   9.853   1.565   7.763  0.1000  0.1025  0.3845
  570MOL0     O76823   9.956   1.625   7.836  0.9693 -0.1302  1.0563
  570MOL0     C76824   9.962   1.771   7.835 -0.3985  0.6020  0.2634
  570MOL0     C76825  10.083   1.821   7.914 -0.1079 -0.2194 -0.3029
  570MOL0     C76826  10.088   1.972   7.906  0.5079  0.4141  0.3787
  570MOL0     C76827  10.009   2.034   8.019  0.3412  0.3639  0.6002
  570MOL0     C76828   9.974   2.174   7.980  0.7900 -0.0472 -0.3170
  570MOL0     C76829   9.911   2.238   8.097  0.1191  0.1080 -0.0747
  570MOL0     C76830   9.869   2.386   8.079  0.3231 -0.9276 -0.5967
  570MOL0     C76831   9.735   2.420   8.021 -0.4508  0.7139 -0.0470
  570MOL0     N76832   9.724   2.376   7.879  0.6372  0.4257 -0.3266
  570MOL0     C76833   9.796   2.435   7.777  0.4140 -0.9122 -0.5205
  570MOL0     C76834   9.760   2.374   7.663 -0.5309 -0.8776  0.4421
  570MOL0     C76835   9.808   2.429   7.532  0.4593  0.8457 -0.2347
  570MOL0     C76836   9.900   2.343   7.453 -1.1270 -0.2385  0.4077
  570MOL0     C76837  10.044   2.333   7.509  0.1419  0.1257 -0.5099
  570MOL0     C76838  10.122   2.222   7.440  0.2061  1.3033  0.2164
  570MOL0     O76839  10.114   2.240   7.293 -0.0471  0.5503  0.0558
  570MOL0     C76840  10.239   2.265   7.237 -0.6538 -0.3368 -0.1479
  570MOL0     C76841  10.320   2.157   7.199  0.9434  0.0994  0.2310
  570MOL0     C76842  10.442   2.186   7.138  0.0630 -1.8811  0.6956
  570MOL0     C76843  10.498   2.318   7.125 -0.7212 -0.1820  0.3874
  570MOL0     C76844  10.641   2.345   7.087 -0.7391 -0.4838  0.6519
  570MOL0     O76845  10.729   2.243   7.066  0.1966 -0.6453 -0.2614
  570MOL0     C76846  10.863   2.258   7.046  0.1787 -0.1395 -0.0882
  570MOL0     C76847  10.954   2.361   7.088 -0.5242 -0.5152 -0.0789
  570MOL0     C76848  11.087   2.358   7.063 -0.3269 -0.5626 -0.4255
  570MOL0     C76849  11.146   2.244   7.027 -0.4241 -0.1618  0.0669
  570MOL0     O76850  11.278   2.226   7.039 -0.2422 -0.3416 -0.0371
  570MOL0     C76851  11.348   2.165   6.929 -0.9216  0.4003  0.2276
  570MOL0     C76852  11.391   2.017   6.968 -0.3999  0.5839 -0.4720
  570MOL0     C76853  11.512   1.963   6.899  0.5828 -0.4273  0.0948
  570MOL0     C76854  11.637   1.997   6.983  0.3803  0.0587  0.1281
  570MOL0     C76855  11.777   2.009   6.906  0.1246 -0.4324  0.4090
  570MOL0     C76856  11.795   1.895   6.804  0.0636  0.0549  0.6046
  570MOL0     C76857  11.882   1.928   6.683 -0.5862 -0.0869 -0.7819
  570MOL0     C76858  11.893   1.797   6.606  0.0782  0.4284 -0.1028
  570MOL0    Cl76859  12.016   1.823   6.493 -0.3956  0.1070  0.0346
  570MOL0     C76860  11.062   2.136   6.990 -0.0921  0.5205  0.3192
  570MOL0     C76861  10.924   2.146   6.990  1.2035  0.5259 -0.6801
  570MOL0     O76862  10.673   2.459   7.054 -0.7085  0.0322 -0.6417
  570MOL0     C76863  10.419   2.419   7.167 -0.0910  0.2828  0.3640
  570MOL0     C76864  10.293   2.392   7.221 -0.0645  0.4756 -0.4823
  570MOL0     N76865   9.665   2.276   7.691 -0.0990  0.2726  0.8437
  570MOL0     N76866   9.651   2.277   7.823  0.3591  0.4337  0.8257
  570MOL0     C76867   9.875   1.436   7.721 -0.3769  0.1898 -0.2229
  570MOL0     C76868   9.787   1.360   7.645  0.6776 -0.0355 -0.2002
  570MOL0     C76869   9.415   1.356   7.344 -0.2844  0.0862 -0.4109
  570MOL0     C76870   9.351   1.244   7.398  0.4854  0.1233 -0.1027
  570MOL0     C76871   9.225   1.201   7.345 -0.3439 -0.1548 -0.3223
  570MOL0     C76872   9.148   1.286   7.264 -0.3339  0.0676 -0.0484
  570MOL0     O76873   9.017   1.279   7.220  0.1810  0.1161 -0.3168
  570MOL0     C76874   8.938   1.165   7.247  0.0672  0.1647 -0.2710
  570MOL0     C76875   8.820   1.150   7.151 -0.1576  0.5332  0.7703
  570MOL0     C76876   8.775   1.008   7.132  0.1019 -0.0422  0.0499
  570MOL0     C76877   8.619   0.996   7.093 -1.1123 -0.5585 -0.4561
  570MOL0     C76878   8.595   0.859   7.083 -0.0618 -0.1837  0.0477
  570MOL0     C76879   8.566   0.737   7.077  0.0660 -0.4536  0.1149
  570MOL0     C76880   9.208   1.404   7.228  0.3096 -0.0650  0.4913
  570MOL0     C76881   9.340   1.445   7.264 -0.6543  0.1264  0.4122
  570MOL0     C76882   9.381   1.585   7.218 -0.2275 -0.2236 -0.5953
  570MOL0     H76883   9.556   1.592   7.584 -1.8210 -1.7026  0.8590
  570MOL0     H76884   9.718   1.730   7.734  0.4012  0.1060  0.9106
  570MOL0     H76885   9.961   1.815   7.735 -1.7236 -2.0109 -0.9760
  570MOL0     H76886   9.873   1.799   7.892  0.5745  1.1387  1.5842
  570MOL0     H76887  10.173   1.780   7.867 -0.7231 -1.8353 -0.1553
  570MOL0     H76888  10.079   1.787   8.018  2.7764  0.6568  0.2071
  570MOL0     H76889  10.058   2.002   7.805 -1.6768 -1.7736  0.2866
  570MOL0     H76890  10.191   2.007   7.918 -0.2687  2.7937  0.5499
  570MOL0     H76891   9.914   1.982   8.035  1.1176 -0.7033  1.8703
  570MOL0     H76892  10.067   2.028   8.111  0.7300 -1.4307  0.2714
  570MOL0     H76893  10.055   2.239   7.948  1.4368 -0.0782  1.1687
  570MOL0     H76894   9.907   2.176   7.894 -1.1252  0.1766  1.1054
  570MOL0     H76895   9.821   2.186   8.134  0.9584 -1.1199  0.3127
  570MOL0     H76896   9.985   2.237   8.177 -0.8855 -1.0832  0.8932
  570MOL0     H76897   9.942   2.448   8.026  1.0399 -2.6431 -1.7051
  570MOL0     H76898   9.867   2.430   8.179  1.5683  1.2772 -1.4628
  570MOL0     H76899   9.671   2.354   8.080  2.1535 -0.3980  1.7134
  570MOL0     H76900   9.715   2.527   8.028 -1.6434  0.4668  0.6972
  570MOL0     H76901   9.852   2.527   7.792 -2.1850  0.9734 -1.6569
  570MOL0     H76902   9.726   2.456   7.465  0.2539 -0.1327 -0.3937
  570MOL0     H76903   9.878   2.511   7.555  2.0914  0.3362 -2.9932
  570MOL0     H76904   9.864   2.242   7.434 -0.8140  0.2035 -3.1085
  570MOL0     H76905   9.899   2.386   7.353 -1.5426  0.1819  0.5874
  570MOL0     H76906  10.037   2.309   7.615  2.0774 -1.7926 -0.7508
  570MOL0     H76907  10.100   2.425   7.490 -0.1068  0.6232  1.0344
  570MOL0     H76908  10.085   2.123   7.464 -0.8468  2.0255  1.7027
  570MOL0     H76909  10.226   2.233   7.472  0.3962  2.0772 -0.6152
  570MOL0     H76910  10.297   2.054   7.225  2.5639 -0.4593 -0.3903
  570MOL0     H76911  10.506   2.107   7.101  0.9657  0.0865 -2.2557
  570MOL0     H76912  10.922   2.441   7.154  0.4834 -0.0558 -0.1215
  570MOL0     H76913  11.147   2.438   7.107  0.9624 -1.0127 -1.3062
  570MOL0     H76914  11.293   2.174   6.835 -1.1735 -2.4321 -0.0091
  570MOL0     H76915  11.434   2.226   6.900 -1.5177  1.3979  0.5159
  570MOL0     H76916  11.408   2.000   7.075  1.5677 -4.2692 -1.3141
  570MOL0     H76917  11.297   1.966   6.943 -0.8470  0.4136  1.4228
  570MOL0     H76918  11.499   1.855   6.898 -0.2309 -0.3482 -1.7409
  570MOL0     H76919  11.531   2.008   6.801  0.4576  2.9978  1.4979
  570MOL0     H76920  11.647   1.922   7.062  1.5086  0.1245  0.0642
  570MOL0     H76921  11.619   2.091   7.036 -1.8669 -0.0650 -0.3157
  570MOL0     H76922  11.861   2.008   6.975 -0.5440 -1.7580  1.2361
  570MOL0     H76923  11.791   2.103   6.851  2.9149 -0.0496  1.5931
  570MOL0     H76924  11.839   1.812   6.861  2.9347  3.3601  3.7281
  570MOL0     H76925  11.702   1.865   6.756  0.5087 -1.0889  0.4259
  570MOL0     H76926  11.976   1.974   6.718 -2.7988  1.4015  4.2271
  570MOL0     H76927  11.826   2.006   6.631 -0.0843 -0.9692 -2.7086
  570MOL0     H76928  11.937   1.724   6.674 -3.3417 -0.1642  1.6779
  570MOL0     H76929  11.794   1.763   6.573  0.0974  0.2073  0.0695
  570MOL0     H76930  11.107   2.043   6.958  0.2210  0.9615 -0.5483
  570MOL0     H76931  10.868   2.066   6.941  4.7305 -2.1888 -0.6755
  570MOL0     H76932  10.460   2.519   7.155  1.5720 -0.1812  1.7660
  570MOL0     H76933  10.239   2.481   7.253  1.3313  1.0931  0.2591
  570MOL0     H76934   9.959   1.388   7.771 -1.2499 -0.1534  0.9807
  570MOL0     H76935   9.807   1.253   7.640 -1.0568 -0.3795 -0.4807
  570MOL0     H76936   9.418   1.180   7.455  2.8954  0.9856 -1.7773
  570MOL0     H76937   9.195   1.100   7.374 -1.4998  0.6125  1.3531
  570MOL0     H76938   8.895   1.175   7.347 -3.1893 -1.8292 -1.3312
  570MOL0     H76939   9.002   1.077   7.240 -1.9900 -1.2921 -1.6257
  570MOL0     H76940   8.865   1.185   7.057  1.4834 -0.9611  0.9515
  570MOL0     H76941   8.735   1.211   7.185  1.3065  1.5244  2.8965
  570MOL0     H76942   8.796   0.953   7.224  0.3447 -0.0713 -0.0225
  570MOL0     H76943   8.832   0.962   7.051 -2.4686 -0.6494 -1.5165
  570MOL0     H76944   8.553   1.032   7.172 -0.2785  0.3236 -0.1387
  570MOL0     H76945   8.595   1.046   6.999 -1.3774 -1.2660 -0.7722
  570MOL0     H76946   8.529   0.641   7.050 -3.3322  1.1797 -1.6340
  570MOL0     H76947   9.145   1.479   7.182  0.2834 -0.4130 -0.0421
  570MOL0     H76948   9.476   1.585   7.164 -0.1015  1.1278 -0.4066
  570MOL0     H76949   9.297   1.626   7.160  1.3560 -0.8977 -3.5886
  570MOL0     H76950   9.402   1.645   7.306 -1.6962 -0.2934 -0.1681
  571MOL0     O76951   2.725   1.185   8.336  0.2267  0.0356  0.1933
  571MOL0     C76952   2.637   1.099   8.332  1.1977  0.2669 -0.5220
  571MOL0     O76953   2.658   0.960   8.308  1.0100  0.1388 -0.1369
  571MOL0     C76954   2.791   0.932   8.304 -1.1964  0.0046 -0.0465
  571MOL0     C76955   2.870   0.888   8.420  0.0213 -0.4460 -0.4017
  571MOL0     C76956   3.001   0.851   8.409 -0.5856  0.3248 -0.2139
  571MOL0     C76957   3.071   0.866   8.290 -0.6377  0.4216 -0.4299
  571MOL0     O76958   3.199   0.817   8.296 -0.5972  0.4020 -0.2068
  571MOL0     C76959   3.284   0.820   8.181  0.1265  0.1880 -0.6237
  571MOL0     C76960   3.430   0.810   8.231  0.4028 -0.3900 -0.1686
  571MOL0     C76961   3.507   0.752   8.109  1.1658  0.9288 -0.7441
  571MOL0     C76962   3.645   0.706   8.146 -0.2062  0.1311  0.4843
  571MOL0     C76963   3.733   0.678   8.024  0.9132 -0.6342 -0.2766
  571MOL0     C76964   3.853   0.588   8.064  0.0588  0.4844 -0.1812
  571MOL0     C76965   3.905   0.532   7.932  0.3928  0.3177 -0.4881
  571MOL0     C76966   3.989   0.395   7.945  0.4737  0.1022 -0.3224
  571MOL0     N76967   4.116   0.403   8.012  0.0462  0.5329  0.1838
  571MOL0     C76968   4.237   0.350   7.975  0.1835 -1.3598 -0.4206
  571MOL0     C76969   4.324   0.378   8.080  0.1260 -0.4469 -0.0699
  571MOL0     C76970   4.471   0.329   8.085  1.6564  0.4127 -0.6563
  571MOL0     C76971   4.575   0.441   8.073  0.3973 -0.1389 -0.4171
  571MOL0     C76972   4.716   0.394   8.129 -0.1668 -0.2149 -0.2049
  571MOL0     C76973   4.826   0.503   8.135  0.5992  0.1452 -0.6016
  571MOL0     O76974   4.939   0.447   8.207  0.3875 -0.5859  0.9312
  571MOL0     C76975   5.055   0.520   8.208 -0.0211 -0.3102 -0.1061
  571MOL0     C76976   5.167   0.474   8.276 -1.1144 -0.3064  0.3698
  571MOL0     C76977   5.283   0.545   8.277  0.9595 -0.8378 -0.6384
  571MOL0     C76978   5.299   0.669   8.207  0.2227  0.7988  0.2375
  571MOL0     C76979   5.426   0.734   8.212 -0.4096 -0.9611 -0.2356
  571MOL0     O76980   5.422   0.866   8.164 -0.3270  0.0837  0.0954
  571MOL0     C76981   5.544   0.920   8.124  0.9279 -0.1405 -1.0856
  571MOL0     C76982   5.624   0.991   8.213  0.1959 -0.0388  0.2380
  571MOL0     C76983   5.741   1.064   8.177 -0.8676  0.6280  0.2039
  571MOL0     C76984   5.789   1.049   8.036  1.0949 -0.3940 -0.1899
  571MOL0     O76985   5.914   1.090   8.005 -0.2879  0.0561  0.1913
  571MOL0     C76986   5.977   1.053   7.883  0.0916 -0.2177 -0.3603
  571MOL0     C76987   6.117   1.132   7.891 -0.6489  0.1871  0.5400
  571MOL0     C76988   6.222   1.071   7.795  0.0339 -0.2196 -0.5044
  571MOL0     C76989   6.349   1.156   7.807 -0.0933 -0.3828  1.0932
  571MOL0     C76990   6.469   1.116   7.726  0.5953  0.8217  0.0014
  571MOL0     C76991   6.586   1.210   7.764 -0.2843  0.1792 -0.8122
  571MOL0     C76992   6.709   1.214   7.664  0.2216  0.2585  0.4319
  571MOL0     C76993   6.818   1.108   7.703 -0.2539  0.3358 -0.8333
  571MOL0    Cl76994   6.978   1.143   7.618 -0.2777  0.3338  0.2054
  571MOL0     C76995   5.704   0.977   7.951 -0.0493  0.3225  0.4504
  571MOL0     C76996   5.585   0.915   8.001  0.1471 -0.2121  0.1868
  571MOL0     O76997   5.529   0.666   8.241  0.2744  0.0863 -0.0433
  571MOL0     C76998   5.184   0.709   8.143  0.0211 -0.4180  0.4402
  571MOL0     C76999   5.058   0.647   8.152 -0.1153 -0.4101 -0.5906
  571MOL0     N77000   4.253   0.442   8.178 -0.3060  0.5157 -0.6084
  571MOL0     N77001   4.138   0.459   8.136  0.7579  0.2945 -0.7550
  571MOL0     C77002   3.003   0.924   8.180 -0.7781  0.6448  0.3629
  571MOL0     C77003   2.865   0.953   8.183 -0.2040  0.6996 -0.1366
  571MOL0     C77004   2.492   1.132   8.355  0.0785 -0.5359  0.3532
  571MOL0     C77005   2.438   1.245   8.288 -0.4027 -0.1987  0.3151
  571MOL0     C77006   2.301   1.268   8.287 -0.6277  0.4027  0.3850
  571MOL0     C77007   2.214   1.181   8.358  0.3726  0.3052 -0.6233
  571MOL0     O77008   2.079   1.204   8.360  0.1550 -0.3501 -0.4860
  571MOL0     C77009   1.990   1.153   8.455  0.3411 -0.5901  0.0609
  571MOL0     C77010   1.853   1.222   8.440 -0.4805  0.8742  1.3336
  571MOL0     C77011   1.792   1.218   8.298  0.2011 -0.3217 -0.6632
  571MOL0     C77012   1.812   1.099   8.213 -0.2742  0.5354 -0.2003
  571MOL0     C77013   1.757   0.978   8.276 -1.1501 -0.5327 -0.4111
  571MOL0     C77014   1.705   0.877   8.307 -0.3979 -0.5372 -0.1306
  571MOL0     C77015   2.266   1.080   8.440  0.0681 -0.4631  0.0286
  571MOL0     C77016   2.406   1.054   8.433  0.2760 -0.1534 -0.0308
  571MOL0     C77017   2.449   0.939   8.517  0.8970 -0.2072 -0.5574
  571MOL0     H77018   2.812   0.882   8.511  1.8830  1.0382  0.9749
  571MOL0     H77019   3.061   0.814   8.492 -2.0051 -1.5066  0.0729
  571MOL0     H77020   3.245   0.742   8.116  2.5435 -0.5086 -1.3432
  571MOL0     H77021   3.277   0.915   8.127  1.9288  2.3051  2.5791
  571MOL0     H77022   3.425   0.733   8.309  0.9005 -1.1043 -0.8219
  571MOL0     H77023   3.473   0.905   8.265 -1.6884  0.3391  0.6353
  571MOL0     H77024   3.503   0.817   8.021  1.0985 -1.2245 -2.4370
  571MOL0     H77025   3.457   0.661   8.075 -1.1251  1.3635  1.1643
  571MOL0     H77026   3.698   0.784   8.201 -0.3006  1.2779 -0.9839
  571MOL0     H77027   3.637   0.625   8.218 -2.3638  0.2828  0.4956
  571MOL0     H77028   3.670   0.625   7.952  0.8549 -1.5332  0.4190
  571MOL0     H77029   3.765   0.774   7.982 -1.4919  0.6776  0.6806
  571MOL0     H77030   3.928   0.626   8.134  0.4060  0.2618 -0.4260
  571MOL0     H77031   3.807   0.507   8.122 -0.2787  1.0744  0.3820
  571MOL0     H77032   3.981   0.603   7.897 -1.0011  1.7228 -0.7855
  571MOL0     H77033   3.818   0.522   7.868 -0.8672  3.1114  0.5946
  571MOL0     H77034   3.920   0.336   8.007 -1.1223 -0.0454 -2.1416
  571MOL0     H77035   4.013   0.354   7.847  1.6296  1.6121 -0.7144
  571MOL0     H77036   4.264   0.299   7.883  0.2985 -1.5089 -0.3040
  571MOL0     H77037   4.493   0.283   8.181  0.0339 -1.5673 -1.1683
  571MOL0     H77038   4.489   0.267   7.997 -0.1866 -0.9480 -0.1305
  571MOL0     H77039   4.580   0.474   7.969  1.7240 -1.4879 -0.8099
  571MOL0     H77040   4.538   0.524   8.135  0.6627 -1.5986  1.7963
  571MOL0     H77041   4.751   0.313   8.064  2.3757 -0.5685  1.4510
  571MOL0     H77042   4.707   0.352   8.229  0.2222 -2.6135 -1.1157
  571MOL0     H77043   4.791   0.585   8.199  3.4807  0.8481  0.2300
  571MOL0     H77044   4.847   0.541   8.035 -0.3282 -0.4792 -1.0434
  571MOL0     H77045   5.160   0.373   8.316  2.0451 -0.7700 -0.0029
  571MOL0     H77046   5.366   0.498   8.327 -0.0943 -1.8999  0.1696
  571MOL0     H77047   5.583   1.015   8.311  2.8741  0.3441  1.3484
  571MOL0     H77048   5.814   1.115   8.238  0.4056  0.1984 -0.8958
  571MOL0     H77049   5.997   0.945   7.878 -2.7903 -0.9164  1.1081
  571MOL0     H77050   5.908   1.075   7.801  1.4938 -1.7469 -2.0405
  571MOL0     H77051   6.102   1.235   7.860 -3.3563  0.1393  1.3994
  571MOL0     H77052   6.146   1.136   7.996 -1.0207 -0.6113  0.6794
  571MOL0     H77053   6.249   0.968   7.818 -1.7211 -0.5434  0.2770
  571MOL0     H77054   6.189   1.076   7.691  0.2404 -1.5597 -0.6535
  571MOL0     H77055   6.378   1.146   7.912 -2.4921 -3.0371  1.6397
  571MOL0     H77056   6.326   1.261   7.786  0.7659 -0.8179 -2.9717
  571MOL0     H77057   6.456   1.120   7.617 -0.2366 -0.8221  0.0228
  571MOL0     H77058   6.497   1.011   7.738  2.1197  1.3637  1.5573
  571MOL0     H77059   6.550   1.310   7.791 -1.8392 -0.7939  0.9249
  571MOL0     H77060   6.630   1.175   7.857 -0.1454 -0.1563 -1.0033
  571MOL0     H77061   6.753   1.314   7.674  2.0022 -0.6992  3.4506
  571MOL0     H77062   6.675   1.189   7.563 -1.2451 -3.3164  1.6457
  571MOL0     H77063   6.829   1.114   7.811  2.2610  0.4380 -1.0290
  571MOL0     H77064   6.781   1.009   7.676 -2.9267  0.3718  2.1765
  571MOL0     H77065   5.727   0.961   7.846 -0.7689 -3.2919  0.6821
  571MOL0     H77066   5.517   0.879   7.924  0.8804  0.8351 -0.9898
  571MOL0     H77067   5.178   0.800   8.084  1.4867  1.6211  3.1957
  571MOL0     H77068   4.982   0.694   8.091  1.6452 -1.1244 -3.5626
  571MOL0     H77069   3.060   0.948   8.091 -2.1499 -0.9077 -1.0112
  571MOL0     H77070   2.805   0.982   8.098 -1.4354 -0.0402  0.4511
  571MOL0     H77071   2.513   1.304   8.238 -1.3202 -1.1659 -2.3879
  571MOL0     H77072   2.269   1.352   8.226  0.5526 -1.3926 -2.9577
  571MOL0     H77073   2.024   1.182   8.555 -1.9358  0.7108  0.5126
  571MOL0     H77074   1.974   1.045   8.453 -2.1385 -0.2755 -0.9884
  571MOL0     H77075   1.871   1.328   8.463  1.1240  1.0398 -0.4113
  571MOL0     H77076   1.783   1.184   8.515  2.6361 -1.5046  3.3279
  571MOL0     H77077   1.847   1.297   8.247 -2.2608 -0.2615 -3.4695
  571MOL0     H77078   1.684   1.233   8.311 -0.0902  0.7443 -3.5738
  571MOL0     H77079   1.747   1.127   8.130 -2.5451  1.8787  1.8932
  571MOL0     H77080   1.915   1.083   8.178 -0.4756 -0.3827 -0.3887
  571MOL0     H77081   1.651   0.795   8.350 -0.9377  0.5551  1.3705
  571MOL0     H77082   2.205   1.028   8.514  1.5141 -0.9727  0.9192
  571MOL0     H77083   2.376   0.894   8.585  3.7980 -0.9736  2.3386
  571MOL0     H77084   2.494   0.857   8.460  2.6059 -1.6476  2.5957
  571MOL0     H77085   2.520   0.987   8.586  1.9426 -2.3015 -0.0980
  572MOL0     O77086   0.146   3.678   1.242 -0.6102  0.1687 -0.7738
  572MOL0     C77087   0.095   3.661   1.351  0.3885  0.2321 -0.3417
  572MOL0     O77088   0.143   3.577   1.444 -0.2693 -0.3434 -1.1403
  572MOL0     C77089   0.262   3.525   1.403  0.4034  0.0486  0.6419
  572MOL0     C77090   0.377   3.601   1.431  0.4510  0.2269  0.0561
  572MOL0     C77091   0.499   3.549   1.399  0.0891 -0.1419  0.0090
  572MOL0     C77092   0.517   3.426   1.335 -0.1637  0.6198  0.1865
  572MOL0     O77093   0.639   3.371   1.293  0.1452 -0.0811 -0.1388
  572MOL0     C77094   0.757   3.448   1.316  0.8243  0.2652  0.4075
  572MOL0     C77095   0.876   3.356   1.291 -0.0232 -0.5215  0.2697
  572MOL0     C77096   0.880   3.297   1.149 -0.1952 -0.2218 -0.2825
  572MOL0     C77097   1.007   3.211   1.134 -0.6028  0.9336 -0.3234
  572MOL0     C77098   1.016   3.131   0.999 -0.4258  0.1014 -0.2385
  572MOL0     C77099   1.149   3.043   0.989  0.5090  0.3204 -0.8459
  572MOL0     C77100   1.162   2.965   0.864  0.5294 -0.3829 -0.1552
  572MOL0     C77101   1.294   2.907   0.850 -0.1347  0.9899 -0.2765
  572MOL0     N77102   1.317   2.844   0.722 -0.0973 -0.3762  0.2439
  572MOL0     C77103   1.371   2.907   0.611  0.4118  0.2999  0.1587
  572MOL0     C77104   1.365   2.809   0.513  0.7926  0.1194  0.1838
  572MOL0     C77105   1.420   2.801   0.372  0.3598 -0.6344  0.6984
  572MOL0     C77106   1.552   2.722   0.361 -0.1519  0.3522 -0.7003
  572MOL0     C77107   1.647   2.781   0.467 -0.0580  0.3083  0.7744
  572MOL0     C77108   1.784   2.709   0.442 -0.0634  0.3167 -0.1126
  572MOL0     O77109   1.886   2.755   0.528  0.5198 -0.3396  0.9651
  572MOL0     C77110   1.990   2.833   0.479  0.2772 -0.5670 -0.2450
  572MOL0     C77111   2.081   2.769   0.396 -0.2511  0.1049  0.1266
  572MOL0     C77112   2.193   2.847   0.348  0.1883 -0.5384 -0.4156
  572MOL0     C77113   2.201   2.984   0.383 -0.3917 -0.5054 -0.0506
  572MOL0     C77114   2.307   3.072   0.330 -0.0625 -0.6781  0.1988
  572MOL0     O77115   2.417   3.014   0.279 -0.2302  0.2942  0.0728
  572MOL0     C77116   2.536   3.079   0.246  0.5898  0.1568 -0.7515
  572MOL0     C77117   2.585   3.068   0.122 -1.2941  0.0852  0.7000
  572MOL0     C77118   2.710   3.132   0.088  0.5814  0.6978  0.6319
  572MOL0     C77119   2.773   3.211   0.186  0.3156  0.1368 -0.6039
  572MOL0     O77120   2.877   3.285   0.131  1.0629 -0.5645  0.6553
  572MOL0     C77121   2.942   3.369   0.230 -0.1424 -0.1361  0.1636
  572MOL0     C77122   3.069   3.434   0.177  1.0300  0.1195  0.9248
  572MOL0     C77123   3.049   3.514   0.043 -0.4809 -0.4593 -0.1002
  572MOL0     C77124   3.176   3.574  -0.000  0.2757 -0.2348  0.1497
  572MOL0     C77125   3.169   3.623  -0.148 -0.6721 -0.2367  0.1998
  572MOL0     C77126   3.291   3.705  -0.182 -0.9521  0.0440  0.1059
  572MOL0     C77127   3.428   3.625  -0.196  0.3039  0.0567 -0.3890
  572MOL0     C77128   3.545   3.710  -0.225 -0.5445  0.0616 -0.2690
  572MOL0    Cl77129   3.561   3.744  -0.397  0.1508  0.3652  0.1761
  572MOL0     C77130   2.725   3.211   0.322 -0.3337 -1.7769  0.4184
  572MOL0     C77131   2.608   3.149   0.346 -0.5387 -0.0240  0.6044
  572MOL0     O77132   2.299   3.192   0.351 -0.3861  0.2861  0.2659
  572MOL0     C77133   2.102   3.042   0.467 -0.7929  0.2539  0.5547
  572MOL0     C77134   2.002   2.967   0.517 -0.6965  0.7458  0.1245
  572MOL0     N77135   1.300   2.696   0.565 -0.6173  0.0811 -0.4695
  572MOL0     N77136   1.260   2.720   0.691 -0.0839  0.9621  0.9160
  572MOL0     C77137   0.406   3.349   1.302  0.3994  0.6134  0.6455
  572MOL0     C77138   0.275   3.398   1.337 -0.6814  0.4751  0.3622
  572MOL0     C77139  -0.029   3.743   1.366 -0.0857 -0.0545  0.5145
  572MOL0     C77140  -0.153   3.679   1.378 -0.3019  0.9114  0.4022
  572MOL0     C77141  -0.272   3.749   1.401 -0.5005  0.9690  0.0989
  572MOL0     C77142  -0.272   3.889   1.417  0.1974  0.6547  0.5968
  572MOL0     O77143  -0.391   3.949   1.447 -0.1538 -0.1081 -0.0665
  572MOL0     C77144  -0.405   4.086   1.464  0.1585 -0.2881 -0.0017
  572MOL0     C77145  -0.520   4.109   1.552  0.1138  0.4258  0.0386
  572MOL0     C77146  -0.509   4.035   1.697  0.0209  0.3645  0.4635
  572MOL0     C77147  -0.639   4.062   1.786 -0.2783  0.5307  0.2273
  572MOL0     C77148  -0.620   4.170   1.883 -0.4291 -0.6228 -0.1675
  572MOL0     C77149  -0.583   4.255   1.961 -0.8551 -0.9126  0.1118
  572MOL0     C77150  -0.143   3.952   1.411  1.6384 -0.6209 -0.6798
  572MOL0     C77151  -0.023   3.880   1.385  0.4099 -0.5748 -0.5207
  572MOL0     C77152   0.102   3.960   1.377  0.5829 -0.2547  0.4828
  572MOL0     H77153   0.369   3.703   1.468 -1.1095  0.2420 -0.2486
  572MOL0     H77154   0.584   3.615   1.411 -0.1154  0.0142  0.6217
  572MOL0     H77155   0.767   3.541   1.258  2.1517  0.4205  0.8480
  572MOL0     H77156   0.763   3.477   1.421 -2.1677  1.2034  0.4136
  572MOL0     H77157   0.854   3.277   1.364 -0.3648  0.6628  1.5013
  572MOL0     H77158   0.965   3.414   1.318 -1.0137  1.7402 -1.0315
  572MOL0     H77159   0.875   3.375   1.072  0.0778  0.6328  0.5374
  572MOL0     H77160   0.798   3.228   1.128  0.7441 -0.7781 -2.3815
  572MOL0     H77161   1.100   3.269   1.140 -0.6994  0.9940  0.7952
  572MOL0     H77162   1.008   3.130   1.207  5.5644  1.9565  1.3195
  572MOL0     H77163   0.925   3.076   0.972 -0.9040 -0.6022  2.4284
  572MOL0     H77164   1.018   3.210   0.924  1.4686 -1.7056 -2.2441
  572MOL0     H77165   1.234   3.112   0.998 -0.9080  1.9224  1.5165
  572MOL0     H77166   1.155   2.981   1.079 -0.6810 -0.7062 -1.4476
  572MOL0     H77167   1.148   3.036   0.782 -2.4823 -1.9805 -1.1621
  572MOL0     H77168   1.084   2.889   0.851  0.1428 -0.2027  0.9907
  572MOL0     H77169   1.370   2.985   0.860  0.7977  0.2247 -1.1372
  572MOL0     H77170   1.310   2.836   0.932  0.7716  0.6511 -0.7296
  572MOL0     H77171   1.423   3.002   0.612 -2.0249  1.7142  1.0650
  572MOL0     H77172   1.349   2.744   0.312 -0.1481  2.7595 -2.2311
  572MOL0     H77173   1.426   2.901   0.327  1.1465 -0.4029  1.2999
  572MOL0     H77174   1.519   2.619   0.377 -4.5559  1.8327  1.5441
  572MOL0     H77175   1.597   2.732   0.262  5.3022 -0.8023  1.2879
  572MOL0     H77176   1.617   2.763   0.571  0.0739 -2.1592  0.4506
  572MOL0     H77177   1.658   2.887   0.442 -2.4145  0.3869 -0.1919
  572MOL0     H77178   1.818   2.727   0.340  0.8096 -1.1908 -0.1173
  572MOL0     H77179   1.772   2.600   0.446  3.5687 -0.2072  1.5641
  572MOL0     H77180   2.070   2.666   0.366 -0.0062 -2.0021  5.9987
  572MOL0     H77181   2.281   2.805   0.301  0.5272 -0.4920  0.1682
  572MOL0     H77182   2.543   2.992   0.059 -0.2989 -0.9519  1.2478
  572MOL0     H77183   2.753   3.124  -0.011  0.1815 -0.9862  0.5579
  572MOL0     H77184   2.869   3.445   0.260  0.1971 -0.0973  0.9098
  572MOL0     H77185   2.982   3.320   0.319  1.5265  3.2249  1.4462
  572MOL0     H77186   3.110   3.498   0.256  2.2528  0.4105  0.0908
  572MOL0     H77187   3.155   3.367   0.164  1.8675  1.4930 -1.0957
  572MOL0     H77188   3.004   3.445  -0.030 -0.8086  1.1966 -1.5351
  572MOL0     H77189   2.968   3.587   0.052  0.4368  0.4647  0.9651
  572MOL0     H77190   3.258   3.503   0.012 -0.4057 -0.8783  1.0326
  572MOL0     H77191   3.207   3.650   0.072 -0.4525  0.1042  0.1158
  572MOL0     H77192   3.088   3.694  -0.166 -1.3544 -0.2626  2.7370
  572MOL0     H77193   3.162   3.542  -0.221 -6.1827 -0.5954  0.6934
  572MOL0     H77194   3.285   3.751  -0.280  4.2714  0.8210 -0.1476
  572MOL0     H77195   3.300   3.789  -0.113 -1.6327 -1.8224  2.6444
  572MOL0     H77196   3.409   3.557  -0.280 -1.5177  0.5061 -0.3864
  572MOL0     H77197   3.454   3.560  -0.113 -1.5446 -0.0850  0.1097
  572MOL0     H77198   3.545   3.802  -0.166  3.2359 -0.7284  1.2530
  572MOL0     H77199   3.637   3.659  -0.194 -0.3409 -0.4193 -1.5919
  572MOL0     H77200   2.768   3.278   0.396  2.6499 -1.7425 -1.2038
  572MOL0     H77201   2.562   3.155   0.444 -1.1730 -3.1455  0.6005
  572MOL0     H77202   2.121   3.145   0.496  0.8344 -0.3598  1.8672
  572MOL0     H77203   1.938   3.014   0.591  2.1939  1.7013  2.2137
  572MOL0     H77204   0.425   3.260   1.242  0.6073  0.6263  0.6934
  572MOL0     H77205   0.184   3.343   1.317 -1.0110  1.0170  0.3690
  572MOL0     H77206  -0.168   3.572   1.362 -1.1012  0.9090  1.0934
  572MOL0     H77207  -0.373   3.712   1.389  1.0126 -3.3227 -1.0698
  572MOL0     H77208  -0.427   4.139   1.371 -0.1435  1.4460  1.0186
  572MOL0     H77209  -0.313   4.131   1.504  2.7874 -4.7170 -0.3692
  572MOL0     H77210  -0.613   4.068   1.513  0.3379  0.1071 -0.1661
  572MOL0     H77211  -0.523   4.216   1.574 -0.1039  0.3184  0.5438
  572MOL0     H77212  -0.419   4.071   1.747  0.1530  0.8961 -0.1464
  572MOL0     H77213  -0.492   3.928   1.681 -0.5824  0.4723 -1.0128
  572MOL0     H77214  -0.729   4.073   1.724  1.1428  0.2730 -2.0126
  572MOL0     H77215  -0.660   3.971   1.842  1.6955 -0.3514 -0.3605
  572MOL0     H77216  -0.562   4.339   2.024  0.8305 -1.9901  1.0319
  572MOL0     H77217  -0.136   4.057   1.435 -0.2409 -0.6845  0.3032
  572MOL0     H77218   0.082   4.065   1.400  0.9223  0.4560 -2.1025
  572MOL0     H77219   0.176   3.919   1.446  4.0425  2.4744 -1.2849
  572MOL0     H77220   0.157   3.963   1.282  2.5648 -0.6147  1.5723
  573MOL0     O77221   0.843   5.430   5.514  0.3308  0.1406  0.4668
  573MOL0     C77222   0.880   5.365   5.615  0.6351  0.1389 -0.7141
  573MOL0     O77223   1.018   5.345   5.642  0.6595  0.4587  0.0328
  573MOL0     C77224   1.132   5.408   5.591  0.9634 -0.3978 -0.6283
  573MOL0     C77225   1.120   5.536   5.542 -0.1625 -0.3130  0.5971
  573MOL0     C77226   1.229   5.606   5.504 -0.2395  0.5377  0.5210
  573MOL0     C77227   1.359   5.548   5.530  0.3133 -0.5039  0.4247
  573MOL0     O77228   1.476   5.620   5.514 -0.6478  0.2158  0.5701
  573MOL0     C77229   1.479   5.754   5.473 -0.4186  0.7580 -0.3113
  573MOL0     C77230   1.594   5.825   5.537  0.1651  0.9055  0.8866
  573MOL0     C77231   1.729   5.757   5.505 -0.1499 -0.1087 -0.3286
  573MOL0     C77232   1.843   5.830   5.581 -0.1911 -0.4711  0.0834
  573MOL0     C77233   1.946   5.902   5.505  0.2614 -0.3654  0.7602
  573MOL0     C77234   1.895   6.021   5.415  0.0469  1.1091  0.1908
  573MOL0     C77235   2.032   6.068   5.353 -0.5842 -0.5257 -0.3148
  573MOL0     C77236   2.007   6.176   5.244  0.1615  0.3382  0.5451
  573MOL0     N77237   2.111   6.275   5.238  0.1170  0.2198  0.0748
  573MOL0     C77238   2.106   6.397   5.299  0.0048  0.0924  0.0008
  573MOL0     C77239   2.235   6.453   5.274  0.1643 -0.1198 -0.1885
  573MOL0     C77240   2.283   6.578   5.335  0.2859  0.3510 -0.1455
  573MOL0     C77241   2.432   6.602   5.347 -0.5690 -0.4064  0.8189
  573MOL0     C77242   2.518   6.485   5.391  0.7250  0.1643 -0.1834
  573MOL0     C77243   2.660   6.528   5.413  0.6496 -0.4404 -0.3633
  573MOL0     O77244   2.713   6.538   5.277  0.6004 -0.0105 -0.6157
  573MOL0     C77245   2.846   6.568   5.251  0.3644 -0.0291  0.5492
  573MOL0     C77246   2.941   6.610   5.349  0.2416  0.1697  0.4393
  573MOL0     C77247   3.073   6.648   5.323  0.0902 -0.1536  0.2599
  573MOL0     C77248   3.122   6.631   5.192  0.4703  0.3111  0.4254
  573MOL0     C77249   3.264   6.659   5.160  0.4173 -0.2521 -0.4642
  573MOL0     O77250   3.347   6.641   5.263  0.4709  0.4371 -0.0946
  573MOL0     C77251   3.487   6.653   5.266 -0.5191 -0.1896  0.6273
  573MOL0     C77252   3.564   6.679   5.151  0.1098 -0.4335  0.9775
  573MOL0     C77253   3.704   6.707   5.156 -0.1139 -0.1744 -0.2795
  573MOL0     C77254   3.761   6.698   5.287  0.0837  0.6450 -0.2924
  573MOL0     O77255   3.897   6.706   5.282  0.3007  0.3361 -0.0795
  573MOL0     C77256   3.975   6.703   5.409 -0.3689  0.5440  0.5209
  573MOL0     C77257   4.115   6.769   5.382 -0.5663  0.0100 -0.1301
  573MOL0     C77258   4.195   6.796   5.502  0.0660  0.4490  0.2684
  573MOL0     C77259   4.314   6.875   5.473 -0.1537  0.9292  0.4848
  573MOL0     C77260   4.396   6.878   5.606 -0.4532  0.2126 -0.2109
  573MOL0     C77261   4.509   6.985   5.612 -0.5345  0.3958  0.3819
  573MOL0     C77262   4.646   6.939   5.660  0.3077  0.1934  0.4223
  573MOL0     C77263   4.691   6.798   5.618 -0.0567 -0.1170  0.4562
  573MOL0    Cl77264   4.668   6.756   5.442 -0.0949 -0.1810  0.0607
  573MOL0     C77265   3.686   6.659   5.403 -0.4599 -1.2912 -0.3649
  573MOL0     C77266   3.549   6.651   5.393 -0.3465  0.4999 -0.5101
  573MOL0     O77267   3.298   6.685   5.043  0.7801 -0.0728  0.0956
  573MOL0     C77268   3.032   6.598   5.088  0.2817  0.5826  0.0333
  573MOL0     C77269   2.898   6.559   5.120 -0.1365  0.4372 -0.1124
  573MOL0     N77270   2.302   6.369   5.190 -0.1735  0.4419 -0.7467
  573MOL0     N77271   2.227   6.262   5.169 -0.2152  0.0475 -0.3534
  573MOL0     C77272   1.364   5.423   5.586 -0.2313 -0.2950  0.2165
  573MOL0     C77273   1.256   5.350   5.615  0.5303 -0.6615  0.0102
  573MOL0     C77274   0.781   5.287   5.694 -0.4166 -0.6889  0.0890
  573MOL0     C77275   0.819   5.246   5.821 -0.4599  0.5475 -0.1919
  573MOL0     C77276   0.724   5.191   5.909 -0.6143  0.8025  0.3401
  573MOL0     C77277   0.588   5.179   5.884 -1.4809  0.7397  0.2204
  573MOL0     O77278   0.508   5.130   5.985 -0.2146 -0.0678 -0.6557
  573MOL0     C77279   0.366   5.096   5.971  0.6613  1.1842 -0.0890
  573MOL0     C77280   0.301   5.042   6.099  1.0860 -0.2480 -0.5770
  573MOL0     C77281   0.146   5.017   6.082 -0.5580 -0.4790 -0.5814
  573MOL0     C77282   0.108   4.932   6.198 -0.1409 -1.0650  0.0412
  573MOL0     C77283  -0.040   4.951   6.223  0.6684 -0.1345  1.0580
  573MOL0     C77284  -0.154   4.983   6.215 -0.5380 -0.1582 -0.5368
  573MOL0     C77285   0.557   5.211   5.752 -0.4987  0.3939  0.5019
  573MOL0     C77286   0.645   5.257   5.659  0.6008 -0.6309  0.5842
  573MOL0     C77287   0.593   5.275   5.521  0.4400  0.0186  0.6869
  573MOL0     H77288   1.029   5.595   5.539  1.2202  1.9015 -0.4307
  573MOL0     H77289   1.213   5.705   5.465 -1.3148  0.9994  2.0390
  573MOL0     H77290   1.493   5.761   5.365 -3.0761  2.3835 -0.6373
  573MOL0     H77291   1.387   5.807   5.501 -0.7638 -0.8191  1.7678
  573MOL0     H77292   1.574   5.827   5.644  3.2545 -0.8655  1.6196
  573MOL0     H77293   1.601   5.930   5.504 -2.5825  2.4519  4.5984
  573MOL0     H77294   1.743   5.752   5.396  2.1072  0.3589 -0.1117
  573MOL0     H77295   1.726   5.656   5.548 -0.0617  0.2547  0.5476
  573MOL0     H77296   1.795   5.897   5.653  0.6917  0.0527  0.2082
  573MOL0     H77297   1.904   5.757   5.636  0.0013 -0.9928 -0.8085
  573MOL0     H77298   2.006   5.935   5.590  1.5990 -1.5025  0.2939
  573MOL0     H77299   2.004   5.833   5.443 -0.3082  0.4080 -0.7048
  573MOL0     H77300   1.826   5.980   5.341  0.6850  1.6898 -0.7462
  573MOL0     H77301   1.841   6.099   5.469  3.2342  0.6407  4.6051
  573MOL0     H77302   2.092   5.981   5.323  2.0529  0.6559  1.2023
  573MOL0     H77303   2.099   6.107   5.430 -0.6696 -1.8177  0.4585
  573MOL0     H77304   1.989   6.129   5.147 -0.9429  0.2482  0.7825
  573MOL0     H77305   1.909   6.222   5.260 -1.3730 -1.7944 -1.9907
  573MOL0     H77306   2.031   6.440   5.364  0.3722 -1.0853  1.2875
  573MOL0     H77307   2.241   6.651   5.265 -1.1190 -1.5438 -1.3909
  573MOL0     H77308   2.238   6.598   5.433 -0.6437  2.9574 -0.9958
  573MOL0     H77309   2.470   6.643   5.253  0.5900 -1.2962  0.8785
  573MOL0     H77310   2.444   6.673   5.429  0.3453 -1.2043  1.3930
  573MOL0     H77311   2.532   6.404   5.319  0.3037 -0.8847  0.8892
  573MOL0     H77312   2.478   6.446   5.485 -2.0239  0.0956 -1.2999
  573MOL0     H77313   2.707   6.446   5.468 -0.7015 -0.2621  1.1072
  573MOL0     H77314   2.667   6.621   5.470  0.3204 -0.4596 -0.2918
  573MOL0     H77315   2.890   6.632   5.442  0.8061  0.2981  0.7191
  573MOL0     H77316   3.133   6.680   5.407  0.5107  2.8542 -1.0737
  573MOL0     H77317   3.520   6.695   5.054 -0.5359  2.4042  1.6290
  573MOL0     H77318   3.763   6.720   5.066 -0.6403  1.6989 -0.3920
  573MOL0     H77319   3.937   6.765   5.491  2.5437  3.5657 -0.2023
  573MOL0     H77320   3.985   6.601   5.449  0.9678 -0.7656 -2.7849
  573MOL0     H77321   4.166   6.703   5.312 -1.5734 -2.6070  1.4501
  573MOL0     H77322   4.088   6.870   5.348  0.2861  0.6373  0.9825
  573MOL0     H77323   4.123   6.855   5.560 -1.6140 -1.4668  0.2791
  573MOL0     H77324   4.224   6.702   5.551  1.1508  1.4283  1.5534
  573MOL0     H77325   4.294   6.977   5.437  0.3659  0.8182 -0.1345
  573MOL0     H77326   4.376   6.830   5.395 -2.0612 -0.8416 -0.1154
  573MOL0     H77327   4.436   6.776   5.610  1.1567  0.8397  1.8598
  573MOL0     H77328   4.338   6.903   5.696  1.9983  2.1168  0.9629
  573MOL0     H77329   4.539   7.005   5.509  3.9726 -0.1762  1.3641
  573MOL0     H77330   4.477   7.078   5.659 -0.4255 -0.5521  2.4547
  573MOL0     H77331   4.636   6.947   5.768  0.4377  0.3707  0.4220
  573MOL0     H77332   4.716   7.012   5.618 -0.5307  0.6232 -0.2473
  573MOL0     H77333   4.799   6.807   5.634 -0.0701  1.0207 -0.0036
  573MOL0     H77334   4.652   6.718   5.681  1.9755 -0.7318  1.0264
  573MOL0     H77335   3.733   6.651   5.500  1.1459 -1.4409 -1.1122
  573MOL0     H77336   3.486   6.630   5.479 -0.2360  1.3359 -0.2188
  573MOL0     H77337   3.070   6.583   4.987  1.5564  0.0284  0.5753
  573MOL0     H77338   2.834   6.538   5.036 -0.8926  1.8891  0.0809
  573MOL0     H77339   1.464   5.394   5.614  0.6426 -0.4586 -2.7205
  573MOL0     H77340   1.275   5.250   5.655  2.9727 -0.3891 -0.3010
  573MOL0     H77341   0.923   5.261   5.849 -0.2988  0.0938 -0.5396
  573MOL0     H77342   0.764   5.153   6.003 -1.8834  1.7459  1.2998
  573MOL0     H77343   0.362   5.020   5.892  0.1972  1.4124 -0.2908
  573MOL0     H77344   0.310   5.183   5.934  1.1916  1.8895  0.7371
  573MOL0     H77345   0.337   5.109   6.177  1.4720  0.7563 -1.5911
  573MOL0     H77346   0.343   4.943   6.120  1.3809  0.0182  0.1200
  573MOL0     H77347   0.102   4.988   5.987  0.2348 -2.7287 -0.3051
  573MOL0     H77348   0.121   5.122   6.105  0.9488 -0.2049 -0.1142
  573MOL0     H77349   0.132   4.825   6.190  0.5860 -0.8228 -1.4471
  573MOL0     H77350   0.164   4.971   6.283  0.4993 -1.0028 -0.3953
  573MOL0     H77351  -0.258   5.004   6.202 -0.6354 -0.1515  0.1947
  573MOL0     H77352   0.454   5.212   5.717 -0.5489  0.5310  0.6464
  573MOL0     H77353   0.665   5.227   5.453 -1.7663 -0.3587 -1.5148
  573MOL0     H77354   0.500   5.219   5.508  0.6116  0.1379 -1.4118
  573MOL0     H77355   0.593   5.381   5.496  1.2207  0.5200  2.6233
  574MOL0     O77356  10.795   0.524   5.201  0.4706  0.5219  0.2727
  574MOL0     C77357  10.890   0.518   5.273 -0.1413 -0.7368  0.1570
  574MOL0     O77358  10.893   0.457   5.398 -0.1566  0.6772  0.9665
  574MOL0     C77359  10.777   0.451   5.469  0.1578 -0.1310 -0.0626
  574MOL0     C77360  10.668   0.542   5.469  0.5976 -0.4806  0.2086
  574MOL0     C77361  10.553   0.527   5.547  0.2518  0.2575 -0.9030
  574MOL0     C77362  10.551   0.417   5.632 -0.2968 -0.1927 -0.3714
  574MOL0     O77363  10.442   0.415   5.726 -0.0228 -0.6546  0.2500
  574MOL0     C77364  10.434   0.298   5.812  0.5857 -0.2681  0.2675
  574MOL0     C77365  10.537   0.307   5.934 -0.1728 -0.5174  0.3926
  574MOL0     C77366  10.519   0.180   6.027 -0.4021  0.8790  0.8030
  574MOL0     C77367  10.638   0.162   6.125  0.3719 -0.3023  0.7565
  574MOL0     C77368  10.627   0.256   6.241 -0.3340 -0.5697 -0.5407
  574MOL0     C77369  10.734   0.217   6.341  0.8148 -0.4790 -0.1478
  574MOL0     C77370  10.720   0.320   6.467 -0.2716  0.2477 -1.2852
  574MOL0     C77371  10.827   0.298   6.577  0.5453  0.2210  0.1902
  574MOL0     N77372  10.960   0.367   6.553 -0.4200 -0.1513 -0.6174
  574MOL0     C77373  10.974   0.499   6.503 -0.6910 -0.6209  0.1390
  574MOL0     C77374  11.099   0.503   6.451  0.4226 -0.0125 -0.0421
  574MOL0     C77375  11.151   0.624   6.385 -0.1156 -0.6971  0.1771
  574MOL0     C77376  11.301   0.621   6.377  0.1110  0.2599 -0.7602
  574MOL0     C77377  11.363   0.747   6.321  0.4538  0.3308 -0.8908
  574MOL0     C77378  11.514   0.733   6.338 -0.5386 -0.3831 -0.0806
  574MOL0     O77379  11.573   0.855   6.296 -0.3149  0.6713 -0.0302
  574MOL0     C77380  11.714   0.862   6.300  0.2674 -0.6888 -0.0161
  574MOL0     C77381  11.806   0.764   6.333  0.1265 -0.9082 -0.0899
  574MOL0     C77382  11.940   0.786   6.320 -0.5399  0.3599 -0.4769
  574MOL0     C77383  11.992   0.905   6.264  0.2459  0.2313  0.0474
  574MOL0     C77384  12.133   0.923   6.236  0.0756 -0.1227 -0.1180
  574MOL0     O77385  12.223   0.820   6.273  0.4860  0.5552  0.2432
  574MOL0     C77386  12.364   0.826   6.256  0.4756  0.1145  0.0352
  574MOL0     C77387  12.420   0.847   6.129 -1.3161  0.2246  0.7609
  574MOL0     C77388  12.557   0.834   6.104 -0.3525 -0.2114  0.5346
  574MOL0     C77389  12.645   0.799   6.204 -0.3789  0.8119  0.9898
  574MOL0     O77390  12.781   0.777   6.178  0.2419  0.6826  0.4290
  574MOL0     C77391  12.858   0.717   6.287 -0.7168  0.1876  0.1958
  574MOL0     C77392  13.009   0.729   6.253  0.0758  0.1171 -0.1491
  574MOL0     C77393  13.105   0.624   6.326 -0.2833  0.0239  0.7023
  574MOL0     C77394  13.095   0.481   6.282  0.0987  1.1355 -0.4892
  574MOL0     C77395  13.201   0.385   6.363  0.6454  0.2127 -0.6911
  574MOL0     C77396  13.340   0.389   6.299  0.4448  0.5347 -0.2362
  574MOL0     C77397  13.434   0.292   6.365 -0.0185 -0.2909 -0.0123
  574MOL0     C77398  13.548   0.258   6.271  1.5163  0.6177 -0.6249
  574MOL0    Cl77399  13.653   0.405   6.232  0.0467  0.4766 -0.2720
  574MOL0     C77400  12.589   0.773   6.330 -0.1415 -0.2613  0.9104
  574MOL0     C77401  12.450   0.788   6.356  0.4285 -0.2240  1.0808
  574MOL0     O77402  12.170   1.015   6.166 -0.1338 -0.1674 -0.2124
  574MOL0     C77403  11.899   1.012   6.231  0.3997 -0.0980  0.2906
  574MOL0     C77404  11.761   0.988   6.243 -0.3066 -0.8922  0.1042
  574MOL0     N77405  11.161   0.383   6.465  0.5812 -0.5951 -0.2109
  574MOL0     N77406  11.081   0.306   6.537  0.4171  0.0271 -0.2294
  574MOL0     C77407  10.655   0.320   5.628  0.2637  0.0293  0.4123
  574MOL0     C77408  10.759   0.333   5.544  0.5200  0.0398  0.2745
  574MOL0     C77409  11.013   0.581   5.224  0.3725 -0.2801  0.4757
  574MOL0     C77410  11.056   0.556   5.089 -0.3442 -0.3198 -0.4923
  574MOL0     C77411  11.176   0.598   5.046 -0.6887 -0.0316 -0.2092
  574MOL0     C77412  11.265   0.664   5.137  0.1474 -0.3599  0.2871
  574MOL0     O77413  11.391   0.699   5.100 -1.4227  0.1420 -0.1408
  574MOL0     C77414  11.430   0.740   4.968  0.1579  0.6143  0.2316
  574MOL0     C77415  11.588   0.769   4.952 -0.2867 -0.0739 -0.1346
  574MOL0     C77416  11.630   0.908   5.004 -0.5646 -0.1036 -0.2283
  574MOL0     C77417  11.565   0.960   5.135 -0.4012 -0.1518 -0.0091
  574MOL0     C77418  11.615   0.899   5.257 -0.4085  0.7650  1.2341
  574MOL0     C77419  11.644   0.833   5.355 -0.8412  0.5370 -0.7651
  574MOL0     C77420  11.216   0.688   5.268 -0.2818  0.4500 -0.1450
  574MOL0     C77421  11.095   0.652   5.316 -0.2571  0.4622 -0.2574
  574MOL0     C77422  11.059   0.688   5.459  0.7195 -0.0273 -0.4390
  574MOL0     H77423  10.686   0.624   5.400 -0.0567 -1.0023 -0.5925
  574MOL0     H77424  10.474   0.601   5.541  0.6989  0.7792 -0.5007
  574MOL0     H77425  10.338   0.308   5.863  0.4267  0.7577 -0.1994
  574MOL0     H77426  10.432   0.208   5.750 -0.8508  0.0146 -0.1379
  574MOL0     H77427  10.490   0.381   6.000 -1.2455 -0.5471 -0.3161
  574MOL0     H77428  10.642   0.322   5.908 -0.9110  3.1569 -1.0548
  574MOL0     H77429  10.505   0.098   5.956 -3.0521  1.9114  0.0218
  574MOL0     H77430  10.426   0.193   6.081 -0.7302  3.8672 -0.2402
  574MOL0     H77431  10.634   0.062   6.170 -0.5876  1.3447  4.8409
  574MOL0     H77432  10.728   0.171   6.064 -0.0917 -0.5897  0.0232
  574MOL0     H77433  10.654   0.361   6.223  1.4686 -1.3028 -2.5559
  574MOL0     H77434  10.524   0.267   6.275  0.5078  2.0952  1.5560
  574MOL0     H77435  10.727   0.115   6.381 -0.1966  0.6061  2.7294
  574MOL0     H77436  10.836   0.224   6.303  0.6398  1.5584 -0.3175
  574MOL0     H77437  10.625   0.286   6.510  0.4005  0.2462  0.2615
  574MOL0     H77438  10.712   0.423   6.432 -0.8070  0.4529 -0.5841
  574MOL0     H77439  10.785   0.339   6.669 -1.3429  2.3292 -1.4761
  574MOL0     H77440  10.836   0.189   6.579 -1.8450 -0.2201 -3.3719
  574MOL0     H77441  10.901   0.579   6.514  0.0690 -0.1561  2.3694
  574MOL0     H77442  11.113   0.633   6.283 -0.6415 -1.3065  0.3138
  574MOL0     H77443  11.100   0.708   6.434 -1.4302 -1.4466  0.1506
  574MOL0     H77444  11.331   0.617   6.482 -0.2358 -1.5596 -0.6992
  574MOL0     H77445  11.350   0.535   6.331  1.8918  1.3826 -1.0531
  574MOL0     H77446  11.328   0.821   6.393  1.9235  1.2663 -1.0951
  574MOL0     H77447  11.327   0.761   6.218 -3.8740  0.4639  0.4665
  574MOL0     H77448  11.557   0.654   6.275 -2.9059  0.3205 -2.7842
  574MOL0     H77449  11.535   0.687   6.436 -5.6590 -4.8761 -0.6043
  574MOL0     H77450  11.781   0.662   6.364 -1.7984  0.0194  1.6860
  574MOL0     H77451  12.010   0.708   6.347 -3.2094 -1.0276  3.3155
  574MOL0     H77452  12.356   0.865   6.043 -1.3971 -1.3788  0.4466
  574MOL0     H77453  12.594   0.862   6.005 -0.8773  0.0631  0.4103
  574MOL0     H77454  12.841   0.742   6.392  1.6692  1.8446  0.2614
  574MOL0     H77455  12.832   0.610   6.284 -2.4969  0.5892  0.3015
  574MOL0     H77456  13.014   0.705   6.146 -1.1347  0.6382 -0.3395
  574MOL0     H77457  13.040   0.831   6.277  0.0980  0.2706 -0.8053
  574MOL0     H77458  13.205   0.665   6.305 -0.5521 -0.1569 -1.0908
  574MOL0     H77459  13.082   0.620   6.433  1.1240  2.7823  1.2100
  574MOL0     H77460  13.101   0.472   6.173 -0.2047  1.1264 -0.5075
  574MOL0     H77461  12.997   0.439   6.307  1.6266 -3.0318 -0.7626
  574MOL0     H77462  13.167   0.282   6.355 -0.9568  0.5007  1.3672
  574MOL0     H77463  13.200   0.401   6.472 -1.4062  1.0908 -0.7909
  574MOL0     H77464  13.318   0.357   6.196 -2.1075 -1.2680  0.7537
  574MOL0     H77465  13.378   0.491   6.289  2.7747 -0.1863  0.6288
  574MOL0     H77466  13.385   0.208   6.413  0.7723 -0.2613  0.8715
  574MOL0     H77467  13.477   0.341   6.452  0.4472  1.3572 -1.1169
  574MOL0     H77468  13.600   0.193   6.342 -1.0809  1.3680  2.1473
  574MOL0     H77469  13.512   0.201   6.184 -0.4443  1.9245 -0.7419
  574MOL0     H77470  12.636   0.744   6.424  2.0495 -1.9110 -0.6074
  574MOL0     H77471  12.421   0.778   6.460 -0.1245  3.0656  1.3582
  574MOL0     H77472  11.945   1.105   6.199 -2.0833  1.6708  1.4282
  574MOL0     H77473  11.689   1.061   6.205 -0.1188 -0.4321  0.6233
  574MOL0     H77474  10.650   0.227   5.682 -1.8427  0.6184  1.3289
  574MOL0     H77475  10.837   0.259   5.527  0.8016  0.7822 -2.0177
  574MOL0     H77476  10.984   0.507   5.024 -1.3435 -0.4140  0.6627
  574MOL0     H77477  11.198   0.563   4.945  1.8784  1.9107 -0.4323
  574MOL0     H77478  11.374   0.831   4.945  0.1055  1.4134  3.1004
  574MOL0     H77479  11.401   0.669   4.889  2.8952 -0.2800 -0.0764
  574MOL0     H77480  11.614   0.765   4.845 -2.0336 -0.5825 -0.5692
  574MOL0     H77481  11.636   0.684   5.002  0.3790 -0.1336 -0.8460
  574MOL0     H77482  11.606   0.978   4.924 -0.7796  0.5442  0.3976
  574MOL0     H77483  11.736   0.912   5.030 -0.6164  1.2081 -0.1719
  574MOL0     H77484  11.579   1.069   5.137 -0.4618  0.0432 -3.7730
  574MOL0     H77485  11.457   0.957   5.119 -0.1756  3.7096 -4.2204
  574MOL0     H77486  11.665   0.765   5.435  1.0542  1.4675 -0.4192
  574MOL0     H77487  11.286   0.728   5.341 -0.0536  2.7996 -1.5486
  574MOL0     H77488  11.077   0.602   5.523  1.4879  0.7227  0.3858
  574MOL0     H77489  11.120   0.769   5.500  2.9328 -1.6657 -0.2494
  574MOL0     H77490  10.953   0.712   5.466  1.2958  3.4904 -1.4124
  575MOL0     O77491   4.954   3.418  11.080  0.3055  0.1473  0.2675
  575MOL0     C77492   5.013   3.356  11.168 -0.1617 -0.2893  0.9834
  575MOL0     O77493   5.030   3.399  11.294  1.2544 -0.3275 -0.6352
  575MOL0     C77494   4.918   3.463  11.350  0.0487 -0.3579 -0.6388
  575MOL0     C77495   4.787   3.468  11.310 -0.2899 -0.6482  0.4360
  575MOL0     C77496   4.684   3.528  11.391 -0.5374  0.2536 -0.6149
  575MOL0     C77497   4.717   3.558  11.521 -0.2860  0.7700  0.3410
  575MOL0     O77498   4.613   3.603  11.597 -0.3253  0.2584 -0.0217
  575MOL0     C77499   4.517   3.504  11.625 -0.0123 -0.0458  0.4621
  575MOL0     C77500   4.411   3.555  11.725  0.8224  0.2198 -0.5265
  575MOL0     C77501   4.476   3.568  11.873  0.8298  0.5929  0.5606
  575MOL0     C77502   4.372   3.591  11.977 -0.0149  0.0563  0.6677
  575MOL0     C77503   4.426   3.623  12.113  0.5217 -0.3265 -0.0195
  575MOL0     C77504   4.315   3.597  12.215  0.4076 -0.5499 -0.4192
  575MOL0     C77505   4.339   3.641  12.354 -0.3841  0.5615 -0.8536
  575MOL0     C77506   4.239   3.588  12.460 -1.3700 -0.5348  0.7465
  575MOL0     N77507   4.105   3.653  12.455 -0.0657 -0.4840 -0.0572
  575MOL0     C77508   3.996   3.611  12.382  0.4352 -0.2617  0.1055
  575MOL0     C77509   3.903   3.712  12.396  0.0860 -0.2626 -0.1102
  575MOL0     C77510   3.778   3.731  12.319  0.3747  0.5118  0.3741
  575MOL0     C77511   3.794   3.835  12.212 -1.0842  0.1604 -0.3011
  575MOL0     C77512   3.670   3.881  12.135  0.4199  0.1021 -0.7412
  575MOL0     C77513   3.718   3.933  12.005 -0.5281 -0.6969 -0.1359
  575MOL0     O77514   3.613   3.991  11.930  0.3195  0.2658  0.4896
  575MOL0     C77515   3.640   4.093  11.840  0.0031  0.8990 -0.1549
  575MOL0     C77516   3.762   4.136  11.795 -0.0424 -0.3863  0.2518
  575MOL0     C77517   3.772   4.227  11.688 -0.3847 -0.1945 -0.5799
  575MOL0     C77518   3.658   4.283  11.632 -0.2801  0.1733 -0.3807
  575MOL0     C77519   3.670   4.387  11.523  0.2084 -0.4937 -0.0625
  575MOL0     O77520   3.797   4.432  11.485 -0.0031 -0.8566 -0.2668
  575MOL0     C77521   3.817   4.517  11.381  0.0547 -0.6085 -0.6433
  575MOL0     C77522   3.953   4.519  11.343  0.1450 -0.5615  1.2528
  575MOL0     C77523   3.991   4.612  11.248  0.8644  0.1290 -0.5981
  575MOL0     C77524   3.902   4.688  11.179  0.6809 -0.5953  0.3733
  575MOL0     O77525   3.949   4.750  11.068  0.4486  0.0711  0.1304
  575MOL0     C77526   3.858   4.818  10.981 -0.2809 -0.8168  0.2178
  575MOL0     C77527   3.942   4.894  10.877 -0.2386  0.0324 -0.3791
  575MOL0     C77528   4.020   4.797  10.781  0.2883  0.1241  0.8493
  575MOL0     C77529   4.134   4.872  10.710  0.0061 -0.0781 -0.2995
  575MOL0     C77530   4.212   4.786  10.610 -0.0368 -0.1941  0.0344
  575MOL0     C77531   4.335   4.861  10.551 -0.7715  0.5653 -0.2550
  575MOL0     C77532   4.291   4.961  10.436 -0.2237  0.8648 -1.1020
  575MOL0     C77533   4.398   5.036  10.367  0.2632  0.3440  1.1254
  575MOL0    Cl77534   4.307   5.117  10.231  0.1883 -0.6693 -0.2708
  575MOL0     C77535   3.766   4.685  11.222  0.5466 -0.2395  0.6209
  575MOL0     C77536   3.724   4.605  11.327  0.0120 -0.5066 -0.1342
  575MOL0     O77537   3.563   4.409  11.460 -0.1854 -0.0282  0.8104
  575MOL0     C77538   3.533   4.244  11.682 -0.3804 -0.0318 -0.2724
  575MOL0     C77539   3.524   4.142  11.777 -0.3111 -0.4349 -0.5798
  575MOL0     N77540   3.947   3.801  12.483 -0.2854 -0.4943 -0.0812
  575MOL0     N77541   4.059   3.759  12.535 -0.2472  0.1533  0.6010
  575MOL0     C77542   4.844   3.539  11.567 -0.5898 -0.8798  0.0326
  575MOL0     C77543   4.945   3.491  11.485  0.6213 -0.2019  0.3404
  575MOL0     C77544   5.107   3.244  11.131 -0.3366 -0.2828  0.4621
  575MOL0     C77545   5.200   3.196  11.228  0.5797 -0.1303  0.2887
  575MOL0     C77546   5.298   3.096  11.205 -0.8919  0.6081 -0.5871
  575MOL0     C77547   5.322   3.038  11.081  0.8403 -0.2974 -0.7466
  575MOL0     O77548   5.425   2.943  11.055  0.3150  0.2186  0.9541
  575MOL0     C77549   5.525   2.904  11.153  0.1277 -0.3758 -0.3041
  575MOL0     C77550   5.637   3.009  11.136 -0.3908 -0.9159  1.4871
  575MOL0     C77551   5.772   2.937  11.167 -0.0599  0.3815  0.5504
  575MOL0     C77552   5.868   3.031  11.239  1.1255 -0.7525 -0.3509
  575MOL0     C77553   5.998   2.955  11.254 -0.0863  0.9252 -0.1154
  575MOL0     C77554   6.102   2.893  11.272  0.0896  0.1010 -0.4720
  575MOL0     C77555   5.229   3.080  10.979 -0.3355  0.1636 -0.7723
  575MOL0     C77556   5.123   3.177  11.003  0.0272  0.2216  0.5609
  575MOL0     C77557   5.025   3.208  10.893 -0.4269  0.3579  0.6527
  575MOL0     H77558   4.764   3.424  11.214  0.9770 -0.5554  0.0758
  575MOL0     H77559   4.581   3.541  11.360 -0.8040  0.3943  0.2745
  575MOL0     H77560   4.463   3.479  11.533  2.1784 -2.7877 -0.2058
  575MOL0     H77561   4.556   3.411  11.666  2.1213  0.9862  0.9474
  575MOL0     H77562   4.341   3.471  11.731  0.3670  0.6879  1.7127
  575MOL0     H77563   4.361   3.644  11.687  3.3823  1.6101 -0.8200
  575MOL0     H77564   4.544   3.654  11.872  1.1684  0.3719 -1.9379
  575MOL0     H77565   4.528   3.478  11.906  0.5972  0.5200  0.7296
  575MOL0     H77566   4.310   3.676  11.945  1.7309  1.1625  0.0508
  575MOL0     H77567   4.309   3.502  11.974  1.6032 -1.1177  0.3569
  575MOL0     H77568   4.512   3.559  12.137 -0.1659 -0.9502  0.8410
  575MOL0     H77569   4.455   3.728  12.122 -1.6725  0.1767  2.9919
  575MOL0     H77570   4.228   3.651  12.177 -1.2596 -2.1468  0.9639
  575MOL0     H77571   4.288   3.492  12.210  1.5018 -0.8432 -0.5047
  575MOL0     H77572   4.339   3.750  12.370  1.7627  0.3554  0.9819
  575MOL0     H77573   4.438   3.598  12.369 -1.1903 -0.6771  1.4640
  575MOL0     H77574   4.230   3.486  12.421 -1.1819 -0.5262  0.6811
  575MOL0     H77575   4.286   3.595  12.558 -1.5686  1.0471  0.7545
  575MOL0     H77576   3.993   3.520  12.323  2.7294 -1.4233  1.6283
  575MOL0     H77577   3.731   3.641  12.281 -0.3853  0.2174  1.9323
  575MOL0     H77578   3.715   3.782  12.393  1.8918  2.7148  0.2653
  575MOL0     H77579   3.841   3.920  12.262  0.7771 -1.6564  1.2191
  575MOL0     H77580   3.862   3.794  12.137 -1.6322 -0.5335 -0.4350
  575MOL0     H77581   3.639   3.970  12.192  0.3567 -1.3943  1.6947
  575MOL0     H77582   3.583   3.815  12.132 -3.0577  4.0025  1.6713
  575MOL0     H77583   3.756   3.855  11.938 -0.6010  0.3458 -1.4375
  575MOL0     H77584   3.797   4.006  12.027 -0.3239 -0.5175 -1.3470
  575MOL0     H77585   3.854   4.092  11.832  0.3507 -0.2538 -0.5278
  575MOL0     H77586   3.873   4.258  11.664  0.1476 -0.4407  1.1620
  575MOL0     H77587   4.031   4.462  11.394  1.4073 -0.7723 -0.7729
  575MOL0     H77588   4.093   4.638  11.224  1.6303  0.3844  2.4877
  575MOL0     H77589   3.804   4.750  10.916 -0.4802 -0.4549 -0.0014
  575MOL0     H77590   3.797   4.887  11.040  0.4406  0.5054 -0.5265
  575MOL0     H77591   3.873   4.960  10.822 -0.7611  1.0486  1.4114
  575MOL0     H77592   4.014   4.959  10.927 -1.5921  0.4888  1.0639
  575MOL0     H77593   4.067   4.725  10.849 -1.5769  0.3163  2.4013
  575MOL0     H77594   3.954   4.752  10.707  1.7279  1.2453 -1.2495
  575MOL0     H77595   4.201   4.898  10.791 -0.6160  1.8831 -0.3481
  575MOL0     H77596   4.095   4.958  10.654  1.1599  0.6104 -0.0731
  575MOL0     H77597   4.143   4.773  10.527 -0.8887  2.7753  0.1535
  575MOL0     H77598   4.245   4.691  10.652  1.5566  0.2476 -0.1367
  575MOL0     H77599   4.400   4.903  10.628 -1.0311 -1.1594  0.9666
  575MOL0     H77600   4.394   4.780  10.507  1.5753  0.5147  2.6611
  575MOL0     H77601   4.231   5.038  10.486 -1.3201 -1.1773  0.9363
  575MOL0     H77602   4.244   4.898  10.360 -1.0624 -0.7552  0.6752
  575MOL0     H77603   4.429   5.116  10.436  2.9799  2.8257 -2.5271
  575MOL0     H77604   4.484   4.979  10.331 -0.3266  1.1944 -1.9236
  575MOL0     H77605   3.688   4.746  11.178  2.0544 -0.1146 -2.0973
  575MOL0     H77606   3.623   4.610  11.367  0.0305 -0.4108 -0.0984
  575MOL0     H77607   3.442   4.291  11.646 -2.2147 -1.6138  1.9898
  575MOL0     H77608   3.423   4.109  11.801 -1.4911  2.5611 -0.9764
  575MOL0     H77609   4.870   3.564  11.670  1.0575 -3.4605  0.3369
  575MOL0     H77610   5.045   3.494  11.526  1.0090  1.2925 -0.6199
  575MOL0     H77611   5.211   3.225  11.332  1.3888 -2.7496  1.0204
  575MOL0     H77612   5.364   3.066  11.285 -4.1807 -1.6452  1.4840
  575MOL0     H77613   5.570   2.807  11.133  1.9106  0.7002 -1.7958
  575MOL0     H77614   5.477   2.909  11.252  0.8875 -0.6774  0.0868
  575MOL0     H77615   5.619   3.100  11.193  1.5250  2.0489 -2.1901
  575MOL0     H77616   5.649   3.039  11.032 -0.4405  5.6065  2.9432
  575MOL0     H77617   5.816   2.888  11.080  2.1033 -2.0571  2.8206
  575MOL0     H77618   5.747   2.857  11.238  0.4101  0.6818  1.0650
  575MOL0     H77619   5.884   3.124  11.184  1.5838 -1.7313 -1.9341
  575MOL0     H77620   5.825   3.054  11.337 -2.1163 -2.7736 -1.1281
  575MOL0     H77621   6.185   2.827  11.283 -0.9777 -0.8243  4.0476
  575MOL0     H77622   5.229   3.031  10.882  0.5980 -2.0006  0.2546
  575MOL0     H77623   4.922   3.218  10.930 -1.9633  1.7953 -3.4203
  575MOL0     H77624   5.044   3.297  10.832 -0.4044 -0.2740 -0.2697
  575MOL0     H77625   5.022   3.134  10.813 -0.1254  0.7974  0.2275
  576MOL0     O77626  10.874   4.106   9.924  0.3127 -0.2625 -0.1796
  576MOL0     C77627  10.821   4.031  10.009 -0.0959  0.2658 -0.3459
  576MOL0     O77628  10.843   4.032  10.139 -0.0629  0.5948  0.6641
  576MOL0     C77629  10.928   4.119  10.191  0.4526  0.9335  0.3950
  576MOL0     C77630  10.918   4.251  10.175  0.0837 -0.5807  0.2544
  576MOL0     C77631  10.995   4.341  10.265 -0.0377 -0.0880 -0.5095
  576MOL0     C77632  11.086   4.292  10.362  0.5124 -0.0450  0.7572
  576MOL0     O77633  11.162   4.380  10.438 -0.2671 -0.2050 -0.1487
  576MOL0     C77634  11.254   4.332  10.532 -0.1053 -0.8339 -0.3007
  576MOL0     C77635  11.384   4.292  10.461 -0.4405 -0.2584  0.2848
  576MOL0     C77636  11.465   4.182  10.532 -0.2777  0.3838 -0.4202
  576MOL0     C77637  11.606   4.199  10.477  0.5310  0.1760  0.4379
  576MOL0     C77638  11.696   4.083  10.525  0.2251 -0.1871  0.5247
  576MOL0     C77639  11.826   4.073  10.447  0.7889 -0.7025 -0.3563
  576MOL0     C77640  11.913   3.959  10.498 -0.7966 -0.3172 -1.1925
  576MOL0     C77641  11.956   3.976  10.642  0.6051 -0.3588 -0.7436
  576MOL0     N77642  12.069   3.892  10.690  0.1552  0.0035 -0.0821
  576MOL0     C77643  12.204   3.925  10.683 -0.2483  0.2388 -0.2339
  576MOL0     C77644  12.270   3.802  10.704  1.0911  0.5415  0.4344
  576MOL0     C77645  12.415   3.777  10.683  0.4638  0.2009 -0.9806
  576MOL0     C77646  12.491   3.840  10.801 -0.2190  0.3152 -0.2926
  576MOL0     C77647  12.636   3.801  10.796  0.8157 -0.3582 -0.2695
  576MOL0     C77648  12.725   3.885  10.703 -1.2472  0.0408 -0.4439
  576MOL0     O77649  12.858   3.827  10.700  0.1161  0.0451 -0.7868
  576MOL0     C77650  12.957   3.881  10.623 -0.4863  0.4754 -0.1003
  576MOL0     C77651  12.961   3.995  10.547  0.2078 -0.5643  0.1176
  576MOL0     C77652  13.068   4.032  10.467  0.3132 -0.1936  0.9549
  576MOL0     C77653  13.181   3.959  10.457 -0.7850  1.0313 -0.3812
  576MOL0     C77654  13.310   3.992  10.372  1.1619  0.2299 -0.4380
  576MOL0     O77655  13.300   4.097  10.280 -0.1166  0.3676 -0.4951
  576MOL0     C77656  13.405   4.128  10.186 -0.0936  0.3680  0.2542
  576MOL0     C77657  13.371   4.164  10.059 -0.3853 -0.2924 -0.2454
  576MOL0     C77658  13.459   4.208   9.966 -1.0837 -0.0071 -0.2391
  576MOL0     C77659  13.592   4.233  10.011 -0.1349  0.0933  0.1522
  576MOL0     O77660  13.679   4.282   9.917 -0.5819  0.0321 -0.2512
  576MOL0     C77661  13.818   4.324   9.931 -0.2055  0.1221  0.6330
  576MOL0     C77662  13.856   4.351   9.788 -0.4114 -0.5837  0.3974
  576MOL0     C77663  13.767   4.465   9.730  0.1144  0.5766 -0.1118
  576MOL0     C77664  13.814   4.491   9.591 -0.7753 -0.3589  0.5233
  576MOL0     C77665  13.734   4.603   9.530 -0.9776 -1.3233 -0.4522
  576MOL0     C77666  13.762   4.615   9.388  0.5364 -0.3241  0.6924
  576MOL0     C77667  13.672   4.726   9.324 -0.4356  0.1768  0.3010
  576MOL0     C77668  13.697   4.743   9.177  0.0320  0.3565  0.7144
  576MOL0    Cl77669  13.639   4.610   9.082  0.3446  0.0442  0.2084
  576MOL0     C77670  13.633   4.180  10.130  0.4436 -0.4391  0.3304
  576MOL0     C77671  13.538   4.138  10.222  0.1969  0.7767  0.1116
  576MOL0     O77672  13.417   3.936  10.400 -0.2224  0.2703 -0.6155
  576MOL0     C77673  13.193   3.835  10.538 -0.2247 -1.1488 -0.1604
  576MOL0     C77674  13.078   3.798  10.613  0.1005  0.3556 -0.4999
  576MOL0     N77675  12.177   3.701  10.728 -0.2977 -0.5208 -0.4131
  576MOL0     N77676  12.060   3.754  10.730  0.4350 -0.9489  0.6763
  576MOL0     C77677  11.102   4.147  10.361 -0.2340  0.5413 -0.8404
  576MOL0     C77678  11.030   4.065  10.276  1.6236 -0.4149  0.0036
  576MOL0     C77679  10.713   3.946   9.963 -0.2027 -0.1876 -0.5064
  576MOL0     C77680  10.647   4.004   9.853 -0.2885  0.1158 -0.3049
  576MOL0     C77681  10.543   3.930   9.789  0.2878 -0.5482 -0.1621
  576MOL0     C77682  10.500   3.811   9.845  0.1701 -0.2817  0.0149
  576MOL0     O77683  10.391   3.751   9.784 -0.8845  1.0716 -0.1733
  576MOL0     C77684  10.275   3.720   9.866 -0.6043 -0.3460 -0.0843
  576MOL0     C77685  10.244   3.570   9.875  0.5004 -0.2911 -0.5509
  576MOL0     C77686  10.214   3.497   9.743 -0.4714  0.1532  0.3103
  576MOL0     C77687  10.313   3.526   9.628 -1.4559 -0.0489  0.3217
  576MOL0     C77688  10.269   3.432   9.522 -0.4063 -0.3751  0.2267
  576MOL0     C77689  10.223   3.360   9.438 -0.1476  0.7148  0.3012
  576MOL0     C77690  10.555   3.759   9.964  0.1407 -0.8573 -0.6926
  576MOL0     C77691  10.669   3.819  10.019  0.2288  0.4986 -0.1931
  576MOL0     C77692  10.743   3.749  10.127 -0.5934 -0.3113  0.2578
  576MOL0     H77693  10.853   4.298  10.102  0.2449  0.2377  0.6213
  576MOL0     H77694  10.985   4.446  10.241 -2.4203 -0.1423  0.0465
  576MOL0     H77695  11.272   4.409  10.608  1.5040 -2.7076  1.3478
  576MOL0     H77696  11.212   4.250  10.591 -2.6705 -0.2328 -1.1688
  576MOL0     H77697  11.434   4.388  10.442 -2.3639  0.7337 -0.0386
  576MOL0     H77698  11.349   4.248  10.367 -2.1656 -1.7697  1.5738
  576MOL0     H77699  11.417   4.085  10.519 -0.2979  0.3303  0.0390
  576MOL0     H77700  11.452   4.211  10.636 -2.6945  1.3628 -0.9251
  576MOL0     H77701  11.600   4.185  10.368 -1.4214 -1.9618  0.7479
  576MOL0     H77702  11.647   4.298  10.500  1.3399  0.6618 -2.5928
  576MOL0     H77703  11.719   4.111  10.629  1.4427  0.7990  0.0257
  576MOL0     H77704  11.643   3.989  10.510  0.6054  0.0918 -3.9390
  576MOL0     H77705  11.795   4.049  10.345 -2.0496  1.1886 -0.0398
  576MOL0     H77706  11.871   4.173  10.454 -1.4495  0.4257 -0.9484
  576MOL0     H77707  12.000   3.968  10.432 -0.5818  1.3213 -0.7497
  576MOL0     H77708  11.863   3.862  10.495 -1.5817 -0.0299  0.9484
  576MOL0     H77709  11.985   4.080  10.656  0.2087  0.4267 -4.6549
  576MOL0     H77710  11.874   3.951  10.710  2.4335 -2.8877  0.6858
  576MOL0     H77711  12.255   4.018  10.661 -0.7932  0.3214 -1.2068
  576MOL0     H77712  12.445   3.673  10.667  0.9219  0.2539 -0.4632
  576MOL0     H77713  12.442   3.831  10.591  0.8153  0.0643 -0.9586
  576MOL0     H77714  12.470   3.948  10.806 -3.0696 -0.1069 -1.0614
  576MOL0     H77715  12.437   3.792  10.883  0.1262  2.5261  1.3271
  576MOL0     H77716  12.641   3.695  10.771  3.0532 -1.0406  2.4918
  576MOL0     H77717  12.673   3.811  10.899 -2.5709  0.3540  0.9915
  576MOL0     H77718  12.723   3.984  10.750 -1.5491 -0.5072  0.7262
  576MOL0     H77719  12.689   3.882  10.600  0.0814 -2.6499 -0.9187
  576MOL0     H77720  12.867   4.048  10.554  0.7520  0.2729  1.4074
  576MOL0     H77721  13.062   4.117  10.401 -0.0335 -1.5573 -0.8491
  576MOL0     H77722  13.266   4.177  10.036  0.1807  1.0843 -2.2457
  576MOL0     H77723  13.430   4.244   9.868  0.3294 -2.5351 -1.6834
  576MOL0     H77724  13.836   4.422   9.976  2.1563  0.7134 -1.3966
  576MOL0     H77725  13.879   4.243   9.970  0.0995 -0.5463 -1.1540
  576MOL0     H77726  13.961   4.383   9.785 -0.3201 -0.5937 -4.6477
  576MOL0     H77727  13.858   4.257   9.732  2.0384 -1.9551  2.5486
  576MOL0     H77728  13.662   4.433   9.724  0.1643  0.3706  0.0897
  576MOL0     H77729  13.792   4.556   9.786  2.1441  0.5053 -0.8411
  576MOL0     H77730  13.794   4.398   9.536  0.8871  0.0331 -0.8329
  576MOL0     H77731  13.921   4.513   9.594 -0.5130 -1.4096 -0.3742
  576MOL0     H77732  13.760   4.695   9.583  1.1736 -2.4586  0.6063
  576MOL0     H77733  13.627   4.589   9.548 -1.6208  1.3371 -1.6573
  576MOL0     H77734  13.865   4.650   9.376  0.5134 -0.7762 -1.0713
  576MOL0     H77735  13.738   4.515   9.352  0.8082  0.4708 -1.8972
  576MOL0     H77736  13.710   4.817   9.372  1.9254 -0.3977 -0.3099
  576MOL0     H77737  13.565   4.710   9.340 -0.6413  0.5584 -0.6221
  576MOL0     H77738  13.651   4.832   9.132  1.5379  0.4502 -0.6964
  576MOL0     H77739  13.805   4.754   9.167 -0.2689  1.8041 -2.0632
  576MOL0     H77740  13.737   4.172  10.163  0.5652  2.2677  0.9066
  576MOL0     H77741  13.573   4.120  10.323  2.8579  4.1581 -0.0096
  576MOL0     H77742  13.276   3.766  10.524 -0.5944 -1.0721 -3.5418
  576MOL0     H77743  13.079   3.699  10.659 -0.4637  0.6249  0.1099
  576MOL0     H77744  11.162   4.091  10.432 -2.1100  2.0957  2.1712
  576MOL0     H77745  11.044   3.958  10.283 -1.6495 -1.0040 -0.7359
  576MOL0     H77746  10.672   4.087   9.788  0.5372 -0.3328 -0.5773
  576MOL0     H77747  10.491   3.976   9.705 -0.8979 -1.1558  0.2172
  576MOL0     H77748  10.187   3.767   9.821  0.4219  0.8820 -0.8848
  576MOL0     H77749  10.283   3.765   9.966  2.9422 -4.6906  1.9365
  576MOL0     H77750  10.162   3.552   9.945  0.4800  0.3917 -0.3913
  576MOL0     H77751  10.329   3.515   9.917  0.2531 -1.7936 -1.9604
  576MOL0     H77752  10.111   3.523   9.719 -0.9271  1.5952  3.3013
  576MOL0     H77753  10.211   3.393   9.777 -2.2754  0.9011  2.7801
  576MOL0     H77754  10.312   3.630   9.594  1.7172  0.6066  1.8684
  576MOL0     H77755  10.418   3.504   9.652 -1.8937 -0.9052  1.5849
  576MOL0     H77756  10.189   3.300   9.356  1.0933  0.8979 -0.3703
  576MOL0     H77757  10.520   3.663  10.000 -0.7348 -0.6997 -1.0970
  576MOL0     H77758  10.851   3.766  10.121 -0.7992  0.5856 -3.3113
  576MOL0     H77759  10.714   3.775  10.229 -1.2338  1.4822 -0.3446
  576MOL0     H77760  10.727   3.641  10.122  0.2262 -0.4964  1.2689
  577MOL0     O77761   9.579   9.777   9.783  0.0632 -0.0343 -0.5586
  577MOL0     C77762   9.477   9.743   9.846 -0.8192  0.0126  0.3959
  577MOL0     O77763   9.459   9.733   9.978 -0.4780  0.4159 -0.4462
  577MOL0     C77764   9.544   9.793  10.068 -0.6673 -0.3567 -0.3620
  577MOL0     C77765   9.543   9.739  10.198 -0.5491  0.7130  0.6291
  577MOL0     C77766   9.631   9.774  10.298  0.8994 -0.3883 -0.8949
  577MOL0     C77767   9.726   9.876  10.275  0.1643 -0.8835  0.5136
  577MOL0     O77768   9.837   9.905  10.350 -0.3236 -0.4317  0.4174
  577MOL0     C77769   9.918   9.788  10.395  0.2208  0.9203 -0.1350
  577MOL0     C77770  10.040   9.854  10.452  0.6760  0.0823 -0.1410
  577MOL0     C77771  10.137   9.746  10.523 -0.5323 -0.3488 -0.1795
  577MOL0     C77772  10.262   9.819  10.576 -0.6124 -0.2042 -0.1320
  577MOL0     C77773  10.375   9.721  10.626  0.3172  0.2560 -0.5864
  577MOL0     C77774  10.463   9.799  10.715 -0.3994  1.0813 -0.0599
  577MOL0     C77775  10.583   9.714  10.767 -0.7348 -0.0822  0.8544
  577MOL0     C77776  10.649   9.772  10.894  0.5322 -0.4388 -0.3433
  577MOL0     N77777  10.774   9.701  10.935 -0.1429 -1.3611  0.7541
  577MOL0     C77778  10.798   9.606  11.032 -0.2617  0.2681 -0.0739
  577MOL0     C77779  10.929   9.573  11.028 -0.3261  0.1157  0.9744
  577MOL0     C77780  11.002   9.477  11.128 -0.2666 -0.2127  0.4054
  577MOL0     C77781  10.937   9.336  11.121 -0.1965 -0.5431  0.5045
  577MOL0     C77782  10.998   9.248  11.229  0.5458  0.2536 -0.8060
  577MOL0     C77783  11.017   9.101  11.199 -0.7909 -0.3770 -0.0032
  577MOL0     O77784  11.032   9.018  11.311  0.3046  0.0606 -0.3667
  577MOL0     C77785  11.162   9.005  11.363 -0.5563  0.1199  0.3763
  577MOL0     C77786  11.183   8.913  11.465 -0.3221 -0.7110  0.1160
  577MOL0     C77787  11.311   8.889  11.522 -0.0637 -0.3858  0.5191
  577MOL0     C77788  11.420   8.963  11.490  0.2518  0.0864 -0.6872
  577MOL0     C77789  11.552   8.943  11.557  0.5013  0.4721  0.1090
  577MOL0     O77790  11.557   8.853  11.660  0.0394 -0.1723  0.0503
  577MOL0     C77791  11.659   8.836  11.746  0.2276  0.0941 -0.2514
  577MOL0     C77792  11.789   8.879  11.724  1.0758  0.5773 -0.1696
  577MOL0     C77793  11.879   8.861  11.829 -0.1915  0.2328  0.5990
  577MOL0     C77794  11.841   8.802  11.956 -0.1161 -0.2986 -0.5816
  577MOL0     O77795  11.917   8.773  12.067  0.7610  0.2153  0.0316
  577MOL0     C77796  12.045   8.841  12.087  0.0434 -0.8992  0.7354
  577MOL0     C77797  12.147   8.809  11.986  0.0105  0.7673  0.7618
  577MOL0     C77798  12.286   8.767  12.033 -0.4052  0.2098 -0.7238
  577MOL0     C77799  12.376   8.889  12.068  0.2107  1.0403  0.3624
  577MOL0     C77800  12.525   8.848  12.061 -0.0169 -0.0713  0.4007
  577MOL0     C77801  12.566   8.734  12.143 -0.5173  0.3795  0.5199
  577MOL0     C77802  12.559   8.761  12.296 -1.2728  0.6193 -0.3698
  577MOL0     C77803  12.621   8.642  12.371  0.4345 -0.4427  0.5353
  577MOL0    Cl77804  12.804   8.617  12.332 -0.5624  0.1476  0.3673
  577MOL0     C77805  11.701   8.774  11.968 -0.1700  0.3675 -0.5248
  577MOL0     C77806  11.615   8.785  11.865  0.2469  0.2191 -0.6417
  577MOL0     O77807  11.650   8.998  11.506  0.1684  0.3300  0.0541
  577MOL0     C77808  11.400   9.060  11.391 -0.3843 -0.4371  0.3808
  577MOL0     C77809  11.278   9.075  11.326 -0.4124  0.0820 -0.5385
  577MOL0     N77810  10.981   9.643  10.923 -0.1123  0.8528  0.8994
  577MOL0     N77811  10.892   9.716  10.863 -0.1947 -0.1882 -0.3248
  577MOL0     C77812   9.721   9.945  10.146  0.4826 -0.1495 -0.6456
  577MOL0     C77813   9.628   9.902  10.044  0.7556 -0.4828  0.7386
  577MOL0     C77814   9.369   9.695   9.763 -0.5130 -0.4506  0.0991
  577MOL0     C77815   9.239   9.705   9.821 -0.0039 -0.4673  0.7539
  577MOL0     C77816   9.121   9.663   9.759 -0.3049  0.3654  0.3523
  577MOL0     C77817   9.132   9.617   9.623 -0.3163  0.1926 -0.4696
  577MOL0     O77818   9.018   9.608   9.549 -0.2193  0.1451  0.0986
  577MOL0     C77819   9.031   9.587   9.401  0.8258 -0.3941 -0.5177
  577MOL0     C77820   9.045   9.435   9.374  0.2855 -0.8766 -0.0027
  577MOL0     C77821   8.919   9.358   9.418  0.1901 -0.3540 -0.2059
  577MOL0     C77822   8.924   9.325   9.574  0.2388  0.3218  0.3488
  577MOL0     C77823   8.803   9.241   9.611  0.3554 -0.2182 -0.8856
  577MOL0     C77824   8.716   9.167   9.662  0.2191  0.6819  1.0216
  577MOL0     C77825   9.262   9.604   9.570 -0.4991  0.4203  0.8542
  577MOL0     C77826   9.380   9.639   9.634 -0.3483  0.3428  0.1338
  577MOL0     C77827   9.508   9.604   9.568 -0.4330 -1.1649  0.2576
  577MOL0     H77828   9.484   9.651  10.220 -0.9131 -0.5917 -4.2423
  577MOL0     H77829   9.640   9.711  10.386  1.2792 -4.7083 -3.7003
  577MOL0     H77830   9.861   9.736  10.473 -1.4604  1.0572 -1.2231
  577MOL0     H77831   9.937   9.717  10.314  0.0629 -0.5847  1.1186
  577MOL0     H77832  10.013   9.920  10.535 -2.5225  0.1936 -1.1452
  577MOL0     H77833  10.093   9.908  10.373  1.1384 -0.7932 -0.4464
  577MOL0     H77834  10.157   9.667  10.450 -0.9654  0.1271 -0.8233
  577MOL0     H77835  10.088   9.698  10.609 -1.0878  3.1851  1.6897
  577MOL0     H77836  10.303   9.880  10.494  1.2846 -1.4042 -0.1252
  577MOL0     H77837  10.228   9.885  10.657  0.4675  0.6935 -0.3763
  577MOL0     H77838  10.327   9.640  10.682 -4.8296  3.2504 -0.0380
  577MOL0     H77839  10.421   9.695  10.530  0.6343  0.7853 -0.5778
  577MOL0     H77840  10.499   9.892  10.669 -0.8040  1.5884  0.6238
  577MOL0     H77841  10.400   9.818  10.803  0.7240  0.0311  1.0179
  577MOL0     H77842  10.659   9.717  10.688 -1.8171 -0.2899 -0.2259
  577MOL0     H77843  10.558   9.609  10.783  1.4405 -0.6945  0.6412
  577MOL0     H77844  10.678   9.877  10.880  3.0193 -1.1125 -0.6576
  577MOL0     H77845  10.575   9.771  10.974  1.9101  0.1863  0.9809
  577MOL0     H77846  10.715   9.571  11.093 -0.6003  1.3990  0.1342
  577MOL0     H77847  11.102   9.449  11.093 -0.8682 -0.3625 -1.2855
  577MOL0     H77848  11.005   9.516  11.230  1.1057  0.7158  0.0298
  577MOL0     H77849  10.833   9.346  11.153 -0.0127 -1.6680  1.5535
  577MOL0     H77850  10.950   9.289  11.022 -0.6744  1.7227 -0.6953
  577MOL0     H77851  10.939   9.256  11.321  2.9808  0.9613  0.8013
  577MOL0     H77852  11.097   9.288  11.254 -0.1356  0.4649  1.9087
  577MOL0     H77853  11.097   9.094  11.124 -0.9458  2.7079 -0.5636
  577MOL0     H77854  10.918   9.082  11.157 -1.0479  2.1344 -0.6708
  577MOL0     H77855  11.094   8.866  11.506 -0.1446 -0.4136  0.8641
  577MOL0     H77856  11.315   8.811  11.598 -2.6156 -1.0735  0.0504
  577MOL0     H77857  11.828   8.921  11.632  0.1842  0.2112 -0.7262
  577MOL0     H77858  11.976   8.899  11.798 -0.8084 -0.5870 -2.6671
  577MOL0     H77859  12.031   8.950  12.085  2.6108 -0.5066  0.9823
  577MOL0     H77860  12.083   8.813  12.185  3.0726 -0.5586 -0.2320
  577MOL0     H77861  12.115   8.730  11.917 -3.2089  1.7870  0.9302
  577MOL0     H77862  12.158   8.900  11.926  0.7509  0.6935  0.7731
  577MOL0     H77863  12.280   8.705  12.123 -0.3569  0.4511 -0.5529
  577MOL0     H77864  12.329   8.705  11.954 -0.0041 -0.6065  0.1308
  577MOL0     H77865  12.350   8.933  12.165 -1.4866  1.1758 -0.1143
  577MOL0     H77866  12.355   8.960  11.988  0.6595 -2.2646 -2.9188
  577MOL0     H77867  12.587   8.937  12.074  1.7796 -1.2148  0.0067
  577MOL0     H77868  12.547   8.815  11.959  0.3823  0.6852  0.2269
  577MOL0     H77869  12.495   8.653  12.124 -0.7523  0.7034  0.0230
  577MOL0     H77870  12.672   8.712  12.124 -1.1269 -2.6428  0.0715
  577MOL0     H77871  12.459   8.790  12.330 -1.2573 -2.6760  3.1986
  577MOL0     H77872  12.622   8.847  12.319 -2.3440  1.2397  0.3100
  577MOL0     H77873  12.618   8.655  12.480  1.3054  0.8913  0.4262
  577MOL0     H77874  12.556   8.563  12.332  1.3004 -1.2446  0.6552
  577MOL0     H77875  11.674   8.721  12.059 -0.5890 -3.0118 -2.4591
  577MOL0     H77876  11.511   8.758  11.883  0.6910 -1.6109 -0.6329
  577MOL0     H77877  11.478   9.130  11.365 -0.7252  0.5109  1.8071
  577MOL0     H77878  11.268   9.153  11.251 -1.2059  1.3588  0.8483
  577MOL0     H77879   9.792  10.021  10.116 -0.5759  0.4552 -1.6979
  577MOL0     H77880   9.621   9.954   9.949  2.4090  1.5967  1.6834
  577MOL0     H77881   9.243   9.740   9.924 -0.9160  0.6742  0.4176
  577MOL0     H77882   9.022   9.679   9.802 -1.1881 -1.1051 -1.0177
  577MOL0     H77883   9.113   9.645   9.357 -0.4493  1.3348 -0.7122
  577MOL0     H77884   8.938   9.621   9.354  1.1417  0.3454 -0.6182
  577MOL0     H77885   9.133   9.397   9.426 -1.0226 -2.0400  1.4768
  577MOL0     H77886   9.058   9.412   9.268  2.7229 -2.0865  0.4915
  577MOL0     H77887   8.915   9.271   9.351  2.2178 -1.9448  1.5984
  577MOL0     H77888   8.823   9.407   9.399 -0.7509 -2.4138 -1.0267
  577MOL0     H77889   9.022   9.289   9.608 -0.2636  0.1775  1.6880
  577MOL0     H77890   8.919   9.416   9.634  0.3487 -0.5841  1.7886
  577MOL0     H77891   8.633   9.108   9.698 -1.0059  0.2746 -2.1248
  577MOL0     H77892   9.275   9.560   9.471  0.8725  0.8219  0.8421
  577MOL0     H77893   9.491   9.539   9.481 -2.2062 -0.5267  0.0834
  577MOL0     H77894   9.562   9.696   9.545 -1.8613 -0.7306 -1.6561
  577MOL0     H77895   9.569   9.549   9.640 -1.4600 -0.7706  1.4703
  578MOL0     O77896   6.904   8.879   8.735 -0.1091  0.2266  0.0904
  578MOL0     C77897   6.790   8.934   8.727  0.0096  0.7638  0.2481
  578MOL0     O77898   6.759   9.036   8.651 -0.3148 -0.2975  0.0815
  578MOL0     C77899   6.857   9.129   8.616 -0.9874 -0.0935  0.5736
  578MOL0     C77900   6.980   9.150   8.683 -0.6556 -0.1442  0.0514
  578MOL0     C77901   7.088   9.212   8.625  0.8102  0.2704  0.0324
  578MOL0     C77902   7.075   9.266   8.494  0.1551 -0.2509 -0.7717
  578MOL0     O77903   7.178   9.325   8.423  0.1808 -0.5061 -0.5739
  578MOL0     C77904   7.320   9.280   8.459  0.2857  0.4202  0.8560
  578MOL0     C77905   7.413   9.375   8.395 -0.2168  0.5876 -1.2920
  578MOL0     C77906   7.551   9.377   8.451 -0.3755  0.1385  0.3597
  578MOL0     C77907   7.645   9.480   8.379  0.3352  0.3148  0.1655
  578MOL0     C77908   7.796   9.454   8.403 -0.3766  0.0148 -0.2350
  578MOL0     C77909   7.832   9.304   8.367  0.4773 -0.7980 -0.4174
  578MOL0     C77910   7.988   9.292   8.338  0.7571 -1.0445  0.3551
  578MOL0     C77911   8.063   9.311   8.465  0.6507 -0.0447 -0.1100
  578MOL0     N77912   8.207   9.334   8.437  0.1044  0.3175  0.0753
  578MOL0     C77913   8.266   9.457   8.446  0.6315 -0.3689 -0.5582
  578MOL0     C77914   8.398   9.441   8.425  0.1607  0.0811 -0.2756
  578MOL0     C77915   8.487   9.551   8.435  0.0445 -0.7456  0.4404
  578MOL0     C77916   8.623   9.512   8.397 -0.4420  0.0702 -0.1781
  578MOL0     C77917   8.714   9.633   8.375 -0.3270  0.3819  0.1952
  578MOL0     C77918   8.863   9.592   8.353  1.3460 -0.2016  0.0714
  578MOL0     O77919   8.912   9.534   8.468 -0.7378  0.4139 -0.6975
  578MOL0     C77920   9.053   9.538   8.485 -0.2616  0.2554  0.0572
  578MOL0     C77921   9.102   9.538   8.614  0.4810 -0.4953 -0.1082
  578MOL0     C77922   9.238   9.573   8.638 -0.4480 -0.6209  0.8112
  578MOL0     C77923   9.333   9.586   8.528 -0.0926  0.6367 -0.1601
  578MOL0     C77924   9.474   9.627   8.569 -0.5532  0.3787 -1.0875
  578MOL0     O77925   9.498   9.687   8.697  0.5219  0.5435  0.4469
  578MOL0     C77926   9.624   9.697   8.741 -0.0031  0.3689  0.0676
  578MOL0     C77927   9.712   9.795   8.694 -0.1566  1.1383 -0.8586
  578MOL0     C77928   9.848   9.788   8.721  0.5886  0.1698 -0.3299
  578MOL0     C77929   9.889   9.690   8.813 -0.2931  1.0346 -0.2789
  578MOL0     O77930  10.020   9.685   8.853 -0.5499  0.0104 -0.1099
  578MOL0     C77931  10.052   9.754   8.975  0.4107  0.3996 -0.7002
  578MOL0     C77932  10.193   9.808   8.956 -0.7987 -0.5884  0.1571
  578MOL0     C77933  10.301   9.701   8.973 -0.5103  0.2296  0.2621
  578MOL0     C77934  10.421   9.736   8.877 -0.4752 -0.0239  0.1299
  578MOL0     C77935  10.537   9.641   8.894  0.1065 -0.4342 -0.4157
  578MOL0     C77936  10.635   9.668   9.010  0.5358 -0.7557 -0.4751
  578MOL0     C77937  10.680   9.810   9.029 -0.8185  0.5987  0.2128
  578MOL0     C77938  10.809   9.807   9.113 -0.4094  0.0911 -0.1051
  578MOL0    Cl77939  10.759   9.775   9.283  0.3013  0.0141  0.3137
  578MOL0     C77940   9.802   9.603   8.880  0.2480 -0.5823  0.4661
  578MOL0     C77941   9.668   9.602   8.837 -0.0742 -0.0058 -0.5568
  578MOL0     O77942   9.558   9.621   8.481  1.0025  0.0730  0.3257
  578MOL0     C77943   9.280   9.569   8.395  1.0761 -0.2534 -0.2110
  578MOL0     C77944   9.143   9.546   8.381  0.1416  1.2725 -0.7519
  578MOL0     N77945   8.427   9.307   8.398 -0.6129 -0.0174 -0.2369
  578MOL0     N77946   8.311   9.248   8.420 -0.0368 -0.5516  0.1806
  578MOL0     C77947   6.954   9.249   8.426 -0.0221 -0.2707 -0.2232
  578MOL0     C77948   6.849   9.179   8.486  0.0432 -0.3462  0.5858
  578MOL0     C77949   6.687   8.868   8.796  0.0901 -0.4464  0.4526
  578MOL0     C77950   6.722   8.768   8.898  0.7527  0.2387 -1.1730
  578MOL0     C77951   6.616   8.714   8.969  0.6593 -0.4200  0.9255
  578MOL0     C77952   6.486   8.753   8.959 -0.5929  0.6609 -0.7325
  578MOL0     O77953   6.398   8.696   9.050 -0.2792 -0.0072 -0.1357
  578MOL0     C77954   6.300   8.614   8.977 -0.5025 -0.1168 -0.1227
  578MOL0     C77955   6.152   8.639   9.017 -0.5052 -0.0483  0.5665
  578MOL0     C77956   6.118   8.789   9.028  0.7064 -0.5241  0.5368
  578MOL0     C77957   5.974   8.825   9.056  0.1409  0.1952  0.2122
  578MOL0     C77958   5.871   8.732   9.009 -0.9827 -0.0155  0.5335
  578MOL0     C77959   5.783   8.650   8.986 -0.4574 -0.5038  0.1668
  578MOL0     C77960   6.451   8.851   8.871 -0.0714  0.6618  0.4189
  578MOL0     C77961   6.553   8.911   8.794 -0.3591 -0.3119 -0.2617
  578MOL0     C77962   6.492   9.009   8.694 -0.3360  1.5552  0.2755
  578MOL0     H77963   6.976   9.109   8.783 -0.3778  0.2352  0.2228
  578MOL0     H77964   7.177   9.211   8.686 -0.6152  1.1698  2.2290
  578MOL0     H77965   7.339   9.272   8.566  0.3995  0.9467  0.8753
  578MOL0     H77966   7.341   9.182   8.415 -1.4464  0.4348 -0.1064
  578MOL0     H77967   7.373   9.471   8.430 -2.0121 -1.5594  3.2659
  578MOL0     H77968   7.423   9.365   8.286 -1.3575 -0.7948 -1.2950
  578MOL0     H77969   7.587   9.274   8.443 -0.9269 -0.0972  0.8146
  578MOL0     H77970   7.541   9.402   8.557 -0.9638  1.1131  0.0816
  578MOL0     H77971   7.631   9.468   8.272 -0.0811  1.4016  0.0890
  578MOL0     H77972   7.623   9.581   8.414 -0.8546  0.0151  0.3131
  578MOL0     H77973   7.839   9.529   8.335  2.4010 -1.8143 -0.6810
  578MOL0     H77974   7.813   9.479   8.508 -2.1384 -0.2759  0.1360
  578MOL0     H77975   7.801   9.228   8.440  0.3958 -0.0118  0.3849
  578MOL0     H77976   7.790   9.281   8.269 -0.4222  0.3659 -0.3265
  578MOL0     H77977   8.016   9.376   8.273 -1.1710  0.2160  1.0699
  578MOL0     H77978   8.015   9.197   8.290 -0.7400 -1.7158  0.8085
  578MOL0     H77979   8.025   9.382   8.539  1.7733 -1.2992  1.7832
  578MOL0     H77980   8.060   9.226   8.534  2.3037  0.9248  1.2649
  578MOL0     H77981   8.226   9.556   8.466  1.5899  0.0154 -0.5221
  578MOL0     H77982   8.452   9.625   8.362 -0.2688  0.5072  1.8076
  578MOL0     H77983   8.493   9.596   8.534  0.7159  1.4240 -0.5289
  578MOL0     H77984   8.659   9.442   8.474 -0.3636  0.6244  0.2981
  578MOL0     H77985   8.624   9.452   8.305 -1.6808  2.7372 -2.0615
  578MOL0     H77986   8.706   9.701   8.461  0.6977 -0.2385  0.8035
  578MOL0     H77987   8.678   9.691   8.290  0.9133  1.2816  0.2575
  578MOL0     H77988   8.917   9.680   8.319  1.0552  0.0371  0.2284
  578MOL0     H77989   8.865   9.510   8.280  2.0487 -1.2349  1.2054
  578MOL0     H77990   9.032   9.535   8.696  2.1208  0.1847  1.3925
  578MOL0     H77991   9.268   9.585   8.741  0.5397 -2.2280  0.7423
  578MOL0     H77992   9.678   9.883   8.639 -3.0305  0.1230 -0.9099
  578MOL0     H77993   9.916   9.859   8.676 -1.5607  1.7681 -1.2737
  578MOL0     H77994   9.972   9.826   8.996 -1.2319 -1.7181  0.7408
  578MOL0     H77995  10.038   9.690   9.063 -1.0717  1.7527  0.0962
  578MOL0     H77996  10.205   9.854   8.857  0.6613 -1.1259  0.0571
  578MOL0     H77997  10.205   9.899   9.016 -1.7588  0.2712 -0.9081
  578MOL0     H77998  10.345   9.705   9.073 -0.2240  0.3133  0.1362
  578MOL0     H77999  10.261   9.601   8.953 -0.1004 -0.0105  0.6244
  578MOL0     H78000  10.454   9.840   8.891  1.5629 -0.7640  1.1007
  578MOL0     H78001  10.383   9.728   8.774 -2.1314 -2.4637  0.8557
  578MOL0     H78002  10.599   9.650   8.804 -0.0285 -0.7404 -0.5413
  578MOL0     H78003  10.499   9.538   8.896 -0.4106 -0.2375  0.2551
  578MOL0     H78004  10.589   9.636   9.105  1.5750  1.8788  0.9991
  578MOL0     H78005  10.719   9.599   8.998 -1.0091 -3.4418  2.4972
  578MOL0     H78006  10.600   9.864   9.080 -1.9219  0.3809 -1.2144
  578MOL0     H78007  10.696   9.866   8.937 -0.2589  1.5639  0.8795
  578MOL0     H78008  10.886   9.734   9.087 -1.3747 -0.9265 -0.1506
  578MOL0     H78009  10.845   9.911   9.115 -0.6416  0.2435  3.3877
  578MOL0     H78010   9.829   9.531   8.957  0.2790 -0.6193  0.4217
  578MOL0     H78011   9.597   9.528   8.872 -0.7006  1.0456  0.4797
  578MOL0     H78012   9.347   9.567   8.309 -1.7009 -1.4014 -2.5172
  578MOL0     H78013   9.113   9.530   8.278  1.3147 -1.5677 -0.7444
  578MOL0     H78014   6.925   9.289   8.329 -3.6337 -3.1594 -0.5696
  578MOL0     H78015   6.756   9.167   8.431 -0.6079 -1.2871  1.8395
  578MOL0     H78016   6.817   8.728   8.928  0.6173  1.7060  1.4634
  578MOL0     H78017   6.652   8.641   9.041 -0.0088  0.2660  1.9799
  578MOL0     H78018   6.329   8.510   8.990  1.0311  0.5808  2.6137
  578MOL0     H78019   6.308   8.628   8.868 -0.5352 -2.0327 -0.3974
  578MOL0     H78020   6.143   8.602   9.120 -1.5326  0.4785  0.6869
  578MOL0     H78021   6.088   8.583   8.949 -2.2964  0.1921  1.9589
  578MOL0     H78022   6.143   8.842   8.935  0.3336 -2.1243 -0.5108
  578MOL0     H78023   6.186   8.826   9.105  0.7815  1.3328 -0.3525
  578MOL0     H78024   5.973   8.849   9.163 -5.5429  0.8086  0.3458
  578MOL0     H78025   5.963   8.918   8.999  1.3373  0.8976  1.0742
  578MOL0     H78026   5.700   8.583   8.982 -2.4788  1.8735  0.4135
  578MOL0     H78027   6.351   8.889   8.856  0.6270  2.0507 -1.0186
  578MOL0     H78028   6.534   9.109   8.707  1.6423  0.8042  0.0248
  578MOL0     H78029   6.519   8.986   8.590 -1.9821  1.0825 -0.0632
  578MOL0     H78030   6.384   9.000   8.686 -0.1033 -0.0374 -2.2707
  579MOL0     O78031   6.416   3.501   3.112  0.1652 -0.2799  0.0582
  579MOL0     C78032   6.506   3.585   3.129 -0.4029  0.6546 -0.1992
  579MOL0     O78033   6.501   3.690   3.226 -0.5070 -0.2354  0.9851
  579MOL0     C78034   6.374   3.714   3.268 -0.5754 -0.4754 -0.6503
  579MOL0     C78035   6.306   3.820   3.199 -0.5105  0.9412 -0.3290
  579MOL0     C78036   6.181   3.856   3.254 -0.0139 -0.3970  0.1405
  579MOL0     C78037   6.118   3.777   3.345  0.3647 -1.0470 -0.3147
  579MOL0     O78038   5.989   3.826   3.371 -0.7006  0.1447 -0.1150
  579MOL0     C78039   5.897   3.754   3.449  0.8173  0.1139 -0.3550
  579MOL0     C78040   5.900   3.803   3.593  0.5072  0.4646  0.5736
  579MOL0     C78041   5.887   3.953   3.607  0.2932 -0.1429  0.5396
  579MOL0     C78042   6.008   4.013   3.693  0.1194  0.6556  0.2016
  579MOL0     C78043   6.128   4.016   3.598 -0.2112  0.6433  0.3545
  579MOL0     C78044   6.233   4.096   3.670 -0.0965 -0.7627  0.1141
  579MOL0     C78045   6.359   4.108   3.594  0.1748 -0.3082  0.4218
  579MOL0     C78046   6.461   3.993   3.622  0.3174  0.3758 -0.1356
  579MOL0     N78047   6.551   3.969   3.505  0.1805 -0.2358 -0.4640
  579MOL0     C78048   6.647   3.873   3.515  0.5917 -0.3229 -0.7112
  579MOL0     C78049   6.743   3.913   3.426  0.4012 -0.2867  0.3339
  579MOL0     C78050   6.882   3.856   3.430 -0.1576  0.2191 -0.0619
  579MOL0     C78051   6.975   3.932   3.326  0.3451  0.4144 -0.7912
  579MOL0     C78052   7.112   3.862   3.323  0.1273 -0.7314  0.5143
  579MOL0     C78053   7.193   3.917   3.206 -0.8652  0.0207 -0.4541
  579MOL0     O78054   7.335   3.908   3.235  0.2027 -0.0538  0.3706
  579MOL0     C78055   7.421   3.935   3.135  0.3725 -0.1031 -0.2499
  579MOL0     C78056   7.561   3.929   3.159 -0.1555  0.5611 -0.3604
  579MOL0     C78057   7.660   3.952   3.058  0.0379 -0.7374  0.4423
  579MOL0     C78058   7.623   3.995   2.925  0.2023 -1.0605  0.0023
  579MOL0     C78059   7.716   4.033   2.818 -0.3178  0.3030 -0.4549
  579MOL0     O78060   7.857   4.020   2.849  0.4494 -0.1607  0.1124
  579MOL0     C78061   7.952   4.053   2.756 -0.0451  0.5856 -0.2124
  579MOL0     C78062   7.970   3.982   2.637 -0.9324  0.3554  0.3148
  579MOL0     C78063   8.067   4.017   2.536 -0.2415  0.0321  0.5024
  579MOL0     C78064   8.142   4.133   2.560 -0.0491 -0.1842  0.9933
  579MOL0     O78065   8.239   4.180   2.484 -0.0423  0.6995  0.9336
  579MOL0     C78066   8.288   4.108   2.362  0.6366 -0.8358  0.0871
  579MOL0     C78067   8.392   4.187   2.281  0.4422  0.3873 -0.5044
  579MOL0     C78068   8.525   4.212   2.346 -0.0276  0.1987 -0.0768
  579MOL0     C78069   8.635   4.253   2.253  0.6663 -0.1223  0.2432
  579MOL0     C78070   8.774   4.230   2.314  0.3193  1.4146  1.2507
  579MOL0     C78071   8.873   4.281   2.213  0.4238 -0.8994  0.5391
  579MOL0     C78072   9.018   4.287   2.267  0.3160  0.1520 -0.6872
  579MOL0     C78073   9.120   4.336   2.162  0.1889  0.2035 -0.0404
  579MOL0    Cl78074   9.279   4.340   2.230  0.2065  0.1228  0.3721
  579MOL0     C78075   8.124   4.199   2.683  0.6342  0.2355 -0.3445
  579MOL0     C78076   8.029   4.170   2.779  0.0014  0.0741  0.0554
  579MOL0     O78077   7.672   4.079   2.709  0.5920 -0.5406 -0.3964
  579MOL0     C78078   7.487   4.011   2.909 -0.8660 -0.2787  0.4620
  579MOL0     C78079   7.385   3.976   3.003 -0.0265  0.0578 -1.0128
  579MOL0     N78080   6.702   4.033   3.357 -0.0952  0.2345  0.3974
  579MOL0     N78081   6.585   4.058   3.407 -0.3276 -0.3714  0.2463
  579MOL0     C78082   6.183   3.666   3.407  0.2660  0.9343  0.9295
  579MOL0     C78083   6.314   3.645   3.369 -0.3505  0.0125 -0.7333
  579MOL0     C78084   6.634   3.555   3.070 -0.5296 -0.1034  0.4201
  579MOL0     C78085   6.741   3.628   3.123 -0.7804 -0.0259 -0.0491
  579MOL0     C78086   6.868   3.610   3.075 -0.2738 -0.4487  1.1064
  579MOL0     C78087   6.901   3.510   2.975  0.1314 -0.9806 -0.7912
  579MOL0     O78088   7.026   3.475   2.938 -0.3676  0.3799 -0.0408
  579MOL0     C78089   7.128   3.579   2.943  0.4572  0.3871  0.8725
  579MOL0     C78090   7.205   3.561   2.807  0.7719 -0.2403 -0.4197
  579MOL0     C78091   7.312   3.671   2.781 -0.2979  0.1343 -0.3206
  579MOL0     C78092   7.407   3.618   2.676 -0.2345 -0.9349  0.0105
  579MOL0     C78093   7.517   3.695   2.636 -1.8574 -1.1664 -0.6542
  579MOL0     C78094   7.623   3.741   2.586  0.1215 -0.4129  0.1581
  579MOL0     C78095   6.786   3.450   2.918 -0.4716  0.6659  0.1052
  579MOL0     C78096   6.661   3.466   2.957  1.4941 -0.1656 -0.6036
  579MOL0     C78097   6.547   3.394   2.880 -0.4013  0.3916  0.1964
  579MOL0     H78098   6.353   3.867   3.113 -0.9702 -0.1239 -1.1995
  579MOL0     H78099   6.118   3.934   3.211  2.5869  1.0436 -1.2874
  579MOL0     H78100   5.799   3.772   3.404  0.7847  3.3600  0.7558
  579MOL0     H78101   5.918   3.646   3.454  0.2534 -0.1046 -2.0163
  579MOL0     H78102   5.990   3.755   3.632  3.0653  1.3231 -3.6825
  579MOL0     H78103   5.813   3.760   3.643  1.0491  1.1160  2.1309
  579MOL0     H78104   5.795   3.984   3.656  0.1480 -0.4942  0.4952
  579MOL0     H78105   5.890   3.994   3.506 -0.7909 -1.5043 -0.0782
  579MOL0     H78106   5.975   4.111   3.730  0.2310  0.6972  0.1912
  579MOL0     H78107   6.029   3.938   3.769 -1.9064 -1.8359 -1.5169
  579MOL0     H78108   6.156   3.914   3.568 -0.8675 -0.0657  2.0012
  579MOL0     H78109   6.095   4.068   3.508 -0.2502  0.3312  0.1863
  579MOL0     H78110   6.189   4.195   3.685  2.4910  0.4845 -0.0819
  579MOL0     H78111   6.247   4.060   3.772  0.3603  0.1832  0.3985
  579MOL0     H78112   6.413   4.201   3.614  1.6206 -1.5676  2.7326
  579MOL0     H78113   6.329   4.108   3.488 -2.8240  0.8696  1.1649
  579MOL0     H78114   6.522   4.023   3.708 -0.7886 -0.2654  0.8890
  579MOL0     H78115   6.415   3.897   3.647  2.0384 -1.1328 -2.3521
  579MOL0     H78116   6.663   3.801   3.595 -1.2373 -2.3456 -2.0426
  579MOL0     H78117   6.928   3.868   3.529  2.0988  0.2727 -1.0662
  579MOL0     H78118   6.867   3.750   3.404 -0.7267  0.2137  0.2645
  579MOL0     H78119   6.932   3.926   3.226  0.5417 -1.2485 -0.8024
  579MOL0     H78120   6.997   4.030   3.371  1.5255 -0.7029  1.2078
  579MOL0     H78121   7.098   3.755   3.304  0.6402 -1.0093  1.6300
  579MOL0     H78122   7.153   3.880   3.423  0.8272 -1.7339  0.4174
  579MOL0     H78123   7.160   4.015   3.169  0.6357  0.8749  0.3674
  579MOL0     H78124   7.168   3.846   3.127  0.5306 -0.0306 -0.8812
  579MOL0     H78125   7.594   3.923   3.263  0.9641  2.7510 -0.5166
  579MOL0     H78126   7.765   3.946   3.084 -0.0886  1.3631  1.6491
  579MOL0     H78127   7.901   3.900   2.621 -1.6287  0.5649  2.0042
  579MOL0     H78128   8.083   3.951   2.451  0.2673  0.0309  0.5991
  579MOL0     H78129   8.324   4.011   2.395 -2.2208 -2.5576 -1.4424
  579MOL0     H78130   8.209   4.087   2.290  0.3277 -0.3694  0.2828
  579MOL0     H78131   8.401   4.131   2.187 -0.4242  2.6256 -2.0340
  579MOL0     H78132   8.345   4.283   2.257 -3.0295 -0.4662  2.1089
  579MOL0     H78133   8.516   4.298   2.414 -1.4130  0.8457 -1.0321
  579MOL0     H78134   8.552   4.125   2.408 -0.8581  0.0625  0.1058
  579MOL0     H78135   8.633   4.360   2.229  4.5064 -0.4315 -2.5329
  579MOL0     H78136   8.623   4.196   2.160 -0.4931  1.8035 -0.8663
  579MOL0     H78137   8.790   4.123   2.330  1.3981  1.5683  1.2553
  579MOL0     H78138   8.789   4.298   2.399 -0.1146  3.3322 -0.1619
  579MOL0     H78139   8.869   4.220   2.122  0.9669  1.6216 -1.2734
  579MOL0     H78140   8.831   4.376   2.178  0.2415 -1.7149 -1.6561
  579MOL0     H78141   9.047   4.194   2.317  1.3518  0.0468 -1.4619
  579MOL0     H78142   9.018   4.354   2.353 -2.7606  0.1912 -0.5870
  579MOL0     H78143   9.125   4.265   2.079  2.6993  0.7265 -0.4359
  579MOL0     H78144   9.102   4.431   2.110  0.3863  1.0354  1.3693
  579MOL0     H78145   8.194   4.277   2.708 -0.1454  0.9181 -0.2242
  579MOL0     H78146   8.014   4.226   2.870 -0.2717  0.4083 -0.1935
  579MOL0     H78147   7.447   4.040   2.813 -0.5568  0.9983  0.6953
  579MOL0     H78148   7.286   4.002   2.967  0.3806  0.7378 -1.6649
  579MOL0     H78149   6.142   3.597   3.479 -1.8949  1.3813  0.2205
  579MOL0     H78150   6.382   3.580   3.423  0.3678  2.4786  1.5423
  579MOL0     H78151   6.726   3.682   3.216 -1.1199  0.9663 -0.6615
  579MOL0     H78152   6.938   3.672   3.129  0.5346 -1.9331  1.8313
  579MOL0     H78153   7.196   3.567   3.028 -0.1293  0.1330  1.3169
  579MOL0     H78154   7.079   3.677   2.945 -2.2407 -0.8307 -0.2226
  579MOL0     H78155   7.141   3.546   2.719 -0.4299  0.0413  0.3820
  579MOL0     H78156   7.256   3.466   2.826 -0.7849 -1.2624 -1.0905
  579MOL0     H78157   7.362   3.696   2.875 -1.4933 -0.9103  0.6337
  579MOL0     H78158   7.265   3.765   2.749 -2.4445 -0.5313  0.6816
  579MOL0     H78159   7.444   3.520   2.704 -1.9021 -1.3395  0.9365
  579MOL0     H78160   7.346   3.604   2.586  0.4394  1.3493 -0.8824
  579MOL0     H78161   7.721   3.770   2.552  0.9253 -2.2942  0.7408
  579MOL0     H78162   6.794   3.382   2.833 -1.5315 -1.7360  1.8211
  579MOL0     H78163   6.483   3.336   2.947  0.7036  1.0813  1.9163
  579MOL0     H78164   6.490   3.463   2.817 -0.9577 -0.0414  0.2098
  579MOL0     H78165   6.599   3.314   2.825  0.8691  0.1623  1.6638
  580MOL0     O78166   2.887   5.166   1.709  0.2884  0.0489  0.5929
  580MOL0     C78167   2.941   5.081   1.768 -1.3865 -0.5181 -0.5075
  580MOL0     O78168   2.984   4.966   1.711  0.7616 -0.1087  0.3823
  580MOL0     C78169   3.006   4.962   1.575  0.4787  0.6908  0.5683
  580MOL0     C78170   3.109   5.030   1.507 -0.7753 -1.1637  0.4591
  580MOL0     C78171   3.127   5.021   1.369 -0.3777 -0.3317  0.5107
  580MOL0     C78172   3.065   4.922   1.297 -0.0248 -0.0847  0.6783
  580MOL0     O78173   3.103   4.896   1.163  0.5223  0.3748  0.1512
  580MOL0     C78174   3.033   4.795   1.092  0.7711  0.1504 -0.1785
  580MOL0     C78175   3.121   4.751   0.972  0.2061 -0.2960 -0.2476
  580MOL0     C78176   3.237   4.666   1.016  0.3840 -0.4378  0.8542
  580MOL0     C78177   3.374   4.708   0.957  0.2375  0.3100 -0.3712
  580MOL0     C78178   3.490   4.604   1.011 -0.8107 -1.4090  0.0691
  580MOL0     C78179   3.632   4.659   0.991  0.1039 -0.0034  0.3400
  580MOL0     C78180   3.737   4.570   1.072  0.1857 -0.4538  0.3318
  580MOL0     C78181   3.744   4.594   1.217 -0.4932  0.1121  0.6153
  580MOL0     N78182   3.752   4.741   1.249 -0.3025  0.5312  0.3959
  580MOL0     C78183   3.679   4.794   1.343 -0.8277  0.1995 -0.7620
  580MOL0     C78184   3.731   4.925   1.368  0.2892 -0.0050  0.8593
  580MOL0     C78185   3.676   5.018   1.458 -0.6314 -0.8833 -0.1670
  580MOL0     C78186   3.542   5.082   1.410 -0.5541  0.2892  0.5793
  580MOL0     C78187   3.518   5.215   1.470  0.0386  0.3883 -0.4886
  580MOL0     C78188   3.527   5.216   1.623 -0.0089 -1.0037  0.0890
  580MOL0     O78189   3.435   5.128   1.680 -0.0355  0.3348  0.5950
  580MOL0     C78190   3.452   5.090   1.808  0.2591  0.2139 -0.4022
  580MOL0     C78191   3.520   5.164   1.905 -0.3773  0.8126  1.0342
  580MOL0     C78192   3.538   5.112   2.036  0.2309  0.1933  0.9666
  580MOL0     C78193   3.487   4.988   2.068  0.0686 -0.4647 -0.1869
  580MOL0     C78194   3.520   4.931   2.199 -0.2230 -0.2475  0.3876
  580MOL0     O78195   3.615   4.999   2.276  0.4231  0.4980 -0.7331
  580MOL0     C78196   3.656   4.936   2.398 -0.2256  0.9380  0.0683
  580MOL0     C78197   3.611   4.984   2.518 -0.5212  0.1630 -0.1532
  580MOL0     C78198   3.650   4.918   2.644 -0.8278 -0.0181 -0.3276
  580MOL0     C78199   3.716   4.792   2.645 -0.4745  0.2974  0.2462
  580MOL0     O78200   3.737   4.742   2.772  0.4579  0.7659  0.5457
  580MOL0     C78201   3.803   4.618   2.785  0.1127  0.4581 -0.1306
  580MOL0     C78202   3.951   4.644   2.821  0.3027  0.3017  0.0937
  580MOL0     C78203   3.977   4.725   2.941  0.9712 -0.5964 -0.5103
  580MOL0     C78204   3.881   4.711   3.065 -0.4337  0.2473  0.9632
  580MOL0     C78205   3.921   4.804   3.178  0.1092 -0.1102 -0.8511
  580MOL0     C78206   3.821   4.818   3.287  1.1278  0.1304  0.6385
  580MOL0     C78207   3.692   4.906   3.269  0.2118 -0.4039 -0.3636
  580MOL0     C78208   3.726   5.056   3.270  0.4337  0.3766  1.4030
  580MOL0    Cl78209   3.797   5.105   3.427 -0.0276 -0.2995  0.5533
  580MOL0     C78210   3.758   4.745   2.516  0.8538  0.3198 -0.2581
  580MOL0     C78211   3.722   4.813   2.396 -0.4371 -0.0142 -0.1988
  580MOL0     O78212   3.462   4.831   2.231  0.4517  1.1420  0.3858
  580MOL0     C78213   3.406   4.933   1.985 -1.0351  0.6698  0.2958
  580MOL0     C78214   3.387   4.975   1.847  0.3660  0.1300 -0.4327
  580MOL0     N78215   3.841   4.939   1.292 -0.1760 -0.5021  0.1567
  580MOL0     N78216   3.859   4.824   1.222  0.3446 -0.9976  0.2888
  580MOL0     C78217   2.972   4.844   1.368 -0.7176 -0.2082 -0.0745
  580MOL0     C78218   2.938   4.861   1.498 -0.2114 -0.0152 -0.5421
  580MOL0     C78219   2.979   5.098   1.913 -0.7227 -0.3720  0.4835
  580MOL0     C78220   3.062   4.996   1.977  0.4502 -0.6568 -0.3803
  580MOL0     C78221   3.104   5.018   2.108 -0.8271  0.6238  0.4876
  580MOL0     C78222   3.076   5.119   2.187  0.1767 -0.4581 -0.8531
  580MOL0     O78223   3.109   5.132   2.318  0.3479  0.2107 -0.2594
  580MOL0     C78224   3.195   5.036   2.382  0.7325  0.0675 -0.2872
  580MOL0     C78225   3.237   5.093   2.526 -0.6842  0.1667  0.6233
  580MOL0     C78226   3.113   5.141   2.599  0.3188 -0.1380 -0.6965
  580MOL0     C78227   3.079   5.290   2.596 -0.3159 -0.3459 -0.2018
  580MOL0     C78228   3.195   5.371   2.642 -0.0264  0.3353 -0.1940
  580MOL0     C78229   3.284   5.457   2.666 -0.7145  0.0678 -0.7005
  580MOL0     C78230   2.998   5.218   2.131 -0.6511  0.1313 -0.7134
  580MOL0     C78231   2.948   5.210   1.996  0.3776  1.1856 -0.0707
  580MOL0     C78232   2.837   5.312   1.960  0.4774  0.5821  0.1834
  580MOL0     H78233   3.179   5.098   1.556 -1.2248 -0.9888  0.8633
  580MOL0     H78234   3.209   5.069   1.316 -0.1845  0.2692  1.3283
  580MOL0     H78235   3.013   4.709   1.158  0.0379  1.5405  1.4762
  580MOL0     H78236   2.939   4.827   1.046  0.8044  1.0568  0.3746
  580MOL0     H78237   3.155   4.840   0.918 -3.0554  0.2461 -1.6359
  580MOL0     H78238   3.062   4.700   0.895 -0.0184  0.6798 -0.7348
  580MOL0     H78239   3.222   4.566   0.974  1.1889 -0.1373 -0.1818
  580MOL0     H78240   3.247   4.653   1.124  0.5023 -1.2505  0.7537
  580MOL0     H78241   3.365   4.713   0.849 -0.5028  0.8860 -0.2875
  580MOL0     H78242   3.408   4.808   0.987  3.5937 -0.2023 -2.0585
  580MOL0     H78243   3.488   4.598   1.120  0.7684  2.0113  0.4283
  580MOL0     H78244   3.484   4.506   0.964 -1.6208 -1.0588 -0.5903
  580MOL0     H78245   3.656   4.639   0.886 -1.5564 -0.9383  0.1086
  580MOL0     H78246   3.643   4.764   1.021 -1.4085 -0.2434  1.8629
  580MOL0     H78247   3.829   4.579   1.013 -0.2094  3.0231  0.0177
  580MOL0     H78248   3.693   4.472   1.051 -0.1500 -0.9165  2.8576
  580MOL0     H78249   3.653   4.563   1.269 -1.2568  3.8383  1.7650
  580MOL0     H78250   3.829   4.533   1.248 -0.3643 -0.0196  0.0145
  580MOL0     H78251   3.585   4.754   1.381 -0.3428 -0.1848  0.0678
  580MOL0     H78252   3.652   4.975   1.555 -1.2074 -1.2432 -0.4648
  580MOL0     H78253   3.748   5.100   1.457 -3.1190  1.4567 -1.8740
  580MOL0     H78254   3.547   5.096   1.302  2.3735  0.7753  0.6944
  580MOL0     H78255   3.463   5.010   1.432 -1.3960  0.7762 -0.7362
  580MOL0     H78256   3.430   5.269   1.432  1.6474  2.7449 -1.0570
  580MOL0     H78257   3.603   5.275   1.439  1.8410 -1.4219  0.6690
  580MOL0     H78258   3.503   5.318   1.653 -2.6373 -1.1968 -1.1235
  580MOL0     H78259   3.631   5.192   1.649 -0.0978 -3.4154 -1.4636
  580MOL0     H78260   3.577   5.252   1.876  1.2570  0.0680  1.8598
  580MOL0     H78261   3.601   5.173   2.101  0.6450 -0.1379  0.8842
  580MOL0     H78262   3.551   5.073   2.522 -0.7256  0.0104  0.3035
  580MOL0     H78263   3.620   4.968   2.736 -1.8395  2.6002 -1.9859
  580MOL0     H78264   3.766   4.574   2.878 -1.6887  3.2676  0.6363
  580MOL0     H78265   3.781   4.544   2.709  0.3833  0.0120  0.2173
  580MOL0     H78266   3.987   4.541   2.825 -1.1960 -0.2299  0.8533
  580MOL0     H78267   4.002   4.703   2.744 -3.1963  2.1739 -1.0081
  580MOL0     H78268   4.079   4.705   2.973  0.1271  0.4025  3.2315
  580MOL0     H78269   3.975   4.830   2.913  0.4383 -0.6641 -0.7451
  580MOL0     H78270   3.877   4.605   3.090  0.9735  0.0770  0.5249
  580MOL0     H78271   3.780   4.733   3.030 -0.8839 -1.2806  1.2482
  580MOL0     H78272   3.958   4.900   3.142  1.1587 -0.3563 -0.4709
  580MOL0     H78273   4.010   4.755   3.219  0.1668  0.3257 -0.4494
  580MOL0     H78274   3.778   4.720   3.311 -1.5714  1.3175  1.0737
  580MOL0     H78275   3.881   4.841   3.375  0.1712  0.4078  1.2316
  580MOL0     H78276   3.631   4.888   3.358  0.0569 -1.7322 -0.7142
  580MOL0     H78277   3.630   4.883   3.181  0.0566  0.4034 -0.4753
  580MOL0     H78278   3.794   5.065   3.186 -0.9716 -0.2764  0.1479
  580MOL0     H78279   3.638   5.116   3.245  1.0425  2.2594  3.4625
  580MOL0     H78280   3.820   4.656   2.518 -0.0482 -0.3154  0.9421
  580MOL0     H78281   3.726   4.752   2.306 -1.0136 -1.3937  0.6912
  580MOL0     H78282   3.341   4.850   2.013 -1.0190  1.3420  2.5057
  580MOL0     H78283   3.340   4.923   1.764  0.6291  1.5798 -1.5312
  580MOL0     H78284   2.909   4.774   1.313 -0.0028 -1.8744  1.1529
  580MOL0     H78285   2.853   4.811   1.544 -1.4302  0.7948 -1.8449
  580MOL0     H78286   3.088   4.912   1.913 -0.6554 -2.4786  1.4453
  580MOL0     H78287   3.172   4.943   2.147  2.0120  1.3075 -2.6623
  580MOL0     H78288   3.287   5.029   2.322  0.5781  1.4120 -0.7190
  580MOL0     H78289   3.150   4.937   2.396  1.4273 -0.1643  0.3743
  580MOL0     H78290   3.306   5.175   2.504 -4.1376  3.3943  0.7224
  580MOL0     H78291   3.291   5.020   2.586 -1.2920 -0.8897 -0.0735
  580MOL0     H78292   3.128   5.113   2.704  1.6289 -0.3095 -0.9196
  580MOL0     H78293   3.027   5.090   2.555  1.7118 -4.0553  0.7336
  580MOL0     H78294   3.051   5.306   2.492  1.5825 -2.3309 -1.1028
  580MOL0     H78295   3.006   5.327   2.668  2.4395 -0.3547  2.8530
  580MOL0     H78296   3.365   5.523   2.689 -2.2355  1.7006  0.2254
  580MOL0     H78297   2.960   5.292   2.200  0.1338 -0.2068  0.0959
  580MOL0     H78298   2.741   5.263   1.942  0.2228  0.9826  0.4245
  580MOL0     H78299   2.814   5.388   2.035 -0.8362 -0.1896  0.5767
  580MOL0     H78300   2.864   5.358   1.864  2.7295  0.2669  0.5939
  581MOL0     O78301   6.277   7.133   9.969  0.0728 -0.4611 -0.0765
  581MOL0     C78302   6.293   7.029  10.030 -0.0608  0.1426  0.1181
  581MOL0     O78303   6.410   6.979  10.087  0.3420  0.0134 -0.5011
  581MOL0     C78304   6.522   7.058  10.068 -0.4805  1.2851  0.3654
  581MOL0     C78305   6.531   7.197  10.066 -0.0277 -0.2026 -1.1203
  581MOL0     C78306   6.653   7.269  10.045  0.5970 -0.4571  0.4643
  581MOL0     C78307   6.771   7.205  10.016 -0.4274 -0.2074  0.4331
  581MOL0     O78308   6.880   7.286   9.997 -0.1011 -0.1308  0.5387
  581MOL0     C78309   6.988   7.245   9.919 -0.2910 -0.5736  0.4401
  581MOL0     C78310   7.046   7.378   9.863  0.4969  0.1775 -0.7030
  581MOL0     C78311   7.189   7.366   9.812  0.1355  0.3475  0.6217
  581MOL0     C78312   7.245   7.505   9.769  0.4823  0.2539 -0.8218
  581MOL0     C78313   7.394   7.508   9.712  0.8281 -0.1379 -0.2185
  581MOL0     C78314   7.427   7.653   9.670  0.8413  0.3246  0.0777
  581MOL0     C78315   7.571   7.674   9.643 -0.3967 -0.3238 -0.9057
  581MOL0     C78316   7.639   7.580   9.548  0.5294  0.0265 -1.0187
  581MOL0     N78317   7.768   7.623   9.508 -0.6831  0.5111 -0.4880
  581MOL0     C78318   7.793   7.721   9.422  0.3033  0.1305  0.2045
  581MOL0     C78319   7.927   7.714   9.400 -0.1978 -0.1302 -0.1301
  581MOL0     C78320   7.988   7.798   9.299 -0.2468  0.7523 -0.6224
  581MOL0     C78321   8.073   7.905   9.359  0.4255 -0.0478  0.3337
  581MOL0     C78322   8.142   8.003   9.260 -0.0540  0.4388  0.1340
  581MOL0     C78323   8.223   8.099   9.345 -0.8408 -1.0202 -0.1316
  581MOL0     O78324   8.322   8.032   9.427  0.5245  0.0869 -0.3793
  581MOL0     C78325   8.443   8.015   9.372  0.4522 -0.8315  0.8256
  581MOL0     C78326   8.541   7.979   9.466 -0.2877  0.2286  0.2061
  581MOL0     C78327   8.676   7.959   9.430  0.2223 -0.3970  0.5742
  581MOL0     C78328   8.709   7.962   9.289  0.5568 -0.1741 -0.0387
  581MOL0     C78329   8.840   7.923   9.240  0.3612  1.2685 -0.6831
  581MOL0     O78330   8.882   7.963   9.118 -0.4796 -0.0589  0.1118
  581MOL0     C78331   9.014   7.940   9.090  0.0642  0.7218  0.2952
  581MOL0     C78332   9.127   8.010   9.152  0.4730  0.2021 -0.7495
  581MOL0     C78333   9.262   7.983   9.118  0.5276  0.2089  0.1045
  581MOL0     C78334   9.286   7.887   9.018  0.4047 -0.0737  0.2184
  581MOL0     O78335   9.407   7.851   8.972 -0.0247  0.1976  0.2320
  581MOL0     C78336   9.519   7.940   8.988 -0.2834  0.1738 -0.2960
  581MOL0     C78337   9.643   7.860   8.938 -0.1231  0.6898  0.2786
  581MOL0     C78338   9.686   7.743   9.035 -0.6159 -0.3230  1.1190
  581MOL0     C78339   9.745   7.780   9.166 -1.0172 -0.2499 -0.2353
  581MOL0     C78340   9.813   7.659   9.237 -0.7680  0.9960  0.0019
  581MOL0     C78341   9.704   7.560   9.277 -0.3896 -0.3665 -0.0445
  581MOL0     C78342   9.755   7.441   9.358 -0.5506 -0.0763 -0.2211
  581MOL0     C78343   9.845   7.353   9.278 -0.4756 -0.6196  0.0801
  581MOL0    Cl78344   9.927   7.259   9.409 -0.0483  0.1243 -0.1380
  581MOL0     C78345   9.183   7.813   8.960 -1.2937 -0.4604  0.0929
  581MOL0     C78346   9.048   7.838   8.996 -0.1313 -0.0245 -0.1441
  581MOL0     O78347   8.901   7.832   9.308  0.1311 -0.4370  0.8792
  581MOL0     C78348   8.613   8.004   9.201 -0.3219  0.7881 -0.1121
  581MOL0     C78349   8.482   8.024   9.238  0.2073 -0.3319  0.4973
  581MOL0     N78350   7.986   7.618   9.481  0.9154  0.2445 -0.4519
  581MOL0     N78351   7.884   7.552   9.531  0.4779  0.1529 -0.4318
  581MOL0     C78352   6.767   7.067  10.009  0.5161  0.1574 -0.2326
  581MOL0     C78353   6.652   6.995  10.048 -0.4496  0.3637 -0.6123
  581MOL0     C78354   6.176   6.943  10.026 -0.4185  0.1706 -0.3508
  581MOL0     C78355   6.123   6.896  10.150 -0.1264  0.1230  0.1687
  581MOL0     C78356   6.014   6.815  10.149 -0.2579 -0.0657 -0.7167
  581MOL0     C78357   5.954   6.759  10.034 -0.8534 -0.6180 -0.1694
  581MOL0     O78358   5.862   6.665  10.049  0.2809 -0.6492 -0.6140
  581MOL0     C78359   5.787   6.627   9.931  0.3672  0.0099  0.4702
  581MOL0     C78360   5.677   6.522   9.968 -0.5115 -1.2686 -0.4174
  581MOL0     C78361   5.649   6.437   9.845  0.0619  0.9787  0.3222
  581MOL0     C78362   5.519   6.355   9.859 -0.7551  0.0203  0.6255
  581MOL0     C78363   5.401   6.426   9.802 -0.5645  0.5607  0.8348
  581MOL0     C78364   5.292   6.473   9.780 -0.4147 -1.3738 -0.5585
  581MOL0     C78365   6.003   6.809   9.916  0.0743  0.3792  0.1976
  581MOL0     C78366   6.116   6.900   9.908  0.5492  0.2739 -0.6530
  581MOL0     C78367   6.188   6.918   9.777  0.0972 -0.6487  0.1967
  581MOL0     H78368   6.450   7.265  10.088 -0.0753  0.1461 -2.2758
  581MOL0     H78369   6.644   7.376  10.058 -1.3066 -0.9831  5.1404
  581MOL0     H78370   7.066   7.205   9.984  0.9014 -0.3302 -0.7893
  581MOL0     H78371   6.974   7.175   9.836 -2.8850  2.5524 -2.0205
  581MOL0     H78372   7.040   7.463   9.932  1.0145 -0.8790  0.6815
  581MOL0     H78373   6.979   7.408   9.782 -1.7305  1.7887  1.5818
  581MOL0     H78374   7.194   7.296   9.728  2.2817  1.1879  0.0005
  581MOL0     H78375   7.245   7.322   9.895 -0.0707 -1.8070 -0.3230
  581MOL0     H78376   7.187   7.549   9.687  0.4548 -0.8361 -1.4052
  581MOL0     H78377   7.249   7.567   9.859  2.0973 -1.2096  0.1694
  581MOL0     H78378   7.451   7.464   9.794 -1.5210 -1.6793  0.7157
  581MOL0     H78379   7.403   7.447   9.621 -0.3008  3.6698 -3.1459
  581MOL0     H78380   7.363   7.688   9.589 -0.7786 -1.4540  0.5123
  581MOL0     H78381   7.388   7.714   9.752  0.5466  1.5212 -0.9289
  581MOL0     H78382   7.618   7.664   9.742 -0.6641  1.0615 -0.6253
  581MOL0     H78383   7.584   7.778   9.612  2.6513  0.0074  1.0105
  581MOL0     H78384   7.652   7.486   9.601  0.1719 -0.0481 -1.0613
  581MOL0     H78385   7.588   7.552   9.455  1.3140 -3.2506 -0.5673
  581MOL0     H78386   7.710   7.782   9.388 -5.3734 -4.3005  4.2691
  581MOL0     H78387   8.047   7.734   9.233  0.9022  0.9422  0.1855
  581MOL0     H78388   7.922   7.862   9.240 -0.9785  2.0483  1.4576
  581MOL0     H78389   8.006   7.951   9.433  0.6320 -2.2336  1.9866
  581MOL0     H78390   8.160   7.859   9.407  1.5169  2.3948  0.8704
  581MOL0     H78391   8.062   8.051   9.203  0.7741 -1.4300 -2.8207
  581MOL0     H78392   8.208   7.947   9.193  1.3156  2.4946 -0.3659
  581MOL0     H78393   8.155   8.160   9.405 -0.8742  1.1557 -2.2396
  581MOL0     H78394   8.282   8.168   9.285  2.5864 -0.6461  3.2403
  581MOL0     H78395   8.512   7.982   9.571 -2.3760 -0.6426 -0.2849
  581MOL0     H78396   8.752   7.946   9.506 -0.1902 -0.3625  1.0003
  581MOL0     H78397   9.109   8.084   9.229  0.8538 -0.8413  0.3816
  581MOL0     H78398   9.346   8.034   9.164  1.9377 -1.2131 -0.7620
  581MOL0     H78399   9.500   8.026   8.923  0.6640  0.8000  0.2201
  581MOL0     H78400   9.536   7.966   9.093  0.3931  0.7356 -0.5408
  581MOL0     H78401   9.623   7.815   8.840 -1.6889  1.6762  0.0982
  581MOL0     H78402   9.727   7.930   8.934 -0.8093  1.5314  0.2178
  581MOL0     H78403   9.590   7.694   9.057 -0.9559  0.2038  0.8345
  581MOL0     H78404   9.756   7.677   8.984 -0.3668  2.9416 -3.2974
  581MOL0     H78405   9.672   7.837   9.225 -1.2661  0.6853 -1.4228
  581MOL0     H78406   9.833   7.842   9.149 -0.2107 -1.3370 -0.0855
  581MOL0     H78407   9.867   7.682   9.329 -0.1266  0.8901 -0.3450
  581MOL0     H78408   9.884   7.605   9.175  0.8067  0.8201  1.8688
  581MOL0     H78409   9.640   7.621   9.341 -1.1901  0.5896 -1.6892
  581MOL0     H78410   9.642   7.536   9.190 -0.4323  0.6359 -0.3124
  581MOL0     H78411   9.670   7.387   9.402 -0.1180  0.2240  1.0160
  581MOL0     H78412   9.815   7.467   9.445  1.3833 -1.3812 -1.0969
  581MOL0     H78413   9.799   7.292   9.200  0.3461  0.2873 -1.1465
  581MOL0     H78414   9.927   7.407   9.230  2.6235 -3.4859  1.7102
  581MOL0     H78415   9.206   7.734   8.890 -0.2209 -0.4222  0.3851
  581MOL0     H78416   8.968   7.774   8.961 -1.3088  1.1919  0.2143
  581MOL0     H78417   8.650   8.017   9.100  3.3709  1.5625  1.1932
  581MOL0     H78418   8.411   8.045   9.159 -1.0711  0.0255  1.6985
  581MOL0     H78419   6.856   7.014   9.977  2.1826 -0.3366  4.3408
  581MOL0     H78420   6.662   6.887  10.059  2.5724  0.7557  2.0348
  581MOL0     H78421   6.175   6.922  10.242  0.7334  0.4621 -0.4017
  581MOL0     H78422   5.982   6.782  10.247  1.8493 -0.2913 -0.0688
  581MOL0     H78423   5.855   6.581   9.858  0.9200 -0.1622  1.0780
  581MOL0     H78424   5.738   6.717   9.895  2.4351  1.7704  1.8087
  581MOL0     H78425   5.583   6.568  10.000  0.0405 -1.7669  2.0933
  581MOL0     H78426   5.706   6.455  10.049  1.5523 -2.5438 -2.1107
  581MOL0     H78427   5.728   6.365   9.824 -0.4923  0.7541 -1.1133
  581MOL0     H78428   5.645   6.492   9.751  3.1057 -0.0797 -0.5520
  581MOL0     H78429   5.526   6.258   9.809  1.7295  0.2214  0.4659
  581MOL0     H78430   5.488   6.340   9.963 -2.9577  1.7184  0.2959
  581MOL0     H78431   5.198   6.516   9.751 -1.4590 -2.1386  1.4476
  581MOL0     H78432   5.954   6.764   9.830 -0.2583  0.2118  0.4704
  581MOL0     H78433   6.153   6.844   9.704 -2.5524  0.0141  0.6960
  581MOL0     H78434   6.167   7.021   9.745  0.6018 -0.4045  0.6459
  581MOL0     H78435   6.296   6.909   9.788  0.2350  2.3799  3.0805
  582MOL0     O78436   1.388   2.384   2.790  0.0699 -0.0002  0.1630
  582MOL0     C78437   1.309   2.390   2.880  0.6228  0.0086  0.4124
  582MOL0     O78438   1.344   2.447   3.001  0.7468 -0.7137 -0.0249
  582MOL0     C78439   1.478   2.461   3.034 -0.6609 -0.6936  0.0973
  582MOL0     C78440   1.536   2.591   3.007 -0.2126  1.1294 -0.0949
  582MOL0     C78441   1.672   2.616   3.042 -0.1538 -0.9921 -0.0453
  582MOL0     C78442   1.756   2.515   3.089  0.3996  0.2335 -0.2016
  582MOL0     O78443   1.887   2.539   3.096 -0.4237 -0.1082  0.5535
  582MOL0     C78444   1.982   2.444   3.124  0.2739 -0.2424 -0.6569
  582MOL0     C78445   2.103   2.524   3.154 -1.0730 -1.2728 -0.3786
  582MOL0     C78446   2.244   2.459   3.130  0.2269 -0.4124 -0.0671
  582MOL0     C78447   2.364   2.554   3.155  0.1950  0.9232 -0.3635
  582MOL0     C78448   2.492   2.490   3.106  0.6534 -0.2616 -0.8868
  582MOL0     C78449   2.607   2.600   3.103  0.2741 -0.1942 -0.3870
  582MOL0     C78450   2.746   2.549   3.069  0.2325 -0.3091  0.6631
  582MOL0     C78451   2.750   2.495   2.925 -0.6133 -0.8735  0.2420
  582MOL0     N78452   2.890   2.484   2.874  0.1047  0.3228  0.5159
  582MOL0     C78453   2.980   2.392   2.924  0.8131  0.4574  0.1851
  582MOL0     C78454   3.099   2.420   2.861 -0.7517  1.6160 -0.2971
  582MOL0     C78455   3.229   2.349   2.889  0.5807 -0.9086  0.6324
  582MOL0     C78456   3.266   2.350   3.042 -0.3712 -0.1962 -0.0246
  582MOL0     C78457   3.329   2.492   3.082  0.2776 -0.4045 -0.6253
  582MOL0     C78458   3.391   2.489   3.227  0.3476 -0.1631  0.1344
  582MOL0     O78459   3.491   2.386   3.235  0.1707  0.2807  0.4027
  582MOL0     C78460   3.618   2.404   3.178  0.4343 -0.0858 -0.4616
  582MOL0     C78461   3.713   2.301   3.199  0.5262 -0.3341  0.0824
  582MOL0     C78462   3.842   2.314   3.162  0.6642  0.6478  0.4961
  582MOL0     C78463   3.894   2.427   3.100  0.8478  0.4565  0.4038
  582MOL0     C78464   4.038   2.444   3.079 -0.4048 -0.9246  0.8306
  582MOL0     O78465   4.118   2.348   3.132 -0.6265  0.1967 -0.0406
  582MOL0     C78466   4.252   2.333   3.100 -0.1825 -0.2996 -0.0693
  582MOL0     C78467   4.297   2.332   2.973  0.4190  0.5557 -0.4075
  582MOL0     C78468   4.428   2.300   2.942 -0.7017 -0.0771  0.8622
  582MOL0     C78469   4.519   2.275   3.047  0.1406  0.2770 -0.3979
  582MOL0     O78470   4.655   2.249   3.020 -0.1099 -0.1261 -0.1367
  582MOL0     C78471   4.688   2.194   2.900  0.4445 -0.0301  1.1887
  582MOL0     C78472   4.815   2.114   2.907  0.4026 -0.1668 -0.7094
  582MOL0     C78473   4.937   2.219   2.890 -0.6885  0.1791 -0.4529
  582MOL0     C78474   5.001   2.215   2.748 -0.7191  0.1771 -0.1654
  582MOL0     C78475   5.151   2.159   2.762  1.0175 -0.1290 -0.5550
  582MOL0     C78476   5.236   2.234   2.864  0.1106  0.3295  0.9838
  582MOL0     C78477   5.386   2.206   2.828 -0.0574  0.9888  0.1313
  582MOL0     C78478   5.478   2.261   2.939 -0.1808 -0.2341 -0.5637
  582MOL0    Cl78479   5.655   2.270   2.907 -0.1874  0.0158  0.4082
  582MOL0     C78480   4.476   2.273   3.180 -0.4085 -0.4485  0.0458
  582MOL0     C78481   4.338   2.301   3.205 -0.3991  0.2299 -0.5162
  582MOL0     O78482   4.080   2.529   3.001  0.3823 -0.9077 -0.5123
  582MOL0     C78483   3.809   2.533   3.084 -0.8763 -0.3937 -0.6676
  582MOL0     C78484   3.670   2.525   3.122 -0.4065  0.0062  0.7358
  582MOL0     N78485   3.078   2.530   2.785 -0.4310 -0.2727 -0.4220
  582MOL0     N78486   2.956   2.564   2.791 -0.6467  0.1086  0.4189
  582MOL0     C78487   1.699   2.394   3.110 -0.3370 -0.3335  0.4154
  582MOL0     C78488   1.561   2.369   3.083 -0.6437  0.2420  0.4584
  582MOL0     C78489   1.181   2.321   2.868  0.6519 -0.0173  0.0891
  582MOL0     C78490   1.143   2.260   2.744 -0.2848  0.7028  0.1559
  582MOL0     C78491   1.026   2.185   2.738 -0.2863  0.3305  0.1545
  582MOL0     C78492   0.934   2.178   2.849 -0.3485  0.6347 -0.6940
  582MOL0     O78493   0.818   2.113   2.860 -0.4286  0.2366  0.0191
  582MOL0     C78494   0.694   2.135   2.775 -0.8269 -0.1641  0.3533
  582MOL0     C78495   0.661   2.003   2.706  0.6111  0.6475 -0.0957
  582MOL0     C78496   0.536   2.009   2.622  0.1052 -0.2362 -0.6102
  582MOL0     C78497   0.403   1.992   2.696  0.4993  0.2614 -1.0688
  582MOL0     C78498   0.343   2.118   2.747 -0.4161  0.3873 -0.4823
  582MOL0     C78499   0.298   2.227   2.775 -0.1544 -0.3806 -0.3773
  582MOL0     C78500   0.970   2.248   2.958  0.3327 -0.2333 -0.0577
  582MOL0     C78501   1.086   2.313   2.973  0.4583 -0.1208  0.2186
  582MOL0     C78502   1.106   2.369   3.115  0.2572  0.4112  0.1893
  582MOL0     H78503   1.475   2.668   2.962 -1.4085  0.5710  0.4971
  582MOL0     H78504   1.697   2.716   3.008 -0.4814 -0.6057  0.7907
  582MOL0     H78505   1.968   2.388   3.217 -0.2917 -2.4781 -2.0138
  582MOL0     H78506   1.977   2.374   3.040 -1.1151 -0.1738 -0.6636
  582MOL0     H78507   2.097   2.570   3.254 -0.8580  1.0174 -1.3530
  582MOL0     H78508   2.106   2.607   3.083 -0.2403  1.6199  2.7510
  582MOL0     H78509   2.249   2.427   3.025  1.6054  0.1794 -0.2093
  582MOL0     H78510   2.252   2.378   3.203  1.6888  0.3499  0.6550
  582MOL0     H78511   2.339   2.645   3.099 -2.7562  0.8261  0.6132
  582MOL0     H78512   2.373   2.585   3.259  3.6154  0.5045 -0.4115
  582MOL0     H78513   2.520   2.414   3.178  1.6941  3.3803  2.9721
  582MOL0     H78514   2.487   2.444   3.007 -1.2603  0.0563 -0.9905
  582MOL0     H78515   2.571   2.670   3.027 -0.4120 -0.2272 -0.0946
  582MOL0     H78516   2.612   2.660   3.194 -2.3608  1.7469 -1.4145
  582MOL0     H78517   2.783   2.474   3.140  0.2552  0.1292  1.1205
  582MOL0     H78518   2.810   2.638   3.075 -0.8481  0.6141 -0.8478
  582MOL0     H78519   2.706   2.395   2.920  0.2182 -1.4747  3.1596
  582MOL0     H78520   2.697   2.568   2.862 -0.0478 -0.3814  0.3312
  582MOL0     H78521   2.963   2.322   3.006  0.6944  1.3922  0.9707
  582MOL0     H78522   3.229   2.245   2.856  1.1747 -1.6300  2.7438
  582MOL0     H78523   3.312   2.392   2.832  2.1339 -1.5047  2.3509
  582MOL0     H78524   3.187   2.307   3.104 -0.9518 -2.7721 -2.3710
  582MOL0     H78525   3.349   2.281   3.062  1.3381  1.8229  0.2142
  582MOL0     H78526   3.246   2.562   3.071  1.8592  1.6803  0.1996
  582MOL0     H78527   3.403   2.508   3.004  0.4838 -2.5094 -0.9332
  582MOL0     H78528   3.311   2.468   3.299 -2.5287  0.5455 -2.6586
  582MOL0     H78529   3.421   2.589   3.262 -0.2459  0.9709 -2.3885
  582MOL0     H78530   3.688   2.218   3.264  1.8825  1.4830  3.1306
  582MOL0     H78531   3.911   2.234   3.186  2.5787  2.3081  0.8090
  582MOL0     H78532   4.233   2.359   2.890  1.9082  4.5127 -0.4853
  582MOL0     H78533   4.467   2.301   2.840 -0.8057 -1.2418  0.7957
  582MOL0     H78534   4.617   2.116   2.869  1.4705 -0.7290  0.5129
  582MOL0     H78535   4.683   2.268   2.820  0.8888  0.8358  1.9514
  582MOL0     H78536   4.820   2.068   3.006 -1.6423  3.3999  1.2658
  582MOL0     H78537   4.813   2.037   2.829 -1.0763  0.8537 -1.7356
  582MOL0     H78538   4.907   2.321   2.916 -0.0556  0.6318 -1.4393
  582MOL0     H78539   5.008   2.193   2.969  0.9049 -2.7831 -2.6850
  582MOL0     H78540   4.987   2.315   2.707 -2.4011  0.6710  1.4772
  582MOL0     H78541   4.935   2.149   2.691  1.0713 -2.0988  0.2130
  582MOL0     H78542   5.191   2.185   2.664  1.4202  1.5283  0.0170
  582MOL0     H78543   5.148   2.051   2.780  1.7095  0.0250  0.5309
  582MOL0     H78544   5.210   2.340   2.864 -0.2133  0.2551  1.8297
  582MOL0     H78545   5.214   2.191   2.962  0.2879 -0.0761  0.8452
  582MOL0     H78546   5.405   2.247   2.728 -4.1075  1.5260 -0.5927
  582MOL0     H78547   5.386   2.097   2.832 -4.4036  0.8345  4.1037
  582MOL0     H78548   5.447   2.360   2.975 -0.8886 -1.5165  2.7909
  582MOL0     H78549   5.472   2.201   3.031  4.1398  1.5629  1.1672
  582MOL0     H78550   4.554   2.259   3.254  1.4935 -3.3887 -2.2306
  582MOL0     H78551   4.290   2.295   3.302 -3.8333 -0.5510 -2.1238
  582MOL0     H78552   3.850   2.625   3.043 -2.3196  1.8913  2.6206
  582MOL0     H78553   3.605   2.611   3.126  1.9510  1.8748  1.3692
  582MOL0     H78554   1.757   2.316   3.160  0.6976  0.5375  0.6138
  582MOL0     H78555   1.509   2.274   3.093  2.1056 -1.5017 -0.6878
  582MOL0     H78556   1.185   2.274   2.645 -1.8263  3.2842 -0.2269
  582MOL0     H78557   1.000   2.128   2.650 -0.7595  0.3572  0.2711
  582MOL0     H78558   0.709   2.206   2.693  1.6823  1.3143  1.9662
  582MOL0     H78559   0.606   2.164   2.831 -2.1104  0.7149 -1.9880
  582MOL0     H78560   0.645   1.921   2.776  1.5296  0.3184 -0.2618
  582MOL0     H78561   0.744   1.983   2.637 -1.4065 -1.5504 -2.0602
  582MOL0     H78562   0.543   1.922   2.556  1.1404 -0.8912  0.3444
  582MOL0     H78563   0.543   2.106   2.572  0.9629  0.6573  1.1736
  582MOL0     H78564   0.334   1.945   2.625 -0.2853 -1.3873  0.6963
  582MOL0     H78565   0.410   1.923   2.780 -0.0844 -0.1049 -1.3139
  582MOL0     H78566   0.272   2.323   2.813 -1.4425 -0.9393  0.2164
  582MOL0     H78567   0.911   2.243   3.049  0.3512 -1.8471 -0.1043
  582MOL0     H78568   1.030   2.334   3.186  0.3076 -2.6399 -1.1340
  582MOL0     H78569   1.195   2.315   3.148 -0.3335  0.1966  1.4756
  582MOL0     H78570   1.121   2.477   3.124  3.0088  0.4195 -2.6315
  583MOL0     O78571   6.682   7.244   5.058  0.5478 -0.1716 -0.7819
  583MOL0     C78572   6.627   7.146   5.006 -1.1196 -0.3130  0.1542
  583MOL0     O78573   6.655   7.102   4.880  0.8355 -0.8070 -0.6634
  583MOL0     C78574   6.742   7.174   4.814 -0.6008 -0.4412 -0.5199
  583MOL0     C78575   6.885   7.181   4.827 -0.4697 -0.9101  0.3451
  583MOL0     C78576   6.962   7.261   4.741 -0.1799 -0.0396  0.2354
  583MOL0     C78577   6.899   7.330   4.636 -0.5993  0.0568 -1.3227
  583MOL0     O78578   6.966   7.414   4.543 -0.1920  0.8982  0.0345
  583MOL0     C78579   7.105   7.427   4.563 -0.2066  0.3820 -0.4677
  583MOL0     C78580   7.163   7.497   4.447 -0.3721 -0.3423  0.7158
  583MOL0     C78581   7.313   7.514   4.449 -1.0127  0.5431 -0.5597
  583MOL0     C78582   7.385   7.380   4.468 -0.6213  0.3310  0.2240
  583MOL0     C78583   7.528   7.366   4.416  0.4656 -0.3272  0.4525
  583MOL0     C78584   7.553   7.393   4.267 -0.4079  0.2821 -0.5873
  583MOL0     C78585   7.465   7.305   4.185  0.6723  0.5112 -0.1841
  583MOL0     C78586   7.524   7.275   4.048  0.7095 -0.1908 -0.6419
  583MOL0     N78587   7.503   7.371   3.936 -0.4940 -0.7859  0.1942
  583MOL0     C78588   7.614   7.425   3.868  0.7309 -0.0039 -0.6582
  583MOL0     C78589   7.547   7.501   3.774 -0.2593 -0.0591  0.1233
  583MOL0     C78590   7.627   7.554   3.659 -0.2331  0.1074 -0.4182
  583MOL0     C78591   7.665   7.705   3.678 -0.4992 -0.0461  0.9078
  583MOL0     C78592   7.779   7.729   3.780 -0.4190 -0.2730  0.2324
  583MOL0     C78593   7.927   7.723   3.741 -1.1381 -0.6128  0.4678
  583MOL0     O78594   7.959   7.585   3.721 -0.2826  0.2191 -0.3859
  583MOL0     C78595   8.077   7.560   3.659  0.1317  0.1538 -0.6972
  583MOL0     C78596   8.198   7.542   3.727 -0.7159 -0.0048  1.0214
  583MOL0     C78597   8.317   7.521   3.647 -0.4972  0.8501 -0.0473
  583MOL0     C78598   8.308   7.500   3.509  0.0082  0.1451  0.7486
  583MOL0     C78599   8.429   7.464   3.435  0.1233 -0.1065 -0.5933
  583MOL0     O78600   8.551   7.499   3.493  0.5872  0.1666  0.4522
  583MOL0     C78601   8.670   7.489   3.419  0.0138 -0.5320 -0.3352
  583MOL0     C78602   8.694   7.453   3.288 -0.4960 -0.1422  0.7480
  583MOL0     C78603   8.817   7.443   3.238 -0.3792  0.0042  0.8226
  583MOL0     C78604   8.929   7.487   3.309  0.4234  0.1439 -0.9046
  583MOL0     O78605   9.061   7.482   3.269 -0.8557 -0.0736  0.3062
  583MOL0     C78606   9.085   7.447   3.135 -0.5926  0.0980 -0.2715
  583MOL0     C78607   9.233   7.460   3.107 -0.6234 -0.7816  0.2982
  583MOL0     C78608   9.333   7.360   3.186  0.3419  0.9501  0.1343
  583MOL0     C78609   9.380   7.406   3.330  0.3540  0.6069 -0.0892
  583MOL0     C78610   9.496   7.318   3.383 -0.3501 -0.8223 -0.3077
  583MOL0     C78611   9.461   7.193   3.461 -0.0538  0.3901  0.0001
  583MOL0     C78612   9.582   7.127   3.526  0.8430  1.0290  0.0336
  583MOL0     C78613   9.528   7.013   3.616  0.3429 -0.2999 -0.1210
  583MOL0    Cl78614   9.466   7.085   3.768 -0.0153  0.1646  0.0384
  583MOL0     C78615   8.907   7.517   3.444  0.6513 -0.5930 -0.1393
  583MOL0     C78616   8.777   7.522   3.498  0.2099 -0.6297 -0.6657
  583MOL0     O78617   8.424   7.398   3.337  0.6517  0.2419  0.4067
  583MOL0     C78618   8.183   7.505   3.449  0.1079 -0.0227 -0.7333
  583MOL0     C78619   8.063   7.540   3.520 -0.4482 -0.0389 -0.3213
  583MOL0     N78620   7.412   7.508   3.802  0.0989  0.3879 -0.0872
  583MOL0     N78621   7.387   7.428   3.893 -0.1492  1.1590 -0.8862
  583MOL0     C78622   6.762   7.322   4.618 -0.3225  0.4864  0.1582
  583MOL0     C78623   6.692   7.240   4.703  0.5666 -0.1209 -0.7001
  583MOL0     C78624   6.530   7.077   5.084 -0.7800 -0.6133  0.3419
  583MOL0     C78625   6.446   6.988   5.008 -0.0314  0.0701 -0.0064
  583MOL0     C78626   6.338   6.920   5.060 -0.9961 -0.4955  0.0732
  583MOL0     C78627   6.305   6.939   5.192  0.5806 -0.4910  0.2547
  583MOL0     O78628   6.202   6.875   5.243 -0.3829 -0.7297  0.1932
  583MOL0     C78629   6.169   6.739   5.219 -0.4130  0.6960  0.4439
  583MOL0     C78630   6.077   6.706   5.343 -0.2083  0.6363  0.4008
  583MOL0     C78631   5.950   6.628   5.301 -0.2373  0.1343  1.0690
  583MOL0     C78632   5.875   6.579   5.429 -0.2234 -0.4542  0.6075
  583MOL0     C78633   5.790   6.685   5.489 -0.6447  0.1901  0.1704
  583MOL0     C78634   5.720   6.773   5.530 -0.4577 -0.5529 -1.3627
  583MOL0     C78635   6.396   7.005   5.274 -0.2297  0.7860 -0.1149
  583MOL0     C78636   6.506   7.080   5.224 -0.3406 -0.2056  0.1595
  583MOL0     C78637   6.596   7.163   5.310  0.4252 -0.2024 -0.5654
  583MOL0     H78638   6.930   7.133   4.913 -0.1148 -0.3232  0.4911
  583MOL0     H78639   7.069   7.272   4.751  0.1355  1.3292 -3.2137
  583MOL0     H78640   7.126   7.485   4.653 -1.6725 -2.0336  1.5538
  583MOL0     H78641   7.144   7.325   4.565 -1.6702 -0.2410  2.2919
  583MOL0     H78642   7.116   7.595   4.431  1.0172  0.7321  2.7788
  583MOL0     H78643   7.148   7.451   4.349 -1.1136  2.1270 -0.4146
  583MOL0     H78644   7.329   7.576   4.538 -3.6023  2.2438 -1.1857
  583MOL0     H78645   7.346   7.575   4.364 -3.3833  3.9232  0.7314
  583MOL0     H78646   7.394   7.356   4.574  1.8813  1.2223  0.2837
  583MOL0     H78647   7.327   7.300   4.423 -2.2263  0.0120  2.6637
  583MOL0     H78648   7.582   7.445   4.470 -1.7177  1.2430  0.4840
  583MOL0     H78649   7.572   7.269   4.439  0.1442 -0.3182  1.1608
  583MOL0     H78650   7.534   7.500   4.254 -3.8983  0.3777  3.2761
  583MOL0     H78651   7.656   7.372   4.236 -0.2387 -2.1595  1.3510
  583MOL0     H78652   7.370   7.355   4.162 -0.5393 -1.6289 -0.1160
  583MOL0     H78653   7.433   7.215   4.239  3.6558 -1.4482 -1.3939
  583MOL0     H78654   7.627   7.244   4.069  0.6012  0.6704  1.3518
  583MOL0     H78655   7.484   7.182   4.007  1.4771 -1.1274  0.6551
  583MOL0     H78656   7.721   7.404   3.875  0.1397 -3.0962  1.2626
  583MOL0     H78657   7.713   7.488   3.646  0.9565  1.4671  0.2419
  583MOL0     H78658   7.566   7.536   3.571  0.1310 -3.9030 -0.0555
  583MOL0     H78659   7.701   7.737   3.579 -3.1737 -3.0177 -1.2446
  583MOL0     H78660   7.576   7.761   3.707  1.3907  2.7490  1.7052
  583MOL0     H78661   7.762   7.675   3.874 -1.0389  0.6402  0.6549
  583MOL0     H78662   7.759   7.832   3.811 -0.4647 -1.1136  3.3585
  583MOL0     H78663   7.982   7.763   3.827 -1.3755 -2.1318  1.3543
  583MOL0     H78664   7.953   7.782   3.652 -0.4833 -1.7847 -0.1341
  583MOL0     H78665   8.198   7.561   3.834  1.5121  1.9547  0.7301
  583MOL0     H78666   8.416   7.504   3.688 -0.8063 -1.8824 -0.2458
  583MOL0     H78667   8.623   7.406   3.222  0.0676 -0.7173  0.5407
  583MOL0     H78668   8.819   7.409   3.135 -3.3070 -0.9186  0.9623
  583MOL0     H78669   9.045   7.346   3.119  0.6372 -0.5336  0.5189
  583MOL0     H78670   9.024   7.503   3.063 -2.7030 -0.3966  1.0461
  583MOL0     H78671   9.240   7.448   2.998  0.2321  2.9601 -0.2097
  583MOL0     H78672   9.258   7.562   3.138  0.7731 -1.4896  1.6264
  583MOL0     H78673   9.295   7.261   3.212  4.2295 -1.2579 -1.5835
  583MOL0     H78674   9.417   7.333   3.121 -1.1277 -4.1036 -0.0555
  583MOL0     H78675   9.297   7.415   3.401  0.1687  0.3923 -0.2740
  583MOL0     H78676   9.418   7.508   3.325 -1.4327  1.2540 -2.0382
  583MOL0     H78677   9.550   7.385   3.451 -1.1977 -0.2495 -0.1929
  583MOL0     H78678   9.566   7.306   3.300  0.0805  2.5075 -0.5370
  583MOL0     H78679   9.384   7.221   3.532 -1.9367 -0.4125 -1.6224
  583MOL0     H78680   9.421   7.116   3.394 -1.4438  0.8760  0.2442
  583MOL0     H78681   9.653   7.187   3.583  1.8294 -0.6258  0.6190
  583MOL0     H78682   9.632   7.090   3.436 -2.8019 -0.7445 -1.4514
  583MOL0     H78683   9.455   6.955   3.559  2.9164 -1.4031 -2.5569
  583MOL0     H78684   9.612   6.952   3.649 -1.0508 -1.5838  1.2057
  583MOL0     H78685   8.986   7.535   3.515  1.1574 -0.4406 -0.7334
  583MOL0     H78686   8.756   7.551   3.600  3.0852  0.7194 -0.3575
  583MOL0     H78687   8.175   7.477   3.345  1.8501  0.3730 -1.0085
  583MOL0     H78688   7.963   7.551   3.479 -1.5520  0.0789  2.2151
  583MOL0     H78689   6.718   7.373   4.533 -0.4337  0.8058  0.4047
  583MOL0     H78690   6.586   7.227   4.682 -0.3022 -0.3282  3.1250
  583MOL0     H78691   6.457   6.984   4.900  0.9405  1.3739  0.0195
  583MOL0     H78692   6.284   6.855   4.994 -0.4451  0.7412 -1.6740
  583MOL0     H78693   6.250   6.665   5.219 -1.5306 -0.5874 -0.9249
  583MOL0     H78694   6.111   6.730   5.127 -1.3947  0.6790  1.0553
  583MOL0     H78695   6.049   6.795   5.400 -0.4539  1.1256 -0.4685
  583MOL0     H78696   6.146   6.641   5.398  4.1156  4.1845 -0.2944
  583MOL0     H78697   5.984   6.547   5.236  0.6893 -0.0767  1.7822
  583MOL0     H78698   5.882   6.690   5.243  2.3668  2.2957  0.1214
  583MOL0     H78699   5.813   6.496   5.396  0.3243 -0.7428  0.2835
  583MOL0     H78700   5.940   6.543   5.510  1.0568  2.2442  0.8947
  583MOL0     H78701   5.673   6.860   5.570  0.8173 -0.1153 -0.7482
  583MOL0     H78702   6.385   7.019   5.381  1.2410  1.1989  0.0008
  583MOL0     H78703   6.698   7.128   5.291  0.4817 -0.7729  0.6646
  583MOL0     H78704   6.576   7.267   5.284 -0.8335 -0.4228 -0.5217
  583MOL0     H78705   6.561   7.151   5.413 -1.7773  0.3106 -1.2042
  584MOL0     O78706   7.880   3.270   2.821  1.2331 -0.5169 -0.9921
  584MOL0     C78707   7.919   3.157   2.840 -0.1540 -0.5619 -1.0145
  584MOL0     O78708   8.055   3.124   2.834 -0.0537  1.0446 -0.0314
  584MOL0     C78709   8.146   3.214   2.844 -0.1684 -0.2207  0.3186
  584MOL0     C78710   8.184   3.249   2.969 -0.7247  0.0221 -0.4965
  584MOL0     C78711   8.283   3.347   2.990  0.2734 -0.5026 -0.2292
  584MOL0     C78712   8.334   3.423   2.886  0.1749  0.4417 -0.0587
  584MOL0     O78713   8.442   3.502   2.915  0.0910  0.3468 -0.8571
  584MOL0     C78714   8.457   3.623   2.841  1.0504 -0.4869 -0.2989
  584MOL0     C78715   8.584   3.621   2.750  0.0952  0.7912  0.6201
  584MOL0     C78716   8.715   3.636   2.834  0.6572 -0.2615 -0.1829
  584MOL0     C78717   8.839   3.595   2.762  0.1236  0.1865 -0.0803
  584MOL0     C78718   8.964   3.608   2.854 -0.1971  1.4918  0.5918
  584MOL0     C78719   8.999   3.516   2.970  0.7664 -0.6305  0.2769
  584MOL0     C78720   9.116   3.579   3.037 -0.5869 -0.7202 -0.1676
  584MOL0     C78721   9.145   3.508   3.168  0.0234  0.3705  0.0488
  584MOL0     N78722   9.270   3.430   3.154 -0.7562  0.1744  0.1167
  584MOL0     C78723   9.303   3.327   3.063  0.3205  0.3374 -0.1680
  584MOL0     C78724   9.422   3.284   3.112  0.4058  0.0926  0.2282
  584MOL0     C78725   9.520   3.196   3.039  0.2603  0.4107  0.0951
  584MOL0     C78726   9.607   3.121   3.139 -0.0477  1.1258 -0.3658
  584MOL0     C78727   9.708   3.029   3.062  0.2883  0.8402  1.7661
  584MOL0     C78728   9.829   2.989   3.136  0.2702  0.0669 -0.0545
  584MOL0     O78729   9.807   2.860   3.197  0.2179 -0.3671  0.3013
  584MOL0     C78730   9.912   2.784   3.237 -0.2053  0.8185  0.4681
  584MOL0     C78731   9.881   2.653   3.270 -0.4008 -0.1803  0.6093
  584MOL0     C78732   9.978   2.566   3.325 -0.8895 -0.0210  0.5286
  584MOL0     C78733  10.114   2.616   3.324 -0.1018 -0.6286 -1.1794
  584MOL0     C78734  10.226   2.541   3.372 -0.2376  0.6696  0.1196
  584MOL0     O78735  10.348   2.602   3.382 -0.1796 -0.4150  0.0895
  584MOL0     C78736  10.460   2.532   3.424 -0.7037  0.5873  0.0439
  584MOL0     C78737  10.492   2.395   3.410 -0.0701  0.7435 -0.9127
  584MOL0     C78738  10.611   2.344   3.451  0.4639  0.8226 -0.1704
  584MOL0     C78739  10.717   2.423   3.498 -0.8521 -0.5231 -0.0901
  584MOL0     O78740  10.848   2.387   3.522  0.5384  0.2717 -0.0592
  584MOL0     C78741  10.924   2.365   3.403  0.5317 -0.2095 -0.3170
  584MOL0     C78742  11.068   2.358   3.448 -0.2413 -0.6594 -0.6174
  584MOL0     C78743  11.178   2.361   3.341 -1.1207  0.1311 -0.3123
  584MOL0     C78744  11.223   2.504   3.319 -0.0395 -0.3307 -0.2173
  584MOL0     C78745  11.350   2.526   3.240  0.0391 -0.1109  0.4668
  584MOL0     C78746  11.469   2.460   3.282  0.2993 -0.1982 -0.5497
  584MOL0     C78747  11.497   2.315   3.226 -0.6621 -0.0426 -0.1735
  584MOL0     C78748  11.582   2.254   3.321 -0.6218  0.1127 -0.4396
  584MOL0    Cl78749  11.736   2.348   3.341 -0.1413  0.3906 -0.1995
  584MOL0     C78750  10.692   2.563   3.515 -0.3076  0.1782  0.4761
  584MOL0     C78751  10.556   2.609   3.492 -1.0894 -0.2314  0.5691
  584MOL0     O78752  10.204   2.423   3.396 -0.0788  0.3694 -0.6433
  584MOL0     C78753  10.146   2.738   3.274 -0.1397 -0.2915 -0.5067
  584MOL0     C78754  10.046   2.834   3.251 -0.2255  1.0655  0.0561
  584MOL0     N78755   9.456   3.365   3.223 -0.4236 -0.1844  0.2062
  584MOL0     N78756   9.359   3.447   3.251 -1.0722  0.2645  1.0084
  584MOL0     C78757   8.292   3.381   2.754 -0.7105  0.1397  0.4092
  584MOL0     C78758   8.207   3.275   2.731  0.3369  0.4790  0.1219
  584MOL0     C78759   7.825   3.037   2.832  0.2986  0.8198  0.1045
  584MOL0     C78760   7.865   2.933   2.754  0.2319 -0.4647  0.3293
  584MOL0     C78761   7.779   2.825   2.727 -0.5536 -0.1702 -0.4054
  584MOL0     C78762   7.660   2.814   2.797 -0.7771  0.1989  0.7167
  584MOL0     O78763   7.577   2.707   2.778 -0.2415 -0.0343 -0.0846
  584MOL0     C78764   7.440   2.711   2.809 -0.8079 -0.1413  0.1874
  584MOL0     C78765   7.350   2.793   2.715 -0.1558  0.3053 -0.0503
  584MOL0     C78766   7.310   2.705   2.584 -0.3059  0.0457 -0.4744
  584MOL0     C78767   7.242   2.785   2.473 -0.6327 -1.1695  0.3616
  584MOL0     C78768   7.117   2.850   2.517 -0.1072 -0.0483 -0.2004
  584MOL0     C78769   7.006   2.883   2.548 -0.4502 -0.5824  0.2823
  584MOL0     C78770   7.614   2.932   2.861 -0.7569 -0.4762 -0.5155
  584MOL0     C78771   7.696   3.044   2.893 -0.8064 -0.1767  0.6277
  584MOL0     C78772   7.637   3.166   2.957 -0.3387  0.7969 -0.3099
  584MOL0     H78773   8.148   3.197   3.057  0.9661  2.6176  1.9194
  584MOL0     H78774   8.309   3.356   3.095 -0.7964  0.3074 -0.0112
  584MOL0     H78775   8.371   3.645   2.777  1.1039 -0.0033 -0.2088
  584MOL0     H78776   8.457   3.706   2.912 -1.8593 -0.1854 -0.5209
  584MOL0     H78777   8.571   3.703   2.679  1.5777  1.3850  1.0058
  584MOL0     H78778   8.574   3.525   2.699  0.9999  0.6551  0.6868
  584MOL0     H78779   8.705   3.567   2.919  3.5867  0.1000  0.5695
  584MOL0     H78780   8.726   3.736   2.876 -0.6369  0.8995 -2.4563
  584MOL0     H78781   8.853   3.492   2.727  2.8770  0.8634 -1.2391
  584MOL0     H78782   8.850   3.654   2.670  0.3047  0.7925  0.3275
  584MOL0     H78783   9.053   3.627   2.792 -0.6709  2.1659  0.0994
  584MOL0     H78784   8.943   3.704   2.901  3.2284  1.5974  2.2286
  584MOL0     H78785   8.912   3.516   3.037  1.0192 -0.1347  0.6034
  584MOL0     H78786   9.020   3.415   2.932  0.6629 -0.3735 -0.4777
  584MOL0     H78787   9.101   3.687   3.047  2.1590 -0.0913 -1.8620
  584MOL0     H78788   9.201   3.581   2.968 -0.7216  2.5177 -0.4217
  584MOL0     H78789   9.148   3.573   3.255  1.7799  2.1232 -1.2206
  584MOL0     H78790   9.069   3.430   3.179  0.3937 -0.3412 -1.9051
  584MOL0     H78791   9.255   3.284   2.975 -3.2630 -1.1868  2.2769
  584MOL0     H78792   9.458   3.135   2.974 -0.3025 -1.7261  2.4770
  584MOL0     H78793   9.591   3.259   2.983 -2.2632  1.2246 -2.3899
  584MOL0     H78794   9.676   3.190   3.188  1.7422 -1.6890  1.3419
  584MOL0     H78795   9.545   3.059   3.203  1.2137 -0.3037 -0.4826
  584MOL0     H78796   9.735   3.081   2.969  0.1419  0.5287  1.5463
  584MOL0     H78797   9.657   2.940   3.026  0.9788 -0.2663  3.4163
  584MOL0     H78798   9.853   3.071   3.205  0.4388 -0.0541  0.0307
  584MOL0     H78799   9.909   2.991   3.062  0.7612  1.9570  0.4731
  584MOL0     H78800   9.775   2.629   3.264 -1.6185  4.3826 -0.2761
  584MOL0     H78801   9.962   2.469   3.372  1.0549 -1.0295 -0.7795
  584MOL0     H78802  10.427   2.322   3.364  0.2624 -0.4602  0.4785
  584MOL0     H78803  10.631   2.240   3.426 -1.5691  0.5816 -0.9619
  584MOL0     H78804  10.879   2.277   3.356 -1.4716  1.0649 -0.9216
  584MOL0     H78805  10.908   2.450   3.335  0.8076 -0.8060 -1.1445
  584MOL0     H78806  11.067   2.440   3.521 -1.4835 -1.8379  0.7823
  584MOL0     H78807  11.070   2.256   3.486 -0.9275 -1.2288 -2.0653
  584MOL0     H78808  11.259   2.301   3.384 -1.6918  1.0003  2.1352
  584MOL0     H78809  11.149   2.314   3.247 -1.2896 -0.6211  0.1097
  584MOL0     H78810  11.227   2.549   3.419 -0.2841  0.6084 -0.6193
  584MOL0     H78811  11.146   2.553   3.258  1.1139  1.0980 -0.5838
  584MOL0     H78812  11.367   2.633   3.229 -0.0196 -0.3379 -2.4553
  584MOL0     H78813  11.329   2.489   3.139  0.5541 -0.5808  0.5234
  584MOL0     H78814  11.550   2.525   3.248  0.4774 -0.4048 -0.5266
  584MOL0     H78815  11.472   2.456   3.392 -1.2756 -1.5598 -0.5241
  584MOL0     H78816  11.546   2.319   3.128  0.5969 -2.4276  0.2882
  584MOL0     H78817  11.405   2.258   3.210 -0.1013 -0.9696 -0.1857
  584MOL0     H78818  11.539   2.246   3.421  1.5423  1.5204  0.6839
  584MOL0     H78819  11.598   2.151   3.286 -3.6421  0.2452 -2.5463
  584MOL0     H78820  10.762   2.633   3.559 -0.8886  0.3230  1.1887
  584MOL0     H78821  10.523   2.708   3.522 -2.2546 -0.8350  1.3607
  584MOL0     H78822  10.245   2.780   3.262 -1.4886  2.8106 -2.0894
  584MOL0     H78823  10.081   2.932   3.222 -1.6033  1.1344 -1.5213
  584MOL0     H78824   8.334   3.422   2.663 -0.9847  0.4821  0.4368
  584MOL0     H78825   8.192   3.236   2.632  2.0509  0.3516 -0.1176
  584MOL0     H78826   7.957   2.949   2.698 -1.3306  3.3910 -1.5011
  584MOL0     H78827   7.816   2.747   2.660 -1.0083 -0.3282 -0.4754
  584MOL0     H78828   7.439   2.744   2.913  0.2654  0.6365 -0.0334
  584MOL0     H78829   7.415   2.605   2.799  1.4749 -0.6359 -0.7788
  584MOL0     H78830   7.418   2.867   2.671  3.8723 -2.1150  1.5461
  584MOL0     H78831   7.263   2.840   2.761 -0.5195 -1.1685  0.8401
  584MOL0     H78832   7.237   2.633   2.622  0.4444  0.1692  1.3406
  584MOL0     H78833   7.399   2.654   2.546  0.2526 -0.8706  1.8337
  584MOL0     H78834   7.305   2.866   2.436 -0.4617 -1.8759 -0.9347
  584MOL0     H78835   7.225   2.723   2.385 -1.8731  0.3678 -0.5342
  584MOL0     H78836   6.909   2.911   2.583 -1.0252  0.7720 -2.1578
  584MOL0     H78837   7.513   2.945   2.898 -1.6279 -0.7457 -2.6915
  584MOL0     H78838   7.605   3.233   2.876 -0.8611 -0.0332 -0.7972
  584MOL0     H78839   7.548   3.135   3.011 -1.6385  1.0143 -2.2239
  584MOL0     H78840   7.703   3.223   3.024 -1.8145  3.1081 -0.6923
  585MOL0     O78841   3.502   6.855  10.519 -0.3554  0.8495  0.5174
  585MOL0     C78842   3.414   6.904  10.460  0.3074 -0.5919  0.7950
  585MOL0     O78843   3.428   7.022  10.392  0.4949 -0.5610  0.0867
  585MOL0     C78844   3.559   7.081  10.392  1.3111 -0.2166 -0.9168
  585MOL0     C78845   3.639   7.124  10.498  0.5917  0.7910 -0.1558
  585MOL0     C78846   3.772   7.183  10.471  0.8602 -0.0811  0.2920
  585MOL0     C78847   3.823   7.202  10.343 -0.2286  0.0424 -0.1857
  585MOL0     O78848   3.945   7.259  10.338 -0.5471  0.1171  0.2318
  585MOL0     C78849   3.996   7.310  10.209  0.1554 -0.5887  0.0478
  585MOL0     C78850   4.112   7.411  10.226  0.0552  1.0023  0.6967
  585MOL0     C78851   4.201   7.409  10.104  0.4551 -0.1921 -1.4615
  585MOL0     C78852   4.334   7.485  10.127  0.0062  0.1384 -0.3385
  585MOL0     C78853   4.388   7.510   9.984 -0.8709 -0.3542  0.4508
  585MOL0     C78854   4.520   7.582   9.998 -0.5894 -0.5746 -0.1183
  585MOL0     C78855   4.593   7.619   9.870 -0.1566 -0.1343  0.8628
  585MOL0     C78856   4.507   7.701   9.761  0.3006  0.1344  0.5922
  585MOL0     N78857   4.612   7.769   9.677  0.5942  0.1703 -0.9558
  585MOL0     C78858   4.643   7.731   9.556 -1.3713  0.2469  0.4207
  585MOL0     C78859   4.752   7.803   9.525 -0.3430  0.0610 -0.1167
  585MOL0     C78860   4.843   7.785   9.403 -0.2054 -0.6741  0.0757
  585MOL0     C78861   4.948   7.683   9.436 -0.0809 -0.0603  0.2352
  585MOL0     C78862   4.888   7.537   9.428  0.5205 -0.4456  0.0096
  585MOL0     C78863   4.877   7.472   9.294  0.0225 -0.3037 -0.6776
  585MOL0     O78864   5.013   7.430   9.268 -0.2308 -0.0956 -0.1137
  585MOL0     C78865   5.038   7.332   9.178  0.3310  0.6738  0.1857
  585MOL0     C78866   5.146   7.242   9.185  0.4902 -0.3307 -0.7143
  585MOL0     C78867   5.189   7.166   9.082 -0.6801  0.3331 -1.6003
  585MOL0     C78868   5.119   7.142   8.969 -0.4092 -0.3447 -0.9642
  585MOL0     C78869   5.171   7.049   8.875 -0.2488  0.0314  0.2154
  585MOL0     O78870   5.304   7.009   8.893 -0.4556 -0.7299 -0.4589
  585MOL0     C78871   5.333   6.882   8.867  0.1553 -0.2295 -0.6130
  585MOL0     C78872   5.323   6.777   8.948  0.6171  0.6666 -0.5327
  585MOL0     C78873   5.344   6.638   8.906  0.6247 -1.4977  0.2556
  585MOL0     C78874   5.385   6.614   8.772 -0.3465  0.3480  0.3149
  585MOL0     O78875   5.393   6.497   8.718  0.0066  0.3967 -0.8020
  585MOL0     C78876   5.330   6.389   8.795  0.7332  0.2495 -0.0159
  585MOL0     C78877   5.356   6.264   8.713 -0.1184  0.9402  0.6869
  585MOL0     C78878   5.280   6.133   8.758 -0.7715 -0.3691  0.0922
  585MOL0     C78879   5.358   6.042   8.846  0.0312 -0.1802  0.5496
  585MOL0     C78880   5.291   5.906   8.879 -0.0438 -0.4195 -0.3488
  585MOL0     C78881   5.353   5.843   9.011  0.2197 -0.2533  0.8013
  585MOL0     C78882   5.321   5.915   9.150  0.3605  0.4602  0.6003
  585MOL0     C78883   5.437   5.925   9.254 -0.7625 -0.7693 -0.4367
  585MOL0    Cl78884   5.588   5.976   9.168 -0.1913  0.1083  0.3266
  585MOL0     C78885   5.403   6.723   8.695 -0.2082  0.2027 -0.3130
  585MOL0     C78886   5.362   6.858   8.737 -0.8066 -0.2371 -0.2711
  585MOL0     O78887   5.089   6.993   8.799 -0.2401  0.1597 -0.1058
  585MOL0     C78888   4.991   7.214   8.956 -0.6944  0.7814  0.4901
  585MOL0     C78889   4.955   7.312   9.056 -0.5609 -0.0345 -0.9186
  585MOL0     N78890   4.769   7.899   9.621 -0.1633  0.4552  0.0709
  585MOL0     N78891   4.680   7.877   9.712 -1.0520  0.1973 -0.9393
  585MOL0     C78892   3.733   7.166  10.241 -0.2134  0.3142 -0.5488
  585MOL0     C78893   3.599   7.120  10.266 -0.6830 -0.5557 -0.2160
  585MOL0     C78894   3.281   6.834  10.466  0.1705 -0.1836  0.4465
  585MOL0     C78895   3.169   6.903  10.405 -1.0387  0.2307  0.1210
  585MOL0     C78896   3.040   6.855  10.423 -0.3570 -0.1266 -0.3883
  585MOL0     C78897   3.019   6.732  10.478  0.3806 -0.3939 -0.0753
  585MOL0     O78898   2.887   6.684  10.465 -0.1438  0.0603 -0.2589
  585MOL0     C78899   2.781   6.766  10.514  0.7693 -0.5700 -0.7276
  585MOL0     C78900   2.643   6.700  10.496  1.2550 -0.7349  0.6001
  585MOL0     C78901   2.540   6.775  10.581  0.0403 -0.3146 -0.6678
  585MOL0     C78902   2.557   6.766  10.729 -0.1811 -0.5217  0.1460
  585MOL0     C78903   2.484   6.875  10.791  0.1272  0.2385 -0.7056
  585MOL0     C78904   2.420   6.959  10.854 -0.2372 -0.1712  0.3129
  585MOL0     C78905   3.125   6.657  10.537  0.7636  0.1266  0.1398
  585MOL0     C78906   3.255   6.718  10.542  0.7390 -0.4844  0.1654
  585MOL0     C78907   3.358   6.632  10.616  0.5793 -0.2530  1.0126
  585MOL0     H78908   3.605   7.110  10.601  1.0706  0.0929 -0.0875
  585MOL0     H78909   3.834   7.216  10.554 -1.8959 -0.2813  2.5895
  585MOL0     H78910   4.043   7.230  10.150  1.0213  1.1146 -1.6705
  585MOL0     H78911   3.923   7.364  10.149 -0.4651  0.5774  1.7861
  585MOL0     H78912   4.177   7.384  10.309 -0.5187  0.5190  0.9954
  585MOL0     H78913   4.076   7.511  10.253  0.2660  0.6373  2.4833
  585MOL0     H78914   4.140   7.463  10.030  0.5350  1.1741 -0.5686
  585MOL0     H78915   4.211   7.306  10.070  2.5041 -0.3020 -0.6526
  585MOL0     H78916   4.316   7.582  10.176  1.3437  0.4577 -0.4283
  585MOL0     H78917   4.391   7.423  10.197  0.8702 -1.1917 -2.1419
  585MOL0     H78918   4.404   7.420   9.923 -0.5312  0.5830 -0.8906
  585MOL0     H78919   4.323   7.574   9.924  1.1200  0.5431 -0.8343
  585MOL0     H78920   4.499   7.674  10.054  1.7805 -2.3178  4.0602
  585MOL0     H78921   4.589   7.525  10.061 -0.8540  0.6375  1.3343
  585MOL0     H78922   4.631   7.529   9.820 -0.4827  0.9949 -1.5617
  585MOL0     H78923   4.687   7.667   9.895 -1.4383  2.8721  0.3026
  585MOL0     H78924   4.446   7.635   9.698  0.2413  0.3886  0.3838
  585MOL0     H78925   4.457   7.780   9.817  2.6963  0.3458  2.5926
  585MOL0     H78926   4.612   7.643   9.500 -0.8459 -0.2409  0.8878
  585MOL0     H78927   4.777   7.763   9.319 -2.3632  1.6467  1.0155
  585MOL0     H78928   4.895   7.876   9.373 -1.7697  1.4187  3.1888
  585MOL0     H78929   5.028   7.701   9.364 -1.9155  1.3620 -1.5488
  585MOL0     H78930   4.989   7.702   9.536  2.0031  2.1266 -0.9392
  585MOL0     H78931   4.790   7.529   9.475  0.1138  2.6140 -0.1144
  585MOL0     H78932   4.951   7.471   9.489  0.4996 -0.2652  0.2256
  585MOL0     H78933   4.838   7.534   9.213 -2.0782 -1.3775 -0.5631
  585MOL0     H78934   4.810   7.385   9.286 -1.2392  0.5876 -0.2135
  585MOL0     H78935   5.210   7.262   9.270 -0.7917  0.1577  0.1592
  585MOL0     H78936   5.279   7.110   9.108 -0.8198  0.7289 -0.2074
  585MOL0     H78937   5.294   6.784   9.052  1.8936 -1.7031  0.0489
  585MOL0     H78938   5.333   6.570   8.990 -2.1786 -1.2225  0.2024
  585MOL0     H78939   5.369   6.377   8.896 -0.2644  1.9658  0.6334
  585MOL0     H78940   5.223   6.403   8.812  0.1930 -3.0736  0.0230
  585MOL0     H78941   5.342   6.280   8.606 -0.7699  0.0026  0.6180
  585MOL0     H78942   5.462   6.240   8.720 -0.3839  0.1950  3.1368
  585MOL0     H78943   5.177   6.149   8.792 -0.7935 -0.5896  0.1282
  585MOL0     H78944   5.259   6.071   8.670  2.1866 -1.6247  0.1713
  585MOL0     H78945   5.368   6.106   8.934 -2.3111 -1.2380  1.6568
  585MOL0     H78946   5.460   6.033   8.808  0.0544  1.5201  0.1245
  585MOL0     H78947   5.297   5.843   8.790 -2.5005  0.4328 -1.2193
  585MOL0     H78948   5.183   5.921   8.892  0.3905  0.8708  2.4341
  585MOL0     H78949   5.337   5.735   9.020  0.1739 -0.6151 -2.4114
  585MOL0     H78950   5.460   5.856   8.995  0.1735  1.9827  1.9446
  585MOL0     H78951   5.237   5.858   9.190  1.0546 -0.7753  0.3542
  585MOL0     H78952   5.271   6.012   9.141  0.4429  0.3649 -1.1241
  585MOL0     H78953   5.409   5.998   9.330 -0.3460 -0.8089 -0.2455
  585MOL0     H78954   5.456   5.837   9.316  0.1152 -0.3734 -0.1428
  585MOL0     H78955   5.438   6.712   8.593 -0.6871 -2.0598 -0.2744
  585MOL0     H78956   5.378   6.944   8.673  0.9297  0.6257  1.2445
  585MOL0     H78957   4.936   7.218   8.863 -1.0946  0.8352  0.7284
  585MOL0     H78958   4.865   7.370   9.040 -2.2447 -2.3358 -0.3519
  585MOL0     H78959   3.772   7.161  10.140  0.2612 -0.8536 -0.3207
  585MOL0     H78960   3.534   7.091  10.184  0.4881 -2.8959 -0.4038
  585MOL0     H78961   3.182   6.985  10.334  1.8513 -2.2784 -2.5148
  585MOL0     H78962   2.962   6.919  10.383 -0.6385  0.4775  1.0764
  585MOL0     H78963   2.780   6.867  10.471 -0.8563 -0.2792 -0.0632
  585MOL0     H78964   2.800   6.773  10.622  0.6138 -0.0273 -0.7322
  585MOL0     H78965   2.638   6.596  10.531 -0.7880 -0.1352  2.3722
  585MOL0     H78966   2.615   6.700  10.391  0.9478  0.2301  0.6707
  585MOL0     H78967   2.438   6.743  10.555 -1.0019  2.9897 -1.0770
  585MOL0     H78968   2.550   6.876  10.541  0.1979 -0.3105 -0.6168
  585MOL0     H78969   2.524   6.669  10.768 -2.3119 -0.6551 -1.7548
  585MOL0     H78970   2.660   6.786  10.758 -0.2297  2.0857 -1.1884
  585MOL0     H78971   2.372   7.041  10.904  0.0611 -0.1463  0.5606
  585MOL0     H78972   3.106   6.559  10.579 -0.4804  0.6532  0.8684
  585MOL0     H78973   3.414   6.691  10.690  1.4274  1.0307 -0.5956
  585MOL0     H78974   3.309   6.552  10.671  0.8585 -0.8435  0.4084
  585MOL0     H78975   3.425   6.588  10.542 -0.3371 -0.4219  0.2700
  586MOL0     O78976   3.417   8.048   0.656  0.5667 -0.5593 -0.0155
  586MOL0     C78977   3.354   8.091   0.750 -0.5320 -0.5167  0.5108
  586MOL0     O78978   3.412   8.132   0.867  0.0607  0.0353 -0.2766
  586MOL0     C78979   3.546   8.165   0.867  0.3033 -0.6747  0.1035
  586MOL0     C78980   3.644   8.081   0.929  0.6895  0.0616 -0.9289
  586MOL0     C78981   3.776   8.126   0.933 -0.4613  0.4414  0.8157
  586MOL0     C78982   3.818   8.243   0.879  0.5167  0.1507  0.2320
  586MOL0     O78983   3.955   8.278   0.882 -0.0590  0.6116 -0.2070
  586MOL0     C78984   4.026   8.256   0.760 -1.2732  0.2069  0.0228
  586MOL0     C78985   4.151   8.350   0.773  0.1386  0.1096  0.0821
  586MOL0     C78986   4.225   8.372   0.648 -0.2330 -0.0649  0.6831
  586MOL0     C78987   4.297   8.247   0.586 -0.6680  0.5935  0.8577
  586MOL0     C78988   4.391   8.288   0.469  0.2610 -1.3425 -0.3694
  586MOL0     C78989   4.449   8.171   0.395 -0.9478 -0.5577  0.0581
  586MOL0     C78990   4.566   8.222   0.302  0.3386  0.6310  0.3818
  586MOL0     C78991   4.673   8.117   0.284 -0.7350 -0.0837 -0.4388
  586MOL0     N78992   4.793   8.182   0.232  0.1433  0.5881 -0.3954
  586MOL0     C78993   4.827   8.208   0.102  0.4091  0.2455  0.3313
  586MOL0     C78994   4.962   8.223   0.105 -0.7894  0.3380  0.0338
  586MOL0     C78995   5.058   8.225  -0.007 -0.4346  0.3556  0.7818
  586MOL0     C78996   5.140   8.361  -0.015  0.5547  0.4426 -0.0780
  586MOL0     C78997   5.204   8.396  -0.146  0.2177 -0.1228 -0.9798
  586MOL0     C78998   5.278   8.282  -0.210 -0.2559 -0.0917  0.3671
  586MOL0     O78999   5.370   8.231  -0.118 -0.4862 -0.1188 -0.0499
  586MOL0     C79000   5.509   8.258  -0.116  0.7287  0.3870  0.6788
  586MOL0     C79001   5.576   8.194  -0.016 -0.7148  0.0445  0.3268
  586MOL0     C79002   5.717   8.201  -0.011 -1.0404  0.0809 -0.2020
  586MOL0     C79003   5.788   8.276  -0.105  0.1929  0.8354  0.4134
  586MOL0     C79004   5.929   8.289  -0.094 -0.0556 -0.5009  0.3508
  586MOL0     O79005   5.996   8.234   0.018  0.6372  0.0843 -0.1086
  586MOL0     C79006   6.121   8.274   0.054  0.5940 -0.5243  0.3355
  586MOL0     C79007   6.188   8.185   0.133 -0.0533  0.2810  0.2802
  586MOL0     C79008   6.318   8.209   0.183  0.1809  0.5261  0.8379
  586MOL0     C79009   6.378   8.338   0.158  0.5934  0.2983 -0.5938
  586MOL0     O79010   6.508   8.375   0.191  0.7677  0.2821  0.1044
  586MOL0     C79011   6.574   8.296   0.295 -0.5674  0.3807  0.7857
  586MOL0     C79012   6.725   8.313   0.271  0.0676 -0.1542 -0.6626
  586MOL0     C79013   6.802   8.299   0.414  1.1506 -1.0930 -0.2536
  586MOL0     C79014   6.950   8.305   0.395  0.0066  0.3804  0.1708
  586MOL0     C79015   7.015   8.192   0.315  0.8550 -0.0122 -0.0741
  586MOL0     C79016   7.168   8.181   0.332 -0.1720 -0.8435 -0.6673
  586MOL0     C79017   7.225   8.070   0.243  0.1107 -0.2571  0.4037
  586MOL0     C79018   7.193   8.056   0.094 -0.2415  0.2075  0.3588
  586MOL0    Cl79019   7.235   8.212   0.017 -0.0524 -0.1132  0.2853
  586MOL0     C79020   6.309   8.429   0.068  0.2282  0.1676  0.7225
  586MOL0     C79021   6.185   8.398   0.014 -0.8811  0.1119 -0.7808
  586MOL0     O79022   5.986   8.335  -0.196 -0.5342  0.1110  0.8797
  586MOL0     C79023   5.714   8.351  -0.198 -0.0063 -0.3292 -0.2606
  586MOL0     C79024   5.576   8.325  -0.210 -0.6298 -0.1922  0.1292
  586MOL0     N79025   5.009   8.230   0.232  0.7134  0.8866  0.3358
  586MOL0     N79026   4.910   8.193   0.308 -0.2642 -0.4590  0.0316
  586MOL0     C79027   3.729   8.322   0.803 -0.1878 -0.1224 -0.0282
  586MOL0     C79028   3.598   8.280   0.801  0.3225 -0.1960  0.1781
  586MOL0     C79029   3.213   8.071   0.757 -0.6154 -0.1616  0.4082
  586MOL0     C79030   3.159   7.957   0.689 -0.2357 -0.1535  0.1925
  586MOL0     C79031   3.022   7.918   0.695 -0.7852  0.0229 -0.5410
  586MOL0     C79032   2.936   8.011   0.748  0.6738 -0.7344 -1.0660
  586MOL0     O79033   2.798   7.981   0.762 -0.0100  0.2859  0.4389
  586MOL0     C79034   2.728   7.915   0.651 -0.5619  0.1813  0.5707
  586MOL0     C79035   2.570   7.923   0.668  0.9519 -0.0580 -0.0684
  586MOL0     C79036   2.525   7.850   0.800  0.2963 -0.0225  0.0174
  586MOL0     C79037   2.376   7.849   0.828  0.0331 -1.0324 -0.4051
  586MOL0     C79038   2.375   7.823   0.969  0.7245  0.0206 -0.3457
  586MOL0     C79039   2.371   7.810   1.088 -0.4441 -0.3600 -0.3554
  586MOL0     C79040   2.981   8.123   0.828  0.2780  0.7104  0.7698
  586MOL0     C79041   3.117   8.156   0.825 -0.8593  0.9051 -1.2524
  586MOL0     C79042   3.158   8.266   0.924 -0.5338 -0.2933 -0.0970
  586MOL0     H79043   3.621   7.989   0.982  0.9938  0.6559  0.2713
  586MOL0     H79044   3.846   8.059   0.983 -0.5921 -1.1187 -0.9912
  586MOL0     H79045   4.063   8.153   0.755 -1.5757  0.1515 -1.7040
  586MOL0     H79046   3.959   8.284   0.677  0.1545 -0.1111 -1.2941
  586MOL0     H79047   4.219   8.311   0.850 -0.1760  2.8547  1.8799
  586MOL0     H79048   4.106   8.444   0.805  0.2590  0.2662 -0.1955
  586MOL0     H79049   4.292   8.455   0.674  0.2757 -0.5060  0.8084
  586MOL0     H79050   4.159   8.411   0.570  1.0126  0.3385 -0.2147
  586MOL0     H79051   4.355   8.203   0.669 -3.3512  0.7379  2.9434
  586MOL0     H79052   4.239   8.160   0.556  0.1411  1.1167 -2.6313
  586MOL0     H79053   4.336   8.349   0.397  2.1506  2.1606  0.9180
  586MOL0     H79054   4.459   8.360   0.514 -0.5123 -2.4539  2.8602
  586MOL0     H79055   4.481   8.105   0.476  2.9920 -0.0266 -0.8693
  586MOL0     H79056   4.372   8.114   0.341 -3.0537  0.0124  2.2675
  586MOL0     H79057   4.610   8.320   0.323  0.1272  2.3093 -5.2217
  586MOL0     H79058   4.523   8.233   0.202  0.9068  1.4842  0.2172
  586MOL0     H79059   4.712   8.077   0.378 -3.6689 -2.8487 -0.2365
  586MOL0     H79060   4.650   8.025   0.230  2.5119 -1.7726  0.7580
  586MOL0     H79061   4.761   8.205   0.016 -0.6519  0.6072  1.1016
  586MOL0     H79062   5.139   8.152   0.004  0.4336  1.3029  0.8987
  586MOL0     H79063   5.002   8.215  -0.100 -2.9719  1.3936  2.1206
  586MOL0     H79064   5.076   8.443   0.017  1.6322  0.3226  2.6361
  586MOL0     H79065   5.220   8.341   0.056  0.8599  1.0037 -0.2605
  586MOL0     H79066   5.285   8.463  -0.115 -1.5850  1.0497  1.5202
  586MOL0     H79067   5.135   8.446  -0.214  2.2021  4.0270 -0.2614
  586MOL0     H79068   5.328   8.310  -0.303  1.1649 -2.5643  0.3157
  586MOL0     H79069   5.211   8.200  -0.239  0.6999 -1.3928  1.7161
  586MOL0     H79070   5.521   8.123   0.045  2.2052 -2.9230 -0.2099
  586MOL0     H79071   5.762   8.134   0.061 -2.3632  0.5106  1.0838
  586MOL0     H79072   6.142   8.094   0.169  1.6983 -0.1443  1.5633
  586MOL0     H79073   6.362   8.132   0.245 -1.2933  2.1569  4.1112
  586MOL0     H79074   6.549   8.341   0.392 -1.2411 -0.0499  0.8208
  586MOL0     H79075   6.551   8.189   0.297 -0.3963  0.3357  0.3123
  586MOL0     H79076   6.747   8.224   0.212 -3.2304 -2.0141  0.6363
  586MOL0     H79077   6.739   8.412   0.227  0.3409  0.9428  1.7322
  586MOL0     H79078   6.763   8.355   0.500 -1.5752 -3.7014  0.3895
  586MOL0     H79079   6.789   8.197   0.450  2.0562 -0.9789  0.4251
  586MOL0     H79080   6.993   8.288   0.495  3.5885  0.2703 -1.2510
  586MOL0     H79081   6.977   8.408   0.373 -2.6147  1.4655  1.6668
  586MOL0     H79082   6.979   8.208   0.213 -2.2417 -0.8507  0.7701
  586MOL0     H79083   6.973   8.095   0.342 -0.5101  1.0725  1.9540
  586MOL0     H79084   7.212   8.277   0.305 -0.2575 -0.6903 -0.2592
  586MOL0     H79085   7.195   8.165   0.436 -1.3322  0.8311 -0.0691
  586MOL0     H79086   7.196   7.974   0.286  0.0619 -0.8184 -0.8439
  586MOL0     H79087   7.335   8.068   0.247  0.1853  1.8518  0.1285
  586MOL0     H79088   7.250   7.978   0.044  1.3479 -0.4940  3.0575
  586MOL0     H79089   7.087   8.033   0.075 -0.0233  0.5617 -1.3966
  586MOL0     H79090   6.362   8.519   0.037  0.8105  0.0024  1.2296
  586MOL0     H79091   6.143   8.467  -0.059  1.5507  1.2503 -1.1895
  586MOL0     H79092   5.750   8.414  -0.278 -0.6357 -2.2858 -2.1747
  586MOL0     H79093   5.537   8.359  -0.306 -3.9371  0.2033  1.5023
  586MOL0     H79094   3.763   8.405   0.743 -1.2669 -0.1401 -0.6890
  586MOL0     H79095   3.526   8.347   0.754 -0.2543 -0.0721  1.2142
  586MOL0     H79096   3.226   7.882   0.650  1.1514  1.2745 -0.2902
  586MOL0     H79097   2.987   7.819   0.665 -0.6968 -0.8604  2.0306
  586MOL0     H79098   2.753   7.809   0.645 -3.4765 -0.6018  1.0608
  586MOL0     H79099   2.752   7.973   0.562  2.6001  1.8475  2.3157
  586MOL0     H79100   2.517   7.877   0.584  1.8800 -0.5326 -0.4105
  586MOL0     H79101   2.530   8.024   0.669 -0.1808 -0.4364 -1.9084
  586MOL0     H79102   2.580   7.892   0.885 -0.1240  0.3124  0.1244
  586MOL0     H79103   2.556   7.745   0.799  3.5989  0.7621  2.1793
  586MOL0     H79104   2.331   7.941   0.789  0.9223 -0.6037 -0.4455
  586MOL0     H79105   2.339   7.759   0.779 -0.0104 -0.6558 -1.0811
  586MOL0     H79106   2.373   7.780   1.191  4.2120  1.1248  0.2171
  586MOL0     H79107   2.909   8.170   0.894 -0.0919 -2.0004  2.4723
  586MOL0     H79108   3.225   8.340   0.881  0.1172 -0.9751 -0.2803
  586MOL0     H79109   3.067   8.313   0.962 -1.0311 -1.8724  0.7964
  586MOL0     H79110   3.215   8.230   1.010  0.6387  2.0618  0.1881
  587MOL0     O79111   1.670   3.654   7.601 -0.5198 -0.1159 -0.1921
  587MOL0     C79112   1.743   3.718   7.676  1.5913 -0.0036  0.3607
  587MOL0     O79113   1.847   3.800   7.641  0.4774 -0.8808 -0.9711
  587MOL0     C79114   1.896   3.803   7.512 -0.6817  0.2761 -0.0593
  587MOL0     C79115   1.900   3.681   7.436  0.0217 -0.4019  0.6035
  587MOL0     C79116   1.956   3.692   7.306 -0.0389 -0.8749 -0.3286
  587MOL0     C79117   2.035   3.803   7.264 -0.3868  0.0042  0.5565
  587MOL0     O79118   2.092   3.774   7.140 -0.0971  0.1656 -0.3898
  587MOL0     C79119   2.090   3.887   7.051  0.5882  0.0463 -0.8040
  587MOL0     C79120   2.226   3.965   7.048  0.4137  0.3954  1.0953
  587MOL0     C79121   2.192   4.102   6.977  0.3565 -0.5422  0.1029
  587MOL0     C79122   2.306   4.146   6.887 -0.1699  0.1781  1.3223
  587MOL0     C79123   2.267   4.255   6.799 -0.0216 -0.1173 -0.6231
  587MOL0     C79124   2.375   4.283   6.694  0.0221  0.1563  0.8510
  587MOL0     C79125   2.388   4.164   6.596  0.0222  0.9159  0.4855
  587MOL0     C79126   2.471   4.184   6.467 -0.1587  0.4750 -1.0912
  587MOL0     N79127   2.616   4.176   6.491  0.4113  0.3281  0.1024
  587MOL0     C79128   2.695   4.065   6.483 -1.6178 -0.5545  0.5857
  587MOL0     C79129   2.823   4.102   6.518 -0.5022  0.6613  0.0604
  587MOL0     C79130   2.946   4.026   6.511 -0.8538  0.9561  0.2728
  587MOL0     C79131   3.069   4.114   6.542 -0.1519 -0.5180  0.2465
  587MOL0     C79132   3.191   4.017   6.532 -0.0365  0.8094 -0.1091
  587MOL0     C79133   3.312   4.110   6.534 -0.2332 -0.1754  0.0612
  587MOL0     O79134   3.332   4.180   6.409  0.4665 -0.7715  0.2789
  587MOL0     C79135   3.458   4.192   6.362 -0.6231  0.3612 -0.0599
  587MOL0     C79136   3.507   4.155   6.235  0.5391 -0.5628  0.4381
  587MOL0     C79137   3.644   4.167   6.203 -1.0438  0.3711 -0.4499
  587MOL0     C79138   3.735   4.207   6.304  0.0748 -0.1576  0.0766
  587MOL0     C79139   3.878   4.215   6.284  0.2113 -0.1955 -0.1219
  587MOL0     O79140   3.959   4.252   6.389 -0.2024  0.2001 -0.2783
  587MOL0     C79141   4.088   4.294   6.357  0.3752  0.5103  0.7719
  587MOL0     C79142   4.206   4.250   6.426  0.3133 -0.7008  0.0323
  587MOL0     C79143   4.330   4.307   6.396 -0.0698  0.4447 -0.4113
  587MOL0     C79144   4.343   4.401   6.294  1.2724  0.9087  1.0995
  587MOL0     O79145   4.458   4.442   6.245 -0.1816 -0.5479 -1.1361
  587MOL0     C79146   4.555   4.338   6.220 -0.7895 -0.3581 -0.5448
  587MOL0     C79147   4.693   4.386   6.264  0.7126  0.0488  0.1731
  587MOL0     C79148   4.708   4.381   6.419 -0.4216 -0.2978 -0.1912
  587MOL0     C79149   4.665   4.506   6.493 -0.5625 -0.8950  1.0518
  587MOL0     C79150   4.784   4.602   6.506 -0.3684 -0.2402 -0.0473
  587MOL0     C79151   4.752   4.741   6.570 -0.4038  0.4273 -0.0205
  587MOL0     C79152   4.870   4.836   6.547  0.1263 -0.3204  0.4085
  587MOL0     C79153   4.819   4.982   6.565  0.0248 -0.1059  0.7913
  587MOL0    Cl79154   4.937   5.096   6.492 -0.1118  0.5397 -0.1026
  587MOL0     C79155   4.220   4.448   6.238 -0.5054 -0.5235  0.2589
  587MOL0     C79156   4.097   4.404   6.270  1.1571 -0.5988 -0.0067
  587MOL0     O79157   3.918   4.189   6.170 -0.5936  0.2452 -0.6528
  587MOL0     C79158   3.684   4.256   6.426  0.2815  0.3159 -0.3808
  587MOL0     C79159   3.549   4.240   6.452 -0.9547  0.3899  0.2287
  587MOL0     N79160   2.813   4.242   6.525 -0.3320 -0.2460  0.2345
  587MOL0     N79161   2.693   4.291   6.513  0.1242 -0.3079 -0.0525
  587MOL0     C79162   2.040   3.918   7.351 -0.2223  0.4614  1.2269
  587MOL0     C79163   1.964   3.920   7.469  0.1370  0.0382  0.5612
  587MOL0     C79164   1.701   3.731   7.816  0.0886 -0.0666  0.4898
  587MOL0     C79165   1.772   3.829   7.893 -0.0218  0.4673  0.8178
  587MOL0     C79166   1.739   3.843   8.028  0.1800  0.9801  0.1521
  587MOL0     C79167   1.646   3.760   8.086 -0.0453  0.9546 -0.3812
  587MOL0     O79168   1.615   3.792   8.216 -0.4470 -0.7480  0.2783
  587MOL0     C79169   1.501   3.730   8.274 -0.9898 -0.3887 -0.7189
  587MOL0     C79170   1.505   3.762   8.424  0.2483  0.5614 -0.8929
  587MOL0     C79171   1.374   3.715   8.496  1.0686  0.6319  0.2327
  587MOL0     C79172   1.346   3.562   8.488 -0.0332 -0.0973  0.5723
  587MOL0     C79173   1.431   3.475   8.570 -0.5799 -0.3106 -0.3021
  587MOL0     C79174   1.511   3.402   8.622 -0.0589  0.1838 -0.6461
  587MOL0     C79175   1.585   3.655   8.012 -0.5597  0.0490 -0.3413
  587MOL0     C79176   1.613   3.640   7.881 -0.0148  0.6552 -0.5624
  587MOL0     C79177   1.549   3.515   7.825 -0.0011 -0.1114 -0.6765
  587MOL0     H79178   1.840   3.594   7.460  1.7582 -0.8093  4.0877
  587MOL0     H79179   1.943   3.615   7.230 -0.7135 -2.3574  1.2122
  587MOL0     H79180   2.078   3.832   6.958  1.4723 -0.5835 -0.5566
  587MOL0     H79181   1.999   3.944   7.069  0.5551 -0.5243  1.0632
  587MOL0     H79182   2.299   3.911   6.987  2.2595  1.4612  2.2680
  587MOL0     H79183   2.280   3.975   7.142  1.3988  0.6471  0.5116
  587MOL0     H79184   2.177   4.176   7.057 -0.1194 -1.4371  0.8488
  587MOL0     H79185   2.096   4.097   6.926  1.5388  0.0118 -2.2936
  587MOL0     H79186   2.387   4.171   6.955  0.2975 -3.6310  2.3892
  587MOL0     H79187   2.348   4.063   6.830 -1.2965  1.7128 -2.0271
  587MOL0     H79188   2.170   4.248   6.750  0.5132  0.8206 -1.8813
  587MOL0     H79189   2.278   4.338   6.869 -0.8908  0.0523 -0.6873
  587MOL0     H79190   2.346   4.368   6.631  2.3742  0.1211 -0.3981
  587MOL0     H79191   2.475   4.302   6.735 -0.0869 -0.7659  1.5734
  587MOL0     H79192   2.290   4.134   6.559  0.5754 -1.1513  0.5968
  587MOL0     H79193   2.438   4.081   6.647  2.4032  1.5030 -0.7195
  587MOL0     H79194   2.453   4.102   6.398 -0.4334 -0.7379  0.3791
  587MOL0     H79195   2.444   4.278   6.417 -2.4834  0.0221 -0.7760
  587MOL0     H79196   2.670   3.960   6.466  0.4235 -0.8437 -1.0307
  587MOL0     H79197   2.932   3.941   6.578 -2.2412  1.1242  0.2343
  587MOL0     H79198   2.952   3.985   6.410 -0.1824  0.1695  0.6267
  587MOL0     H79199   3.074   4.196   6.470  0.5081 -2.4570 -2.0335
  587MOL0     H79200   3.061   4.158   6.642  1.6460 -1.6050  0.9266
  587MOL0     H79201   3.193   3.957   6.440  0.0393 -0.4659  0.7037
  587MOL0     H79202   3.188   3.943   6.613 -0.8851  1.9278  0.9195
  587MOL0     H79203   3.400   4.049   6.552 -1.1516 -1.4021  0.4976
  587MOL0     H79204   3.305   4.171   6.625  0.4246  1.1445 -0.7424
  587MOL0     H79205   3.438   4.110   6.164  1.1620 -0.1112 -0.4770
  587MOL0     H79206   3.679   4.146   6.102 -2.3332 -1.8578 -0.5176
  587MOL0     H79207   4.196   4.161   6.486  0.7986 -2.0610 -1.8014
  587MOL0     H79208   4.424   4.281   6.444  1.1406  4.9458  0.1173
  587MOL0     H79209   4.535   4.240   6.264 -0.5260  0.7910  2.3805
  587MOL0     H79210   4.554   4.339   6.111  2.0113 -0.4532 -0.6307
  587MOL0     H79211   4.758   4.311   6.218  0.4335 -0.7317  1.0034
  587MOL0     H79212   4.713   4.484   6.222  1.5958 -0.8427 -1.6030
  587MOL0     H79213   4.652   4.295   6.456 -2.6629  1.3047  0.2926
  587MOL0     H79214   4.817   4.367   6.420  0.0480  2.5881 -1.0478
  587MOL0     H79215   4.629   4.473   6.591 -3.2869 -0.3504  0.3117
  587MOL0     H79216   4.582   4.558   6.445 -0.6464  0.1024  2.2368
  587MOL0     H79217   4.847   4.617   6.418  1.7054  0.8780  1.5571
  587MOL0     H79218   4.847   4.561   6.585  0.0131  2.0723  0.9330
  587MOL0     H79219   4.664   4.776   6.514  1.7218  3.7425 -1.5975
  587MOL0     H79220   4.714   4.719   6.670 -0.3595 -6.3535 -0.9940
  587MOL0     H79221   4.926   4.818   6.455 -2.2255  0.0886 -1.2091
  587MOL0     H79222   4.944   4.819   6.625 -0.9595 -0.8389  1.3567
  587MOL0     H79223   4.722   4.993   6.514  1.2672  1.2473 -1.4268
  587MOL0     H79224   4.796   5.009   6.668 -0.6671  3.2263 -0.1212
  587MOL0     H79225   4.230   4.536   6.176  2.7899 -0.6451  0.4796
  587MOL0     H79226   4.016   4.459   6.225  0.1186 -1.2182  1.0441
  587MOL0     H79227   3.747   4.299   6.503 -1.5564 -1.1198  2.0825
  587MOL0     H79228   3.509   4.282   6.544 -2.0530 -0.6665  0.2508
  587MOL0     H79229   2.098   3.999   7.309 -2.0194  0.9661 -0.4295
  587MOL0     H79230   1.969   4.000   7.542  1.2927 -0.7969  1.4343
  587MOL0     H79231   1.846   3.896   7.851  2.2273 -2.9278 -1.0622
  587MOL0     H79232   1.789   3.921   8.085 -1.0753  0.6316  1.8306
  587MOL0     H79233   1.506   3.621   8.276 -0.4227 -0.3589  0.0151
  587MOL0     H79234   1.413   3.763   8.219  0.5714  1.4135 -2.3254
  587MOL0     H79235   1.508   3.871   8.430 -0.1281  0.4991  1.3853
  587MOL0     H79236   1.592   3.705   8.458 -0.3831  0.4242  0.5414
  587MOL0     H79237   1.297   3.769   8.441  0.9770 -1.3391 -1.6829
  587MOL0     H79238   1.376   3.746   8.601 -2.4411 -0.5617  0.7812
  587MOL0     H79239   1.242   3.558   8.524 -0.6777  1.8049 -0.9454
  587MOL0     H79240   1.342   3.529   8.384  0.4565 -1.2351  0.8952
  587MOL0     H79241   1.589   3.349   8.672 -2.4672 -0.3901  2.8785
  587MOL0     H79242   1.514   3.591   8.063 -0.7705 -0.4784 -1.2835
  587MOL0     H79243   1.491   3.543   7.737 -0.5147  1.4707  0.1270
  587MOL0     H79244   1.627   3.446   7.790 -0.8369 -1.5515  0.1820
  587MOL0     H79245   1.480   3.474   7.899 -0.7542  0.7122 -0.9121
  588MOL0     O79246   6.090   5.111   0.352  0.0752  0.4638  0.1168
  588MOL0     C79247   6.053   5.048   0.258  0.3695  0.0674 -0.3067
  588MOL0     O79248   6.124   4.948   0.198  0.2619 -0.4810  0.0482
  588MOL0     C79249   6.258   4.942   0.225 -0.2893 -0.2752  0.3656
  588MOL0     C79250   6.296   4.863   0.335 -0.0690  0.2960 -0.4639
  588MOL0     C79251   6.424   4.867   0.385  0.2251  1.1075 -0.4491
  588MOL0     C79252   6.523   4.935   0.310 -0.5437  0.4649 -0.2585
  588MOL0     O79253   6.662   4.936   0.333  0.4214 -0.0643 -0.2130
  588MOL0     C79254   6.709   4.879   0.460 -0.6339 -0.4388 -0.1391
  588MOL0     C79255   6.850   4.922   0.494  0.0233 -1.2630 -0.6248
  588MOL0     C79256   6.890   4.896   0.646 -0.4505 -0.0334 -0.3914
  588MOL0     C79257   7.038   4.880   0.658 -0.3336  0.0059  0.5119
  588MOL0     C79258   7.097   4.915   0.796 -0.0978 -0.0532 -0.3160
  588MOL0     C79259   7.253   4.907   0.787  0.3429  0.2165 -0.2180
  588MOL0     C79260   7.330   4.941   0.922  0.9838  0.3434 -0.4580
  588MOL0     C79261   7.280   5.065   0.992  0.3444  0.6581  0.1520
  588MOL0     N79262   7.335   5.193   0.940 -0.0859  0.0088  0.1441
  588MOL0     C79263   7.280   5.272   0.846 -0.6972  0.4428  0.1067
  588MOL0     C79264   7.358   5.378   0.843 -0.2858  0.2151 -0.7192
  588MOL0     C79265   7.325   5.501   0.755 -0.7231 -0.4399  1.0651
  588MOL0     C79266   7.430   5.612   0.750  0.4386 -0.0307  0.6803
  588MOL0     C79267   7.541   5.574   0.650  0.4024 -0.0145  0.4676
  588MOL0     C79268   7.621   5.696   0.593  0.8823 -0.6343  0.0179
  588MOL0     O79269   7.712   5.676   0.485  0.8413 -0.4535  0.5021
  588MOL0     C79270   7.848   5.660   0.518  0.8163  0.2748  0.7150
  588MOL0     C79271   7.908   5.594   0.622  0.6670  0.4444  0.0213
  588MOL0     C79272   8.047   5.592   0.641  0.5884  0.4284 -0.1872
  588MOL0     C79273   8.126   5.651   0.544  0.0503 -0.5183 -0.3557
  588MOL0     C79274   8.272   5.615   0.537 -1.1007  0.4985  0.1481
  588MOL0     O79275   8.325   5.563   0.650 -0.1667  0.1199 -0.4764
  588MOL0     C79276   8.460   5.573   0.686 -0.4446 -0.4249  0.6712
  588MOL0     C79277   8.497   5.509   0.803 -0.6740  0.4876  0.5992
  588MOL0     C79278   8.626   5.507   0.856 -0.6319 -0.2330  0.6204
  588MOL0     C79279   8.730   5.559   0.784  0.0571 -0.4875 -0.0838
  588MOL0     O79280   8.860   5.564   0.822 -0.5066  0.9343 -0.6405
  588MOL0     C79281   8.894   5.494   0.952 -0.3588  0.6315 -0.3838
  588MOL0     C79282   9.040   5.529   0.973 -0.6885  0.3038  0.0258
  588MOL0     C79283   9.137   5.461   0.872  0.1462  0.0597 -1.2257
  588MOL0     C79284   9.285   5.515   0.875  0.2308 -0.5245  0.7257
  588MOL0     C79285   9.351   5.512   1.015  0.7569  0.4529  0.0756
  588MOL0     C79286   9.499   5.471   1.010 -0.3621  0.4089 -0.0568
  588MOL0     C79287   9.566   5.456   1.148 -0.1986 -0.3429 -0.1315
  588MOL0     C79288   9.501   5.362   1.247 -0.1600 -1.1244 -0.5520
  588MOL0    Cl79289   9.613   5.332   1.381 -0.6255 -0.1597  0.2768
  588MOL0     C79290   8.700   5.627   0.660 -0.7167  0.4206 -0.9099
  588MOL0     C79291   8.566   5.639   0.618  0.2888  0.5045 -0.0978
  588MOL0     O79292   8.331   5.635   0.433 -0.2554 -0.2229 -1.3662
  588MOL0     C79293   8.069   5.726   0.443 -0.4902 -1.0648  0.4461
  588MOL0     C79294   7.933   5.734   0.435  0.2375 -0.7693 -0.1260
  588MOL0     N79295   7.467   5.362   0.926 -0.2682 -0.2450 -0.4691
  588MOL0     N79296   7.452   5.246   0.983  1.3756 -0.6042 -0.0752
  588MOL0     C79297   6.500   5.006   0.191  0.4724  0.4992  0.3057
  588MOL0     C79298   6.366   5.012   0.149 -0.1037 -0.0891 -0.2221
  588MOL0     C79299   5.915   5.074   0.200  0.2683  0.7506 -0.3839
  588MOL0     C79300   5.890   5.039   0.070 -0.3264  0.8996 -0.3783
  588MOL0     C79301   5.772   5.054   0.003 -0.2203  0.1282 -0.1214
  588MOL0     C79302   5.662   5.110   0.076  0.3671  0.3040 -0.0262
  588MOL0     O79303   5.541   5.124   0.025  0.2451 -0.0576 -0.4478
  588MOL0     C79304   5.523   5.234  -0.060  0.1152  1.2392  0.1731
  588MOL0     C79305   5.386   5.262  -0.104 -0.0849 -0.2128 -0.8445
  588MOL0     C79306   5.298   5.325   0.005  1.0803  0.0744 -0.3521
  588MOL0     C79307   5.275   5.237   0.134  0.0802 -0.0548  0.6448
  588MOL0     C79308   5.173   5.290   0.222 -0.5730  0.0003  0.0985
  588MOL0     C79309   5.107   5.332   0.312 -0.3518 -0.9734  0.1048
  588MOL0     C79310   5.688   5.163   0.201 -0.5556 -0.0276  0.5804
  588MOL0     C79311   5.804   5.130   0.272 -0.3473  0.1241 -0.0664
  588MOL0     C79312   5.804   5.166   0.416  0.5262 -0.3487  0.3035
  588MOL0     H79313   6.219   4.811   0.391  2.9805 -3.0832  1.0671
  588MOL0     H79314   6.444   4.803   0.470 -1.2104  1.0501 -0.1339
  588MOL0     H79315   6.637   4.923   0.529  0.4491  1.8097 -0.3627
  588MOL0     H79316   6.710   4.770   0.468  1.0355 -0.6810 -2.4679
  588MOL0     H79317   6.874   5.025   0.468 -0.5933 -1.5049 -2.2484
  588MOL0     H79318   6.912   4.854   0.435  1.2113  0.4666 -1.4436
  588MOL0     H79319   6.848   4.799   0.672  0.4132 -0.7538 -1.5464
  588MOL0     H79320   6.853   4.981   0.703 -1.4810 -1.4036  1.0529
  588MOL0     H79321   7.065   4.775   0.644  3.4185  0.7703  1.0137
  588MOL0     H79322   7.091   4.933   0.579 -1.9684 -2.0253 -2.1248
  588MOL0     H79323   7.057   5.016   0.812  0.7745  0.3829 -0.7884
  588MOL0     H79324   7.068   4.849   0.878  0.4306  0.2235  0.1071
  588MOL0     H79325   7.272   4.804   0.757  0.3807  1.3432 -4.7482
  588MOL0     H79326   7.306   4.964   0.710  2.0137 -1.8984 -0.7344
  588MOL0     H79327   7.439   4.948   0.911  1.4095  0.2508  2.7235
  588MOL0     H79328   7.306   4.859   0.990 -1.2204  2.2745  1.2670
  588MOL0     H79329   7.172   5.081   0.993  0.1635 -0.4603 -0.2369
  588MOL0     H79330   7.306   5.051   1.097 -0.4356 -1.0374  0.1464
  588MOL0     H79331   7.182   5.256   0.801 -0.4053  0.7735 -0.6446
  588MOL0     H79332   7.282   5.477   0.657 -0.5711 -2.9001  1.5188
  588MOL0     H79333   7.240   5.542   0.809 -2.8312 -2.9257 -0.1197
  588MOL0     H79334   7.391   5.709   0.719  2.3980  0.6731  0.2572
  588MOL0     H79335   7.463   5.625   0.853  3.5902  0.7534 -0.3058
  588MOL0     H79336   7.485   5.529   0.568 -0.6929 -2.2205  2.2980
  588MOL0     H79337   7.594   5.490   0.697 -4.4359 -1.5292  4.0415
  588MOL0     H79338   7.663   5.754   0.675 -2.1121  2.0502 -0.1354
  588MOL0     H79339   7.552   5.764   0.542  2.3550 -0.5613 -1.9630
  588MOL0     H79340   7.854   5.550   0.705  0.1760  0.4193 -0.3077
  588MOL0     H79341   8.097   5.552   0.729  0.1957  0.5598  0.0997
  588MOL0     H79342   8.421   5.462   0.864 -0.9494  1.7625  1.2906
  588MOL0     H79343   8.653   5.450   0.944 -0.3090 -2.4672 -0.8218
  588MOL0     H79344   8.845   5.560   1.024  2.1085  4.0971 -1.6199
  588MOL0     H79345   8.878   5.386   0.957  3.6138 -0.0932  0.1365
  588MOL0     H79346   9.055   5.637   0.963  3.5183 -0.2795 -1.7980
  588MOL0     H79347   9.076   5.513   1.076 -0.0851  0.4177 -0.1640
  588MOL0     H79348   9.144   5.356   0.900  1.5416  0.1306 -1.2041
  588MOL0     H79349   9.094   5.474   0.772  0.3780 -1.3874 -1.5429
  588MOL0     H79350   9.285   5.616   0.832 -1.9169 -2.0780 -3.5776
  588MOL0     H79351   9.336   5.452   0.801 -1.2209  1.4962 -2.1899
  588MOL0     H79352   9.293   5.436   1.068 -0.3801 -0.2744 -2.0844
  588MOL0     H79353   9.333   5.605   1.068 -1.0247  0.1730  0.0111
  588MOL0     H79354   9.513   5.374   0.961  1.0448  0.4774  0.1751
  588MOL0     H79355   9.556   5.541   0.948 -1.5707  1.1659 -0.3430
  588MOL0     H79356   9.590   5.553   1.193 -0.9569 -1.1634  2.1812
  588MOL0     H79357   9.660   5.406   1.124 -0.9378 -1.8283 -0.0332
  588MOL0     H79358   9.409   5.408   1.283  0.7188  2.3138 -2.2200
  588MOL0     H79359   9.482   5.271   1.189  1.6901 -2.1521  0.3623
  588MOL0     H79360   8.776   5.672   0.596  0.9008  0.6355  1.0734
  588MOL0     H79361   8.555   5.707   0.534  0.9296 -0.2706 -0.8300
  588MOL0     H79362   8.121   5.779   0.364 -1.9742  0.6339  0.5224
  588MOL0     H79363   7.879   5.801   0.368  0.7470  1.9324  1.9672
  588MOL0     H79364   6.578   5.059   0.137  1.1202 -0.4368  0.2945
  588MOL0     H79365   6.336   5.058   0.055 -1.4426 -2.2252 -0.9181
  588MOL0     H79366   5.969   4.986   0.018  1.1177  0.9727  1.6392
  588MOL0     H79367   5.757   5.019  -0.099  0.9161 -0.1138 -0.2217
  588MOL0     H79368   5.570   5.200  -0.153 -1.8425  1.8370 -1.0769
  588MOL0     H79369   5.575   5.326  -0.031  1.2387  0.7745 -0.3076
  588MOL0     H79370   5.342   5.168  -0.138  1.3765 -1.2302 -0.0684
  588MOL0     H79371   5.393   5.328  -0.190  1.5849  1.5496  0.5309
  588MOL0     H79372   5.203   5.357  -0.038  1.5923  1.7059 -0.3255
  588MOL0     H79373   5.357   5.412   0.034  0.4389  0.4767 -0.2535
  588MOL0     H79374   5.244   5.140   0.093  0.7452 -0.4152  0.9841
  588MOL0     H79375   5.366   5.239   0.195 -2.2762  0.9490  4.4317
  588MOL0     H79376   5.048   5.377   0.389  0.3903 -1.2376  0.8415
  588MOL0     H79377   5.610   5.219   0.253 -0.2472  2.3114 -1.3205
  588MOL0     H79378   5.871   5.104   0.477 -0.0039  0.6014  1.9044
  588MOL0     H79379   5.827   5.272   0.423 -3.5866  0.6084  3.0763
  588MOL0     H79380   5.702   5.158   0.453 -1.2334  1.8472 -3.4097
  589MOL0     O79381   3.338   1.398   5.103  0.0315  1.3397  0.4298
  589MOL0     C79382   3.248   1.442   5.027 -0.7265  0.4025 -0.0500
  589MOL0     O79383   3.263   1.559   4.954 -0.6030 -0.6947  0.9078
  589MOL0     C79384   3.386   1.598   4.912  0.6235 -0.1129  0.2432
  589MOL0     C79385   3.471   1.513   4.839 -0.9375  0.1858  0.8487
  589MOL0     C79386   3.604   1.548   4.804 -0.2441 -0.4684  0.5036
  589MOL0     C79387   3.635   1.680   4.814 -0.3881  0.1529 -0.0701
  589MOL0     O79388   3.750   1.722   4.761 -0.5640 -0.6148 -0.1867
  589MOL0     C79389   3.816   1.838   4.810 -0.8026 -0.5325  0.5723
  589MOL0     C79390   3.971   1.814   4.832  0.0202  0.1613 -0.5384
  589MOL0     C79391   4.034   1.926   4.912 -0.1063  0.0923 -0.3330
  589MOL0     C79392   4.056   2.051   4.817  0.2963 -0.1888  0.0169
  589MOL0     C79393   4.190   2.108   4.828  0.0879 -0.3424 -0.4632
  589MOL0     C79394   4.299   2.023   4.751  0.5939  0.7652 -0.1003
  589MOL0     C79395   4.439   2.093   4.770 -0.2365 -0.2247  0.2291
  589MOL0     C79396   4.450   2.223   4.698  0.3312  0.7876 -0.0080
  589MOL0     N79397   4.597   2.269   4.696 -0.3925  0.4251 -0.1074
  589MOL0     C79398   4.683   2.260   4.807 -0.5943  0.8293  0.4772
  589MOL0     C79399   4.802   2.301   4.752  0.0857 -0.3761 -0.1145
  589MOL0     C79400   4.928   2.331   4.840  0.2902 -0.1643  0.0696
  589MOL0     C79401   5.019   2.212   4.882  0.0840 -0.3893 -0.0131
  589MOL0     C79402   5.078   2.120   4.769  0.6070 -0.6709 -0.4952
  589MOL0     C79403   5.218   2.175   4.709  1.0890  0.3560 -0.8924
  589MOL0     O79404   5.317   2.175   4.815  0.1336 -0.4108 -0.0277
  589MOL0     C79405   5.449   2.193   4.770  0.2715  0.4214 -0.8778
  589MOL0     C79406   5.549   2.140   4.851 -0.4475 -0.0853 -0.0164
  589MOL0     C79407   5.684   2.138   4.811 -0.6774  0.6303  0.0416
  589MOL0     C79408   5.731   2.196   4.694  1.0372  0.5055 -0.8108
  589MOL0     C79409   5.871   2.211   4.655 -0.3709  0.1927 -0.5022
  589MOL0     O79410   5.963   2.177   4.762 -0.0002 -0.1307 -0.8136
  589MOL0     C79411   6.086   2.122   4.736  0.3659  0.1183  0.2113
  589MOL0     C79412   6.128   2.015   4.814 -0.5953  0.7377 -0.3302
  589MOL0     C79413   6.268   1.969   4.806 -0.1301  0.7090 -0.0372
  589MOL0     C79414   6.363   2.046   4.734 -0.0414 -0.6989  0.3154
  589MOL0     O79415   6.492   2.013   4.709  0.0278 -0.0421 -0.6569
  589MOL0     C79416   6.578   1.928   4.788  0.1483  0.4715  0.5828
  589MOL0     C79417   6.604   1.969   4.935  0.3853  0.2697  0.5175
  589MOL0     C79418   6.715   2.074   4.948  0.2795  0.1838  0.2645
  589MOL0     C79419   6.790   2.062   5.075 -0.5390 -0.1443  0.1950
  589MOL0     C79420   6.929   2.137   5.092 -0.9836 -0.3213 -0.0228
  589MOL0     C79421   6.936   2.287   5.146  0.6736  0.4091  0.4879
  589MOL0     C79422   6.849   2.311   5.271  0.1837 -0.6587  0.0468
  589MOL0     C79423   6.733   2.400   5.231  0.1190 -0.1683 -0.2270
  589MOL0    Cl79424   6.607   2.392   5.360  0.3837 -0.4577  0.0102
  589MOL0     C79425   6.316   2.144   4.654  0.0168 -0.3399  0.4280
  589MOL0     C79426   6.181   2.187   4.658  0.0378  0.5537 -0.1222
  589MOL0     O79427   5.903   2.250   4.545 -0.3235 -1.0924  0.3608
  589MOL0     C79428   5.630   2.256   4.617  0.2811  0.3025  0.6675
  589MOL0     C79429   5.491   2.243   4.649  0.0453 -0.4241 -0.5168
  589MOL0     N79430   4.789   2.342   4.615 -0.3401  0.3273  0.6249
  589MOL0     N79431   4.667   2.315   4.582 -0.0202  0.0495 -0.3112
  589MOL0     C79432   3.543   1.771   4.862 -0.4834 -0.8454 -0.6764
  589MOL0     C79433   3.417   1.735   4.914 -0.4887  1.3849  0.5336
  589MOL0     C79434   3.112   1.375   5.024 -0.8042  0.2574  1.2790
  589MOL0     C79435   3.105   1.255   5.093  0.1741 -0.0422 -0.3848
  589MOL0     C79436   2.990   1.182   5.100  0.8626  0.3074 -0.0940
  589MOL0     C79437   2.876   1.229   5.022  0.0527  0.4529  0.0311
  589MOL0     O79438   2.762   1.150   5.029 -0.2764 -0.6841  0.1497
  589MOL0     C79439   2.665   1.168   4.918  0.3422 -0.7246  1.5328
  589MOL0     C79440   2.713   1.110   4.785  0.5600 -0.3679 -1.2000
  589MOL0     C79441   2.780   0.972   4.789 -0.4931 -0.2031  0.1560
  589MOL0     C79442   2.696   0.863   4.853  0.7594  0.4196 -0.1228
  589MOL0     C79443   2.564   0.842   4.783 -0.9353  0.1277  0.5137
  589MOL0     C79444   2.456   0.833   4.737 -0.1678  0.2219 -0.1858
  589MOL0     C79445   2.884   1.351   4.957 -0.2042  0.0719  0.7965
  589MOL0     C79446   3.000   1.427   4.957  0.9555 -0.1427  1.0989
  589MOL0     C79447   2.978   1.559   4.883 -0.3118 -1.2661  0.6590
  589MOL0     H79448   3.452   1.407   4.826  0.2025 -0.0992  1.4653
  589MOL0     H79449   3.666   1.471   4.762 -2.5795 -0.7752 -2.7358
  589MOL0     H79450   3.802   1.907   4.726 -0.1138  0.0996  0.9574
  589MOL0     H79451   3.773   1.871   4.905  0.1624 -1.6140  1.4134
  589MOL0     H79452   4.021   1.800   4.736  1.0827 -1.0440  0.1565
  589MOL0     H79453   3.971   1.715   4.880 -3.1644  0.0054 -0.6033
  589MOL0     H79454   4.129   1.890   4.952 -1.1799 -2.1533  0.3893
  589MOL0     H79455   3.963   1.946   4.992 -1.0729  1.8261 -1.5780
  589MOL0     H79456   4.038   2.028   4.711 -2.8619  0.5657  0.3000
  589MOL0     H79457   3.987   2.130   4.850  0.5478 -0.8495  2.2603
  589MOL0     H79458   4.187   2.212   4.795 -0.1841 -0.2657 -0.1958
  589MOL0     H79459   4.216   2.114   4.934 -0.2984 -2.1622 -0.2246
  589MOL0     H79460   4.295   1.916   4.775  2.0036  0.6326 -0.4034
  589MOL0     H79461   4.280   2.020   4.643 -0.0988  2.1932 -0.0479
  589MOL0     H79462   4.513   2.023   4.732 -1.8162 -1.7695 -0.1426
  589MOL0     H79463   4.454   2.103   4.877  0.3426  1.6935  0.0035
  589MOL0     H79464   4.410   2.213   4.596 -1.5090 -0.5487  0.7866
  589MOL0     H79465   4.383   2.305   4.728 -1.0794  0.1046 -1.1529
  589MOL0     H79466   4.663   2.246   4.913 -0.9675 -1.3324  0.1698
  589MOL0     H79467   4.994   2.393   4.779 -3.5573  3.2029 -1.1458
  589MOL0     H79468   4.895   2.374   4.935  0.3837 -3.0030  1.5105
  589MOL0     H79469   5.098   2.247   4.949  3.2315  0.4136 -3.7895
  589MOL0     H79470   4.957   2.138   4.934  1.2434 -0.2538  1.6418
  589MOL0     H79471   5.014   2.122   4.680  2.0269  1.2217 -1.5414
  589MOL0     H79472   5.106   2.022   4.810 -0.4255 -1.0404 -0.6272
  589MOL0     H79473   5.212   2.269   4.654 -2.2597  0.5561 -0.3699
  589MOL0     H79474   5.245   2.104   4.631 -2.6962 -1.9339 -0.3500
  589MOL0     H79475   5.530   2.097   4.948  1.8747  0.0836  0.5735
  589MOL0     H79476   5.752   2.084   4.876  1.3795  1.1056 -1.6370
  589MOL0     H79477   6.060   1.964   4.882 -3.1301  1.4006 -2.1987
  589MOL0     H79478   6.306   1.881   4.858 -1.8437  0.8765  1.6162
  589MOL0     H79479   6.545   1.824   4.789 -0.4228  0.6438  2.2146
  589MOL0     H79480   6.676   1.910   4.743  0.0611  0.9030  0.2053
  589MOL0     H79481   6.511   1.991   4.987 -0.6395 -3.0451  0.3112
  589MOL0     H79482   6.634   1.878   4.987 -1.4414  0.4494  1.9395
  589MOL0     H79483   6.779   2.079   4.859  1.2248  0.5964  0.9453
  589MOL0     H79484   6.655   2.165   4.955 -2.5263 -1.2254 -2.7048
  589MOL0     H79485   6.809   1.954   5.082 -1.1607 -0.5110 -2.7646
  589MOL0     H79486   6.722   2.086   5.157  0.8439 -0.3947  1.4683
  589MOL0     H79487   6.969   2.138   4.990 -0.0934 -0.8405  0.3069
  589MOL0     H79488   6.993   2.071   5.152 -2.5721 -3.0936 -1.2211
  589MOL0     H79489   7.041   2.316   5.157  1.1891 -1.8632  2.1892
  589MOL0     H79490   6.890   2.340   5.062 -1.8625 -2.6352 -0.2307
  589MOL0     H79491   6.902   2.363   5.351  0.5804 -2.8735  1.2726
  589MOL0     H79492   6.807   2.219   5.313  0.3847 -1.4272 -1.3752
  589MOL0     H79493   6.770   2.499   5.205 -0.0278 -0.7111 -2.7881
  589MOL0     H79494   6.680   2.357   5.146 -1.1824 -1.7059  1.2863
  589MOL0     H79495   6.387   2.178   4.580 -1.7130 -0.0671 -1.1635
  589MOL0     H79496   6.146   2.282   4.620  1.0442  1.5314  1.3220
  589MOL0     H79497   5.673   2.304   4.530 -1.3320 -3.0813 -2.2243
  589MOL0     H79498   5.424   2.273   4.570  0.8713 -1.6214 -1.7068
  589MOL0     H79499   3.561   1.878   4.862  1.5166 -1.0769  2.0466
  589MOL0     H79500   3.339   1.804   4.944 -2.0560  2.6955 -5.1899
  589MOL0     H79501   3.197   1.211   5.132  2.4500  1.5520 -3.4635
  589MOL0     H79502   2.986   1.093   5.163  1.2835  1.6687  1.9588
  589MOL0     H79503   2.641   1.272   4.895  2.6367 -0.2373  1.0497
  589MOL0     H79504   2.574   1.110   4.934  0.9738 -1.5063  2.4040
  589MOL0     H79505   2.787   1.179   4.743  0.3866  1.3382  1.1475
  589MOL0     H79506   2.629   1.087   4.718 -1.9756  2.8760  0.5713
  589MOL0     H79507   2.872   0.970   4.848 -0.1766  3.6668  0.0109
  589MOL0     H79508   2.808   0.946   4.687  2.2412 -0.9351  1.0102
  589MOL0     H79509   2.759   0.775   4.835  1.6474  0.8941  0.5788
  589MOL0     H79510   2.674   0.879   4.959 -1.6156  0.1291 -0.5175
  589MOL0     H79511   2.359   0.800   4.706  0.6065 -3.1339  0.4928
  589MOL0     H79512   2.797   1.384   4.902  0.4033  2.0926  0.9691
  589MOL0     H79513   3.052   1.578   4.805 -1.0663  4.1659  0.8443
  589MOL0     H79514   2.882   1.564   4.831  0.2968 -0.9090 -0.4636
  589MOL0     H79515   2.981   1.651   4.943 -1.2164 -0.3015 -0.7042
  590MOL0     O79516   1.179   2.450   6.862 -0.4976 -0.4151 -0.6171
  590MOL0     C79517   1.091   2.367   6.876  0.2882 -0.0264  0.8035
  590MOL0     O79518   1.112   2.238   6.903  0.4850  0.1329  0.2409
  590MOL0     C79519   1.237   2.192   6.880 -0.1347 -0.0460  0.2952
  590MOL0     C79520   1.296   2.107   6.972  0.6547  0.2585  0.4824
  590MOL0     C79521   1.412   2.037   6.942 -0.2734  0.3641  0.8930
  590MOL0     C79522   1.466   2.037   6.817  0.0578  0.7489 -0.8994
  590MOL0     O79523   1.591   1.982   6.798  0.2671  0.5099 -0.1360
  590MOL0     C79524   1.603   1.844   6.821 -0.5077  0.0193 -0.6310
  590MOL0     C79525   1.716   1.773   6.736 -0.9178 -1.2930 -0.5232
  590MOL0     C79526   1.842   1.865   6.742 -0.5669 -0.0358 -1.0130
  590MOL0     C79527   1.947   1.819   6.645 -1.0441 -0.7557  0.8117
  590MOL0     C79528   2.079   1.891   6.703  0.2027 -0.6602 -0.8745
  590MOL0     C79529   2.130   1.813   6.820 -0.0794 -0.5971 -0.1656
  590MOL0     C79530   2.262   1.868   6.863 -0.3825  0.6050 -0.1542
  590MOL0     C79531   2.322   1.769   6.968 -1.1628  0.2926  0.2524
  590MOL0     N79532   2.454   1.812   7.018  0.1698 -0.0568 -0.3016
  590MOL0     C79533   2.567   1.855   6.960 -0.1794 -0.4766 -0.4113
  590MOL0     C79534   2.651   1.889   7.061  0.2391  0.1087 -0.4007
  590MOL0     C79535   2.786   1.942   7.042  0.2103 -0.0038 -0.0786
  590MOL0     C79536   2.820   2.043   7.154 -0.3413 -0.2028  0.2084
  590MOL0     C79537   2.945   2.119   7.120  0.3589 -0.2306 -0.0590
  590MOL0     C79538   3.065   2.043   7.170  0.4061  0.2280 -0.2635
  590MOL0     O79539   3.179   2.098   7.100 -0.4712 -0.6546 -0.5370
  590MOL0     C79540   3.309   2.067   7.144  0.1979 -0.1686 -0.3838
  590MOL0     C79541   3.409   2.080   7.048  0.5241 -1.0934  0.4041
  590MOL0     C79542   3.547   2.051   7.080  0.5993  0.2162 -0.0186
  590MOL0     C79543   3.586   1.997   7.206 -0.4179  0.2638  0.1317
  590MOL0     C79544   3.722   1.966   7.239 -1.0257  0.1120 -0.7676
  590MOL0     O79545   3.735   1.874   7.334 -0.6382 -0.0198  0.2371
  590MOL0     C79546   3.852   1.867   7.411  0.2066  0.1398  1.0782
  590MOL0     C79547   3.877   1.742   7.471  1.4116 -0.0095 -0.5372
  590MOL0     C79548   3.999   1.719   7.538  0.7508 -0.5468 -0.3288
  590MOL0     C79549   4.096   1.819   7.554 -0.2925 -0.2645 -0.5738
  590MOL0     O79550   4.207   1.809   7.639  0.8115 -0.7556 -0.0351
  590MOL0     C79551   4.225   1.699   7.732 -0.4314 -0.1527 -0.4471
  590MOL0     C79552   4.345   1.738   7.816  0.2557 -0.3303 -0.4962
  590MOL0     C79553   4.300   1.770   7.961  0.2637  0.6125  0.0804
  590MOL0     C79554   4.422   1.796   8.046  0.2156  0.1927  0.1086
  590MOL0     C79555   4.395   1.791   8.198 -0.2158 -0.8915 -0.4754
  590MOL0     C79556   4.327   1.916   8.251 -0.2494  0.4892  0.2633
  590MOL0     C79557   4.416   2.038   8.242 -1.1852  0.5039  0.8739
  590MOL0     C79558   4.542   2.038   8.326  0.5337 -0.1825  0.7696
  590MOL0    Cl79559   4.502   1.986   8.500  0.0100  0.5200 -0.1140
  590MOL0     C79560   4.069   1.945   7.500  0.4209  0.8929  0.2698
  590MOL0     C79561   3.947   1.964   7.429  0.1046  0.1767 -0.1494
  590MOL0     O79562   3.817   2.027   7.179  0.0355  0.2450 -0.2329
  590MOL0     C79563   3.481   1.978   7.297 -0.4519  0.4655  0.7819
  590MOL0     C79564   3.350   2.014   7.267  0.0064 -0.4058  0.3032
  590MOL0     N79565   2.591   1.872   7.182  0.3483  0.2730  0.7999
  590MOL0     N79566   2.476   1.827   7.154  0.0058 -0.4340 -0.0938
  590MOL0     C79567   1.415   2.126   6.725 -0.6327 -0.6070  0.6218
  590MOL0     C79568   1.299   2.198   6.749 -0.0756  0.0859  0.6641
  590MOL0     C79569   0.955   2.426   6.873 -0.3663 -0.1152  0.3088
  590MOL0     C79570   0.843   2.348   6.902 -0.0992  0.5769  0.3793
  590MOL0     C79571   0.711   2.396   6.922  0.0529  1.0866 -0.6371
  590MOL0     C79572   0.683   2.530   6.888 -0.2089  0.4469  0.0202
  590MOL0     O79573   0.563   2.584   6.899  0.0186 -0.2852 -0.3414
  590MOL0     C79574   0.452   2.502   6.939  0.3912  0.2457 -0.4849
  590MOL0     C79575   0.441   2.497   7.093  0.3294  0.4057 -1.0752
  590MOL0     C79576   0.331   2.393   7.152  0.2305  0.2108  1.0502
  590MOL0     C79577   0.193   2.459   7.155  0.1334 -0.5952  0.4444
  590MOL0     C79578   0.120   2.482   7.025 -0.3052 -1.1152 -0.4209
  590MOL0     C79579   0.063   2.510   6.926 -0.5319  1.0529 -0.1583
  590MOL0     C79580   0.787   2.609   6.839 -0.4038 -0.2156  0.5975
  590MOL0     C79581   0.922   2.561   6.828  0.5957  0.9646  0.9389
  590MOL0     C79582   1.022   2.654   6.765  0.9934 -0.4663 -0.1327
  590MOL0     H79583   1.251   2.096   7.070  2.3949 -0.4699  1.2435
  590MOL0     H79584   1.443   1.972   7.023 -2.2822 -0.9613  0.6880
  590MOL0     H79585   1.628   1.838   6.928  2.5422  1.9955 -1.1117
  590MOL0     H79586   1.507   1.792   6.817 -0.8128  0.5939 -0.9311
  590MOL0     H79587   1.690   1.767   6.630 -2.6269  1.2514 -0.3300
  590MOL0     H79588   1.746   1.674   6.772  2.8308 -0.7486 -1.6979
  590MOL0     H79589   1.879   1.849   6.843 -1.4973  0.3637 -0.5938
  590MOL0     H79590   1.813   1.969   6.728  3.0593  1.0385 -1.5726
  590MOL0     H79591   1.971   1.713   6.633  0.6296 -0.1825 -1.7686
  590MOL0     H79592   1.920   1.840   6.541  1.7856 -0.8023 -0.0227
  590MOL0     H79593   2.161   1.899   6.632  0.1010 -1.4299 -1.0883
  590MOL0     H79594   2.072   1.996   6.735 -2.7964 -1.3057  1.0064
  590MOL0     H79595   2.072   1.828   6.912  0.4201  0.4760 -0.0056
  590MOL0     H79596   2.122   1.705   6.806 -3.0050 -0.6353  1.0611
  590MOL0     H79597   2.260   1.966   6.912  0.4125  0.3390  0.4195
  590MOL0     H79598   2.327   1.856   6.776 -2.5497 -3.1217 -1.4913
  590MOL0     H79599   2.248   1.749   7.046 -1.3286  1.5850  0.4527
  590MOL0     H79600   2.344   1.677   6.914  2.8798 -0.9890  3.5943
  590MOL0     H79601   2.591   1.869   6.855 -1.2731 -0.5166 -0.6780
  590MOL0     H79602   2.858   1.859   7.038  2.3281  1.7387 -0.1940
  590MOL0     H79603   2.788   1.990   6.943 -0.0180  0.1040 -0.0303
  590MOL0     H79604   2.738   2.115   7.164 -1.1967 -1.3550  1.8854
  590MOL0     H79605   2.831   1.998   7.252  2.2448  0.4701  0.3018
  590MOL0     H79606   2.939   2.217   7.168  1.6806  0.8362 -1.9348
  590MOL0     H79607   2.940   2.140   7.012 -1.9154 -0.7649 -0.1034
  590MOL0     H79608   3.053   1.939   7.140 -2.7667  0.1860  0.8638
  590MOL0     H79609   3.079   2.038   7.278 -4.5831  1.8180  0.7045
  590MOL0     H79610   3.402   2.105   6.943  1.0917 -0.4480  0.5072
  590MOL0     H79611   3.617   2.075   7.000  1.5648  3.3816  1.6104
  590MOL0     H79612   3.807   1.666   7.438  2.0102 -0.7216 -0.1832
  590MOL0     H79613   4.027   1.622   7.577  0.7457 -0.8451 -1.0549
  590MOL0     H79614   4.137   1.687   7.797 -0.5120 -0.1861 -0.5623
  590MOL0     H79615   4.238   1.607   7.675 -2.0350 -0.5285 -0.2661
  590MOL0     H79616   4.414   1.653   7.827 -0.6416 -0.9146  0.8325
  590MOL0     H79617   4.396   1.824   7.772  1.5594 -0.2505  1.0736
  590MOL0     H79618   4.228   1.852   7.964  0.6452  0.9479  0.1023
  590MOL0     H79619   4.250   1.682   8.002 -0.2909  0.6687 -0.4590
  590MOL0     H79620   4.469   1.888   8.011 -1.2233  0.6346 -0.7698
  590MOL0     H79621   4.495   1.718   8.025  1.8817  2.1238 -1.7398
  590MOL0     H79622   4.491   1.770   8.246 -1.0089 -2.3952  0.5472
  590MOL0     H79623   4.333   1.703   8.215 -0.0088 -1.4070 -2.1372
  590MOL0     H79624   4.235   1.935   8.196 -0.0440  1.3870  0.2109
  590MOL0     H79625   4.285   1.896   8.350  1.0274  1.4731  1.0425
  590MOL0     H79626   4.356   2.126   8.270 -0.6550  0.3040  2.8100
  590MOL0     H79627   4.455   2.059   8.142  2.0061  1.5801  2.1813
  590MOL0     H79628   4.616   1.972   8.280 -0.4819  0.0101 -1.2466
  590MOL0     H79629   4.581   2.140   8.320 -1.3400  0.4728 -2.3557
  590MOL0     H79630   4.136   2.029   7.510  1.3889  0.2358 -0.5243
  590MOL0     H79631   3.935   2.065   7.391 -0.4597  0.3008  0.3520
  590MOL0     H79632   3.504   1.920   7.386 -0.9836 -1.4871 -0.3027
  590MOL0     H79633   3.274   1.997   7.343 -1.1851 -1.0875 -0.9974
  590MOL0     H79634   1.467   2.125   6.630 -0.8141 -2.3851  0.5107
  590MOL0     H79635   1.250   2.258   6.673 -0.1796  0.8240  1.3010
  590MOL0     H79636   0.855   2.246   6.939 -0.4340  0.4859  0.2419
  590MOL0     H79637   0.643   2.320   6.959 -0.2633  2.0683  0.8826
  590MOL0     H79638   0.459   2.404   6.891  1.9671  0.2029 -0.2248
  590MOL0     H79639   0.369   2.563   6.903  0.8974 -0.0136 -2.1766
  590MOL0     H79640   0.419   2.595   7.135  3.0255  0.7975 -0.3922
  590MOL0     H79641   0.542   2.466   7.123 -0.0923 -0.0994 -0.1153
  590MOL0     H79642   0.352   2.374   7.257 -0.2055 -1.0836  0.9199
  590MOL0     H79643   0.335   2.294   7.106 -2.6044 -0.2798  1.7009
  590MOL0     H79644   0.133   2.392   7.217 -0.2659  0.0010  0.7077
  590MOL0     H79645   0.205   2.555   7.205  0.4652 -1.5383  2.2450
  590MOL0     H79646  -0.003   2.532   6.844  0.7937  0.2099 -1.5089
  590MOL0     H79647   0.767   2.708   6.799  0.6780  0.4672  1.6779
  590MOL0     H79648   1.092   2.690   6.842  1.3126 -1.9375  0.3021
  590MOL0     H79649   1.084   2.609   6.687  3.1433  2.4280 -0.2440
  590MOL0     H79650   0.972   2.746   6.733  2.3345  0.1164 -0.6265
  591MOL0     O79651   9.840   8.711   4.985 -0.0858  0.6843 -0.1670
  591MOL0     C79652   9.880   8.651   4.886 -0.3370 -0.2775  0.5878
  591MOL0     O79653   9.824   8.537   4.840  0.3461  0.6815  0.1770
  591MOL0     C79654   9.689   8.532   4.850  0.2663 -0.2387 -0.0941
  591MOL0     C79655   9.617   8.480   4.952  0.9668  0.0795 -0.2401
  591MOL0     C79656   9.481   8.485   4.955 -0.4477  0.2662 -0.8758
  591MOL0     C79657   9.411   8.546   4.849 -0.4138 -0.1475 -1.0713
  591MOL0     O79658   9.272   8.541   4.827  0.3909 -0.0912 -0.1565
  591MOL0     C79659   9.186   8.455   4.905  0.0430 -0.0344  0.6269
  591MOL0     C79660   9.047   8.459   4.846  0.6611  0.4832  0.0078
  591MOL0     C79661   8.949   8.356   4.913  0.0173 -0.1781  0.5549
  591MOL0     C79662   8.810   8.391   4.881  0.8770 -0.1266  0.4810
  591MOL0     C79663   8.723   8.274   4.946  0.1027 -0.2235  0.6257
  591MOL0     C79664   8.571   8.283   4.921  0.4507 -0.3193  0.1934
  591MOL0     C79665   8.499   8.149   4.955  0.0363 -0.1888 -0.3629
  591MOL0     C79666   8.346   8.156   4.917 -0.1592 -0.1657 -0.6160
  591MOL0     N79667   8.316   8.115   4.780 -0.8413 -0.8111  0.5300
  591MOL0     C79668   8.351   7.990   4.730  0.7296  0.9364 -0.1281
  591MOL0     C79669   8.322   7.994   4.598 -0.6106  0.5476 -0.3210
  591MOL0     C79670   8.371   7.900   4.484  0.2225 -0.0777 -0.1621
  591MOL0     C79671   8.262   7.809   4.433 -0.3791  0.3060 -1.0142
  591MOL0     C79672   8.318   7.669   4.402 -0.8631  0.2514 -0.0972
  591MOL0     C79673   8.401   7.671   4.268 -0.2511  0.1991 -0.4420
  591MOL0     O79674   8.542   7.707   4.303 -0.0753 -0.1926  0.1868
  591MOL0     C79675   8.641   7.611   4.303 -0.1409 -0.1486 -0.2623
  591MOL0     C79676   8.629   7.469   4.286  0.6337  0.8460 -0.1716
  591MOL0     C79677   8.739   7.388   4.263 -1.2260  0.0856 -0.4982
  591MOL0     C79678   8.869   7.434   4.284 -0.3313  0.1092 -0.1668
  591MOL0     C79679   8.992   7.349   4.263 -0.0687 -0.2604  0.5636
  591MOL0     O79680   9.111   7.413   4.268  0.3635  0.1960  1.1309
  591MOL0     C79681   9.222   7.331   4.258  0.2559 -0.2570 -0.3785
  591MOL0     C79682   9.286   7.312   4.131 -0.0319 -0.9311  0.1815
  591MOL0     C79683   9.396   7.232   4.130  0.5083 -0.0881  0.0369
  591MOL0     C79684   9.455   7.172   4.242  0.6757 -0.6695  0.0186
  591MOL0     O79685   9.563   7.088   4.239  0.0244 -0.9079 -0.2482
  591MOL0     C79686   9.663   7.115   4.143 -0.2017 -0.9364 -0.1453
  591MOL0     C79687   9.808   7.067   4.187 -0.2080  0.1506 -0.1187
  591MOL0     C79688   9.911   7.137   4.103  0.8870 -0.1155  0.6633
  591MOL0     C79689  10.052   7.081   4.135 -0.7353 -0.1273  0.2041
  591MOL0     C79690  10.165   7.165   4.075 -0.3147  0.4839  1.1673
  591MOL0     C79691  10.306   7.094   4.045  0.7726  0.1921  0.5743
  591MOL0     C79692  10.412   7.196   4.002 -0.5208 -0.0928  0.6757
  591MOL0     C79693  10.551   7.131   3.990 -0.0880  0.1191  0.5819
  591MOL0    Cl79694  10.540   6.995   3.886  0.0687  0.1898 -0.4365
  591MOL0     C79695   9.398   7.202   4.362  0.2912  0.8187  0.1043
  591MOL0     C79696   9.278   7.278   4.375  0.3838 -0.4728 -0.1954
  591MOL0     O79697   8.972   7.227   4.259  0.0493  0.6005  0.1226
  591MOL0     C79698   8.882   7.569   4.318 -0.5254 -0.8174  0.6519
  591MOL0     C79699   8.770   7.652   4.328 -0.0789  0.3624  0.9826
  591MOL0     N79700   8.258   8.117   4.573 -0.1198  0.1434  0.3556
  591MOL0     N79701   8.245   8.183   4.681  0.0802 -0.4924 -0.1495
  591MOL0     C79702   9.487   8.604   4.745 -0.4624  0.3822  0.4940
  591MOL0     C79703   9.622   8.591   4.743 -0.0691 -0.0986 -0.6658
  591MOL0     C79704  10.012   8.692   4.828 -0.5476  0.0217  0.0680
  591MOL0     C79705  10.037   8.636   4.706  0.0709 -0.2756 -0.3078
  591MOL0     C79706  10.151   8.677   4.638 -0.6708  0.2669 -0.4330
  591MOL0     C79707  10.245   8.763   4.699 -0.3451  0.2197  0.4463
  591MOL0     O79708  10.361   8.799   4.623 -0.3256  0.3828  0.4666
  591MOL0     C79709  10.492   8.767   4.681  0.1971  0.0284 -0.0623
  591MOL0     C79710  10.573   8.888   4.717 -0.1943 -1.1553 -1.0740
  591MOL0     C79711  10.674   8.851   4.824 -0.4691 -0.7612 -0.0018
  591MOL0     C79712  10.629   8.819   4.971  0.0888 -0.2314  0.3620
  591MOL0     C79713  10.540   8.918   5.036  0.7706  0.5684  0.8883
  591MOL0     C79714  10.477   9.016   5.061 -0.2868  0.4015  0.5920
  591MOL0     C79715  10.223   8.819   4.825  0.5743 -0.0520  0.1927
  591MOL0     C79716  10.095   8.791   4.881  0.9176  0.3375  0.0987
  591MOL0     C79717  10.062   8.877   5.003  1.0287 -0.3805 -0.6577
  591MOL0     H79718   9.673   8.428   5.030 -0.3610  1.2471  1.5730
  591MOL0     H79719   9.424   8.432   5.030 -1.1551  1.6775 -0.4031
  591MOL0     H79720   9.218   8.351   4.902 -0.7686 -0.2743 -2.4332
  591MOL0     H79721   9.178   8.493   5.008  0.8924 -0.2048  0.7611
  591MOL0     H79722   9.057   8.431   4.740 -0.3465  1.4023 -0.3525
  591MOL0     H79723   9.000   8.555   4.868  0.0653  0.3530 -0.6355
  591MOL0     H79724   8.971   8.350   5.020  3.2172  0.2250  0.0121
  591MOL0     H79725   8.971   8.259   4.869  0.4008 -0.0510  0.4641
  591MOL0     H79726   8.785   8.487   4.927  0.4051  0.6208 -1.2588
  591MOL0     H79727   8.805   8.402   4.772  0.5867  2.2104  0.6781
  591MOL0     H79728   8.743   8.179   4.895 -3.2349 -0.6136 -0.1825
  591MOL0     H79729   8.748   8.261   5.052  0.0419 -2.5078  0.4131
  591MOL0     H79730   8.531   8.364   4.983 -0.0909 -1.1083  0.9164
  591MOL0     H79731   8.534   8.294   4.819 -2.1734 -2.3674  0.7704
  591MOL0     H79732   8.504   8.144   5.064 -0.4664 -3.4032 -0.3690
  591MOL0     H79733   8.543   8.056   4.918 -2.8667 -1.4225 -1.0038
  591MOL0     H79734   8.288   8.094   4.985 -1.3994  1.7085  0.1409
  591MOL0     H79735   8.313   8.259   4.937  0.0257 -0.1131 -0.5775
  591MOL0     H79736   8.402   7.918   4.792 -1.1999 -0.2970  0.1314
  591MOL0     H79737   8.404   7.951   4.393  1.1084  1.9509  1.2188
  591MOL0     H79738   8.452   7.839   4.527 -1.0346 -0.9463  1.0827
  591MOL0     H79739   8.187   7.796   4.512  0.7994  3.4463  0.8121
  591MOL0     H79740   8.200   7.852   4.353 -1.7959 -0.7887 -0.5465
  591MOL0     H79741   8.239   7.593   4.394  1.4598 -2.2082 -1.4378
  591MOL0     H79742   8.384   7.642   4.485  0.4715 -1.6931 -1.6920
  591MOL0     H79743   8.362   7.750   4.203  1.1997 -0.2508 -1.9174
  591MOL0     H79744   8.399   7.573   4.219 -0.0133 -0.9552  1.7096
  591MOL0     H79745   8.531   7.427   4.266  1.1775  0.1892 -1.6326
  591MOL0     H79746   8.733   7.282   4.241  2.8775 -0.0039 -2.0847
  591MOL0     H79747   9.251   7.359   4.040 -3.2392 -2.0116  0.7438
  591MOL0     H79748   9.435   7.208   4.031 -1.3700  1.9730 -1.3163
  591MOL0     H79749   9.644   7.072   4.044  2.0793  2.1242 -2.0713
  591MOL0     H79750   9.682   7.221   4.128  3.5633 -1.6224 -1.2835
  591MOL0     H79751   9.819   7.099   4.291 -1.4257  1.8295 -0.4639
  591MOL0     H79752   9.823   6.959   4.188  1.7267  0.3847  0.2720
  591MOL0     H79753   9.886   7.099   4.003 -2.6971  0.1343  1.3493
  591MOL0     H79754   9.898   7.245   4.116  1.4967  0.0898 -0.3007
  591MOL0     H79755  10.038   6.980   4.098 -2.1244  0.7637 -1.8906
  591MOL0     H79756  10.068   7.074   4.243  2.4302 -1.6346 -0.2404
  591MOL0     H79757  10.183   7.251   4.139  1.4687  1.2231 -0.2600
  591MOL0     H79758  10.129   7.193   3.976  1.7017 -4.8953 -1.5166
  591MOL0     H79759  10.329   7.036   4.135 -0.0096  0.7145  1.1386
  591MOL0     H79760  10.302   7.017   3.968  1.5236  0.0246  0.6944
  591MOL0     H79761  10.408   7.285   4.066  0.8152  0.8722 -0.5261
  591MOL0     H79762  10.385   7.231   3.902 -1.0498  1.9422  1.4797
  591MOL0     H79763  10.609   7.207   3.936 -2.4575  2.5070  1.1867
  591MOL0     H79764  10.599   7.102   4.085 -0.5430 -2.5694  0.0733
  591MOL0     H79765   9.453   7.163   4.447 -0.3710  1.4163  0.8228
  591MOL0     H79766   9.235   7.296   4.473  0.2993  0.3309 -0.3722
  591MOL0     H79767   8.983   7.605   4.338  0.0675 -2.9717  1.8395
  591MOL0     H79768   8.789   7.752   4.365  1.6578  0.3665  0.1914
  591MOL0     H79769   9.441   8.645   4.656  0.4475  0.7563  0.1788
  591MOL0     H79770   9.660   8.644   4.656 -2.3793 -0.0774 -1.7348
  591MOL0     H79771   9.981   8.565   4.645 -0.8581 -0.0678  0.2760
  591MOL0     H79772  10.175   8.639   4.539  4.1078 -1.8895  1.2730
  591MOL0     H79773  10.534   8.714   4.595 -0.2518  0.1339 -0.3477
  591MOL0     H79774  10.480   8.700   4.766 -1.2093  0.2993 -0.0321
  591MOL0     H79775  10.502   8.960   4.758  0.5183 -0.9131 -0.2482
  591MOL0     H79776  10.627   8.930   4.632 -1.3736  2.1027 -0.3741
  591MOL0     H79777  10.750   8.929   4.831  1.3710 -2.4032 -0.8221
  591MOL0     H79778  10.734   8.764   4.796  1.4410  0.0463  1.3822
  591MOL0     H79779  10.579   8.722   4.976  0.5592 -0.5055 -0.1220
  591MOL0     H79780  10.723   8.810   5.025 -1.4512 -2.0814  2.9516
  591MOL0     H79781  10.418   9.103   5.077  0.5025  0.8105  1.3871
  591MOL0     H79782  10.292   8.888   4.872  0.9829  0.6913 -1.4501
  591MOL0     H79783  10.149   8.922   5.053  0.4621 -0.4533  0.4152
  591MOL0     H79784   9.972   8.939   4.997  1.4820  0.7718  2.5102
  591MOL0     H79785  10.044   8.801   5.080  4.1958 -0.1856  0.4321
  592MOL0     O79786   0.301   0.936   8.123 -0.0760 -0.7644 -0.5324
  592MOL0     C79787   0.267   1.032   8.062 -0.2209 -0.8295  0.3609
  592MOL0     O79788   0.351   1.130   8.026  0.3214 -0.2490 -0.1944
  592MOL0     C79789   0.466   1.148   8.094 -0.9312  0.7300 -0.9568
  592MOL0     C79790   0.469   1.183   8.231  0.7659  0.3881  0.9373
  592MOL0     C79791   0.587   1.189   8.303 -0.7529 -0.2636  0.4118
  592MOL0     C79792   0.713   1.172   8.238  0.3525  0.3961  0.1288
  592MOL0     O79793   0.840   1.169   8.294  0.1115  0.8649  0.1313
  592MOL0     C79794   0.844   1.194   8.435  0.0260 -0.5076  0.5219
  592MOL0     C79795   0.985   1.188   8.491  0.1241  1.1066 -0.3904
  592MOL0     C79796   1.045   1.051   8.470  0.6099  0.9546 -1.1387
  592MOL0     C79797   1.191   1.051   8.494 -0.4586 -1.0406  0.2731
  592MOL0     C79798   1.261   0.914   8.460  0.3849  0.1497 -0.5113
  592MOL0     C79799   1.240   0.819   8.573 -0.5625  0.1167 -0.7412
  592MOL0     C79800   1.346   0.708   8.560 -0.7481 -0.2260 -0.3219
  592MOL0     C79801   1.369   0.653   8.695 -0.1025  0.0342  0.3017
  592MOL0     N79802   1.255   0.585   8.759 -0.9845 -0.1049  0.5104
  592MOL0     C79803   1.142   0.541   8.697 -0.1419  0.2715 -0.1017
  592MOL0     C79804   1.054   0.528   8.792 -0.1993 -0.6379 -0.3336
  592MOL0     C79805   0.911   0.484   8.771  0.3480  0.3729 -0.5166
  592MOL0     C79806   0.885   0.342   8.831  1.3910 -0.5367 -0.6784
  592MOL0     C79807   0.869   0.220   8.738  0.0213 -0.2359  0.0784
  592MOL0     C79808   0.724   0.177   8.719 -1.0287  0.1062  0.4278
  592MOL0     O79809   0.722   0.086   8.600 -0.1432  0.2418 -0.3620
  592MOL0     C79810   0.594   0.063   8.546 -0.3399  0.5110  0.2160
  592MOL0     C79811   0.587   0.031   8.414 -0.4160 -0.0531  0.6727
  592MOL0     C79812   0.467   0.022   8.343  0.7037  0.4290 -0.9132
  592MOL0     C79813   0.346   0.023   8.415 -0.8302  0.3703 -0.0330
  592MOL0     C79814   0.218   0.009   8.344  0.4933 -0.5599  0.9356
  592MOL0     O79815   0.234   0.014   8.209 -0.5963 -0.0085  0.5902
  592MOL0     C79816   0.134   0.021   8.114 -0.3146 -0.6603 -0.4191
  592MOL0     C79817   0.019   0.100   8.133  0.0567  0.4924  0.3793
  592MOL0     C79818  -0.082   0.076   8.040  0.2286 -1.4211  0.0271
  592MOL0     C79819  -0.073  -0.017   7.932  0.3348  0.3298 -0.3548
  592MOL0     O79820  -0.174  -0.045   7.844 -0.5596  0.1255  0.7892
  592MOL0     C79821  -0.303  -0.068   7.902  0.4595 -0.2259 -0.1041
  592MOL0     C79822  -0.407  -0.105   7.794  0.2943  0.8183 -0.0188
  592MOL0     C79823  -0.545  -0.131   7.854 -0.4198 -0.1429 -0.0341
  592MOL0     C79824  -0.632  -0.187   7.739  0.3038 -0.2014  0.6035
  592MOL0     C79825  -0.789  -0.172   7.757 -1.2300 -0.5316  0.2418
  592MOL0     C79826  -0.849  -0.246   7.639 -0.4479  0.2017  0.0968
  592MOL0     C79827  -1.002  -0.254   7.636 -0.1375  0.7720  0.6386
  592MOL0     C79828  -1.059  -0.267   7.487  0.4850 -0.6856 -0.0525
  592MOL0    Cl79829  -0.983  -0.388   7.378  0.5189 -0.2375 -0.1148
  592MOL0     C79830   0.056  -0.068   7.907 -0.2585 -0.5019  0.3991
  592MOL0     C79831   0.152  -0.057   8.001  0.0894 -0.2893  0.6423
  592MOL0     O79832   0.112  -0.018   8.400 -0.4863 -0.2068 -0.2938
  592MOL0     C79833   0.344   0.040   8.555 -0.9125  0.1180 -0.2212
  592MOL0     C79834   0.474   0.068   8.622  0.3177 -0.5304  0.4070
  592MOL0     N79835   1.108   0.558   8.912  0.5110  0.2707  0.6650
  592MOL0     N79836   1.228   0.593   8.886 -0.3088  0.0834 -0.1766
  592MOL0     C79837   0.710   1.147   8.101 -0.4271 -0.0136 -0.6845
  592MOL0     C79838   0.587   1.136   8.029 -0.2637 -0.6731  0.6991
  592MOL0     C79839   0.123   1.042   8.018  0.2883  0.1777  0.6667
  592MOL0     C79840   0.069   1.170   7.991  0.0346 -0.1580 -0.1963
  592MOL0     C79841  -0.069   1.197   7.976  0.4640 -0.1541  0.4061
  592MOL0     C79842  -0.158   1.087   7.977 -0.2986 -0.0214 -0.0715
  592MOL0     O79843  -0.299   1.092   7.963 -0.1729  0.6811  0.3820
  592MOL0     C79844  -0.361   1.194   8.041  0.4954 -0.4613 -0.0823
  592MOL0     C79845  -0.351   1.174   8.189 -0.4048 -0.4905 -0.0291
  592MOL0     C79846  -0.391   1.034   8.230  0.2330 -0.5396  0.5899
  592MOL0     C79847  -0.530   0.990   8.188  0.2089  1.0585  0.4288
  592MOL0     C79848  -0.600   0.888   8.269 -0.4558  0.0587 -0.1662
  592MOL0     C79849  -0.674   0.798   8.311 -0.9801 -0.4257  0.7478
  592MOL0     C79850  -0.113   0.968   8.006 -0.4874 -0.0669 -0.1978
  592MOL0     C79851   0.023   0.939   8.015 -0.0592  0.4100  0.2858
  592MOL0     C79852   0.058   0.792   8.039  0.1541 -1.3134 -0.2148
  592MOL0     H79853   0.372   1.189   8.279 -0.5811 -0.1133 -1.5186
  592MOL0     H79854   0.585   1.210   8.409  0.9164 -2.0770  0.8539
  592MOL0     H79855   0.798   1.289   8.466  0.5153 -0.2552  0.4841
  592MOL0     H79856   0.788   1.110   8.478  0.0230 -1.4928 -1.3133
  592MOL0     H79857   0.980   1.219   8.595  0.8393  0.2191 -0.0852
  592MOL0     H79858   1.049   1.257   8.436  0.8579  0.3777 -0.4728
  592MOL0     H79859   1.018   1.014   8.371 -1.2186 -1.1196  0.0245
  592MOL0     H79860   1.008   0.978   8.544  1.5656  2.1912  0.6346
  592MOL0     H79861   1.226   1.132   8.429 -2.4921 -0.5225 -0.2647
  592MOL0     H79862   1.217   1.073   8.598  3.4634 -1.1829 -0.5256
  592MOL0     H79863   1.223   0.874   8.366 -2.1424  0.4667  0.2942
  592MOL0     H79864   1.367   0.940   8.454  0.1143  1.2697 -0.7833
  592MOL0     H79865   1.261   0.873   8.666  3.4967 -1.7575 -0.3469
  592MOL0     H79866   1.138   0.781   8.576 -0.4875 -0.0165  1.6962
  592MOL0     H79867   1.445   0.739   8.523 -1.6886  1.9372 -1.1641
  592MOL0     H79868   1.296   0.627   8.508 -4.3914  1.0630  0.8584
  592MOL0     H79869   1.442   0.572   8.682 -0.9672 -0.7296  0.0468
  592MOL0     H79870   1.407   0.727   8.766  0.6821 -1.4332  1.4776
  592MOL0     H79871   1.139   0.530   8.589 -0.3139  2.0019 -0.2881
  592MOL0     H79872   0.848   0.560   8.817 -2.4493 -1.8384 -0.4678
  592MOL0     H79873   0.885   0.489   8.665  0.3578  1.6395 -0.4779
  592MOL0     H79874   0.960   0.320   8.908  0.4036 -0.1741  0.4209
  592MOL0     H79875   0.789   0.352   8.884  1.1098  0.9160 -1.4145
  592MOL0     H79876   0.924   0.133   8.775 -0.8038 -1.3099 -1.0995
  592MOL0     H79877   0.919   0.261   8.650  0.9174  1.5624  1.3662
  592MOL0     H79878   0.655   0.260   8.702 -0.1666  0.8736  0.5877
  592MOL0     H79879   0.696   0.129   8.813 -2.4766  1.9742  1.0019
  592MOL0     H79880   0.680   0.030   8.358 -0.1623 -0.4819  1.0913
  592MOL0     H79881   0.475   0.018   8.235 -2.6261  2.0380 -1.3344
  592MOL0     H79882   0.006   0.164   8.220  0.1865  0.4419  0.4367
  592MOL0     H79883  -0.176   0.124   8.063 -0.7108 -1.8592 -2.5400
  592MOL0     H79884  -0.295  -0.151   7.973 -1.6062  0.8791  1.5566
  592MOL0     H79885  -0.338   0.007   7.974 -1.4874 -2.6300  1.6091
  592MOL0     H79886  -0.403  -0.034   7.711  3.5572 -0.4630 -1.1458
  592MOL0     H79887  -0.357  -0.195   7.757 -1.0672 -0.9364  2.1711
  592MOL0     H79888  -0.551  -0.194   7.944  1.2684 -1.4490 -0.7714
  592MOL0     H79889  -0.587  -0.035   7.886  0.4047 -0.4244  2.0832
  592MOL0     H79890  -0.613  -0.293   7.724 -0.6311 -0.1942 -0.7856
  592MOL0     H79891  -0.604  -0.146   7.642  0.6283 -0.8457  0.4220
  592MOL0     H79892  -0.813  -0.066   7.747 -0.6793 -0.5352 -1.4827
  592MOL0     H79893  -0.809  -0.215   7.855 -1.4796  0.4438  0.6221
  592MOL0     H79894  -0.817  -0.208   7.541 -1.1118 -1.5648 -0.8584
  592MOL0     H79895  -0.815  -0.350   7.651 -0.7765  0.1291  0.4018
  592MOL0     H79896  -1.033  -0.165   7.692 -0.2405 -0.5964  2.8725
  592MOL0     H79897  -1.057  -0.328   7.695 -2.2674  0.9413 -0.9994
  592MOL0     H79898  -1.166  -0.287   7.497  0.0120  0.5471 -2.1138
  592MOL0     H79899  -1.043  -0.169   7.442  2.5676 -1.2932 -0.7771
  592MOL0     H79900   0.067  -0.131   7.819 -0.7864 -0.3586  0.2272
  592MOL0     H79901   0.247  -0.108   7.994  1.2660  1.1441  4.0445
  592MOL0     H79902   0.259   0.031   8.622  1.8743  1.0472  3.8662
  592MOL0     H79903   0.472   0.096   8.727 -2.2684  0.7150  0.0815
  592MOL0     H79904   0.805   1.120   8.057  0.6308 -0.9040  1.9651
  592MOL0     H79905   0.577   1.103   7.926  1.3536 -1.9175  0.8971
  592MOL0     H79906   0.138   1.254   8.000 -2.7156  2.1898  0.5490
  592MOL0     H79907  -0.107   1.296   7.950  3.3754  2.0996  3.7742
  592MOL0     H79908  -0.468   1.202   8.020  0.4899  3.3481  0.7054
  592MOL0     H79909  -0.323   1.294   8.016 -0.6718 -0.4151 -1.9101
  592MOL0     H79910  -0.417   1.246   8.238 -1.1904 -1.2425  0.0444
  592MOL0     H79911  -0.249   1.179   8.228 -1.3470 -3.7833  3.4864
  592MOL0     H79912  -0.384   1.036   8.339 -0.8304 -1.6339  0.7042
  592MOL0     H79913  -0.319   0.961   8.194  2.1313  0.0829  2.9102
  592MOL0     H79914  -0.609   1.066   8.188  0.1507  1.0450  2.6164
  592MOL0     H79915  -0.519   0.937   8.093 -2.9451  1.9584 -0.5811
  592MOL0     H79916  -0.723   0.722   8.369 -1.9275  1.7395  2.9990
  592MOL0     H79917  -0.186   0.890   8.022 -0.4528 -0.5256 -2.0679
  592MOL0     H79918  -0.027   0.725   8.025 -0.3178 -0.6117 -0.8096
  592MOL0     H79919   0.136   0.751   7.974 -2.3430 -1.5254 -3.3174
  592MOL0     H79920   0.077   0.796   8.146 -4.8895  1.3293  0.9035
  593MOL0     O79921   8.119   4.111   7.294  0.3951 -0.1208 -0.4928
  593MOL0     C79922   8.005   4.104   7.337 -0.7472  0.0041 -0.2883
  593MOL0     O79923   7.951   4.004   7.409 -0.3519  0.0687 -0.2338
  593MOL0     C79924   8.043   3.908   7.447  0.5229  0.6281 -0.1064
  593MOL0     C79925   8.091   3.891   7.584  0.6420 -0.7639 -0.8452
  593MOL0     C79926   8.178   3.799   7.616  0.4179  0.3664  0.3554
  593MOL0     C79927   8.222   3.709   7.516  0.0453 -0.5829 -0.8799
  593MOL0     O79928   8.325   3.616   7.551  0.1140 -0.3472  0.6896
  593MOL0     C79929   8.408   3.574   7.438 -0.0550 -0.6636  0.4916
  593MOL0     C79930   8.535   3.509   7.485  1.1806 -0.8847  0.6692
  593MOL0     C79931   8.629   3.488   7.365  0.8440 -0.9767  0.1700
  593MOL0     C79932   8.736   3.390   7.401  0.2331 -0.5897  0.8382
  593MOL0     C79933   8.826   3.343   7.290  0.5840 -0.0195  0.9694
  593MOL0     C79934   8.914   3.230   7.329 -0.7814 -0.4754  0.4545
  593MOL0     C79935   9.013   3.287   7.433 -0.1749  1.0154  0.3809
  593MOL0     C79936   9.152   3.219   7.430 -0.7696 -0.2206  0.5586
  593MOL0     N79937   9.239   3.268   7.542 -0.1914  0.0383  0.0120
  593MOL0     C79938   9.376   3.299   7.541  0.3588 -0.4356  0.6724
  593MOL0     C79939   9.419   3.305   7.662 -0.6458 -0.9595 -0.5101
  593MOL0     C79940   9.571   3.342   7.687  0.3038 -0.0476 -0.0716
  593MOL0     C79941   9.632   3.236   7.782 -0.2413 -0.4183  0.5712
  593MOL0     C79942   9.613   3.260   7.931  0.1914  0.0796 -0.6109
  593MOL0     C79943   9.640   3.128   8.001  0.2192 -0.5551  0.3875
  593MOL0     O79944   9.615   3.143   8.143 -0.1033 -0.7137 -0.7633
  593MOL0     C79945   9.722   3.155   8.238 -0.2006  0.4851  0.6547
  593MOL0     C79946   9.860   3.168   8.198 -1.1168  0.5944  0.3745
  593MOL0     C79947   9.959   3.213   8.278  0.8258  0.2103  0.3237
  593MOL0     C79948   9.938   3.245   8.411  0.7522  0.6003  0.0218
  593MOL0     C79949  10.039   3.290   8.505 -0.1286 -0.6971 -0.2973
  593MOL0     O79950  10.173   3.297   8.473 -0.0820  0.7511  0.1477
  593MOL0     C79951  10.256   3.318   8.586 -0.2116 -0.4794  0.1045
  593MOL0     C79952  10.307   3.446   8.605  0.2381 -0.6167 -0.1153
  593MOL0     C79953  10.406   3.474   8.696  0.7005 -0.2836 -1.0575
  593MOL0     C79954  10.443   3.380   8.786  0.4821 -0.1197  0.1285
  593MOL0     O79955  10.529   3.418   8.881 -0.2621 -0.3330  0.6410
  593MOL0     C79956  10.570   3.331   8.990  0.5627 -0.5856  0.4385
  593MOL0     C79957  10.602   3.400   9.131  1.3697  0.0090  0.9689
  593MOL0     C79958  10.485   3.492   9.171  0.3449  0.6419  0.2576
  593MOL0     C79959  10.523   3.551   9.303  0.1149  0.5366  0.6097
  593MOL0     C79960  10.629   3.663   9.305  0.6159  0.1745  0.0140
  593MOL0     C79961  10.680   3.680   9.452 -0.2723  0.0200  0.2755
  593MOL0     C79962  10.779   3.797   9.475  0.5743 -0.5908  0.0687
  593MOL0     C79963  10.697   3.929   9.458  0.3146 -0.2124 -0.1197
  593MOL0    Cl79964  10.786   4.071   9.532  0.0282  0.4080  0.1424
  593MOL0     C79965  10.384   3.247   8.769  0.2222  0.8832  0.1061
  593MOL0     C79966  10.295   3.214   8.672  0.1033 -0.5174 -0.2403
  593MOL0     O79967   9.996   3.333   8.618  0.3672 -0.0990 -0.6579
  593MOL0     C79968   9.802   3.227   8.455 -0.4317 -0.7442 -0.0426
  593MOL0     C79969   9.696   3.184   8.372  0.2701  0.4021  0.2131
  593MOL0     N79970   9.308   3.284   7.740 -0.3182 -0.9440 -0.4100
  593MOL0     N79971   9.207   3.244   7.670 -0.0578  0.5731  0.2775
  593MOL0     C79972   8.173   3.719   7.384  0.6520 -0.0250 -0.4657
  593MOL0     C79973   8.089   3.818   7.355  0.2216 -0.4269 -0.0720
  593MOL0     C79974   7.918   4.229   7.335 -0.3375 -0.5036 -0.1135
  593MOL0     C79975   7.870   4.284   7.455  0.2207 -0.3319  0.0298
  593MOL0     C79976   7.780   4.390   7.456  0.0458  0.0195 -0.3133
  593MOL0     C79977   7.720   4.430   7.331  0.7683 -0.3243 -0.1228
  593MOL0     O79978   7.615   4.519   7.311  0.2688 -0.3288 -0.3534
  593MOL0     C79979   7.544   4.568   7.427  0.1364  0.0974 -0.5280
  593MOL0     C79980   7.594   4.714   7.428 -0.0861  0.2842  0.0033
  593MOL0     C79981   7.510   4.809   7.514  0.1006  0.1341  0.2679
  593MOL0     C79982   7.517   4.776   7.662  0.3549  0.4827  0.1188
  593MOL0     C79983   7.643   4.764   7.731 -0.7595 -0.6528  0.6190
  593MOL0     C79984   7.755   4.744   7.774  1.1484 -0.6387 -0.2734
  593MOL0     C79985   7.767   4.372   7.211  1.5095 -0.3706 -0.5501
  593MOL0     C79986   7.863   4.274   7.214  0.4749 -0.7993  0.2583
  593MOL0     C79987   7.893   4.208   7.077  0.7294  0.4415 -0.3140
  593MOL0     H79988   8.053   3.960   7.659 -1.2617 -3.8690  1.2594
  593MOL0     H79989   8.212   3.784   7.717 -0.7630  2.2798  1.0873
  593MOL0     H79990   8.368   3.505   7.363 -1.0108  1.3369 -0.9394
  593MOL0     H79991   8.434   3.660   7.376 -0.0465 -0.4191  0.8359
  593MOL0     H79992   8.511   3.419   7.542 -0.8783 -0.7972  0.0451
  593MOL0     H79993   8.576   3.580   7.558 -0.7724 -1.4568  2.4230
  593MOL0     H79994   8.673   3.578   7.321 -1.2775  1.3002  2.4041
  593MOL0     H79995   8.580   3.448   7.276  0.4407  2.6822 -1.4559
  593MOL0     H79996   8.800   3.432   7.479  2.5280 -1.3586 -0.5118
  593MOL0     H79997   8.686   3.305   7.449 -0.8583 -0.9015 -0.7754
  593MOL0     H79998   8.772   3.299   7.206  1.5720  0.0596  0.2786
  593MOL0     H79999   8.890   3.425   7.256  4.0422 -1.9281  2.4092
  593MOL0     H80000   8.859   3.144   7.370  2.8966 -2.1233  2.4163
  593MOL0     H80001   8.971   3.206   7.239 -3.4290 -0.6031 -1.2926
  593MOL0     H80002   8.964   3.272   7.530  0.8751 -0.4107  0.7236
  593MOL0     H80003   9.030   3.395   7.427  2.2536  0.9095  3.1493
  593MOL0     H80004   9.137   3.111   7.438 -1.4797 -0.3179 -1.5776
  593MOL0     H80005   9.202   3.247   7.338  2.0915  0.6245  2.2500
  593MOL0     H80006   9.440   3.302   7.453  0.9519 -0.1749  1.1033
  593MOL0     H80007   9.623   3.344   7.591  0.1720  1.7680 -0.1401
  593MOL0     H80008   9.573   3.444   7.726  2.9238  1.0825 -2.7226
  593MOL0     H80009   9.600   3.135   7.757  2.6423 -0.7152 -2.5941
  593MOL0     H80010   9.741   3.235   7.777 -0.1140  1.3408  2.0260
  593MOL0     H80011   9.507   3.285   7.943  0.2857 -0.5385  2.3235
  593MOL0     H80012   9.681   3.339   7.964 -1.5322  0.9893  0.9492
  593MOL0     H80013   9.736   3.091   7.965  0.5188  0.1318  0.4563
  593MOL0     H80014   9.561   3.057   7.973 -1.3037  0.4430  1.9165
  593MOL0     H80015   9.894   3.150   8.096 -0.4033  1.8061  0.3842
  593MOL0     H80016  10.061   3.216   8.241  0.2599  0.3560 -1.2872
  593MOL0     H80017  10.279   3.528   8.540  1.8146 -0.8872 -1.1841
  593MOL0     H80018  10.451   3.573   8.694 -2.7714  1.5768  1.5696
  593MOL0     H80019  10.480   3.272   9.007  0.8248 -1.2777 -0.4554
  593MOL0     H80020  10.661   3.274   8.970  1.4680  1.0732 -0.4862
  593MOL0     H80021  10.617   3.325   9.210  0.3403 -1.0317  0.2121
  593MOL0     H80022  10.686   3.470   9.134  1.1016  0.3038  3.3843
  593MOL0     H80023  10.467   3.571   9.097  2.4730  1.3541  0.4398
  593MOL0     H80024  10.391   3.437   9.179 -0.3082  1.6974  0.0549
  593MOL0     H80025  10.549   3.475   9.377 -1.5182 -0.8952 -0.2242
  593MOL0     H80026  10.428   3.599   9.328 -1.3647 -0.9765 -1.7524
  593MOL0     H80027  10.583   3.753   9.263  0.4941  2.4921  4.4575
  593MOL0     H80028  10.711   3.653   9.235  1.4343 -0.1145  0.9863
  593MOL0     H80029  10.587   3.694   9.509 -0.4712 -1.4167  0.3466
  593MOL0     H80030  10.743   3.592   9.470  2.5651  1.4561 -1.8816
  593MOL0     H80031  10.856   3.784   9.399  0.2798  0.5184 -0.4367
  593MOL0     H80032  10.825   3.803   9.574 -2.3185  2.5689  1.4296
  593MOL0     H80033  10.681   3.956   9.353 -1.3299  2.0742  0.6421
  593MOL0     H80034  10.594   3.919   9.493  0.4727 -1.3870  0.0323
  593MOL0     H80035  10.408   3.169   8.840  0.3651  1.0233  0.2124
  593MOL0     H80036  10.264   3.110   8.660 -4.5705  0.4197  1.3852
  593MOL0     H80037   9.768   3.246   8.556 -3.0498 -0.8743 -0.8302
  593MOL0     H80038   9.598   3.173   8.418 -0.4826 -2.8649 -1.8128
  593MOL0     H80039   8.205   3.659   7.299 -2.1103 -1.3360 -0.7006
  593MOL0     H80040   8.057   3.837   7.253  0.4826  2.6497  0.3059
  593MOL0     H80041   7.909   4.244   7.548 -0.3232  0.5605  0.6636
  593MOL0     H80042   7.743   4.433   7.549 -2.2711  1.4785 -1.8221
  593MOL0     H80043   7.563   4.522   7.524 -2.1519 -0.3730 -0.2418
  593MOL0     H80044   7.439   4.548   7.404 -0.5497  4.5665 -2.4461
  593MOL0     H80045   7.600   4.744   7.323 -1.3536  2.0329  0.3993
  593MOL0     H80046   7.699   4.715   7.460 -0.4231 -1.1946  1.2793
  593MOL0     H80047   7.406   4.812   7.478 -0.8099  1.6861  2.7386
  593MOL0     H80048   7.548   4.910   7.496 -1.3225  1.1599  2.5552
  593MOL0     H80049   7.457   4.859   7.700 -1.1453  0.0134 -1.1182
  593MOL0     H80050   7.462   4.686   7.691  2.0610 -0.5973  0.1720
  593MOL0     H80051   7.853   4.731   7.815  0.5172 -0.5818  1.2951
  593MOL0     H80052   7.720   4.408   7.120  2.0051  0.2498 -0.5639
  593MOL0     H80053   7.998   4.230   7.052  1.2208  0.7685  1.8327
  593MOL0     H80054   7.891   4.099   7.076  2.9728  0.1264 -5.7746
  593MOL0     H80055   7.824   4.249   7.003 -1.2926 -0.1307  1.1724
  594MOL0     O80056  10.471   4.908   5.242  0.8680 -0.2894  0.4993
  594MOL0     C80057  10.475   5.028   5.268 -0.1432 -0.6280  0.0809
  594MOL0     O80058  10.585   5.096   5.315  0.0136 -0.5679 -0.2539
  594MOL0     C80059  10.708   5.048   5.310  0.2255  0.3807 -0.4188
  594MOL0     C80060  10.761   4.942   5.236  0.4148  0.1521  0.2979
  594MOL0     C80061  10.897   4.918   5.229  0.5866 -0.1263  0.3700
  594MOL0     C80062  10.991   4.995   5.300  0.6341  0.3717 -0.3074
  594MOL0     O80063  11.127   4.953   5.289 -0.3012  0.2054 -0.5230
  594MOL0     C80064  11.224   5.042   5.346 -0.4196 -0.0471 -0.2176
  594MOL0     C80065  11.347   4.953   5.378  0.6796  1.1247  0.0648
  594MOL0     C80066  11.459   5.018   5.464  0.6447 -0.4974 -0.5199
  594MOL0     C80067  11.561   4.910   5.489  0.1991  0.8487 -0.0737
  594MOL0     C80068  11.687   4.955   5.562 -0.1381 -0.1618  0.4459
  594MOL0     C80069  11.776   4.842   5.601  0.5800 -0.3049 -0.7937
  594MOL0     C80070  11.902   4.909   5.649 -0.2143  0.0298 -0.2784
  594MOL0     C80071  12.006   4.809   5.667 -0.0358 -0.4710 -0.2753
  594MOL0     N80072  12.123   4.886   5.704 -0.4370  0.1093  0.1374
  594MOL0     C80073  12.211   4.932   5.608 -0.3650  0.1266 -0.1005
  594MOL0     C80074  12.324   4.950   5.680  0.7933 -0.9863  0.1466
  594MOL0     C80075  12.449   5.018   5.618  0.6881  0.6171  0.4070
  594MOL0     C80076  12.545   4.927   5.535  0.6559  0.0156  0.1919
  594MOL0     C80077  12.482   4.838   5.437  0.2395  0.7400  0.1430
  594MOL0     C80078  12.452   4.693   5.494  0.3303 -0.1356  0.2563
  594MOL0     O80079  12.383   4.633   5.386 -0.0407  0.0486 -0.1769
  594MOL0     C80080  12.458   4.568   5.293 -0.1850  0.9232 -0.0579
  594MOL0     C80081  12.406   4.501   5.180 -0.4977  0.9600  0.2816
  594MOL0     C80082  12.487   4.433   5.085  0.2280 -0.5670  0.0229
  594MOL0     C80083  12.629   4.436   5.100 -0.1387 -0.2586  0.2107
  594MOL0     C80084  12.718   4.369   5.001 -0.4269  0.7393  0.2620
  594MOL0     O80085  12.847   4.352   5.037 -0.4710  0.0252 -0.1596
  594MOL0     C80086  12.936   4.278   4.954  0.4329  0.5044 -0.5627
  594MOL0     C80087  12.942   4.292   4.817  0.3654 -0.4846 -0.4984
  594MOL0     C80088  13.038   4.230   4.740  0.0040  0.2402  0.0113
  594MOL0     C80089  13.142   4.154   4.793  0.5152  0.0972 -1.0080
  594MOL0     O80090  13.239   4.100   4.711 -0.5875 -0.8133 -0.2312
  594MOL0     C80091  13.305   3.974   4.753 -0.0697 -0.4193  0.2912
  594MOL0     C80092  13.419   3.926   4.670 -0.0847  1.6619  0.0310
  594MOL0     C80093  13.526   4.038   4.660 -0.3664 -0.9463  0.5436
  594MOL0     C80094  13.655   3.984   4.598 -0.4853  0.1029  0.6044
  594MOL0     C80095  13.754   4.083   4.546  1.0299 -0.3849  0.5417
  594MOL0     C80096  13.873   4.044   4.461 -0.7170  0.3415  1.0221
  594MOL0     C80097  13.988   4.148   4.468  0.5107 -0.1013 -0.3533
  594MOL0     C80098  14.097   4.119   4.366 -0.6816  0.9319 -0.7234
  594MOL0    Cl80099  14.227   4.239   4.374 -0.1916  0.2209 -0.0058
  594MOL0     C80100  13.131   4.144   4.933 -0.2232  1.1412 -0.2926
  594MOL0     C80101  13.036   4.197   5.013  0.1451 -0.2472 -0.0190
  594MOL0     O80102  12.668   4.332   4.894  0.2348 -0.0408  0.2411
  594MOL0     C80103  12.678   4.496   5.217  0.1135  0.8996  0.7077
  594MOL0     C80104  12.599   4.557   5.308 -0.6219  0.4867 -0.4220
  594MOL0     N80105  12.301   4.907   5.811 -0.5470  0.3723  0.3921
  594MOL0     N80106  12.186   4.857   5.823  0.2452  0.1806  0.3331
  594MOL0     C80107  10.940   5.101   5.377 -0.2570 -0.6917 -0.2222
  594MOL0     C80108  10.807   5.129   5.379 -0.2242  0.0310 -0.3175
  594MOL0     C80109  10.351   5.119   5.248 -0.2132  0.3433  0.3516
  594MOL0     C80110  10.368   5.263   5.258  0.1520  1.0921 -0.0500
  594MOL0     C80111  10.262   5.351   5.234 -0.0937  0.3266  0.5702
  594MOL0     C80112  10.135   5.303   5.218 -0.1798  0.2719  0.0021
  594MOL0     O80113  10.029   5.393   5.203 -0.0503  0.5449 -0.5477
  594MOL0     C80114  10.028   5.432   5.069  0.7340  0.4160 -0.0508
  594MOL0     C80115   9.896   5.505   5.048  0.0799 -0.8795  0.3738
  594MOL0     C80116   9.772   5.406   5.068 -0.6149 -0.4170  0.3122
  594MOL0     C80117   9.639   5.450   4.993 -0.0920  0.1256  0.6722
  594MOL0     C80118   9.587   5.566   5.057  0.5965 -1.1597 -0.5028
  594MOL0     C80119   9.530   5.656   5.112 -0.1993  0.2408  0.5636
  594MOL0     C80120  10.114   5.171   5.217 -0.2118 -0.0557 -0.5771
  594MOL0     C80121  10.222   5.077   5.228  0.1481 -0.3264 -0.9909
  594MOL0     C80122  10.186   4.932   5.224  0.0928  0.2302 -1.1593
  594MOL0     H80123  10.696   4.879   5.178 -0.4871  0.9566  0.4044
  594MOL0     H80124  10.929   4.835   5.166 -3.2966 -1.4548 -0.1693
  594MOL0     H80125  11.245   5.127   5.281  1.6015 -0.8735 -0.7320
  594MOL0     H80126  11.191   5.093   5.437  1.3259  1.0493 -0.1624
  594MOL0     H80127  11.378   4.917   5.279 -0.4205 -1.2406  0.5212
  594MOL0     H80128  11.311   4.863   5.428 -0.8415  1.7946  0.2110
  594MOL0     H80129  11.416   5.045   5.561 -1.7352 -2.2804 -0.9571
  594MOL0     H80130  11.500   5.105   5.413 -4.5202  2.4714 -0.3132
  594MOL0     H80131  11.510   4.826   5.537  0.8266  0.6019  0.1744
  594MOL0     H80132  11.579   4.879   5.386  2.9476 -1.4354  0.9549
  594MOL0     H80133  11.737   5.027   5.497  1.1399  1.8127  3.4383
  594MOL0     H80134  11.659   5.002   5.656 -1.0492 -2.3348  1.3430
  594MOL0     H80135  11.744   4.780   5.686  0.6243  0.4143 -0.2458
  594MOL0     H80136  11.787   4.778   5.513 -1.1832  0.7585 -1.8495
  594MOL0     H80137  11.871   4.962   5.740 -0.9173  0.0499 -0.5265
  594MOL0     H80138  11.938   4.983   5.577 -0.4850  3.1357  2.5277
  594MOL0     H80139  11.989   4.731   5.742 -2.4869  1.5714  1.4760
  594MOL0     H80140  12.012   4.768   5.566 -0.2998 -1.0870 -0.0474
  594MOL0     H80141  12.192   4.940   5.502  2.7532 -1.1451 -0.8553
  594MOL0     H80142  12.412   5.105   5.563  2.5728  0.0220 -1.9661
  594MOL0     H80143  12.502   5.053   5.706  3.2298 -0.8171 -0.4489
  594MOL0     H80144  12.601   5.005   5.483 -1.5551  1.8037  0.3283
  594MOL0     H80145  12.617   4.868   5.593  0.1511 -1.3727 -0.5372
  594MOL0     H80146  12.553   4.824   5.355 -1.2212  0.0380 -1.0639
  594MOL0     H80147  12.389   4.880   5.396 -0.2214 -0.3857 -0.0037
  594MOL0     H80148  12.381   4.697   5.577 -1.7078 -1.3581 -1.3211
  594MOL0     H80149  12.530   4.636   5.544 -2.1172 -3.1521  0.9832
  594MOL0     H80150  12.301   4.496   5.154 -0.7151 -2.9060  1.2570
  594MOL0     H80151  12.433   4.386   5.003  2.5106 -1.0298 -1.3015
  594MOL0     H80152  12.876   4.354   4.756  0.5596  0.2637  0.0342
  594MOL0     H80153  13.035   4.253   4.634  1.5055  0.7642  0.0565
  594MOL0     H80154  13.343   3.992   4.854 -0.7344 -2.1067  0.8719
  594MOL0     H80155  13.225   3.900   4.761 -1.5464  1.1579  0.6662
  594MOL0     H80156  13.463   3.840   4.721 -0.7367  2.1216  1.4304
  594MOL0     H80157  13.396   3.887   4.570  3.7978 -1.5081  0.1262
  594MOL0     H80158  13.485   4.116   4.596 -0.4432 -3.3910 -2.6439
  594MOL0     H80159  13.549   4.079   4.758 -0.5274  2.6066 -0.7753
  594MOL0     H80160  13.627   3.917   4.516 -1.2061 -2.0859  2.5110
  594MOL0     H80161  13.702   3.924   4.677 -0.5578 -0.1167  0.4815
  594MOL0     H80162  13.789   4.139   4.633  1.1885  0.5780 -0.1297
  594MOL0     H80163  13.698   4.148   4.478 -0.0001 -0.4425  1.2992
  594MOL0     H80164  13.923   3.949   4.487  2.5307  1.4022 -0.7409
  594MOL0     H80165  13.846   4.032   4.356  0.3873 -3.9552  1.0151
  594MOL0     H80166  14.031   4.144   4.569  1.6205  2.0153 -0.6781
  594MOL0     H80167  13.939   4.245   4.453  0.8167  0.3220  1.2558
  594MOL0     H80168  14.133   4.017   4.381 -1.5820  0.0259 -3.9792
  594MOL0     H80169  14.054   4.118   4.266 -0.5781  1.0038 -0.7697
  594MOL0     H80170  13.210   4.099   4.991 -2.2820 -1.0806  0.9724
  594MOL0     H80171  13.044   4.195   5.121 -0.7330 -1.4194  0.0440
  594MOL0     H80172  12.785   4.511   5.213 -0.0287  1.7488 -1.2570
  594MOL0     H80173  12.658   4.600   5.389  0.4375 -2.1329  0.3104
  594MOL0     H80174  10.975   5.168   5.455 -2.7835 -0.3009  0.6555
  594MOL0     H80175  10.776   5.213   5.441 -3.6594 -1.3912  0.1041
  594MOL0     H80176  10.467   5.307   5.267  1.5743 -1.6092 -1.3324
  594MOL0     H80177  10.281   5.458   5.238 -3.7920  1.1191  0.2121
  594MOL0     H80178  10.030   5.337   5.014 -1.6273 -0.2545  0.8973
  594MOL0     H80179  10.106   5.502   5.037  0.8812  0.3484  0.1662
  594MOL0     H80180   9.902   5.544   4.946  3.1377  0.3242  0.9272
  594MOL0     H80181   9.890   5.593   5.113 -1.5225  0.1508 -1.0759
  594MOL0     H80182   9.759   5.384   5.174 -2.4667  1.3890  0.5321
  594MOL0     H80183   9.800   5.311   5.022 -1.2016 -0.7318  0.5921
  594MOL0     H80184   9.665   5.479   4.890 -0.0286  0.3260  0.7428
  594MOL0     H80185   9.568   5.368   4.980 -0.1580  0.6575 -4.3799
  594MOL0     H80186   9.467   5.736   5.147  0.5503  1.9503 -1.7889
  594MOL0     H80187  10.015   5.127   5.219  0.6987 -2.3648  2.6071
  594MOL0     H80188  10.199   4.876   5.317 -2.7226  0.7510 -0.3595
  594MOL0     H80189  10.089   4.910   5.179  0.4100  0.7398 -2.1228
  594MOL0     H80190  10.255   4.886   5.152 -0.8110 -2.7305 -0.2715
  595MOL0     O80191  11.266   6.494   3.397  0.8295  0.0575 -0.1207
  595MOL0     C80192  11.249   6.564   3.299  0.2674  0.9582  0.0547
  595MOL0     O80193  11.348   6.635   3.243  0.6665 -0.3147  0.3261
  595MOL0     C80194  11.480   6.607   3.281  0.3899 -0.4158 -0.0462
  595MOL0     C80195  11.566   6.518   3.216 -0.7655  0.6580  0.1981
  595MOL0     C80196  11.700   6.509   3.258  0.0660  0.0540  0.0262
  595MOL0     C80197  11.750   6.594   3.358 -0.8606  0.1382 -0.8718
  595MOL0     O80198  11.876   6.591   3.416 -0.3117 -0.0289  0.6224
  595MOL0     C80199  11.962   6.480   3.382 -0.7151 -0.8765  0.8493
  595MOL0     C80200  12.093   6.474   3.465  0.5963 -0.9435  0.0282
  595MOL0     C80201  12.147   6.605   3.519 -0.4765 -0.3829 -0.1313
  595MOL0     C80202  12.209   6.685   3.400 -0.0500 -0.4842 -0.9919
  595MOL0     C80203  12.259   6.810   3.473  0.0790 -0.1665 -0.3874
  595MOL0     C80204  12.270   6.904   3.354 -0.0384 -0.3421  0.2428
  595MOL0     C80205  12.304   7.047   3.404 -1.1487 -0.9968  0.5723
  595MOL0     C80206  12.436   7.054   3.481  0.4107 -0.4175 -0.3716
  595MOL0     N80207  12.552   7.050   3.388 -0.4638  0.9838  0.1052
  595MOL0     C80208  12.595   7.156   3.309 -0.1815 -0.4157  1.3952
  595MOL0     C80209  12.700   7.100   3.232  0.4706  0.4285  1.0036
  595MOL0     C80210  12.774   7.166   3.125  0.7595  0.0654  0.2413
  595MOL0     C80211  12.854   7.296   3.169  0.4341  0.3996 -0.1050
  595MOL0     C80212  12.955   7.334   3.067 -0.1550  0.0578 -0.2211
  595MOL0     C80213  13.091   7.261   3.076 -0.2019  0.5569 -0.2010
  595MOL0     O80214  13.190   7.320   2.997  0.7943  0.2771  0.3369
  595MOL0     C80215  13.313   7.274   2.984  0.3053 -0.3217  0.2577
  595MOL0     C80216  13.388   7.306   2.872  0.2043  0.4472  0.0721
  595MOL0     C80217  13.522   7.271   2.848 -0.0574 -0.2162 -0.2041
  595MOL0     C80218  13.592   7.194   2.947  0.5595 -1.1673 -0.1922
  595MOL0     C80219  13.734   7.145   2.931  0.7374 -0.1291  0.6224
  595MOL0     O80220  13.797   7.178   2.819  0.5716  0.0290  0.3613
  595MOL0     C80221  13.929   7.152   2.805  0.4400  0.7784 -1.2567
  595MOL0     C80222  13.973   7.139   2.674 -0.0517 -0.2353 -0.1217
  595MOL0     C80223  14.107   7.105   2.640 -0.8144 -0.7801 -0.1554
  595MOL0     C80224  14.202   7.089   2.748  0.7633 -0.7458  0.7961
  595MOL0     O80225  14.333   7.061   2.712  0.4275  0.5764 -0.5253
  595MOL0     C80226  14.420   7.005   2.807 -0.3828  0.1579  0.2379
  595MOL0     C80227  14.537   6.944   2.732  0.7879 -1.1589 -1.2565
  595MOL0     C80228  14.623   7.055   2.676  0.0653 -0.1993 -0.7719
  595MOL0     C80229  14.743   6.990   2.596  0.0642  0.9214  0.6956
  595MOL0     C80230  14.805   7.107   2.516  0.3678  0.2470  0.5859
  595MOL0     C80231  14.873   7.216   2.600 -0.8286  0.4170  0.1204
  595MOL0     C80232  15.017   7.179   2.636 -0.5480  0.0770 -0.4060
  595MOL0     C80233  15.095   7.295   2.687  0.1351 -0.3732  0.1490
  595MOL0    Cl80234  15.245   7.241   2.773  0.0440  0.4993  0.1918
  595MOL0     C80235  14.158   7.110   2.879 -0.3309  0.2781  0.2321
  595MOL0     C80236  14.027   7.126   2.906 -0.0401 -0.5896 -0.2666
  595MOL0     O80237  13.777   7.080   3.024  0.5253  0.0946  0.4942
  595MOL0     C80238  13.508   7.145   3.051  0.9128  0.1732 -0.2673
  595MOL0     C80239  13.378   7.183   3.073 -0.0814  1.0292  0.3473
  595MOL0     N80240  12.741   6.976   3.297  0.3606 -1.0727  0.0966
  595MOL0     N80241  12.658   6.951   3.388  0.6585  0.7851 -0.0412
  595MOL0     C80242  11.662   6.691   3.411  0.2911  0.1441 -0.2370
  595MOL0     C80243  11.528   6.692   3.383  0.4034  0.2355 -0.5767
  595MOL0     C80244  11.103   6.554   3.230  0.6146  0.3416 -0.3638
  595MOL0     C80245  11.000   6.516   3.315  0.2856 -0.3129 -0.2421
  595MOL0     C80246  10.865   6.514   3.269  0.2647  0.5586 -0.5516
  595MOL0     C80247  10.845   6.539   3.127  0.8442  0.2667  0.0450
  595MOL0     O80248  10.726   6.529   3.058 -0.2107 -0.2613  0.2315
  595MOL0     C80249  10.608   6.485   3.121  0.0861  0.5255 -0.5228
  595MOL0     C80250  10.497   6.445   3.023 -0.2425 -0.4179  0.0965
  595MOL0     C80251  10.532   6.317   2.936 -0.2862  0.0602  0.0373
  595MOL0     C80252  10.466   6.324   2.801 -0.6693 -0.2900  0.1030
  595MOL0     C80253  10.495   6.198   2.722  0.7976 -0.4669 -0.1996
  595MOL0     C80254  10.499   6.104   2.653  0.8681  0.3208  0.1714
  595MOL0     C80255  10.952   6.572   3.051 -0.0097  0.5938  0.8480
  595MOL0     C80256  11.083   6.574   3.097 -0.5260 -0.0459 -0.1167
  595MOL0     C80257  11.199   6.620   3.006  0.0950 -0.1286  0.6520
  595MOL0     H80258  11.527   6.449   3.142  0.7578 -0.7871  0.6634
  595MOL0     H80259  11.759   6.425   3.221 -0.8736 -1.2518  1.3895
  595MOL0     H80260  11.900   6.395   3.412 -1.8961 -0.9988 -1.6835
  595MOL0     H80261  11.991   6.470   3.277  1.8287  1.6980  1.1829
  595MOL0     H80262  12.180   6.437   3.410  2.3328  0.5177  1.6952
  595MOL0     H80263  12.079   6.411   3.554  3.5143  1.7407  2.6256
  595MOL0     H80264  12.226   6.573   3.588 -0.8202 -0.6535  0.1381
  595MOL0     H80265  12.068   6.666   3.565  0.3965  0.1497  0.7279
  595MOL0     H80266  12.291   6.628   3.355  1.0986  0.3491 -0.0201
  595MOL0     H80267  12.130   6.703   3.327 -2.7016  1.9887  2.1444
  595MOL0     H80268  12.199   6.852   3.554 -2.2052 -2.5040 -0.7440
  595MOL0     H80269  12.356   6.787   3.516  0.4262 -0.3574 -1.2420
  595MOL0     H80270  12.349   6.868   3.288  0.8714  1.9153  0.0128
  595MOL0     H80271  12.177   6.928   3.302 -0.5254 -0.7430  0.9071
  595MOL0     H80272  12.231   7.097   3.467  0.0113  1.5186  0.0233
  595MOL0     H80273  12.319   7.118   3.323 -0.2035 -0.6747  1.0161
  595MOL0     H80274  12.436   7.147   3.539 -1.3007 -0.6860  0.1236
  595MOL0     H80275  12.435   6.970   3.551 -0.9899 -0.0471  0.0823
  595MOL0     H80276  12.546   7.252   3.293 -0.9453 -0.7250  1.8479
  595MOL0     H80277  12.838   7.086   3.085 -0.5467 -0.3073 -1.1962
  595MOL0     H80278  12.690   7.180   3.057 -0.5495 -1.0488  1.5767
  595MOL0     H80279  12.780   7.376   3.168 -1.1378 -0.9874  0.1595
  595MOL0     H80280  12.902   7.292   3.267  1.0692  1.7741 -0.3389
  595MOL0     H80281  12.977   7.441   3.070  0.4719 -0.0381 -0.9017
  595MOL0     H80282  12.899   7.321   2.974 -2.0362  1.0713  0.7212
  595MOL0     H80283  13.091   7.154   3.058  0.7407  0.7744 -1.6143
  595MOL0     H80284  13.124   7.284   3.178  1.7190 -0.9368 -0.4314
  595MOL0     H80285  13.325   7.363   2.805  0.4034  0.1068 -0.4152
  595MOL0     H80286  13.557   7.297   2.748 -0.2225  2.2280  0.3055
  595MOL0     H80287  13.892   7.150   2.602  1.5353  1.2970 -1.8084
  595MOL0     H80288  14.134   7.094   2.536  1.6227  1.1995  0.1658
  595MOL0     H80289  14.441   7.087   2.875 -2.0944 -1.4150  2.8297
  595MOL0     H80290  14.369   6.935   2.873  0.4611  1.2271  2.1057
  595MOL0     H80291  14.586   6.884   2.810 -0.8502  1.6908  2.2267
  595MOL0     H80292  14.485   6.882   2.659 -0.7147 -0.2265 -1.0015
  595MOL0     H80293  14.566   7.120   2.609 -5.2617 -0.7598  2.6715
  595MOL0     H80294  14.654   7.118   2.759  2.9889 -0.4541 -1.5523
  595MOL0     H80295  14.695   6.910   2.539 -1.0032  2.8029 -1.2004
  595MOL0     H80296  14.815   6.938   2.659  0.6607 -1.5722 -1.8229
  595MOL0     H80297  14.725   7.157   2.460 -0.6873 -2.6607 -0.6794
  595MOL0     H80298  14.878   7.064   2.447 -0.5146 -0.0322 -0.1900
  595MOL0     H80299  14.862   7.316   2.557 -1.5719  0.0525 -0.5679
  595MOL0     H80300  14.822   7.224   2.697 -0.0852 -2.5034  0.8441
  595MOL0     H80301  15.058   7.142   2.541  0.6378  1.2406 -0.3689
  595MOL0     H80302  15.030   7.109   2.719 -1.0464  0.5454  0.0742
  595MOL0     H80303  15.117   7.358   2.600  0.0593 -0.3587  0.1394
  595MOL0     H80304  15.048   7.356   2.765  0.7810 -0.7711  0.8525
  595MOL0     H80305  14.231   7.121   2.959  0.9741  2.7707 -1.1753
  595MOL0     H80306  14.001   7.136   3.011  2.4327  1.1303  0.2705
  595MOL0     H80307  13.561   7.089   3.126 -1.4385 -0.1789  1.2358
  595MOL0     H80308  13.318   7.158   3.161 -1.5682  0.4653 -0.7858
  595MOL0     H80309  11.696   6.768   3.480  1.0905 -1.5237  1.3090
  595MOL0     H80310  11.460   6.766   3.424  0.3064  0.5593 -1.2898
  595MOL0     H80311  11.012   6.493   3.420 -0.5006  1.9564  0.4019
  595MOL0     H80312  10.774   6.502   3.325  0.0593  0.6102 -0.8695
  595MOL0     H80313  10.566   6.564   3.184 -2.9903 -1.1064 -0.3479
  595MOL0     H80314  10.630   6.398   3.184  1.8485  0.7069 -0.8433
  595MOL0     H80315  10.483   6.531   2.957  1.5504 -0.4614 -0.3740
  595MOL0     H80316  10.410   6.415   3.083 -0.2285 -0.9113 -0.1161
  595MOL0     H80317  10.522   6.226   2.995  0.3037 -0.8948 -1.2730
  595MOL0     H80318  10.639   6.326   2.914 -0.3479 -2.1443 -1.5239
  595MOL0     H80319  10.358   6.341   2.812 -0.5148  0.6200  0.3182
  595MOL0     H80320  10.502   6.416   2.753  3.0126 -0.5520  2.0437
  595MOL0     H80321  10.479   6.018   2.592 -0.5893  1.3360 -0.8208
  595MOL0     H80322  10.924   6.573   2.946  0.4482 -0.6758  0.6924
  595MOL0     H80323  11.162   6.620   2.903  4.4812 -1.4420 -1.1692
  595MOL0     H80324  11.237   6.715   3.043  1.1000 -1.3291  2.9172
  595MOL0     H80325  11.285   6.552   3.015  0.4513  0.2773  0.3412
  596MOL0     O80326   6.305   7.964   4.315 -0.3298 -0.8335 -0.3569
  596MOL0     C80327   6.183   7.963   4.317  0.1084  0.3968 -0.3676
  596MOL0     O80328   6.111   8.021   4.215 -0.4370  0.4187 -0.3078
  596MOL0     C80329   6.159   8.057   4.093 -0.1209  0.6182  0.3149
  596MOL0     C80330   6.126   8.185   4.057  1.0494 -1.0010 -0.4024
  596MOL0     C80331   6.183   8.245   3.943  0.6563  0.8460  0.0293
  596MOL0     C80332   6.258   8.163   3.854 -0.1148 -0.1135  0.1087
  596MOL0     O80333   6.310   8.227   3.743 -0.1188 -0.2170  0.4228
  596MOL0     C80334   6.360   8.150   3.626  0.0173 -0.7117 -0.6050
  596MOL0     C80335   6.361   8.233   3.497  0.7230  0.0764  0.3516
  596MOL0     C80336   6.490   8.310   3.502  0.2005 -0.1270  0.8988
  596MOL0     C80337   6.477   8.439   3.422 -0.3003 -0.0361  0.2420
  596MOL0     C80338   6.597   8.530   3.411 -0.8412 -0.3549 -0.0624
  596MOL0     C80339   6.730   8.464   3.354  0.3809  0.6447 -0.2447
  596MOL0     C80340   6.836   8.575   3.344 -0.1119 -0.3833  0.5411
  596MOL0     C80341   6.943   8.540   3.239 -0.5997 -0.0542  0.5109
  596MOL0     N80342   7.039   8.650   3.228 -0.3259  0.3441 -0.5615
  596MOL0     C80343   7.014   8.784   3.188  0.2525  0.5022 -0.2844
  596MOL0     C80344   7.137   8.849   3.190  0.1601 -0.5038  1.0914
  596MOL0     C80345   7.141   9.004   3.180  0.0027 -0.4053 -0.1187
  596MOL0     C80346   7.264   9.043   3.111  0.0283 -0.4292  0.5043
  596MOL0     C80347   7.263   9.003   2.958 -0.7175 -0.0282 -0.1984
  596MOL0     C80348   7.380   9.052   2.877 -0.5925 -0.3709 -0.6217
  596MOL0     O80349   7.342   9.057   2.737 -0.5343 -0.2563  0.8772
  596MOL0     C80350   7.437   9.088   2.642  0.1089 -0.4257 -0.1073
  596MOL0     C80351   7.558   9.150   2.672 -0.9044  0.5393  0.5672
  596MOL0     C80352   7.655   9.175   2.570  0.1359  0.4932 -0.4418
  596MOL0     C80353   7.625   9.144   2.429  0.2407  0.1291 -0.2112
  596MOL0     C80354   7.727   9.152   2.319  0.6436 -0.3233 -0.8580
  596MOL0     O80355   7.703   9.097   2.190  0.7060  0.4851 -0.2766
  596MOL0     C80356   7.784   9.125   2.085 -0.5457  0.3298  0.5568
  596MOL0     C80357   7.804   9.026   1.982  0.0627 -0.6792  0.0296
  596MOL0     C80358   7.865   9.065   1.865  0.3004 -0.1957 -1.0161
  596MOL0     C80359   7.921   9.189   1.846 -0.1492  0.0904 -0.1201
  596MOL0     O80360   7.995   9.230   1.741 -0.1409  0.5315  0.3760
  596MOL0     C80361   8.032   9.149   1.616 -0.9608 -0.0569  0.8845
  596MOL0     C80362   8.116   9.210   1.512  1.5020 -1.1014 -0.2475
  596MOL0     C80363   8.197   9.115   1.430  0.3121  0.4640  0.0150
  596MOL0     C80364   8.317   9.194   1.375 -0.5150 -0.1368 -0.0791
  596MOL0     C80365   8.386   9.110   1.270 -1.2095  0.8130 -0.3061
  596MOL0     C80366   8.437   8.966   1.317 -0.6774  0.9591  0.3010
  596MOL0     C80367   8.528   8.896   1.214  0.4285 -0.1757  1.3251
  596MOL0     C80368   8.582   8.764   1.266 -0.4413  0.2873  0.5691
  596MOL0    Cl80369   8.676   8.688   1.131  0.1935 -0.3238  0.1331
  596MOL0     C80370   7.914   9.285   1.947  0.2895 -0.9913 -0.7157
  596MOL0     C80371   7.841   9.255   2.060 -0.7586 -0.0135 -0.0714
  596MOL0     O80372   7.830   9.205   2.358 -0.1516  0.2263  0.1594
  596MOL0     C80373   7.491   9.107   2.404  0.1315 -0.4335  0.3460
  596MOL0     C80374   7.401   9.078   2.508 -0.4859  0.5374 -0.6442
  596MOL0     N80375   7.227   8.759   3.225  0.2612  0.5851  0.6095
  596MOL0     N80376   7.174   8.641   3.236  0.9815 -0.1405 -0.1558
  596MOL0     C80377   6.284   8.029   3.886 -0.3165 -0.3500 -0.4467
  596MOL0     C80378   6.233   7.978   4.005 -0.2604 -0.5611 -0.3542
  596MOL0     C80379   6.107   7.924   4.443 -0.4542 -0.2214 -0.1910
  596MOL0     C80380   5.974   7.971   4.454 -1.5213 -0.3301 -0.4540
  596MOL0     C80381   5.904   7.948   4.572 -0.3474  0.0741 -0.3029
  596MOL0     C80382   5.965   7.891   4.681 -0.4187  0.8221 -1.4329
  596MOL0     O80383   5.906   7.872   4.804  0.6489 -0.6431  0.6871
  596MOL0     C80384   5.767   7.914   4.819 -0.6291 -1.0771 -0.0436
  596MOL0     C80385   5.717   7.881   4.960 -0.1824 -0.3503 -0.3693
  596MOL0     C80386   5.568   7.913   4.984  0.6152  0.2629 -0.3107
  596MOL0     C80387   5.476   7.824   4.897 -0.2005 -0.4549  0.6691
  596MOL0     C80388   5.488   7.678   4.928  0.3323  0.1682 -0.5050
  596MOL0     C80389   5.499   7.567   4.978  0.6689 -0.4190 -0.4953
  596MOL0     C80390   6.096   7.845   4.672 -0.5091 -0.2054 -0.5474
  596MOL0     C80391   6.171   7.856   4.553  0.8705 -0.5898 -0.5658
  596MOL0     C80392   6.309   7.794   4.554 -0.3529 -1.1592  1.1208
  596MOL0     H80393   6.059   8.238   4.124 -1.2134 -3.9590 -0.1448
  596MOL0     H80394   6.163   8.348   3.915  0.8757  0.2927 -2.3852
  596MOL0     H80395   6.453   8.100   3.655 -0.9835 -2.0078  0.4998
  596MOL0     H80396   6.298   8.060   3.613  2.9047 -2.7338 -1.4794
  596MOL0     H80397   6.275   8.301   3.504  0.5549 -0.2714  2.4615
  596MOL0     H80398   6.340   8.173   3.408 -5.6904 -0.8156  1.9740
  596MOL0     H80399   6.564   8.244   3.455 -0.1971  0.2746 -0.3501
  596MOL0     H80400   6.516   8.338   3.604  0.4880 -0.4724  0.9217
  596MOL0     H80401   6.449   8.409   3.320  1.9284  0.0672 -0.4641
  596MOL0     H80402   6.402   8.499   3.473 -0.3435  1.0188 -1.0224
  596MOL0     H80403   6.552   8.616   3.361 -1.9499 -1.3076 -0.7439
  596MOL0     H80404   6.614   8.560   3.515  1.6642 -1.9034  0.0547
  596MOL0     H80405   6.769   8.391   3.425  4.2497  1.1196 -1.6415
  596MOL0     H80406   6.711   8.425   3.254  0.4121  1.3069 -0.5146
  596MOL0     H80407   6.883   8.574   3.443  0.8652 -2.1295  0.0967
  596MOL0     H80408   6.800   8.678   3.340  0.8845  0.0910  2.4064
  596MOL0     H80409   7.006   8.461   3.281  0.8229  1.4660  1.3355
  596MOL0     H80410   6.900   8.509   3.143  0.7203 -0.9268  0.1749
  596MOL0     H80411   6.917   8.825   3.161  0.1724 -1.6964 -3.8867
  596MOL0     H80412   7.056   9.047   3.127  0.1374 -0.1573 -0.1355
  596MOL0     H80413   7.143   9.044   3.282 -0.4909 -0.3472 -0.1302
  596MOL0     H80414   7.278   9.152   3.105  1.1943 -0.6293 -1.5448
  596MOL0     H80415   7.352   8.995   3.154 -1.0468 -1.8114  1.2254
  596MOL0     H80416   7.176   9.049   2.910  0.7282  1.6304 -1.3526
  596MOL0     H80417   7.269   8.894   2.956  1.1452  0.0119  0.7560
  596MOL0     H80418   7.469   8.991   2.895  2.6981  4.3903  0.9883
  596MOL0     H80419   7.407   9.154   2.903 -0.9748  0.3185 -2.7179
  596MOL0     H80420   7.585   9.170   2.775  0.3726 -1.8820  0.7675
  596MOL0     H80421   7.756   9.202   2.601 -0.2483 -0.4528  1.8750
  596MOL0     H80422   7.767   8.926   1.999  0.8104 -1.0905 -0.6669
  596MOL0     H80423   7.855   8.988   1.790  0.9475  0.7597 -2.1319
  596MOL0     H80424   8.081   9.055   1.644 -1.3069 -0.7206 -0.6516
  596MOL0     H80425   7.941   9.114   1.565 -0.4955  0.3858 -0.2775
  596MOL0     H80426   8.051   9.275   1.452  0.9352  0.8268  2.2619
  596MOL0     H80427   8.178   9.274   1.575 -2.4150  1.9286  0.9906
  596MOL0     H80428   8.236   9.044   1.504 -4.7192 -0.8033  1.8180
  596MOL0     H80429   8.137   9.058   1.358  0.5528  0.0993  0.0961
  596MOL0     H80430   8.389   9.214   1.455  0.7185 -2.6407 -0.5032
  596MOL0     H80431   8.282   9.288   1.332  0.7735  0.8279  0.8907
  596MOL0     H80432   8.470   9.171   1.237 -0.2486 -0.0015  0.5585
  596MOL0     H80433   8.322   9.089   1.184 -0.8254 -0.3642 -0.3165
  596MOL0     H80434   8.488   8.967   1.414 -0.8637 -0.3422  0.4370
  596MOL0     H80435   8.356   8.893   1.329  1.6415 -2.3062 -2.2048
  596MOL0     H80436   8.608   8.965   1.185 -0.2452 -0.2020 -0.7889
  596MOL0     H80437   8.464   8.877   1.128  0.4454 -0.4575  1.3759
  596MOL0     H80438   8.641   8.773   1.358  1.0714 -2.3332 -0.0432
  596MOL0     H80439   8.502   8.693   1.290 -0.9571 -0.4302 -2.8511
  596MOL0     H80440   7.951   9.386   1.933  2.4300 -1.4606  0.9358
  596MOL0     H80441   7.833   9.329   2.140  0.0569  2.6153 -2.2615
  596MOL0     H80442   7.473   9.083   2.299  1.1753  0.6124 -0.0961
  596MOL0     H80443   7.303   9.037   2.488 -1.5968  2.2389  1.0056
  596MOL0     H80444   6.337   7.961   3.820 -1.5488 -1.6946 -0.1115
  596MOL0     H80445   6.247   7.877   4.043 -1.9382 -0.4314  0.7076
  596MOL0     H80446   5.915   8.019   4.376 -3.9429 -0.6183  1.0883
  596MOL0     H80447   5.798   7.972   4.576 -0.8247 -1.6600 -1.4113
  596MOL0     H80448   5.706   7.867   4.741 -1.1426 -0.2422 -0.1521
  596MOL0     H80449   5.765   8.021   4.794 -2.2234 -1.2508 -0.7579
  596MOL0     H80450   5.775   7.944   5.029 -0.1312 -0.5851 -0.1958
  596MOL0     H80451   5.741   7.781   4.996  1.6557  0.2565  0.2050
  596MOL0     H80452   5.548   8.019   4.964 -0.2007  0.1834  0.0321
  596MOL0     H80453   5.541   7.906   5.090 -0.2264 -2.7102 -0.6357
  596MOL0     H80454   5.375   7.863   4.914  0.5229  1.3824  1.0250
  596MOL0     H80455   5.498   7.845   4.792 -1.5709  1.7349  0.7652
  596MOL0     H80456   5.508   7.473   5.029  0.2792 -2.4866 -3.9323
  596MOL0     H80457   6.135   7.786   4.754 -0.8957  0.4110  0.0893
  596MOL0     H80458   6.319   7.756   4.452 -3.2856  1.8680 -0.4785
  596MOL0     H80459   6.373   7.874   4.594  0.0678 -1.6186  1.3814
  596MOL0     H80460   6.314   7.707   4.620 -1.4255 -2.1920 -0.1025
  597MOL0     O80461   0.041   3.615   1.948 -0.2393 -0.6935  0.1598
  597MOL0     C80462  -0.040   3.668   1.875 -0.7664 -0.3127  0.3982
  597MOL0     O80463  -0.012   3.777   1.797 -0.0265  0.2746 -0.0526
  597MOL0     C80464   0.100   3.838   1.818 -0.3028  0.0126 -0.1672
  597MOL0     C80465   0.227   3.776   1.777 -0.7292 -0.4243 -0.2419
  597MOL0     C80466   0.346   3.845   1.791  0.0208 -0.0285 -0.0915
  597MOL0     C80467   0.350   3.984   1.833  0.2172 -0.0155 -0.9496
  597MOL0     O80468   0.453   4.063   1.820  0.2101 -0.7687  0.9626
  597MOL0     C80469   0.577   4.015   1.864 -0.1609  0.3461  0.0203
  597MOL0     C80470   0.580   3.995   2.023  0.0443 -1.5451  0.7677
  597MOL0     C80471   0.720   3.929   2.060  0.7220  0.3728 -0.5174
  597MOL0     C80472   0.840   4.030   2.043  0.3070  0.0118 -0.0578
  597MOL0     C80473   0.970   3.950   2.071  0.3936  0.2243 -0.8700
  597MOL0     C80474   1.096   4.042   2.081 -0.2166 -0.2175  0.0304
  597MOL0     C80475   1.215   3.962   2.139 -1.2100  0.0130  0.5837
  597MOL0     C80476   1.323   4.057   2.190 -0.2140 -0.9535  0.2400
  597MOL0     N80477   1.435   3.980   2.238  0.2420  0.3137 -0.8861
  597MOL0     C80478   1.459   3.974   2.376 -0.5910 -0.2837  0.5593
  597MOL0     C80479   1.560   3.885   2.384  0.7337 -0.0146 -0.4628
  597MOL0     C80480   1.626   3.837   2.506 -0.0909 -0.3695  0.3875
  597MOL0     C80481   1.741   3.926   2.559 -0.4598 -0.5301  0.4239
  597MOL0     C80482   1.708   4.078   2.587 -0.3083 -0.2246  0.0088
  597MOL0     C80483   1.839   4.156   2.595 -0.1729  0.3255 -0.4374
  597MOL0     O80484   1.900   4.147   2.719 -0.8506  0.1027 -0.2662
  597MOL0     C80485   2.036   4.163   2.733  0.4256 -0.0004 -0.4195
  597MOL0     C80486   2.112   4.251   2.658  0.0364  0.1839 -0.3002
  597MOL0     C80487   2.251   4.261   2.666  0.3964 -0.3600  0.3146
  597MOL0     C80488   2.321   4.180   2.762  0.3267  0.8058  0.5487
  597MOL0     C80489   2.461   4.185   2.769 -0.0699 -0.4979 -0.3472
  597MOL0     O80490   2.518   4.113   2.863  0.6633  1.0529  0.0393
  597MOL0     C80491   2.649   4.129   2.890 -0.6767  0.1618 -0.0180
  597MOL0     C80492   2.764   4.116   2.810 -0.4664 -0.8131  0.6116
  597MOL0     C80493   2.894   4.142   2.861 -0.0095 -0.0873 -0.6404
  597MOL0     C80494   2.910   4.169   3.003 -0.5528 -0.1001 -1.5692
  597MOL0     O80495   3.035   4.195   3.048  0.0032 -0.0593 -0.5601
  597MOL0     C80496   3.114   4.085   3.096 -0.8126  0.6147 -0.2647
  597MOL0     C80497   3.255   4.110   3.056 -0.3821 -0.0726 -0.2301
  597MOL0     C80498   3.269   4.134   2.898 -0.1511  0.3213  0.0964
  597MOL0     C80499   3.424   4.138   2.860 -0.0852 -0.0737 -0.5226
  597MOL0     C80500   3.456   4.174   2.719 -0.7400 -0.1750  0.0938
  597MOL0     C80501   3.615   4.155   2.688 -0.1116  0.3553 -0.3949
  597MOL0     C80502   3.674   4.201   2.550 -0.3831 -0.1558  0.2584
  597MOL0     C80503   3.825   4.178   2.544 -0.7768  0.3470  0.4920
  597MOL0    Cl80504   3.892   4.293   2.675  0.2947  0.0653  0.0189
  597MOL0     C80505   2.791   4.165   3.086 -0.0507  0.6534  0.5559
  597MOL0     C80506   2.668   4.147   3.022 -0.1850  0.1559 -0.3553
  597MOL0     O80507   2.513   4.277   2.696 -0.1927  0.5075 -0.1811
  597MOL0     C80508   2.249   4.082   2.838 -1.0429  0.3259 -0.1050
  597MOL0     C80509   2.110   4.075   2.813 -0.3860 -0.0887 -0.5105
  597MOL0     N80510   1.602   3.857   2.254  0.5404  0.1125 -0.0244
  597MOL0     N80511   1.522   3.909   2.167  0.0307 -0.5532  0.2746
  597MOL0     C80512   0.225   4.037   1.863 -1.2277 -0.8071  0.3276
  597MOL0     C80513   0.106   3.972   1.861 -0.2110  0.1223 -0.1940
  597MOL0     C80514  -0.179   3.606   1.869 -0.7508  1.0851  0.0730
  597MOL0     C80515  -0.256   3.657   1.770  0.4084  0.7107 -0.2078
  597MOL0     C80516  -0.389   3.597   1.750 -0.0476 -0.6534 -0.7611
  597MOL0     C80517  -0.444   3.508   1.845  0.0150 -1.0586 -0.4559
  597MOL0     O80518  -0.575   3.486   1.816  0.4474  0.3777  0.9387
  597MOL0     C80519  -0.652   3.422   1.923 -0.3558  0.0785 -0.4429
  597MOL0     C80520  -0.696   3.285   1.870  0.4542 -0.2284 -0.4078
  597MOL0     C80521  -0.805   3.224   1.960  0.2116  0.5263  0.3146
  597MOL0     C80522  -0.939   3.301   1.960  0.5719 -0.5403  0.2330
  597MOL0     C80523  -1.063   3.242   2.004  1.2098  0.3108 -0.2970
  597MOL0     C80524  -1.160   3.178   2.049  0.5196  0.1073  0.0336
  597MOL0     C80525  -0.359   3.452   1.940 -0.0847  0.6098  0.6466
  597MOL0     C80526  -0.228   3.494   1.945 -0.4979  0.0029  0.4549
  597MOL0     C80527  -0.133   3.423   2.044  0.2670 -0.0374 -0.3467
  597MOL0     H80528   0.239   3.677   1.735  5.6936 -0.0467 -0.3101
  597MOL0     H80529   0.432   3.787   1.758  0.4936  0.0228  1.0293
  597MOL0     H80530   0.604   3.923   1.811  0.5747  0.9630 -0.6988
  597MOL0     H80531   0.655   4.088   1.839 -0.5645  0.8077  0.0902
  597MOL0     H80532   0.507   3.920   2.054  0.4405 -2.0440  0.4907
  597MOL0     H80533   0.565   4.096   2.063 -1.4741 -0.0849 -2.9813
  597MOL0     H80534   0.727   3.837   2.001 -0.3419  0.5073 -0.8750
  597MOL0     H80535   0.720   3.889   2.162  2.8210  0.5023 -0.4138
  597MOL0     H80536   0.843   4.058   1.938  0.4854  0.7405  0.1409
  597MOL0     H80537   0.826   4.112   2.114  0.1914  0.3967 -0.5233
  597MOL0     H80538   0.956   3.892   2.163 -3.1719 -0.5855 -1.7797
  597MOL0     H80539   0.979   3.874   1.993  1.2151 -2.2669  1.4970
  597MOL0     H80540   1.119   4.074   1.978 -0.9944 -3.6442 -1.3528
  597MOL0     H80541   1.075   4.132   2.139 -1.4952  0.2053 -1.0168
  597MOL0     H80542   1.250   3.905   2.052 -2.0819  0.1350  0.1411
  597MOL0     H80543   1.179   3.892   2.214 -1.2793 -0.0180  0.5220
  597MOL0     H80544   1.354   4.132   2.117 -0.1723  0.8954  2.0552
  597MOL0     H80545   1.288   4.115   2.276  2.0978  0.2163  0.4861
  597MOL0     H80546   1.391   4.010   2.453 -1.8882  0.9303 -1.0718
  597MOL0     H80547   1.549   3.814   2.580  0.6411  1.5858  1.8284
  597MOL0     H80548   1.685   3.748   2.481  1.6739  0.7187  0.5065
  597MOL0     H80549   1.788   3.884   2.649 -2.4711  0.5515  2.0818
  597MOL0     H80550   1.819   3.930   2.483  0.7639  1.0500  1.6803
  597MOL0     H80551   1.647   4.077   2.678  0.6147 -1.6394  0.6537
  597MOL0     H80552   1.657   4.121   2.501  0.6593 -0.2766 -0.6138
  597MOL0     H80553   1.822   4.263   2.580  3.1505  1.1663  0.8665
  597MOL0     H80554   1.902   4.126   2.510  0.0293  1.3249 -0.6473
  597MOL0     H80555   2.058   4.320   2.593  1.4306  0.5086 -1.1647
  597MOL0     H80556   2.306   4.338   2.613 -0.5311 -0.3196 -0.6234
  597MOL0     H80557   2.752   4.090   2.706  0.4154 -0.6047  0.4499
  597MOL0     H80558   2.977   4.143   2.791  0.7784 -3.1369  0.0936
  597MOL0     H80559   3.104   4.091   3.205 -1.5403  3.9905 -0.4028
  597MOL0     H80560   3.079   3.990   3.055 -1.0218  0.6941 -0.2760
  597MOL0     H80561   3.292   4.196   3.112 -1.3322 -0.7415  1.5054
  597MOL0     H80562   3.328   4.032   3.076  0.4384  0.8201  0.3224
  597MOL0     H80563   3.207   4.063   2.842  1.3318 -0.7655 -0.2240
  597MOL0     H80564   3.228   4.232   2.868 -1.3776  0.0137  0.6899
  597MOL0     H80565   3.456   4.034   2.865  0.4951 -0.0061 -2.2162
  597MOL0     H80566   3.474   4.199   2.936  2.8147  0.6189 -2.8096
  597MOL0     H80567   3.431   4.278   2.699  1.5231 -0.0051 -2.3018
  597MOL0     H80568   3.409   4.112   2.642 -1.1914  1.9329 -1.4004
  597MOL0     H80569   3.663   4.205   2.772 -0.2977  0.3836 -0.3048
  597MOL0     H80570   3.642   4.049   2.695  1.2616  0.4506 -2.9876
  597MOL0     H80571   3.649   4.307   2.538  1.3425  0.0238 -2.6424
  597MOL0     H80572   3.633   4.142   2.468 -3.1529  0.0608  1.3577
  597MOL0     H80573   3.857   4.076   2.568 -1.2564  0.0437 -0.1443
  597MOL0     H80574   3.863   4.202   2.444  1.8276  0.6178  1.4706
  597MOL0     H80575   2.797   4.162   3.194 -1.3915 -0.0055  0.6361
  597MOL0     H80576   2.586   4.146   3.094  0.8711  1.5045  0.9381
  597MOL0     H80577   2.299   4.005   2.896  0.5319  1.9624  0.8465
  597MOL0     H80578   2.048   3.990   2.840  2.0362 -1.4642  1.1551
  597MOL0     H80579   0.229   4.141   1.893  0.1115 -0.5166 -0.7412
  597MOL0     H80580   0.013   4.024   1.885 -1.4482 -1.2567 -1.7864
  597MOL0     H80581  -0.234   3.746   1.711  0.9571  1.8540  1.6400
  597MOL0     H80582  -0.465   3.635   1.683 -0.0117  0.2989 -0.2801
  597MOL0     H80583  -0.738   3.487   1.942 -1.4385 -0.9257 -1.7713
  597MOL0     H80584  -0.595   3.414   2.016  1.3082 -2.8248 -1.5730
  597MOL0     H80585  -0.606   3.225   1.858  0.0360 -0.5819 -2.0882
  597MOL0     H80586  -0.734   3.295   1.768  1.9280 -1.1273 -1.0785
  597MOL0     H80587  -0.784   3.197   2.064  1.9348 -2.1915 -0.6134
  597MOL0     H80588  -0.817   3.124   1.915  2.2028  0.6204 -0.4974
  597MOL0     H80589  -0.927   3.379   2.036  0.1843 -1.9201  1.7701
  597MOL0     H80590  -0.970   3.337   1.862  0.4645 -1.7953 -0.2088
  597MOL0     H80591  -1.235   3.118   2.095  0.3106  2.1300  2.5782
  597MOL0     H80592  -0.397   3.376   2.007 -3.9217  0.5358 -1.3231
  597MOL0     H80593  -0.189   3.340   2.088  1.8085 -0.6391  0.5540
  597MOL0     H80594  -0.047   3.376   1.996 -0.1417 -0.6904 -0.4485
  597MOL0     H80595  -0.114   3.494   2.126 -1.5949  0.1936 -0.0728
  598MOL0     O80596   9.064   5.659  10.762  0.5516 -0.0983  0.1358
  598MOL0     C80597   8.959   5.727  10.768 -0.3062  0.0064  0.4381
  598MOL0     O80598   8.851   5.714  10.687  0.6180  0.1016  0.2730
  598MOL0     C80599   8.828   5.617  10.596 -0.5801 -0.6861 -0.1812
  598MOL0     C80600   8.725   5.650  10.498  0.8969  0.8643 -0.8967
  598MOL0     C80601   8.657   5.549  10.428 -0.3250 -0.4215 -0.0889
  598MOL0     C80602   8.689   5.415  10.434 -0.7069 -0.3149 -0.3845
  598MOL0     O80603   8.625   5.322  10.362 -0.8686  0.6117  0.3951
  598MOL0     C80604   8.646   5.328  10.213 -0.9547 -0.2064 -0.7044
  598MOL0     C80605   8.697   5.191  10.156  0.6116 -0.1046 -0.6910
  598MOL0     C80606   8.803   5.127  10.231 -0.4663  0.0750 -0.1222
  598MOL0     C80607   8.838   4.990  10.177  0.9433 -0.3365 -0.0583
  598MOL0     C80608   8.995   4.973  10.163  0.4729 -1.0717 -0.5153
  598MOL0     C80609   9.042   4.830  10.139 -1.0115 -0.5360 -0.3377
  598MOL0     C80610   9.029   4.735  10.263 -0.8057 -0.7548 -0.4996
  598MOL0     C80611   9.119   4.617  10.238  0.0389  0.5696  0.3516
  598MOL0     N80612   9.082   4.552  10.110 -0.4583  0.3187  0.0934
  598MOL0     C80613   8.953   4.528  10.074 -0.3630 -0.2600  0.5077
  598MOL0     C80614   8.973   4.477   9.946  0.6604  0.1672 -0.1529
  598MOL0     C80615   8.869   4.419   9.849  0.5482 -0.3292 -0.5653
  598MOL0     C80616   8.832   4.273   9.869  0.0565 -0.3842 -0.7316
  598MOL0     C80617   8.804   4.199   9.741 -0.3827  0.7044  0.0287
  598MOL0     C80618   8.919   4.136   9.658 -0.9712 -0.2214  0.3942
  598MOL0     O80619   8.978   4.030   9.745 -0.5302  0.1940 -0.3338
  598MOL0     C80620   9.099   4.056   9.806  0.0575 -0.6057  0.3794
  598MOL0     C80621   9.168   3.952   9.871 -0.3749  0.3633 -0.6680
  598MOL0     C80622   9.292   3.967   9.927 -0.5453  0.0144 -0.0368
  598MOL0     C80623   9.360   4.098   9.923  1.4534 -0.3349  0.4909
  598MOL0     C80624   9.499   4.107   9.971 -1.1884  0.1703 -0.5106
  598MOL0     O80625   9.551   4.007  10.051  0.0270  0.1594  0.1736
  598MOL0     C80626   9.673   4.033  10.104 -0.6348  0.4341  0.2845
  598MOL0     C80627   9.785   4.037  10.023  0.3778  0.4700  0.8881
  598MOL0     C80628   9.909   4.060  10.082 -0.5505  0.3596 -0.3659
  598MOL0     C80629   9.928   4.067  10.225 -0.0415  0.3882 -0.0220
  598MOL0     O80630  10.066   4.066  10.271 -0.3491  0.4017 -0.8247
  598MOL0     C80631  10.089   4.085  10.409 -0.4022  0.2087  0.0270
  598MOL0     C80632  10.235   4.054  10.438  0.0801 -0.0257 -0.4870
  598MOL0     C80633  10.340   4.105  10.345  0.2366 -0.3237  0.8363
  598MOL0     C80634  10.487   4.088  10.403  1.2260 -0.0121 -0.3199
  598MOL0     C80635  10.538   4.212  10.491  0.4827  0.0881 -0.8005
  598MOL0     C80636  10.678   4.182  10.549  0.0459  0.4034 -0.3458
  598MOL0     C80637  10.740   4.302  10.623  0.0341  0.6461  0.0480
  598MOL0     C80638  10.862   4.256  10.696  0.9690  0.4747 -0.4569
  598MOL0    Cl80639  10.811   4.167  10.842  0.0344 -0.2354 -0.1220
  598MOL0     C80640   9.809   4.070  10.300  0.1718 -0.0569 -0.3448
  598MOL0     C80641   9.684   4.049  10.241  0.3919  0.4365  0.2416
  598MOL0     O80642   9.561   4.210   9.928  0.2148 -0.0275 -0.1059
  598MOL0     C80643   9.289   4.202   9.864  0.3463  0.2537  0.3776
  598MOL0     C80644   9.165   4.177   9.808  0.5525  0.0539  0.5094
  598MOL0     N80645   9.105   4.491   9.911  0.1314 -0.3816  0.1322
  598MOL0     N80646   9.172   4.527  10.015  0.4106  0.0444  0.6762
  598MOL0     C80647   8.793   5.381  10.525 -0.1977 -0.2530  0.2346
  598MOL0     C80648   8.869   5.481  10.608 -0.0167  0.3244 -0.7898
  598MOL0     C80649   8.937   5.818  10.892  0.2117  0.6725  0.6796
  598MOL0     C80650   8.805   5.856  10.913 -0.2065  0.4674 -0.5846
  598MOL0     C80651   8.765   5.935  11.022  0.1828  0.3126 -0.4113
  598MOL0     C80652   8.856   5.981  11.121  0.1820 -0.2482  0.1774
  598MOL0     O80653   8.831   6.051  11.240  0.0395  0.0364  0.4517
  598MOL0     C80654   8.691   6.085  11.276 -0.4981  0.0426 -0.1049
  598MOL0     C80655   8.631   5.951  11.322  0.3681 -0.8121  0.2501
  598MOL0     C80656   8.477   5.966  11.319 -0.2277  1.0982 -0.4648
  598MOL0     C80657   8.412   5.829  11.373  0.0070 -0.8989  0.4060
  598MOL0     C80658   8.267   5.828  11.398 -0.3511 -0.7000  0.3267
  598MOL0     C80659   8.149   5.836  11.430 -0.8079  0.6236  0.7954
  598MOL0     C80660   8.993   5.940  11.094 -0.0134  0.1690 -0.3293
  598MOL0     C80661   9.034   5.868  10.983  0.5106  0.2056 -0.3935
  598MOL0     C80662   9.180   5.824  10.974  0.5165 -0.4824  0.2344
  598MOL0     H80663   8.690   5.752  10.490  1.2218  1.1883  1.2075
  598MOL0     H80664   8.593   5.596  10.353  1.8559  0.0405 -1.7664
  598MOL0     H80665   8.552   5.342  10.159 -1.8890  1.0037  1.1159
  598MOL0     H80666   8.717   5.410  10.194 -0.6182 -0.6824 -1.5539
  598MOL0     H80667   8.733   5.198  10.053 -0.1779 -1.5881 -1.1019
  598MOL0     H80668   8.602   5.138  10.159  0.4141  0.2141 -1.2791
  598MOL0     H80669   8.777   5.129  10.337 -0.8045  0.1862 -0.2060
  598MOL0     H80670   8.893   5.188  10.215  0.7917 -1.7066 -0.1160
  598MOL0     H80671   8.801   4.920  10.254 -0.3763  0.9570  0.5247
  598MOL0     H80672   8.802   4.966  10.077  0.0639  1.6320 -0.2572
  598MOL0     H80673   9.027   5.043  10.085  0.8558  1.9057  2.1268
  598MOL0     H80674   9.031   5.005  10.261 -3.8735  5.8224 -0.5245
  598MOL0     H80675   8.980   4.796  10.055  0.0030  0.3285 -1.4720
  598MOL0     H80676   9.147   4.835  10.109  0.2789  0.2521  3.6768
  598MOL0     H80677   8.926   4.702  10.283 -0.4665 -1.7225 -0.2970
  598MOL0     H80678   9.066   4.790  10.350 -0.9998  1.2731 -1.6356
  598MOL0     H80679   9.221   4.655  10.231  1.0892 -2.2416 -0.6682
  598MOL0     H80680   9.104   4.544  10.317 -0.8475 -1.0177 -1.2164
  598MOL0     H80681   8.860   4.547  10.126  0.2459 -0.0421  1.5468
  598MOL0     H80682   8.779   4.480   9.858  0.3816 -0.7032  0.4384
  598MOL0     H80683   8.903   4.429   9.745 -0.3109 -0.2442 -0.8477
  598MOL0     H80684   8.920   4.232   9.919 -0.2389  1.4690  1.4889
  598MOL0     H80685   8.741   4.272   9.929  0.9938  1.5882  0.8533
  598MOL0     H80686   8.753   4.269   9.675 -1.0304  1.4023  1.2436
  598MOL0     H80687   8.747   4.110   9.767  1.3576 -0.8825 -1.3170
  598MOL0     H80688   8.987   4.211   9.616  1.6574 -3.1268 -0.9152
  598MOL0     H80689   8.883   4.089   9.566  1.1832  0.1755 -0.7367
  598MOL0     H80690   9.115   3.858   9.860 -1.0041  0.6233  0.0840
  598MOL0     H80691   9.342   3.888   9.982  1.0528  0.5196 -0.7131
  598MOL0     H80692   9.780   4.035   9.915 -3.4361 -2.1175  0.9229
  598MOL0     H80693   9.996   4.057  10.018  0.1634  0.5890  0.5838
  598MOL0     H80694  10.071   4.189  10.437 -2.2490  0.1020 -0.6336
  598MOL0     H80695  10.029   4.020  10.473 -0.7767 -0.2525 -0.7810
  598MOL0     H80696  10.256   4.089  10.539  2.0205 -2.9178  0.2324
  598MOL0     H80697  10.251   3.946  10.451 -1.3372 -0.0247  1.8816
  598MOL0     H80698  10.335   4.045  10.254 -0.4989  0.0382  0.6335
  598MOL0     H80699  10.317   4.211  10.333  0.0127  0.2479  4.8403
  598MOL0     H80700  10.556   4.066  10.321 -0.1108  1.3903 -1.9183
  598MOL0     H80701  10.479   4.006  10.475 -2.7211  2.7455  2.8402
  598MOL0     H80702  10.469   4.214  10.577 -1.8252 -1.0417 -2.5090
  598MOL0     H80703  10.534   4.300  10.427 -2.3270  0.3146 -0.4674
  598MOL0     H80704  10.668   4.095  10.614 -1.5709  2.6071  2.5860
  598MOL0     H80705  10.752   4.150  10.474  0.7987  1.9304 -0.3127
  598MOL0     H80706  10.662   4.344  10.688 -0.3646  1.1802 -0.7477
  598MOL0     H80707  10.768   4.381  10.552 -0.1468  1.0744  0.4480
  598MOL0     H80708  10.942   4.209  10.638  2.3406 -1.6234  2.8427
  598MOL0     H80709  10.913   4.345  10.734  0.8855  0.2083  0.2883
  598MOL0     H80710   9.808   4.080  10.409 -0.1374 -0.1142 -0.3412
  598MOL0     H80711   9.596   4.033  10.303  1.7741 -2.2753  1.6534
  598MOL0     H80712   9.330   4.302   9.863  1.0280  0.0072  1.6746
  598MOL0     H80713   9.119   4.258   9.753 -2.3244 -0.9310  1.2979
  598MOL0     H80714   8.825   5.278  10.537  3.4193  0.5924 -1.0245
  598MOL0     H80715   8.933   5.448  10.689 -0.4113 -1.2882 -1.0979
  598MOL0     H80716   8.722   5.830  10.849 -0.2374  2.4806 -1.4295
  598MOL0     H80717   8.658   5.949  11.035  0.4327 -0.2863  3.2030
  598MOL0     H80718   8.642   6.133  11.191  0.8307  1.1644 -0.2711
  598MOL0     H80719   8.701   6.162  11.353  0.1110 -0.0781 -0.0580
  598MOL0     H80720   8.663   5.929  11.424  1.9645  0.2361  0.0100
  598MOL0     H80721   8.654   5.875  11.246  1.8954  2.0167 -2.3067
  598MOL0     H80722   8.439   5.992  11.220 -0.4621  3.0489  0.0957
  598MOL0     H80723   8.452   6.043  11.392  2.1383  2.1462 -0.6760
  598MOL0     H80724   8.438   5.746  11.308  2.6496  0.7491 -0.7939
  598MOL0     H80725   8.455   5.807  11.472 -3.5602  0.1689  2.3780
  598MOL0     H80726   8.054   5.864  11.471 -1.0867 -1.7341  1.9392
  598MOL0     H80727   9.061   5.966  11.175  2.1219 -0.8946 -1.6825
  598MOL0     H80728   9.188   5.718  10.947 -0.3087 -1.2352  2.6389
  598MOL0     H80729   9.229   5.873  10.890 -1.6181 -0.9728 -1.3989
  598MOL0     H80730   9.234   5.835  11.068  0.0591 -0.8233  0.5421
  599MOL0     O80731   7.366   6.862   6.938 -0.1891  0.8722 -0.3691
  599MOL0     C80732   7.303   6.966   6.923 -1.0956 -1.1724  0.9237
  599MOL0     O80733   7.349   7.093   6.959 -0.3720  0.0768 -0.0205
  599MOL0     C80734   7.479   7.088   6.999  0.5423  0.1643 -0.4348
  599MOL0     C80735   7.587   7.151   6.935  0.2808 -0.7807  0.9515
  599MOL0     C80736   7.715   7.152   6.986  0.4560  0.4589  0.6979
  599MOL0     C80737   7.747   7.095   7.109 -1.2643 -0.1711  0.0996
  599MOL0     O80738   7.882   7.068   7.142  0.1499 -0.1496 -0.1204
  599MOL0     C80739   7.914   7.127   7.268 -1.1599  0.4295 -0.4604
  599MOL0     C80740   8.062   7.111   7.277 -0.1288  0.5113  0.4452
  599MOL0     C80741   8.145   7.189   7.175 -0.5219  0.3595 -0.6073
  599MOL0     C80742   8.293   7.178   7.215 -0.5706 -0.5027 -0.6998
  599MOL0     C80743   8.380   7.213   7.089  0.1731  0.1715  0.2949
  599MOL0     C80744   8.523   7.189   7.121  0.0896 -0.0237 -0.2072
  599MOL0     C80745   8.577   7.292   7.215 -0.1219 -0.1119  0.3031
  599MOL0     C80746   8.722   7.255   7.249 -0.7912  0.5631  0.2065
  599MOL0     N80747   8.778   7.356   7.346  0.1894  0.2919  0.2781
  599MOL0     C80748   8.898   7.421   7.325  0.0110  0.6476  0.3348
  599MOL0     C80749   8.924   7.490   7.442 -0.1662 -0.7056  0.5838
  599MOL0     C80750   9.028   7.592   7.472 -0.3290  0.2773  0.2545
  599MOL0     C80751   9.079   7.655   7.339 -0.6432  0.0227  0.4836
  599MOL0     C80752   9.209   7.727   7.377 -0.0962  0.3424  0.2597
  599MOL0     C80753   9.319   7.618   7.366  0.2431 -0.4322 -0.3676
  599MOL0     O80754   9.438   7.663   7.435 -0.0510 -0.5205  0.0670
  599MOL0     C80755   9.550   7.584   7.422  0.2729 -0.1277 -0.6984
  599MOL0     C80756   9.671   7.641   7.472  0.3018  0.3339  0.0376
  599MOL0     C80757   9.787   7.564   7.473  0.1297 -0.6490  0.3663
  599MOL0     C80758   9.791   7.435   7.429 -0.0061 -0.2305 -0.3590
  599MOL0     C80759   9.911   7.348   7.463  0.9849 -0.3941 -0.9144
  599MOL0     O80760   9.918   7.227   7.404  0.3395  0.0602 -0.1097
  599MOL0     C80761  10.036   7.153   7.413  0.3028  0.4254 -0.4180
  599MOL0     C80762  10.089   7.107   7.537  0.2124  0.6229  0.6818
  599MOL0     C80763  10.216   7.051   7.529 -0.8099  0.1007  0.8510
  599MOL0     C80764  10.280   7.025   7.410 -0.0500  0.0798 -0.1868
  599MOL0     O80765  10.407   6.986   7.426  0.0955 -0.3179 -0.4131
  599MOL0     C80766  10.484   6.947   7.310 -0.4159  0.5560  0.4099
  599MOL0     C80767  10.438   6.815   7.244  0.1892 -0.0731 -0.9766
  599MOL0     C80768  10.515   6.763   7.120  1.0742 -0.1732 -0.7224
  599MOL0     C80769  10.668   6.779   7.126  0.3124  0.7745 -0.7765
  599MOL0     C80770  10.720   6.827   6.998  0.4591  0.1470 -0.2453
  599MOL0     C80771  10.869   6.851   6.994 -0.0223 -0.4842  0.8341
  599MOL0     C80772  10.947   6.838   6.864 -0.0500  0.2961 -0.1108
  599MOL0     C80773  11.092   6.818   6.895 -0.5114 -0.5262  0.4282
  599MOL0    Cl80774  11.193   6.820   6.754 -0.5583  0.2224 -0.1240
  599MOL0     C80775  10.213   7.049   7.291 -0.3924  0.1197 -0.0352
  599MOL0     C80776  10.094   7.121   7.293 -0.4013  0.4713 -0.0388
  599MOL0     O80777   9.996   7.397   7.541 -0.7810 -0.0556 -0.1673
  599MOL0     C80778   9.681   7.382   7.361  0.0964  0.0422  0.4165
  599MOL0     C80779   9.560   7.458   7.361 -0.1942  0.0515 -0.1244
  599MOL0     N80780   8.809   7.474   7.513  0.2824 -0.0390  0.3157
  599MOL0     N80781   8.730   7.393   7.468 -0.2147 -0.0762  0.2279
  599MOL0     C80782   7.643   7.050   7.190  0.5682  0.5119  0.1977
  599MOL0     C80783   7.511   7.051   7.134  0.3157  0.1235 -0.3413
  599MOL0     C80784   7.161   6.963   6.912  0.6547 -1.0008  0.4741
  599MOL0     C80785   7.101   7.023   6.794 -0.2441  0.3765 -0.2429
  599MOL0     C80786   6.967   7.012   6.769  0.6539  0.4474 -0.2260
  599MOL0     C80787   6.889   6.914   6.834  0.6306 -0.7909 -0.2894
  599MOL0     O80788   6.764   6.889   6.775 -0.2165 -0.6093 -0.1116
  599MOL0     C80789   6.659   6.854   6.872  0.1195 -0.2966 -0.0883
  599MOL0     C80790   6.523   6.899   6.831  1.2539  1.0143 -0.3215
  599MOL0     C80791   6.416   6.840   6.915 -0.6233 -0.5773  0.4784
  599MOL0     C80792   6.280   6.863   6.845 -0.4537  0.5402 -0.5216
  599MOL0     C80793   6.166   6.800   6.915 -0.0954 -0.1663 -0.0514
  599MOL0     C80794   6.080   6.743   6.977 -0.1369 -0.1564  0.2503
  599MOL0     C80795   6.937   6.861   6.959 -0.3411 -0.5579  0.7743
  599MOL0     C80796   7.075   6.883   6.991 -0.8191 -1.4622 -0.0931
  599MOL0     C80797   7.122   6.833   7.125  0.5194 -0.1547 -0.3883
  599MOL0     H80798   7.561   7.193   6.838  1.6925 -0.1404  0.8284
  599MOL0     H80799   7.799   7.161   6.918  1.5840 -0.1623  1.9683
  599MOL0     H80800   7.900   7.235   7.268 -1.9586  0.5458  4.0082
  599MOL0     H80801   7.864   7.074   7.350  1.3289 -1.7177 -0.2023
  599MOL0     H80802   8.087   7.010   7.242  0.6513  1.6226 -2.5229
  599MOL0     H80803   8.101   7.123   7.378  1.4394 -0.3562 -0.0147
  599MOL0     H80804   8.114   7.294   7.183 -4.0698 -0.6760  1.5077
  599MOL0     H80805   8.118   7.147   7.078 -2.4285 -1.1872  0.5292
  599MOL0     H80806   8.315   7.248   7.297  3.2933 -1.8932 -0.3585
  599MOL0     H80807   8.307   7.081   7.263 -0.9313 -0.2966 -0.1692
  599MOL0     H80808   8.351   7.134   7.019 -1.2346  1.1055 -0.2348
  599MOL0     H80809   8.356   7.312   7.048 -3.2199 -0.6368 -0.0304
  599MOL0     H80810   8.529   7.085   7.153  2.0581 -0.4472 -1.7159
  599MOL0     H80811   8.577   7.188   7.026 -1.9973  0.7855 -1.4814
  599MOL0     H80812   8.522   7.291   7.310  2.7462 -3.0071  2.1227
  599MOL0     H80813   8.575   7.395   7.178  2.2986 -0.5171 -1.2045
  599MOL0     H80814   8.722   7.154   7.291 -1.6212 -0.4837 -2.1386
  599MOL0     H80815   8.781   7.261   7.157 -0.6387 -3.0175 -0.0529
  599MOL0     H80816   8.958   7.416   7.235 -1.1241  1.0037 -0.4666
  599MOL0     H80817   8.980   7.668   7.534  0.7633 -0.5614  2.2242
  599MOL0     H80818   9.104   7.553   7.540 -0.1499  0.6048  0.2450
  599MOL0     H80819   9.097   7.578   7.263 -4.0728 -4.1036  3.2906
  599MOL0     H80820   9.018   7.731   7.290  0.4750  0.4568 -0.2654
  599MOL0     H80821   9.202   7.773   7.476  0.3656  1.1126 -0.0540
  599MOL0     H80822   9.235   7.812   7.313 -2.6826 -0.6074 -2.2797
  599MOL0     H80823   9.340   7.597   7.261  2.0331 -2.0185  0.2654
  599MOL0     H80824   9.282   7.528   7.415 -0.6697  2.7204  5.6005
  599MOL0     H80825   9.689   7.744   7.500 -1.1158  0.0438  2.3009
  599MOL0     H80826   9.880   7.613   7.500  1.3750 -1.7024 -1.7647
  599MOL0     H80827  10.036   7.120   7.631 -0.5537 -0.4761  0.4152
  599MOL0     H80828  10.264   7.027   7.623  0.6345 -1.4090 -0.2168
  599MOL0     H80829  10.486   7.023   7.231  0.6809  0.7895  0.6480
  599MOL0     H80830  10.589   6.938   7.338 -0.5898 -0.4866  0.7745
  599MOL0     H80831  10.437   6.728   7.310 -2.2895 -1.7435 -2.9969
  599MOL0     H80832  10.330   6.814   7.225  0.0225  4.0738 -1.2184
  599MOL0     H80833  10.484   6.659   7.107 -0.6094 -0.2324  2.6352
  599MOL0     H80834  10.482   6.827   7.038  0.3818  1.3256  0.6741
  599MOL0     H80835  10.719   6.686   7.152 -0.6924  0.3244 -0.3675
  599MOL0     H80836  10.697   6.846   7.208  0.8114 -0.3769  0.0287
  599MOL0     H80837  10.658   6.912   6.968  0.1058  0.0756  0.2606
  599MOL0     H80838  10.703   6.749   6.922 -1.0738  0.9385 -0.7596
  599MOL0     H80839  10.878   6.955   7.027  0.6261 -0.1110 -0.4959
  599MOL0     H80840  10.910   6.777   7.063  0.9336 -1.1830 -0.4499
  599MOL0     H80841  10.932   6.925   6.799  1.0907 -0.5784 -1.5856
  599MOL0     H80842  10.910   6.748   6.814 -1.7613  0.9374 -0.0912
  599MOL0     H80843  11.124   6.898   6.962  3.2642 -1.0190 -0.5634
  599MOL0     H80844  11.103   6.721   6.945  1.4500 -0.6617 -0.1719
  599MOL0     H80845  10.256   7.028   7.194 -2.6357 -0.6654 -0.9155
  599MOL0     H80846  10.056   7.167   7.203  0.4235 -0.7743 -1.0549
  599MOL0     H80847   9.684   7.279   7.326 -1.1219  0.4550 -1.0340
  599MOL0     H80848   9.471   7.414   7.317 -2.4812  0.0414  3.9697
  599MOL0     H80849   7.661   7.005   7.287  1.9241  2.5601  0.9536
  599MOL0     H80850   7.435   7.028   7.208  2.1071  2.7333  2.4899
  599MOL0     H80851   7.163   7.073   6.719  2.4567  0.0489  1.6088
  599MOL0     H80852   6.909   7.043   6.682 -0.8751 -3.0944 -0.6503
  599MOL0     H80853   6.679   6.904   6.967 -0.7298 -0.4667  0.1895
  599MOL0     H80854   6.661   6.746   6.891 -0.1161 -0.4450 -0.8444
  599MOL0     H80855   6.508   6.867   6.728 -0.9472  0.4703  0.1256
  599MOL0     H80856   6.525   7.008   6.847  1.2667  0.8122  1.2473
  599MOL0     H80857   6.420   6.881   7.016 -0.6848 -4.1617  2.1011
  599MOL0     H80858   6.434   6.733   6.929  0.5769 -0.7055 -1.5301
  599MOL0     H80859   6.262   6.971   6.849 -2.8972  0.1725 -0.1770
  599MOL0     H80860   6.286   6.839   6.738  0.8906  2.0874 -0.8245
  599MOL0     H80861   6.005   6.691   7.033 -1.1563 -1.2528 -1.9939
  599MOL0     H80862   6.872   6.814   7.032 -1.4978  1.9183  1.4341
  599MOL0     H80863   7.174   6.738   7.113 -0.3654 -0.7365  0.2602
  599MOL0     H80864   7.185   6.904   7.179  1.8179 -1.5373 -0.0315
  599MOL0     H80865   7.042   6.813   7.197  0.9530  1.2669  0.5275
  600MOL0     O80866   7.776  10.733   3.258 -0.9895 -0.5545 -0.2095
  600MOL0     C80867   7.752  10.622   3.302 -0.5038  0.2210 -1.0931
  600MOL0     O80868   7.851  10.525   3.328 -0.0443  0.4708 -0.2925
  600MOL0     C80869   7.972  10.527   3.267 -1.0258 -0.0224 -0.4012
  600MOL0     C80870   7.983  10.543   3.130  0.4816  0.1708  0.6591
  600MOL0     C80871   8.115  10.541   3.072 -0.0701  0.9100  0.7762
  600MOL0     C80872   8.224  10.501   3.150  0.3825  1.0207 -1.3124
  600MOL0     O80873   8.335  10.483   3.079 -0.0694  0.2438  0.2766
  600MOL0     C80874   8.467  10.502   3.142  0.1479  0.8564  0.2789
  600MOL0     C80875   8.558  10.515   3.023 -1.1203  0.1646  0.1807
  600MOL0     C80876   8.651  10.387   3.007  0.0264  0.0317 -0.2407
  600MOL0     C80877   8.744  10.393   2.883 -0.1472  0.2711 -0.4419
  600MOL0     C80878   8.672  10.366   2.752 -0.3677  0.0313  0.0749
  600MOL0     C80879   8.759  10.296   2.641  0.2076  0.7774  0.6357
  600MOL0     C80880   8.671  10.270   2.515 -0.3835  0.4534 -0.0543
  600MOL0     C80881   8.695  10.365   2.403 -0.1727  0.1247  0.0585
  600MOL0     N80882   8.589  10.368   2.303 -0.2221  0.2280  0.2956
  600MOL0     C80883   8.614  10.366   2.165  0.7452 -0.7849 -0.4507
  600MOL0     C80884   8.490  10.380   2.103  0.2432  0.1078  0.4781
  600MOL0     C80885   8.465  10.391   1.960  0.4957 -0.2393 -0.2147
  600MOL0     C80886   8.343  10.477   1.926 -0.3294 -1.1528 -0.4928
  600MOL0     C80887   8.302  10.482   1.781  0.3327  0.2091  0.0509
  600MOL0     C80888   8.427  10.528   1.695  0.0018 -0.5918  0.2930
  600MOL0     O80889   8.493  10.638   1.748  0.0078 -0.5268 -0.4903
  600MOL0     C80890   8.623  10.646   1.709 -0.3163 -0.4143  0.6117
  600MOL0     C80891   8.660  10.770   1.683 -0.0018 -0.1860 -0.9169
  600MOL0     C80892   8.784  10.804   1.638 -0.3536 -0.5763 -0.5453
  600MOL0     C80893   8.886  10.704   1.629  0.4430  0.0450  0.5348
  600MOL0     C80894   9.022  10.749   1.581 -0.0136 -0.2365  0.0421
  600MOL0     O80895   9.034  10.871   1.518 -1.1134 -0.2359 -0.0461
  600MOL0     C80896   9.173  10.915   1.519  0.5201 -1.2098  0.7122
  600MOL0     C80897   9.270  10.846   1.447  0.5114  0.8943  0.0052
  600MOL0     C80898   9.404  10.882   1.454 -0.4093  0.1607  0.2160
  600MOL0     C80899   9.446  10.996   1.515 -0.0898 -0.1266  0.9459
  600MOL0     O80900   9.571  11.033   1.539 -0.4066 -0.0079  0.5624
  600MOL0     C80901   9.667  10.951   1.484 -0.4254  0.2480  0.0566
  600MOL0     C80902   9.802  10.990   1.539 -0.6924  1.1207  0.0086
  600MOL0     C80903   9.854  11.114   1.467 -0.5456  0.2209  0.5524
  600MOL0     C80904  10.000  11.115   1.424  0.7692 -0.1298  0.3419
  600MOL0     C80905  10.037  11.263   1.375  0.4677  0.5403  0.4980
  600MOL0     C80906  10.179  11.272   1.313 -0.7588 -0.0161 -0.3065
  600MOL0     C80907  10.285  11.223   1.409 -1.4197  0.2400  0.5973
  600MOL0     C80908  10.430  11.235   1.350  0.0653  0.3154 -0.7027
  600MOL0    Cl80909  10.518  11.384   1.402  0.2437  0.0109 -0.6318
  600MOL0     C80910   9.345  11.077   1.580 -0.8498 -0.3313 -0.8151
  600MOL0     C80911   9.212  11.034   1.576  1.0038 -0.3478 -0.6145
  600MOL0     O80912   9.113  10.673   1.615 -0.1792  0.1078  0.1344
  600MOL0     C80913   8.856  10.571   1.672 -0.3742  1.0845 -1.2070
  600MOL0     C80914   8.714  10.540   1.702 -0.4541  0.1312 -0.2385
  600MOL0     N80915   8.398  10.388   2.203 -1.0930  0.1648  0.0558
  600MOL0     N80916   8.456  10.386   2.316 -0.4093  1.2403 -0.4263
  600MOL0     C80917   8.211  10.486   3.285  0.1044 -0.1510  0.3778
  600MOL0     C80918   8.086  10.496   3.345  0.0020 -0.9349 -0.7585
  600MOL0     C80919   7.614  10.589   3.324  0.3334  0.3389 -0.5544
  600MOL0     C80920   7.602  10.454   3.310 -0.1133 -0.2654 -0.1652
  600MOL0     C80921   7.480  10.391   3.334  0.1281 -0.2711 -0.1387
  600MOL0     C80922   7.366  10.462   3.375  0.0097 -0.6985  0.1743
  600MOL0     O80923   7.249  10.393   3.413 -0.3110 -0.5007 -0.0888
  600MOL0     C80924   7.150  10.476   3.479  0.7060  0.1576  0.7993
  600MOL0     C80925   7.024  10.395   3.502  0.2894  0.1605  0.0951
  600MOL0     C80926   7.047  10.258   3.558  0.6364 -0.2498  0.2290
  600MOL0     C80927   7.100  10.271   3.701  0.8663  0.2785  0.2821
  600MOL0     C80928   7.099  10.148   3.780  0.1928  0.0745  0.4283
  600MOL0     C80929   7.106  10.050   3.856 -0.0279  0.1442  0.9590
  600MOL0     C80930   7.376  10.601   3.380 -0.0575 -0.2348 -0.9065
  600MOL0     C80931   7.498  10.667   3.359 -0.2669 -0.2463 -0.5800
  600MOL0     C80932   7.497  10.820   3.368 -0.1678 -0.0174  0.8495
  600MOL0     H80933   7.900  10.564   3.064  0.6798 -0.5597  0.1584
  600MOL0     H80934   8.138  10.558   2.967  0.9556  0.9118  0.9873
  600MOL0     H80935   8.478  10.591   3.205  2.7883  0.8570 -0.0693
  600MOL0     H80936   8.488  10.418   3.208  0.8652  1.6563  1.0944
  600MOL0     H80937   8.609  10.611   3.035 -0.3163 -0.3720  1.2388
  600MOL0     H80938   8.502  10.515   2.929  1.9984 -1.5502 -1.8423
  600MOL0     H80939   8.590  10.300   2.984 -1.6107  1.4629 -1.5959
  600MOL0     H80940   8.709  10.374   3.099  0.8338 -1.8773 -0.9554
  600MOL0     H80941   8.786  10.494   2.882  0.6164 -0.0356  0.3508
  600MOL0     H80942   8.824  10.320   2.897 -0.3593  0.0737 -0.2415
  600MOL0     H80943   8.597  10.290   2.778 -1.0494  0.9996  1.0507
  600MOL0     H80944   8.630  10.460   2.714  0.0890  0.0808 -0.3228
  600MOL0     H80945   8.849  10.354   2.622  1.8100 -1.5078  0.7943
  600MOL0     H80946   8.793  10.196   2.670  0.0320 -1.1509 -4.7044
  600MOL0     H80947   8.568  10.252   2.548  0.3259 -1.7833  1.1947
  600MOL0     H80948   8.696  10.172   2.474 -2.4186 -0.1050 -0.0679
  600MOL0     H80949   8.692  10.463   2.452 -0.3518  0.5903 -0.8584
  600MOL0     H80950   8.792  10.344   2.356 -0.3044  1.4609 -0.8864
  600MOL0     H80951   8.713  10.351   2.123  0.2305 -0.6579 -1.7306
  600MOL0     H80952   8.551  10.423   1.900 -0.4642  0.7517 -1.0929
  600MOL0     H80953   8.439  10.291   1.922 -2.7240 -0.6848  2.6571
  600MOL0     H80954   8.256  10.446   1.984 -0.0746  2.1775  1.9750
  600MOL0     H80955   8.354  10.581   1.956 -1.1469 -0.7169 -1.6569
  600MOL0     H80956   8.209  10.539   1.771 -0.2381 -0.9782 -2.0690
  600MOL0     H80957   8.272  10.381   1.753  0.5078 -0.7628  3.0442
  600MOL0     H80958   8.392  10.559   1.596  1.7170  0.4756 -0.0182
  600MOL0     H80959   8.486  10.438   1.678  1.1775  0.0702  0.7533
  600MOL0     H80960   8.583  10.847   1.686 -1.8741 -1.9995 -0.1697
  600MOL0     H80961   8.798  10.911   1.621 -1.7077 -0.3944 -0.6668
  600MOL0     H80962   9.239  10.751   1.405  1.3118  0.2579  0.7944
  600MOL0     H80963   9.463  10.810   1.398 -2.0463 -2.4898  1.6951
  600MOL0     H80964   9.657  10.849   1.522 -0.1549  0.2810  0.2189
  600MOL0     H80965   9.669  10.946   1.374  3.2300  1.3979 -0.0644
  600MOL0     H80966   9.810  11.010   1.647  1.3536  1.7394 -0.2201
  600MOL0     H80967   9.872  10.907   1.526 -3.0618 -0.9864 -0.2950
  600MOL0     H80968   9.790  11.127   1.380 -0.1724 -1.7400 -0.0725
  600MOL0     H80969   9.836  11.200   1.533  0.0037  1.8933 -1.4025
  600MOL0     H80970  10.014  11.037   1.349  1.0067  0.7559 -0.5567
  600MOL0     H80971  10.047  11.100   1.522 -5.5738 -1.6633  3.6917
  600MOL0     H80972  10.033  11.325   1.465  1.3583  1.7688 -0.2835
  600MOL0     H80973   9.960  11.296   1.305 -1.4554 -3.5280  0.4052
  600MOL0     H80974  10.187  11.220   1.218 -0.5235 -2.9148  1.1898
  600MOL0     H80975  10.195  11.380   1.301 -2.0814  0.2740  0.3177
  600MOL0     H80976  10.260  11.117   1.420  2.0773 -0.8483 -0.6384
  600MOL0     H80977  10.280  11.269   1.508 -0.0037  0.6205  0.5189
  600MOL0     H80978  10.499  11.153   1.372  3.1819  2.8853 -0.1300
  600MOL0     H80979  10.419  11.236   1.241  2.2815 -1.3716 -1.0115
  600MOL0     H80980   9.367  11.158   1.649  1.8647 -2.1687  0.6639
  600MOL0     H80981   9.135  11.070   1.643 -0.7532 -3.0585 -0.9976
  600MOL0     H80982   8.931  10.493   1.671 -2.0063 -0.5533 -1.2400
  600MOL0     H80983   8.694  10.437   1.729  1.1823 -0.7832 -2.2254
  600MOL0     H80984   8.293  10.447   3.344  0.6173 -0.3654 -0.4445
  600MOL0     H80985   8.067  10.487   3.452 -0.3814 -2.7281 -0.9582
  600MOL0     H80986   7.677  10.380   3.283 -1.8779 -1.3039 -2.5827
  600MOL0     H80987   7.458  10.284   3.332 -3.9146  0.3994  0.0040
  600MOL0     H80988   7.121  10.572   3.436  0.7776 -0.1768 -0.0242
  600MOL0     H80989   7.189  10.497   3.579 -1.3057  0.5533  1.5485
  600MOL0     H80990   6.972  10.379   3.406 -0.3110  0.4510  0.3645
  600MOL0     H80991   6.957  10.446   3.572  0.4358  0.9286 -0.3072
  600MOL0     H80992   7.113  10.199   3.494  0.6175 -0.2137  0.1757
  600MOL0     H80993   6.955  10.204   3.577  1.1934 -0.4698  2.5414
  600MOL0     H80994   7.207  10.292   3.702  1.6403 -2.8612 -1.6342
  600MOL0     H80995   7.047  10.344   3.763 -1.9124 -1.4378  0.1094
  600MOL0     H80996   7.106   9.974   3.932  1.0342 -2.9672 -1.9301
  600MOL0     H80997   7.283  10.657   3.376  0.7806  1.3376  0.0814
  600MOL0     H80998   7.594  10.870   3.356 -2.5266  5.5231  1.7408
  600MOL0     H80999   7.438  10.858   3.283  1.9655  2.4499  0.3166
  600MOL0     H81000   7.461  10.850   3.466  0.6812 -1.4330  1.6325
  601MOL0     O81001   5.443   6.858   1.286 -0.3727  0.3950 -0.4626
  601MOL0     C81002   5.491   6.835   1.398 -0.0177  0.3963 -0.3083
  601MOL0     O81003   5.616   6.789   1.415  0.1141  0.1054  0.1199
  601MOL0     C81004   5.710   6.793   1.319  0.7586 -0.2513  0.1537
  601MOL0     C81005   5.694   6.764   1.184  0.0848 -0.2192  0.2816
  601MOL0     C81006   5.804   6.782   1.095 -0.3792  0.0676  1.2340
  601MOL0     C81007   5.933   6.816   1.147 -0.0459 -0.3920 -0.2961
  601MOL0     O81008   6.038   6.813   1.057 -0.3989 -0.5087  0.0615
  601MOL0     C81009   6.181   6.817   1.105 -0.5585 -0.4168  0.6740
  601MOL0     C81010   6.226   6.960   1.116  0.0199 -0.9896 -0.6252
  601MOL0     C81011   6.379   6.982   1.118 -0.3271 -0.1546 -0.2699
  601MOL0     C81012   6.464   6.881   1.038 -0.5168  0.1697  0.0924
  601MOL0     C81013   6.615   6.891   1.053 -0.4502 -0.0727  0.2702
  601MOL0     C81014   6.680   7.035   1.036 -0.2961 -0.1756  1.2189
  601MOL0     C81015   6.831   7.021   0.999  0.3671  0.2916  0.6636
  601MOL0     C81016   6.883   7.161   0.989 -0.6545  0.2003 -0.3166
  601MOL0     N81017   7.026   7.173   0.964 -0.2476  0.1478  0.2161
  601MOL0     C81018   7.076   7.236   0.851  0.1884 -0.1624 -0.4470
  601MOL0     C81019   7.201   7.276   0.888  0.4145  0.2914  0.2883
  601MOL0     C81020   7.288   7.362   0.810 -0.0747  0.0177  0.4218
  601MOL0     C81021   7.409   7.290   0.763 -0.2187 -0.6692 -0.3000
  601MOL0     C81022   7.530   7.307   0.866  0.0879 -0.3500 -0.0864
  601MOL0     C81023   7.652   7.261   0.796 -0.1923 -0.3454 -1.1963
  601MOL0     O81024   7.753   7.283   0.895  0.9965 -0.4488 -0.6623
  601MOL0     C81025   7.860   7.206   0.889  1.1185 -1.1364 -0.4380
  601MOL0     C81026   7.975   7.265   0.941 -0.6484 -0.3843 -0.0353
  601MOL0     C81027   8.093   7.193   0.960 -0.3277 -0.0155  0.8070
  601MOL0     C81028   8.103   7.061   0.909  0.0371  0.7021 -0.5325
  601MOL0     C81029   8.237   6.993   0.925  0.4933  0.1319 -0.9021
  601MOL0     O81030   8.339   7.061   0.989 -0.1653  0.0987 -0.5988
  601MOL0     C81031   8.472   7.029   0.998 -0.6766 -0.2744 -0.5716
  601MOL0     C81032   8.559   7.131   1.014 -0.7626 -0.1039  0.2924
  601MOL0     C81033   8.700   7.108   1.016  0.9509  0.2528 -0.2713
  601MOL0     C81034   8.751   6.983   1.031  0.4401 -0.1848 -0.4392
  601MOL0     O81035   8.885   6.969   1.057 -0.3928  0.1834 -0.1008
  601MOL0     C81036   8.951   6.836   1.043  0.4075  0.3898 -0.2184
  601MOL0     C81037   9.095   6.852   1.088  0.7435  1.4749 -0.5027
  601MOL0     C81038   9.203   6.890   0.988 -0.5146  0.6376  0.1323
  601MOL0     C81039   9.341   6.904   1.073 -0.1255  0.5296  0.1493
  601MOL0     C81040   9.451   6.910   0.969  0.4507 -0.1733  0.0710
  601MOL0     C81041   9.586   6.927   1.041 -0.6648  1.0885  0.8039
  601MOL0     C81042   9.633   6.797   1.112  0.2319 -0.1694  0.5319
  601MOL0     C81043   9.670   6.834   1.262 -0.1514 -0.1128  0.1191
  601MOL0    Cl81044   9.806   6.942   1.264  0.2328 -0.1361 -0.3782
  601MOL0     C81045   8.661   6.880   1.007  0.0574  0.4481  0.3073
  601MOL0     C81046   8.523   6.899   0.990  0.5779 -0.2758  0.1336
  601MOL0     O81047   8.252   6.891   0.864  0.0437  0.0481  0.6964
  601MOL0     C81048   7.986   7.005   0.852  1.2521  0.5494  1.2698
  601MOL0     C81049   7.866   7.072   0.848 -0.1649 -0.0868  0.2886
  601MOL0     N81050   7.229   7.231   1.018  0.2599  0.6319  0.7131
  601MOL0     N81051   7.130   7.170   1.056  1.4667 -0.7085 -0.4545
  601MOL0     C81052   5.950   6.851   1.283 -0.8212  0.1497  0.5167
  601MOL0     C81053   5.830   6.835   1.363 -0.0069  0.0599 -0.1021
  601MOL0     C81054   5.409   6.839   1.523  0.3371  0.4618  0.3133
  601MOL0     C81055   5.449   6.761   1.631 -0.0422 -0.1199 -0.2510
  601MOL0     C81056   5.373   6.758   1.746  0.7887 -0.1845 -0.6246
  601MOL0     C81057   5.264   6.847   1.753  0.4873  0.1361 -0.5446
  601MOL0     O81058   5.196   6.854   1.868 -0.3391 -0.2590  0.2672
  601MOL0     C81059   5.268   6.885   1.993 -0.4761 -0.1800 -0.2048
  601MOL0     C81060   5.184   6.867   2.115  0.2098 -0.2526 -0.0913
  601MOL0     C81061   5.067   6.969   2.124 -0.3892 -0.5397 -0.3440
  601MOL0     C81062   4.999   6.961   2.264 -0.2570 -0.3759  0.3593
  601MOL0     C81063   4.967   6.831   2.318  0.1417  0.0755  0.1199
  601MOL0     C81064   4.921   6.724   2.346  0.0749  0.1277 -0.1244
  601MOL0     C81065   5.226   6.923   1.652  0.8056 -0.3502  0.3876
  601MOL0     C81066   5.297   6.930   1.530  0.4172  0.2788  0.1302
  601MOL0     C81067   5.248   7.014   1.416 -0.8292  0.9237  0.0932
  601MOL0     H81068   5.599   6.738   1.139 -0.5235  1.7496  0.3696
  601MOL0     H81069   5.803   6.756   0.990  1.8986  2.4702  0.5397
  601MOL0     H81070   6.206   6.767   1.199 -1.7366 -0.1551  1.1513
  601MOL0     H81071   6.235   6.765   1.026  1.1220  2.1041  0.0512
  601MOL0     H81072   6.189   7.008   1.208 -0.6042  2.6592 -2.5752
  601MOL0     H81073   6.196   7.028   1.035  0.7619  0.5207  0.3147
  601MOL0     H81074   6.410   6.993   1.222 -0.4800 -2.1963  0.0379
  601MOL0     H81075   6.407   7.082   1.084  2.0799  0.5860  3.3422
  601MOL0     H81076   6.443   6.779   1.069  4.2430 -0.8990  0.5148
  601MOL0     H81077   6.421   6.907   0.941 -1.9426  3.2553  1.3924
  601MOL0     H81078   6.649   6.839   1.143  1.4896  1.1521  0.3036
  601MOL0     H81079   6.665   6.832   0.977  0.8314 -0.1912  1.1669
  601MOL0     H81080   6.624   7.088   0.959 -0.4365 -0.6604  0.9834
  601MOL0     H81081   6.667   7.069   1.139  0.7391 -3.7978  2.6938
  601MOL0     H81082   6.843   6.967   0.905  0.9731  0.3571  0.7021
  601MOL0     H81083   6.889   6.973   1.078  1.3127  3.2819  1.9724
  601MOL0     H81084   6.826   7.214   0.912  1.5510  2.1312 -0.7563
  601MOL0     H81085   6.874   7.224   1.078  1.3758  1.4584 -0.9278
  601MOL0     H81086   7.033   7.232   0.752 -0.8589  4.1945 -0.3596
  601MOL0     H81087   7.248   7.409   0.720  0.4155 -1.7346 -0.7608
  601MOL0     H81088   7.318   7.442   0.878  2.1688 -0.6336  0.2793
  601MOL0     H81089   7.394   7.185   0.737  0.7109 -0.7438 -0.5852
  601MOL0     H81090   7.447   7.324   0.666 -0.3497 -0.0411 -0.1374
  601MOL0     H81091   7.516   7.242   0.953 -4.6181 -0.9728 -1.0266
  601MOL0     H81092   7.525   7.412   0.899  2.0214 -0.8760  2.1070
  601MOL0     H81093   7.661   7.305   0.696  2.1751 -0.6920 -1.1755
  601MOL0     H81094   7.637   7.156   0.768 -0.8972 -1.2342  2.1507
  601MOL0     H81095   7.970   7.369   0.975  1.3060  0.0153 -0.8189
  601MOL0     H81096   8.177   7.251   0.998 -0.5504 -0.1319  1.4926
  601MOL0     H81097   8.514   7.229   1.006  2.4952  1.5142  0.1698
  601MOL0     H81098   8.770   7.190   1.024 -0.4154  1.4985 -0.6868
  601MOL0     H81099   8.895   6.778   1.117  0.6215 -0.3927 -0.6670
  601MOL0     H81100   8.953   6.799   0.940  0.3989 -2.4512  0.7058
  601MOL0     H81101   9.097   6.916   1.177 -3.1471  2.0324 -0.6431
  601MOL0     H81102   9.119   6.749   1.114 -3.6734  0.0036 -1.3529
  601MOL0     H81103   9.221   6.806   0.920  1.5530 -0.0731  1.4430
  601MOL0     H81104   9.187   6.981   0.931 -0.4842 -1.0243 -2.7428
  601MOL0     H81105   9.349   6.812   1.132  1.6042  1.2239  1.0820
  601MOL0     H81106   9.339   6.982   1.149  0.8696  2.1405 -1.3899
  601MOL0     H81107   9.432   7.004   0.915 -0.1329 -0.9190 -1.0412
  601MOL0     H81108   9.449   6.831   0.894 -0.9063 -0.6246  0.5565
  601MOL0     H81109   9.663   6.958   0.971 -0.0202  0.3704  1.1767
  601MOL0     H81110   9.578   7.014   1.108 -2.1133  1.2819  0.4261
  601MOL0     H81111   9.715   6.735   1.074 -0.2681 -1.1783  1.0547
  601MOL0     H81112   9.543   6.736   1.124  0.2349  0.1692  2.4380
  601MOL0     H81113   9.583   6.877   1.312  0.1147 -1.4833  1.8582
  601MOL0     H81114   9.699   6.752   1.328 -3.1158 -0.6118  0.9500
  601MOL0     H81115   8.699   6.778   1.014  1.3483  0.9646  1.1245
  601MOL0     H81116   8.450   6.820   0.977  0.2842 -0.1663  1.0444
  601MOL0     H81117   7.985   6.903   0.814  1.4984  0.9894  0.0115
  601MOL0     H81118   7.788   7.001   0.823 -2.2342  3.1264 -3.5999
  601MOL0     H81119   6.038   6.899   1.326 -0.7723 -0.8552  1.5992
  601MOL0     H81120   5.828   6.860   1.469  1.7128 -1.7238  0.4326
  601MOL0     H81121   5.537   6.697   1.626 -1.0727 -1.4743 -2.7053
  601MOL0     H81122   5.402   6.700   1.833  0.1992  1.6110  0.8453
  601MOL0     H81123   5.310   6.986   1.998  0.0914 -0.4663  2.2795
  601MOL0     H81124   5.359   6.825   2.006  0.8810  1.7168 -0.6148
  601MOL0     H81125   5.251   6.866   2.202  0.6755  0.1622 -0.4396
  601MOL0     H81126   5.137   6.770   2.098  1.1455 -0.6675 -0.3501
  601MOL0     H81127   5.001   6.952   2.039 -1.3397  2.2450 -0.2798
  601MOL0     H81128   5.105   7.071   2.118 -3.3785  0.6186 -1.2950
  601MOL0     H81129   5.065   7.005   2.338 -0.2138 -1.1833  0.8182
  601MOL0     H81130   4.903   7.014   2.261 -0.1669 -0.2362 -1.9075
  601MOL0     H81131   4.891   6.627   2.379 -0.8702  0.3049 -0.4198
  601MOL0     H81132   5.132   6.978   1.660  0.2170 -1.3849  0.7580
  601MOL0     H81133   5.207   6.959   1.332  1.1949 -0.0553 -0.3191
  601MOL0     H81134   5.169   7.081   1.453  1.7485  1.6132  5.3099
  601MOL0     H81135   5.325   7.080   1.374  1.7991 -1.3689  0.9750
  602MOL0     O81136   9.546  10.776   5.511 -0.2525 -0.1085 -0.1253
  602MOL0     C81137   9.600  10.677   5.454 -0.4411  0.1689  0.8619
  602MOL0     O81138   9.732  10.649   5.435  0.3973 -0.1441 -0.9996
  602MOL0     C81139   9.824  10.731   5.497 -0.2277 -0.2481 -0.5478
  602MOL0     C81140   9.949  10.740   5.438 -0.2759  0.5701 -0.0567
  602MOL0     C81141  10.063  10.769   5.514  0.4232  0.2792  0.5840
  602MOL0     C81142  10.046  10.814   5.647  0.7364  0.2958  0.0429
  602MOL0     O81143  10.158  10.859   5.721  0.7257 -0.1414 -0.2249
  602MOL0     C81144  10.208  10.753   5.802  0.2824  0.1189  0.4227
  602MOL0     C81145  10.359  10.782   5.826 -0.0628 -0.4932  0.3990
  602MOL0     C81146  10.403  10.710   5.951  0.9355 -0.4125 -0.6573
  602MOL0     C81147  10.528  10.770   6.020 -0.7942 -0.4989 -0.3497
  602MOL0     C81148  10.660  10.783   5.942  0.0315  0.2205 -0.2042
  602MOL0     C81149  10.762  10.871   6.019  0.2394  0.6767 -0.2977
  602MOL0     C81150  10.897  10.879   5.951  0.2814  0.2131  0.9742
  602MOL0     C81151  10.999  10.947   6.046 -0.0430 -0.2427  0.7885
  602MOL0     N81152  11.112  10.998   5.960 -0.5942  0.3200 -0.0940
  602MOL0     C81153  11.237  10.933   5.940 -0.0553  0.5110 -0.0721
  602MOL0     C81154  11.303  11.021   5.869 -0.5609  0.5845 -0.5662
  602MOL0     C81155  11.443  11.003   5.802 -0.5184  0.5788 -0.1228
  602MOL0     C81156  11.558  11.053   5.890  0.2221  0.5092  0.0390
  602MOL0     C81157  11.697  11.030   5.824 -0.3508 -0.6461  0.5978
  602MOL0     C81158  11.751  10.892   5.836 -0.2463 -0.3683 -1.0773
  602MOL0     O81159  11.870  10.875   5.756 -0.2109  0.1642  0.3168
  602MOL0     C81160  11.983  10.847   5.819 -0.1704  0.0704 -0.1817
  602MOL0     C81161  12.014  10.895   5.953  0.6438  0.0738  0.3407
  602MOL0     C81162  12.140  10.881   6.007 -1.2098 -0.1836 -0.3947
  602MOL0     C81163  12.244  10.830   5.927 -0.7761 -0.7154  0.8624
  602MOL0     C81164  12.382  10.823   5.977 -0.2009  0.0309  1.3824
  602MOL0     O81165  12.398  10.809   6.109 -0.1246  0.0937  0.6209
  602MOL0     C81166  12.524  10.821   6.156 -0.3611 -0.1550 -0.0383
  602MOL0     C81167  12.627  10.731   6.121  0.7359 -0.5900 -0.3212
  602MOL0     C81168  12.759  10.752   6.140  0.5898 -0.8203 -0.0377
  602MOL0     C81169  12.801  10.865   6.202  0.2528 -0.8439  0.3602
  602MOL0     O81170  12.932  10.901   6.226  0.1679  0.5517 -0.6228
  602MOL0     C81171  13.021  10.800   6.279  0.6209  0.3076 -0.4032
  602MOL0     C81172  13.169  10.846   6.303 -0.1650 -0.2526 -0.3443
  602MOL0     C81173  13.239  10.740   6.387 -0.9055 -0.3654 -0.6224
  602MOL0     C81174  13.392  10.767   6.396  0.5998 -0.1753 -0.9397
  602MOL0     C81175  13.419  10.877   6.500 -0.0139 -0.4889  0.3872
  602MOL0     C81176  13.572  10.896   6.515  0.6244 -0.5718 -0.1054
  602MOL0     C81177  13.616  11.038   6.551 -0.1879 -0.0825  0.3816
  602MOL0     C81178  13.771  11.052   6.578 -0.8224 -0.4330  0.5080
  602MOL0    Cl81179  13.845  11.051   6.408  0.0820  0.4649 -0.6233
  602MOL0     C81180  12.702  10.949   6.250 -0.0768 -0.5310 -0.2042
  602MOL0     C81181  12.565  10.930   6.231 -0.8761 -0.0073  0.8797
  602MOL0     O81182  12.470  10.797   5.895 -0.1825 -0.2734  0.4680
  602MOL0     C81183  12.210  10.778   5.795  0.6818  0.3690  0.2282
  602MOL0     C81184  12.076  10.785   5.743 -0.6240 -0.5097 -0.0800
  602MOL0     N81185  11.226  11.130   5.852  0.3199 -0.2120 -0.2004
  602MOL0     N81186  11.106  11.115   5.894  0.5487 -0.5578 -0.1843
  602MOL0     C81187   9.923  10.808   5.710 -0.3651  0.0223  0.2592
  602MOL0     C81188   9.813  10.770   5.635  0.2196  0.2460 -0.7973
  602MOL0     C81189   9.511  10.579   5.387  0.4024 -0.3607 -0.8640
  602MOL0     C81190   9.560  10.452   5.357  0.1026 -0.4969 -0.5484
  602MOL0     C81191   9.482  10.359   5.284 -0.1843 -1.0409  0.0727
  602MOL0     C81192   9.370  10.397   5.217  0.1014  0.0026  0.6145
  602MOL0     O81193   9.296  10.308   5.133 -0.3131  0.4215  0.3222
  602MOL0     C81194   9.371  10.265   5.018  0.0369 -0.4082 -0.3485
  602MOL0     C81195   9.402  10.380   4.924  0.0208 -0.1380 -0.1467
  602MOL0     C81196   9.474  10.340   4.800  0.1465 -0.0480  0.3160
  602MOL0     C81197   9.625  10.330   4.834 -0.7382  0.5115 -0.0639
  602MOL0     C81198   9.688  10.227   4.745 -0.1469 -0.8625 -0.8220
  602MOL0     C81199   9.744  10.149   4.674 -0.2327  0.5523  0.0216
  602MOL0     C81200   9.314  10.517   5.257 -0.1555  0.9302  0.3364
  602MOL0     C81201   9.379  10.610   5.338 -0.2553 -0.7319  1.2788
  602MOL0     C81202   9.329  10.740   5.337  0.9108 -1.7343  0.8386
  602MOL0     H81203   9.956  10.700   5.337 -0.5512 -0.3092  0.2609
  602MOL0     H81204  10.157  10.745   5.464  0.6770  2.5639 -0.1734
  602MOL0     H81205  10.152  10.748   5.896  2.6299  2.0525  2.0417
  602MOL0     H81206  10.190  10.655   5.755 -0.2555  1.3573 -2.1126
  602MOL0     H81207  10.365  10.890   5.838 -1.0296 -0.0952 -1.9949
  602MOL0     H81208  10.424  10.753   5.743  1.3642 -1.5076  1.8057
  602MOL0     H81209  10.423  10.606   5.926 -1.5682 -0.4955 -2.6817
  602MOL0     H81210  10.320  10.719   6.022  1.0783  1.5967 -0.6886
  602MOL0     H81211  10.511  10.873   6.051  1.4793 -0.7795  2.1726
  602MOL0     H81212  10.549  10.717   6.114 -2.6392  1.1176  1.0765
  602MOL0     H81213  10.702  10.682   5.940  1.3633  0.6271  2.4564
  602MOL0     H81214  10.627  10.817   5.843 -2.2640 -1.6080 -0.1575
  602MOL0     H81215  10.725  10.974   6.022  3.1223  1.7982  1.4999
  602MOL0     H81216  10.768  10.838   6.123  0.2395 -0.3270 -0.6027
  602MOL0     H81217  10.875  10.950   5.870  3.1740  1.4761  1.1756
  602MOL0     H81218  10.926  10.785   5.905  3.6737  1.1175  1.0498
  602MOL0     H81219  10.952  11.033   6.094  0.3684  0.5469 -0.2057
  602MOL0     H81220  11.022  10.861   6.110 -0.6922 -1.6223 -0.7747
  602MOL0     H81221  11.272  10.836   5.975 -0.3597  1.6441  3.9507
  602MOL0     H81222  11.460  10.900   5.767  2.3399  1.9485 -3.3219
  602MOL0     H81223  11.443  11.051   5.704 -1.1670  2.0073  0.5585
  602MOL0     H81224  11.556  11.162   5.884 -1.9639  0.6929  2.3729
  602MOL0     H81225  11.561  11.015   5.993  2.4964  0.8972  0.1606
  602MOL0     H81226  11.767  11.095   5.878 -1.8145  1.4901  0.0487
  602MOL0     H81227  11.697  11.069   5.722  2.9534  0.8958  1.0576
  602MOL0     H81228  11.678  10.820   5.798 -2.3160  1.3440 -0.5521
  602MOL0     H81229  11.756  10.869   5.943 -4.3409 -1.3844 -0.9476
  602MOL0     H81230  11.953  10.963   6.011 -0.1265 -0.2202 -0.1041
  602MOL0     H81231  12.153  10.911   6.110 -1.6201 -1.2766 -0.0085
  602MOL0     H81232  12.602  10.640   6.068  2.1685 -0.9772 -0.3667
  602MOL0     H81233  12.839  10.693   6.096  0.2488 -0.5563 -1.0406
  602MOL0     H81234  12.981  10.761   6.373 -3.2843  0.5159 -1.8075
  602MOL0     H81235  13.008  10.713   6.214 -1.3602  1.2478 -1.3504
  602MOL0     H81236  13.208  10.872   6.204  2.2744  1.7560  1.0524
  602MOL0     H81237  13.177  10.938   6.361 -0.3355  1.2900 -2.6089
  602MOL0     H81238  13.200  10.724   6.488  1.8559 -0.4770  0.5262
  602MOL0     H81239  13.234  10.642   6.338  0.1027 -0.9668  0.4078
  602MOL0     H81240  13.424  10.806   6.299 -1.9912 -0.6751 -2.0743
  602MOL0     H81241  13.448  10.677   6.426 -2.6840 -1.4283  2.2225
  602MOL0     H81242  13.360  10.871   6.591 -0.9797 -3.7288 -0.3020
  602MOL0     H81243  13.387  10.971   6.453 -4.2458 -2.0833 -0.3284
  602MOL0     H81244  13.603  10.821   6.588 -2.7568 -1.5452  0.5168
  602MOL0     H81245  13.626  10.869   6.424  0.7816 -0.8144  0.0606
  602MOL0     H81246  13.577  11.069   6.649  2.5118  1.3784  1.0821
  602MOL0     H81247  13.586  11.111   6.475  0.2615 -3.0319 -2.8555
  602MOL0     H81248  13.780  11.143   6.639 -1.0003 -0.7823  1.0630
  602MOL0     H81249  13.812  10.968   6.635  1.6088  2.1182  2.8616
  602MOL0     H81250  12.745  11.037   6.296  0.8869 -2.0668  2.0168
  602MOL0     H81251  12.498  11.003   6.273 -3.5868 -0.7969 -1.7604
  602MOL0     H81252  12.287  10.725   5.739 -0.4769 -1.3424  0.1585
  602MOL0     H81253  12.050  10.740   5.648 -0.2769  1.8235 -1.3486
  602MOL0     H81254   9.912  10.830   5.815  2.7160 -5.6578  2.1531
  602MOL0     H81255   9.728  10.741   5.696 -0.8268  0.1074 -2.2534
  602MOL0     H81256   9.656  10.417   5.392  0.6975  2.3283  1.0037
  602MOL0     H81257   9.515  10.257   5.263 -0.7184 -0.7904 -2.2594
  602MOL0     H81258   9.306  10.199   4.960  1.5788 -0.6106 -1.9090
  602MOL0     H81259   9.460  10.211   5.051  1.0363  2.2490  1.7388
  602MOL0     H81260   9.444  10.469   4.971  0.5099 -1.7820  2.7442
  602MOL0     H81261   9.307  10.425   4.892  0.3284  0.5370 -0.1259
  602MOL0     H81262   9.466  10.412   4.718  0.3423  0.2966  0.5937
  602MOL0     H81263   9.433  10.245   4.767 -3.7102  1.9655 -1.3290
  602MOL0     H81264   9.663  10.432   4.828 -1.9687  0.9468 -1.1336
  602MOL0     H81265   9.643  10.295   4.936  0.5604  0.0105 -0.4392
  602MOL0     H81266   9.783  10.071   4.612 -0.7154 -0.1359  0.5747
  602MOL0     H81267   9.222  10.530   5.201  0.0359 -0.1315 -0.2383
  602MOL0     H81268   9.246  10.754   5.267  1.1017  0.9701  1.0819
  602MOL0     H81269   9.299  10.763   5.440  1.8023  1.5530  0.4715
  602MOL0     H81270   9.408  10.809   5.308 -2.0599  1.2834 -0.7630
  603MOL0     O81271   5.183   0.078   8.022  0.3736  0.1729 -0.0994
  603MOL0     C81272   5.147  -0.026   8.071 -0.3568  0.4792  0.5564
  603MOL0     O81273   5.188  -0.083   8.182  0.2924  0.3610  0.1799
  603MOL0     C81274   5.311  -0.040   8.229 -0.5299 -0.2857  0.6284
  603MOL0     C81275   5.334   0.088   8.292 -0.6273  0.8797 -0.7696
  603MOL0     C81276   5.452   0.111   8.363 -0.3589  0.7269 -0.1794
  603MOL0     C81277   5.552   0.013   8.361 -0.2782 -0.2790 -0.3245
  603MOL0     O81278   5.671   0.029   8.430  0.1565 -0.0566  0.1545
  603MOL0     C81279   5.765   0.089   8.336  0.6751  0.2143 -0.1834
  603MOL0     C81280   5.899   0.070   8.388  0.3480 -0.0309 -0.7130
  603MOL0     C81281   6.013   0.167   8.347  0.3243 -0.3152  0.9696
  603MOL0     C81282   6.140   0.139   8.425  0.1798 -0.0291  0.2459
  603MOL0     C81283   6.234   0.251   8.399  0.1861  0.3542  0.2160
  603MOL0     C81284   6.210   0.368   8.486  0.2753 -0.3342 -0.0362
  603MOL0     C81285   6.331   0.467   8.464 -0.4744 -0.2288 -1.0236
  603MOL0     C81286   6.314   0.590   8.554  0.1401  0.1343  0.5091
  603MOL0     N81287   6.428   0.676   8.544 -0.9836 -0.0006  1.0293
  603MOL0     C81288   6.419   0.813   8.575 -0.9341  0.2850 -0.2934
  603MOL0     C81289   6.543   0.858   8.541 -0.1938 -0.4000  0.3295
  603MOL0     C81290   6.589   1.000   8.533  0.3719  0.7846 -0.2290
  603MOL0     C81291   6.716   1.013   8.605 -0.4219 -0.0244 -0.4183
  603MOL0     C81292   6.796   1.133   8.567  0.1510 -0.5788 -0.4746
  603MOL0     C81293   6.923   1.135   8.654 -0.1512 -0.2893 -0.3044
  603MOL0     O81294   7.004   1.025   8.618  0.7124 -0.8607  0.5286
  603MOL0     C81295   7.138   1.037   8.655  0.9357  0.6704  0.3161
  603MOL0     C81296   7.186   1.132   8.741  0.7650  0.0785  0.1976
  603MOL0     C81297   7.323   1.127   8.758 -0.6752  0.6277 -0.6033
  603MOL0     C81298   7.410   1.031   8.701 -0.0555 -0.4519  0.2314
  603MOL0     C81299   7.554   1.043   8.738 -0.7290 -0.1238  0.2107
  603MOL0     O81300   7.612   1.166   8.754  0.7594  0.1234  0.9281
  603MOL0     C81301   7.743   1.179   8.802 -0.1865  0.1316 -0.5742
  603MOL0     C81302   7.775   1.135   8.925  0.5459 -0.2062 -0.5306
  603MOL0     C81303   7.898   1.167   8.977 -0.0756  0.0318  0.4381
  603MOL0     C81304   8.004   1.224   8.900  0.1420  0.9264 -0.1956
  603MOL0     O81305   8.126   1.246   8.960  0.1798 -0.3119 -0.1690
  603MOL0     C81306   8.234   1.172   8.908 -0.2964  0.9557  0.6329
  603MOL0     C81307   8.361   1.220   8.984  0.2324  0.7976 -0.0945
  603MOL0     C81308   8.410   1.357   8.943 -0.4224  1.2963 -0.3411
  603MOL0     C81309   8.440   1.377   8.798  0.3362 -0.4783 -0.1763
  603MOL0     C81310   8.543   1.493   8.787 -0.6431 -0.7309  0.2249
  603MOL0     C81311   8.532   1.579   8.656  0.2519  0.1941  0.8556
  603MOL0     C81312   8.633   1.688   8.669 -0.0346  0.1265  0.8739
  603MOL0     C81313   8.745   1.692   8.558  0.2433  0.5704  0.3381
  603MOL0    Cl81314   8.832   1.542   8.557  0.1528  0.2956  0.2948
  603MOL0     C81315   7.972   1.261   8.770 -0.8656 -0.2111 -0.6147
  603MOL0     C81316   7.839   1.232   8.715  0.1665 -0.6256 -0.1959
  603MOL0     O81317   7.616   0.939   8.742 -0.3433 -0.7784 -1.2268
  603MOL0     C81318   7.355   0.931   8.622 -0.6393  0.1810  0.2284
  603MOL0     C81319   7.216   0.940   8.594  0.0891  0.8968 -1.2460
  603MOL0     N81320   6.614   0.752   8.482 -0.1083 -0.3317 -1.3693
  603MOL0     N81321   6.552   0.643   8.482 -0.4031  0.5185 -0.3524
  603MOL0     C81322   5.542  -0.099   8.276  0.2620  0.8207 -0.6815
  603MOL0     C81323   5.418  -0.125   8.217 -0.5114 -0.1131  0.2455
  603MOL0     C81324   5.029  -0.078   8.006 -0.1138  0.0632 -0.0409
  603MOL0     C81325   4.909  -0.003   7.982 -0.3302  0.3783 -0.2390
  603MOL0     C81326   4.792  -0.066   7.929  0.6061 -0.0108 -1.2290
  603MOL0     C81327   4.795  -0.198   7.896 -0.0038  0.7977 -0.5600
  603MOL0     O81328   4.701  -0.277   7.831  0.6320 -0.6485 -0.0544
  603MOL0     C81329   4.564  -0.229   7.809 -0.9917  0.4012 -0.3845
  603MOL0     C81330   4.540  -0.202   7.663  0.2727  0.1202  0.7836
  603MOL0     C81331   4.398  -0.167   7.632  1.1160  0.0398  0.3063
  603MOL0     C81332   4.307  -0.270   7.710 -0.7914 -0.8029  0.7235
  603MOL0     C81333   4.170  -0.251   7.670  0.0366 -0.3945  0.6169
  603MOL0     C81334   4.049  -0.255   7.645 -0.6015 -0.5905  0.6560
  603MOL0     C81335   4.906  -0.277   7.922 -0.6680 -0.5548 -0.4712
  603MOL0     C81336   5.019  -0.216   7.981  0.2201  0.2471 -0.1804
  603MOL0     C81337   5.130  -0.307   8.015  0.2772  0.4252 -0.3491
  603MOL0     H81338   5.255   0.160   8.310 -0.3963  0.3604  3.1996
  603MOL0     H81339   5.463   0.203   8.418 -0.1342 -0.1288  1.2570
  603MOL0     H81340   5.756   0.066   8.229  1.1551  0.2378 -0.2311
  603MOL0     H81341   5.744   0.196   8.346  0.2210 -0.0398  1.9455
  603MOL0     H81342   5.936  -0.031   8.367 -1.6821 -0.4606 -2.5314
  603MOL0     H81343   5.888   0.079   8.497  0.2384 -0.3852 -0.6933
  603MOL0     H81344   5.986   0.272   8.361 -1.6480 -0.4345 -1.3745
  603MOL0     H81345   6.030   0.153   8.240 -1.1639  0.8095  0.5564
  603MOL0     H81346   6.126   0.135   8.534 -1.1550 -2.5485  0.0366
  603MOL0     H81347   6.175   0.039   8.400 -0.1399 -1.6725  5.2200
  603MOL0     H81348   6.334   0.209   8.418  0.2629  0.1977 -0.5143
  603MOL0     H81349   6.234   0.280   8.294  1.7055 -1.7571 -0.4272
  603MOL0     H81350   6.117   0.413   8.450  1.0238 -0.3468 -2.1197
  603MOL0     H81351   6.206   0.338   8.591  1.9348 -3.7988 -0.8287
  603MOL0     H81352   6.337   0.492   8.358  4.6549 -2.1587 -1.4700
  603MOL0     H81353   6.426   0.417   8.486 -1.0022 -0.2351  1.6215
  603MOL0     H81354   6.228   0.654   8.532 -0.2748 -0.2411  1.0316
  603MOL0     H81355   6.290   0.559   8.656 -1.0965 -0.3091  0.0954
  603MOL0     H81356   6.330   0.870   8.598  0.9734  2.8614  1.2614
  603MOL0     H81357   6.591   1.047   8.434  0.2990  0.1931 -0.5196
  603MOL0     H81358   6.524   1.066   8.592  1.5767 -0.9621  3.3303
  603MOL0     H81359   6.703   1.003   8.713 -0.7754 -1.4375 -0.5710
  603MOL0     H81360   6.771   0.925   8.569  0.0411  0.8130 -1.8505
  603MOL0     H81361   6.741   1.227   8.579  0.8309 -0.0144 -1.5558
  603MOL0     H81362   6.812   1.120   8.459 -1.4231  1.3884 -0.9966
  603MOL0     H81363   6.906   1.130   8.762  2.5578  0.2865  0.2222
  603MOL0     H81364   6.963   1.233   8.627  1.2716  0.4000  3.6476
  603MOL0     H81365   7.126   1.207   8.793  0.1971 -0.4476  0.3067
  603MOL0     H81366   7.364   1.209   8.817 -1.5345  0.4134  0.3314
  603MOL0     H81367   7.688   1.105   8.982  0.1356  0.5270 -0.7623
  603MOL0     H81368   7.932   1.125   9.071  2.3734 -1.7007 -1.0953
  603MOL0     H81369   8.228   1.064   8.916 -2.1021  0.8317 -1.4249
  603MOL0     H81370   8.242   1.190   8.800  0.5405  1.0586  0.7011
  603MOL0     H81371   8.349   1.224   9.092  0.6035  1.3291 -0.0662
  603MOL0     H81372   8.439   1.146   8.962 -1.6885 -1.1153 -0.7170
  603MOL0     H81373   8.345   1.438   8.977 -0.3720  1.1990 -0.0001
  603MOL0     H81374   8.498   1.372   9.006 -0.0867 -0.6027 -0.2904
  603MOL0     H81375   8.353   1.404   8.737  0.4467  2.2662  0.7269
  603MOL0     H81376   8.491   1.296   8.746  0.2270 -1.3048  0.9623
  603MOL0     H81377   8.644   1.455   8.806  1.7053  5.1375  1.6364
  603MOL0     H81378   8.518   1.563   8.868 -0.6585  0.2317 -0.5929
  603MOL0     H81379   8.547   1.514   8.569 -4.3603  0.1337 -0.1209
  603MOL0     H81380   8.436   1.624   8.629  1.0511 -1.3563 -6.8339
  603MOL0     H81381   8.690   1.680   8.762  2.0842  1.0570 -0.2618
  603MOL0     H81382   8.574   1.779   8.678  1.0424  0.9023  0.3423
  603MOL0     H81383   8.710   1.721   8.458  0.2705  1.4309  0.5642
  603MOL0     H81384   8.809   1.776   8.588 -1.2039  2.5612 -1.7366
  603MOL0     H81385   8.053   1.309   8.717 -0.3620 -0.0066  0.3257
  603MOL0     H81386   7.806   1.284   8.626  2.8557  2.3755  0.3588
  603MOL0     H81387   7.410   0.856   8.565  0.3120  1.2864 -0.3565
  603MOL0     H81388   7.166   0.871   8.526 -1.5178  0.6809  0.0991
  603MOL0     H81389   5.622  -0.172   8.275 -0.7776 -0.3757 -0.2088
  603MOL0     H81390   5.411  -0.214   8.155  0.7427 -0.7933  1.0269
  603MOL0     H81391   4.914   0.099   8.017 -1.2583  0.5627 -0.6159
  603MOL0     H81392   4.704  -0.002   7.923  2.0881  2.1384 -1.4684
  603MOL0     H81393   4.529  -0.144   7.868 -0.3050  1.1483 -1.0359
  603MOL0     H81394   4.503  -0.310   7.852  0.2554 -0.8082 -0.7982
  603MOL0     H81395   4.558  -0.284   7.594 -3.9703 -0.5502  0.2040
  603MOL0     H81396   4.605  -0.121   7.629 -1.9107  1.0815 -1.4095
  603MOL0     H81397   4.379  -0.179   7.525  2.2885  0.1243  0.0828
  603MOL0     H81398   4.381  -0.063   7.662 -0.0802 -0.3144  0.9492
  603MOL0     H81399   4.340  -0.370   7.679 -2.9115 -1.5089  0.5719
  603MOL0     H81400   4.306  -0.253   7.818  3.7786  0.3072  0.7865
  603MOL0     H81401   3.942  -0.263   7.638 -0.5190 -2.0620  0.8247
  603MOL0     H81402   4.905  -0.380   7.888  0.3577 -0.7345 -0.0072
  603MOL0     H81403   5.107  -0.368   8.103 -0.0645  2.1515  0.8117
  603MOL0     H81404   5.158  -0.370   7.930  0.9956  2.3600 -1.5994
  603MOL0     H81405   5.227  -0.262   8.039  0.4132  0.0876 -0.2575
  604MOL0     O81406   2.247   2.842  10.058 -0.1604  0.2595 -0.3800
  604MOL0     C81407   2.215   2.745   9.999 -0.1979  0.2119  0.5677
  604MOL0     O81408   2.288   2.693   9.901  0.3239 -0.1914  0.6263
  604MOL0     C81409   2.418   2.730   9.902  0.1439  0.1457 -0.2277
  604MOL0     C81410   2.512   2.635   9.936  0.0636 -0.8587  0.3239
  604MOL0     C81411   2.647   2.661   9.912 -0.5593  0.2563  0.0686
  604MOL0     C81412   2.692   2.777   9.854  1.5226  0.4252 -0.7559
  604MOL0     O81413   2.823   2.817   9.834 -0.4512  0.1824  0.0672
  604MOL0     C81414   2.870   2.755   9.720 -0.3338 -1.1902 -0.3874
  604MOL0     C81415   3.020   2.799   9.701  0.3053  0.6311  0.6511
  604MOL0     C81416   3.116   2.713   9.786 -0.2186 -0.2170  0.2841
  604MOL0     C81417   3.261   2.771   9.785 -0.5989  0.2964 -0.1829
  604MOL0     C81418   3.337   2.746   9.654 -0.1671  0.1082 -0.0165
  604MOL0     C81419   3.477   2.810   9.660  0.2409  0.1227 -0.0194
  604MOL0     C81420   3.570   2.775   9.539  0.0983  0.2978 -0.0785
  604MOL0     C81421   3.708   2.831   9.560  0.1010  0.4433  0.2640
  604MOL0     N81422   3.721   2.974   9.539  0.2413  0.4765 -1.2821
  604MOL0     C81423   3.709   3.032   9.410 -0.5983 -0.1011 -0.4042
  604MOL0     C81424   3.772   3.156   9.425  0.5645  0.2736  0.7265
  604MOL0     C81425   3.804   3.251   9.310 -0.4472 -0.6251 -0.4811
  604MOL0     C81426   3.690   3.352   9.287 -0.7266  0.3002  0.6616
  604MOL0     C81427   3.639   3.415   9.408  0.8657  0.4266  0.5326
  604MOL0     C81428   3.707   3.556   9.425  0.1492  0.1195  0.1298
  604MOL0     O81429   3.852   3.542   9.441 -0.0108 -0.2699 -0.2958
  604MOL0     C81430   3.936   3.648   9.409 -0.5468 -0.1605  0.4781
  604MOL0     C81431   3.892   3.783   9.420  0.6136 -0.5307  0.6011
  604MOL0     C81432   3.994   3.892   9.413  0.7488  0.2356  0.0478
  604MOL0     C81433   4.127   3.869   9.378  0.5226 -0.1984 -0.5121
  604MOL0     C81434   4.224   3.992   9.379 -0.1516  0.6654 -0.0006
  604MOL0     O81435   4.182   4.117   9.396 -0.7639 -0.1481  0.3875
  604MOL0     C81436   4.276   4.226   9.404  0.4791  1.2903  0.1710
  604MOL0     C81437   4.240   4.344   9.338  0.5552  0.1425  0.5109
  604MOL0     C81438   4.332   4.452   9.318 -0.1288  0.0780 -0.7574
  604MOL0     C81439   4.465   4.448   9.380  0.1530 -0.0035 -0.3061
  604MOL0     O81440   4.555   4.549   9.389  0.7271 -0.6864 -0.0269
  604MOL0     C81441   4.533   4.655   9.298 -0.5161 -1.4096  0.1559
  604MOL0     C81442   4.645   4.758   9.317  0.4625 -0.0784 -0.3107
  604MOL0     C81443   4.786   4.689   9.298 -0.3655  0.2046  0.3773
  604MOL0     C81444   4.895   4.800   9.289 -0.2158  0.0956  0.2012
  604MOL0     C81445   5.034   4.733   9.295 -0.7351 -1.1276  0.1353
  604MOL0     C81446   5.148   4.847   9.274 -0.0820  0.0583  0.5708
  604MOL0     C81447   5.185   4.884   9.412 -0.0892 -0.2779 -0.3229
  604MOL0     C81448   5.249   5.023   9.418  0.2536  0.8418  0.3493
  604MOL0    Cl81449   5.389   5.049   9.300 -0.2855 -0.0287 -0.6314
  604MOL0     C81450   4.489   4.334   9.459 -0.2279 -0.6382 -0.2816
  604MOL0     C81451   4.397   4.227   9.472  0.4866  0.7293 -0.0705
  604MOL0     O81452   4.340   3.953   9.354 -0.0063 -0.4646 -0.0754
  604MOL0     C81453   4.172   3.732   9.367  0.3432 -0.0312 -0.2438
  604MOL0     C81454   4.071   3.627   9.380 -0.2736  0.1622  0.0692
  604MOL0     N81455   3.818   3.165   9.559 -0.3366 -0.9949  0.2681
  604MOL0     N81456   3.795   3.058   9.618 -1.1175  0.2497 -0.4123
  604MOL0     C81457   2.590   2.870   9.815 -0.2269 -0.5483 -0.2732
  604MOL0     C81458   2.458   2.852   9.849 -0.3185  0.3476  0.1847
  604MOL0     C81459   2.086   2.686  10.034  0.8479  1.6856 -0.6794
  604MOL0     C81460   2.052   2.571   9.966  1.1805 -0.0407  0.0220
  604MOL0     C81461   1.927   2.510   9.979 -0.3683  0.2522 -0.0526
  604MOL0     C81462   1.834   2.557  10.068  0.3366 -0.4413  0.0017
  604MOL0     O81463   1.709   2.504  10.094 -0.1391 -0.1316 -0.1536
  604MOL0     C81464   1.663   2.416   9.995 -0.1731  0.0084 -0.8820
  604MOL0     C81465   1.521   2.381  10.028  0.3215  0.2786 -0.5095
  604MOL0     C81466   1.501   2.268  10.133  0.0253  0.2405 -0.5090
  604MOL0     C81467   1.358   2.261  10.184  0.3668  0.9676  0.0433
  604MOL0     C81468   1.343   2.171  10.306 -0.9651 -0.5164  1.2439
  604MOL0     C81469   1.359   2.081  10.386  0.0112 -0.5474 -0.2386
  604MOL0     C81470   1.881   2.655  10.154  0.6256  0.4721 -0.2444
  604MOL0     C81471   1.997   2.722  10.136 -0.1497 -0.1727 -0.1464
  604MOL0     C81472   2.007   2.858  10.213 -0.1159 -1.0789  0.1917
  604MOL0     H81473   2.490   2.539   9.983  1.8060 -0.1575  2.7582
  604MOL0     H81474   2.727   2.592   9.937 -3.1042 -3.4821 -1.3229
  604MOL0     H81475   2.864   2.646   9.721  0.6651 -1.3291  2.9706
  604MOL0     H81476   2.811   2.794   9.636 -0.9763  1.0623  1.0088
  604MOL0     H81477   3.028   2.904   9.728 -1.2495  0.7137  0.8815
  604MOL0     H81478   3.039   2.774   9.597 -1.6285 -0.6129  0.5405
  604MOL0     H81479   3.117   2.607   9.761 -1.1828 -0.5849  1.6622
  604MOL0     H81480   3.077   2.716   9.889  1.3883  3.1049  0.9379
  604MOL0     H81481   3.250   2.877   9.809 -1.7595  0.1781 -0.1334
  604MOL0     H81482   3.325   2.724   9.861 -1.3550 -2.5864 -1.2071
  604MOL0     H81483   3.346   2.637   9.645 -1.1876  0.2008 -3.4630
  604MOL0     H81484   3.277   2.785   9.572 -0.5057 -0.1863  0.0885
  604MOL0     H81485   3.448   2.915   9.655  0.6516  0.2355 -0.0198
  604MOL0     H81486   3.529   2.777   9.751 -1.3104  0.9739  1.2256
  604MOL0     H81487   3.529   2.814   9.446  1.8871  0.5891 -0.7947
  604MOL0     H81488   3.587   2.667   9.530  2.9457  0.6719 -0.2857
  604MOL0     H81489   3.735   2.799   9.661 -1.1210 -0.0249  0.4532
  604MOL0     H81490   3.775   2.778   9.492  0.8485  1.2376  0.3610
  604MOL0     H81491   3.665   2.992   9.319  0.2047  2.1712 -1.8936
  604MOL0     H81492   3.902   3.294   9.333 -0.2252 -2.7755  3.5271
  604MOL0     H81493   3.812   3.198   9.215 -1.9604  0.3571 -1.1869
  604MOL0     H81494   3.708   3.430   9.213  1.0287 -1.0997 -0.4965
  604MOL0     H81495   3.615   3.290   9.235  1.0592 -2.6010  1.2900
  604MOL0     H81496   3.650   3.350   9.495  1.1097 -3.1633 -1.9824
  604MOL0     H81497   3.531   3.423   9.392  1.1045 -0.5736 -2.0914
  604MOL0     H81498   3.673   3.598   9.520 -1.4793 -1.0564  0.1163
  604MOL0     H81499   3.673   3.636   9.359 -3.6024  0.6502  2.4045
  604MOL0     H81500   3.790   3.805   9.448  0.7796  0.3973  0.5183
  604MOL0     H81501   3.961   3.995   9.428  2.5301  0.9706 -0.8212
  604MOL0     H81502   4.137   4.340   9.304 -0.1308  0.2721  2.4694
  604MOL0     H81503   4.281   4.532   9.265 -0.9732 -1.2647 -2.0437
  604MOL0     H81504   4.556   4.616   9.198 -1.0434 -1.0056 -0.1295
  604MOL0     H81505   4.437   4.704   9.314  0.5952  0.0641  3.1827
  604MOL0     H81506   4.632   4.842   9.247  1.2665  0.6870  0.4217
  604MOL0     H81507   4.644   4.799   9.418  2.2830 -3.0529  1.0259
  604MOL0     H81508   4.804   4.622   9.383  2.0052  0.2250 -0.0165
  604MOL0     H81509   4.784   4.638   9.201 -2.1431 -0.9848  1.0055
  604MOL0     H81510   4.881   4.849   9.386 -1.8008 -2.7063  1.5449
  604MOL0     H81511   4.879   4.865   9.203  0.0822 -0.5694 -0.3712
  604MOL0     H81512   5.044   4.672   9.205  0.4508 -2.2583  0.9867
  604MOL0     H81513   5.052   4.672   9.384  1.0767  2.6495  2.6458
  604MOL0     H81514   5.226   4.807   9.208 -1.9010 -0.0623 -1.6348
  604MOL0     H81515   5.104   4.934   9.224 -0.4953 -0.4251  0.0809
  604MOL0     H81516   5.247   4.799   9.441  1.6068  1.0768  0.2253
  604MOL0     H81517   5.098   4.893   9.478  1.1235  1.4478  1.1422
  604MOL0     H81518   5.157   5.081   9.404  0.1089  1.2319  2.5912
  604MOL0     H81519   5.271   5.046   9.523  1.1371 -0.2383  0.4242
  604MOL0     H81520   4.579   4.340   9.519  0.9957 -1.1403 -1.9930
  604MOL0     H81521   4.434   4.141   9.528 -2.1640 -0.5094 -0.0649
  604MOL0     H81522   4.279   3.718   9.355  0.2935  0.5589 -1.5270
  604MOL0     H81523   4.115   3.528   9.387  3.3766  1.7025  1.5757
  604MOL0     H81524   2.609   2.968   9.773 -0.7290 -0.6892 -0.8402
  604MOL0     H81525   2.381   2.925   9.826 -2.1730  0.2387  4.8725
  604MOL0     H81526   2.123   2.540   9.890 -2.1504 -1.6223 -2.7458
  604MOL0     H81527   1.911   2.421   9.919  0.9889  0.3095 -0.5458
  604MOL0     H81528   1.718   2.321   9.986 -0.0374 -0.2362  1.8074
  604MOL0     H81529   1.677   2.474   9.904  1.8214  0.5928 -0.2502
  604MOL0     H81530   1.475   2.352   9.933  1.2115  2.4729 -1.6886
  604MOL0     H81531   1.464   2.464  10.072  0.2167  0.9497 -1.8631
  604MOL0     H81532   1.573   2.276  10.215 -0.0556 -0.0892 -0.4046
  604MOL0     H81533   1.523   2.176  10.079 -0.4082  0.2305 -0.6756
  604MOL0     H81534   1.319   2.360  10.211 -0.3852  0.6434  0.1716
  604MOL0     H81535   1.291   2.225  10.104  0.2989 -1.1167  0.9889
  604MOL0     H81536   1.375   2.007  10.461 -4.1138 -1.9781 -0.5292
  604MOL0     H81537   1.813   2.681  10.234  1.6313 -0.9035  1.1107
  604MOL0     H81538   2.010   2.944  10.145 -1.4872 -0.8360  0.4007
  604MOL0     H81539   1.925   2.866  10.286 -2.1716 -1.8571 -1.9004
  604MOL0     H81540   2.106   2.862  10.259 -0.5414 -3.8161  1.5118
  605MOL0     O81541   1.348   9.903   1.715  0.1037 -0.2401 -0.0523
  605MOL0     C81542   1.280   9.819   1.662  0.0943 -1.4522 -0.0826
  605MOL0     O81543   1.333   9.709   1.597  0.5251  0.1611  0.0194
  605MOL0     C81544   1.470   9.685   1.604 -0.6743 -0.1461 -0.2999
  605MOL0     C81545   1.544   9.722   1.491  0.5354  0.0714  0.6483
  605MOL0     C81546   1.686   9.708   1.490 -0.1774 -0.5737  0.2622
  605MOL0     C81547   1.748   9.641   1.596  0.6385 -0.4553 -0.1068
  605MOL0     O81548   1.886   9.638   1.599  0.2711  0.0700 -0.0739
  605MOL0     C81549   1.947   9.536   1.686  1.2287  0.1183 -0.4759
  605MOL0     C81550   2.089   9.501   1.627 -1.2292  0.3405  0.3930
  605MOL0     C81551   2.190   9.474   1.737 -0.9043 -0.6163 -0.2414
  605MOL0     C81552   2.166   9.350   1.824  0.5326 -0.6461 -0.7217
  605MOL0     C81553   2.271   9.332   1.926 -0.4541  0.1230 -0.0928
  605MOL0     C81554   2.410   9.310   1.861 -0.2686  0.5561  0.2929
  605MOL0     C81555   2.502   9.430   1.880 -0.3917 -0.7641  0.5875
  605MOL0     C81556   2.605   9.428   1.769 -0.4844  0.0674 -0.4094
  605MOL0     N81557   2.686   9.554   1.769  0.3275 -0.1300  0.3660
  605MOL0     C81558   2.800   9.572   1.838  0.5013 -0.5233 -0.3694
  605MOL0     C81559   2.837   9.697   1.797  0.1519 -0.1834 -0.1704
  605MOL0     C81560   2.947   9.785   1.839 -0.0086 -0.1186  0.2963
  605MOL0     C81561   2.883   9.895   1.927 -0.3566 -1.0248 -0.6989
  605MOL0     C81562   2.865   9.830   2.059  0.0167  0.0337  0.3201
  605MOL0     C81563   2.804   9.937   2.148 -0.0402  0.4103  0.1648
  605MOL0     O81564   2.718   9.874   2.244 -0.3675 -0.3696 -0.2645
  605MOL0     C81565   2.588   9.838   2.219  0.9905  0.2549  0.0632
  605MOL0     C81566   2.531   9.832   2.091 -0.2869  0.1188  0.3938
  605MOL0     C81567   2.394   9.804   2.074 -0.2991 -0.1078 -0.2408
  605MOL0     C81568   2.313   9.751   2.183 -0.0069  0.0326 -0.3956
  605MOL0     C81569   2.180   9.694   2.163  0.1197 -0.4597  0.9398
  605MOL0     O81570   2.125   9.623   2.261  0.3359 -1.0236  0.4897
  605MOL0     C81571   1.992   9.592   2.246 -0.2608 -0.1490  0.2130
  605MOL0     C81572   1.902   9.666   2.318  0.3550  0.1035  0.6694
  605MOL0     C81573   1.766   9.641   2.315 -0.2437  0.2923  0.2827
  605MOL0     C81574   1.732   9.522   2.237  0.7430 -0.2398  0.7786
  605MOL0     O81575   1.598   9.498   2.252 -0.0679 -0.9406 -0.4207
  605MOL0     C81576   1.542   9.404   2.165 -0.5561 -0.1487  0.2785
  605MOL0     C81577   1.394   9.380   2.170  0.2924 -0.2951 -0.3907
  605MOL0     C81578   1.360   9.333   2.310 -0.0333 -0.0969  0.7313
  605MOL0     C81579   1.211   9.306   2.287 -0.1922  0.2100 -0.1975
  605MOL0     C81580   1.135   9.264   2.421 -0.4741 -0.8491  0.4053
  605MOL0     C81581   1.185   9.141   2.484 -0.0525  0.5776 -0.1162
  605MOL0     C81582   1.093   9.066   2.578  0.0491 -1.1120  0.7634
  605MOL0     C81583   1.132   8.935   2.627 -0.3525  0.4410  0.2201
  605MOL0    Cl81584   1.287   8.950   2.714  0.5971  0.4904 -0.2399
  605MOL0     C81585   1.819   9.451   2.157  0.0758  0.6669 -0.1688
  605MOL0     C81586   1.955   9.483   2.168  1.2726 -0.5260  0.3436
  605MOL0     O81587   2.129   9.715   2.054  0.2417  0.3297  0.0706
  605MOL0     C81588   2.382   9.740   2.308  1.0577  0.3479  0.6927
  605MOL0     C81589   2.514   9.778   2.326  0.4065 -0.2793 -0.7488
  605MOL0     N81590   2.757   9.741   1.695  0.1380  0.0554 -0.1304
  605MOL0     N81591   2.653   9.665   1.694  0.9546  0.5660 -0.2291
  605MOL0     C81592   1.668   9.581   1.696 -0.6354  0.1584 -0.4773
  605MOL0     C81593   1.528   9.614   1.706 -0.5108 -0.0788 -0.8413
  605MOL0     C81594   1.127   9.837   1.648  0.8993  0.0609 -0.0616
  605MOL0     C81595   1.071   9.778   1.532 -0.0826 -0.2446 -0.2391
  605MOL0     C81596   0.934   9.781   1.499  0.0316  0.4606  0.4851
  605MOL0     C81597   0.851   9.853   1.590  0.1647  0.2802  1.3370
  605MOL0     O81598   0.714   9.872   1.573 -0.0594 -0.5237 -0.1126
  605MOL0     C81599   0.647   9.808   1.457 -0.7479  0.2059  0.1483
  605MOL0     C81600   0.617   9.660   1.481  0.0211  0.2791  0.4240
  605MOL0     C81601   0.505   9.634   1.582 -0.6345  0.6930 -0.1730
  605MOL0     C81602   0.371   9.617   1.526 -0.3404  0.0997  0.4751
  605MOL0     C81603   0.274   9.561   1.618 -0.2121 -0.4924 -0.0457
  605MOL0     C81604   0.191   9.520   1.692  1.1850 -0.1003 -0.6580
  605MOL0     C81605   0.906   9.923   1.692 -0.0949 -0.6451 -0.5670
  605MOL0     C81606   1.038   9.906   1.735  0.1306 -0.2519  0.3827
  605MOL0     C81607   1.081   9.974   1.859 -1.0883  0.1010  0.8961
  605MOL0     H81608   1.506   9.785   1.411 -0.8440  2.2517  2.8799
  605MOL0     H81609   1.762   9.749   1.425 -0.0524  2.3411  2.0842
  605MOL0     H81610   1.936   9.562   1.792 -0.7764  1.2067 -0.9075
  605MOL0     H81611   1.890   9.444   1.667  0.9546  0.0150  0.7663
  605MOL0     H81612   2.126   9.590   1.576  0.0936 -1.1049 -1.3518
  605MOL0     H81613   2.083   9.427   1.547 -2.4841  1.1373 -0.2765
  605MOL0     H81614   2.183   9.563   1.799  1.4827  1.5651 -2.8401
  605MOL0     H81615   2.290   9.477   1.692 -1.4658  1.3340 -1.4951
  605MOL0     H81616   2.077   9.368   1.885  2.1440  2.0702  1.0432
  605MOL0     H81617   2.160   9.256   1.769  1.3737 -1.3767  0.3960
  605MOL0     H81618   2.271   9.404   2.009  5.3036  1.2218 -0.6595
  605MOL0     H81619   2.249   9.234   1.971  1.5072 -0.2060  0.2281
  605MOL0     H81620   2.451   9.223   1.914  2.1146  1.2554 -0.2912
  605MOL0     H81621   2.401   9.268   1.761 -1.4403  0.2684  0.5068
  605MOL0     H81622   2.540   9.432   1.982 -3.0617 -1.0959  1.6750
  605MOL0     H81623   2.445   9.524   1.875  1.6830  0.5100 -2.0333
  605MOL0     H81624   2.671   9.342   1.783 -2.2537 -1.1840  0.6475
  605MOL0     H81625   2.550   9.424   1.674  1.7211  0.8172 -1.8080
  605MOL0     H81626   2.851   9.514   1.915  2.2826 -0.1195 -1.1867
  605MOL0     H81627   3.019   9.725   1.895  0.2787  0.7708  0.9036
  605MOL0     H81628   2.994   9.832   1.752 -1.4705  0.3802 -0.2632
  605MOL0     H81629   2.949   9.981   1.941  0.6454 -1.8647 -0.1669
  605MOL0     H81630   2.789   9.933   1.885  0.8881  2.2219 -0.8619
  605MOL0     H81631   2.957   9.795   2.106 -1.4035 -1.3059  2.2196
  605MOL0     H81632   2.792   9.752   2.040  0.7347 -0.3787 -0.8349
  605MOL0     H81633   2.744  10.014   2.099 -1.2014  1.6154  3.2318
  605MOL0     H81634   2.885   9.979   2.209  1.5294 -0.5960 -1.1350
  605MOL0     H81635   2.588   9.862   2.003 -1.8325 -0.4522 -0.8445
  605MOL0     H81636   2.342   9.799   1.978 -0.7195 -1.7465  0.0503
  605MOL0     H81637   1.931   9.757   2.369 -0.4662  1.4313 -1.1514
  605MOL0     H81638   1.687   9.693   2.368 -1.4274  0.2670 -1.4097
  605MOL0     H81639   1.557   9.438   2.062 -0.4020  0.3090  0.4526
  605MOL0     H81640   1.600   9.315   2.191  0.6504  0.2595 -0.8939
  605MOL0     H81641   1.340   9.473   2.151  1.1214  0.2988  0.0951
  605MOL0     H81642   1.381   9.301   2.096  4.4252 -0.9327 -0.6921
  605MOL0     H81643   1.412   9.241   2.339 -2.0806 -2.3568 -2.1452
  605MOL0     H81644   1.374   9.414   2.382  2.1562  0.6919 -0.4691
  605MOL0     H81645   1.213   9.224   2.215  0.2902  1.8443 -2.1312
  605MOL0     H81646   1.159   9.390   2.241  1.6428  0.7329 -1.4095
  605MOL0     H81647   1.030   9.250   2.394 -0.1106 -2.7189 -0.1641
  605MOL0     H81648   1.146   9.346   2.493 -1.1800  2.9608 -3.3703
  605MOL0     H81649   1.189   9.067   2.403 -0.7958  1.2151 -0.7516
  605MOL0     H81650   1.285   9.162   2.524  0.2432 -1.1272  0.1231
  605MOL0     H81651   1.001   9.050   2.521 -0.6068  0.3535  1.3547
  605MOL0     H81652   1.077   9.134   2.662 -0.3235  0.6131 -0.6370
  605MOL0     H81653   1.050   8.890   2.684 -0.8060  2.1888  1.0173
  605MOL0     H81654   1.143   8.875   2.536  0.6710  0.2101  0.4901
  605MOL0     H81655   1.783   9.367   2.100 -1.7095 -1.5206  3.7751
  605MOL0     H81656   2.039   9.441   2.113  0.9787  0.5102 -0.9508
  605MOL0     H81657   2.331   9.687   2.388 -0.1595 -0.8393 -0.7941
  605MOL0     H81658   2.557   9.775   2.425  0.8750 -0.3642 -0.9547
  605MOL0     H81659   1.711   9.530   1.782 -0.0249  0.9036 -0.3361
  605MOL0     H81660   1.471   9.601   1.798 -0.6279  0.4529 -0.8376
  605MOL0     H81661   1.130   9.721   1.461 -1.7240 -1.3912 -0.7395
  605MOL0     H81662   0.905   9.727   1.410 -0.3460  0.1948  0.7703
  605MOL0     H81663   0.711   9.808   1.368  1.7323 -0.8503  1.8280
  605MOL0     H81664   0.559   9.861   1.421 -1.4573  0.1244  1.6712
  605MOL0     H81665   0.711   9.616   1.514 -0.0134 -0.1418 -0.0222
  605MOL0     H81666   0.597   9.613   1.384  1.8859  0.3919 -0.0566
  605MOL0     H81667   0.510   9.715   1.655  0.4351  2.1318 -1.7833
  605MOL0     H81668   0.537   9.551   1.646 -0.1228  3.0570  2.8573
  605MOL0     H81669   0.334   9.712   1.486  2.3814  1.0173 -0.0861
  605MOL0     H81670   0.387   9.537   1.453 -1.8034  0.0093  0.2125
  605MOL0     H81671   0.119   9.493   1.766 -1.7151  2.3979 -2.3434
  605MOL0     H81672   0.840   9.983   1.754  0.3225  0.4203 -1.1184
  605MOL0     H81673   0.999  10.004   1.925 -1.3479  0.7569  0.2876
  605MOL0     H81674   1.135   9.901   1.920  0.4527  0.7175  0.3248
  605MOL0     H81675   1.154  10.056   1.853  4.5224 -3.7835  5.0352
  606MOL0     O81676   2.319   1.145   3.447 -0.1859  0.5103  0.2403
  606MOL0     C81677   2.272   1.048   3.385 -0.3401  0.4129  0.4631
  606MOL0     O81678   2.320   0.917   3.394 -0.3117 -0.8764  0.0893
  606MOL0     C81679   2.456   0.904   3.442 -0.3765  0.1137 -0.4190
  606MOL0     C81680   2.560   0.916   3.351 -0.4234  0.3800 -0.6298
  606MOL0     C81681   2.697   0.893   3.393  0.4789 -0.0985 -0.3924
  606MOL0     C81682   2.729   0.873   3.529 -0.0379  0.7179  0.3123
  606MOL0     O81683   2.862   0.871   3.572 -0.0839  0.4206  0.9075
  606MOL0     C81684   2.895   0.837   3.703  0.2574  0.1238  0.1121
  606MOL0     C81685   3.044   0.846   3.728 -0.3663 -1.0904  0.0110
  606MOL0     C81686   3.112   0.983   3.692  0.7397 -0.1283  1.1612
  606MOL0     C81687   3.264   0.966   3.694 -0.1769  0.3040 -0.3810
  606MOL0     C81688   3.343   1.090   3.631 -1.6733  0.4781 -0.2295
  606MOL0     C81689   3.496   1.095   3.637  0.1707  0.1264 -0.2421
  606MOL0     C81690   3.565   0.991   3.550  0.0996  0.2489  0.7780
  606MOL0     C81691   3.619   1.047   3.406 -0.3675 -0.0902 -0.2193
  606MOL0     N81692   3.736   1.134   3.425  0.2115 -0.1704 -0.4236
  606MOL0     C81693   3.866   1.089   3.393 -0.4883  0.6989 -0.5690
  606MOL0     C81694   3.940   1.202   3.398  0.3450  0.2087 -0.3234
  606MOL0     C81695   4.091   1.209   3.362  0.3649  0.3923 -0.2466
  606MOL0     C81696   4.167   1.331   3.422 -0.7234  0.3162  0.0119
  606MOL0     C81697   4.310   1.339   3.366  0.4627  0.2829 -0.0161
  606MOL0     C81698   4.384   1.456   3.423  0.4807 -0.0172  0.9877
  606MOL0     O81699   4.521   1.466   3.377 -0.4209 -0.2455 -0.2950
  606MOL0     C81700   4.598   1.551   3.456 -0.1537 -0.8277  0.0208
  606MOL0     C81701   4.738   1.548   3.447 -0.1963 -0.9053  0.4322
  606MOL0     C81702   4.818   1.630   3.524  0.0456  0.2756 -1.0069
  606MOL0     C81703   4.765   1.725   3.613  0.3916 -0.7760  0.0903
  606MOL0     C81704   4.852   1.831   3.674  0.4630  0.4005  0.8904
  606MOL0     O81705   4.982   1.845   3.623  0.1931  0.4508  0.3856
  606MOL0     C81706   5.062   1.944   3.673 -0.3981 -0.2125 -0.0342
  606MOL0     C81707   5.023   2.073   3.724  0.1186  0.0606  1.2879
  606MOL0     C81708   5.119   2.166   3.763  0.7958  0.3548  0.1309
  606MOL0     C81709   5.257   2.138   3.759  0.1675 -0.0561  0.3173
  606MOL0     O81710   5.356   2.220   3.810  0.7077  0.2220 -0.0636
  606MOL0     C81711   5.317   2.343   3.879 -0.1171  0.1725 -0.6797
  606MOL0     C81712   5.432   2.438   3.920  0.5128  0.5365 -0.6010
  606MOL0     C81713   5.534   2.456   3.801  0.7370  0.2659  0.4772
  606MOL0     C81714   5.658   2.546   3.847 -0.7074  0.1532  0.1858
  606MOL0     C81715   5.763   2.562   3.735  0.6781  1.0221  0.7464
  606MOL0     C81716   5.884   2.648   3.770  0.7011  0.3562 -1.2117
  606MOL0     C81717   5.991   2.586   3.866  0.8394  0.8772  0.7888
  606MOL0     C81718   6.087   2.516   3.770 -0.6664 -0.4917  0.1288
  606MOL0    Cl81719   6.231   2.447   3.855  0.2538  0.1403  0.1753
  606MOL0     C81720   5.292   2.000   3.723 -0.5363 -0.6234 -0.2195
  606MOL0     C81721   5.202   1.907   3.668  0.7647 -1.3893 -0.4492
  606MOL0     O81722   4.802   1.886   3.778 -0.2922  0.1717 -0.7764
  606MOL0     C81723   4.624   1.722   3.633 -0.3762  0.6260 -0.1181
  606MOL0     C81724   4.541   1.641   3.554 -0.5421 -0.2119  0.3195
  606MOL0     N81725   3.856   1.306   3.428 -0.7756  0.2090 -0.2556
  606MOL0     N81726   3.736   1.266   3.438  0.6002 -0.3323 -0.4142
  606MOL0     C81727   2.617   0.856   3.622  0.4381 -1.2830  0.7336
  606MOL0     C81728   2.478   0.868   3.573  0.0071  0.0311 -0.3495
  606MOL0     C81729   2.129   1.065   3.329  0.4400 -0.5912  0.7889
  606MOL0     C81730   2.074   0.959   3.260  0.4139  0.5830 -0.5156
  606MOL0     C81731   1.943   0.960   3.201 -0.9069  0.5804 -0.0113
  606MOL0     C81732   1.871   1.084   3.205  0.2284  0.7886 -0.1928
  606MOL0     O81733   1.751   1.072   3.153  0.3108 -0.3097 -0.2168
  606MOL0     C81734   1.638   1.156   3.198 -0.1398 -0.4052  0.1259
  606MOL0     C81735   1.515   1.081   3.177 -0.3697  0.6277 -0.1174
  606MOL0     C81736   1.482   1.057   3.028 -1.2548 -0.5474 -0.3526
  606MOL0     C81737   1.343   0.989   3.004  0.5638 -0.0733  0.1328
  606MOL0     C81738   1.224   1.068   3.044  0.0239 -0.7414 -0.5433
  606MOL0     C81739   1.126   1.128   3.089  0.1302  0.3500  0.2422
  606MOL0     C81740   1.922   1.193   3.277  0.4300  0.8568 -0.3741
  606MOL0     C81741   2.053   1.185   3.331  0.9973  0.2344  0.4629
  606MOL0     C81742   2.086   1.304   3.411 -0.1265 -0.1057 -0.2504
  606MOL0     H81743   2.536   0.925   3.245 -2.1272  2.7357 -0.1282
  606MOL0     H81744   2.775   0.898   3.318 -0.3645  3.4739 -1.2057
  606MOL0     H81745   2.835   0.888   3.779  0.3547  0.7049 -0.1918
  606MOL0     H81746   2.881   0.729   3.709  0.8517  0.0584  0.4020
  606MOL0     H81747   3.095   0.776   3.662 -0.2933  0.3651 -1.5617
  606MOL0     H81748   3.079   0.825   3.830  1.7289 -1.6880 -0.7823
  606MOL0     H81749   3.085   1.057   3.768  0.3691 -0.0134  0.9231
  606MOL0     H81750   3.092   1.021   3.591  0.6211 -1.2075  0.7632
  606MOL0     H81751   3.305   0.962   3.796 -0.0462  2.8009 -0.2712
  606MOL0     H81752   3.287   0.876   3.636 -3.7661 -0.8098 -0.3336
  606MOL0     H81753   3.312   1.101   3.527  1.3423 -1.7588 -1.5403
  606MOL0     H81754   3.306   1.182   3.676 -0.3211  0.9358 -0.0078
  606MOL0     H81755   3.528   1.198   3.620 -1.2075  0.5469 -0.3928
  606MOL0     H81756   3.523   1.060   3.737  3.6045 -0.6157 -1.2735
  606MOL0     H81757   3.500   0.905   3.537 -3.7283  3.2036 -1.7028
  606MOL0     H81758   3.657   0.952   3.594  0.1830  0.6092  0.9286
  606MOL0     H81759   3.639   0.972   3.329  0.4786  0.0963 -0.1843
  606MOL0     H81760   3.552   1.120   3.359  1.6278  1.5398 -0.6825
  606MOL0     H81761   3.905   0.989   3.374  0.2062  0.8316  0.0735
  606MOL0     H81762   4.145   1.122   3.401  0.1070  0.4538  0.2555
  606MOL0     H81763   4.100   1.223   3.254 -0.5265  0.1078 -0.3710
  606MOL0     H81764   4.128   1.430   3.394 -1.2112  0.2325  0.3587
  606MOL0     H81765   4.164   1.321   3.531 -0.5122  1.7298  0.1680
  606MOL0     H81766   4.317   1.346   3.257 -2.9361  1.6482 -0.2783
  606MOL0     H81767   4.349   1.239   3.386 -2.3928 -1.7982 -3.7311
  606MOL0     H81768   4.387   1.447   3.532 -0.0003  2.0164  1.2022
  606MOL0     H81769   4.334   1.548   3.390 -0.1962 -1.0307 -0.9647
  606MOL0     H81770   4.781   1.488   3.368 -4.1805 -2.2226 -0.9719
  606MOL0     H81771   4.926   1.629   3.512  0.1199 -1.2930 -0.4246
  606MOL0     H81772   4.918   2.092   3.742 -0.1681 -1.7868  1.8144
  606MOL0     H81773   5.095   2.266   3.799 -1.2621 -0.0462  0.0162
  606MOL0     H81774   5.259   2.408   3.813  1.2223  1.3913 -0.7026
  606MOL0     H81775   5.260   2.312   3.967  0.4446  0.5864 -0.1607
  606MOL0     H81776   5.384   2.532   3.947 -2.3268 -1.5562  2.3538
  606MOL0     H81777   5.493   2.396   4.000 -1.4307 -3.6751 -1.0958
  606MOL0     H81778   5.568   2.359   3.765 -0.2886 -0.1569  0.6036
  606MOL0     H81779   5.481   2.494   3.713 -1.5747 -2.3973  0.5930
  606MOL0     H81780   5.699   2.505   3.940 -1.5289 -0.3374  0.3316
  606MOL0     H81781   5.622   2.649   3.861 -0.0132  1.0133 -3.3899
  606MOL0     H81782   5.703   2.610   3.657 -0.5861 -1.9114 -0.2220
  606MOL0     H81783   5.803   2.470   3.692 -0.0656  0.6933  0.7284
  606MOL0     H81784   5.936   2.671   3.677 -0.8581 -0.5205 -2.3359
  606MOL0     H81785   5.854   2.742   3.817 -1.4639 -0.4915 -0.7898
  606MOL0     H81786   5.961   2.513   3.941  2.4389  0.3788  0.9938
  606MOL0     H81787   6.041   2.671   3.914 -0.0068  1.1098  1.2710
  606MOL0     H81788   6.037   2.444   3.704 -2.0187  2.1666 -1.9188
  606MOL0     H81789   6.123   2.597   3.706  1.4992  0.9156  2.8895
  606MOL0     H81790   5.397   1.979   3.707  0.0114  1.3867  0.5056
  606MOL0     H81791   5.244   1.822   3.614 -1.4936 -1.4094 -2.3745
  606MOL0     H81792   4.574   1.785   3.706 -2.6502 -1.2780  0.0664
  606MOL0     H81793   4.434   1.652   3.571 -0.3544 -1.1160  2.2035
  606MOL0     H81794   2.621   0.850   3.730 -0.0383  0.6734  0.9024
  606MOL0     H81795   2.391   0.854   3.637 -1.2435  0.3711 -1.9160
  606MOL0     H81796   2.118   0.859   3.255  3.2413  1.7814 -1.9999
  606MOL0     H81797   1.900   0.872   3.154 -0.0679  1.4672 -2.6106
  606MOL0     H81798   1.633   1.245   3.135 -0.3835 -1.2790 -1.1176
  606MOL0     H81799   1.644   1.181   3.304 -0.9421 -1.2067  0.3734
  606MOL0     H81800   1.436   1.145   3.219 -0.0973 -0.0166  1.4669
  606MOL0     H81801   1.516   0.983   3.226 -4.0269  0.9038  0.8384
  606MOL0     H81802   1.557   0.984   2.995  0.8096  0.1616  2.3718
  606MOL0     H81803   1.500   1.155   2.982  0.0032 -1.3126 -1.5743
  606MOL0     H81804   1.328   0.958   2.900 -0.9458 -0.1686  0.3673
  606MOL0     H81805   1.351   0.902   3.069  1.4722 -0.0587  0.0543
  606MOL0     H81806   1.046   1.180   3.137 -0.9713 -2.0706  1.1847
  606MOL0     H81807   1.862   1.282   3.289 -0.7515  0.2131 -1.2919
  606MOL0     H81808   2.182   1.346   3.380  1.0095 -0.5806  2.3304
  606MOL0     H81809   2.011   1.384   3.411  1.6808  1.6553 -0.1287
  606MOL0     H81810   2.109   1.272   3.513  1.6586  0.0058 -0.5975
  607MOL0     O81811   9.432   3.592  10.419  0.1089  0.2180  0.4108
  607MOL0     C81812   9.364   3.691  10.377 -0.4790  1.2929 -0.2718
  607MOL0     O81813   9.363   3.811  10.428 -0.6835  0.0262  0.0156
  607MOL0     C81814   9.468   3.866  10.500  0.3520 -1.2057  0.0678
  607MOL0     C81815   9.445   4.005  10.546 -0.3203  0.8857 -0.0096
  607MOL0     C81816   9.545   4.072  10.612  0.0456  0.2674  0.7933
  607MOL0     C81817   9.673   4.009  10.633 -0.4708  1.0269 -0.3175
  607MOL0     O81818   9.778   4.084  10.683  0.0690 -0.3602 -0.1235
  607MOL0     C81819   9.881   4.022  10.760 -0.7192  0.9448 -0.0113
  607MOL0     C81820   9.965   4.130  10.829  1.2279  0.5571  0.2252
  607MOL0     C81821  10.099   4.082  10.891 -0.6300 -0.0640 -0.2654
  607MOL0     C81822  10.134   4.181  11.001  0.2395 -0.4625  0.1422
  607MOL0     C81823  10.282   4.181  11.047  0.1479 -0.5253 -0.2712
  607MOL0     C81824  10.313   4.311  11.137 -0.3192 -0.2374  0.6824
  607MOL0     C81825  10.459   4.329  11.158  0.2508  0.8878 -0.3289
  607MOL0     C81826  10.543   4.369  11.037  0.3830  0.4086  0.6455
  607MOL0     N81827  10.677   4.399  11.073 -0.6922  0.3171 -0.0555
  607MOL0     C81828  10.763   4.320  11.139 -0.2711 -0.4247  1.4593
  607MOL0     C81829  10.880   4.392  11.142 -1.1387 -0.1833 -0.5072
  607MOL0     C81830  10.995   4.327  11.215 -0.5090  0.0790  0.2794
  607MOL0     C81831  11.075   4.228  11.125  0.8423 -0.9478 -0.4880
  607MOL0     C81832  11.178   4.310  11.046  0.1859  0.7698  0.0406
  607MOL0     C81833  11.236   4.249  10.915 -0.2334  0.5822  0.1687
  607MOL0     O81834  11.347   4.329  10.877  0.4174 -0.6211  0.4387
  607MOL0     C81835  11.476   4.288  10.923  0.0536  0.0129 -0.2536
  607MOL0     C81836  11.508   4.199  11.028  0.5454  0.0288  0.7092
  607MOL0     C81837  11.631   4.146  11.054 -0.3577 -0.2473  0.2217
  607MOL0     C81838  11.742   4.197  10.983 -0.1309 -0.8263  0.7256
  607MOL0     C81839  11.880   4.135  11.003 -0.1212  0.6083 -0.1327
  607MOL0     O81840  11.883   4.026  11.082 -0.1525  0.2333 -0.3361
  607MOL0     C81841  12.005   3.979  11.120  0.1560  0.3651  0.7250
  607MOL0     C81842  12.071   4.025  11.236 -0.3671  0.5750 -0.2488
  607MOL0     C81843  12.177   3.948  11.282 -0.0196 -0.5199 -1.1935
  607MOL0     C81844  12.232   3.850  11.215 -0.2581  0.4004 -0.2360
  607MOL0     O81845  12.351   3.799  11.269  0.1406  0.7792  0.1612
  607MOL0     C81846  12.413   3.691  11.184 -0.4955 -0.7862 -0.3183
  607MOL0     C81847  12.542   3.639  11.250  0.5284 -0.5856 -0.7527
  607MOL0     C81848  12.540   3.571  11.391  0.1263 -0.0455 -0.0514
  607MOL0     C81849  12.456   3.443  11.390  0.9601 -0.6349 -0.3461
  607MOL0     C81850  12.424   3.380  11.534  0.0240 -0.6122 -0.0557
  607MOL0     C81851  12.296   3.295  11.528  0.0922 -0.1348 -0.5188
  607MOL0     C81852  12.266   3.238  11.665  0.1623 -0.0006  0.4717
  607MOL0     C81853  12.372   3.132  11.693  0.0085  0.6146 -0.5123
  607MOL0    Cl81854  12.390   3.111  11.871 -0.1296 -0.1602  0.1485
  607MOL0     C81855  12.177   3.811  11.086 -0.8674 -0.2538 -0.6176
  607MOL0     C81856  12.066   3.879  11.041  0.0038 -0.5786 -0.1747
  607MOL0     O81857  11.974   4.186  10.948 -0.5081 -0.1408 -0.3946
  607MOL0     C81858  11.720   4.297  10.889  0.4526  0.0762  0.4252
  607MOL0     C81859  11.583   4.342  10.863 -0.9844  0.4812  0.5222
  607MOL0     N81860  10.868   4.513  11.068 -1.0546  0.1659  1.2596
  607MOL0     N81861  10.741   4.511  11.029  0.5761 -0.2396 -0.5052
  607MOL0     C81862   9.694   3.873  10.591 -0.0060 -0.2743  0.0852
  607MOL0     C81863   9.597   3.810  10.519  0.9259  1.4739 -0.0176
  607MOL0     C81864   9.267   3.670  10.264  0.1866 -0.5255  0.6069
  607MOL0     C81865   9.259   3.535  10.219  0.2751 -0.6804 -0.4103
  607MOL0     C81866   9.180   3.507  10.115  0.8873  0.1582 -0.4866
  607MOL0     C81867   9.089   3.596  10.060  0.5998  0.3239 -0.1971
  607MOL0     O81868   9.023   3.566   9.944  0.3060  0.3745 -0.2159
  607MOL0     C81869   8.876   3.559   9.957 -0.2700  0.3965 -0.0308
  607MOL0     C81870   8.818   3.419   9.920  0.1340  0.4267 -0.0195
  607MOL0     C81871   8.835   3.375   9.776  0.4072  0.8314 -0.0463
  607MOL0     C81872   8.780   3.233   9.732 -0.1743 -0.5658  0.1311
  607MOL0     C81873   8.638   3.215   9.743 -0.0214  0.0053 -0.0126
  607MOL0     C81874   8.517   3.189   9.773  0.2017  0.0965  0.3162
  607MOL0     C81875   9.080   3.717  10.121  0.2624  0.2539  0.3317
  607MOL0     C81876   9.168   3.764  10.219 -0.4195  0.9751 -0.8926
  607MOL0     C81877   9.149   3.903  10.274  0.1339  0.0160  0.6676
  607MOL0     H81878   9.354   4.062  10.535  0.0477  1.1130 -2.4144
  607MOL0     H81879   9.516   4.170  10.649 -0.1487  0.3072  0.5411
  607MOL0     H81880   9.838   3.951  10.831  1.7005 -3.6483 -2.6790
  607MOL0     H81881   9.946   3.962  10.695  0.1638 -0.3479  1.9632
  607MOL0     H81882   9.912   4.182  10.909  1.6843  0.7537  0.4062
  607MOL0     H81883   9.982   4.211  10.757 -2.3579 -0.3214 -1.8227
  607MOL0     H81884  10.172   4.075  10.811  0.5291 -1.6096  0.8482
  607MOL0     H81885  10.099   3.983  10.938  1.9579  0.2972  0.6696
  607MOL0     H81886  10.111   4.276  10.952 -1.0500 -1.4180 -1.1580
  607MOL0     H81887  10.073   4.170  11.091  1.8673 -1.9139  1.1407
  607MOL0     H81888  10.296   4.091  11.109 -1.2668 -0.3540  0.3388
  607MOL0     H81889  10.361   4.166  10.973  1.2822 -0.3110  0.8535
  607MOL0     H81890  10.265   4.401  11.097  1.6500  1.4688  1.9739
  607MOL0     H81891  10.267   4.292  11.235  2.2249  2.0090  2.4612
  607MOL0     H81892  10.495   4.240  11.210 -1.0721 -1.6968 -3.4709
  607MOL0     H81893  10.466   4.413  11.227 -1.9713  0.7782  0.0955
  607MOL0     H81894  10.552   4.281  10.973 -0.5273  0.3116  0.6338
  607MOL0     H81895  10.507   4.456  10.982 -1.9098 -2.3552 -2.6403
  607MOL0     H81896  10.753   4.224  11.188  0.7454 -1.8717 -1.0014
  607MOL0     H81897  11.073   4.396  11.249  3.0030 -1.6603 -3.4724
  607MOL0     H81898  10.952   4.270  11.298 -1.0542  1.5227  1.0327
  607MOL0     H81899  11.128   4.169  11.200  1.7142  1.1504  0.6307
  607MOL0     H81900  11.012   4.162  11.064 -0.7890  0.3462 -0.2635
  607MOL0     H81901  11.268   4.300  11.109  0.2926 -1.4785 -0.3905
  607MOL0     H81902  11.146   4.413  11.029  1.3891  0.9805 -1.0858
  607MOL0     H81903  11.146   4.259  10.854 -0.7706  1.9336  1.1419
  607MOL0     H81904  11.258   4.142  10.927 -4.1294 -0.4030  0.1392
  607MOL0     H81905  11.423   4.145  11.067 -0.5851  0.3976 -1.1331
  607MOL0     H81906  11.653   4.063  11.121  0.0356 -1.0464 -0.8480
  607MOL0     H81907  12.038   4.099  11.309  2.0192  2.2295 -0.7297
  607MOL0     H81908  12.231   3.965  11.375 -2.8333  1.8865  0.1570
  607MOL0     H81909  12.337   3.614  11.167 -1.5306  0.4092 -1.3626
  607MOL0     H81910  12.437   3.725  11.083 -0.6574 -0.7461 -0.3442
  607MOL0     H81911  12.592   3.573  11.179  2.5871  0.6942 -0.5810
  607MOL0     H81912  12.606   3.728  11.255  2.2150 -1.7939  0.5634
  607MOL0     H81913  12.639   3.540  11.428 -0.2042 -0.7341  0.2819
  607MOL0     H81914  12.504   3.634  11.473  2.9373  0.8497  0.6063
  607MOL0     H81915  12.487   3.362  11.324 -0.9817 -0.7488 -1.1780
  607MOL0     H81916  12.358   3.484  11.366  0.7882  1.1922  2.7975
  607MOL0     H81917  12.399   3.461  11.604 -2.3359 -0.3925 -1.0645
  607MOL0     H81918  12.510   3.323  11.571 -0.1910 -0.2673  1.0182
  607MOL0     H81919  12.213   3.347  11.479 -0.7328 -0.4883  0.4714
  607MOL0     H81920  12.318   3.215  11.457  1.0491 -2.1800  1.9579
  607MOL0     H81921  12.170   3.186  11.667  0.9767 -1.5711  0.3984
  607MOL0     H81922  12.266   3.317  11.741 -0.1952 -0.7558  1.2839
  607MOL0     H81923  12.340   3.040  11.644  0.6607  0.5064 -0.7459
  607MOL0     H81924  12.472   3.148  11.653  0.3579 -1.3905 -0.5216
  607MOL0     H81925  12.217   3.734  11.021  0.4987 -2.8747  2.9897
  607MOL0     H81926  12.019   3.851  10.947 -0.6775 -0.9262  0.2624
  607MOL0     H81927  11.791   4.326  10.811 -0.9991 -2.6612 -2.1286
  607MOL0     H81928  11.567   4.411  10.781  0.4976 -0.8349 -0.9241
  607MOL0     H81929   9.786   3.817  10.597 -0.7983 -1.6304 -0.0745
  607MOL0     H81930   9.626   3.711  10.485 -0.1477  0.7777  1.0328
  607MOL0     H81931   9.323   3.462  10.267  2.7765  1.0568 -0.9043
  607MOL0     H81932   9.184   3.402  10.089 -3.4329 -0.2983  0.0121
  607MOL0     H81933   8.830   3.642   9.902 -3.8700 -1.4817 -0.1619
  607MOL0     H81934   8.850   3.580  10.061 -0.4062 -0.1177  0.0433
  607MOL0     H81935   8.710   3.430   9.929 -0.0185 -0.8407 -0.1275
  607MOL0     H81936   8.850   3.342   9.992 -0.3228 -0.4890 -0.7768
  607MOL0     H81937   8.940   3.354   9.752 -0.3091 -0.1786 -2.6791
  607MOL0     H81938   8.799   3.439   9.695 -0.1168  0.7371  0.1125
  607MOL0     H81939   8.800   3.220   9.625 -1.8937 -2.8122  0.0065
  607MOL0     H81940   8.839   3.158   9.784  1.5229  1.9660  2.0637
  607MOL0     H81941   8.414   3.167   9.792 -0.4334  1.3023 -1.4124
  607MOL0     H81942   9.008   3.791  10.088  0.4339  0.6369  0.8116
  607MOL0     H81943   9.125   3.902  10.381 -1.7533  1.8393  0.3224
  607MOL0     H81944   9.236   3.970  10.273 -0.5185  0.8953  0.8837
  607MOL0     H81945   9.070   3.959  10.223  0.7836 -1.6966 -2.4526
  608MOL0     O81946  11.031   4.250   4.418 -0.5010  0.1425 -0.4385
  608MOL0     C81947  10.953   4.191   4.349 -0.3190  0.6094 -0.7190
  608MOL0     O81948  10.986   4.083   4.268  0.3953 -0.0576  0.2150
  608MOL0     C81949  11.116   4.051   4.253 -0.1025 -0.0888 -0.3976
  608MOL0     C81950  11.191   4.104   4.143 -0.5144 -0.6172 -0.5079
  608MOL0     C81951  11.325   4.082   4.138  0.3528 -0.0725  0.3642
  608MOL0     C81952  11.390   3.990   4.220  0.0344  0.0045  0.6979
  608MOL0     O81953  11.510   3.930   4.196 -0.4383 -0.4315 -0.8427
  608MOL0     C81954  11.616   4.026   4.163 -0.1635 -0.5037 -0.2437
  608MOL0     C81955  11.690   3.999   4.027  0.3857 -0.1723  0.6528
  608MOL0     C81956  11.834   3.964   4.063 -0.3085  0.4284  0.3890
  608MOL0     C81957  11.924   3.957   3.940 -0.5199 -0.3695 -0.1609
  608MOL0     C81958  12.051   3.876   3.962 -0.5149  0.0695  0.6373
  608MOL0     C81959  12.157   3.944   4.052 -0.1954 -0.6218  0.4417
  608MOL0     C81960  12.295   3.887   4.052 -0.7755  0.8339 -0.8561
  608MOL0     C81961  12.379   3.906   3.920 -0.0118  0.6087 -0.6487
  608MOL0     N81962  12.528   3.896   3.923  0.0805  0.1964  0.4098
  608MOL0     C81963  12.603   3.958   4.017 -0.0630 -0.3449  1.3446
  608MOL0     C81964  12.730   3.934   3.971 -0.3088 -0.5511 -0.6001
  608MOL0     C81965  12.857   3.987   4.034 -0.2849  0.1145  0.2110
  608MOL0     C81966  12.865   4.136   4.017 -1.3848 -0.4150  1.4697
  608MOL0     C81967  12.997   4.198   4.089  0.8490  0.3132 -0.2365
  608MOL0     C81968  13.006   4.347   4.092  0.8900  0.1310 -0.1111
  608MOL0     O81969  13.034   4.404   3.961 -1.0129  0.1091  0.0458
  608MOL0     C81970  13.164   4.425   3.933 -0.8825  0.3365  0.2495
  608MOL0     C81971  13.185   4.495   3.818 -0.3939 -0.3244  0.3820
  608MOL0     C81972  13.310   4.518   3.770 -0.1581  0.5024 -0.1566
  608MOL0     C81973  13.427   4.470   3.832  0.6289  0.9647 -0.1916
  608MOL0     C81974  13.555   4.494   3.778 -0.3235 -0.0244  0.3142
  608MOL0     O81975  13.568   4.529   3.645  0.3367  0.3410 -0.1304
  608MOL0     C81976  13.696   4.562   3.609 -0.4822  0.4125 -0.3836
  608MOL0     C81977  13.759   4.684   3.626  0.1071 -0.0058  0.0298
  608MOL0     C81978  13.887   4.709   3.566  0.0795  0.2008  0.1194
  608MOL0     C81979  13.965   4.614   3.512  0.5104 -0.4171  0.2397
  608MOL0     O81980  14.085   4.654   3.454  0.0848 -0.4201 -0.3647
  608MOL0     C81981  14.147   4.554   3.370 -0.2393 -0.3288  0.3618
  608MOL0     C81982  14.278   4.599   3.322  0.2063  0.6700  0.3838
  608MOL0     C81983  14.358   4.507   3.226 -0.7120 -0.6411 -0.3947
  608MOL0     C81984  14.492   4.572   3.179  0.3814  0.3449  0.2159
  608MOL0     C81985  14.577   4.452   3.137  0.0030  0.0612  0.4463
  608MOL0     C81986  14.696   4.499   3.056  0.0619  0.0811 -0.7625
  608MOL0     C81987  14.788   4.602   3.120 -0.2203  0.5149  0.8369
  608MOL0     C81988  14.862   4.545   3.241 -0.6150 -0.5163  0.2013
  608MOL0    Cl81989  14.783   4.619   3.380  0.8629 -0.0698  0.0217
  608MOL0     C81990  13.902   4.488   3.496 -0.3685 -0.2519 -1.1670
  608MOL0     C81991  13.775   4.460   3.548  0.6163  0.1326 -0.2345
  608MOL0     O81992  13.648   4.487   3.858  0.2262  0.3033 -0.0588
  608MOL0     C81993  13.405   4.394   3.950 -0.4226 -0.0796  0.8455
  608MOL0     C81994  13.279   4.367   3.998  0.2880 -0.7238 -0.5801
  608MOL0     N81995  12.725   3.850   3.864  0.1868 -0.5076  0.9214
  608MOL0     N81996  12.600   3.828   3.834  0.3178 -0.4383  0.0418
  608MOL0     C81997  11.310   3.940   4.331 -0.7115 -0.8566 -0.0199
  608MOL0     C81998  11.178   3.972   4.344 -0.2765 -0.6785  0.5552
  608MOL0     C81999  10.808   4.236   4.343 -0.2943 -0.5385  0.6431
  608MOL0     C82000  10.719   4.165   4.264 -0.8779  1.3045 -0.1383
  608MOL0     C82001  10.583   4.183   4.281 -0.4390 -0.2153 -0.1294
  608MOL0     C82002  10.530   4.286   4.367  0.1152 -0.5588  0.0749
  608MOL0     O82003  10.390   4.300   4.352  0.2724 -0.2022  1.0205
  608MOL0     C82004  10.336   4.329   4.485 -0.1097 -0.3733  0.8216
  608MOL0     C82005  10.184   4.327   4.503  0.4538  0.5525  0.2817
  608MOL0     C82006  10.125   4.200   4.446 -0.7666 -0.7365 -0.0219
  608MOL0     C82007   9.974   4.196   4.461  0.0966 -0.0568  1.2058
  608MOL0     C82008   9.919   4.230   4.591  0.1865  0.7829 -0.7808
  608MOL0     C82009   9.844   4.259   4.683 -0.5750 -0.4712 -0.3689
  608MOL0     C82010  10.630   4.374   4.431  0.3791  0.4839 -0.0897
  608MOL0     C82011  10.763   4.348   4.425 -0.3722  0.1599 -0.2413
  608MOL0     C82012  10.846   4.456   4.487  0.3681  0.9281 -0.6157
  608MOL0     H82013  11.147   4.170   4.069  0.3050 -0.2368 -0.6649
  608MOL0     H82014  11.387   4.117   4.056  0.8586 -0.2077  0.6817
  608MOL0     H82015  11.573   4.126   4.164 -0.7775 -0.7578  0.9549
  608MOL0     H82016  11.686   4.030   4.247 -0.2279  0.1620 -0.2208
  608MOL0     H82017  11.692   4.089   3.965 -0.9047  1.1203  2.3685
  608MOL0     H82018  11.639   3.927   3.962  0.1122  0.0808  0.5862
  608MOL0     H82019  11.835   3.864   4.106  1.3313  0.7732  1.2372
  608MOL0     H82020  11.880   4.033   4.135 -0.4736  0.7756  0.1665
  608MOL0     H82021  11.870   3.920   3.852  2.0755  0.8432 -2.3930
  608MOL0     H82022  11.955   4.058   3.914  0.8991 -0.2594  1.7806
  608MOL0     H82023  12.035   3.779   4.011 -1.1929  0.7947  1.8753
  608MOL0     H82024  12.078   3.861   3.857  0.3266 -1.5598  1.0486
  608MOL0     H82025  12.173   4.045   4.014 -1.3941 -0.5397  0.1296
  608MOL0     H82026  12.121   3.967   4.153  1.5531  3.5933  0.3110
  608MOL0     H82027  12.299   3.783   4.085  1.3209  0.6665 -1.4676
  608MOL0     H82028  12.345   3.941   4.134 -1.7447  0.0429  0.2924
  608MOL0     H82029  12.345   3.826   3.854 -2.8277  3.0291 -2.3951
  608MOL0     H82030  12.352   4.007   3.887  0.2869  1.9186  2.6959
  608MOL0     H82031  12.578   4.015   4.106  2.7057  1.4071  1.1427
  608MOL0     H82032  12.863   3.972   4.142  1.8908 -0.6573  0.0401
  608MOL0     H82033  12.942   3.940   3.983 -0.5520 -1.0739  0.8349
  608MOL0     H82034  12.861   4.163   3.911  0.5205  1.5080  1.8168
  608MOL0     H82035  12.789   4.184   4.079 -3.3873 -0.3457 -0.9050
  608MOL0     H82036  13.091   4.175   4.037 -0.1443  1.1669 -2.5934
  608MOL0     H82037  13.002   4.160   4.191  1.0489  0.7979 -0.0630
  608MOL0     H82038  13.079   4.378   4.167 -0.8861  1.5791  1.1346
  608MOL0     H82039  12.912   4.387   4.132 -0.7492 -0.1783 -3.2981
  608MOL0     H82040  13.097   4.536   3.770 -1.0274  0.0150  1.7807
  608MOL0     H82041  13.319   4.578   3.680 -1.1294  1.8929  0.6447
  608MOL0     H82042  13.707   4.760   3.684  1.6214  0.3515  0.9809
  608MOL0     H82043  13.928   4.806   3.592 -0.0280  0.2714  0.0251
  608MOL0     H82044  14.153   4.457   3.421 -0.1389 -0.0424  0.9056
  608MOL0     H82045  14.092   4.539   3.277 -0.5807  2.3375  0.0653
  608MOL0     H82046  14.273   4.700   3.280  1.8489  0.4736 -0.3370
  608MOL0     H82047  14.346   4.611   3.407 -0.9411  2.7808  1.0830
  608MOL0     H82048  14.380   4.414   3.280 -0.1700 -0.4491 -0.2746
  608MOL0     H82049  14.304   4.473   3.137  0.1002 -4.5297  0.4035
  608MOL0     H82050  14.533   4.624   3.267  1.9631 -0.2039 -0.1578
  608MOL0     H82051  14.467   4.645   3.101  0.6002  1.4466  1.1415
  608MOL0     H82052  14.505   4.403   3.071  1.4682 -0.7564 -0.5962
  608MOL0     H82053  14.592   4.387   3.224 -0.9769 -0.1664  0.4623
  608MOL0     H82054  14.762   4.412   3.045  1.7760  0.9933  1.4434
  608MOL0     H82055  14.662   4.520   2.955  4.6799  0.2175 -2.5433
  608MOL0     H82056  14.740   4.698   3.141 -3.0243 -0.8505  1.2090
  608MOL0     H82057  14.853   4.619   3.034 -2.1024 -1.3078 -1.0679
  608MOL0     H82058  14.851   4.436   3.240  3.2806 -1.0701  1.3345
  608MOL0     H82059  14.966   4.574   3.223 -1.0883  1.8560  0.9003
  608MOL0     H82060  13.948   4.397   3.459 -1.2930 -0.8286 -0.9291
  608MOL0     H82061  13.742   4.356   3.551  2.2017 -0.4496  3.8001
  608MOL0     H82062  13.488   4.355   4.007 -1.1327 -2.4692  0.3362
  608MOL0     H82063  13.275   4.310   4.090  1.2108  1.9410  1.2271
  608MOL0     H82064  11.362   3.881   4.406 -1.4033  1.1888  2.1780
  608MOL0     H82065  11.113   3.939   4.425 -0.1235 -0.6303  0.6979
  608MOL0     H82066  10.738   4.078   4.201 -0.6166 -0.3038  2.0456
  608MOL0     H82067  10.520   4.128   4.212 -0.8295  0.4080 -0.2796
  608MOL0     H82068  10.370   4.421   4.534  0.5891 -0.9345  1.4152
  608MOL0     H82069  10.376   4.251   4.550 -0.2475 -2.6718 -1.6911
  608MOL0     H82070  10.137   4.412   4.452 -0.8564 -0.1445  0.2686
  608MOL0     H82071  10.162   4.338   4.609 -0.2629  1.6821  0.0430
  608MOL0     H82072  10.170   4.112   4.492  0.9920  1.0481  1.9217
  608MOL0     H82073  10.158   4.199   4.342  0.6668 -0.5996  0.4117
  608MOL0     H82074   9.923   4.251   4.382  0.0976 -3.2984 -1.2727
  608MOL0     H82075   9.942   4.092   4.445 -2.5113  0.8753 -0.1476
  608MOL0     H82076   9.777   4.285   4.763  0.9619  2.4220  0.1423
  608MOL0     H82077  10.596   4.466   4.478  3.7061  2.7481 -1.7333
  608MOL0     H82078  10.915   4.494   4.411 -0.0956  1.2778 -0.8660
  608MOL0     H82079  10.777   4.530   4.528 -1.5136  0.5163 -2.7907
  608MOL0     H82080  10.905   4.406   4.564  0.4669  0.5585 -0.9247
  609MOL0     O82081   2.500   1.817   9.775 -0.1185 -0.4109  0.1591
  609MOL0     C82082   2.449   1.903   9.845  0.1046  0.5653 -0.3366
  609MOL0     O82083   2.463   2.035   9.827 -0.4001 -0.1266  0.2756
  609MOL0     C82084   2.566   2.097   9.755  0.7561  0.5823 -0.3627
  609MOL0     C82085   2.683   2.038   9.718 -0.5090 -0.3446 -0.2630
  609MOL0     C82086   2.782   2.109   9.644 -1.1658 -0.1333 -1.0147
  609MOL0     C82087   2.753   2.241   9.607  0.6507 -0.5656 -0.2333
  609MOL0     O82088   2.844   2.323   9.534  0.5417  0.2903 -0.2015
  609MOL0     C82089   2.978   2.295   9.547  0.2894  0.2744 -0.9289
  609MOL0     C82090   3.060   2.414   9.478 -0.1377 -0.1349  0.5050
  609MOL0     C82091   3.202   2.378   9.456  0.7112 -0.0211  0.6996
  609MOL0     C82092   3.271   2.493   9.380  0.2001  0.5651 -0.8271
  609MOL0     C82093   3.418   2.463   9.354 -0.4277 -0.0398  0.1548
  609MOL0     C82094   3.473   2.571   9.263 -0.6084  0.6605  0.1667
  609MOL0     C82095   3.628   2.544   9.249  0.9554  0.0424  0.7375
  609MOL0     C82096   3.700   2.679   9.203 -0.3052  0.0709  0.7878
  609MOL0     N82097   3.840   2.674   9.230 -0.3107  0.7669  0.2278
  609MOL0     C82098   3.912   2.569   9.189  0.1104  0.2750  0.0965
  609MOL0     C82099   4.045   2.599   9.192  0.3723  0.1130 -0.0197
  609MOL0     C82100   4.139   2.485   9.176  0.5601 -0.6574  1.1280
  609MOL0     C82101   4.278   2.532   9.148  0.6079 -0.2250 -0.3973
  609MOL0     C82102   4.388   2.419   9.145  0.0936  0.6029 -0.1347
  609MOL0     C82103   4.531   2.465   9.103  0.5576 -0.1749 -0.1758
  609MOL0     O82104   4.523   2.472   8.961 -0.2589 -0.2523  0.2236
  609MOL0     C82105   4.611   2.375   8.898  1.0334 -0.0771  0.2545
  609MOL0     C82106   4.731   2.410   8.852 -0.3220 -0.4850  0.3600
  609MOL0     C82107   4.807   2.316   8.774  0.3491 -0.5913 -0.1893
  609MOL0     C82108   4.768   2.186   8.759  0.2890 -0.3977 -0.2383
  609MOL0     C82109   4.848   2.091   8.678  0.6951  0.0920  0.0155
  609MOL0     O82110   4.822   1.956   8.690  0.1730 -0.6413  0.7903
  609MOL0     C82111   4.908   1.876   8.621  0.0137 -0.1691  0.0231
  609MOL0     C82112   5.044   1.862   8.642  0.0395 -0.0810  0.2189
  609MOL0     C82113   5.126   1.770   8.561  0.2090 -0.0452 -0.3372
  609MOL0     C82114   5.075   1.707   8.457 -0.7110 -0.3345 -0.2796
  609MOL0     O82115   5.124   1.614   8.368 -0.2509 -0.2903 -0.1489
  609MOL0     C82116   5.251   1.635   8.300  0.6530  0.0925  0.6245
  609MOL0     C82117   5.251   1.746   8.187 -0.4491 -0.8567 -0.4382
  609MOL0     C82118   5.389   1.766   8.112 -0.0934 -0.2007  0.0948
  609MOL0     C82119   5.500   1.820   8.200 -1.1757 -0.0235  0.6262
  609MOL0     C82120   5.648   1.756   8.171 -0.1481  0.5315  0.3901
  609MOL0     C82121   5.666   1.608   8.211  0.3035 -0.2632  0.2173
  609MOL0     C82122   5.800   1.564   8.149  0.3127  0.2560  0.8068
  609MOL0     C82123   5.836   1.432   8.206 -0.4898  0.5829  0.1934
  609MOL0    Cl82124   5.993   1.379   8.149 -0.0583 -0.2188  0.2995
  609MOL0     C82125   4.937   1.723   8.439  0.7393  0.2351  0.6090
  609MOL0     C82126   4.848   1.798   8.515 -0.1888  0.3549  0.1783
  609MOL0     O82127   4.939   2.139   8.610  0.1401 -0.4290 -0.6386
  609MOL0     C82128   4.642   2.143   8.814 -0.2423  0.1396 -0.7651
  609MOL0     C82129   4.568   2.248   8.881  0.7682  0.0867  0.5530
  609MOL0     N82130   4.059   2.733   9.243  0.1049  0.3895  0.1561
  609MOL0     N82131   3.929   2.771   9.273  0.0760  0.2041  0.1183
  609MOL0     C82132   2.640   2.294   9.648 -0.0219  0.1947  0.3012
  609MOL0     C82133   2.536   2.229   9.721 -0.5499  0.4756 -0.1980
  609MOL0     C82134   2.356   1.865   9.953 -0.4584 -0.2507  0.1120
  609MOL0     C82135   2.356   1.939  10.074 -0.4479  0.1896  0.4956
  609MOL0     C82136   2.252   1.911  10.165  0.5280 -0.1921 -0.0643
  609MOL0     C82137   2.161   1.805  10.146 -0.4058 -0.3691  0.5701
  609MOL0     O82138   2.065   1.768  10.232  0.5856  0.2791  0.2723
  609MOL0     C82139   2.009   1.856  10.340 -1.0934  0.1945  0.3489
  609MOL0     C82140   1.891   1.934  10.280 -0.1974  1.5122  0.1286
  609MOL0     C82141   1.788   1.846  10.223  0.1819  0.0622 -0.5472
  609MOL0     C82142   1.669   1.927  10.169 -0.7046 -0.6523 -0.0601
  609MOL0     C82143   1.700   2.009  10.048  0.6573  1.2314  1.1947
  609MOL0     C82144   1.731   2.068   9.947 -0.3183 -0.5938  0.3787
  609MOL0     C82145   2.172   1.735  10.033  0.3131  0.6842  0.4729
  609MOL0     C82146   2.264   1.766   9.933 -0.1545  0.2517  0.1366
  609MOL0     C82147   2.248   1.691   9.801 -0.8353 -0.0095  0.6171
  609MOL0     H82148   2.698   1.935   9.751  2.8367  0.1546  0.0372
  609MOL0     H82149   2.872   2.054   9.619 -1.0450 -1.0874  1.2986
  609MOL0     H82150   3.004   2.276   9.651  0.2142 -0.8071 -1.0938
  609MOL0     H82151   2.998   2.202   9.492  1.6190 -0.5751  0.9069
  609MOL0     H82152   3.062   2.505   9.540 -1.3254 -0.0133  0.3898
  609MOL0     H82153   3.009   2.437   9.385 -0.2251 -2.1604  0.0031
  609MOL0     H82154   3.212   2.285   9.400  1.2925 -0.5590  1.6642
  609MOL0     H82155   3.261   2.357   9.546  1.6423 -0.0798  0.0882
  609MOL0     H82156   3.215   2.510   9.288  2.4141  1.6139 -2.0531
  609MOL0     H82157   3.249   2.581   9.440 -3.1513 -0.4263 -0.4121
  609MOL0     H82158   3.477   2.462   9.447 -0.9580 -2.0172  0.5172
  609MOL0     H82159   3.434   2.364   9.310  1.5055  0.4767 -0.4280
  609MOL0     H82160   3.415   2.561   9.171  1.5617 -1.6599 -1.0739
  609MOL0     H82161   3.457   2.668   9.312  1.4856  0.9521  0.3928
  609MOL0     H82162   3.638   2.467   9.171 -2.9755 -1.4567  1.4495
  609MOL0     H82163   3.671   2.521   9.346 -3.5811  1.4341  3.4078
  609MOL0     H82164   3.686   2.703   9.097 -0.9821  1.3374  1.1448
  609MOL0     H82165   3.657   2.772   9.241 -1.0891  0.0472 -0.0012
  609MOL0     H82166   3.879   2.470   9.158 -0.3785  0.2986  0.5326
  609MOL0     H82167   4.132   2.416   9.260  1.5486 -1.4565  0.5765
  609MOL0     H82168   4.111   2.425   9.088  0.8289  2.4228 -1.2346
  609MOL0     H82169   4.273   2.589   9.054  2.6430  1.3581  0.3737
  609MOL0     H82170   4.301   2.602   9.228 -0.3430 -1.0493  0.6167
  609MOL0     H82171   4.349   2.332   9.091 -0.4106  0.0982  1.0108
  609MOL0     H82172   4.393   2.395   9.251  1.3809  2.5858  0.3207
  609MOL0     H82173   4.611   2.406   9.149 -1.5056 -2.9510  0.1380
  609MOL0     H82174   4.557   2.565   9.139 -2.3625  1.1337 -1.3955
  609MOL0     H82175   4.768   2.509   8.872 -1.0838  0.1791 -1.2753
  609MOL0     H82176   4.901   2.353   8.734  0.9592 -2.2400 -0.3611
  609MOL0     H82177   5.086   1.926   8.719  0.2633 -0.3430  0.3182
  609MOL0     H82178   5.233   1.774   8.581  0.3358 -0.9480 -0.7642
  609MOL0     H82179   5.330   1.647   8.375  0.9332 -1.8719  0.7068
  609MOL0     H82180   5.273   1.542   8.246  0.6856  0.8257 -0.6897
  609MOL0     H82181   5.164   1.732   8.123 -0.7588  1.3190 -0.5759
  609MOL0     H82182   5.232   1.846   8.228 -1.9223 -0.4748 -1.9281
  609MOL0     H82183   5.422   1.669   8.074  1.3022 -0.5301  2.0013
  609MOL0     H82184   5.368   1.837   8.031  0.0354  0.4540  0.6259
  609MOL0     H82185   5.482   1.799   8.306 -3.4013 -0.1238  0.2699
  609MOL0     H82186   5.499   1.929   8.185  2.6247  0.1641  0.7054
  609MOL0     H82187   5.717   1.816   8.231  0.7300 -1.1656  1.1654
  609MOL0     H82188   5.659   1.770   8.063  2.1484  0.2346  0.5375
  609MOL0     H82189   5.674   1.591   8.319  1.7616  3.1690  0.7826
  609MOL0     H82190   5.583   1.556   8.162  1.0416  0.5394 -2.0031
  609MOL0     H82191   5.875   1.636   8.183  0.8907 -1.2105  2.8315
  609MOL0     H82192   5.797   1.563   8.040 -0.3330  0.7544  0.8118
  609MOL0     H82193   5.842   1.423   8.315 -2.0848 -1.7214  0.1645
  609MOL0     H82194   5.768   1.358   8.162  0.2125  1.8083 -3.2825
  609MOL0     H82195   4.892   1.678   8.351 -0.1615 -0.0009  1.1782
  609MOL0     H82196   4.745   1.810   8.484 -1.7298 -2.7691  3.3139
  609MOL0     H82197   4.597   2.047   8.791  1.4812 -0.4761 -1.7063
  609MOL0     H82198   4.467   2.220   8.908  1.3256 -2.8839 -0.1542
  609MOL0     H82199   2.621   2.397   9.620  1.0367  0.1467 -0.6491
  609MOL0     H82200   2.452   2.284   9.761 -0.9308 -0.0404 -0.2770
  609MOL0     H82201   2.430   2.016  10.094 -1.8760  1.5341  0.8659
  609MOL0     H82202   2.225   1.974  10.249 -0.2196  2.3285 -2.0598
  609MOL0     H82203   2.081   1.915  10.397 -2.5577  0.4165  2.0546
  609MOL0     H82204   1.971   1.794  10.422  2.0931  0.0090  1.8276
  609MOL0     H82205   1.936   1.997  10.203 -1.3191  2.7078  0.4048
  609MOL0     H82206   1.847   2.003  10.354  1.1188 -0.6352  3.1120
  609MOL0     H82207   1.747   1.773  10.294 -2.8686  0.6159 -1.5659
  609MOL0     H82208   1.826   1.798  10.133  0.0805  2.1931 -1.8061
  609MOL0     H82209   1.585   1.859  10.150 -0.6467 -0.5481 -0.7175
  609MOL0     H82210   1.639   1.998  10.246  1.8391  2.2804 -1.5590
  609MOL0     H82211   1.775   2.131   9.872 -1.4572 -0.1615  0.0433
  609MOL0     H82212   2.098   1.659  10.009  1.2072  0.9749 -4.1192
  609MOL0     H82213   2.200   1.757   9.729 -1.5614 -1.7902 -0.6039
  609MOL0     H82214   2.331   1.639   9.752 -0.9816 -0.6555  1.0315
  609MOL0     H82215   2.175   1.610   9.809 -3.1186  1.6838 -1.5382
  610MOL0     O82216   3.562   7.624   7.354 -0.6326  0.2764  0.7740
  610MOL0     C82217   3.531   7.564   7.451  0.4615  0.8887 -0.0838
  610MOL0     O82218   3.598   7.452   7.505 -0.1496  0.1088 -0.0940
  610MOL0     C82219   3.711   7.401   7.445 -0.3313 -0.4766 -0.6400
  610MOL0     C82220   3.824   7.467   7.399  0.5423 -0.3972  0.0095
  610MOL0     C82221   3.941   7.410   7.379  0.1433 -0.1549  0.3093
  610MOL0     C82222   3.950   7.272   7.395  0.2193  0.7956  0.0059
  610MOL0     O82223   4.073   7.213   7.378  0.5872  0.7980  0.1617
  610MOL0     C82224   4.163   7.255   7.279 -1.2398 -0.2021  0.1953
  610MOL0     C82225   4.280   7.338   7.341  0.7772  0.0842 -0.0452
  610MOL0     C82226   4.316   7.470   7.263  0.5508  0.5614  0.0579
  610MOL0     C82227   4.412   7.551   7.345  0.0844 -0.0491  0.7855
  610MOL0     C82228   4.427   7.687   7.276  0.4060  0.3727 -0.7323
  610MOL0     C82229   4.508   7.785   7.359 -0.3337 -0.4800 -0.4501
  610MOL0     C82230   4.658   7.749   7.373  0.2932  0.5191  0.4843
  610MOL0     C82231   4.727   7.843   7.469 -0.2417  0.6607  0.3225
  610MOL0     N82232   4.735   7.973   7.402  0.0013 -0.6360 -0.2635
  610MOL0     C82233   4.800   8.008   7.283  0.3878 -0.4602 -0.7196
  610MOL0     C82234   4.812   8.145   7.290  1.2065  0.0565  0.2680
  610MOL0     C82235   4.837   8.229   7.160  0.4732  0.1536 -0.5747
  610MOL0     C82236   4.857   8.376   7.174  0.5752 -0.1895  0.2689
  610MOL0     C82237   4.820   8.454   7.048  0.3816  0.5085 -0.4980
  610MOL0     C82238   4.895   8.418   6.929  0.6339  0.1620  0.0668
  610MOL0     O82239   5.035   8.416   6.959  0.2232 -0.5936  0.2272
  610MOL0     C82240   5.131   8.405   6.863 -0.3269  0.9159 -0.0820
  610MOL0     C82241   5.265   8.415   6.903  0.5388  0.3313  0.9163
  610MOL0     C82242   5.370   8.390   6.812 -0.3697 -0.0597 -0.0544
  610MOL0     C82243   5.335   8.362   6.677 -0.7326 -0.1574  0.1396
  610MOL0     C82244   5.438   8.319   6.578  0.4773 -0.0125  1.1807
  610MOL0     O82245   5.537   8.232   6.625 -0.0029  0.0199 -0.1582
  610MOL0     C82246   5.630   8.194   6.536  0.2534 -0.7459  0.4988
  610MOL0     C82247   5.619   8.066   6.476  0.2220 -0.5783  0.0607
  610MOL0     C82248   5.694   8.031   6.371 -0.1308  0.1421  0.0035
  610MOL0     C82249   5.800   8.112   6.325 -0.0639 -1.1909  0.4098
  610MOL0     O82250   5.895   8.087   6.235  0.3259 -0.1614  0.5285
  610MOL0     C82251   5.850   7.999   6.129  0.0824  0.1178 -0.6411
  610MOL0     C82252   5.919   8.031   5.996  0.4988 -0.0327 -0.7361
  610MOL0     C82253   6.065   8.003   5.977 -0.3598  0.3479  0.0983
  610MOL0     C82254   6.105   8.031   5.833 -0.0242  0.4111  0.1635
  610MOL0     C82255   6.247   8.070   5.818 -0.5953 -0.8323 -0.2528
  610MOL0     C82256   6.341   7.953   5.848  0.1756  0.4956 -1.1365
  610MOL0     C82257   6.489   8.005   5.877 -0.5590 -0.7901  0.5873
  610MOL0     C82258   6.585   7.930   5.785  0.0852  0.3564  0.4358
  610MOL0    Cl82259   6.561   7.755   5.787 -0.4271  0.5331 -0.3530
  610MOL0     C82260   5.817   8.238   6.386 -0.2362  0.0454  0.8597
  610MOL0     C82261   5.734   8.280   6.494  0.3355 -0.3602 -0.4871
  610MOL0     O82262   5.422   8.368   6.460 -0.5346 -0.0100 -0.2673
  610MOL0     C82263   5.200   8.378   6.634 -0.6257  0.4348 -0.1301
  610MOL0     C82264   5.103   8.393   6.730 -0.0201  0.6725 -0.9572
  610MOL0     N82265   4.743   8.191   7.409 -0.7111 -0.4053  1.1024
  610MOL0     N82266   4.712   8.087   7.475 -0.3453 -0.0238 -0.3132
  610MOL0     C82267   3.841   7.198   7.429 -0.5607 -0.4303 -0.0840
  610MOL0     C82268   3.716   7.260   7.451 -0.5537  0.2317 -0.5604
  610MOL0     C82269   3.407   7.609   7.514  0.4188 -0.2388 -0.3158
  610MOL0     C82270   3.380   7.741   7.522  0.2754  0.2199  1.0641
  610MOL0     C82271   3.257   7.792   7.559  0.8080  0.4434  0.6574
  610MOL0     C82272   3.150   7.706   7.586 -0.8860 -0.3220 -0.1167
  610MOL0     O82273   3.035   7.767   7.623  0.0952  0.3159  0.0493
  610MOL0     C82274   2.928   7.688   7.674 -0.5491 -0.3811 -0.6627
  610MOL0     C82275   2.848   7.785   7.768  0.6490  0.5633 -1.0885
  610MOL0     C82276   2.729   7.706   7.833 -0.6839  0.9108 -0.7565
  610MOL0     C82277   2.649   7.804   7.921 -0.3798 -0.4554 -0.0721
  610MOL0     C82278   2.534   7.737   7.970  0.3202 -0.1236  0.0006
  610MOL0     C82279   2.440   7.684   8.026 -0.4759 -0.3670  1.1107
  610MOL0     C82280   3.176   7.564   7.588  0.2354 -0.0464  0.3325
  610MOL0     C82281   3.303   7.515   7.549 -0.5481 -0.4438 -0.0190
  610MOL0     C82282   3.327   7.361   7.550  0.7597 -0.8845  1.1226
  610MOL0     H82283   3.807   7.573   7.386  1.8060 -0.1816 -0.0132
  610MOL0     H82284   4.021   7.475   7.343  0.8806 -0.0586  2.0309
  610MOL0     H82285   4.224   7.178   7.230  4.0887  3.5979 -0.0528
  610MOL0     H82286   4.119   7.309   7.194 -0.5233  2.5544  1.4464
  610MOL0     H82287   4.372   7.280   7.350  0.0153 -1.5163 -1.9096
  610MOL0     H82288   4.236   7.373   7.435 -3.1976 -1.3121 -1.1593
  610MOL0     H82289   4.226   7.531   7.248 -0.1391 -0.4258  0.0737
  610MOL0     H82290   4.355   7.446   7.163 -2.1379  2.3065 -1.5421
  610MOL0     H82291   4.375   7.565   7.447  1.1699  0.1276  1.1702
  610MOL0     H82292   4.513   7.510   7.337  0.1439 -0.1446  1.8732
  610MOL0     H82293   4.486   7.676   7.184  2.6845  1.6112  0.4971
  610MOL0     H82294   4.325   7.721   7.261  0.3121 -0.2784 -1.6778
  610MOL0     H82295   4.507   7.882   7.309  0.1022  0.1925  0.8110
  610MOL0     H82296   4.454   7.804   7.452  0.0732  1.2788 -0.5450
  610MOL0     H82297   4.707   7.743   7.276  0.0217 -0.2748  0.3925
  610MOL0     H82298   4.664   7.646   7.411  0.5923 -0.4945 -2.1304
  610MOL0     H82299   4.681   7.855   7.567  0.2275  2.5063  0.3692
  610MOL0     H82300   4.830   7.810   7.482 -0.3766  0.3356  0.5490
  610MOL0     H82301   4.838   7.955   7.197  1.9933 -1.1586  0.3725
  610MOL0     H82302   4.918   8.179   7.105  1.1909  1.1879 -0.4629
  610MOL0     H82303   4.741   8.216   7.108 -0.9271  1.8073  1.4419
  610MOL0     H82304   4.792   8.415   7.254 -1.4518 -2.2780 -0.2391
  610MOL0     H82305   4.959   8.402   7.205  0.0938  1.3602  0.6176
  610MOL0     H82306   4.838   8.560   7.067  0.2176  0.7347 -1.5317
  610MOL0     H82307   4.714   8.467   7.025  0.3773  0.4913 -0.4910
  610MOL0     H82308   4.876   8.485   6.844 -6.3567 -1.4187 -0.1615
  610MOL0     H82309   4.862   8.322   6.889 -3.6689  1.1275  0.8206
  610MOL0     H82310   5.277   8.440   7.008 -1.1946  1.4660  0.8872
  610MOL0     H82311   5.467   8.389   6.861 -0.8188  2.1492  0.9946
  610MOL0     H82312   5.545   8.000   6.520  0.3017 -1.4561 -1.0860
  610MOL0     H82313   5.668   7.935   6.326 -1.2679  0.5026 -0.1307
  610MOL0     H82314   5.861   7.897   6.169 -0.1602  0.6199  0.7472
  610MOL0     H82315   5.746   8.024   6.109  0.4093  0.6323 -1.8020
  610MOL0     H82316   5.852   7.978   5.928 -0.7718  1.0506 -0.3641
  610MOL0     H82317   5.902   8.138   5.986  0.7714  0.3678  2.1285
  610MOL0     H82318   6.105   8.074   6.051 -0.7128 -1.1864  1.8549
  610MOL0     H82319   6.083   7.898   6.001 -4.7933 -0.5133  0.5431
  610MOL0     H82320   6.046   8.111   5.789 -0.6179  0.1925  0.5453
  610MOL0     H82321   6.083   7.939   5.779 -2.0711  0.0874  1.4151
  610MOL0     H82322   6.269   8.158   5.880 -0.9898 -0.9351  0.0409
  610MOL0     H82323   6.266   8.102   5.715  1.9951  1.2514  0.7503
  610MOL0     H82324   6.306   7.899   5.937 -1.8547  2.4109 -0.6877
  610MOL0     H82325   6.331   7.884   5.764  0.5388 -0.8832 -0.0803
  610MOL0     H82326   6.522   7.992   5.980  4.7916  0.4839 -0.6423
  610MOL0     H82327   6.499   8.112   5.857 -2.0357 -0.5560  0.9690
  610MOL0     H82328   6.573   7.960   5.680  3.2569 -0.9202 -0.3945
  610MOL0     H82329   6.688   7.964   5.799 -0.7201  3.1554  0.2277
  610MOL0     H82330   5.896   8.300   6.346  1.8089 -2.1279  1.3400
  610MOL0     H82331   5.749   8.380   6.533 -2.5697 -0.1312  0.2752
  610MOL0     H82332   5.177   8.378   6.528 -0.3114  2.3907 -0.2369
  610MOL0     H82333   5.000   8.388   6.694 -0.3678  1.0884 -0.0528
  610MOL0     H82334   3.847   7.090   7.440 -2.5642 -0.6463 -0.7532
  610MOL0     H82335   3.628   7.209   7.489  0.0624 -1.7623 -1.6965
  610MOL0     H82336   3.453   7.816   7.493  1.2583 -0.9297  0.4680
  610MOL0     H82337   3.256   7.901   7.559  4.0235  0.6292 -2.2712
  610MOL0     H82338   2.960   7.599   7.729  1.7620  0.3414 -0.7629
  610MOL0     H82339   2.856   7.662   7.596 -1.7960 -1.7468  0.8740
  610MOL0     H82340   2.811   7.870   7.711  0.5963 -0.6348 -2.9076
  610MOL0     H82341   2.906   7.817   7.856  0.2788 -1.8120  0.0951
  610MOL0     H82342   2.774   7.629   7.896 -0.2674  0.7106 -1.2866
  610MOL0     H82343   2.663   7.669   7.753  1.7479  2.8742 -3.9395
  610MOL0     H82344   2.710   7.837   8.005 -1.1884 -0.3342  0.4743
  610MOL0     H82345   2.623   7.894   7.864  2.8526  0.3983 -0.4144
  610MOL0     H82346   2.377   7.616   8.079  1.1100  0.1384  3.8448
  610MOL0     H82347   3.087   7.508   7.612 -1.1253  1.7532 -0.2698
  610MOL0     H82348   3.229   7.315   7.539 -0.0646  0.9513  0.3957
  610MOL0     H82349   3.388   7.324   7.467 -1.0005 -2.9266  0.6655
  610MOL0     H82350   3.373   7.315   7.638 -2.6601 -2.3880  2.2953
  611MOL0     O82351  10.256   4.860   9.735  0.5408  0.0749 -0.2111
  611MOL0     C82352  10.228   4.935   9.636  0.4129 -0.0216 -0.5040
  611MOL0     O82353  10.301   5.044   9.592 -0.4412  0.2133  0.1732
  611MOL0     C82354  10.425   5.072   9.647 -0.1604 -0.6103 -0.3754
  611MOL0     C82355  10.536   5.034   9.577 -0.2203 -0.3816  0.5469
  611MOL0     C82356  10.662   5.033   9.625  0.8615 -0.3721  0.0433
  611MOL0     C82357  10.675   5.083   9.762 -0.6124 -0.0969  0.2435
  611MOL0     O82358  10.807   5.100   9.797 -0.0157  0.6238  0.4991
  611MOL0     C82359  10.831   5.135   9.938 -0.0414 -0.5444 -0.6301
  611MOL0     C82360  10.974   5.098   9.975 -0.0543  0.5023 -0.0409
  611MOL0     C82361  11.080   5.208   9.944 -0.2475 -0.4205  0.7311
  611MOL0     C82362  11.083   5.245   9.793 -0.2647  0.0973  0.9619
  611MOL0     C82363  11.124   5.129   9.693  0.3446  0.0970 -0.3504
  611MOL0     C82364  11.267   5.077   9.719  0.1623  0.5902 -0.9037
  611MOL0     C82365  11.330   4.995   9.613  0.0940 -0.1682  0.9057
  611MOL0     C82366  11.482   5.002   9.632 -0.5439  1.2415 -0.4975
  611MOL0     N82367  11.526   4.954   9.762 -0.2949 -0.1027 -0.1307
  611MOL0     C82368  11.549   5.024   9.880 -0.1018 -0.4746  0.7173
  611MOL0     C82369  11.601   4.932   9.962  0.1467  0.3062 -0.6304
  611MOL0     C82370  11.635   4.961  10.108  0.1986 -0.0209 -0.3152
  611MOL0     C82371  11.734   5.074  10.133 -0.7036  0.4628  0.0079
  611MOL0     C82372  11.865   5.036  10.079  0.0890  0.1280  0.1511
  611MOL0     C82373  11.977   5.117  10.131 -1.2113 -0.2004  0.3413
  611MOL0     O82374  11.988   5.102  10.273 -0.6451 -0.2604 -0.3516
  611MOL0     C82375  12.088   5.014  10.326 -0.2628 -0.3928  0.1747
  611MOL0     C82376  12.048   4.882  10.356 -0.7347  0.1472 -0.8415
  611MOL0     C82377  12.136   4.803  10.434  0.1726 -1.2225 -0.7696
  611MOL0     C82378  12.271   4.846  10.450 -0.0450 -0.3857 -0.9832
  611MOL0     C82379  12.367   4.769  10.537 -0.5768 -0.2027  0.0655
  611MOL0     O82380  12.477   4.829  10.572 -0.9799 -0.6263  0.3494
  611MOL0     C82381  12.559   4.773  10.667 -0.4259  0.8663 -1.4482
  611MOL0     C82382  12.700   4.787  10.654 -0.3462  0.2051  0.2094
  611MOL0     C82383  12.791   4.726  10.740 -0.0683 -0.0888  0.6981
  611MOL0     C82384  12.746   4.673  10.861  0.7184  0.8736 -0.8122
  611MOL0     O82385  12.843   4.631  10.942  0.6636  0.3297  0.7639
  611MOL0     C82386  12.819   4.620  11.080 -0.0151 -0.6690 -0.6748
  611MOL0     C82387  12.942   4.606  11.168  0.5817  0.2116 -0.5440
  611MOL0     C82388  13.031   4.733  11.180  0.5799  0.5160  1.2709
  611MOL0     C82389  13.170   4.685  11.235  0.1535  0.4557  0.2391
  611MOL0     C82390  13.294   4.779  11.236 -0.2030  0.1739  0.0362
  611MOL0     C82391  13.285   4.909  11.321  0.4339  0.3044  0.1895
  611MOL0     C82392  13.419   4.984  11.314 -0.3831 -0.1620  0.2289
  611MOL0     C82393  13.410   5.134  11.359 -0.3562  0.5695  0.1340
  611MOL0    Cl82394  13.400   5.117  11.529  0.1705 -0.4824  0.1615
  611MOL0     C82395  12.606   4.661  10.881 -0.6714  0.4211 -0.0960
  611MOL0     C82396  12.516   4.712  10.788 -0.5767 -0.4712 -0.1622
  611MOL0     O82397  12.339   4.657  10.565  0.4052  0.2920 -0.2560
  611MOL0     C82398  12.308   4.973  10.405 -0.3347  0.0870  0.2010
  611MOL0     C82399  12.218   5.065  10.349  0.7220 -0.1682 -0.0963
  611MOL0     N82400  11.611   4.811   9.898  0.2187  0.1507 -0.1669
  611MOL0     N82401  11.563   4.830   9.782 -0.0616 -0.3090 -0.2245
  611MOL0     C82402  10.563   5.137   9.831 -0.1133  0.0320  0.0658
  611MOL0     C82403  10.428   5.132   9.780 -0.0173 -0.5631 -0.4344
  611MOL0     C82404  10.091   4.923   9.574 -0.7033 -0.7087 -0.5160
  611MOL0     C82405  10.022   5.040   9.526  0.4793  0.0190  0.9825
  611MOL0     C82406   9.889   5.024   9.474  0.7348  0.1943 -0.3783
  611MOL0     C82407   9.821   4.901   9.479  0.2798  0.4530 -0.3680
  611MOL0     O82408   9.698   4.874   9.419 -0.9624  0.4924  0.2539
  611MOL0     C82409   9.602   4.978   9.422 -0.6484 -0.4336 -0.3020
  611MOL0     C82410   9.473   4.918   9.360  0.6570 -0.6801 -0.0782
  611MOL0     C82411   9.494   4.865   9.217 -0.1808 -0.2961  0.4417
  611MOL0     C82412   9.520   4.969   9.110 -0.7748 -0.4051  0.5524
  611MOL0     C82413   9.413   5.061   9.082  0.2052  0.4187  0.1192
  611MOL0     C82414   9.354   5.158   9.048 -0.2947 -0.3734  0.9775
  611MOL0     C82415   9.890   4.794   9.533  0.1813  0.4807  0.1779
  611MOL0     C82416  10.024   4.801   9.577  0.7580  0.0683 -0.0829
  611MOL0     C82417  10.084   4.672   9.620 -0.8800  0.9361  0.5139
  611MOL0     H82418  10.527   5.005   9.473 -0.2081 -0.6197  0.6121
  611MOL0     H82419  10.743   4.993   9.564  0.4755 -2.0458  0.5562
  611MOL0     H82420  10.822   5.244   9.945 -1.1312 -0.6832  0.4172
  611MOL0     H82421  10.770   5.072  10.004  0.0004  0.5536  0.4892
  611MOL0     H82422  11.005   5.004   9.929 -2.3313 -0.8858  1.0547
  611MOL0     H82423  10.983   5.066  10.080  0.7892 -1.3464 -0.6380
  611MOL0     H82424  11.184   5.187   9.970 -0.0752  3.6183  4.6438
  611MOL0     H82425  11.064   5.297  10.006  0.3338 -0.7865  1.4293
  611MOL0     H82426  10.990   5.285   9.752  0.9775  2.5762  0.4039
  611MOL0     H82427  11.150   5.330   9.777 -0.0589 -0.3434 -0.7895
  611MOL0     H82428  11.049   5.050   9.697  1.0366 -0.5367  0.4138
  611MOL0     H82429  11.131   5.173   9.593  0.6160  0.2938 -0.2467
  611MOL0     H82430  11.326   5.167   9.737  0.9958 -0.4648  2.1977
  611MOL0     H82431  11.268   5.017   9.810 -0.1309  0.9908 -0.6320
  611MOL0     H82432  11.291   5.036   9.520 -0.8105  3.4674  2.7112
  611MOL0     H82433  11.294   4.891   9.616 -3.3289  0.7923 -1.3182
  611MOL0     H82434  11.534   4.940   9.558  0.8248  4.5362 -2.5206
  611MOL0     H82435  11.512   5.106   9.619 -0.0969  1.0610 -0.9485
  611MOL0     H82436  11.531   5.130   9.896 -0.0300 -0.7669  3.0965
  611MOL0     H82437  11.540   4.970  10.161  0.0361 -1.2964 -0.3542
  611MOL0     H82438  11.670   4.865  10.147  1.4297 -0.9978 -3.4881
  611MOL0     H82439  11.690   5.162  10.085 -0.7204  0.4984  0.0889
  611MOL0     H82440  11.738   5.099  10.239 -0.9252  3.3608 -0.5819
  611MOL0     H82441  11.853   5.051   9.971 -2.4438 -1.6730  0.0798
  611MOL0     H82442  11.882   4.928  10.088  2.4790  0.2930 -1.5114
  611MOL0     H82443  11.959   5.220  10.098 -1.7304  0.0114  1.2759
  611MOL0     H82444  12.074   5.090  10.088  1.7609  3.8476  3.6832
  611MOL0     H82445  11.946   4.851  10.341 -1.6759  2.1887  0.7576
  611MOL0     H82446  12.103   4.708  10.475 -0.0145 -0.7469  0.2097
  611MOL0     H82447  12.734   4.834  10.563  0.2839  3.2204  1.8517
  611MOL0     H82448  12.895   4.725  10.710  0.0134  2.2345  0.6652
  611MOL0     H82449  12.766   4.711  11.108  0.6220 -0.8165  1.0890
  611MOL0     H82450  12.754   4.537  11.110 -4.4201  3.5893  3.3510
  611MOL0     H82451  12.917   4.580  11.272  0.3806  1.6392 -0.2213
  611MOL0     H82452  13.003   4.523  11.130  0.8823 -0.1512  0.6681
  611MOL0     H82453  13.035   4.780  11.081 -2.3652 -0.8522  0.3866
  611MOL0     H82454  12.988   4.810  11.246 -1.9366 -0.7383  1.2127
  611MOL0     H82455  13.199   4.597  11.177 -1.1671  0.7547 -0.9332
  611MOL0     H82456  13.147   4.644  11.334 -0.4639 -2.9550 -1.1667
  611MOL0     H82457  13.328   4.802  11.134  2.7386 -0.4878  0.7682
  611MOL0     H82458  13.369   4.716  11.285 -0.5815  0.3214  0.8191
  611MOL0     H82459  13.209   4.970  11.271  2.1601  2.4235 -0.0033
  611MOL0     H82460  13.263   4.884  11.425 -3.7438 -2.2438 -1.0699
  611MOL0     H82461  13.441   4.996  11.207 -0.6226  1.4318  0.3285
  611MOL0     H82462  13.498   4.936  11.373  0.9984  0.5332 -0.9950
  611MOL0     H82463  13.498   5.181  11.315  0.6681 -0.8513  0.5633
  611MOL0     H82464  13.315   5.180  11.331 -3.0559 -2.7577  2.9401
  611MOL0     H82465  12.566   4.603  10.963 -0.5350 -1.0180 -1.0024
  611MOL0     H82466  12.409   4.702  10.799 -1.0858  0.2898 -3.3045
  611MOL0     H82467  12.402   5.026  10.406 -0.8846  1.1244 -0.9657
  611MOL0     H82468  12.252   5.160  10.308  2.0978 -2.0676 -3.8571
  611MOL0     H82469  10.585   5.193   9.922  0.2102 -1.4396  0.9195
  611MOL0     H82470  10.344   5.186   9.822  1.3547  1.7861 -0.5541
  611MOL0     H82471  10.073   5.135   9.513 -1.5214  0.8166 -2.0993
  611MOL0     H82472   9.846   5.100   9.409  2.3566  0.1851 -1.5265
  611MOL0     H82473   9.636   5.068   9.370  1.6700 -0.5314  0.8745
  611MOL0     H82474   9.590   5.006   9.527  1.4082 -0.6241  0.0432
  611MOL0     H82475   9.401   5.000   9.351 -1.0519 -2.0874  0.3212
  611MOL0     H82476   9.432   4.836   9.419 -2.9548  0.6458 -0.5117
  611MOL0     H82477   9.397   4.818   9.197  0.5635 -1.6388 -0.1152
  611MOL0     H82478   9.575   4.791   9.214 -0.2257 -0.5340  2.8000
  611MOL0     H82479   9.612   5.026   9.129 -1.0978 -0.1160  1.2822
  611MOL0     H82480   9.532   4.918   9.014  0.3481 -0.1859  0.5533
  611MOL0     H82481   9.307   5.249   9.015  0.0160  0.9866  3.8762
  611MOL0     H82482   9.840   4.698   9.547  1.3399 -0.0083  1.1734
  611MOL0     H82483  10.192   4.674   9.601 -0.6178  0.0647  1.8092
  611MOL0     H82484  10.075   4.642   9.725  2.2085  1.1948  0.9623
  611MOL0     H82485  10.049   4.587   9.561  0.3542  0.0324  1.0301
  612MOL0     O82486  10.941   6.923   9.213  0.4401 -1.1902 -0.3412
  612MOL0     C82487  10.918   7.021   9.288  0.8596 -0.4716  0.4576
  612MOL0     O82488  11.018   7.103   9.332 -0.1903 -0.7392  0.8657
  612MOL0     C82489  11.148   7.056   9.339  1.0717 -0.2628 -0.3960
  612MOL0     C82490  11.161   6.946   9.417  0.6242 -0.3410  0.7185
  612MOL0     C82491  11.290   6.890   9.431  0.0684  0.6117  0.0088
  612MOL0     C82492  11.404   6.948   9.365 -0.5940  0.3980 -0.2456
  612MOL0     O82493  11.535   6.899   9.367 -0.3806  0.2618  0.1414
  612MOL0     C82494  11.546   6.763   9.419 -0.4630  0.3502  0.3773
  612MOL0     C82495  11.688   6.712   9.392 -0.3878 -0.4537 -0.2955
  612MOL0     C82496  11.787   6.779   9.490 -0.0678  0.4229 -1.0716
  612MOL0     C82497  11.927   6.782   9.423  0.0497  0.1875  0.6843
  612MOL0     C82498  11.986   6.649   9.415  0.3535 -0.1518  0.6519
  612MOL0     C82499  12.043   6.605   9.552 -0.2260  0.7850  0.3026
  612MOL0     C82500  12.087   6.453   9.554  0.6810 -0.0581  0.9275
  612MOL0     C82501  12.205   6.412   9.469  0.8055  0.5581  0.6305
  612MOL0     N82502  12.328   6.488   9.492 -0.0986  0.0671  0.3421
  612MOL0     C82503  12.370   6.549   9.604  0.4724 -0.4349 -0.2982
  612MOL0     C82504  12.506   6.560   9.585  0.5521  0.9206  0.6024
  612MOL0     C82505  12.597   6.628   9.677 -0.2698 -0.5088 -0.3773
  612MOL0     C82506  12.734   6.558   9.671  0.7301  0.2985  0.0529
  612MOL0     C82507  12.735   6.416   9.727  0.0113 -0.0653 -0.4104
  612MOL0     C82508  12.881   6.377   9.732 -0.4731  0.1025 -0.4499
  612MOL0     O82509  12.954   6.426   9.842  0.3894 -0.0083  0.2306
  612MOL0     C82510  13.084   6.376   9.854 -0.1161  0.1136 -0.1533
  612MOL0     C82511  13.169   6.322   9.755  0.2716 -0.7279 -0.2268
  612MOL0     C82512  13.299   6.269   9.792  0.9889  0.6197  0.8682
  612MOL0     C82513  13.336   6.272   9.928 -0.0696 -0.1651  0.0677
  612MOL0     C82514  13.454   6.203   9.977 -0.2631 -0.2478  0.3961
  612MOL0     O82515  13.521   6.126   9.893 -0.3458 -0.1683  0.0826
  612MOL0     C82516  13.620   6.036   9.940  0.3797  0.7257 -0.7693
  612MOL0     C82517  13.751   6.084   9.929 -0.6605  0.1850  1.1836
  612MOL0     C82518  13.851   5.991   9.970  0.2338 -0.2720 -0.4954
  612MOL0     C82519  13.822   5.870  10.028  0.2888  1.1705 -0.5381
  612MOL0     O82520  13.917   5.792  10.081  0.2852 -0.1736 -0.0057
  612MOL0     C82521  14.017   5.752   9.990 -1.0111  0.6741 -0.1762
  612MOL0     C82522  14.054   5.610  10.016 -0.0670  1.1062 -0.6479
  612MOL0     C82523  13.930   5.524   9.990 -1.3008 -0.2035  0.0723
  612MOL0     C82524  13.974   5.371   9.984  0.1715 -0.5080  0.2839
  612MOL0     C82525  13.858   5.271  10.015 -0.7237  0.7765  0.9584
  612MOL0     C82526  13.852   5.212  10.155  0.0961 -0.1752  0.5444
  612MOL0     C82527  13.738   5.105  10.162 -0.3699  0.1495 -0.5038
  612MOL0     C82528  13.718   5.054  10.307  0.2787 -0.3966 -0.4282
  612MOL0    Cl82529  13.622   5.193  10.389  0.2083  0.0860  0.0408
  612MOL0     C82530  13.691   5.822  10.032 -0.0575 -0.3447 -0.5884
  612MOL0     C82531  13.591   5.910   9.994 -0.5565  0.2786  0.5847
  612MOL0     O82532  13.487   6.229  10.090  0.1743  0.3017  0.4929
  612MOL0     C82533  13.252   6.330  10.025 -0.3385  0.5011 -0.2561
  612MOL0     C82534  13.132   6.382   9.985  0.4952  0.0511  0.5290
  612MOL0     N82535  12.539   6.503   9.465  0.2895 -0.5046  0.4189
  612MOL0     N82536  12.434   6.464   9.412  0.1135 -0.4042  0.0505
  612MOL0     C82537  11.385   7.059   9.289  0.1569  0.5287  0.4922
  612MOL0     C82538  11.260   7.114   9.283 -0.3007 -0.9213  1.0188
  612MOL0     C82539  10.777   7.063   9.306  0.6253 -0.3334  0.7310
  612MOL0     C82540  10.697   7.101   9.190  0.2829  0.0524 -0.4713
  612MOL0     C82541  10.563   7.154   9.206 -0.1270  0.2304 -0.2677
  612MOL0     C82542  10.500   7.154   9.334 -0.0332 -0.2490  0.1456
  612MOL0     O82543  10.369   7.180   9.377  0.4608 -0.1418  0.1074
  612MOL0     C82544  10.274   7.215   9.277 -0.1864  0.2845  0.1222
  612MOL0     C82545  10.279   7.370   9.253 -0.0072  0.1566  0.2646
  612MOL0     C82546  10.229   7.460   9.366  0.7190  0.0950 -0.2703
  612MOL0     C82547  10.262   7.608   9.350  0.3629  0.4616 -0.6446
  612MOL0     C82548  10.267   7.676   9.473 -0.2734 -0.3189  0.2931
  612MOL0     C82549  10.259   7.740   9.572  0.6787  0.0081 -0.7284
  612MOL0     C82550  10.578   7.104   9.437 -0.1681 -0.6488 -0.3112
  612MOL0     C82551  10.715   7.074   9.433  0.0665 -0.1642  0.5702
  612MOL0     C82552  10.794   7.034   9.562 -0.3974  0.2015 -0.0142
  612MOL0     H82553  11.074   6.895   9.457  1.5194 -2.5179  0.0608
  612MOL0     H82554  11.301   6.796   9.484 -0.3693  0.4326 -0.2213
  612MOL0     H82555  11.529   6.760   9.527 -1.4865  0.6508  0.2412
  612MOL0     H82556  11.478   6.692   9.371  1.4882  1.1358 -4.0747
  612MOL0     H82557  11.713   6.720   9.286 -5.1478 -1.8499 -1.7636
  612MOL0     H82558  11.690   6.604   9.409 -0.4348 -0.5661 -1.0098
  612MOL0     H82559  11.783   6.736   9.590 -3.6757  0.5874 -1.0060
  612MOL0     H82560  11.757   6.883   9.502 -0.6271  0.4750 -2.6698
  612MOL0     H82561  11.923   6.826   9.323  0.8841  5.6756  2.7136
  612MOL0     H82562  12.001   6.843   9.475  2.3947  1.4419 -3.6146
  612MOL0     H82563  11.907   6.580   9.385  2.1500 -1.8290 -0.4184
  612MOL0     H82564  12.064   6.643   9.339 -1.5863  1.3375 -1.6139
  612MOL0     H82565  12.131   6.670   9.563  2.0599 -1.5968 -2.3038
  612MOL0     H82566  11.978   6.620   9.639 -1.3006  0.1431 -0.3712
  612MOL0     H82567  11.992   6.407   9.526 -0.0635  0.9285  1.7511
  612MOL0     H82568  12.112   6.433   9.659  1.0324 -1.5246  0.5983
  612MOL0     H82569  12.224   6.306   9.487 -1.4311 -0.0183 -0.1017
  612MOL0     H82570  12.178   6.416   9.363  1.7435  0.2630  0.3730
  612MOL0     H82571  12.318   6.590   9.690  1.5371  0.0588  0.1295
  612MOL0     H82572  12.621   6.730   9.644 -0.5352 -0.1854  0.4203
  612MOL0     H82573  12.539   6.631   9.770  0.4100 -0.7297  0.0530
  612MOL0     H82574  12.773   6.544   9.569 -0.0586 -0.6540 -0.1318
  612MOL0     H82575  12.802   6.623   9.728 -1.3363  3.1256 -0.4943
  612MOL0     H82576  12.685   6.360   9.647 -2.8379  0.1758  1.0853
  612MOL0     H82577  12.686   6.418   9.824 -1.8832 -0.5042 -1.3189
  612MOL0     H82578  12.934   6.397   9.638  2.8232 -0.8972  1.0272
  612MOL0     H82579  12.877   6.270   9.751 -1.5173  0.2116 -0.0032
  612MOL0     H82580  13.136   6.323   9.652  3.9734 -0.0978 -1.5670
  612MOL0     H82581  13.365   6.232   9.714 -0.2234 -0.3566  0.2800
  612MOL0     H82582  13.764   6.185   9.891 -1.4726  0.7331  2.2996
  612MOL0     H82583  13.956   6.012   9.954 -0.0079  0.4011 -1.3143
  612MOL0     H82584  13.983   5.767   9.887 -1.5969 -0.2711 -0.1387
  612MOL0     H82585  14.108   5.810  10.010  1.6925 -3.3393  0.3425
  612MOL0     H82586  14.142   5.576   9.960 -0.0304 -2.1149  1.0846
  612MOL0     H82587  14.082   5.595  10.121  0.8275 -0.4970 -1.0753
  612MOL0     H82588  13.871   5.529  10.082 -3.0419 -2.7547 -0.7997
  612MOL0     H82589  13.869   5.554   9.904 -0.7445 -3.9612 -1.8789
  612MOL0     H82590  14.051   5.361  10.062 -1.4188 -1.2899  1.8211
  612MOL0     H82591  14.011   5.348   9.884 -0.1019 -1.1009  0.3202
  612MOL0     H82592  13.874   5.192   9.941  1.9572  0.9324  1.3030
  612MOL0     H82593  13.764   5.316   9.982 -0.5572 -0.2258 -1.0763
  612MOL0     H82594  13.950   5.166  10.169 -1.0754 -2.3961  2.0169
  612MOL0     H82595  13.838   5.287  10.234  1.9447 -0.0203  0.7719
  612MOL0     H82596  13.782   5.021  10.109  0.7308  0.4745 -0.1349
  612MOL0     H82597  13.642   5.140  10.124  0.0477 -1.9279 -3.8694
  612MOL0     H82598  13.657   4.963  10.311 -0.1837 -0.0537  0.9174
  612MOL0     H82599  13.817   5.046  10.351 -0.1741 -0.1583  0.6700
  612MOL0     H82600  13.674   5.721  10.067 -2.9726  1.0184  2.4212
  612MOL0     H82601  13.488   5.876   9.996 -0.2588 -0.9701 -1.7650
  612MOL0     H82602  13.278   6.317  10.130 -0.0394 -3.4221 -0.6526
  612MOL0     H82603  13.064   6.421  10.060 -2.0854 -0.3089 -1.5158
  612MOL0     H82604  11.470   7.104   9.240  3.4188 -4.8614  0.4378
  612MOL0     H82605  11.250   7.204   9.222  1.2844  0.5313  2.7446
  612MOL0     H82606  10.752   7.098   9.097 -1.7102  0.7835 -1.7436
  612MOL0     H82607  10.510   7.176   9.115  0.4616 -0.1917 -0.7234
  612MOL0     H82608  10.183   7.186   9.331  0.9373  1.1345  2.6015
  612MOL0     H82609  10.286   7.162   9.182 -1.8133  1.8169 -0.9997
  612MOL0     H82610  10.222   7.389   9.162 -3.0627 -0.2116  1.9570
  612MOL0     H82611  10.378   7.405   9.222 -0.8820  1.5546 -1.1527
  612MOL0     H82612  10.281   7.419   9.452  0.3048  0.5485  0.2001
  612MOL0     H82613  10.120   7.452   9.354  0.4372  1.6837  0.9107
  612MOL0     H82614  10.358   7.616   9.299  0.8261  1.8221  0.3844
  612MOL0     H82615  10.186   7.644   9.281  0.6670 -1.4102 -2.0380
  612MOL0     H82616  10.257   7.791   9.666  0.5591  0.3280 -0.9020
  612MOL0     H82617  10.530   7.115   9.533 -0.7396 -2.8438 -0.3055
  612MOL0     H82618  10.773   6.929   9.586  0.9814 -1.4040 -4.7128
  612MOL0     H82619  10.901   7.036   9.539 -0.7760 -0.7774 -2.1509
  612MOL0     H82620  10.777   7.108   9.641 -1.9512  2.0369 -1.9492
  613MOL0     O82621   6.895   8.391   9.378 -0.6310  0.3678 -0.3034
  613MOL0     C82622   6.787   8.432   9.331  0.3373  0.0848  0.6423
  613MOL0     O82623   6.779   8.520   9.232 -0.5577 -0.3822 -0.1816
  613MOL0     C82624   6.896   8.555   9.174 -0.1782 -0.3336 -0.3427
  613MOL0     C82625   6.939   8.685   9.198  0.7204 -0.1164  0.3481
  613MOL0     C82626   7.059   8.740   9.144 -0.4469  0.1627  0.7020
  613MOL0     C82627   7.128   8.653   9.055  0.5766 -0.2896  0.1688
  613MOL0     O82628   7.235   8.691   8.981 -0.3850 -0.0182 -0.1462
  613MOL0     C82629   7.190   8.723   8.846 -0.8860 -0.0559 -0.3004
  613MOL0     C82630   7.273   8.830   8.778 -0.2389 -0.6302  0.1225
  613MOL0     C82631   7.399   8.781   8.714 -0.2527  0.6134  0.2470
  613MOL0     C82632   7.487   8.883   8.624 -0.0164 -0.4356  0.5729
  613MOL0     C82633   7.580   8.816   8.512  0.0833  0.1043 -0.5990
  613MOL0     C82634   7.504   8.761   8.389  0.8894  0.9006 -0.2207
  613MOL0     C82635   7.418   8.859   8.309  0.8504  0.2833  0.1159
  613MOL0     C82636   7.473   8.991   8.273  0.4072 -0.3384 -0.2341
  613MOL0     N82637   7.582   8.974   8.173  0.3536  0.8930 -0.3931
  613MOL0     C82638   7.573   8.949   8.034  0.4737  0.8332  0.0841
  613MOL0     C82639   7.692   8.902   7.995 -0.0811 -0.4944  0.5647
  613MOL0     C82640   7.721   8.872   7.848  0.3590  1.2667 -1.3302
  613MOL0     C82641   7.778   9.000   7.778 -0.3715 -0.7875 -0.1247
  613MOL0     C82642   7.887   9.061   7.860 -0.9889  1.3253 -0.4052
  613MOL0     C82643   8.004   9.133   7.784  0.6524 -0.4389 -0.5392
  613MOL0     O82644   8.088   9.027   7.726  0.4216  0.0997  0.4440
  613MOL0     C82645   8.214   9.028   7.757  0.0688 -0.1922  0.2234
  613MOL0     C82646   8.278   8.919   7.827  0.2100  0.1113  1.0944
  613MOL0     C82647   8.415   8.914   7.846 -0.2741 -0.3107 -0.8638
  613MOL0     C82648   8.494   9.017   7.809  0.5539  0.6801 -0.4822
  613MOL0     C82649   8.639   9.013   7.828 -1.0497  0.0926 -0.9049
  613MOL0     O82650   8.721   9.101   7.762 -0.0425  0.0283  0.3547
  613MOL0     C82651   8.862   9.066   7.781  0.5660  0.8045  1.0113
  613MOL0     C82652   8.933   9.165   7.839 -0.5035  0.6031  0.6732
  613MOL0     C82653   9.073   9.141   7.859 -0.2316 -0.2078 -0.3888
  613MOL0     C82654   9.140   9.022   7.823 -0.8219 -1.1174  0.0002
  613MOL0     O82655   9.271   9.006   7.851 -0.1436 -0.4364 -1.0567
  613MOL0     C82656   9.333   8.876   7.874  0.3961  0.2822 -0.4932
  613MOL0     C82657   9.466   8.893   7.958  0.4363  0.6562  0.1881
  613MOL0     C82658   9.578   8.936   7.854  0.5525  0.6090 -0.4200
  613MOL0     C82659   9.701   8.993   7.927  0.9957 -0.8038 -0.2411
  613MOL0     C82660   9.804   9.039   7.821 -0.2327 -0.4596  0.9010
  613MOL0     C82661   9.946   9.045   7.880 -0.1862 -0.3013  0.3878
  613MOL0     C82662   9.969   9.165   7.971  0.0025  0.3779  0.2085
  613MOL0     C82663  10.115   9.201   7.975 -0.2497  0.5693  0.0580
  613MOL0    Cl82664  10.148   9.306   8.112 -0.3454 -0.2136  0.1246
  613MOL0     C82665   9.066   8.932   7.763  0.7516 -0.1041  0.3946
  613MOL0     C82666   8.930   8.951   7.737  0.2007  0.6407  0.2463
  613MOL0     O82667   8.686   8.921   7.899  0.4938  0.1964  0.0715
  613MOL0     C82668   8.428   9.125   7.737 -0.5067 -0.4279 -0.2057
  613MOL0     C82669   8.295   9.130   7.713 -0.0641 -0.4897 -0.1759
  613MOL0     N82670   7.782   8.918   8.098 -0.4217  0.1193  0.4350
  613MOL0     N82671   7.709   8.952   8.206 -0.5985  0.0240  0.3777
  613MOL0     C82672   7.082   8.528   9.032  0.2683  0.3987  0.4489
  613MOL0     C82673   6.964   8.474   9.087 -0.2899  0.5304  0.5184
  613MOL0     C82674   6.658   8.374   9.380  0.0994 -0.1342 -0.6714
  613MOL0     C82675   6.642   8.356   9.522 -0.0101 -0.5946  0.3837
  613MOL0     C82676   6.526   8.301   9.589 -0.3977  1.1074  0.7175
  613MOL0     C82677   6.408   8.282   9.508 -0.5759 -0.1023 -1.2020
  613MOL0     O82678   6.293   8.262   9.571 -0.9385  0.1375  0.1527
  613MOL0     C82679   6.176   8.297   9.497 -0.8688 -0.1010  0.1204
  613MOL0     C82680   6.059   8.299   9.586  0.3288 -0.7778  0.2507
  613MOL0     C82681   5.932   8.326   9.499  0.8347 -0.2039 -0.3853
  613MOL0     C82682   5.812   8.272   9.584 -0.4648  0.4020 -0.0483
  613MOL0     C82683   5.685   8.291   9.521 -0.2831 -0.5510 -0.1238
  613MOL0     C82684   5.586   8.338   9.461  0.3270  1.2072 -0.3109
  613MOL0     C82685   6.430   8.291   9.367  0.3597 -0.1531 -0.1139
  613MOL0     C82686   6.548   8.336   9.303  0.8702  0.4578  0.1499
  613MOL0     C82687   6.548   8.320   9.160 -0.1592  0.7799  0.2646
  613MOL0     H82688   6.878   8.751   9.258  0.5098  0.6169 -0.6325
  613MOL0     H82689   7.085   8.845   9.149  1.8016 -0.3676  1.1131
  613MOL0     H82690   7.190   8.628   8.791 -1.6375 -0.2656  0.0431
  613MOL0     H82691   7.088   8.763   8.846 -1.1691 -0.7412  0.2045
  613MOL0     H82692   7.289   8.907   8.853  1.7504 -0.4428 -0.4596
  613MOL0     H82693   7.225   8.875   8.691  1.4836  0.5263 -0.2733
  613MOL0     H82694   7.366   8.695   8.656  0.9559 -1.0289  1.8826
  613MOL0     H82695   7.462   8.731   8.788 -1.6151 -0.1533  0.9196
  613MOL0     H82696   7.431   8.957   8.567 -0.2693 -0.9904  0.0967
  613MOL0     H82697   7.560   8.935   8.687  1.2444 -0.7722 -0.5488
  613MOL0     H82698   7.646   8.890   8.466 -0.8697 -0.0468 -2.3002
  613MOL0     H82699   7.651   8.739   8.541  2.1476  1.1121 -2.6198
  613MOL0     H82700   7.578   8.718   8.321  0.5515 -0.2399  0.1124
  613MOL0     H82701   7.435   8.684   8.424  0.0096  1.5531 -0.4720
  613MOL0     H82702   7.330   8.871   8.374  0.8642 -2.4310  0.7971
  613MOL0     H82703   7.381   8.805   8.222  0.7390  1.7382 -0.7646
  613MOL0     H82704   7.390   9.056   8.243  0.8850  0.3843 -0.0027
  613MOL0     H82705   7.513   9.033   8.366 -2.3992 -0.0518  0.9380
  613MOL0     H82706   7.487   8.961   7.969  1.1475  0.0977 -0.9903
  613MOL0     H82707   7.792   8.789   7.849 -1.1035 -0.0575 -0.1486
  613MOL0     H82708   7.627   8.838   7.804 -0.3787  3.1316 -1.2908
  613MOL0     H82709   7.816   8.984   7.677  0.8848  1.2670 -0.0270
  613MOL0     H82710   7.689   9.062   7.762  0.1369  0.2093  0.7594
  613MOL0     H82711   7.934   8.983   7.920 -1.9276  1.7273  0.8762
  613MOL0     H82712   7.834   9.134   7.922 -1.1414  1.4875 -0.7218
  613MOL0     H82713   8.073   9.191   7.847 -1.7053 -0.9181  2.7550
  613MOL0     H82714   7.962   9.193   7.703  1.8337  1.4936  0.2059
  613MOL0     H82715   8.228   8.824   7.840  0.1398  0.1353  1.0054
  613MOL0     H82716   8.463   8.825   7.884 -0.3249  0.1467  0.3031
  613MOL0     H82717   8.889   9.264   7.852  1.5727  1.7350 -0.4425
  613MOL0     H82718   9.133   9.216   7.910 -2.1309  1.5853 -0.6339
  613MOL0     H82719   9.265   8.808   7.926  0.5846  1.2880  1.1292
  613MOL0     H82720   9.364   8.839   7.776  0.3161 -2.2100  0.3646
  613MOL0     H82721   9.453   8.969   8.036  0.3136  0.1581  0.6574
  613MOL0     H82722   9.496   8.799   8.004 -1.8259  0.7533  2.0331
  613MOL0     H82723   9.607   8.844   7.801  2.6505 -0.1272  1.8290
  613MOL0     H82724   9.542   9.007   7.780 -4.0714  0.3159  1.2564
  613MOL0     H82725   9.743   8.924   8.000 -1.1970 -1.7348  0.2368
  613MOL0     H82726   9.659   9.074   7.987  0.9559 -0.8095 -0.2607
  613MOL0     H82727   9.768   9.136   7.789 -0.6511 -0.2758  1.8877
  613MOL0     H82728   9.816   8.969   7.738  2.2193  0.7715  0.1151
  613MOL0     H82729   9.967   8.946   7.923 -0.5191 -0.5398  0.0080
  613MOL0     H82730  10.023   9.051   7.801  0.5637 -1.7710  0.9535
  613MOL0     H82731   9.940   9.135   8.072 -2.1299 -1.0636 -0.7454
  613MOL0     H82732   9.906   9.247   7.936 -1.9562 -0.2191  2.0881
  613MOL0     H82733  10.178   9.112   7.980 -2.4489 -1.1717 -1.4497
  613MOL0     H82734  10.140   9.253   7.882  0.9463 -2.6415 -1.5772
  613MOL0     H82735   9.102   8.837   7.724 -2.0514 -2.0533  2.1626
  613MOL0     H82736   8.873   8.876   7.683 -2.2931  1.6212  1.3591
  613MOL0     H82737   8.494   9.198   7.690 -0.4481  0.1508  0.7407
  613MOL0     H82738   8.260   9.216   7.657 -1.2614  0.7330  2.2866
  613MOL0     H82739   7.136   8.469   8.959 -1.6056  0.2959 -0.9285
  613MOL0     H82740   6.932   8.372   9.072  0.1108  0.3835  0.6588
  613MOL0     H82741   6.728   8.396   9.576  1.8361  2.9841 -4.4553
  613MOL0     H82742   6.530   8.292   9.697 -1.9654 -1.5548  0.6359
  613MOL0     H82743   6.165   8.222   9.418 -3.1206  0.7022 -0.3968
  613MOL0     H82744   6.194   8.395   9.451  2.3531 -1.9823 -3.1093
  613MOL0     H82745   6.067   8.383   9.656  0.3599  1.6050 -2.4362
  613MOL0     H82746   6.051   8.201   9.634  1.3346 -1.5406 -1.0854
  613MOL0     H82747   5.935   8.268   9.406  0.5592 -2.1828  0.7791
  613MOL0     H82748   5.927   8.431   9.469  0.0401  0.4195  1.7028
  613MOL0     H82749   5.824   8.166   9.607 -0.2244  0.0331 -1.7504
  613MOL0     H82750   5.820   8.320   9.682  0.5917 -0.9928  0.5758
  613MOL0     H82751   5.499   8.381   9.417  0.0254 -1.8653 -3.0633
  613MOL0     H82752   6.348   8.263   9.302  0.7298 -0.2794 -0.5283
  613MOL0     H82753   6.496   8.404   9.114  1.3494  1.7706  0.2897
  613MOL0     H82754   6.649   8.305   9.121 -0.8050 -3.3992 -0.2767
  613MOL0     H82755   6.488   8.233   9.131 -2.0975  2.7429 -2.0222
  614MOL0     O82756   2.679   3.504   0.487  0.4639 -0.7540  0.3013
  614MOL0     C82757   2.567   3.567   0.509  0.4988 -0.1970  0.1254
  614MOL0     O82758   2.528   3.681   0.452  0.1829 -0.0188  0.1642
  614MOL0     C82759   2.622   3.740   0.370  0.2255  0.2648  0.4339
  614MOL0     C82760   2.659   3.869   0.399  0.0776  0.2019 -0.1646
  614MOL0     C82761   2.751   3.933   0.316 -0.1683 -1.1152  0.5405
  614MOL0     C82762   2.799   3.883   0.191  0.1732 -0.0642 -0.0890
  614MOL0     O82763   2.873   3.966   0.105 -0.0070 -0.6504  0.5392
  614MOL0     C82764   2.886   3.912  -0.023 -0.3860 -0.2534  0.9184
  614MOL0     C82765   2.972   4.001  -0.118  0.0722  0.8770 -0.3324
  614MOL0     C82766   2.947   3.981  -0.271  1.1771 -0.3846 -0.7338
  614MOL0     C82767   3.044   4.069  -0.360  0.1691  0.7920 -0.1303
  614MOL0     C82768   3.029   4.024  -0.508  0.2866 -0.1596 -0.3720
  614MOL0     C82769   3.127   4.103  -0.606 -0.2957  0.1947 -0.0076
  614MOL0     C82770   3.046   4.216  -0.671 -0.1510 -1.2358  0.9823
  614MOL0     C82771   3.133   4.272  -0.785  0.2545  0.3041  0.1552
  614MOL0     N82772   3.258   4.323  -0.726  0.3645  0.4256 -1.0052
  614MOL0     C82773   3.379   4.299  -0.788  0.3511 -0.0246  0.0021
  614MOL0     C82774   3.470   4.355  -0.705  0.3114  0.5055  0.2476
  614MOL0     C82775   3.622   4.354  -0.730  0.0496  0.0498 -0.4509
  614MOL0     C82776   3.688   4.490  -0.727 -0.4659  1.0467 -0.3090
  614MOL0     C82777   3.811   4.485  -0.810  0.3074  0.0251  0.0348
  614MOL0     C82778   3.923   4.378  -0.794 -0.0486  0.7263 -0.5117
  614MOL0     O82779   4.036   4.412  -0.882 -0.2305 -0.8797 -0.2150
  614MOL0     C82780   4.161   4.385  -0.837  0.0764 -0.5191  0.5148
  614MOL0     C82781   4.190   4.285  -0.742  0.7871  1.0643 -0.1514
  614MOL0     C82782   4.324   4.277  -0.702 -1.1980  0.3350 -0.5751
  614MOL0     C82783   4.428   4.355  -0.762 -0.4941  0.2046  0.9069
  614MOL0     C82784   4.571   4.337  -0.720 -0.1198 -0.0197 -0.5154
  614MOL0     O82785   4.607   4.260  -0.614 -0.6178  0.4350 -0.2532
  614MOL0     C82786   4.736   4.285  -0.567  0.0364  0.5465  0.1162
  614MOL0     C82787   4.850   4.221  -0.630  0.4010 -0.2362 -0.6711
  614MOL0     C82788   4.973   4.249  -0.571  0.3537 -0.3242  0.0347
  614MOL0     C82789   4.988   4.347  -0.466  0.6365  0.1183  0.1600
  614MOL0     O82790   5.118   4.363  -0.426  0.5186  0.1719 -0.4025
  614MOL0     C82791   5.141   4.453  -0.317 -0.0986  0.1802  0.1298
  614MOL0     C82792   5.288   4.497  -0.306  0.4698 -0.2533  0.0018
  614MOL0     C82793   5.371   4.382  -0.257 -1.3322  0.6647  0.2490
  614MOL0     C82794   5.524   4.405  -0.235  0.8476  0.9721  0.7470
  614MOL0     C82795   5.605   4.285  -0.184 -0.0946  0.2521 -0.1079
  614MOL0     C82796   5.594   4.260  -0.035  0.5057 -0.0765  0.3197
  614MOL0     C82797   5.639   4.126   0.018 -0.3308  0.0935  0.1580
  614MOL0     C82798   5.614   4.109   0.173 -0.1931 -0.0944  0.0991
  614MOL0    Cl82799   5.443   4.117   0.218 -0.1022  0.1524  0.1524
  614MOL0     C82800   4.873   4.394  -0.403 -0.3188 -0.2266  0.2365
  614MOL0     C82801   4.750   4.364  -0.457 -0.5179 -0.1959 -0.2973
  614MOL0     O82802   4.648   4.418  -0.777 -0.1322 -0.1599 -1.3585
  614MOL0     C82803   4.394   4.452  -0.854 -0.0103  0.2983  0.6770
  614MOL0     C82804   4.263   4.462  -0.895  0.3526 -0.4993 -0.4262
  614MOL0     N82805   3.405   4.429  -0.606 -0.4021  0.3853  0.3339
  614MOL0     N82806   3.277   4.413  -0.625 -0.1347  0.0411 -0.9190
  614MOL0     C82807   2.768   3.748   0.161  0.2582  0.3038  0.4915
  614MOL0     C82808   2.671   3.681   0.249 -0.0022  0.1579  0.6762
  614MOL0     C82809   2.489   3.508   0.617 -0.0496  1.1002  0.1143
  614MOL0     C82810   2.402   3.400   0.582  0.1855 -0.0415  0.0833
  614MOL0     C82811   2.327   3.337   0.683  0.0244 -0.5201 -0.8211
  614MOL0     C82812   2.341   3.371   0.815 -0.6557  0.2478 -0.5945
  614MOL0     O82813   2.269   3.299   0.899 -0.5080  0.7285 -0.3771
  614MOL0     C82814   2.264   3.332   1.042  0.2103 -0.5378  0.3254
  614MOL0     C82815   2.176   3.453   1.064 -0.1874 -0.4228  0.4207
  614MOL0     C82816   2.035   3.420   1.007 -0.5591  0.3371  0.8134
  614MOL0     C82817   1.915   3.480   1.085 -0.1668 -0.2133 -0.2532
  614MOL0     C82818   1.890   3.430   1.218  0.0855  0.7840  0.4634
  614MOL0     C82819   1.865   3.380   1.319  0.0451  0.0365 -1.2361
  614MOL0     C82820   2.425   3.483   0.846  0.2641 -0.2553  0.8248
  614MOL0     C82821   2.495   3.553   0.751  0.1861 -0.8632  0.4095
  614MOL0     C82822   2.603   3.644   0.803  0.3836  0.1696  0.1185
  614MOL0     H82823   2.626   3.912   0.493  3.0080  3.1471 -0.3098
  614MOL0     H82824   2.773   4.035   0.347 -1.7625  0.1474 -2.0914
  614MOL0     H82825   2.949   3.823  -0.011  0.9131  0.4964 -0.1055
  614MOL0     H82826   2.783   3.897  -0.056 -0.4705 -0.5963  1.3302
  614MOL0     H82827   3.076   3.972  -0.100 -0.7905 -1.2358  1.8802
  614MOL0     H82828   2.970   4.107  -0.090  0.2098  0.6772  0.4604
  614MOL0     H82829   2.846   4.014  -0.297  1.6412  3.0197  1.2429
  614MOL0     H82830   2.945   3.874  -0.295  1.5024 -1.0197  1.8235
  614MOL0     H82831   3.022   4.174  -0.341 -4.3808  0.2508 -1.3277
  614MOL0     H82832   3.146   4.037  -0.336  0.3676  0.5938 -1.2037
  614MOL0     H82833   3.058   3.919  -0.514  0.4349 -0.0361 -3.8802
  614MOL0     H82834   2.924   4.020  -0.538 -0.1765 -0.2595  1.1313
  614MOL0     H82835   3.212   4.141  -0.548 -2.2192 -1.6803  4.5236
  614MOL0     H82836   3.154   4.032  -0.684  0.4102 -2.4149  2.4273
  614MOL0     H82837   3.035   4.300  -0.601  3.8421  1.6431 -1.4307
  614MOL0     H82838   2.945   4.189  -0.704  0.4426 -0.5422 -1.6289
  614MOL0     H82839   3.153   4.193  -0.859 -1.6811 -1.1330  1.0757
  614MOL0     H82840   3.065   4.344  -0.831 -2.1194 -0.7978  1.7290
  614MOL0     H82841   3.381   4.244  -0.881 -1.5008 -0.8021  0.3875
  614MOL0     H82842   3.668   4.286  -0.658  0.1603 -0.9878 -1.4724
  614MOL0     H82843   3.644   4.311  -0.828 -0.1168 -0.1731 -0.3932
  614MOL0     H82844   3.626   4.576  -0.753 -0.9609  1.0533  0.8137
  614MOL0     H82845   3.728   4.507  -0.627  1.0497 -1.2689 -0.4488
  614MOL0     H82846   3.865   4.580  -0.803  0.0823  0.5655 -3.4950
  614MOL0     H82847   3.781   4.475  -0.915  1.4900  0.3992 -0.3647
  614MOL0     H82848   3.879   4.283  -0.825 -0.2320  0.8899 -0.7463
  614MOL0     H82849   3.958   4.371  -0.690 -1.0202 -1.3934 -0.2629
  614MOL0     H82850   4.118   4.223  -0.690  2.0392  0.6332  1.1106
  614MOL0     H82851   4.346   4.201  -0.628 -5.2337  0.6596  1.2286
  614MOL0     H82852   4.838   4.151  -0.712  0.7828 -1.4926  0.3019
  614MOL0     H82853   5.064   4.208  -0.613  1.4664  3.5876 -1.7733
  614MOL0     H82854   5.085   4.542  -0.347 -2.6411 -0.6814  2.0063
  614MOL0     H82855   5.109   4.405  -0.224  0.1772  1.1549  0.7382
  614MOL0     H82856   5.322   4.539  -0.401  1.0090  1.1325  0.7711
  614MOL0     H82857   5.286   4.573  -0.228  0.5634 -1.7010  1.4585
  614MOL0     H82858   5.324   4.360  -0.160  3.4454  1.9135  3.2048
  614MOL0     H82859   5.378   4.298  -0.326  0.9751 -0.4686  1.7563
  614MOL0     H82860   5.537   4.487  -0.164 -1.0519  0.5857  1.6010
  614MOL0     H82861   5.563   4.447  -0.328 -1.0760  0.4764 -0.3328
  614MOL0     H82862   5.711   4.295  -0.210  0.0554 -0.8872  0.0028
  614MOL0     H82863   5.558   4.200  -0.234  0.3776  0.7562 -1.4718
  614MOL0     H82864   5.654   4.335   0.017 -0.8487  1.7387 -0.5781
  614MOL0     H82865   5.488   4.267  -0.007  0.1578 -3.1162  0.0409
  614MOL0     H82866   5.748   4.122   0.006 -0.0236  0.0767  2.4552
  614MOL0     H82867   5.596   4.050  -0.048  0.4299  0.4306 -0.7513
  614MOL0     H82868   5.654   4.015   0.212  2.0720  1.6252  2.2461
  614MOL0     H82869   5.677   4.182   0.223  3.1319 -1.0054 -2.4150
  614MOL0     H82870   4.881   4.465  -0.322  1.8483  0.8715 -0.8401
  614MOL0     H82871   4.662   4.399  -0.405 -2.5284 -0.4925 -3.2716
  614MOL0     H82872   4.475   4.504  -0.905  0.0436 -0.6339 -0.2021
  614MOL0     H82873   4.235   4.538  -0.967  1.4718 -0.7441 -1.1328
  614MOL0     H82874   2.797   3.692   0.072 -0.3919 -0.1286  0.5449
  614MOL0     H82875   2.640   3.583   0.214 -1.6614  0.6232  0.7306
  614MOL0     H82876   2.399   3.363   0.481 -2.7063 -0.1923  0.1406
  614MOL0     H82877   2.272   3.246   0.659  0.1960 -1.7973  2.9472
  614MOL0     H82878   2.365   3.365   1.070  0.7168 -0.7619 -1.1557
  614MOL0     H82879   2.235   3.244   1.101  0.0016 -0.2319  0.6843
  614MOL0     H82880   2.216   3.536   1.006  3.6030 -2.6995 -0.5883
  614MOL0     H82881   2.180   3.481   1.170  2.3539 -0.3689  0.3758
  614MOL0     H82882   2.024   3.312   0.991 -1.6765  0.2321  2.1339
  614MOL0     H82883   2.039   3.470   0.910  0.1814 -0.9882  0.1175
  614MOL0     H82884   1.939   3.585   1.102  2.6885 -0.6288 -1.1458
  614MOL0     H82885   1.825   3.476   1.022  0.3593  2.4015 -1.2850
  614MOL0     H82886   1.865   3.346   1.420  2.0083  0.0157 -1.2140
  614MOL0     H82887   2.447   3.524   0.944 -3.2963  3.2795  0.3910
  614MOL0     H82888   2.689   3.633   0.736 -0.6625 -0.0279 -1.2357
  614MOL0     H82889   2.573   3.747   0.822  0.0945  0.1219 -0.0692
  614MOL0     H82890   2.631   3.608   0.903  0.6572 -3.2904 -1.0506
  615MOL0     O82891   0.678   3.344   9.610  0.9337  0.6043 -0.4434
  615MOL0     C82892   0.655   3.366   9.728  0.0283  0.4382 -0.0127
  615MOL0     O82893   0.674   3.479   9.790  0.4565  0.2341 -0.0293
  615MOL0     C82894   0.710   3.596   9.726  0.6110  0.0766  1.0472
  615MOL0     C82895   0.827   3.658   9.778 -0.0184 -0.3676 -0.5693
  615MOL0     C82896   0.870   3.772   9.714 -0.0743  0.1810 -0.8028
  615MOL0     C82897   0.799   3.830   9.613 -0.0554 -0.4003  0.3855
  615MOL0     O82898   0.846   3.958   9.570  0.1799 -0.0228  0.3110
  615MOL0     C82899   0.749   4.058   9.527  0.3795 -0.2735 -0.1016
  615MOL0     C82900   0.807   4.201   9.521 -0.2413  0.0453  0.7305
  615MOL0     C82901   0.953   4.230   9.484  0.0146 -0.0877  0.7564
  615MOL0     C82902   1.016   4.175   9.356  0.6123 -0.0060 -0.2295
  615MOL0     C82903   1.158   4.211   9.344 -0.0586 -0.4134 -0.9516
  615MOL0     C82904   1.221   4.144   9.220 -0.0791  0.1871 -0.6341
  615MOL0     C82905   1.375   4.172   9.207  0.3614  0.0472 -0.1071
  615MOL0     C82906   1.409   4.320   9.221 -0.0898  1.0112 -0.3678
  615MOL0     N82907   1.551   4.339   9.178 -0.3405 -0.2207 -0.1965
  615MOL0     C82908   1.656   4.335   9.268  0.1956 -1.1464  0.6088
  615MOL0     C82909   1.758   4.360   9.186  0.0260 -1.2051 -0.1787
  615MOL0     C82910   1.904   4.380   9.221 -0.3561  0.2776  0.3183
  615MOL0     C82911   1.969   4.239   9.200 -0.3541  0.1890  0.3601
  615MOL0     C82912   2.127   4.249   9.223  0.5230 -0.8157  0.2013
  615MOL0     C82913   2.184   4.119   9.166  0.6132  1.0191  0.2178
  615MOL0     O82914   2.309   4.088   9.236 -0.1313 -0.1159 -0.6682
  615MOL0     C82915   2.413   4.174   9.220 -0.4288  0.0276 -0.7407
  615MOL0     C82916   2.428   4.257   9.111  0.1339  0.9030  0.5180
  615MOL0     C82917   2.535   4.343   9.104  0.2226 -0.2070  0.5675
  615MOL0     C82918   2.632   4.364   9.207 -0.2371  0.6963  0.2539
  615MOL0     C82919   2.754   4.444   9.203 -0.0122  0.2756 -0.6879
  615MOL0     O82920   2.788   4.490   9.086 -0.4944  0.6649 -0.4736
  615MOL0     C82921   2.887   4.575   9.066 -0.2384  0.1428 -0.4756
  615MOL0     C82922   3.013   4.572   9.127 -0.1842  0.6912  0.6630
  615MOL0     C82923   3.116   4.665   9.104 -0.6402 -0.1882 -0.0783
  615MOL0     C82924   3.094   4.779   9.022 -0.1103  0.9738 -0.0579
  615MOL0     O82925   3.186   4.881   9.024  0.3479  0.3899  0.3871
  615MOL0     C82926   3.190   4.974   8.915  0.1330 -0.2246 -0.5010
  615MOL0     C82927   3.311   5.069   8.925 -0.0788 -0.3425  0.2696
  615MOL0     C82928   3.438   4.998   8.873  1.4828 -0.0026  1.0837
  615MOL0     C82929   3.551   5.091   8.851 -0.4427 -0.2955 -0.1372
  615MOL0     C82930   3.681   5.019   8.800  0.2065  0.2994 -0.4784
  615MOL0     C82931   3.811   5.096   8.819 -0.1277 -0.4333  0.4139
  615MOL0     C82932   3.938   5.027   8.773 -0.2820  0.2878  0.0729
  615MOL0     C82933   4.057   5.126   8.785 -0.0742  0.5264  0.6856
  615MOL0    Cl82934   4.124   5.127   8.942 -0.3950  0.0440 -0.0388
  615MOL0     C82935   2.970   4.775   8.949 -0.9353  0.3653  0.3634
  615MOL0     C82936   2.866   4.677   8.969 -0.0365  0.1620 -0.1056
  615MOL0     O82937   2.803   4.473   9.310 -0.2425  0.1507 -0.1289
  615MOL0     C82938   2.605   4.292   9.327  0.3202 -0.9780  0.3925
  615MOL0     C82939   2.502   4.199   9.326 -0.1326  0.8488 -0.3016
  615MOL0     N82940   1.713   4.375   9.051 -0.0806 -0.1390  0.2174
  615MOL0     N82941   1.583   4.371   9.050 -0.1420 -0.3350  0.6980
  615MOL0     C82942   0.676   3.772   9.566  0.2133 -0.7672  0.1242
  615MOL0     C82943   0.634   3.657   9.626 -0.2574 -0.3130 -0.7034
  615MOL0     C82944   0.624   3.249   9.806  0.9213 -0.2446  0.3833
  615MOL0     C82945   0.509   3.262   9.886  0.3032 -0.6156  0.2141
  615MOL0     C82946   0.445   3.155   9.942  1.4257 -0.2210 -0.4689
  615MOL0     C82947   0.501   3.027   9.922  0.8390  0.5914 -0.1537
  615MOL0     O82948   0.461   2.911   9.983 -0.0679  0.3513 -0.4235
  615MOL0     C82949   0.333   2.903  10.052  0.1337  0.0600 -0.2054
  615MOL0     C82950   0.340   2.928  10.206  0.2538  0.0635  0.1293
  615MOL0     C82951   0.411   2.818  10.288  0.1171 -0.3608 -0.3740
  615MOL0     C82952   0.393   2.817  10.437 -0.3553 -0.5016 -0.2352
  615MOL0     C82953   0.459   2.925  10.506  0.3717 -0.1875 -0.4247
  615MOL0     C82954   0.517   3.012  10.568  0.2535  0.7229  0.2933
  615MOL0     C82955   0.613   3.012   9.839  0.4125  0.2316 -0.4525
  615MOL0     C82956   0.678   3.120   9.790  0.0119  0.6139 -0.2111
  615MOL0     C82957   0.815   3.091   9.713  0.0054 -0.3993 -0.5136
  615MOL0     H82958   0.887   3.629   9.863 -0.0145 -2.6345 -1.2984
  615MOL0     H82959   0.956   3.816   9.764 -2.4352  2.2640  1.7483
  615MOL0     H82960   0.707   4.041   9.427 -3.0704  2.9164  0.5837
  615MOL0     H82961   0.664   4.070   9.595 -0.4492  1.8114 -1.3923
  615MOL0     H82962   0.780   4.241   9.619 -2.6402  0.4950 -0.0561
  615MOL0     H82963   0.748   4.253   9.446 -1.3023 -2.2834 -0.1557
  615MOL0     H82964   1.011   4.196   9.570  2.4218 -1.0251 -1.0947
  615MOL0     H82965   0.959   4.339   9.483 -0.5950 -0.0384  1.5022
  615MOL0     H82966   1.019   4.066   9.361  3.6008  0.0175  2.0817
  615MOL0     H82967   0.959   4.197   9.266 -2.1073 -0.3253  1.3197
  615MOL0     H82968   1.155   4.320   9.336  1.2626 -0.2125  0.6609
  615MOL0     H82969   1.216   4.182   9.432 -1.3893  1.9580  0.8077
  615MOL0     H82970   1.197   4.037   9.227 -1.7193  0.6025  3.4459
  615MOL0     H82971   1.172   4.183   9.131 -1.1199  0.0141 -0.1601
  615MOL0     H82972   1.403   4.135   9.108 -1.7334  0.3422 -0.8719
  615MOL0     H82973   1.432   4.104   9.270  1.9582  2.3883  1.0993
  615MOL0     H82974   1.343   4.379   9.157 -1.8993 -2.1019 -1.5993
  615MOL0     H82975   1.390   4.360   9.321  0.2709  3.4291 -1.2043
  615MOL0     H82976   1.670   4.320   9.375  0.1164  1.6563  1.1052
  615MOL0     H82977   1.948   4.459   9.160  1.2275 -0.8921 -0.1281
  615MOL0     H82978   1.905   4.405   9.328 -0.0280  0.1386  0.3500
  615MOL0     H82979   1.933   4.171   9.277  1.1838 -0.5334  0.4773
  615MOL0     H82980   1.957   4.201   9.098  1.4761 -0.0137  0.1854
  615MOL0     H82981   2.146   4.257   9.330  0.0005  1.2823  0.1819
  615MOL0     H82982   2.184   4.321   9.162 -0.9690  0.7048  0.5243
  615MOL0     H82983   2.195   4.113   9.057  1.5714 -2.9687  0.3925
  615MOL0     H82984   2.109   4.045   9.195 -0.0404  1.3124 -0.6391
  615MOL0     H82985   2.355   4.256   9.030 -3.1791  2.5109  3.2365
  615MOL0     H82986   2.550   4.402   9.014 -1.1613 -0.3513  0.2118
  615MOL0     H82987   3.021   4.479   9.183 -1.1968 -1.5789 -2.6483
  615MOL0     H82988   3.212   4.662   9.154  0.1111  1.0700 -1.3879
  615MOL0     H82989   3.189   4.916   8.823  0.1135  0.8314 -1.1805
  615MOL0     H82990   3.098   5.030   8.930 -0.0053 -0.4569 -0.4843
  615MOL0     H82991   3.278   5.159   8.873 -3.9347  0.8870  4.2974
  615MOL0     H82992   3.329   5.108   9.025  2.4894  1.7335 -0.8793
  615MOL0     H82993   3.468   4.924   8.947  2.9570  0.5385  1.0605
  615MOL0     H82994   3.421   4.955   8.774  2.8563 -0.1933  0.9141
  615MOL0     H82995   3.583   5.142   8.943  0.6880 -0.4068 -0.4459
  615MOL0     H82996   3.522   5.159   8.770 -2.1557 -0.5225  0.2582
  615MOL0     H82997   3.655   4.996   8.696  2.8308  4.1266 -2.2009
  615MOL0     H82998   3.705   4.922   8.845  2.9800  1.6270  1.1448
  615MOL0     H82999   3.803   5.193   8.769  3.5781 -0.6848 -0.9767
  615MOL0     H83000   3.827   5.115   8.926 -1.4621  4.8836 -0.0588
  615MOL0     H83001   3.927   5.015   8.664 -0.9833  1.3312  0.0159
  615MOL0     H83002   3.966   4.936   8.827 -0.2363  1.6157  2.3888
  615MOL0     H83003   4.138   5.095   8.719 -1.7213  1.0097 -1.7072
  615MOL0     H83004   4.027   5.227   8.756  4.1998  1.8204  0.0385
  615MOL0     H83005   2.946   4.849   8.874 -0.3866 -0.4033 -0.5961
  615MOL0     H83006   2.776   4.698   8.912 -0.0538  1.5020  0.3731
  615MOL0     H83007   2.655   4.306   9.423  0.6182  3.7995 -0.1920
  615MOL0     H83008   2.484   4.150   9.421 -0.5364  1.1220 -0.2326
  615MOL0     H83009   0.620   3.835   9.498  2.6582  0.3553 -0.9837
  615MOL0     H83010   0.536   3.617   9.603 -1.2711  1.2020  0.7140
  615MOL0     H83011   0.461   3.359   9.882  0.4525 -0.5112  0.8071
  615MOL0     H83012   0.357   3.169  10.004  1.8975  0.7618 -0.0047
  615MOL0     H83013   0.295   2.801  10.036 -0.7961  0.2148  0.8908
  615MOL0     H83014   0.268   2.971   9.996 -2.2141 -0.3564  1.8298
  615MOL0     H83015   0.236   2.937  10.240  0.0263  0.4135 -0.6323
  615MOL0     H83016   0.390   3.025  10.221  2.0872 -0.6621 -0.9694
  615MOL0     H83017   0.517   2.821  10.261  0.0353 -1.4968 -0.8718
  615MOL0     H83018   0.385   2.717  10.255 -0.1664 -1.1887  2.1801
  615MOL0     H83019   0.285   2.813  10.459 -0.4287 -0.6296 -0.6069
  615MOL0     H83020   0.443   2.728  10.475  2.5368  1.8003  1.7744
  615MOL0     H83021   0.568   3.089  10.624  0.2039  3.8542 -3.5609
  615MOL0     H83022   0.656   2.915   9.816  0.3134  0.2762 -0.8433
  615MOL0     H83023   0.864   3.003   9.755  1.2090  0.5702  0.1822
  615MOL0     H83024   0.797   3.073   9.607 -2.4786  0.6334 -0.3427
  615MOL0     H83025   0.890   3.170   9.726 -1.8049  1.5884 -1.5684
  616MOL0     O83026   4.970   4.964   3.777 -0.4064  0.5306 -0.2437
  616MOL0     C83027   4.924   5.072   3.799 -0.1226 -0.0287  0.0719
  616MOL0     O83028   4.999   5.182   3.829 -0.3378 -0.2138  0.2989
  616MOL0     C83029   5.136   5.169   3.842 -0.5127 -0.2005  0.0157
  616MOL0     C83030   5.222   5.247   3.762  0.5052 -0.5518 -0.0244
  616MOL0     C83031   5.364   5.244   3.794 -0.0538  0.1299  0.0914
  616MOL0     C83032   5.419   5.151   3.880  0.6819 -0.1518 -0.0790
  616MOL0     O83033   5.557   5.142   3.894 -0.3984 -0.3721  0.7275
  616MOL0     C83034   5.620   5.064   3.793  0.1401 -0.6534  0.8503
  616MOL0     C83035   5.713   4.952   3.846 -0.7973  0.1017  0.3172
  616MOL0     C83036   5.821   4.984   3.950 -0.1101  0.1453  0.1207
  616MOL0     C83037   5.927   5.085   3.901 -0.4770  0.3929 -0.2153
  616MOL0     C83038   5.904   5.224   3.953 -0.5333  0.2236  0.7268
  616MOL0     C83039   6.012   5.323   3.894 -0.7635 -0.9146  0.1333
  616MOL0     C83040   6.149   5.307   3.969  0.5407  0.0658 -1.5345
  616MOL0     C83041   6.251   5.256   3.868 -0.6382 -0.0299 -0.0403
  616MOL0     N83042   6.387   5.254   3.926 -0.7541  0.1818  0.3445
  616MOL0     C83043   6.446   5.143   3.999  0.6592  0.1698 -0.4690
  616MOL0     C83044   6.577   5.170   4.018  0.0466 -0.7294 -0.2550
  616MOL0     C83045   6.690   5.096   4.079 -0.1155 -0.4363  0.7017
  616MOL0     C83046   6.810   5.184   4.131  0.2321  0.3130 -0.4830
  616MOL0     C83047   6.920   5.090   4.198 -0.1221  0.4001 -0.2756
  616MOL0     C83048   7.040   5.176   4.240  0.1971  0.5478 -0.0453
  616MOL0     O83049   7.009   5.245   4.362  0.1185  0.2557  0.1111
  616MOL0     C83050   7.107   5.322   4.416  0.9568  0.3962 -0.5141
  616MOL0     C83051   7.077   5.375   4.538 -0.1057 -0.1262  0.1301
  616MOL0     C83052   7.172   5.448   4.617  0.0961 -0.8668 -0.3786
  616MOL0     C83053   7.305   5.455   4.564  1.1792 -1.1917  0.4603
  616MOL0     C83054   7.405   5.510   4.653  0.0505 -0.1654  0.0905
  616MOL0     O83055   7.540   5.512   4.590  0.4616 -0.3200 -0.0740
  616MOL0     C83056   7.635   5.576   4.664 -0.2635 -0.6750 -0.0178
  616MOL0     C83057   7.762   5.522   4.667  0.4441  0.1865 -0.3553
  616MOL0     C83058   7.860   5.574   4.755  0.1669 -0.1263 -0.1915
  616MOL0     C83059   7.845   5.705   4.811 -0.4778 -0.8183 -0.1826
  616MOL0     O83060   7.951   5.753   4.880 -0.2238 -0.5491  0.8125
  616MOL0     C83061   7.940   5.895   4.911  0.2804  0.1162  0.4373
  616MOL0     C83062   8.064   5.955   4.975  0.6904 -0.5071 -0.1046
  616MOL0     C83063   8.180   5.997   4.892 -0.3255 -0.2481  0.5657
  616MOL0     C83064   8.233   5.886   4.805 -0.1817  0.3240 -0.4270
  616MOL0     C83065   8.342   5.948   4.720 -0.3327  0.0443  1.0176
  616MOL0     C83066   8.387   5.846   4.610 -0.0124  0.4285  0.3253
  616MOL0     C83067   8.499   5.904   4.526 -0.0317  0.4118  0.4552
  616MOL0     C83068   8.578   5.804   4.444 -0.5172  0.1126 -0.1665
  616MOL0    Cl83069   8.631   5.661   4.556 -0.1186  0.1633 -0.5688
  616MOL0     C83070   7.719   5.770   4.800  0.3468  0.3368 -0.1567
  616MOL0     C83071   7.628   5.708   4.717  0.2882  0.0102 -1.4273
  616MOL0     O83072   7.369   5.573   4.752  0.1628 -0.4620 -0.2129
  616MOL0     C83073   7.332   5.404   4.439 -0.1024  0.3297 -0.0740
  616MOL0     C83074   7.237   5.342   4.364  0.8788  0.0153 -0.1975
  616MOL0     N83075   6.585   5.301   3.970  0.3267 -1.0477  0.2966
  616MOL0     N83076   6.490   5.339   3.911 -0.8868 -0.0753 -0.1022
  616MOL0     C83077   5.330   5.078   3.955  0.2556  0.1549  0.3063
  616MOL0     C83078   5.192   5.089   3.949 -0.1691  0.3901 -0.2694
  616MOL0     C83079   4.776   5.091   3.803 -0.2648 -0.1525 -0.4378
  616MOL0     C83080   4.730   5.225   3.829 -0.1899  0.1866 -0.2534
  616MOL0     C83081   4.590   5.259   3.830 -0.6739 -0.0624  0.5176
  616MOL0     C83082   4.495   5.160   3.814  0.3673 -0.2669  0.3785
  616MOL0     O83083   4.357   5.187   3.840  0.1924 -0.4729 -0.1813
  616MOL0     C83084   4.331   5.218   3.978  0.0751  0.1221  0.0590
  616MOL0     C83085   4.199   5.289   4.008 -0.3962 -0.3287  0.0353
  616MOL0     C83086   4.070   5.189   4.014  0.5882  0.2337  0.3192
  616MOL0     C83087   3.955   5.263   4.095 -0.5984 -0.5779 -0.5703
  616MOL0     C83088   3.832   5.197   4.063  0.5211 -0.0654  0.2366
  616MOL0     C83089   3.731   5.134   4.030 -0.6095 -0.0306 -0.4714
  616MOL0     C83090   4.542   5.024   3.812  0.9271 -0.2870  0.6385
  616MOL0     C83091   4.676   4.987   3.786  0.2856  0.5663 -0.3806
  616MOL0     C83092   4.713   4.840   3.761 -1.0044  1.0633  0.3474
  616MOL0     H83093   5.184   5.314   3.686 -0.2070 -0.8156  0.0967
  616MOL0     H83094   5.424   5.306   3.728  0.1139  0.4055  0.4894
  616MOL0     H83095   5.549   5.017   3.725  2.5991 -1.1849 -1.5474
  616MOL0     H83096   5.689   5.129   3.737  0.7263 -0.7739  1.4239
  616MOL0     H83097   5.765   4.908   3.761 -2.0611  1.0904 -1.0144
  616MOL0     H83098   5.654   4.874   3.896  2.2142 -1.8894  0.9807
  616MOL0     H83099   5.868   4.887   3.968  0.0645  0.5526  2.1588
  616MOL0     H83100   5.768   5.014   4.041  0.1741 -1.8075  0.9934
  616MOL0     H83101   6.026   5.050   3.932 -1.1244 -0.2583  1.2311
  616MOL0     H83102   5.928   5.077   3.792  2.3787  1.7114 -0.3569
  616MOL0     H83103   5.805   5.260   3.923 -0.3385  0.5654  0.4928
  616MOL0     H83104   5.900   5.226   4.062  1.6570 -1.4549  0.8967
  616MOL0     H83105   6.011   5.298   3.787 -1.0016 -1.9254  0.3587
  616MOL0     H83106   5.979   5.427   3.900  3.4595  0.7286 -1.7386
  616MOL0     H83107   6.145   5.249   4.062  1.3342  2.6062  0.1875
  616MOL0     H83108   6.185   5.406   3.999 -0.0333  0.5286 -2.3444
  616MOL0     H83109   6.213   5.155   3.850 -2.2275  0.5047  0.0960
  616MOL0     H83110   6.256   5.311   3.774  1.9572 -1.6052 -0.9445
  616MOL0     H83111   6.399   5.052   4.035  4.7561 -1.1753  2.1462
  616MOL0     H83112   6.643   5.032   4.154 -0.8021 -2.0787 -1.0356
  616MOL0     H83113   6.738   5.039   3.999 -1.1058  1.5197 -1.4312
  616MOL0     H83114   6.854   5.241   4.049  2.1619 -0.0381  0.2425
  616MOL0     H83115   6.762   5.252   4.203  2.2437  0.0600  1.1889
  616MOL0     H83116   6.947   5.015   4.124  0.4980 -1.7076  1.9442
  616MOL0     H83117   6.887   5.047   4.293  2.9845  1.5057  1.4509
  616MOL0     H83118   7.063   5.249   4.161  1.6987 -1.1988 -1.3205
  616MOL0     H83119   7.124   5.108   4.260  0.6757  1.1301 -0.0512
  616MOL0     H83120   6.980   5.363   4.585  0.4005  0.3385  1.3314
  616MOL0     H83121   7.142   5.485   4.714  0.5644 -1.0440 -0.1643
  616MOL0     H83122   7.776   5.423   4.623  0.6156 -1.2338  2.6710
  616MOL0     H83123   7.938   5.506   4.786 -1.0042 -1.5055 -0.1559
  616MOL0     H83124   7.919   5.956   4.823 -0.9534  2.5327  2.2796
  616MOL0     H83125   7.859   5.911   4.983  0.4659 -0.7816  0.8665
  616MOL0     H83126   8.032   6.049   5.022 -1.1082  0.0188 -2.2003
  616MOL0     H83127   8.105   5.887   5.050  0.8086  0.7829  1.0385
  616MOL0     H83128   8.140   6.076   4.827  0.9637 -1.2265 -1.5189
  616MOL0     H83129   8.262   6.044   4.947  1.2901 -1.6955 -0.5097
  616MOL0     H83130   8.156   5.855   4.733  1.0507 -1.2751 -1.1228
  616MOL0     H83131   8.260   5.796   4.860 -1.3876  0.8182  1.0660
  616MOL0     H83132   8.423   5.983   4.784  0.8823  4.1711 -2.3335
  616MOL0     H83133   8.309   6.044   4.681  1.5816  1.0400  1.7228
  616MOL0     H83134   8.426   5.749   4.643 -2.4364 -1.3652 -1.6568
  616MOL0     H83135   8.302   5.830   4.542 -0.2203  0.7018  0.5188
  616MOL0     H83136   8.572   5.947   4.595 -1.3172  0.6728  1.7085
  616MOL0     H83137   8.459   5.988   4.469  0.7478  0.6389  0.2300
  616MOL0     H83138   8.520   5.770   4.358  0.5835  2.8855 -2.1563
  616MOL0     H83139   8.665   5.853   4.399  0.0990 -0.9064 -0.1069
  616MOL0     H83140   7.698   5.864   4.849  1.4165  1.9296 -2.5485
  616MOL0     H83141   7.537   5.766   4.703 -0.6836 -0.3506  2.2423
  616MOL0     H83142   7.431   5.405   4.393 -1.5497 -2.6424 -3.6895
  616MOL0     H83143   7.258   5.297   4.267  0.2367 -0.0845 -0.2964
  616MOL0     H83144   5.365   5.014   4.035 -1.8466 -2.7560 -0.9581
  616MOL0     H83145   5.125   5.047   4.023  0.6168  0.0251  0.2470
  616MOL0     H83146   4.804   5.305   3.835  1.7706 -1.6216  0.8982
  616MOL0     H83147   4.546   5.358   3.829  0.2977  0.3814 -0.1348
  616MOL0     H83148   4.411   5.286   4.010 -0.0313  0.4134 -0.2964
  616MOL0     H83149   4.337   5.128   4.040  0.7800 -0.5042 -0.8737
  616MOL0     H83150   4.184   5.366   3.931 -2.3373 -0.3206  0.3690
  616MOL0     H83151   4.216   5.336   4.105  0.4528 -1.4633  0.4589
  616MOL0     H83152   4.093   5.093   4.060 -0.7760 -0.6585 -0.7887
  616MOL0     H83153   4.037   5.166   3.913 -2.3133  1.8992  0.7714
  616MOL0     H83154   3.979   5.268   4.201  1.4675  3.6333 -1.0158
  616MOL0     H83155   3.956   5.368   4.061  0.2272 -0.6175 -0.6957
  616MOL0     H83156   3.639   5.081   4.019  0.4909 -2.8248  2.2343
  616MOL0     H83157   4.460   4.955   3.830 -0.8883  2.1634  2.5112
  616MOL0     H83158   4.629   4.788   3.714 -3.2269 -1.0459  5.8071
  616MOL0     H83159   4.794   4.831   3.689  0.9190 -1.2085  2.6027
  616MOL0     H83160   4.750   4.792   3.852 -0.3317 -0.2923 -0.6115
  617MOL0     O83161   3.296   8.265   5.609  0.2975  0.0642  0.2911
  617MOL0     C83162   3.345   8.304   5.707  0.0636 -0.4184  0.2422
  617MOL0     O83163   3.302   8.273   5.828  0.0218 -0.5090 -0.5228
  617MOL0     C83164   3.195   8.195   5.851  0.4772  0.0025 -0.8461
  617MOL0     C83165   3.178   8.159   5.984 -0.0545  0.1943 -0.0736
  617MOL0     C83166   3.074   8.085   6.033  0.3601 -0.3604  0.2664
  617MOL0     C83167   2.966   8.054   5.951 -0.2866 -0.4112 -1.1461
  617MOL0     O83168   2.870   7.970   6.002 -0.3771 -0.5241  0.0931
  617MOL0     C83169   2.904   7.833   6.011 -0.0307 -0.3560  0.1364
  617MOL0     C83170   2.785   7.752   6.067  0.1343  0.0087 -0.0184
  617MOL0     C83171   2.659   7.767   5.972 -0.0591  0.3084 -0.6296
  617MOL0     C83172   2.533   7.701   6.019 -0.6204  0.0243 -0.2064
  617MOL0     C83173   2.412   7.755   5.934 -0.2509 -0.4743 -0.2136
  617MOL0     C83174   2.284   7.673   5.961  0.0959  0.5195 -0.1651
  617MOL0     C83175   2.164   7.681   5.858 -0.6474  0.3783 -0.8899
  617MOL0     C83176   2.128   7.822   5.830 -0.5610 -0.9638  0.8230
  617MOL0     N83177   2.014   7.852   5.748 -0.3869 -0.6237  0.1080
  617MOL0     C83178   1.901   7.775   5.749  0.7503  0.4000 -0.2677
  617MOL0     C83179   1.823   7.823   5.646  0.6957 -0.2624 -0.3858
  617MOL0     C83180   1.687   7.767   5.613  0.8330  0.7611  0.8499
  617MOL0     C83181   1.580   7.787   5.719 -0.0346  0.5311  0.1225
  617MOL0     C83182   1.563   7.938   5.762 -0.0663  0.2761  0.2594
  617MOL0     C83183   1.449   7.963   5.859  0.3169 -0.3020 -0.4490
  617MOL0     O83184   1.487   7.917   5.986 -0.2255 -0.3697  0.3001
  617MOL0     C83185   1.401   7.845   6.068 -1.0779 -0.1242 -0.0586
  617MOL0     C83186   1.453   7.780   6.174 -0.4945 -0.2992 -0.3273
  617MOL0     C83187   1.383   7.703   6.265  0.2770  0.7642 -0.2878
  617MOL0     C83188   1.253   7.666   6.228 -0.6377 -0.5653 -0.0040
  617MOL0     C83189   1.176   7.589   6.318 -0.0931  1.0406  0.6020
  617MOL0     O83190   1.234   7.578   6.436 -0.0479  0.4870  0.6304
  617MOL0     C83191   1.170   7.554   6.552 -0.1178  0.3741 -0.4956
  617MOL0     C83192   1.234   7.488   6.661  0.0895  0.3307  0.4442
  617MOL0     C83193   1.166   7.454   6.775 -0.6221  0.2902 -0.1484
  617MOL0     C83194   1.031   7.497   6.791 -0.1903  0.6377 -1.0553
  617MOL0     O83195   0.970   7.447   6.901  0.9512  0.4018  0.2302
  617MOL0     C83196   0.830   7.401   6.889  0.0521 -0.6950  0.3296
  617MOL0     C83197   0.748   7.496   6.968 -0.3950 -0.3301  0.2221
  617MOL0     C83198   0.599   7.468   6.973 -0.9627  0.9763 -1.1327
  617MOL0     C83199   0.517   7.585   7.037 -0.4398 -0.3423 -0.4151
  617MOL0     C83200   0.364   7.569   7.035  0.2894 -0.3621 -0.4560
  617MOL0     C83201   0.317   7.463   7.141 -0.5666  0.6592 -0.0356
  617MOL0     C83202   0.191   7.402   7.089  0.1370  0.7298  0.0015
  617MOL0     C83203   0.120   7.299   7.184 -0.4570 -0.3126  0.8480
  617MOL0    Cl83204   0.026   7.373   7.313  0.6444 -0.0831  0.4992
  617MOL0     C83205   0.971   7.565   6.684  0.3694  0.0783 -0.6595
  617MOL0     C83206   1.038   7.590   6.562 -0.8833 -1.0594 -0.3367
  617MOL0     O83207   1.063   7.548   6.279 -0.1197 -0.3221 -0.7293
  617MOL0     C83208   1.198   7.717   6.109  0.0924  0.0643  0.6299
  617MOL0     C83209   1.273   7.806   6.030 -0.5167 -0.3723 -0.1478
  617MOL0     N83210   1.881   7.940   5.599 -0.7837 -0.2836 -0.0546
  617MOL0     N83211   1.997   7.952   5.654  1.2332 -0.3863 -0.2834
  617MOL0     C83212   2.974   8.096   5.811 -0.4224 -1.3012 -0.0221
  617MOL0     C83213   3.095   8.150   5.763  0.2604 -0.2575  0.2188
  617MOL0     C83214   3.477   8.368   5.694  0.6332 -0.4130  0.2726
  617MOL0     C83215   3.540   8.369   5.567  0.7333  0.6795 -1.2094
  617MOL0     C83216   3.667   8.423   5.546 -0.1502 -0.2033  0.8031
  617MOL0     C83217   3.738   8.490   5.646  0.6319 -0.2556 -0.0903
  617MOL0     O83218   3.862   8.552   5.634  0.6676 -0.5980 -0.1089
  617MOL0     C83219   3.916   8.566   5.504 -0.5118 -0.3991  0.1893
  617MOL0     C83220   4.006   8.449   5.457 -0.2247  0.0899  0.9640
  617MOL0     C83221   4.040   8.475   5.313  1.2195 -0.9596  0.6965
  617MOL0     C83222   4.145   8.376   5.259  0.2165 -0.8334 -1.0009
  617MOL0     C83223   4.179   8.401   5.120  0.1733 -0.1745  0.0661
  617MOL0     C83224   4.194   8.392   4.999  0.3073 -1.9500 -1.1700
  617MOL0     C83225   3.673   8.496   5.778  0.4113  0.2185  0.6457
  617MOL0     C83226   3.544   8.437   5.800 -0.1610 -0.0684  0.1499
  617MOL0     C83227   3.480   8.466   5.942 -0.5847 -0.2430  1.0379
  617MOL0     H83228   3.254   8.185   6.057  0.6931 -1.5177 -0.1804
  617MOL0     H83229   3.075   8.043   6.133 -0.2111 -1.0155  0.0043
  617MOL0     H83230   2.947   7.807   5.913 -1.1700  3.7394 -1.6260
  617MOL0     H83231   2.984   7.831   6.086  0.7261 -0.7671 -0.6529
  617MOL0     H83232   2.761   7.785   6.169  0.3307 -2.4777  0.8796
  617MOL0     H83233   2.813   7.647   6.075  1.9749  0.1811 -2.9055
  617MOL0     H83234   2.683   7.731   5.872 -1.5068 -2.1420 -0.1868
  617MOL0     H83235   2.644   7.875   5.981  0.8557  0.3538  0.7169
  617MOL0     H83236   2.549   7.595   5.998 -0.0695 -0.3083  1.6750
  617MOL0     H83237   2.526   7.710   6.128 -0.6158 -0.5559 -0.1558
  617MOL0     H83238   2.388   7.849   5.985 -2.4982 -1.0836 -0.0623
  617MOL0     H83239   2.429   7.754   5.826 -0.7166 -3.7321 -0.3465
  617MOL0     H83240   2.318   7.569   5.965  1.9358  1.0661 -0.6691
  617MOL0     H83241   2.244   7.692   6.061  1.1291  0.4623  0.2700
  617MOL0     H83242   2.082   7.627   5.905  0.4418 -0.0324  0.6026
  617MOL0     H83243   2.200   7.627   5.769 -1.6540  0.3438 -1.2905
  617MOL0     H83244   2.125   7.870   5.929  2.4501  0.6857  0.2558
  617MOL0     H83245   2.216   7.865   5.781 -1.0210  0.0642  0.8603
  617MOL0     H83246   1.874   7.692   5.813  2.3407 -0.4471 -0.6438
  617MOL0     H83247   1.639   7.808   5.523 -0.6819  1.7069  2.0287
  617MOL0     H83248   1.693   7.659   5.603  1.5962  0.5431  3.2784
  617MOL0     H83249   1.487   7.741   5.685  1.7501 -2.6985 -0.8177
  617MOL0     H83250   1.614   7.724   5.802  1.3706  1.7762  0.5354
  617MOL0     H83251   1.544   7.999   5.674  1.1752 -0.9291 -0.9012
  617MOL0     H83252   1.654   7.980   5.806  0.1018 -0.0688  0.2475
  617MOL0     H83253   1.360   7.917   5.815 -1.3613  0.8654  1.5421
  617MOL0     H83254   1.428   8.069   5.875  0.9518 -0.0682 -1.1337
  617MOL0     H83255   1.557   7.804   6.198 -0.5683  0.1733 -0.4742
  617MOL0     H83256   1.426   7.674   6.361  0.5246 -1.2093 -0.9431
  617MOL0     H83257   1.335   7.449   6.654 -0.9814 -2.4289 -1.2245
  617MOL0     H83258   1.209   7.393   6.853  2.7881  0.5575 -1.6486
  617MOL0     H83259   0.799   7.422   6.786 -0.3386  3.8037  1.1539
  617MOL0     H83260   0.805   7.301   6.927 -0.8330  0.2040  2.2458
  617MOL0     H83261   0.781   7.490   7.072 -1.4942 -0.0290  0.6017
  617MOL0     H83262   0.769   7.595   6.927  2.0304 -0.8685  0.0207
  617MOL0     H83263   0.569   7.429   6.875 -1.7713  1.4539 -1.0901
  617MOL0     H83264   0.579   7.374   7.025 -3.0709 -0.1756 -3.7824
  617MOL0     H83265   0.557   7.678   6.994 -2.9630  1.0337  0.0081
  617MOL0     H83266   0.542   7.582   7.143 -2.0906 -0.2817 -0.0027
  617MOL0     H83267   0.350   7.534   6.932 -1.7584 -1.5683  0.1686
  617MOL0     H83268   0.313   7.664   7.055  0.3103 -0.5768  0.6525
  617MOL0     H83269   0.391   7.385   7.163 -1.4985 -0.0647  0.6475
  617MOL0     H83270   0.300   7.504   7.241  0.5633 -2.6027  1.6706
  617MOL0     H83271   0.214   7.335   7.005 -1.8946 -1.9360  1.4286
  617MOL0     H83272   0.118   7.478   7.062 -2.4606 -1.6698 -0.2015
  617MOL0     H83273   0.064   7.226   7.126  2.4194 -0.9626 -1.3722
  617MOL0     H83274   0.198   7.243   7.236  0.1411 -0.5739 -0.2798
  617MOL0     H83275   0.875   7.609   6.708  0.0024 -1.2336  0.4621
  617MOL0     H83276   0.983   7.653   6.493 -1.4424  0.2658  1.2375
  617MOL0     H83277   1.093   7.703   6.084  0.5902  2.5259 -4.0042
  617MOL0     H83278   1.222   7.843   5.942 -0.8005  0.3129  0.2959
  617MOL0     H83279   2.905   8.069   5.732  0.2707  0.5838 -1.3370
  617MOL0     H83280   3.096   8.174   5.657  2.3020 -0.3259  0.1809
  617MOL0     H83281   3.500   8.314   5.483 -4.1778  0.4808  0.9087
  617MOL0     H83282   3.705   8.418   5.445  1.8348  0.3413  1.4737
  617MOL0     H83283   3.976   8.658   5.508  0.9799 -1.3050 -0.3587
  617MOL0     H83284   3.838   8.591   5.431  2.3176  1.9190 -2.3150
  617MOL0     H83285   3.955   8.353   5.467  2.3296 -1.7733 -2.2370
  617MOL0     H83286   4.097   8.448   5.517 -0.0457 -1.3057  0.7006
  617MOL0     H83287   4.079   8.576   5.303 -2.3510  0.6515  1.6033
  617MOL0     H83288   3.940   8.469   5.271 -0.1447  0.7453  3.4143
  617MOL0     H83289   4.227   8.408   5.324 -3.3189  4.3249  1.6349
  617MOL0     H83290   4.112   8.273   5.275 -1.3058  0.0321  2.1268
  617MOL0     H83291   4.214   8.377   4.895  0.9159 -1.5948 -1.1145
  617MOL0     H83292   3.725   8.549   5.857  0.0791  0.5687  0.6302
  617MOL0     H83293   3.458   8.374   5.995 -0.1785  0.5362  2.6119
  617MOL0     H83294   3.547   8.525   6.005 -0.9580  1.6043 -0.1921
  617MOL0     H83295   3.383   8.517   5.938 -0.9134 -0.9035  0.1878
  618MOL0     O83296   0.314   3.507   9.673 -0.5596  0.4707 -1.2606
  618MOL0     C83297   0.243   3.428   9.611  0.5167 -0.6694  0.1459
  618MOL0     O83298   0.188   3.317   9.660  0.0908 -0.0383  0.1760
  618MOL0     C83299   0.140   3.317   9.791  0.5724  0.9472 -0.2575
  618MOL0     C83300   0.114   3.427   9.876  0.3358  0.8121  0.7005
  618MOL0     C83301   0.066   3.397  10.005  0.1121 -0.1741 -0.2368
  618MOL0     C83302   0.042   3.274  10.055 -0.7717 -0.3556  0.0147
  618MOL0     O83303  -0.031   3.264  10.169  0.5284 -0.5578 -1.0642
  618MOL0     C83304  -0.068   3.130  10.217  0.0973  0.0335 -0.8235
  618MOL0     C83305  -0.197   3.078  10.157 -1.1468  0.2068 -0.3479
  618MOL0     C83306  -0.249   2.968  10.254 -0.5260  0.9394 -0.7856
  618MOL0     C83307  -0.394   2.937  10.226 -0.4914  0.1661  0.4119
  618MOL0     C83308  -0.492   3.049  10.267  0.8779 -0.2301  0.0608
  618MOL0     C83309  -0.639   3.032  10.210 -0.3557 -0.7321 -0.2390
  618MOL0     C83310  -0.721   2.910  10.268 -1.3046  0.1606 -0.2655
  618MOL0     C83311  -0.758   2.918  10.422 -0.1227 -0.3631  0.2183
  618MOL0     N83312  -0.820   3.052  10.456 -0.1769  0.6734 -0.1417
  618MOL0     C83313  -0.952   3.079  10.411 -0.1201  0.4005 -0.3210
  618MOL0     C83314  -1.009   3.151  10.516  0.9400  0.5269  0.5751
  618MOL0     C83315  -1.151   3.212  10.522 -0.3779 -0.5699 -0.2106
  618MOL0     C83316  -1.260   3.152  10.430 -0.1016 -0.2632 -0.6385
  618MOL0     C83317  -1.315   3.030  10.478  0.4885  0.2467  1.0128
  618MOL0     C83318  -1.444   2.998  10.415  0.7785  0.1219  0.5133
  618MOL0     O83319  -1.550   3.098  10.421  0.1772 -0.1387  0.0585
  618MOL0     C83320  -1.651   3.093  10.324  0.4108 -0.2011 -0.2631
  618MOL0     C83321  -1.717   2.972  10.302  0.0096 -0.1379 -0.0384
  618MOL0     C83322  -1.815   2.962  10.200 -0.9606 -0.0576 -0.6631
  618MOL0     C83323  -1.849   3.083  10.131  1.2546 -0.0136 -0.5228
  618MOL0     C83324  -1.968   3.066  10.042 -0.1565  0.8593 -0.8562
  618MOL0     O83325  -2.040   2.946  10.062  0.3690 -0.5847 -0.8140
  618MOL0     C83326  -2.167   2.935  10.011 -0.0914 -1.1847 -0.0004
  618MOL0     C83327  -2.206   2.812   9.954 -0.6593 -0.5769 -0.7426
  618MOL0     C83328  -2.333   2.793   9.904 -0.0078 -0.9984  0.3380
  618MOL0     C83329  -2.432   2.901   9.912 -0.7417 -0.0432  0.4156
  618MOL0     O83330  -2.560   2.907   9.855 -0.1428  0.1833 -0.6230
  618MOL0     C83331  -2.576   2.806   9.757  0.1993  0.2207  0.6835
  618MOL0     C83332  -2.718   2.811   9.689  0.0198  0.6644  0.0600
  618MOL0     C83333  -2.826   2.727   9.773  0.3416  0.2248 -0.1250
  618MOL0     C83334  -2.962   2.729   9.709 -0.1097  0.0641  0.7464
  618MOL0     C83335  -2.971   2.628   9.596 -0.6375  0.0083 -0.7502
  618MOL0     C83336  -3.082   2.661   9.496  0.6130 -0.1346  0.1274
  618MOL0     C83337  -3.079   2.550   9.387 -0.1144 -0.4009  0.3433
  618MOL0     C83338  -3.150   2.597   9.268  0.8827  0.5867 -0.1024
  618MOL0    Cl83339  -3.144   2.471   9.144 -0.3624 -0.3015  0.0050
  618MOL0     C83340  -2.395   3.015   9.977 -0.9015 -0.7489 -0.2832
  618MOL0     C83341  -2.261   3.038  10.025  0.6202  0.0596 -0.6871
  618MOL0     O83342  -1.999   3.157   9.971  0.1037 -0.2810  0.0763
  618MOL0     C83343  -1.794   3.204  10.168 -0.0305  1.1711 -1.2506
  618MOL0     C83344  -1.691   3.202  10.257  0.2107  0.0760 -0.1195
  618MOL0     N83345  -0.920   3.164  10.619  0.2901 -0.1857 -0.6339
  618MOL0     N83346  -0.814   3.101  10.584 -0.2820 -0.2505 -0.8045
  618MOL0     C83347   0.064   3.167   9.971  0.1842  0.0019  0.5012
  618MOL0     C83348   0.113   3.189   9.846  0.5722  0.0192 -0.3981
  618MOL0     C83349   0.223   3.428   9.464 -0.9704 -0.7106  0.5701
  618MOL0     C83350   0.191   3.305   9.397  1.0138  0.5060  0.1074
  618MOL0     C83351   0.155   3.311   9.261  0.0858 -0.2771 -0.0289
  618MOL0     C83352   0.164   3.425   9.183 -0.4019 -0.3924 -0.7285
  618MOL0     O83353   0.141   3.442   9.051  0.1942 -0.1459 -0.8402
  618MOL0     C83354   0.119   3.333   8.971 -0.4032  0.3252 -0.1356
  618MOL0     C83355  -0.023   3.288   8.992  1.0299 -0.7330  0.5497
  618MOL0     C83356  -0.114   3.385   8.919  0.7093  0.2394  0.6699
  618MOL0     C83357  -0.253   3.337   8.963  0.3053  0.2793 -0.5406
  618MOL0     C83358  -0.368   3.398   8.902 -0.5357 -0.8986  0.1838
  618MOL0     C83359  -0.465   3.448   8.861 -0.4402  0.2988  0.1347
  618MOL0     C83360   0.196   3.541   9.242 -0.3093 -0.3212 -0.2962
  618MOL0     C83361   0.218   3.548   9.383 -1.0443  0.1631  0.0858
  618MOL0     C83362   0.237   3.687   9.434 -0.4818 -0.5361  0.2927
  618MOL0     H83363   0.110   3.529   9.839 -1.3922  0.2423 -0.9058
  618MOL0     H83364   0.053   3.477  10.077  1.0047  1.3820 -1.7383
  618MOL0     H83365   0.014   3.058  10.208  2.2506  2.2354 -0.0848
  618MOL0     H83366  -0.083   3.142  10.324 -0.6492 -1.0406 -0.7849
  618MOL0     H83367  -0.184   3.042  10.054  1.8337  1.2372 -0.4224
  618MOL0     H83368  -0.265   3.163  10.147 -0.8971  0.4770  0.2353
  618MOL0     H83369  -0.231   3.004  10.355  3.4029  4.2954 -2.4143
  618MOL0     H83370  -0.189   2.879  10.235 -5.0049 -2.2450 -1.8376
  618MOL0     H83371  -0.405   2.923  10.118 -1.7330  2.0681  0.2431
  618MOL0     H83372  -0.418   2.848  10.285 -0.9926  1.7110  2.6562
  618MOL0     H83373  -0.499   3.061  10.376  0.8770 -0.5832  0.0981
  618MOL0     H83374  -0.463   3.145  10.223 -1.4293  0.4349 -0.1684
  618MOL0     H83375  -0.696   3.118  10.245 -3.7809 -1.9383 -2.3194
  618MOL0     H83376  -0.661   3.022  10.103 -2.4554  0.3990  0.0313
  618MOL0     H83377  -0.654   2.824  10.261 -0.1868  0.9560  0.2410
  618MOL0     H83378  -0.815   2.884  10.220 -1.2968  1.5347 -1.0517
  618MOL0     H83379  -0.820   2.829  10.434 -3.0278  1.2866 -1.2494
  618MOL0     H83380  -0.668   2.901  10.481  0.8051 -0.9944 -1.3059
  618MOL0     H83381  -1.001   3.048  10.319  2.7727  0.5094 -2.0250
  618MOL0     H83382  -1.188   3.213  10.625  1.5612  2.7134  0.5915
  618MOL0     H83383  -1.145   3.320  10.508 -0.0410 -0.5714 -0.0820
  618MOL0     H83384  -1.347   3.219  10.431 -1.4275 -1.8926  1.1758
  618MOL0     H83385  -1.223   3.138  10.328  0.9276 -1.6542 -0.1139
  618MOL0     H83386  -1.332   3.034  10.586 -2.6260  0.1696  0.6133
  618MOL0     H83387  -1.255   2.943  10.450 -2.0267 -1.4304  0.5090
  618MOL0     H83388  -1.486   2.914  10.471 -1.1478 -0.2779 -1.4221
  618MOL0     H83389  -1.422   2.959  10.315 -1.4253  0.5336 -0.1884
  618MOL0     H83390  -1.696   2.888  10.368  0.4179  0.1409  0.1963
  618MOL0     H83391  -1.855   2.862  10.190  2.0544 -1.6343  1.3957
  618MOL0     H83392  -2.125   2.740   9.944  0.9337  0.5982  2.4179
  618MOL0     H83393  -2.368   2.700   9.860  0.2501  0.0001 -2.1755
  618MOL0     H83394  -2.507   2.829   9.676  1.3948  0.7657  1.8269
  618MOL0     H83395  -2.561   2.703   9.794  0.7323 -0.6140 -1.6812
  618MOL0     H83396  -2.757   2.913   9.680 -3.8605 -0.6865 -0.2641
  618MOL0     H83397  -2.719   2.757   9.593 -0.7015 -2.0205  1.4777
  618MOL0     H83398  -2.800   2.621   9.775  0.7781  0.3345  1.5941
  618MOL0     H83399  -2.818   2.766   9.875 -1.0469  0.8858 -0.2423
  618MOL0     H83400  -2.979   2.825   9.659  0.5206  0.1051  0.6019
  618MOL0     H83401  -3.044   2.702   9.775 -0.9208 -3.5227 -1.4449
  618MOL0     H83402  -2.982   2.528   9.641 -1.6826  0.4785  0.0949
  618MOL0     H83403  -2.872   2.616   9.550 -0.5858  3.7751 -1.9930
  618MOL0     H83404  -3.173   2.670   9.555  0.2013  0.2233 -0.5563
  618MOL0     H83405  -3.066   2.760   9.453  1.0228  0.6021  1.8858
  618MOL0     H83406  -3.123   2.454   9.417 -1.5810 -0.1090 -0.7521
  618MOL0     H83407  -2.973   2.533   9.366 -0.1756 -0.4067  0.0357
  618MOL0     H83408  -3.253   2.617   9.299  1.4349  0.3887  1.9779
  618MOL0     H83409  -3.100   2.689   9.236  2.1959 -0.3614 -0.9129
  618MOL0     H83410  -2.465   3.099   9.982 -0.7222 -0.5874 -0.4344
  618MOL0     H83411  -2.232   3.130  10.073  0.6157 -0.1589 -0.2639
  618MOL0     H83412  -1.845   3.296  10.139 -0.2355  1.2133 -0.7575
  618MOL0     H83413  -1.644   3.292  10.294 -1.0726  1.9073 -2.6988
  618MOL0     H83414   0.029   3.065   9.984  1.3491 -0.3457  0.9964
  618MOL0     H83415   0.117   3.111   9.770  0.6112 -0.0076 -0.3680
  618MOL0     H83416   0.184   3.210   9.448 -1.2248  0.0303 -0.9684
  618MOL0     H83417   0.135   3.220   9.206  3.0221  0.9657 -3.5767
  618MOL0     H83418   0.198   3.259   8.988  0.4759  1.2982  0.1026
  618MOL0     H83419   0.126   3.370   8.868  0.1307  3.4388  0.9079
  618MOL0     H83420  -0.041   3.276   9.099  1.4219 -0.7292  0.6164
  618MOL0     H83421  -0.030   3.187   8.949 -0.3644 -0.2835 -0.3740
  618MOL0     H83422  -0.116   3.363   8.812 -2.0717  1.4601  0.3701
  618MOL0     H83423  -0.093   3.490   8.942  0.7078  0.5500 -0.6302
  618MOL0     H83424  -0.263   3.228   8.955 -0.9054  0.3820 -0.5811
  618MOL0     H83425  -0.269   3.368   9.066  3.1823 -1.0718  0.4124
  618MOL0     H83426  -0.553   3.481   8.811  0.0863  1.7386  0.0916
  618MOL0     H83427   0.180   3.623   9.172 -1.7398 -0.8167 -0.5887
  618MOL0     H83428   0.191   3.693   9.533  2.1690 -2.5134  1.7869
  618MOL0     H83429   0.344   3.703   9.450 -0.6538 -0.0095  0.9140
  618MOL0     H83430   0.210   3.765   9.363  0.5736 -1.4649 -1.2033
  619MOL0     O83431  10.196   9.816   8.446 -0.9955  0.0234 -0.0439
  619MOL0     C83432  10.239   9.773   8.338 -0.9923  0.0061 -0.5232
  619MOL0     O83433  10.366   9.778   8.302 -0.0598  1.2319  0.1765
  619MOL0     C83434  10.454   9.846   8.384  0.0281  0.2315 -0.0632
  619MOL0     C83435  10.551   9.775   8.445 -0.1444 -0.2552  0.1410
  619MOL0     C83436  10.630   9.834   8.539 -0.1064 -0.1515 -1.2935
  619MOL0     C83437  10.638   9.964   8.566  1.6481  0.4164  0.4905
  619MOL0     O83438  10.736  10.004   8.645 -0.1177  0.4218  0.2188
  619MOL0     C83439  10.768  10.145   8.624  0.6362 -0.3891  0.0095
  619MOL0     C83440  10.873  10.176   8.725  0.6515 -0.6443  0.3489
  619MOL0     C83441  10.971  10.285   8.682  0.7146 -0.5562  0.0511
  619MOL0     C83442  11.062  10.317   8.802  0.0427  0.3549  0.2120
  619MOL0     C83443  11.169  10.418   8.752  0.3250  0.3777  0.6715
  619MOL0     C83444  11.288  10.445   8.841 -0.2367  1.0564 -0.8859
  619MOL0     C83445  11.414  10.503   8.773 -0.9156 -0.3141  0.1960
  619MOL0     C83446  11.508  10.573   8.883  0.5799 -0.0049  0.1079
  619MOL0     N83447  11.611  10.665   8.832  0.1550 -0.1535 -0.0662
  619MOL0     C83448  11.669  10.693   8.713  0.2341  0.7297 -0.1338
  619MOL0     C83449  11.760  10.793   8.741  1.2214  0.0284  0.2878
  619MOL0     C83450  11.837  10.858   8.635 -0.5154  0.3431 -0.3054
  619MOL0     C83451  11.828  11.012   8.650 -0.8740  0.1446 -0.1320
  619MOL0     C83452  11.968  11.066   8.715  0.3337 -1.1156 -0.2514
  619MOL0     C83453  12.090  11.093   8.624  0.8216 -1.4305 -0.7397
  619MOL0     O83454  12.193  11.158   8.709 -0.2953  0.6229 -0.1938
  619MOL0     C83455  12.316  11.175   8.651 -0.4447  0.3490  0.2174
  619MOL0     C83456  12.425  11.172   8.729  0.3291 -0.8579 -0.0617
  619MOL0     C83457  12.557  11.194   8.679 -0.7433 -0.1653  0.1518
  619MOL0     C83458  12.583  11.208   8.542 -0.1920 -0.3684  0.5719
  619MOL0     C83459  12.718  11.210   8.495 -0.2971  0.7753  0.4591
  619MOL0     O83460  12.823  11.249   8.581  0.2342 -0.7949  0.4875
  619MOL0     C83461  12.943  11.241   8.510  0.1658  0.1004 -0.9853
  619MOL0     C83462  13.011  11.121   8.502 -0.3561 -0.0104 -0.3468
  619MOL0     C83463  13.136  11.118   8.442  1.0416  0.0290 -0.1265
  619MOL0     C83464  13.199  11.242   8.409  0.4595 -0.2281 -0.1648
  619MOL0     O83465  13.324  11.229   8.347  0.6558  0.0952  0.2645
  619MOL0     C83466  13.296  11.248   8.204  0.7864  0.2517  0.2334
  619MOL0     C83467  13.339  11.384   8.143 -0.0590  0.2454 -0.7429
  619MOL0     C83468  13.478  11.411   8.162 -0.2447 -0.6680 -0.5736
  619MOL0     C83469  13.517  11.551   8.155  0.0650 -0.2845 -0.0168
  619MOL0     C83470  13.662  11.570   8.194 -0.5173  0.1761 -0.9985
  619MOL0     C83471  13.711  11.715   8.176 -1.0981 -0.1720 -0.3016
  619MOL0     C83472  13.867  11.726   8.216  0.4521  0.3466  0.0677
  619MOL0     C83473  13.922  11.863   8.190 -0.4759 -0.0694  0.2145
  619MOL0    Cl83474  13.876  11.969   8.320  0.3112  0.0969 -0.0244
  619MOL0     C83475  13.135  11.358   8.436 -0.0686  0.3506  0.2854
  619MOL0     C83476  13.005  11.361   8.490 -0.8008 -0.4652  0.3263
  619MOL0     O83477  12.731  11.168   8.381 -0.1440  0.2338 -0.8931
  619MOL0     C83478  12.470  11.210   8.457 -0.6942 -0.2924 -0.1716
  619MOL0     C83479  12.338  11.196   8.507 -0.2843 -0.5901 -0.0196
  619MOL0     N83480  11.770  10.808   8.878  0.4969  0.6093 -0.4219
  619MOL0     N83481  11.678  10.733   8.927  0.3521  0.0383 -0.3412
  619MOL0     C83482  10.537  10.033   8.496 -0.1903 -0.4325 -0.9914
  619MOL0     C83483  10.454   9.981   8.397  0.2544  0.4008  0.1013
  619MOL0     C83484  10.137   9.709   8.247 -0.5372 -0.0791  1.1964
  619MOL0     C83485  10.182   9.664   8.121  0.3456 -0.4019  0.1004
  619MOL0     C83486  10.097   9.606   8.025 -0.2125  0.7214 -0.7188
  619MOL0     C83487   9.958   9.587   8.055 -0.2702  0.0693 -0.1987
  619MOL0     O83488   9.875   9.517   7.964  0.1335 -1.1991 -0.0059
  619MOL0     C83489   9.740   9.520   7.992 -0.2252 -0.0122  0.2928
  619MOL0     C83490   9.660   9.495   7.867  0.1887  0.2034  0.2026
  619MOL0     C83491   9.528   9.425   7.876 -0.6748  0.1784 -0.3949
  619MOL0     C83492   9.468   9.401   7.737 -0.9080 -0.4165  0.5154
  619MOL0     C83493   9.328   9.417   7.720 -0.4246  0.5414 -0.0480
  619MOL0     C83494   9.209   9.437   7.720 -0.2080 -0.3894 -0.6876
  619MOL0     C83495   9.921   9.624   8.186  0.1461  0.1550  0.2548
  619MOL0     C83496  10.001   9.691   8.275  0.1073 -0.6420  0.6840
  619MOL0     C83497   9.928   9.735   8.406 -0.4611  0.7131  1.0148
  619MOL0     H83498  10.569   9.669   8.437  0.3841 -0.2973  1.6340
  619MOL0     H83499  10.718   9.784   8.580 -0.0235  2.5793  2.3125
  619MOL0     H83500  10.810  10.155   8.523  0.3851  2.3521  0.1115
  619MOL0     H83501  10.681  10.210   8.634 -0.2496 -1.3969 -0.8794
  619MOL0     H83502  10.916  10.079   8.752 -2.4826 -2.2544  0.0477
  619MOL0     H83503  10.809  10.215   8.806 -0.1809 -2.7793  0.7773
  619MOL0     H83504  10.914  10.373   8.649 -0.6748 -1.2961  0.3975
  619MOL0     H83505  11.035  10.250   8.601 -0.8438 -0.9720 -1.0425
  619MOL0     H83506  10.993  10.362   8.873 -2.1454 -0.1907 -1.4762
  619MOL0     H83507  11.108  10.230   8.851 -1.5318  0.1736  1.4523
  619MOL0     H83508  11.216  10.380   8.660 -0.1115  0.9753  0.1934
  619MOL0     H83509  11.121  10.513   8.728 -2.3141 -0.7894  1.0160
  619MOL0     H83510  11.253  10.511   8.921 -2.2710 -3.2627  2.1805
  619MOL0     H83511  11.315  10.348   8.884 -0.2392  0.9887 -1.0338
  619MOL0     H83512  11.383  10.581   8.703 -4.0192  1.3321  3.1399
  619MOL0     H83513  11.478  10.426   8.728 -0.3823  0.9762 -1.3515
  619MOL0     H83514  11.436  10.625   8.947 -0.2018 -1.4574  0.4349
  619MOL0     H83515  11.558  10.511   8.958  1.4483  0.6943  0.1290
  619MOL0     H83516  11.648  10.645   8.618  0.2904 -1.1901  0.7671
  619MOL0     H83517  11.941  10.825   8.643  0.2708  1.4416 -3.9614
  619MOL0     H83518  11.807  10.826   8.534  2.8524 -0.0659 -1.3091
  619MOL0     H83519  11.806  11.061   8.555 -4.4186 -2.1328 -0.6845
  619MOL0     H83520  11.746  11.039   8.716  1.1561  2.8287  1.5274
  619MOL0     H83521  12.009  11.006   8.796 -1.6453 -0.6970  1.1230
  619MOL0     H83522  11.944  11.163   8.759 -0.2329 -1.1871 -0.3982
  619MOL0     H83523  12.071  11.169   8.546 -1.1353 -0.5917  0.4774
  619MOL0     H83524  12.134  11.003   8.581  0.7820 -3.1961  2.6263
  619MOL0     H83525  12.412  11.167   8.837  0.2419  0.7698  0.0319
  619MOL0     H83526  12.640  11.176   8.745  0.9833 -3.5244 -2.6162
  619MOL0     H83527  12.948  11.041   8.539  0.7382 -0.2890  1.0069
  619MOL0     H83528  13.190  11.028   8.414  2.7652  1.0533 -0.2485
  619MOL0     H83529  13.367  11.176   8.162  0.8420  0.4181  0.0433
  619MOL0     H83530  13.196  11.214   8.175  0.8349  1.1780 -1.1180
  619MOL0     H83531  13.322  11.369   8.036  0.4550  1.5885 -1.0264
  619MOL0     H83532  13.278  11.456   8.200 -0.9562 -2.1725  1.5655
  619MOL0     H83533  13.514  11.371   8.257 -0.5446  0.6682  0.1335
  619MOL0     H83534  13.540  11.362   8.087  0.3607  2.0376 -1.9791
  619MOL0     H83535  13.446  11.607   8.216 -0.6959 -0.0174 -1.1123
  619MOL0     H83536  13.499  11.590   8.054  0.4596  1.5918  0.6119
  619MOL0     H83537  13.725  11.506   8.131  1.6060  1.6905 -0.5232
  619MOL0     H83538  13.666  11.542   8.300  2.3124 -0.3520 -1.1757
  619MOL0     H83539  13.685  11.741   8.074 -3.6909  0.4795  0.4480
  619MOL0     H83540  13.656  11.780   8.244 -0.4577  0.2425 -0.1685
  619MOL0     H83541  13.918  11.667   8.139  0.5933  2.8804 -1.8977
  619MOL0     H83542  13.890  11.682   8.314  0.7345 -2.8185 -1.2876
  619MOL0     H83543  14.031  11.857   8.179 -0.5747 -2.1861  0.0376
  619MOL0     H83544  13.879  11.903   8.097 -0.9488  1.2893  0.9859
  619MOL0     H83545  13.187  11.452   8.429  1.5810 -0.5643 -0.3979
  619MOL0     H83546  12.955  11.454   8.517  0.9859  1.1204 -1.5141
  619MOL0     H83547  12.465  11.216   8.349  1.4204 -2.8369 -0.5237
  619MOL0     H83548  12.262  11.214   8.432  0.9250  0.0679 -1.1350
  619MOL0     H83549  10.526  10.140   8.511 -2.3451 -0.5586 -1.4948
  619MOL0     H83550  10.387  10.039   8.335 -3.3554 -1.3372  2.0737
  619MOL0     H83551  10.287   9.651   8.098  0.0861 -0.8904 -0.8883
  619MOL0     H83552  10.136   9.568   7.932 -2.0737 -0.4663 -1.0793
  619MOL0     H83553   9.708   9.620   8.021  0.8837 -0.1893  2.3680
  619MOL0     H83554   9.718   9.448   8.072 -0.3212  0.6422  0.8587
  619MOL0     H83555   9.725   9.427   7.810  3.4326 -1.1493  4.8284
  619MOL0     H83556   9.649   9.592   7.819  2.1252  0.2237 -0.2831
  619MOL0     H83557   9.461   9.480   7.942 -1.0767 -0.1375 -0.5344
  619MOL0     H83558   9.560   9.330   7.921  3.5865  0.9037 -1.4350
  619MOL0     H83559   9.514   9.472   7.667  0.9270  0.2930  2.3403
  619MOL0     H83560   9.501   9.303   7.701 -2.0116  0.0122 -1.9294
  619MOL0     H83561   9.111   9.479   7.720 -1.2706 -2.6688  1.1668
  619MOL0     H83562   9.821   9.600   8.222 -0.4037 -0.4361 -1.5339
  619MOL0     H83563   9.958   9.836   8.437  0.5116  0.0347  2.3838
  619MOL0     H83564   9.818   9.738   8.399 -0.4993 -2.0321 -2.2950
  619MOL0     H83565   9.965   9.677   8.490  2.9679 -0.0264 -0.8338
  620MOL0     O83566   3.315   2.054   5.100 -0.0730  0.1414 -0.5519
  620MOL0     C83567   3.320   1.983   5.208 -0.2661 -0.7010  0.2381
  620MOL0     O83568   3.434   1.971   5.284  0.5503 -0.3309 -0.7469
  620MOL0     C83569   3.533   2.065   5.260  0.6568  0.3198  0.3787
  620MOL0     C83570   3.667   2.030   5.258 -0.3761  0.4196 -0.0821
  620MOL0     C83571   3.770   2.119   5.208  0.3220  0.6656 -0.6268
  620MOL0     C83572   3.734   2.244   5.151  1.0097 -0.5144 -1.0484
  620MOL0     O83573   3.819   2.322   5.079 -0.6483 -0.6491 -0.3511
  620MOL0     C83574   3.959   2.308   5.100 -0.0740 -0.3156  0.0807
  620MOL0     C83575   4.030   2.420   5.037  0.4677  0.7221 -0.1965
  620MOL0     C83576   4.179   2.416   5.074  0.1060 -0.3625  0.5468
  620MOL0     C83577   4.253   2.504   4.968  0.3299  0.8524  0.1255
  620MOL0     C83578   4.402   2.488   4.998 -0.8562 -0.6714  0.6538
  620MOL0     C83579   4.497   2.598   4.948 -0.7964 -0.3145 -0.9422
  620MOL0     C83580   4.640   2.593   5.023  0.1655 -0.1493  0.0230
  620MOL0     C83581   4.717   2.717   4.977 -0.6849 -0.8180  0.8635
  620MOL0     N83582   4.852   2.723   5.032 -0.5736 -0.1955 -1.0238
  620MOL0     C83583   4.973   2.666   4.995  0.0548 -0.1046 -0.4798
  620MOL0     C83584   5.062   2.724   5.078  0.1062 -0.2449 -0.5112
  620MOL0     C83585   5.209   2.710   5.046  0.6403  0.1806 -0.7094
  620MOL0     C83586   5.274   2.575   5.025  0.4088  0.3907 -0.1976
  620MOL0     C83587   5.422   2.595   5.025  0.3082 -0.6043  0.3902
  620MOL0     C83588   5.498   2.458   5.008  0.5152  0.5155  0.8203
  620MOL0     O83589   5.627   2.478   5.061 -0.4881 -0.2495 -0.3171
  620MOL0     C83590   5.700   2.362   5.086 -0.6268 -0.1055  0.4049
  620MOL0     C83591   5.833   2.385   5.053  0.7292  0.3333 -1.1067
  620MOL0     C83592   5.925   2.287   5.095  0.6883  0.8063 -0.3137
  620MOL0     C83593   5.893   2.167   5.166  1.1907 -0.5331 -0.1702
  620MOL0     C83594   5.990   2.056   5.199 -0.1167 -1.4594 -0.6169
  620MOL0     O83595   6.115   2.072   5.144  0.6470 -0.5195  0.0917
  620MOL0     C83596   6.212   1.984   5.188 -0.2402 -0.0797  1.1510
  620MOL0     C83597   6.311   2.017   5.275 -0.5293 -0.3975 -0.7976
  620MOL0     C83598   6.417   1.938   5.311 -1.1498  0.0997  0.1158
  620MOL0     C83599   6.425   1.810   5.260 -0.3594 -0.7566  0.5864
  620MOL0     O83600   6.528   1.719   5.281  0.3751  0.4922 -0.1635
  620MOL0     C83601   6.635   1.754   5.369 -0.4585 -0.8393 -0.5764
  620MOL0     C83602   6.742   1.645   5.373 -0.5284  0.1020  0.0229
  620MOL0     C83603   6.820   1.649   5.236  0.2287 -0.1477 -0.7873
  620MOL0     C83604   6.845   1.511   5.188  0.0998 -0.2590 -0.5521
  620MOL0     C83605   6.934   1.429   5.282 -0.3799 -0.6882  0.4294
  620MOL0     C83606   6.973   1.291   5.230 -0.2351  0.7256  0.3437
  620MOL0     C83607   7.037   1.196   5.326  0.4484 -0.3465 -0.4021
  620MOL0     C83608   7.175   1.239   5.379 -0.0364  0.3043  0.3098
  620MOL0    Cl83609   7.287   1.253   5.242  0.0143 -0.1800 -0.1278
  620MOL0     C83610   6.319   1.765   5.178  0.2262 -0.5449 -0.7910
  620MOL0     C83611   6.215   1.853   5.147  1.2167 -0.3349 -0.9842
  620MOL0     O83612   5.959   1.967   5.270 -0.3052 -0.4850 -0.4890
  620MOL0     C83613   5.758   2.157   5.200  0.2132  0.7624 -0.4516
  620MOL0     C83614   5.656   2.246   5.157 -1.2128 -1.0191 -0.8667
  620MOL0     N83615   5.001   2.807   5.171 -0.6780 -0.0504  0.0876
  620MOL0     N83616   4.872   2.813   5.141 -1.1270  0.0139  0.7601
  620MOL0     C83617   3.599   2.282   5.160 -0.4434  0.1403 -0.0063
  620MOL0     C83618   3.505   2.199   5.230 -0.6940 -0.2540  0.7181
  620MOL0     C83619   3.203   1.887   5.223 -0.0099 -0.1040 -0.8038
  620MOL0     C83620   3.079   1.913   5.168  0.0487  1.0854 -0.2822
  620MOL0     C83621   2.986   1.813   5.161  0.6546  0.3956 -0.7935
  620MOL0     C83622   2.992   1.696   5.237  0.1856 -0.2134 -0.1629
  620MOL0     O83623   2.879   1.611   5.232  0.9890 -0.4830 -0.3943
  620MOL0     C83624   2.892   1.487   5.297 -0.6312 -0.1304 -0.5372
  620MOL0     C83625   2.761   1.423   5.330  0.1340  0.7329 -0.0800
  620MOL0     C83626   2.664   1.519   5.410  0.0835 -0.0201  0.2190
  620MOL0     C83627   2.523   1.466   5.443 -0.4746  0.1481 -0.8133
  620MOL0     C83628   2.537   1.391   5.564  0.3986 -0.0489 -0.5408
  620MOL0     C83629   2.557   1.317   5.663  0.5884 -0.9015 -0.4565
  620MOL0     C83630   3.113   1.674   5.297 -0.1018 -0.4244 -1.3280
  620MOL0     C83631   3.216   1.765   5.287  0.1599  0.2426  1.3556
  620MOL0     C83632   3.344   1.725   5.347  0.1672  0.3449 -0.1328
  620MOL0     H83633   3.694   1.928   5.285  0.1670 -0.2018 -2.7211
  620MOL0     H83634   3.872   2.082   5.203  0.2600 -0.0338  1.9011
  620MOL0     H83635   3.987   2.300   5.205  3.9745  1.7631 -0.6139
  620MOL0     H83636   3.997   2.221   5.045  0.0072  0.1807 -0.6655
  620MOL0     H83637   3.991   2.516   5.074 -2.3631 -0.5427  0.3774
  620MOL0     H83638   4.002   2.427   4.932 -3.0381 -3.2914  0.1642
  620MOL0     H83639   4.215   2.313   5.072  0.7217 -0.1422  0.1072
  620MOL0     H83640   4.189   2.464   5.172  0.1718  0.2888  0.2300
  620MOL0     H83641   4.241   2.473   4.864 -0.0375 -1.7555  0.8868
  620MOL0     H83642   4.224   2.608   4.985 -0.9878  0.2314  1.9362
  620MOL0     H83643   4.427   2.498   5.105  2.4597  1.6061 -0.1682
  620MOL0     H83644   4.429   2.385   4.972  2.1361 -0.1975  1.4560
  620MOL0     H83645   4.518   2.582   4.842 -1.6025  0.1993 -1.1922
  620MOL0     H83646   4.442   2.692   4.960  0.6208  0.5131 -0.6224
  620MOL0     H83647   4.684   2.497   4.995 -5.4641 -2.9237 -0.7381
  620MOL0     H83648   4.616   2.597   5.130 -4.4825  0.5176 -0.8283
  620MOL0     H83649   4.727   2.718   4.868  1.8407 -0.0902  1.0324
  620MOL0     H83650   4.660   2.805   5.008 -0.9676 -0.4426 -0.6502
  620MOL0     H83651   4.989   2.595   4.915  1.3037 -1.6134  1.0129
  620MOL0     H83652   5.218   2.755   4.947 -1.4115 -0.9836 -1.5098
  620MOL0     H83653   5.269   2.770   5.114 -1.3189 -0.4562  1.7524
  620MOL0     H83654   5.239   2.514   5.109 -3.1163  2.1169 -0.2516
  620MOL0     H83655   5.243   2.534   4.929 -3.7765 -0.8991  1.5121
  620MOL0     H83656   5.457   2.642   5.117  2.0292  2.4633 -1.6808
  620MOL0     H83657   5.438   2.671   4.949 -1.5802  0.7035  1.2270
  620MOL0     H83658   5.517   2.430   4.904 -0.4994 -2.7913  1.3988
  620MOL0     H83659   5.441   2.375   5.051 -1.3467 -0.3173 -2.8910
  620MOL0     H83660   5.857   2.480   5.006  0.4782  0.3144 -1.2767
  620MOL0     H83661   6.030   2.304   5.074  1.1045  1.2428  1.8586
  620MOL0     H83662   6.309   2.119   5.311  2.8359 -0.0159 -1.3385
  620MOL0     H83663   6.490   1.983   5.378  0.7982 -1.2615 -0.9913
  620MOL0     H83664   6.685   1.846   5.336 -0.0091  0.9169  4.2251
  620MOL0     H83665   6.594   1.761   5.470 -2.9239 -3.1247 -1.3060
  620MOL0     H83666   6.804   1.665   5.460 -0.7417 -2.6264  0.8957
  620MOL0     H83667   6.699   1.547   5.398 -0.1524  0.4719  2.3743
  620MOL0     H83668   6.773   1.715   5.163 -1.4093 -1.5211 -1.0628
  620MOL0     H83669   6.913   1.699   5.264 -0.5300 -0.2604  2.3457
  620MOL0     H83670   6.890   1.528   5.090  0.3091  0.2033 -0.3801
  620MOL0     H83671   6.753   1.453   5.175 -1.2459  1.3700  1.1342
  620MOL0     H83672   6.894   1.434   5.384 -2.9616  0.8585 -0.5790
  620MOL0     H83673   7.024   1.490   5.274  0.2196 -1.7942 -2.8475
  620MOL0     H83674   6.878   1.247   5.198  0.4003 -2.7240  2.6744
  620MOL0     H83675   7.026   1.295   5.135 -0.3489  0.0262  0.2484
  620MOL0     H83676   7.044   1.095   5.284 -0.6619 -0.5919 -0.0305
  620MOL0     H83677   6.968   1.181   5.409 -0.3715 -5.5945 -1.6725
  620MOL0     H83678   7.166   1.339   5.423 -0.2173  0.8714 -0.9762
  620MOL0     H83679   7.208   1.169   5.456 -0.1753 -0.1175 -0.0128
  620MOL0     H83680   6.320   1.660   5.149  1.7940 -0.4366 -1.2294
  620MOL0     H83681   6.136   1.829   5.077 -0.0582 -0.1859  0.3684
  620MOL0     H83682   5.725   2.071   5.257 -1.2771  1.0336 -0.8767
  620MOL0     H83683   5.555   2.238   5.196  0.0736  2.3279  3.9905
  620MOL0     H83684   3.572   2.379   5.121 -1.0720 -0.1549 -0.3237
  620MOL0     H83685   3.404   2.238   5.237 -0.1129  1.8751 -1.6903
  620MOL0     H83686   3.071   2.007   5.113 -3.5282  0.6440 -0.7227
  620MOL0     H83687   2.900   1.831   5.097  1.6843 -0.4280 -2.4843
  620MOL0     H83688   2.942   1.498   5.394  0.3678  0.3631 -1.0926
  620MOL0     H83689   2.929   1.414   5.225 -0.3605 -0.4085 -0.1192
  620MOL0     H83690   2.786   1.342   5.398  0.7504  0.5771 -0.4901
  620MOL0     H83691   2.712   1.379   5.242  4.7243 -1.8870 -1.6285
  620MOL0     H83692   2.657   1.609   5.348 -2.8019  0.7307  1.4920
  620MOL0     H83693   2.716   1.547   5.502 -3.9866  1.9290  2.1686
  620MOL0     H83694   2.456   1.552   5.450  1.7570  2.0880 -1.8441
  620MOL0     H83695   2.487   1.404   5.360  1.0266 -0.0849 -1.3098
  620MOL0     H83696   2.567   1.258   5.752 -1.6640  2.0205  1.9424
  620MOL0     H83697   3.134   1.578   5.343  1.3749  0.0590 -0.9406
  620MOL0     H83698   3.329   1.624   5.388  0.0952  0.1672 -0.5911
  620MOL0     H83699   3.427   1.711   5.277  1.1784 -1.9552  1.4160
  620MOL0     H83700   3.377   1.787   5.431  2.3786 -1.2137  0.2548
  621MOL0     O83701  10.780   0.795   9.427  0.0841 -0.2443 -0.6665
  621MOL0     C83702  10.736   0.878   9.515 -0.0453  1.1261  0.8548
  621MOL0     O83703  10.628   0.954   9.496  0.9480 -0.1437  0.5018
  621MOL0     C83704  10.553   0.932   9.375 -0.3353 -0.5167 -0.1044
  621MOL0     C83705  10.489   0.811   9.336  0.1571 -0.0526 -0.2602
  621MOL0     C83706  10.434   0.790   9.211  1.0363  0.5365  0.5435
  621MOL0     C83707  10.425   0.906   9.127 -0.2499  0.1702  0.2415
  621MOL0     O83708  10.377   0.894   9.001 -0.4919 -0.0587  0.2351
  621MOL0     C83709  10.377   0.772   8.945 -0.2925  0.7456  0.7143
  621MOL0     C83710  10.347   0.799   8.801 -0.0956  0.0475 -0.3970
  621MOL0     C83711  10.476   0.824   8.724  0.2830 -0.4129 -0.1305
  621MOL0     C83712  10.585   0.908   8.798 -0.0137 -0.0243  0.0699
  621MOL0     C83713  10.720   0.909   8.725  0.6578  0.1328  0.1497
  621MOL0     C83714  10.841   0.952   8.820 -1.0070  0.3857 -0.8967
  621MOL0     C83715  10.842   1.090   8.888 -0.2996  0.4450  0.0801
  621MOL0     C83716  10.814   1.210   8.794  0.3369 -0.4211  0.2390
  621MOL0     N83717  10.910   1.228   8.685  0.3234  0.0903 -0.6867
  621MOL0     C83718  11.043   1.212   8.694 -0.3098 -0.0539  0.1279
  621MOL0     C83719  11.076   1.214   8.558 -1.5938 -0.2710 -0.4304
  621MOL0     C83720  11.211   1.184   8.495  0.0003  0.0974 -0.4795
  621MOL0     C83721  11.258   1.041   8.534  0.4815  1.5285 -0.4093
  621MOL0     C83722  11.385   1.001   8.447  0.0328 -0.7945 -0.0604
  621MOL0     C83723  11.518   1.064   8.497  0.2016  0.1449 -0.0325
  621MOL0     O83724  11.536   1.025   8.632  0.3370  0.1454  0.2569
  621MOL0     C83725  11.659   1.048   8.686  0.3077 -0.2270 -0.0803
  621MOL0     C83726  11.729   0.942   8.736  0.0859  0.1061  0.5058
  621MOL0     C83727  11.862   0.962   8.779  0.4050 -0.0325 -0.2924
  621MOL0     C83728  11.920   1.087   8.766 -0.4231 -0.2161  1.1219
  621MOL0     C83729  12.066   1.106   8.789  0.3398  0.0589 -1.0643
  621MOL0     O83730  12.134   1.004   8.853  0.4216 -0.6748  0.1813
  621MOL0     C83731  12.264   1.044   8.894  0.3263  0.9414 -1.0484
  621MOL0     C83732  12.369   0.951   8.892 -0.0053 -0.8794  0.8203
  621MOL0     C83733  12.496   0.983   8.936 -0.4769  0.8502 -0.4810
  621MOL0     C83734  12.519   1.113   8.993  0.9879  0.5205 -0.0359
  621MOL0     O83735  12.636   1.150   9.050 -0.5797 -0.0684 -0.2766
  621MOL0     C83736  12.756   1.073   9.030  0.3558 -0.0928  0.2051
  621MOL0     C83737  12.797   1.089   8.880  1.1688  0.9241  0.8720
  621MOL0     C83738  12.919   1.006   8.860 -0.6688 -0.6643 -0.8860
  621MOL0     C83739  12.992   1.004   8.719  0.1337  0.9805 -0.6836
  621MOL0     C83740  13.095   0.884   8.716  0.6366 -0.5980 -0.4446
  621MOL0     C83741  13.212   0.911   8.808 -0.8085 -0.1622  0.1189
  621MOL0     C83742  13.313   0.793   8.800 -0.8438  0.3466  0.1612
  621MOL0     C83743  13.436   0.791   8.885 -0.4721 -0.0226 -0.0190
  621MOL0    Cl83744  13.541   0.933   8.834  0.3151  0.2115 -0.7783
  621MOL0     C83745  12.414   1.204   9.008  0.6416 -0.5141 -0.9034
  621MOL0     C83746  12.288   1.165   8.962  1.6159  0.6800  0.2070
  621MOL0     O83747  12.116   1.204   8.735 -0.4182 -0.0476 -0.0838
  621MOL0     C83748  11.846   1.192   8.713 -0.0194  0.5196  0.1080
  621MOL0     C83749  11.712   1.180   8.680 -0.1288 -0.1148 -0.2277
  621MOL0     N83750  10.974   1.246   8.487  0.2265  0.7776 -0.1063
  621MOL0     N83751  10.874   1.265   8.562  0.0443  0.2579 -0.1321
  621MOL0     C83752  10.477   1.031   9.164  0.7316 -0.4581 -0.3727
  621MOL0     C83753  10.537   1.042   9.286 -0.8506 -0.0350  0.0727
  621MOL0     C83754  10.811   0.896   9.634 -0.3239  0.1105  0.0544
  621MOL0     C83755  10.778   0.998   9.717 -0.6877 -0.4693 -0.0684
  621MOL0     C83756  10.870   1.032   9.818 -0.0765 -0.1974  0.0591
  621MOL0     C83757  10.992   0.965   9.843 -0.0272  0.3882  0.3118
  621MOL0     O83758  11.068   1.022   9.940  0.0556 -0.0259 -0.1932
  621MOL0     C83759  11.189   0.952   9.988  0.1785  0.2088  0.4350
  621MOL0     C83760  11.312   1.010   9.926 -0.1875 -0.3685  0.1430
  621MOL0     C83761  11.436   0.923   9.932 -0.4415  0.4742  0.0608
  621MOL0     C83762  11.504   0.934  10.062  0.8647  1.3321 -0.0863
  621MOL0     C83763  11.638   0.878  10.053 -0.1342  0.0735 -0.0968
  621MOL0     C83764  11.755   0.853  10.052 -0.0121 -0.0097  0.7853
  621MOL0     C83765  11.022   0.852   9.762  0.9773 -0.3481  0.1493
  621MOL0     C83766  10.928   0.822   9.661 -0.4900  0.1046 -0.2205
  621MOL0     C83767  10.982   0.698   9.590  0.7334 -0.4764  0.3304
  621MOL0     H83768  10.510   0.727   9.401 -2.0964 -2.3312 -2.2785
  621MOL0     H83769  10.408   0.686   9.193  2.9666  0.1479 -0.2086
  621MOL0     H83770  10.468   0.713   8.960 -0.6498 -0.5343 -1.6389
  621MOL0     H83771  10.292   0.716   8.986 -1.2142  0.5055 -1.4180
  621MOL0     H83772  10.267   0.873   8.793  0.6414  1.4317  3.2568
  621MOL0     H83773  10.309   0.707   8.755 -1.8957 -0.2226  1.4770
  621MOL0     H83774  10.458   0.868   8.626  1.1823  1.7800  0.6402
  621MOL0     H83775  10.523   0.725   8.718  2.8280  0.6313  1.1754
  621MOL0     H83776  10.552   1.012   8.800 -0.3373  0.0070 -2.7285
  621MOL0     H83777  10.608   0.882   8.902  0.3235 -1.9085 -0.4411
  621MOL0     H83778  10.738   0.805   8.695 -2.3118 -1.5540  3.5390
  621MOL0     H83779  10.708   0.976   8.639  0.3701 -0.6942 -0.4717
  621MOL0     H83780  10.850   0.877   8.899 -1.8867  1.5906  0.4029
  621MOL0     H83781  10.922   0.950   8.746 -1.8634  4.1780 -2.1913
  621MOL0     H83782  10.941   1.100   8.934  0.2941  0.7499 -1.2341
  621MOL0     H83783  10.767   1.089   8.968 -1.1334  0.7868 -0.6761
  621MOL0     H83784  10.712   1.209   8.754 -0.6262 -5.5428  2.0824
  621MOL0     H83785  10.821   1.298   8.859 -2.0527  1.5784 -1.9612
  621MOL0     H83786  11.112   1.186   8.774  0.8822 -0.8022 -1.1010
  621MOL0     H83787  11.212   1.211   8.389  2.4653 -1.7601 -1.0347
  621MOL0     H83788  11.273   1.249   8.558  0.6502  0.0046 -1.0122
  621MOL0     H83789  11.276   1.025   8.641  1.2615 -4.2959 -1.1247
  621MOL0     H83790  11.175   0.972   8.521  1.1298 -0.4546  4.1272
  621MOL0     H83791  11.364   1.026   8.343 -1.6441  0.9897  0.6543
  621MOL0     H83792  11.386   0.892   8.462  0.9204 -0.4633  2.9807
  621MOL0     H83793  11.514   1.173   8.496 -0.6778  0.2285  2.8643
  621MOL0     H83794  11.599   1.025   8.434  0.8688 -1.7783  1.8809
  621MOL0     H83795  11.688   0.842   8.736  1.7974 -0.6774 -1.5347
  621MOL0     H83796  11.918   0.871   8.803 -2.6769 -2.4953 -1.7176
  621MOL0     H83797  12.348   0.850   8.858 -0.1867 -0.7752  0.6226
  621MOL0     H83798  12.578   0.914   8.920 -0.3709  0.8448  0.0764
  621MOL0     H83799  12.840   1.111   9.089  1.0946 -2.1939  0.5990
  621MOL0     H83800  12.747   0.969   9.062  2.1067 -0.5062 -0.4956
  621MOL0     H83801  12.725   1.042   8.812  1.7901 -0.0331  0.8557
  621MOL0     H83802  12.806   1.193   8.846 -0.6144  0.8070 -0.1358
  621MOL0     H83803  12.989   1.038   8.938 -0.5195 -0.5891 -1.0501
  621MOL0     H83804  12.890   0.904   8.888 -0.6381 -0.2488  0.7583
  621MOL0     H83805  13.048   1.096   8.703  1.4328  0.2836 -0.3172
  621MOL0     H83806  12.916   0.985   8.641 -1.9301 -0.4619  1.5279
  621MOL0     H83807  13.125   0.867   8.612 -2.0222 -0.7124 -1.2786
  621MOL0     H83808  13.047   0.791   8.745 -1.6262  0.8228  0.6722
  621MOL0     H83809  13.266   1.000   8.776 -3.2904  0.9814 -1.2533
  621MOL0     H83810  13.181   0.907   8.913 -2.0637 -0.4516 -0.2388
  621MOL0     H83811  13.349   0.801   8.697  2.2998 -0.1518  1.1268
  621MOL0     H83812  13.263   0.696   8.802 -0.5114  0.0558 -2.2834
  621MOL0     H83813  13.411   0.804   8.991  0.4437  0.7348  0.1170
  621MOL0     H83814  13.494   0.699   8.872 -2.0292 -0.9778 -0.3396
  621MOL0     H83815  12.412   1.302   9.055 -0.7013  0.6219 -3.1670
  621MOL0     H83816  12.207   1.238   8.969 -0.0351 -0.9901 -0.5289
  621MOL0     H83817  11.893   1.290   8.702  1.8511 -0.3840 -0.2655
  621MOL0     H83818  11.655   1.266   8.649 -0.0270 -0.4764 -1.4786
  621MOL0     H83819  10.479   1.109   9.089  1.6659  1.3994  1.4890
  621MOL0     H83820  10.577   1.140   9.311  1.2600 -0.0100 -2.9095
  621MOL0     H83821  10.694   1.064   9.695 -0.3771 -0.5357 -1.5120
  621MOL0     H83822  10.856   1.113   9.889  1.7897 -0.4021  0.7144
  621MOL0     H83823  11.185   0.846   9.963  0.8241  0.1915  0.4093
  621MOL0     H83824  11.200   0.954  10.097  0.3140 -3.5541  0.6048
  621MOL0     H83825  11.346   1.110   9.957 -3.5732  2.2011 -3.4073
  621MOL0     H83826  11.282   1.022   9.822 -0.1689  1.6637  0.3318
  621MOL0     H83827  11.510   0.959   9.860  0.7698 -3.0351 -0.6475
  621MOL0     H83828  11.425   0.816   9.914  2.6773 -0.2388  1.5727
  621MOL0     H83829  11.509   1.039  10.090  1.2840  1.3347 -0.1722
  621MOL0     H83830  11.452   0.878  10.141  4.2277  1.1208  2.1938
  621MOL0     H83831  11.860   0.841  10.037  0.3176  2.6433  0.6638
  621MOL0     H83832  11.109   0.788   9.772  0.8846 -0.1814  2.4739
  621MOL0     H83833  11.046   0.732   9.507  0.3434 -3.0710 -1.1655
  621MOL0     H83834  11.020   0.618   9.654 -1.1125 -2.0496 -0.4447
  621MOL0     H83835  10.903   0.640   9.540 -2.7600  1.9256  2.6405
  622MOL0     O83836   6.345  10.311   6.255 -0.5944 -0.3287  0.2773
  622MOL0     C83837   6.255  10.313   6.173  1.0481  0.6624  0.5094
  622MOL0     O83838   6.271  10.352   6.048  0.1065  0.9699 -0.5029
  622MOL0     C83839   6.396  10.400   6.027 -0.0974 -0.0532  0.5686
  622MOL0     C83840   6.503  10.317   5.978  0.4618  0.1359 -0.1297
  622MOL0     C83841   6.620  10.379   5.948 -0.8291  0.2441 -0.3512
  622MOL0     C83842   6.642  10.518   5.966  0.4545  0.0056 -0.6322
  622MOL0     O83843   6.750  10.592   5.938  0.1683 -0.0968 -0.4416
  622MOL0     C83844   6.820  10.556   5.818 -0.3180 -0.4836 -0.2438
  622MOL0     C83845   6.845  10.690   5.761  0.5123 -0.3399 -0.4886
  622MOL0     C83846   6.927  10.679   5.637  0.4131 -0.4597 -0.0583
  622MOL0     C83847   6.955  10.821   5.592  0.8650  0.4570 -0.1406
  622MOL0     C83848   7.073  10.828   5.498 -0.6690  0.2986  0.1883
  622MOL0     C83849   7.115  10.974   5.479 -0.3292  0.2564  0.1575
  622MOL0     C83850   7.262  10.990   5.453  0.9518 -0.2926 -0.3180
  622MOL0     C83851   7.289  11.134   5.406 -0.1775  1.6607  0.5778
  622MOL0     N83852   7.433  11.156   5.388  0.1043 -0.3039 -0.2813
  622MOL0     C83853   7.522  11.208   5.487 -0.5308  0.4118 -0.2838
  622MOL0     C83854   7.632  11.243   5.410 -0.3417  0.5633 -0.2992
  622MOL0     C83855   7.774  11.294   5.449 -0.3329  0.3914 -0.3154
  622MOL0     C83856   7.792  11.423   5.365  0.4029  0.0116  0.1819
  622MOL0     C83857   7.933  11.495   5.384  0.0758  0.2576 -0.2015
  622MOL0     C83858   7.936  11.607   5.282 -0.9490 -0.6142 -0.0875
  622MOL0     O83859   8.071  11.665   5.298 -0.2817 -0.1144 -0.6845
  622MOL0     C83860   8.119  11.776   5.235  0.3834 -0.4102 -0.1221
  622MOL0     C83861   8.041  11.865   5.170  0.6035 -1.4413  0.3435
  622MOL0     C83862   8.084  11.990   5.125 -0.5256 -1.1656 -0.3976
  622MOL0     C83863   8.226  12.023   5.129  0.0957  0.0995 -0.4036
  622MOL0     C83864   8.273  12.147   5.067 -0.0869 -0.3004  0.1268
  622MOL0     O83865   8.400  12.192   5.095 -0.4249  0.6926  0.0642
  622MOL0     C83866   8.462  12.294   5.030 -0.1551  0.5783  0.3049
  622MOL0     C83867   8.457  12.318   4.897  0.5697 -0.0155 -0.1188
  622MOL0     C83868   8.537  12.410   4.831  0.5978  0.0539  0.3634
  622MOL0     C83869   8.629  12.475   4.916  0.1239  0.3331  0.5245
  622MOL0     O83870   8.699  12.574   4.847  0.7623 -0.8730 -0.0817
  622MOL0     C83871   8.830  12.601   4.898 -0.3828  1.0874 -0.9375
  622MOL0     C83872   8.921  12.695   4.821  0.8497 -0.6664  0.1279
  622MOL0     C83873   8.930  12.654   4.673  0.0845  0.5140 -1.6391
  622MOL0     C83874   9.016  12.763   4.600  0.1646  0.6406  0.0796
  622MOL0     C83875   9.167  12.740   4.613 -0.5248  0.7518 -0.1854
  622MOL0     C83876   9.235  12.847   4.521 -0.4928  0.1661  0.1843
  622MOL0     C83877   9.382  12.841   4.518 -0.2315 -0.5820 -0.1942
  622MOL0     C83878   9.434  12.728   4.421  0.2616 -0.0437  0.3971
  622MOL0    Cl83879   9.606  12.765   4.379  0.3236 -0.2109  0.3014
  622MOL0     C83880   8.649  12.442   5.051  0.8598 -0.6583  0.2540
  622MOL0     C83881   8.554  12.365   5.107  0.7745  0.7290  0.4394
  622MOL0     O83882   8.199  12.206   4.992  0.1908  0.2673 -0.8719
  622MOL0     C83883   8.312  11.926   5.181  0.6253 -0.0569 -0.4051
  622MOL0     C83884   8.255  11.810   5.241  0.2079 -0.2517 -0.4638
  622MOL0     N83885   7.611  11.204   5.278 -0.1805  0.1193 -0.5411
  622MOL0     N83886   7.494  11.158   5.266  0.2866  0.5923  0.3280
  622MOL0     C83887   6.532  10.596   6.005 -0.4044  0.3488 -0.0766
  622MOL0     C83888   6.418  10.537   6.037 -0.3269 -0.6027 -0.3541
  622MOL0     C83889   6.118  10.247   6.204  0.7173  0.1699  0.3866
  622MOL0     C83890   6.042  10.204   6.092  0.2482  0.7329  0.9089
  622MOL0     C83891   5.919  10.141   6.100  0.3847  0.1547 -0.2968
  622MOL0     C83892   5.868  10.119   6.230 -0.0632  0.9397 -0.7107
  622MOL0     O83893   5.745  10.049   6.249 -0.9814 -0.1858  0.0253
  622MOL0     C83894   5.656  10.053   6.143  0.0960  0.7148 -0.6547
  622MOL0     C83895   5.512  10.005   6.196  0.0917 -0.2418 -0.2782
  622MOL0     C83896   5.410  10.032   6.080  0.1819  0.6052 -0.0583
  622MOL0     C83897   5.275   9.962   6.096 -0.1935  0.2133 -0.6002
  622MOL0     C83898   5.189   9.975   5.980  0.7040 -0.0230  0.3969
  622MOL0     C83899   5.118   9.982   5.882  0.0576  0.5038 -0.9526
  622MOL0     C83900   5.949  10.149   6.342  0.0809  0.1921  0.0743
  622MOL0     C83901   6.069  10.220   6.332 -0.2999 -0.0921 -0.1563
  622MOL0     C83902   6.149  10.228   6.466  0.1485  0.5278  0.4491
  622MOL0     H83903   6.490  10.209   5.974 -1.9579  0.2326  2.1912
  622MOL0     H83904   6.702  10.315   5.916 -1.3030 -0.8572  0.5782
  622MOL0     H83905   6.909  10.501   5.850  1.0326  0.6880 -1.7574
  622MOL0     H83906   6.763  10.498   5.745 -0.2158 -0.1297 -0.6100
  622MOL0     H83907   6.885  10.750   5.843 -0.4704 -0.5735  0.1934
  622MOL0     H83908   6.747  10.729   5.732 -0.1320 -1.9593 -0.5926
  622MOL0     H83909   6.869  10.638   5.553 -0.3942 -1.5718  1.0058
  622MOL0     H83910   7.020  10.622   5.645  1.4348  1.3695  2.0318
  622MOL0     H83911   6.869  10.861   5.536  0.2978 -2.4732 -1.5696
  622MOL0     H83912   6.989  10.884   5.675 -0.1474  1.5508 -0.5264
  622MOL0     H83913   7.159  10.774   5.540 -1.3547  0.9640  2.5838
  622MOL0     H83914   7.053  10.778   5.403 -2.0502  1.3777 -0.1231
  622MOL0     H83915   7.060  11.017   5.395 -1.0259  1.2445  1.1069
  622MOL0     H83916   7.089  11.033   5.567 -0.5394  2.3583 -1.2590
  622MOL0     H83917   7.286  10.922   5.371 -0.2420  2.6213 -3.3241
  622MOL0     H83918   7.329  10.963   5.535  1.3930  0.1030 -0.5461
  622MOL0     H83919   7.238  11.127   5.309 -1.5344 -0.2731  1.3575
  622MOL0     H83920   7.241  11.208   5.471 -0.5174  1.2609  0.7830
  622MOL0     H83921   7.517  11.206   5.595  0.3805  0.6026 -0.2270
  622MOL0     H83922   7.784  11.318   5.556  1.4072 -2.2476  0.1872
  622MOL0     H83923   7.850  11.217   5.433  1.2893  1.8238  0.1443
  622MOL0     H83924   7.797  11.393   5.260  3.8422  1.2316 -0.1220
  622MOL0     H83925   7.701  11.484   5.372  0.8820  0.5767  1.9666
  622MOL0     H83926   8.002  11.413   5.362 -0.8828 -0.9860  1.2765
  622MOL0     H83927   7.957  11.533   5.484 -0.6656 -4.7121  2.1553
  622MOL0     H83928   7.849  11.668   5.305  0.5003  1.6687 -0.2561
  622MOL0     H83929   7.933  11.574   5.177  0.9271  4.1101 -1.9150
  622MOL0     H83930   7.936  11.844   5.152  0.6310 -0.3420 -1.3195
  622MOL0     H83931   8.011  12.047   5.068 -0.3737 -1.0454 -0.4718
  622MOL0     H83932   8.381  12.263   4.842  0.5807  2.7851 -3.2933
  622MOL0     H83933   8.516  12.432   4.727 -2.4953 -0.4627  0.7863
  622MOL0     H83934   8.809  12.652   4.993 -1.6009  1.3232 -1.3181
  622MOL0     H83935   8.881  12.506   4.918 -3.2509 -0.2937  0.3027
  622MOL0     H83936   8.877  12.795   4.820 -0.9827 -1.4411 -0.1355
  622MOL0     H83937   9.025  12.706   4.854  1.7779  1.0607 -2.9702
  622MOL0     H83938   8.973  12.554   4.655  0.1039 -0.2262  1.8382
  622MOL0     H83939   8.833  12.673   4.628  0.9562  0.3753 -3.7115
  622MOL0     H83940   8.994  12.864   4.637  1.4370  0.6852  0.7787
  622MOL0     H83941   8.983  12.755   4.496 -2.6775 -1.1318  0.9828
  622MOL0     H83942   9.198  12.639   4.586 -1.0143  0.0592  1.7123
  622MOL0     H83943   9.214  12.740   4.711 -0.9069 -2.5767  0.0887
  622MOL0     H83944   9.192  12.827   4.422  0.5550 -0.7937 -0.0968
  622MOL0     H83945   9.214  12.951   4.549  0.7241  0.7382 -0.9585
  622MOL0     H83946   9.418  12.820   4.619  1.4548 -1.2525 -0.8956
  622MOL0     H83947   9.431  12.925   4.468  0.6904 -0.7478  0.4048
  622MOL0     H83948   9.410  12.631   4.465 -2.5073 -1.6614 -4.0356
  622MOL0     H83949   9.377  12.736   4.329  0.9591  1.4962  0.0766
  622MOL0     H83950   8.709  12.494   5.126 -0.1029 -1.7327  1.8261
  622MOL0     H83951   8.545  12.355   5.214 -3.7934  0.0245  0.1889
  622MOL0     H83952   8.421  11.929   5.187  0.7101 -0.5760 -1.3498
  622MOL0     H83953   8.327  11.751   5.296  1.6438  2.4373  0.7430
  622MOL0     H83954   6.539  10.704   6.018 -0.8706  0.4431 -0.5617
  622MOL0     H83955   6.332  10.596   6.067 -1.1517 -1.8789 -0.1298
  622MOL0     H83956   6.075  10.220   5.990 -2.9808  0.8809 -0.2105
  622MOL0     H83957   5.873  10.136   6.002  2.6552  3.8295 -1.7672
  622MOL0     H83958   5.687   9.996   6.055 -1.3409 -1.1441 -0.0198
  622MOL0     H83959   5.624  10.152   6.107 -1.8852 -0.0567 -1.0984
  622MOL0     H83960   5.483  10.054   6.290 -0.0666 -1.4109  0.3022
  622MOL0     H83961   5.513   9.898   6.220 -1.3047 -0.3919 -0.8327
  622MOL0     H83962   5.454  10.006   5.983 -1.8815  3.2081 -1.8444
  622MOL0     H83963   5.400  10.141   6.074  2.7282  0.8342 -2.5198
  622MOL0     H83964   5.293   9.857   6.121  3.2456  0.9960  0.8503
  622MOL0     H83965   5.228  10.013   6.180 -1.3636 -0.7417 -0.6512
  622MOL0     H83966   5.035   9.977   5.816 -3.2523  0.0280  2.8487
  622MOL0     H83967   5.907  10.112   6.435 -1.5247 -1.9549 -1.4102
  622MOL0     H83968   6.205  10.135   6.476 -0.3229  0.0417 -1.0595
  622MOL0     H83969   6.220  10.311   6.472  0.7314  0.0530  0.1908
  622MOL0     H83970   6.081  10.239   6.551 -0.5719 -0.9313  0.0907
  623MOL0     O83971   7.577   3.600   8.237 -0.1290 -0.5636 -0.1267
  623MOL0     C83972   7.489   3.681   8.277  0.3861  0.3374  0.2272
  623MOL0     O83973   7.499   3.817   8.267 -0.2790 -1.0507  0.0746
  623MOL0     C83974   7.631   3.859   8.232 -0.1802  0.6570 -0.8015
  623MOL0     C83975   7.653   3.882   8.094 -0.2263  0.5064  0.2920
  623MOL0     C83976   7.773   3.929   8.044 -0.2853 -0.5211 -0.0435
  623MOL0     C83977   7.879   3.948   8.130 -0.1301 -1.6335  0.4338
  623MOL0     O83978   7.994   4.022   8.099  0.1752 -0.3830 -0.9367
  623MOL0     C83979   8.090   3.946   8.025  0.0793  0.0995  0.1687
  623MOL0     C83980   8.230   4.009   8.072  0.1435  0.5139 -0.5217
  623MOL0     C83981   8.356   3.983   7.994 -1.0106  0.3539  0.5854
  623MOL0     C83982   8.397   3.839   7.972  0.4989  0.2106  0.1328
  623MOL0     C83983   8.479   3.806   7.847  0.0752 -0.2141  1.2555
  623MOL0     C83984   8.601   3.904   7.845 -0.3326 -0.9643 -0.1391
  623MOL0     C83985   8.716   3.879   7.748  0.2000  0.8353 -0.7074
  623MOL0     C83986   8.676   3.902   7.604  0.2614  0.1124  1.2339
  623MOL0     N83987   8.791   3.886   7.511 -0.3600  0.5167 -0.3890
  623MOL0     C83988   8.876   3.777   7.509  0.2152  0.3780  0.0625
  623MOL0     C83989   8.972   3.828   7.423  0.1355 -0.5113  0.1591
  623MOL0     C83990   9.084   3.732   7.388  0.4873 -0.8745  0.6538
  623MOL0     C83991   9.222   3.794   7.412  0.8758  0.4346  0.6056
  623MOL0     C83992   9.330   3.692   7.386 -0.3084 -0.2950 -0.6778
  623MOL0     C83993   9.467   3.736   7.449 -0.8215  0.3793 -0.0471
  623MOL0     O83994   9.573   3.647   7.408 -0.6694 -0.5146 -0.4519
  623MOL0     C83995   9.701   3.685   7.431  0.4601  0.3413  0.6076
  623MOL0     C83996   9.749   3.775   7.537 -0.1956 -0.0488 -0.1267
  623MOL0     C83997   9.887   3.796   7.548  0.5821 -0.4387  0.7100
  623MOL0     C83998   9.981   3.742   7.457 -0.2894  1.2933 -1.2653
  623MOL0     C83999  10.123   3.757   7.462 -0.0410  0.5906  0.1295
  623MOL0     O84000  10.204   3.664   7.391 -0.1952 -0.3387 -0.1624
  623MOL0     C84001  10.347   3.676   7.397 -0.1595 -0.3293 -0.4124
  623MOL0     C84002  10.424   3.649   7.286 -0.8207 -0.2302  0.4882
  623MOL0     C84003  10.563   3.665   7.276 -0.0378 -0.6416  0.0192
  623MOL0     C84004  10.633   3.706   7.391 -1.0646  0.8382  0.1595
  623MOL0     O84005  10.771   3.723   7.392 -0.0176  0.1312  0.6266
  623MOL0     C84006  10.847   3.749   7.514 -0.0592  0.0388  0.7001
  623MOL0     C84007  10.990   3.720   7.463 -0.3121  0.6690 -0.7759
  623MOL0     C84008  11.005   3.570   7.449  0.2290 -0.2594 -0.4357
  623MOL0     C84009  11.003   3.490   7.579 -1.1790 -0.2207  0.7021
  623MOL0     C84010  11.082   3.357   7.576 -0.8775 -0.6287 -0.4856
  623MOL0     C84011  11.033   3.268   7.465  0.1026  0.3711 -0.5180
  623MOL0     C84012  11.113   3.135   7.446  0.0064 -0.2789 -0.1103
  623MOL0     C84013  11.079   3.032   7.546  0.3698 -0.2101 -0.0575
  623MOL0    Cl84014  10.901   2.984   7.529 -0.1776  0.2868  0.3030
  623MOL0     C84015  10.558   3.724   7.512 -0.0274 -0.2838 -0.6928
  623MOL0     C84016  10.421   3.705   7.516  0.0927  1.0810  0.8521
  623MOL0     O84017  10.169   3.844   7.538 -0.0513  0.5380  0.2693
  623MOL0     C84018   9.933   3.654   7.361  0.1842 -0.3263 -0.0401
  623MOL0     C84019   9.797   3.624   7.341 -0.4477  0.3565  0.2295
  623MOL0     N84020   8.941   3.958   7.382 -0.4292 -0.4687  0.0113
  623MOL0     N84021   8.824   3.990   7.436  0.3768 -1.0424  0.3255
  623MOL0     C84022   7.865   3.915   8.265 -0.6160 -0.5415  0.5857
  623MOL0     C84023   7.746   3.869   8.319 -0.2041  0.2027 -0.3928
  623MOL0     C84024   7.354   3.621   8.312  0.0449 -0.2629 -0.1731
  623MOL0     C84025   7.274   3.701   8.389  0.7025  0.1288  0.1848
  623MOL0     C84026   7.147   3.645   8.428 -0.0317  0.7142  0.5187
  623MOL0     C84027   7.111   3.519   8.392  1.4785  0.4147 -0.0744
  623MOL0     O84028   6.986   3.463   8.435  0.4419 -0.4291 -0.0340
  623MOL0     C84029   6.866   3.545   8.438 -0.1004 -0.2363  0.4798
  623MOL0     C84030   6.747   3.457   8.433  0.6442  0.7188 -0.4460
  623MOL0     C84031   6.734   3.368   8.305  0.0397 -0.4860 -0.9632
  623MOL0     C84032   6.603   3.295   8.314 -0.2498  0.0646 -0.2240
  623MOL0     C84033   6.603   3.202   8.204 -0.0871 -0.0109  1.0220
  623MOL0     C84034   6.602   3.127   8.108 -0.3970 -0.4156 -0.7617
  623MOL0     C84035   7.185   3.443   8.310  0.0886 -0.3837  0.0100
  623MOL0     C84036   7.314   3.485   8.270 -0.9305 -0.5574 -0.1259
  623MOL0     C84037   7.402   3.391   8.192  0.4459 -0.0851  0.2624
  623MOL0     H84038   7.568   3.878   8.027 -1.0159 -0.1323  1.3085
  623MOL0     H84039   7.790   3.944   7.937 -1.2645 -0.9354 -0.2700
  623MOL0     H84040   8.098   3.840   8.049 -2.4265 -0.3880 -0.8460
  623MOL0     H84041   8.076   3.957   7.917 -0.2226 -2.8399 -0.1563
  623MOL0     H84042   8.245   3.975   8.175 -0.5080  0.5917 -0.3957
  623MOL0     H84043   8.234   4.118   8.074 -0.4513  0.6055  3.0728
  623MOL0     H84044   8.440   4.035   8.040 -0.0335 -0.0728 -0.6408
  623MOL0     H84045   8.332   4.027   7.896 -1.0044  0.3460  0.5803
  623MOL0     H84046   8.460   3.825   8.060  3.1150  3.0760 -1.1067
  623MOL0     H84047   8.301   3.786   7.976 -0.1510  1.4048  1.0468
  623MOL0     H84048   8.526   3.707   7.848  0.2840 -0.1544 -0.3978
  623MOL0     H84049   8.415   3.814   7.759 -0.8637 -2.5889  1.6306
  623MOL0     H84050   8.562   4.005   7.827 -1.4107 -1.4041 -0.3555
  623MOL0     H84051   8.641   3.912   7.947 -1.2068  3.1607  0.0825
  623MOL0     H84052   8.749   3.775   7.759  0.0066  1.0069  2.8586
  623MOL0     H84053   8.803   3.939   7.776  1.7107 -2.1463  1.6511
  623MOL0     H84054   8.593   3.833   7.586  0.4620  0.1647  0.0091
  623MOL0     H84055   8.638   4.005   7.606  1.1308  0.4624  0.4065
  623MOL0     H84056   8.866   3.673   7.538 -1.8193  0.8191  1.1571
  623MOL0     H84057   9.079   3.632   7.433  2.3533 -0.9962  0.6583
  623MOL0     H84058   9.068   3.706   7.283 -1.1286 -1.3514  0.9800
  623MOL0     H84059   9.247   3.877   7.345  3.0819 -1.2736 -0.8304
  623MOL0     H84060   9.228   3.840   7.511 -2.3081  0.4521  0.9008
  623MOL0     H84061   9.339   3.682   7.278  4.2371 -0.5185 -0.4879
  623MOL0     H84062   9.311   3.590   7.420  1.0938 -0.6272 -0.8281
  623MOL0     H84063   9.466   3.745   7.558  0.3009  0.1060 -0.0034
  623MOL0     H84064   9.502   3.835   7.419  3.9633 -0.6131  1.4844
  623MOL0     H84065   9.683   3.817   7.613  0.3342  1.0996 -0.2859
  623MOL0     H84066   9.921   3.869   7.621 -0.6136 -0.7110  1.5779
  623MOL0     H84067  10.370   3.624   7.195 -0.0924  2.7913 -0.9247
  623MOL0     H84068  10.609   3.640   7.181  1.3746 -0.3392  0.6074
  623MOL0     H84069  10.824   3.846   7.559 -1.6744 -0.3852  0.8539
  623MOL0     H84070  10.825   3.680   7.597 -0.2290  0.9838  1.4622
  623MOL0     H84071  11.012   3.758   7.363  1.9076 -0.8510 -0.9425
  623MOL0     H84072  11.058   3.774   7.529 -0.4558  1.5655 -1.3495
  623MOL0     H84073  10.929   3.530   7.381  1.3742  0.1826 -2.0275
  623MOL0     H84074  11.101   3.559   7.399 -0.2954 -0.7687 -1.3470
  623MOL0     H84075  10.902   3.481   7.620 -0.7283  2.8778  2.7956
  623MOL0     H84076  11.056   3.551   7.653 -0.9751  3.2398 -2.0703
  623MOL0     H84077  11.067   3.307   7.672 -2.1708  1.7555  0.6349
  623MOL0     H84078  11.188   3.375   7.557 -0.4778 -2.4619 -0.1686
  623MOL0     H84079  10.924   3.261   7.470  0.2417 -1.6332  1.1439
  623MOL0     H84080  11.053   3.321   7.372 -0.9580  1.8030  0.0278
  623MOL0     H84081  11.219   3.161   7.458  0.0597 -0.7243  0.4190
  623MOL0     H84082  11.104   3.097   7.344  0.6887 -1.0724  0.1104
  623MOL0     H84083  11.128   2.941   7.510  1.7678  0.0330  1.1352
  623MOL0     H84084  11.120   3.062   7.643 -0.6098  0.6587  0.0993
  623MOL0     H84085  10.609   3.752   7.603  4.4484 -3.5664 -1.8307
  623MOL0     H84086  10.375   3.723   7.613  2.7487  2.7148  1.9308
  623MOL0     H84087   9.989   3.622   7.274 -0.4248  1.9975 -1.3790
  623MOL0     H84088   9.772   3.556   7.260  1.6790  1.1741 -1.2142
  623MOL0     H84089   7.960   3.932   8.315 -0.3960  0.6461 -0.1851
  623MOL0     H84090   7.737   3.855   8.427  2.1523 -0.8345 -0.2677
  623MOL0     H84091   7.302   3.800   8.421 -0.0624  0.7380 -0.9471
  623MOL0     H84092   7.084   3.702   8.496  0.6924  1.8832  0.2323
  623MOL0     H84093   6.869   3.612   8.352  0.6575 -1.0936 -0.1784
  623MOL0     H84094   6.851   3.599   8.532 -1.0321 -0.5702  0.5339
  623MOL0     H84095   6.652   3.512   8.440 -0.2729 -0.3671 -3.0152
  623MOL0     H84096   6.747   3.381   8.512  2.4712  0.5641 -0.5537
  623MOL0     H84097   6.816   3.295   8.298  0.1284 -0.2599 -2.5626
  623MOL0     H84098   6.727   3.432   8.217 -4.7481  1.0979  0.2840
  623MOL0     H84099   6.596   3.237   8.407  1.2401 -2.2709 -1.4556
  623MOL0     H84100   6.522   3.368   8.317 -2.5216 -2.2912 -0.5408
  623MOL0     H84101   6.605   3.069   8.018  2.1886 -0.0051 -1.0196
  623MOL0     H84102   7.142   3.349   8.276  0.7727 -1.0030  0.8088
  623MOL0     H84103   7.487   3.360   8.255  1.3192  3.3868  0.9656
  623MOL0     H84104   7.342   3.305   8.159  1.5401 -1.0282  0.6537
  623MOL0     H84105   7.447   3.446   8.109  0.3779 -0.3882  0.0225
  624MOL0     O84106   1.960   2.370   0.309  0.4168  0.7357 -0.4425
  624MOL0     C84107   1.984   2.369   0.431  0.1608 -0.5396 -0.4150
  624MOL0     O84108   2.109   2.398   0.490  0.2733  0.0960  1.2267
  624MOL0     C84109   2.225   2.415   0.419  0.7845 -0.3999  0.1103
  624MOL0     C84110   2.309   2.531   0.443  0.2929 -0.3470 -0.5958
  624MOL0     C84111   2.430   2.532   0.377 -0.0521 -0.5087 -0.0579
  624MOL0     C84112   2.461   2.452   0.269  0.0845  0.6061 -1.9237
  624MOL0     O84113   2.579   2.451   0.200 -0.2889 -0.1979  0.1351
  624MOL0     C84114   2.690   2.538   0.253  0.4950  0.4702 -0.2678
  624MOL0     C84115   2.678   2.686   0.185 -0.0974 -0.7625 -0.8282
  624MOL0     C84116   2.762   2.703   0.056  0.3467 -0.2964  0.1983
  624MOL0     C84117   2.909   2.725   0.070 -1.2125 -0.1100 -0.7520
  624MOL0     C84118   2.946   2.862   0.126 -0.2249 -0.3725  0.1264
  624MOL0     C84119   3.098   2.876   0.118  0.2474 -0.1917 -0.3830
  624MOL0     C84120   3.135   3.021   0.168 -0.3776  1.0729 -0.6526
  624MOL0     C84121   3.276   3.069   0.121  0.6816 -0.5196  0.3859
  624MOL0     N84122   3.281   3.077  -0.027 -0.4469  0.5042  0.4807
  624MOL0     C84123   3.198   3.166  -0.107 -0.2633  0.3681 -1.1173
  624MOL0     C84124   3.234   3.135  -0.229  0.1231 -0.6075  1.3948
  624MOL0     C84125   3.179   3.190  -0.352  0.5458  0.0470  0.4761
  624MOL0     C84126   3.256   3.292  -0.427  0.0641 -0.4535 -0.2210
  624MOL0     C84127   3.380   3.235  -0.492  0.5681  0.8597  0.2892
  624MOL0     C84128   3.430   3.305  -0.620 -0.2523  0.3518 -1.2546
  624MOL0     O84129   3.551   3.232  -0.654  0.4267  0.9454 -0.0227
  624MOL0     C84130   3.618   3.263  -0.770  1.0084  0.5407 -0.0842
  624MOL0     C84131   3.689   3.163  -0.834  1.3927  0.3878  0.0015
  624MOL0     C84132   3.750   3.184  -0.953  0.3011  0.7098 -0.1033
  624MOL0     C84133   3.731   3.311  -1.022 -0.0169 -0.4097  0.1321
  624MOL0     C84134   3.804   3.344  -1.145  0.5949 -0.3195  0.4003
  624MOL0     O84135   3.871   3.249  -1.213  0.6802  0.3343  0.2284
  624MOL0     C84136   3.959   3.285  -1.311 -0.6836  0.5687 -0.0869
  624MOL0     C84137   4.093   3.308  -1.274 -0.4678  0.1107  0.4365
  624MOL0     C84138   4.185   3.356  -1.364  0.6788  0.3103 -0.4704
  624MOL0     C84139   4.152   3.383  -1.497 -0.5344 -0.1415  0.3924
  624MOL0     O84140   4.244   3.450  -1.572  0.8017 -0.2536  0.6042
  624MOL0     C84141   4.375   3.400  -1.570 -0.0910  0.5882 -0.9900
  624MOL0     C84142   4.463   3.437  -1.688 -0.6655  0.3325  0.0551
  624MOL0     C84143   4.395   3.407  -1.826  0.3239  0.0814 -0.1822
  624MOL0     C84144   4.490   3.425  -1.940  0.0070 -0.2726  0.3744
  624MOL0     C84145   4.414   3.442  -2.078  0.3216 -0.0858 -0.6495
  624MOL0     C84146   4.487   3.521  -2.178  0.1698 -0.0870 -0.1083
  624MOL0     C84147   4.608   3.439  -2.241  0.6819 -0.1990  0.1586
  624MOL0     C84148   4.569   3.313  -2.326  0.4350  0.1895  0.5683
  624MOL0    Cl84149   4.719   3.226  -2.398  0.4010  0.1017 -0.1028
  624MOL0     C84150   4.025   3.348  -1.541  0.1189 -0.3605 -0.0994
  624MOL0     C84151   3.928   3.296  -1.450  0.2774 -0.0261  0.4238
  624MOL0     O84152   3.794   3.460  -1.195 -0.0148 -0.1251 -0.4742
  624MOL0     C84153   3.657   3.411  -0.961  0.3916 -0.2281 -0.1694
  624MOL0     C84154   3.601   3.388  -0.834 -0.4950 -0.0727 -0.5249
  624MOL0     N84155   3.319   3.031  -0.228  1.3450  0.4191  0.1980
  624MOL0     N84156   3.349   3.001  -0.111  0.1918  0.4466 -0.0133
  624MOL0     C84157   2.366   2.351   0.237  0.1862 -0.3820 -0.2093
  624MOL0     C84158   2.253   2.328   0.316  0.2555 -0.3303 -1.0392
  624MOL0     C84159   1.875   2.339   0.530  0.5268  0.1238 -0.3550
  624MOL0     C84160   1.903   2.341   0.673 -0.0738 -0.2251  0.8033
  624MOL0     C84161   1.805   2.314   0.770  0.1489 -0.1018 -0.0024
  624MOL0     C84162   1.674   2.285   0.734  0.0708 -0.2449 -0.5553
  624MOL0     O84163   1.591   2.267   0.846  0.4235  0.2040  0.3713
  624MOL0     C84164   1.447   2.304   0.843 -0.0524  0.0761 -0.2340
  624MOL0     C84165   1.422   2.459   0.842  0.5953  0.1928 -0.3326
  624MOL0     C84166   1.432   2.542   0.972 -0.3029 -0.6719  0.4769
  624MOL0     C84167   1.319   2.529   1.068  0.4046  0.2541 -0.2791
  624MOL0     C84168   1.197   2.600   1.034 -0.4433 -0.0741  0.0847
  624MOL0     C84169   1.095   2.650   0.999 -0.3536 -0.0156  0.3994
  624MOL0     C84170   1.646   2.293   0.600 -1.0380 -0.1091  0.0566
  624MOL0     C84171   1.738   2.319   0.497 -0.6133  0.0328 -0.2613
  624MOL0     C84172   1.673   2.326   0.346 -0.1275  0.9913  0.3191
  624MOL0     H84173   2.283   2.610   0.513  1.1368  2.9260 -3.6973
  624MOL0     H84174   2.503   2.608   0.406  0.6470 -1.4840  0.8017
  624MOL0     H84175   2.682   2.528   0.362  1.5367 -3.2274 -0.3961
  624MOL0     H84176   2.788   2.501   0.221  0.8565  2.8138 -2.1852
  624MOL0     H84177   2.722   2.752   0.260 -1.2116 -0.8475 -0.0768
  624MOL0     H84178   2.575   2.721   0.175 -0.5366 -0.4187  3.1649
  624MOL0     H84179   2.713   2.779  -0.006  0.7947 -0.7934 -0.8001
  624MOL0     H84180   2.751   2.607   0.004  0.9805 -0.3815  0.2045
  624MOL0     H84181   2.947   2.651   0.140 -0.9676  1.7971  1.2394
  624MOL0     H84182   2.952   2.698  -0.027 -2.3759 -0.1136 -1.2941
  624MOL0     H84183   2.889   2.933   0.065  0.0167  0.5968  0.9917
  624MOL0     H84184   2.906   2.880   0.226 -2.0752  0.0255 -0.6410
  624MOL0     H84185   3.144   2.797   0.176  1.0464 -2.5397 -3.9043
  624MOL0     H84186   3.133   2.854   0.017 -0.0610  0.8666 -0.7377
  624MOL0     H84187   3.130   3.028   0.277  0.9053 -0.0679 -0.4936
  624MOL0     H84188   3.051   3.086   0.140 -3.1843 -2.1899 -0.5024
  624MOL0     H84189   3.294   3.171   0.156  0.6724 -0.6488  0.7736
  624MOL0     H84190   3.356   3.023   0.179  0.1064 -0.5850  1.1403
  624MOL0     H84191   3.123   3.235  -0.068  2.0766  2.0585  0.6876
  624MOL0     H84192   3.143   3.107  -0.414 -2.1805  1.5974 -0.1759
  624MOL0     H84193   3.099   3.257  -0.319  0.7576  0.5244  0.0349
  624MOL0     H84194   3.193   3.333  -0.507  0.7718  1.0031 -0.0630
  624MOL0     H84195   3.285   3.379  -0.368  1.0963 -0.2927 -0.9372
  624MOL0     H84196   3.366   3.137  -0.539  0.7282  1.3295 -0.7652
  624MOL0     H84197   3.453   3.221  -0.412  0.6237 -0.0518  0.0896
  624MOL0     H84198   3.464   3.404  -0.589  3.4824 -1.4606  1.1785
  624MOL0     H84199   3.358   3.296  -0.703 -2.7851 -2.5368  1.0166
  624MOL0     H84200   3.675   3.064  -0.793 -3.8723  0.6537 -0.4901
  624MOL0     H84201   3.801   3.097  -0.993 -2.0983 -1.0014  0.3723
  624MOL0     H84202   4.121   3.284  -1.171 -0.0810 -2.9186 -0.2878
  624MOL0     H84203   4.283   3.382  -1.325 -0.2979  1.1880  1.5598
  624MOL0     H84204   4.417   3.445  -1.479  2.4321 -2.2690 -0.5768
  624MOL0     H84205   4.372   3.292  -1.559 -3.0892  0.1057 -4.5979
  624MOL0     H84206   4.487   3.544  -1.692  0.3418  0.0812 -2.5979
  624MOL0     H84207   4.556   3.380  -1.685 -0.4560  0.6893  0.3895
  624MOL0     H84208   4.370   3.300  -1.828  1.7593 -0.2741 -0.9346
  624MOL0     H84209   4.306   3.468  -1.843  0.0986 -1.0293 -4.0142
  624MOL0     H84210   4.547   3.331  -1.944 -0.4584 -0.5262 -0.6525
  624MOL0     H84211   4.558   3.508  -1.921 -2.7506  1.9195  1.3314
  624MOL0     H84212   4.322   3.490  -2.044  0.2297 -1.8662  1.9177
  624MOL0     H84213   4.383   3.342  -2.108  2.8931 -0.8148 -1.1717
  624MOL0     H84214   4.415   3.541  -2.258 -1.3465 -1.6612  0.7927
  624MOL0     H84215   4.521   3.618  -2.140 -2.1321  0.9948 -0.6528
  624MOL0     H84216   4.678   3.405  -2.164  0.4295  2.0390  1.4776
  624MOL0     H84217   4.653   3.512  -2.309  3.6863 -0.2181  1.9581
  624MOL0     H84218   4.504   3.248  -2.266 -1.3397 -0.6295 -2.0325
  624MOL0     H84219   4.495   3.349  -2.398 -1.6923  0.4796  2.7503
  624MOL0     H84220   3.998   3.366  -1.645 -1.3664  3.7918  0.8053
  624MOL0     H84221   3.827   3.273  -1.482  0.3634  0.1460  0.0210
  624MOL0     H84222   3.642   3.505  -1.014 -1.2435 -0.3842 -0.0276
  624MOL0     H84223   3.552   3.473  -0.789 -0.7541  1.5190 -3.5627
  624MOL0     H84224   2.382   2.279   0.158 -1.0120 -1.3974  0.4429
  624MOL0     H84225   2.177   2.262   0.275 -0.7287  1.1519 -1.6946
  624MOL0     H84226   2.006   2.357   0.704  0.6892 -4.2979  0.9415
  624MOL0     H84227   1.830   2.301   0.875 -0.7633 -4.6489 -0.1310
  624MOL0     H84228   1.399   2.263   0.932 -0.3382  1.3645  0.2336
  624MOL0     H84229   1.406   2.247   0.760  3.2189 -0.2599 -1.7904
  624MOL0     H84230   1.326   2.476   0.792  0.3591 -4.3791 -1.9656
  624MOL0     H84231   1.483   2.495   0.759  0.2734 -1.0938 -1.1728
  624MOL0     H84232   1.460   2.645   0.948  2.5855 -1.4913  0.0135
  624MOL0     H84233   1.518   2.505   1.028  0.8984  1.2320  0.0116
  624MOL0     H84234   1.297   2.422   1.076 -0.7695  0.4519 -0.6870
  624MOL0     H84235   1.362   2.574   1.158  1.9539 -0.6925 -0.5079
  624MOL0     H84236   1.002   2.695   0.970 -0.5188  0.4328  1.5926
  624MOL0     H84237   1.542   2.290   0.569 -0.8164 -0.1078 -0.7104
  624MOL0     H84238   1.684   2.424   0.300 -0.6223  1.4351  1.1444
  624MOL0     H84239   1.726   2.274   0.266  0.1641  3.8732 -1.5023
  624MOL0     H84240   1.571   2.287   0.350  1.1422 -3.1998 -1.4710
  625MOL0     O84241  10.732   3.402   8.455 -0.9019 -0.0036 -0.3937
  625MOL0     C84242  10.713   3.524   8.429 -0.2554  1.2299 -0.8035
  625MOL0     O84243  10.789   3.629   8.465 -0.5426  0.8075 -0.3350
  625MOL0     C84244  10.920   3.609   8.496 -0.2869 -0.4392 -0.5247
  625MOL0     C84245  10.999   3.503   8.446  0.4300 -0.5454  0.5582
  625MOL0     C84246  11.128   3.482   8.484 -0.2592  0.4168 -0.0856
  625MOL0     C84247  11.188   3.561   8.584  0.0346  0.5634  0.8369
  625MOL0     O84248  11.313   3.536   8.628  0.2088  0.3349 -0.1508
  625MOL0     C84249  11.404   3.473   8.532  0.3313  0.3746  0.6631
  625MOL0     C84250  11.549   3.493   8.589 -0.0312  0.4076  0.5359
  625MOL0     C84251  11.577   3.651   8.613 -0.4649 -0.3328 -0.1619
  625MOL0     C84252  11.719   3.672   8.547 -0.4548 -0.7355 -0.0099
  625MOL0     C84253  11.746   3.824   8.571 -0.5877 -0.5185 -0.4581
  625MOL0     C84254  11.900   3.855   8.576 -0.1840 -0.0775  0.1121
  625MOL0     C84255  11.917   4.008   8.575 -0.7006 -0.2271 -0.7095
  625MOL0     C84256  12.063   4.063   8.584  0.0685  0.3804  0.2927
  625MOL0     N84257  12.086   4.176   8.674 -0.4317 -0.2559 -0.8187
  625MOL0     C84258  12.157   4.176   8.799  0.8996 -0.1182 -0.3389
  625MOL0     C84259  12.169   4.295   8.836  1.1571 -0.9895 -0.8912
  625MOL0     C84260  12.259   4.337   8.952  0.9486 -0.0418 -0.0256
  625MOL0     C84261  12.389   4.416   8.909 -0.0490 -0.3149 -0.6277
  625MOL0     C84262  12.485   4.327   8.841  0.2856 -0.1857  0.2593
  625MOL0     C84263  12.626   4.383   8.828 -0.9117  0.5530 -0.0638
  625MOL0     O84264  12.644   4.480   8.719 -0.2999 -0.3252 -0.5489
  625MOL0     C84265  12.764   4.528   8.681 -0.1398  0.1414  0.7284
  625MOL0     C84266  12.748   4.620   8.575 -1.0047  0.3408 -0.3292
  625MOL0     C84267  12.861   4.666   8.506  0.3564  0.2640  0.4513
  625MOL0     C84268  12.992   4.626   8.551 -0.0492  1.4117 -0.2388
  625MOL0     C84269  13.112   4.675   8.479  0.4785 -0.0899  0.6921
  625MOL0     O84270  13.223   4.620   8.537  0.2623 -0.1359  0.7643
  625MOL0     C84271  13.331   4.657   8.477 -0.5172 -0.2971 -0.2240
  625MOL0     C84272  13.398   4.555   8.412  0.1957  1.2373  0.4203
  625MOL0     C84273  13.522   4.578   8.357 -0.5101 -0.0412  0.0555
  625MOL0     C84274  13.582   4.705   8.363 -0.4150  0.5989  0.1367
  625MOL0     O84275  13.712   4.716   8.316 -0.0218  0.0134 -0.0152
  625MOL0     C84276  13.727   4.833   8.237 -1.4992  0.5298 -0.6264
  625MOL0     C84277  13.832   4.802   8.131 -0.0918 -0.6625  0.3270
  625MOL0     C84278  13.966   4.776   8.190 -0.4143  0.5905  0.1096
  625MOL0     C84279  14.065   4.728   8.081 -0.4589 -0.2522  0.4620
  625MOL0     C84280  14.204   4.714   8.145  0.5336  0.3249 -0.0083
  625MOL0     C84281  14.320   4.724   8.047  0.2502  0.1743  0.4817
  625MOL0     C84282  14.452   4.749   8.120 -0.5904  0.4132 -1.1067
  625MOL0     C84283  14.574   4.717   8.024  0.0433  0.0191  0.1939
  625MOL0    Cl84284  14.574   4.841   7.895 -0.1537  0.0742 -0.4478
  625MOL0     C84285  13.520   4.805   8.436  0.7227  0.2083 -0.0673
  625MOL0     C84286  13.391   4.785   8.493  0.0528  0.5840  1.0833
  625MOL0     O84287  13.097   4.749   8.376 -0.2516  0.7664 -0.2993
  625MOL0     C84288  13.002   4.541   8.661  0.0639  0.2016  0.5276
  625MOL0     C84289  12.890   4.486   8.715  0.5166  1.2108 -0.5247
  625MOL0     N84290  12.110   4.388   8.745 -0.3726  1.0490  0.3896
  625MOL0     N84291  12.059   4.311   8.643  0.3017  0.6647 -0.8888
  625MOL0     C84292  11.118   3.665   8.631 -0.5162 -0.3849  0.3718
  625MOL0     C84293  10.984   3.691   8.588  0.1770 -0.2741  0.0366
  625MOL0     C84294  10.576   3.564   8.381  0.4764  1.1348  0.1763
  625MOL0     C84295  10.523   3.691   8.405  0.3324  0.9128 -0.2184
  625MOL0     C84296  10.389   3.732   8.372  0.4712 -0.4318  0.1752
  625MOL0     C84297  10.310   3.641   8.309 -0.8871  0.0909  1.3451
  625MOL0     O84298  10.185   3.683   8.276 -0.7011 -0.9289 -0.0933
  625MOL0     C84299  10.083   3.586   8.253 -0.5988  0.5950  0.1303
  625MOL0     C84300   9.949   3.644   8.262  0.3290  0.0413  0.2727
  625MOL0     C84301   9.927   3.735   8.389  1.0469  0.8678 -0.5794
  625MOL0     C84302   9.886   3.644   8.502  0.5412 -0.9159  0.0725
  625MOL0     C84303   9.744   3.606   8.487 -1.5869  0.0777  0.4795
  625MOL0     C84304   9.633   3.567   8.452 -0.5523 -0.0468 -0.6675
  625MOL0     C84305  10.368   3.519   8.273 -0.1056 -0.7282 -0.1309
  625MOL0     C84306  10.497   3.480   8.301  0.0830 -0.6648 -0.3538
  625MOL0     C84307  10.531   3.345   8.246  0.6023 -0.6755 -0.2120
  625MOL0     H84308  10.961   3.425   8.380  0.9095 -2.6195  2.6067
  625MOL0     H84309  11.182   3.403   8.432  0.7644  0.7463  0.4532
  625MOL0     H84310  11.373   3.368   8.523 -0.8641  0.6400  1.5736
  625MOL0     H84311  11.386   3.527   8.438 -1.4915  1.8419  1.7893
  625MOL0     H84312  11.611   3.441   8.516 -0.5687  0.7210 -0.1574
  625MOL0     H84313  11.562   3.435   8.681 -0.2089 -1.6593 -0.6782
  625MOL0     H84314  11.577   3.666   8.722 -2.3382  4.2870 -0.5244
  625MOL0     H84315  11.501   3.722   8.579 -0.6891 -0.2821  0.4250
  625MOL0     H84316  11.788   3.604   8.598  0.3512  0.0667  0.0047
  625MOL0     H84317  11.711   3.664   8.439 -0.3206  3.2728 -0.4942
  625MOL0     H84318  11.707   3.881   8.486  3.3758  0.7785 -1.6452
  625MOL0     H84319  11.699   3.853   8.665  1.0849  0.6438  0.0556
  625MOL0     H84320  11.938   3.809   8.668  2.9263  0.4751 -0.7849
  625MOL0     H84321  11.956   3.820   8.489  1.1256  1.4352  0.2931
  625MOL0     H84322  11.868   4.034   8.669  1.4048  0.1007  0.3688
  625MOL0     H84323  11.872   4.048   8.484  2.6228  1.3902 -1.8270
  625MOL0     H84324  12.132   3.979   8.601 -0.3241  0.3656  1.9402
  625MOL0     H84325  12.065   4.097   8.480 -2.6022 -0.6996 -0.2044
  625MOL0     H84326  12.211   4.090   8.838 -0.8564 -1.1637 -0.0811
  625MOL0     H84327  12.191   4.386   9.022  1.3511 -2.2891  2.0788
  625MOL0     H84328  12.284   4.248   9.011 -1.7455  1.0729  3.0824
  625MOL0     H84329  12.368   4.508   8.854  1.3361 -0.7765 -1.9872
  625MOL0     H84330  12.440   4.445   9.002 -0.1761 -1.5526 -0.1543
  625MOL0     H84331  12.448   4.297   8.743  2.7472  1.3095 -1.2509
  625MOL0     H84332  12.492   4.234   8.897 -1.0905 -1.4503 -1.5628
  625MOL0     H84333  12.685   4.293   8.809 -1.0921 -0.5889  3.9085
  625MOL0     H84334  12.656   4.424   8.925  1.8239  0.6455 -0.8675
  625MOL0     H84335  12.651   4.652   8.537  0.6541  3.2475 -2.5292
  625MOL0     H84336  12.850   4.731   8.421 -0.4443 -1.1694 -0.5827
  625MOL0     H84337  13.343   4.463   8.398 -0.5283  1.2541  2.7658
  625MOL0     H84338  13.574   4.506   8.295 -1.8850 -0.9883 -0.0335
  625MOL0     H84339  13.636   4.874   8.193 -0.3663  2.8613 -0.9232
  625MOL0     H84340  13.768   4.914   8.299 -0.5784  0.4686 -1.1331
  625MOL0     H84341  13.784   4.715   8.085 -0.7065  0.3338 -0.9903
  625MOL0     H84342  13.831   4.883   8.057  0.8217  0.8078  1.8556
  625MOL0     H84343  13.992   4.869   8.240  0.1141  0.3705  0.2536
  625MOL0     H84344  13.950   4.702   8.268 -3.4930  2.1237  1.1019
  625MOL0     H84345  14.076   4.804   8.003  1.9497  0.1403  1.0704
  625MOL0     H84346  14.026   4.640   8.030  0.1947  0.3798 -1.2022
  625MOL0     H84347  14.208   4.622   8.203 -0.8056  0.7172  0.7553
  625MOL0     H84348  14.218   4.795   8.216  1.5278 -0.0374  0.2168
  625MOL0     H84349  14.326   4.635   7.985 -3.9216  0.7415 -1.0334
  625MOL0     H84350  14.307   4.811   7.981 -0.2081 -2.2553 -2.8430
  625MOL0     H84351  14.470   4.696   8.214 -1.5651  3.2497  0.7847
  625MOL0     H84352  14.442   4.853   8.152 -1.4869  0.3205 -1.0587
  625MOL0     H84353  14.675   4.712   8.066  0.4734  0.9014 -0.7101
  625MOL0     H84354  14.570   4.615   7.984 -0.5014 -1.4981  3.7149
  625MOL0     H84355  13.571   4.900   8.446 -0.8727  1.4348 -2.5213
  625MOL0     H84356  13.347   4.860   8.559 -0.3253  1.1975  0.1604
  625MOL0     H84357  13.092   4.497   8.703  0.6735 -1.0098 -1.8450
  625MOL0     H84358  12.904   4.410   8.791  0.5877  1.0504 -0.6987
  625MOL0     H84359  11.162   3.723   8.712 -2.8124  1.0293  0.7226
  625MOL0     H84360  10.935   3.787   8.596  0.8850  0.2103 -1.2484
  625MOL0     H84361  10.593   3.753   8.461  2.4088 -0.7147 -0.8800
  625MOL0     H84362  10.363   3.835   8.394 -1.7623 -0.4280 -2.0220
  625MOL0     H84363  10.094   3.508   8.329  0.1134  2.8015  2.4404
  625MOL0     H84364  10.095   3.530   8.160 -2.5984 -1.3758  0.9929
  625MOL0     H84365   9.876   3.563   8.249 -0.6546  0.9381  0.1063
  625MOL0     H84366   9.939   3.698   8.167 -0.4568 -0.1262  0.2557
  625MOL0     H84367   9.846   3.808   8.381 -0.5825 -0.3950  2.6105
  625MOL0     H84368  10.015   3.792   8.419  0.7652  0.5429  0.9229
  625MOL0     H84369   9.944   3.551   8.495  3.7334  1.0058 -5.1107
  625MOL0     H84370   9.886   3.706   8.592  1.1457 -0.3872 -0.2815
  625MOL0     H84371   9.533   3.538   8.426 -0.9825  0.0172  0.8244
  625MOL0     H84372  10.305   3.452   8.215  0.2966  0.5625 -2.1436
  625MOL0     H84373  10.635   3.343   8.211  1.0991  1.2043  1.0003
  625MOL0     H84374  10.518   3.269   8.324  2.1555 -0.2418  0.5065
  625MOL0     H84375  10.472   3.316   8.159  1.6384  1.5132 -1.7140
  626MOL0     O84376   3.196   7.698   3.222  0.3679  0.0103 -0.4266
  626MOL0     C84377   3.127   7.666   3.316 -0.0017 -0.4846  0.1598
  626MOL0     O84378   3.156   7.560   3.396  0.0716 -0.3082  0.0663
  626MOL0     C84379   3.269   7.488   3.378  0.1277  0.9236 -0.9696
  626MOL0     C84380   3.355   7.475   3.491  0.3824  0.4528 -0.5510
  626MOL0     C84381   3.470   7.399   3.475 -0.2472 -0.1655 -0.4628
  626MOL0     C84382   3.506   7.337   3.352  0.3013 -0.3985 -0.6740
  626MOL0     O84383   3.617   7.251   3.336 -0.8045 -0.7327  0.7974
  626MOL0     C84384   3.723   7.268   3.435 -0.3329 -0.4132  0.9036
  626MOL0     C84385   3.848   7.187   3.393 -0.5098  0.1252  0.1709
  626MOL0     C84386   3.838   7.037   3.422 -0.1690  1.0922 -0.0920
  626MOL0     C84387   3.804   6.958   3.296 -0.4229 -0.1844 -0.2129
  626MOL0     C84388   3.929   6.951   3.198  0.2492  0.0536  0.1258
  626MOL0     C84389   3.887   6.862   3.072  0.3601 -1.2425  0.0145
  626MOL0     C84390   3.998   6.875   2.960  1.2259  0.6838  0.7802
  626MOL0     C84391   3.958   6.785   2.841 -0.7557 -0.3826 -0.1753
  626MOL0     N84392   3.989   6.647   2.855  0.8843  0.1574  0.4439
  626MOL0     C84393   4.115   6.598   2.846  0.7526 -0.2044  0.4052
  626MOL0     C84394   4.110   6.485   2.926 -0.6086 -0.3654 -0.2265
  626MOL0     C84395   4.223   6.383   2.938  0.0998  0.9920 -0.2656
  626MOL0     C84396   4.356   6.441   3.012  0.6343 -0.8514 -0.5919
  626MOL0     C84397   4.427   6.334   3.089  0.5006  0.7463 -0.5837
  626MOL0     C84398   4.568   6.362   3.141 -0.6938 -0.1167 -0.4438
  626MOL0     O84399   4.660   6.387   3.033  0.2627 -0.0332 -0.4585
  626MOL0     C84400   4.756   6.289   3.011 -0.3600  0.0940  0.3572
  626MOL0     C84401   4.881   6.322   2.968  0.0818 -0.4765  0.5221
  626MOL0     C84402   4.982   6.231   2.943  0.3200  0.1556  0.6670
  626MOL0     C84403   4.962   6.092   2.954  0.0848 -0.5240 -0.7276
  626MOL0     C84404   5.068   5.993   2.912 -0.5045  0.1292 -0.1205
  626MOL0     O84405   5.048   5.860   2.941  0.4334 -0.1749  0.4958
  626MOL0     C84406   5.140   5.762   2.937 -0.2411  0.4628 -0.2937
  626MOL0     C84407   5.088   5.632   2.938  0.6823 -0.1215 -0.2126
  626MOL0     C84408   5.167   5.520   2.949  0.5908  0.3823  0.3704
  626MOL0     C84409   5.305   5.532   2.954  0.8109  0.2450 -0.0106
  626MOL0     O84410   5.379   5.419   2.990 -0.5686 -0.1952 -0.6241
  626MOL0     C84411   5.514   5.451   3.024 -0.3510  0.0109  0.6263
  626MOL0     C84412   5.571   5.328   3.092  0.5787 -0.2348 -0.3546
  626MOL0     C84413   5.725   5.329   3.082 -0.1650 -0.0791  0.3655
  626MOL0     C84414   5.789   5.404   3.189 -0.2958  0.3764  0.8810
  626MOL0     C84415   5.943   5.401   3.159  0.5826 -0.2447 -0.9227
  626MOL0     C84416   6.011   5.502   3.252 -0.3835  0.0142  0.0111
  626MOL0     C84417   6.163   5.525   3.249  0.6135  0.3466  1.0950
  626MOL0     C84418   6.204   5.591   3.117 -0.5207 -0.4245 -0.3034
  626MOL0    Cl84419   6.116   5.735   3.057 -0.2927  0.5215 -0.0620
  626MOL0     C84420   5.359   5.665   2.944 -0.3519  0.2546 -0.3866
  626MOL0     C84421   5.280   5.776   2.938  0.3112  0.1710  0.7562
  626MOL0     O84422   5.171   6.044   2.870  0.2686  0.4318 -0.3573
  626MOL0     C84423   4.830   6.053   2.995  0.7714 -0.3128 -0.1433
  626MOL0     C84424   4.736   6.154   3.029 -0.2973  0.0017 -0.2941
  626MOL0     N84425   3.979   6.464   2.968 -0.1901 -0.7387  0.3301
  626MOL0     N84426   3.910   6.563   2.926 -0.7399 -0.2985 -0.8760
  626MOL0     C84427   3.420   7.357   3.241 -0.9572 -0.0439 -0.5266
  626MOL0     C84428   3.299   7.429   3.251 -0.6863 -0.0450 -0.0420
  626MOL0     C84429   3.016   7.756   3.349 -0.0518 -0.0908  0.0151
  626MOL0     C84430   2.972   7.750   3.479 -0.2805  0.1247 -0.6406
  626MOL0     C84431   2.868   7.840   3.525  0.2162  0.3323 -0.8771
  626MOL0     C84432   2.806   7.924   3.436 -0.1851 -0.9471 -0.2868
  626MOL0     O84433   2.706   8.009   3.483 -0.2566  0.0838 -0.1502
  626MOL0     C84434   2.754   8.138   3.518 -0.5667 -0.6503 -0.3963
  626MOL0     C84435   2.646   8.244   3.522  0.5140 -0.9037  0.8335
  626MOL0     C84436   2.699   8.389   3.545 -0.1856 -0.2661  0.0364
  626MOL0     C84437   2.601   8.489   3.476 -1.1465  0.1368  0.7539
  626MOL0     C84438   2.602   8.620   3.540 -0.7695  0.5337  0.4538
  626MOL0     C84439   2.602   8.731   3.590  0.1046 -0.6243 -0.5274
  626MOL0     C84440   2.847   7.931   3.307 -0.6174 -0.4995  0.0265
  626MOL0     C84441   2.952   7.855   3.261 -0.5805  0.1022 -0.5071
  626MOL0     C84442   3.000   7.873   3.124  0.3174  0.5046  0.2326
  626MOL0     H84443   3.319   7.512   3.587  1.3528 -0.0289  0.0189
  626MOL0     H84444   3.520   7.373   3.568  2.6009  3.3976 -0.7900
  626MOL0     H84445   3.746   7.375   3.432 -0.9111 -0.3065 -0.9006
  626MOL0     H84446   3.688   7.246   3.536  1.2165 -2.3494  1.0707
  626MOL0     H84447   3.934   7.226   3.448 -1.9619  0.4305  2.3575
  626MOL0     H84448   3.873   7.198   3.287  4.7742 -0.8684  1.0288
  626MOL0     H84449   3.765   7.022   3.503 -1.4004  0.3416 -1.2968
  626MOL0     H84450   3.933   7.003   3.463  0.1747  1.4899 -0.5495
  626MOL0     H84451   3.784   6.854   3.320 -0.2432  0.0352  0.9348
  626MOL0     H84452   3.712   6.994   3.248  0.2333  2.7636  0.5048
  626MOL0     H84453   3.954   7.051   3.162 -1.0695 -0.0540 -1.1914
  626MOL0     H84454   4.014   6.905   3.250 -1.0951 -0.3150  2.0875
  626MOL0     H84455   3.872   6.756   3.095  0.5363 -1.1614  0.5130
  626MOL0     H84456   3.791   6.891   3.030 -0.4964 -0.0923  2.5438
  626MOL0     H84457   4.090   6.848   3.012 -0.0816  0.1678  2.9762
  626MOL0     H84458   3.996   6.979   2.927 -2.1133 -0.0594 -1.9212
  626MOL0     H84459   3.856   6.796   2.803 -0.2211 -1.3055 -1.9750
  626MOL0     H84460   4.018   6.824   2.758  0.2239 -0.1838  0.6159
  626MOL0     H84461   4.205   6.636   2.798  1.0413 -3.0271 -1.5342
  626MOL0     H84462   4.181   6.295   2.988 -2.0377  0.5394 -2.5936
  626MOL0     H84463   4.254   6.348   2.839 -1.8367  0.7252 -0.8250
  626MOL0     H84464   4.420   6.497   2.944  2.2347  0.5988  1.9538
  626MOL0     H84465   4.332   6.511   3.093  1.3797 -4.8362  3.4970
  626MOL0     H84466   4.438   6.244   3.027 -0.6393  0.1995 -0.0336
  626MOL0     H84467   4.370   6.303   3.178  2.7360  0.6046  0.8672
  626MOL0     H84468   4.610   6.282   3.204 -0.2826  1.0454  0.8229
  626MOL0     H84469   4.567   6.441   3.217 -0.9468  0.3512 -0.9310
  626MOL0     H84470   4.902   6.427   2.947 -1.2438 -0.2906  0.0234
  626MOL0     H84471   5.077   6.268   2.904  0.0090  0.7420  0.4625
  626MOL0     H84472   4.980   5.623   2.943  0.5236  1.1457 -0.9303
  626MOL0     H84473   5.123   5.422   2.964  2.9514 -0.4299  2.7863
  626MOL0     H84474   5.574   5.485   2.939  2.7622 -0.8745  2.3401
  626MOL0     H84475   5.521   5.536   3.092  0.9328  2.3745 -2.2522
  626MOL0     H84476   5.534   5.335   3.194  1.7367  0.5720  0.0325
  626MOL0     H84477   5.532   5.234   3.053  4.2339 -2.1942  0.2628
  626MOL0     H84478   5.756   5.224   3.085  0.5386 -0.1589 -3.9478
  626MOL0     H84479   5.749   5.366   2.982  3.2475  2.2430  1.8502
  626MOL0     H84480   5.776   5.358   3.288  0.8130 -3.0282 -0.4190
  626MOL0     H84481   5.759   5.507   3.168  1.3585  0.3095 -2.3372
  626MOL0     H84482   5.963   5.434   3.056  1.5748  1.9445 -0.0893
  626MOL0     H84483   5.989   5.305   3.183 -0.0074 -0.3702 -0.2617
  626MOL0     H84484   5.959   5.597   3.238  0.2787  0.5137  0.8318
  626MOL0     H84485   5.985   5.481   3.356  0.8978  0.3140  0.4070
  626MOL0     H84486   6.224   5.436   3.270  1.1777  0.8706  1.7322
  626MOL0     H84487   6.177   5.595   3.331 -1.1649  2.9724 -0.6979
  626MOL0     H84488   6.309   5.617   3.135 -1.0267  0.4205  1.8268
  626MOL0     H84489   6.203   5.511   3.043  2.6119 -1.5982  0.7545
  626MOL0     H84490   5.465   5.683   2.940 -0.6023  2.8098  1.7898
  626MOL0     H84491   5.320   5.873   2.910  0.6446 -0.5788 -1.5453
  626MOL0     H84492   4.782   5.956   3.008  1.6898 -0.4589  2.9549
  626MOL0     H84493   4.634   6.119   3.046 -1.1373  1.6886 -1.5483
  626MOL0     H84494   3.447   7.311   3.146  1.2690 -0.8195  0.3946
  626MOL0     H84495   3.226   7.423   3.171 -1.6423 -0.2362  0.8232
  626MOL0     H84496   3.011   7.680   3.552 -1.7851 -1.3216 -1.1474
  626MOL0     H84497   2.831   7.830   3.627  0.7775  0.6857 -0.6330
  626MOL0     H84498   2.835   8.157   3.446  1.9094 -2.0707  1.8157
  626MOL0     H84499   2.823   8.127   3.602  1.0714 -0.7176 -1.6853
  626MOL0     H84500   2.564   8.216   3.588  2.4457 -0.9596  3.3863
  626MOL0     H84501   2.613   8.233   3.418  0.2731 -3.4422  1.1254
  626MOL0     H84502   2.796   8.403   3.496  0.4424  2.6103  1.8437
  626MOL0     H84503   2.717   8.414   3.650 -0.7498 -0.6499  0.2252
  626MOL0     H84504   2.630   8.492   3.370 -1.0915  0.9775  0.7872
  626MOL0     H84505   2.499   8.452   3.464 -0.4829 -1.4609 -0.5241
  626MOL0     H84506   2.592   8.829   3.631  0.2587 -1.2205  0.9709
  626MOL0     H84507   2.796   8.005   3.247  1.3108  1.6104  0.8395
  626MOL0     H84508   2.936   7.941   3.068  2.3103  0.0058 -2.8788
  626MOL0     H84509   3.101   7.916   3.124  1.2605 -1.5205  1.4559
  626MOL0     H84510   2.990   7.783   3.063  0.5612  2.0839 -2.2827
  627MOL0     O84511   6.020   1.815   1.289 -0.3354 -0.1595  0.2999
  627MOL0     C84512   5.939   1.898   1.325 -0.3336  0.8343  0.0419
  627MOL0     O84513   5.978   2.009   1.400  0.2630 -0.0638 -0.2714
  627MOL0     C84514   6.113   2.032   1.419  0.3090  0.5105  0.3098
  627MOL0     C84515   6.176   1.958   1.523  0.0487  0.5002  0.9562
  627MOL0     C84516   6.317   1.969   1.540  0.8439 -0.8068 -0.2173
  627MOL0     C84517   6.389   2.058   1.456 -0.7268 -0.3602  0.3635
  627MOL0     O84518   6.520   2.090   1.467  0.1206 -0.1442 -0.3148
  627MOL0     C84519   6.597   2.005   1.552 -0.4845  0.3291  0.1711
  627MOL0     C84520   6.738   2.045   1.507  0.2865  0.3239  0.6418
  627MOL0     C84521   6.853   2.006   1.604 -0.5446  0.0693 -0.0735
  627MOL0     C84522   6.993   2.036   1.550  0.3758 -1.2114 -0.2301
  627MOL0     C84523   7.117   2.001   1.645  0.5117  0.6731  0.6960
  627MOL0     C84524   7.247   2.041   1.569  0.4768  0.4661  0.3401
  627MOL0     C84525   7.366   2.013   1.660 -0.2590  0.3632 -0.4294
  627MOL0     C84526   7.487   2.062   1.580  0.0287  0.1453  0.2097
  627MOL0     N84527   7.611   2.057   1.647 -0.5956 -0.0173 -0.3319
  627MOL0     C84528   7.678   2.158   1.717 -0.0839  0.0754  0.4750
  627MOL0     C84529   7.784   2.097   1.768 -0.7361  0.0266  0.4253
  627MOL0     C84530   7.902   2.166   1.832 -0.3797  0.2850 -0.7061
  627MOL0     C84531   8.037   2.113   1.776 -0.5912 -0.4775 -0.0330
  627MOL0     C84532   8.161   2.166   1.848 -0.1542  0.0400 -0.0669
  627MOL0     C84533   8.288   2.110   1.813  0.0452 -0.0642  0.3385
  627MOL0     O84534   8.312   2.173   1.686 -0.0746 -0.0860  0.7221
  627MOL0     C84535   8.445   2.170   1.651 -0.4465 -0.1230 -0.4793
  627MOL0     C84536   8.485   2.253   1.537  0.2744 -0.4011  0.5357
  627MOL0     C84537   8.615   2.254   1.496 -0.3483 -0.3359 -0.7588
  627MOL0     C84538   8.715   2.178   1.559  0.8833 -0.0330  0.6641
  627MOL0     C84539   8.854   2.188   1.504  0.5261 -0.7060 -0.4069
  627MOL0     O84540   8.941   2.113   1.572 -0.0622  0.0877  0.2244
  627MOL0     C84541   9.070   2.122   1.538 -0.0257  0.1785  0.2962
  627MOL0     C84542   9.154   2.206   1.618  0.8741  0.4929  0.6045
  627MOL0     C84543   9.286   2.234   1.570  0.5669 -0.3539  0.3315
  627MOL0     C84544   9.326   2.190   1.436 -0.4242 -0.1993  0.1775
  627MOL0     O84545   9.443   2.212   1.371 -0.0682 -0.0447 -0.5097
  627MOL0     C84546   9.551   2.301   1.419  0.0455 -0.0578 -0.2791
  627MOL0     C84547   9.672   2.221   1.455 -0.6432  0.0742 -0.5086
  627MOL0     C84548   9.793   2.314   1.490 -0.4595  0.0057  0.3988
  627MOL0     C84549   9.934   2.244   1.475 -0.9895  0.1206  0.9110
  627MOL0     C84550  10.044   2.350   1.439 -0.3886 -0.1162 -0.0540
  627MOL0     C84551  10.055   2.389   1.294 -0.4590 -0.6606 -0.4001
  627MOL0     C84552  10.199   2.460   1.268  0.6967  0.2157 -0.2445
  627MOL0     C84553  10.206   2.530   1.132 -1.0348 -0.1884 -0.0060
  627MOL0    Cl84554  10.378   2.576   1.135  0.4164 -0.0644 -0.0093
  627MOL0     C84555   9.239   2.108   1.360  0.0886  0.1382 -0.4733
  627MOL0     C84556   9.120   2.065   1.417 -0.1698 -0.1686  0.7225
  627MOL0     O84557   8.876   2.241   1.395 -0.1834  0.3917  0.1597
  627MOL0     C84558   8.673   2.093   1.659 -0.2686  0.1982  0.3966
  627MOL0     C84559   8.544   2.095   1.711  0.1850  0.4852  0.2172
  627MOL0     N84560   7.784   1.961   1.741 -0.0156  0.7158  0.2125
  627MOL0     N84561   7.678   1.938   1.676  0.1968  0.2578  0.2095
  627MOL0     C84562   6.324   2.128   1.355 -0.1373  0.3326  0.9912
  627MOL0     C84563   6.181   2.119   1.335 -0.1309 -0.1362  0.1399
  627MOL0     C84564   5.792   1.869   1.302 -0.4706 -0.7662 -0.2505
  627MOL0     C84565   5.704   1.959   1.370 -0.7199  0.1272  0.2026
  627MOL0     C84566   5.564   1.934   1.372  0.3056  0.6740  0.2042
  627MOL0     C84567   5.505   1.836   1.298 -0.3369 -0.8632  0.2678
  627MOL0     O84568   5.369   1.830   1.288 -0.0491 -0.0377 -0.7711
  627MOL0     C84569   5.298   1.766   1.183  0.4391  0.0453 -0.5015
  627MOL0     C84570   5.148   1.776   1.198  0.3316 -0.2725  0.5016
  627MOL0     C84571   5.090   1.698   1.317  0.3070  0.3581 -0.2592
  627MOL0     C84572   5.089   1.793   1.439  0.2387 -0.3377 -0.3401
  627MOL0     C84573   5.061   1.731   1.569  0.1662  0.3777 -0.0031
  627MOL0     C84574   5.037   1.672   1.675  0.0489 -0.2311  0.6511
  627MOL0     C84575   5.590   1.761   1.221  1.0373  0.9249 -0.0702
  627MOL0     C84576   5.727   1.773   1.227 -0.4089  1.1140 -0.0085
  627MOL0     C84577   5.801   1.657   1.163 -0.1910 -0.1562  0.4661
  627MOL0     H84578   6.120   1.882   1.578 -1.1884 -0.8188 -1.9363
  627MOL0     H84579   6.372   1.913   1.614  1.5058  1.9684  1.5356
  627MOL0     H84580   6.577   2.038   1.655 -1.6530  3.4033 -0.9250
  627MOL0     H84581   6.589   1.896   1.552 -1.7392  0.4006  0.4893
  627MOL0     H84582   6.741   2.153   1.493  1.7030 -0.0556 -3.2083
  627MOL0     H84583   6.750   2.019   1.401 -1.0851  3.0651 -0.2882
  627MOL0     H84584   6.854   1.896   1.602 -0.5512  0.0535  0.6413
  627MOL0     H84585   6.831   2.037   1.707 -3.1038 -0.6013 -0.3393
  627MOL0     H84586   7.007   1.988   1.453 -2.3203 -0.5013 -1.0645
  627MOL0     H84587   6.989   2.141   1.521 -1.5150 -0.4388  2.4302
  627MOL0     H84588   7.115   2.048   1.743  1.7608 -0.8790  1.5107
  627MOL0     H84589   7.117   1.894   1.667  0.6639  0.3479 -0.7879
  627MOL0     H84590   7.260   1.999   1.469 -1.9318 -3.6681  1.5367
  627MOL0     H84591   7.255   2.150   1.564  2.1333  0.3028 -1.3762
  627MOL0     H84592   7.366   1.907   1.686 -0.4187  0.6436  0.7824
  627MOL0     H84593   7.352   2.054   1.761  1.6642 -2.5299  1.1545
  627MOL0     H84594   7.495   2.004   1.487 -3.1712 -4.3794  2.3716
  627MOL0     H84595   7.480   2.168   1.551 -0.5550  0.0498 -0.0128
  627MOL0     H84596   7.657   2.265   1.719 -1.8484 -0.1431 -1.9170
  627MOL0     H84597   7.902   2.275   1.819  3.1190  1.0982  3.5948
  627MOL0     H84598   7.902   2.147   1.940  1.8818  1.0588 -0.4952
  627MOL0     H84599   8.047   2.004   1.785  1.5797 -0.3429 -0.2664
  627MOL0     H84600   8.057   2.138   1.672  0.2989 -2.7640 -0.4714
  627MOL0     H84601   8.151   2.143   1.955 -1.6050 -3.6219 -0.8075
  627MOL0     H84602   8.177   2.273   1.838  2.8463 -0.2286  0.8726
  627MOL0     H84603   8.277   2.002   1.796  0.6608  0.0360 -0.8046
  627MOL0     H84604   8.368   2.137   1.882  2.2878  1.6527 -2.7058
  627MOL0     H84605   8.417   2.315   1.478  1.4296 -0.1948 -0.6245
  627MOL0     H84606   8.654   2.319   1.418  3.6472 -0.8316  0.5688
  627MOL0     H84607   9.119   2.261   1.705 -0.7696  2.0603 -0.9690
  627MOL0     H84608   9.350   2.305   1.622 -0.5406 -0.5336  2.0185
  627MOL0     H84609   9.580   2.375   1.344  1.2492 -0.6095 -0.3847
  627MOL0     H84610   9.516   2.355   1.508  1.5988  2.0865 -0.8806
  627MOL0     H84611   9.663   2.135   1.522  0.5067 -0.9476 -1.6215
  627MOL0     H84612   9.706   2.169   1.365  0.3529 -0.8730  0.3800
  627MOL0     H84613   9.779   2.409   1.439  0.9261  2.2546  3.8261
  627MOL0     H84614   9.783   2.348   1.594 -1.2652 -2.3309  1.1649
  627MOL0     H84615   9.933   2.175   1.389  1.6076 -0.3948  1.2137
  627MOL0     H84616   9.969   2.196   1.566 -2.1043 -2.5813  0.0309
  627MOL0     H84617  10.141   2.308   1.466 -0.5800  1.1281  2.9450
  627MOL0     H84618  10.020   2.433   1.507 -2.8388 -1.4999  0.9013
  627MOL0     H84619  10.044   2.299   1.233 -1.9205 -0.7291 -0.0645
  627MOL0     H84620   9.974   2.453   1.256 -1.4663 -1.2672  0.6698
  627MOL0     H84621  10.277   2.388   1.295  0.5248  0.1252  0.0201
  627MOL0     H84622  10.208   2.532   1.349  0.7145 -0.2742  0.1955
  627MOL0     H84623  10.189   2.457   1.052  0.8754 -0.4438 -0.2410
  627MOL0     H84624  10.141   2.618   1.126  0.0958  0.6607 -0.1552
  627MOL0     H84625   9.262   2.070   1.261  2.3226 -1.3449  0.5341
  627MOL0     H84626   9.041   2.012   1.366 -0.9773  3.1499 -1.8113
  627MOL0     H84627   8.738   2.013   1.695 -1.4504 -0.5687  0.8990
  627MOL0     H84628   8.523   2.019   1.786 -0.1882  0.8102  0.4462
  627MOL0     H84629   6.386   2.196   1.297 -0.2913 -0.8723 -0.6449
  627MOL0     H84630   6.128   2.170   1.255 -2.5676 -2.8435 -0.1450
  627MOL0     H84631   5.754   2.045   1.415  2.1258 -1.2835 -0.0399
  627MOL0     H84632   5.487   1.994   1.418 -1.2774 -0.7820 -0.4603
  627MOL0     H84633   5.308   1.657   1.188  0.4894  0.0661 -0.1017
  627MOL0     H84634   5.329   1.800   1.084  0.5914  2.8749  0.4324
  627MOL0     H84635   5.097   1.750   1.105 -0.4492  2.9258 -0.1108
  627MOL0     H84636   5.111   1.879   1.211 -1.8924 -0.6582 -1.8647
  627MOL0     H84637   5.147   1.606   1.335 -0.3835 -1.1971 -4.8298
  627MOL0     H84638   4.989   1.667   1.290  0.9518 -1.0869 -1.1671
  627MOL0     H84639   5.178   1.856   1.450  1.6227 -2.4305  1.2271
  627MOL0     H84640   5.012   1.869   1.420 -0.4765  0.0962  3.4709
  627MOL0     H84641   5.018   1.606   1.756  0.8090  1.4806  2.2959
  627MOL0     H84642   5.540   1.682   1.166  1.1057  0.8952 -0.0897
  627MOL0     H84643   5.825   1.580   1.237  2.3777 -0.6851 -0.8139
  627MOL0     H84644   5.737   1.617   1.084 -2.3950  1.9267  1.0605
  627MOL0     H84645   5.889   1.702   1.116 -0.7810 -0.3150 -0.8357
  628MOL0     O84646   0.499  10.735   1.681  0.8865  0.9135  0.2567
  628MOL0     C84647   0.486  10.722   1.799 -0.0381  0.9428 -0.4900
  628MOL0     O84648   0.592  10.718   1.899 -0.2404  0.0413  0.5943
  628MOL0     C84649   0.716  10.753   1.851 -0.0254  0.0384  0.3653
  628MOL0     C84650   0.745  10.880   1.803 -0.7818 -0.3240 -0.2682
  628MOL0     C84651   0.870  10.899   1.750 -0.4644 -0.4871  0.6659
  628MOL0     C84652   0.971  10.795   1.738 -0.7442  0.3627 -0.4255
  628MOL0     O84653   1.096  10.813   1.693 -0.0241  0.4202 -0.3731
  628MOL0     C84654   1.163  10.933   1.746 -0.2155  0.3963  0.0055
  628MOL0     C84655   1.309  10.925   1.706 -0.5162  0.3769 -0.5363
  628MOL0     C84656   1.394  11.013   1.788  0.0285  0.2954 -0.0747
  628MOL0     C84657   1.536  10.997   1.749  0.0727  0.5497  0.2982
  628MOL0     C84658   1.619  11.091   1.836  0.5158  0.3872  0.0747
  628MOL0     C84659   1.768  11.073   1.804 -0.2554  0.6763 -0.4986
  628MOL0     C84660   1.848  11.193   1.866  0.1896  0.4097 -0.3526
  628MOL0     C84661   1.998  11.171   1.858  0.2547 -0.6577  0.5801
  628MOL0     N84662   2.049  11.226   1.732 -0.4192  0.1120 -0.4708
  628MOL0     C84663   2.101  11.155   1.624  0.9043  0.4030  0.8812
  628MOL0     C84664   2.120  11.246   1.526  0.0991  0.1104 -0.7478
  628MOL0     C84665   2.174  11.213   1.395  0.3079 -0.2284  0.2668
  628MOL0     C84666   2.217  11.342   1.315 -0.1253 -0.5080  0.0952
  628MOL0     C84667   2.283  11.303   1.186  0.4898 -0.3374 -0.3019
  628MOL0     C84668   2.436  11.265   1.205 -0.2367  0.0703 -0.0431
  628MOL0     O84669   2.478  11.225   1.071 -0.4950 -1.7069 -1.2331
  628MOL0     C84670   2.602  11.169   1.077  0.0032  0.6817  0.8135
  628MOL0     C84671   2.708  11.231   1.144 -0.0641  0.4994 -0.2411
  628MOL0     C84672   2.838  11.177   1.132 -0.2683  0.0870 -0.0008
  628MOL0     C84673   2.861  11.074   1.039 -0.3872 -0.1206  0.2459
  628MOL0     C84674   2.994  11.020   1.018 -0.7452 -0.2587  0.6894
  628MOL0     O84675   3.012  10.914   0.933 -0.1097 -0.2071 -0.0893
  628MOL0     C84676   3.113  10.831   0.963 -0.8191 -0.5781  0.5103
  628MOL0     C84677   3.210  10.810   0.865  0.7624 -0.2225 -0.8180
  628MOL0     C84678   3.321  10.725   0.890  0.1197 -0.0300  0.0875
  628MOL0     C84679   3.340  10.668   1.019 -0.3371  0.2745 -0.4113
  628MOL0     O84680   3.455  10.594   1.036 -0.1877  0.3723  0.1653
  628MOL0     C84681   3.489  10.554   1.166 -0.5600 -0.3355  0.3769
  628MOL0     C84682   3.635  10.500   1.175 -0.2936 -0.1070 -0.0572
  628MOL0     C84683   3.740  10.604   1.130 -0.5479  1.0857  0.0105
  628MOL0     C84684   3.880  10.549   1.164 -0.1136 -0.2776  0.0415
  628MOL0     C84685   3.991  10.655   1.133  0.1689  0.0853 -0.3927
  628MOL0     C84686   4.131  10.631   1.207  0.2469  0.1254  0.9383
  628MOL0     C84687   4.193  10.494   1.163 -0.3215 -0.6086 -0.2925
  628MOL0     C84688   4.318  10.448   1.243 -0.0252  1.2478  0.2000
  628MOL0    Cl84689   4.431  10.575   1.245 -0.2027  0.0208 -0.4640
  628MOL0     C84690   3.240  10.690   1.117 -0.6268  0.2875  0.0948
  628MOL0     C84691   3.128  10.765   1.086 -0.3152 -0.5519 -0.1424
  628MOL0     O84692   3.088  11.064   1.085 -0.0964 -0.1244 -0.1125
  628MOL0     C84693   2.755  11.013   0.978 -0.1138 -1.2984  0.3245
  628MOL0     C84694   2.631  11.067   0.992  0.0792 -0.5940 -0.4016
  628MOL0     N84695   2.070  11.363   1.568  0.3726  0.4187 -0.1038
  628MOL0     N84696   2.021  11.345   1.689  0.4503 -0.5421 -0.3387
  628MOL0     C84697   0.939  10.678   1.797 -0.7800 -0.1165  0.6270
  628MOL0     C84698   0.810  10.654   1.841  0.1894  0.8845  0.1179
  628MOL0     C84699   0.352  10.707   1.866  0.0762 -1.1082 -0.6208
  628MOL0     C84700   0.352  10.677   1.999  0.3688 -0.3607  0.1446
  628MOL0     C84701   0.241  10.659   2.073  0.7058  0.5189  0.4845
  628MOL0     C84702   0.118  10.669   2.017  0.7867 -0.0287 -0.4210
  628MOL0     O84703   0.004  10.654   2.093  0.2550 -0.0486  0.2003
  628MOL0     C84704  -0.123  10.662   2.030  0.5653  1.0684  0.9855
  628MOL0     C84705  -0.249  10.634   2.108  0.5141 -0.9294  0.1275
  628MOL0     C84706  -0.304  10.496   2.133  1.1649  0.4107 -0.3980
  628MOL0     C84707  -0.201  10.423   2.233 -0.4731 -0.3469  0.2384
  628MOL0     C84708  -0.209  10.484   2.361 -0.3055 -0.1288 -0.3157
  628MOL0     C84709  -0.210  10.534   2.468 -0.9991 -0.3765  0.4161
  628MOL0     C84710   0.114  10.695   1.880 -0.4390 -0.3951 -0.4183
  628MOL0     C84711   0.226  10.725   1.805  0.1715  0.1240  0.0887
  628MOL0     C84712   0.209  10.799   1.669 -0.6733  0.6210 -0.2849
  628MOL0     H84713   0.676  10.964   1.810  0.0346  0.2865  0.7317
  628MOL0     H84714   0.895  10.993   1.701 -0.0952 -0.6795  0.4820
  628MOL0     H84715   1.122  11.024   1.702 -1.7060 -0.0829  0.3346
  628MOL0     H84716   1.151  10.957   1.852  4.0592  1.9249  0.3361
  628MOL0     H84717   1.327  10.945   1.600  2.4346 -2.2023 -0.6971
  628MOL0     H84718   1.340  10.820   1.712 -0.2653  0.4181 -1.0729
  628MOL0     H84719   1.381  10.997   1.896 -1.0426  1.9580  0.0794
  628MOL0     H84720   1.358  11.112   1.759 -3.1551 -0.4546  0.9018
  628MOL0     H84721   1.569  10.894   1.760  0.5193  0.4628 -1.5795
  628MOL0     H84722   1.538  11.026   1.644 -1.2567 -1.6640 -0.4041
  628MOL0     H84723   1.587  11.195   1.824  1.2567  1.0387  3.1155
  628MOL0     H84724   1.592  11.062   1.938  2.2940 -0.9202  0.2269
  628MOL0     H84725   1.821  10.985   1.843  1.2005  2.6008  2.2321
  628MOL0     H84726   1.780  11.070   1.695  2.0251 -1.4311 -0.2842
  628MOL0     H84727   1.819  11.200   1.971 -1.5127  1.8080 -0.8637
  628MOL0     H84728   1.808  11.288   1.829 -1.3247 -0.0917 -0.0479
  628MOL0     H84729   2.043  11.233   1.937 -1.9127 -0.4620  1.7339
  628MOL0     H84730   2.021  11.065   1.872 -1.9269 -1.0510  1.6424
  628MOL0     H84731   2.124  11.049   1.616  1.1196  0.6015 -2.3368
  628MOL0     H84732   2.267  11.158   1.411  1.1829  1.1626  0.1224
  628MOL0     H84733   2.098  11.154   1.343 -2.3163  1.0015  2.4460
  628MOL0     H84734   2.129  11.403   1.291 -0.3459 -1.4189 -1.5962
  628MOL0     H84735   2.281  11.405   1.377 -0.9483  0.4361  0.0162
  628MOL0     H84736   2.280  11.390   1.120  0.1193  2.5964  3.2619
  628MOL0     H84737   2.229  11.215   1.150  0.6255 -0.6849  0.3276
  628MOL0     H84738   2.446  11.179   1.271 -2.8676 -1.3452 -1.3563
  628MOL0     H84739   2.491  11.352   1.244  0.5316 -0.0937 -0.7357
  628MOL0     H84740   2.698  11.325   1.196 -0.4239  2.7417 -4.0214
  628MOL0     H84741   2.919  11.218   1.191 -1.5822 -0.7810  2.5924
  628MOL0     H84742   3.204  10.858   0.767 -0.7261 -2.4636 -1.9015
  628MOL0     H84743   3.397  10.727   0.813  0.4323  1.5535  0.4064
  628MOL0     H84744   3.475  10.642   1.230  0.5487  0.4729 -0.4564
  628MOL0     H84745   3.422  10.475   1.202  0.8426 -1.2118  1.1359
  628MOL0     H84746   3.652  10.473   1.279  0.7366  0.2739 -0.1135
  628MOL0     H84747   3.641  10.414   1.107 -1.5510  0.1032 -0.4661
  628MOL0     H84748   3.732  10.640   1.027  3.2730  1.3930 -0.3253
  628MOL0     H84749   3.717  10.691   1.193 -1.9691  2.0923 -1.7694
  628MOL0     H84750   3.900  10.461   1.102 -3.1377 -0.7667 -0.3792
  628MOL0     H84751   3.883  10.507   1.266 -2.2154 -2.8229 -0.8311
  628MOL0     H84752   3.957  10.757   1.153  2.4487  0.9402 -0.5395
  628MOL0     H84753   4.017  10.645   1.027  1.3726 -0.2140 -0.0880
  628MOL0     H84754   4.199  10.713   1.181 -0.2732  1.0196  2.2816
  628MOL0     H84755   4.118  10.624   1.315 -0.6462 -0.1909  0.8182
  628MOL0     H84756   4.226  10.504   1.059 -1.7232 -0.8237 -0.7773
  628MOL0     H84757   4.112  10.421   1.161 -1.0462  0.0693  1.8062
  628MOL0     H84758   4.299  10.436   1.350  1.8982  0.2847  0.4900
  628MOL0     H84759   4.371  10.356   1.213  0.1579  1.9321 -1.6988
  628MOL0     H84760   3.245  10.646   1.216 -1.3637 -0.6834 -0.2850
  628MOL0     H84761   3.046  10.781   1.155 -2.4105 -0.6288 -2.4412
  628MOL0     H84762   2.774  10.920   0.926  2.4245 -1.3753  1.2382
  628MOL0     H84763   2.548  11.017   0.943  2.7398 -1.4281 -4.5310
  628MOL0     H84764   1.012  10.598   1.801 -1.6665 -0.9955 -0.2611
  628MOL0     H84765   0.794  10.552   1.873  3.1347  0.3207  0.0036
  628MOL0     H84766   0.446  10.659   2.050 -0.2684 -1.8268  0.8381
  628MOL0     H84767   0.255  10.624   2.175 -3.7355 -3.6614  0.0247
  628MOL0     H84768  -0.119  10.583   1.955 -0.7784  1.1933  0.7463
  628MOL0     H84769  -0.134  10.760   1.982 -1.6379  0.1680 -0.5016
  628MOL0     H84770  -0.324  10.700   2.064  0.0190 -0.2015  1.9741
  628MOL0     H84771  -0.229  10.675   2.207  0.8586 -0.2994 -0.1950
  628MOL0     H84772  -0.327  10.439   2.042 -1.4622 -1.0211  1.0389
  628MOL0     H84773  -0.405  10.496   2.176  0.9203 -0.3379 -0.9337
  628MOL0     H84774  -0.219  10.315   2.245  0.9631 -0.5381  0.9427
  628MOL0     H84775  -0.097  10.436   2.202  0.0655 -1.5292  1.4438
  628MOL0     H84776  -0.232  10.553   2.571 -1.0464  2.0543 -0.0003
  628MOL0     H84777   0.023  10.707   1.821 -0.8290  1.5759  0.4665
  628MOL0     H84778   0.220  10.724   1.591 -0.3459  0.2226  0.1365
  628MOL0     H84779   0.109  10.844   1.662 -0.8052  0.6705  1.4015
  628MOL0     H84780   0.279  10.882   1.659 -2.9412  2.8589  1.0700
  629MOL0     O84781   7.123   0.601   8.385  0.1531  0.1820  0.1150
  629MOL0     C84782   7.041   0.518   8.427  0.2574 -0.0723  0.2849
  629MOL0     O84783   7.046   0.475   8.563 -0.8108  0.2819 -0.2129
  629MOL0     C84784   7.136   0.521   8.663 -0.9999  0.5112  0.0689
  629MOL0     C84785   7.266   0.567   8.638 -0.3421 -0.8029 -0.2672
  629MOL0     C84786   7.357   0.605   8.736  0.0780 -1.1474 -0.5898
  629MOL0     C84787   7.312   0.593   8.876  0.0667  0.6791  0.8603
  629MOL0     O84788   7.384   0.618   8.979 -0.2363 -0.4780 -0.2309
  629MOL0     C84789   7.493   0.716   8.961 -1.6952 -0.1234 -0.9853
  629MOL0     C84790   7.546   0.760   9.108  0.8197  0.2380  0.5081
  629MOL0     C84791   7.686   0.823   9.100 -0.4045  0.8462 -0.8069
  629MOL0     C84792   7.793   0.731   9.161  0.2255 -1.0588  0.6465
  629MOL0     C84793   7.939   0.792   9.141 -0.4474  0.5793  0.1740
  629MOL0     C84794   8.045   0.724   9.238 -1.0752 -0.1797  1.0257
  629MOL0     C84795   8.189   0.759   9.201 -0.1506 -1.4276  0.2568
  629MOL0     C84796   8.218   0.903   9.242  1.4527  0.8855  0.0557
  629MOL0     N84797   8.360   0.940   9.223 -0.1937  0.3558 -0.0253
  629MOL0     C84798   8.432   1.019   9.308  0.5181  0.8395  0.3958
  629MOL0     C84799   8.564   1.000   9.279  0.0442 -0.0428 -0.3679
  629MOL0     C84800   8.676   1.065   9.347 -0.1208 -0.4633 -0.0207
  629MOL0     C84801   8.806   0.979   9.371 -0.2735  1.1230  0.3667
  629MOL0     C84802   8.908   0.990   9.257 -0.4151  0.0392  0.3964
  629MOL0     C84803   9.033   0.908   9.272 -0.9914 -0.3242  0.2660
  629MOL0     O84804   9.116   0.961   9.379 -0.5565  0.1119  0.1660
  629MOL0     C84805   9.225   0.881   9.382 -0.7862  0.5593  0.4398
  629MOL0     C84806   9.353   0.929   9.356 -0.3432  0.0081  0.5424
  629MOL0     C84807   9.477   0.866   9.388 -1.7832 -1.1617  0.4673
  629MOL0     C84808   9.474   0.749   9.466 -0.1134 -0.3291 -0.5266
  629MOL0     C84809   9.602   0.699   9.521  0.1279  0.2337  0.1917
  629MOL0     O84810   9.591   0.578   9.587  0.4082 -0.3832 -0.5039
  629MOL0     C84811   9.701   0.537   9.658 -0.3423  1.2268 -0.4964
  629MOL0     C84812   9.734   0.575   9.794  0.2386  0.6554  0.5662
  629MOL0     C84813   9.856   0.525   9.845  0.7844 -1.2194  0.0120
  629MOL0     C84814   9.946   0.449   9.783 -0.5433  0.2887 -0.1787
  629MOL0     O84815  10.052   0.411   9.856 -0.0491 -0.2741  0.0295
  629MOL0     C84816  10.058   0.265   9.877  0.2017 -0.9901 -0.0935
  629MOL0     C84817  10.117   0.251  10.017 -0.0619  0.0679 -0.1239
  629MOL0     C84818  10.145   0.098  10.063  0.9181 -0.4339 -0.0135
  629MOL0     C84819  10.211   0.095  10.205 -0.2904  0.6132 -0.2154
  629MOL0     C84820  10.237  -0.045  10.264 -0.8384  0.0002 -1.2737
  629MOL0     C84821  10.320  -0.023  10.388 -0.2170  1.0801  0.9413
  629MOL0     C84822  10.222   0.004  10.509  0.6176 -0.0159  0.2012
  629MOL0     C84823  10.304  -0.005  10.642  0.0296 -0.0924  0.4837
  629MOL0    Cl84824  10.410   0.138  10.687  0.1969 -0.5561  0.1162
  629MOL0     C84825   9.919   0.418   9.645  0.0219 -0.0119 -0.4685
  629MOL0     C84826   9.797   0.461   9.583 -0.8138  0.7807  0.0580
  629MOL0     O84827   9.701   0.769   9.514 -0.0160 -0.5150  0.3673
  629MOL0     C84828   9.346   0.701   9.501  0.4151 -0.7199 -0.8984
  629MOL0     C84829   9.224   0.770   9.466  0.4421 -0.2046  0.1134
  629MOL0     N84830   8.570   0.918   9.170 -0.0197  0.8686  0.3199
  629MOL0     N84831   8.453   0.887   9.136 -0.2491 -0.1388 -0.0124
  629MOL0     C84832   7.179   0.553   8.903  1.0702  0.1764  0.4002
  629MOL0     C84833   7.093   0.516   8.795  0.3284 -0.3158 -1.2579
  629MOL0     C84834   6.918   0.494   8.339 -0.3378 -0.0904 -0.1356
  629MOL0     C84835   6.925   0.543   8.208 -0.4899 -0.5150 -0.6721
  629MOL0     C84836   6.820   0.538   8.121 -0.5105  0.5427  0.0593
  629MOL0     C84837   6.696   0.479   8.151  0.8297  0.2097 -0.6242
  629MOL0     O84838   6.595   0.483   8.057 -0.2884 -0.6209 -0.3251
  629MOL0     C84839   6.469   0.421   8.086 -0.1537  0.3989  0.1651
  629MOL0     C84840   6.397   0.414   7.958 -0.0068 -0.2960  0.2862
  629MOL0     C84841   6.271   0.329   7.991 -0.1828  0.3446 -0.9218
  629MOL0     C84842   6.163   0.324   7.882  0.3519  0.1491 -0.3171
  629MOL0     C84843   6.073   0.211   7.919  0.3688  0.6727  0.3859
  629MOL0     C84844   6.002   0.117   7.947  0.2542  0.0611  0.1910
  629MOL0     C84845   6.692   0.413   8.271  0.3037 -0.6935  0.9379
  629MOL0     C84846   6.798   0.425   8.369 -0.7938  0.0274  0.7878
  629MOL0     C84847   6.781   0.362   8.507  0.3615 -1.3520  1.0069
  629MOL0     H84848   7.300   0.558   8.536  1.8034  0.8267  0.2297
  629MOL0     H84849   7.462   0.625   8.713  0.8539  0.0973  3.2439
  629MOL0     H84850   7.579   0.669   8.911  0.0002  3.4802 -1.7866
  629MOL0     H84851   7.466   0.809   8.912  0.2406  0.5695 -0.8368
  629MOL0     H84852   7.544   0.682   9.186 -0.3645 -0.0282  0.2375
  629MOL0     H84853   7.470   0.836   9.131 -1.5142 -1.2740 -1.6646
  629MOL0     H84854   7.685   0.914   9.161 -0.1892 -1.0513  2.2782
  629MOL0     H84855   7.708   0.844   8.995 -0.7119 -2.2836 -1.5979
  629MOL0     H84856   7.753   0.740   9.262  0.0733  2.3078  0.4103
  629MOL0     H84857   7.787   0.626   9.134 -0.2728 -0.9644  0.3908
  629MOL0     H84858   7.968   0.774   9.037 -1.5004 -1.8910  0.2360
  629MOL0     H84859   7.926   0.899   9.161  1.5746  0.8026  0.5837
  629MOL0     H84860   8.023   0.762   9.339 -0.0353 -0.1330  1.2511
  629MOL0     H84861   8.024   0.618   9.228 -1.5275  0.1508 -2.9303
  629MOL0     H84862   8.206   0.766   9.094 -1.5708  0.8676  0.1147
  629MOL0     H84863   8.260   0.700   9.261  1.2336  3.0199  3.5774
  629MOL0     H84864   8.154   0.970   9.183  0.8403  0.6735  0.4594
  629MOL0     H84865   8.183   0.920   9.344  0.7392  1.4650 -0.2676
  629MOL0     H84866   8.392   1.068   9.396 -1.8373  0.2288 -0.2681
  629MOL0     H84867   8.710   1.158   9.301 -0.2870  1.1080  2.8306
  629MOL0     H84868   8.639   1.095   9.445  1.4332  0.1079  0.4279
  629MOL0     H84869   8.857   1.007   9.464 -2.3266 -3.8860  3.4028
  629MOL0     H84870   8.788   0.871   9.376  0.4102  0.7783 -2.7387
  629MOL0     H84871   8.943   1.093   9.247 -0.5841  0.1336  0.7486
  629MOL0     H84872   8.858   0.953   9.168 -1.1827 -0.4970  1.0333
  629MOL0     H84873   9.080   0.909   9.173 -1.2183  1.4868  0.1556
  629MOL0     H84874   9.002   0.804   9.287 -0.0730 -1.0460 -2.3234
  629MOL0     H84875   9.354   1.027   9.310 -0.5460  0.7194  1.9824
  629MOL0     H84876   9.569   0.911   9.351 -1.8268 -1.9435 -0.6337
  629MOL0     H84877   9.678   0.645   9.855 -0.0914  0.4422  0.5132
  629MOL0     H84878   9.881   0.549   9.948 -2.1950 -0.9931  0.7646
  629MOL0     H84879   9.959   0.219   9.884 -0.8819  1.4135  1.7504
  629MOL0     H84880  10.122   0.210   9.807  1.5350  1.1963 -0.6875
  629MOL0     H84881  10.217   0.295  10.022 -0.5229  1.1844 -0.4962
  629MOL0     H84882  10.054   0.302  10.090  0.4588  0.5513 -0.0046
  629MOL0     H84883  10.055   0.036  10.054 -0.3722  1.0937  1.6965
  629MOL0     H84884  10.219   0.054   9.996  0.7541 -0.1498 -0.3867
  629MOL0     H84885  10.142   0.149  10.272  0.0138 -0.3695  0.9162
  629MOL0     H84886  10.302   0.156  10.204 -0.2761  0.5979 -1.0456
  629MOL0     H84887  10.291  -0.108  10.192  0.4717  0.5328 -0.7924
  629MOL0     H84888  10.146  -0.099  10.293 -0.5785  0.3269  0.2057
  629MOL0     H84889  10.366  -0.122  10.401 -0.7266  0.9124  1.4990
  629MOL0     H84890  10.399   0.052  10.375  1.5504 -0.8157  0.0858
  629MOL0     H84891  10.146  -0.074  10.509  1.4014 -0.8091 -1.4963
  629MOL0     H84892  10.173   0.101  10.494 -0.3450 -0.5656 -0.2893
  629MOL0     H84893  10.236  -0.009  10.727 -1.0946  1.7670 -0.2659
  629MOL0     H84894  10.369  -0.093  10.634  1.2229  0.8321 -0.4360
  629MOL0     H84895   9.986   0.359   9.584 -0.4320  0.3802 -1.3661
  629MOL0     H84896   9.771   0.447   9.478 -0.0483  0.1130 -0.0506
  629MOL0     H84897   9.339   0.631   9.583  0.4295  2.5400  2.1681
  629MOL0     H84898   9.129   0.757   9.517  0.2472  0.5616 -0.0429
  629MOL0     H84899   7.136   0.532   9.000 -0.1698 -3.9370 -0.8515
  629MOL0     H84900   6.993   0.477   8.812 -0.0221  0.8331 -0.6010
  629MOL0     H84901   7.017   0.586   8.170  0.6681 -1.7253  0.6425
  629MOL0     H84902   6.828   0.602   8.033 -1.5508 -0.8276 -1.0986
  629MOL0     H84903   6.418   0.488   8.155  2.2441  1.7512  0.7635
  629MOL0     H84904   6.473   0.323   8.134 -0.3036  0.5576  0.5011
  629MOL0     H84905   6.452   0.369   7.875  1.0942  0.5201  0.5450
  629MOL0     H84906   6.369   0.519   7.942 -0.3904 -0.5585 -0.9437
  629MOL0     H84907   6.216   0.369   8.076  1.5489  1.5377 -0.3083
  629MOL0     H84908   6.306   0.232   8.030  2.5140  0.8524 -1.8808
  629MOL0     H84909   6.108   0.418   7.882  1.1422  0.6413  1.0934
  629MOL0     H84910   6.195   0.303   7.779  0.2446  0.1562 -0.3516
  629MOL0     H84911   5.951   0.023   7.953 -0.3445  0.3179 -0.6476
  629MOL0     H84912   6.609   0.354   8.307 -0.0628  0.3210  1.7998
  629MOL0     H84913   6.682   0.316   8.516 -0.3354 -1.0799 -3.2373
  629MOL0     H84914   6.854   0.283   8.528  1.0313 -1.3717 -1.1942
  629MOL0     H84915   6.783   0.441   8.583  3.3733 -1.7486  1.4781
  630MOL0     O84916   6.218   3.290   5.887  0.2853 -0.1928  0.7853
  630MOL0     C84917   6.169   3.184   5.899 -0.4417  0.1914  0.5804
  630MOL0     O84918   6.238   3.073   5.952 -0.4832 -0.1057  0.5357
  630MOL0     C84919   6.359   3.106   6.008  0.4334  0.0391 -0.2681
  630MOL0     C84920   6.464   3.154   5.932  0.4504 -0.0039  1.0340
  630MOL0     C84921   6.585   3.172   5.998 -0.8114  0.3227  0.3359
  630MOL0     C84922   6.608   3.130   6.128 -0.2542  0.5584  0.3149
  630MOL0     O84923   6.732   3.158   6.165  0.8500  0.6457 -0.2570
  630MOL0     C84924   6.786   3.047   6.233 -0.3221 -0.3023 -0.1073
  630MOL0     C84925   6.937   3.065   6.258  0.6752  0.7771  0.7201
  630MOL0     C84926   6.983   3.189   6.348  0.4476 -0.1555 -1.1471
  630MOL0     C84927   6.903   3.198   6.477 -0.7784 -0.3499  0.2747
  630MOL0     C84928   6.987   3.278   6.577 -0.1291  0.1363  0.2736
  630MOL0     C84929   6.924   3.327   6.711 -1.0158  0.1303 -0.8302
  630MOL0     C84930   7.018   3.365   6.821 -1.0211 -0.0372  1.4966
  630MOL0     C84931   7.124   3.472   6.788 -1.0230  0.6581  0.8909
  630MOL0     N84932   7.214   3.499   6.908 -0.0801 -0.3621 -0.4599
  630MOL0     C84933   7.184   3.568   7.027  0.3663 -0.6683 -0.3981
  630MOL0     C84934   7.299   3.585   7.096 -0.2315 -0.2177 -0.8875
  630MOL0     C84935   7.314   3.659   7.230  0.1164 -0.1870  0.8740
  630MOL0     C84936   7.307   3.563   7.346  0.6401  0.7319  0.0691
  630MOL0     C84937   7.450   3.527   7.395  0.6575 -0.3408  0.7120
  630MOL0     C84938   7.442   3.437   7.515  0.2547  0.3993  0.5730
  630MOL0     O84939   7.389   3.307   7.483 -0.2818 -0.1217  0.2232
  630MOL0     C84940   7.473   3.197   7.439  0.6158 -0.3002  0.1573
  630MOL0     C84941   7.406   3.072   7.418  0.2578 -0.3226 -0.0242
  630MOL0     C84942   7.480   2.974   7.355 -0.4057 -0.1042  0.2337
  630MOL0     C84943   7.622   2.975   7.340 -0.2553  0.6023 -0.0260
  630MOL0     C84944   7.692   2.854   7.295 -0.5309 -0.9398  0.1705
  630MOL0     O84945   7.825   2.872   7.276  0.3686  0.4148  0.2618
  630MOL0     C84946   7.913   2.765   7.287  0.1578 -0.7218 -0.4218
  630MOL0     C84947   7.884   2.634   7.293  0.6708  0.8784  0.0872
  630MOL0     C84948   7.981   2.537   7.274  0.5634 -0.3778 -0.3236
  630MOL0     C84949   8.119   2.568   7.270  0.4743  0.4123  0.7385
  630MOL0     O84950   8.217   2.472   7.247  0.6146  0.4120  0.0652
  630MOL0     C84951   8.263   2.458   7.111 -0.0498  0.1400 -0.1637
  630MOL0     C84952   8.172   2.354   7.032  0.0478 -0.3085 -0.1421
  630MOL0     C84953   8.198   2.363   6.882 -0.1350  0.1636 -0.0263
  630MOL0     C84954   8.069   2.421   6.814 -0.4624  0.4099  0.8244
  630MOL0     C84955   8.041   2.563   6.860 -0.3186  0.6077 -0.3648
  630MOL0     C84956   7.899   2.589   6.816  0.8137 -0.3978  0.4420
  630MOL0     C84957   7.839   2.713   6.882  0.4446  0.0609  0.3463
  630MOL0     C84958   7.709   2.756   6.826  0.7525 -0.0990  0.0660
  630MOL0    Cl84959   7.719   2.858   6.680 -0.2159  0.3285 -0.2463
  630MOL0     C84960   8.154   2.704   7.278 -0.4036 -0.3538  0.9483
  630MOL0     C84961   8.052   2.800   7.283  0.8472 -0.9480 -0.7064
  630MOL0     O84962   7.632   2.748   7.281  0.4652 -0.2334  0.1814
  630MOL0     C84963   7.684   3.098   7.369  0.6197 -0.6246  0.4166
  630MOL0     C84964   7.606   3.208   7.412 -0.2403 -0.1497  0.7462
  630MOL0     N84965   7.391   3.500   7.031  0.5512  0.0050  0.1110
  630MOL0     N84966   7.345   3.457   6.918  0.7386  0.4895 -0.2272
  630MOL0     C84967   6.496   3.082   6.205  0.5563  0.1327  1.4343
  630MOL0     C84968   6.369   3.075   6.144  0.6737 -0.4436  0.9277
  630MOL0     C84969   6.037   3.154   5.839  0.8669  0.3164  0.5125
  630MOL0     C84970   5.984   3.020   5.862  0.6330  0.1637  0.4091
  630MOL0     C84971   5.862   2.982   5.811  0.9033 -0.3940 -0.3044
  630MOL0     C84972   5.783   3.072   5.732  0.4350 -0.0977 -0.4535
  630MOL0     O84973   5.666   3.048   5.673  0.3754 -0.3515  0.6797
  630MOL0     C84974   5.675   2.942   5.574 -0.1468 -0.5721  1.1928
  630MOL0     C84975   5.707   3.024   5.447 -0.0902  0.5955 -0.6250
  630MOL0     C84976   5.680   2.950   5.320  0.4500 -0.1157 -0.7842
  630MOL0     C84977   5.530   2.902   5.297  0.1082  0.3999 -1.0030
  630MOL0     C84978   5.448   3.020   5.279  0.1867 -0.2499 -0.5503
  630MOL0     C84979   5.382   3.118   5.266 -1.3771 -0.1620 -0.3398
  630MOL0     C84980   5.834   3.199   5.718  0.2582  0.1505  0.2161
  630MOL0     C84981   5.952   3.239   5.767 -0.9490 -1.0128 -0.2754
  630MOL0     C84982   5.986   3.381   5.737 -0.5184  0.5273 -0.1843
  630MOL0     H84983   6.456   3.186   5.828  0.6611  1.9389  1.5835
  630MOL0     H84984   6.669   3.218   5.947 -2.0318  1.2378 -0.9132
  630MOL0     H84985   6.731   3.038   6.327  0.3834 -1.2555  0.2346
  630MOL0     H84986   6.767   2.961   6.169 -2.5137  0.9571 -1.2730
  630MOL0     H84987   6.980   3.086   6.160 -0.1900 -0.3061  0.0869
  630MOL0     H84988   6.973   2.967   6.291 -1.1332 -0.5331 -0.9845
  630MOL0     H84989   6.979   3.279   6.285  4.9532 -1.3745 -3.6731
  630MOL0     H84990   7.085   3.166   6.380  0.3234  1.4999  0.6428
  630MOL0     H84991   6.807   3.248   6.460  0.4319  2.0934  0.1026
  630MOL0     H84992   6.886   3.095   6.507  1.1383 -1.7467 -2.9182
  630MOL0     H84993   7.079   3.224   6.599  0.7063  0.8733 -1.2634
  630MOL0     H84994   7.022   3.376   6.543  1.7721 -0.1504  1.2864
  630MOL0     H84995   6.867   3.417   6.685  0.4466  1.3709  0.0636
  630MOL0     H84996   6.862   3.247   6.750 -1.0436  1.4891  2.1842
  630MOL0     H84997   7.071   3.272   6.846  4.1037  2.0244 -0.4480
  630MOL0     H84998   6.961   3.414   6.900 -1.2833  2.4755 -0.1561
  630MOL0     H84999   7.188   3.443   6.704  0.4851 -2.4677  2.9193
  630MOL0     H85000   7.062   3.557   6.758 -0.7390  0.3802 -0.5580
  630MOL0     H85001   7.092   3.625   7.036  1.1939  0.7691 -0.6368
  630MOL0     H85002   7.403   3.723   7.234 -1.3829  1.9522  4.0716
  630MOL0     H85003   7.234   3.733   7.239  1.0511  1.3119 -1.9415
  630MOL0     H85004   7.247   3.607   7.426  0.5871  0.7207  0.0370
  630MOL0     H85005   7.246   3.475   7.323 -1.1854  1.2686  2.5284
  630MOL0     H85006   7.514   3.608   7.429  2.4364 -2.4618  2.8270
  630MOL0     H85007   7.510   3.485   7.313 -1.9678  1.1969 -2.1901
  630MOL0     H85008   7.374   3.485   7.586 -1.3265 -1.7436  0.6239
  630MOL0     H85009   7.542   3.420   7.558 -0.5525 -1.3698  1.9364
  630MOL0     H85010   7.298   3.063   7.432  0.4590 -3.3238  0.1543
  630MOL0     H85011   7.419   2.889   7.326  1.5024 -1.5139  0.1753
  630MOL0     H85012   7.789   2.588   7.319  0.2010  1.7970  0.0609
  630MOL0     H85013   7.956   2.431   7.272 -1.4373  0.0467 -0.0996
  630MOL0     H85014   8.269   2.554   7.060 -1.7076  1.6873  2.3047
  630MOL0     H85015   8.366   2.423   7.117  0.8266  1.2891 -4.9096
  630MOL0     H85016   8.207   2.252   7.053  2.7779  0.6131  0.0849
  630MOL0     H85017   8.067   2.362   7.064  0.5248  3.5440  0.9030
  630MOL0     H85018   8.288   2.423   6.863 -1.8933  2.2943 -2.3036
  630MOL0     H85019   8.205   2.266   6.833  0.3386  1.1675 -2.0800
  630MOL0     H85020   7.991   2.353   6.849  0.0856 -0.2481  0.7872
  630MOL0     H85021   8.069   2.407   6.706 -1.0732  1.8321  0.6145
  630MOL0     H85022   8.111   2.628   6.808  0.9737  0.1797  0.7725
  630MOL0     H85023   8.045   2.576   6.969 -0.4409  0.1034 -0.2945
  630MOL0     H85024   7.902   2.610   6.709 -2.7836  0.1199  0.3295
  630MOL0     H85025   7.830   2.504   6.826 -2.2373  1.7433 -0.9008
  630MOL0     H85026   7.902   2.800   6.864  2.5196 -1.5939 -1.0429
  630MOL0     H85027   7.832   2.694   6.989  0.2182 -1.1253  0.1477
  630MOL0     H85028   7.642   2.671   6.813  0.7184 -0.5686  2.7316
  630MOL0     H85029   7.657   2.828   6.890 -1.7604 -3.3636  2.0097
  630MOL0     H85030   8.253   2.746   7.267 -0.8906  0.5555 -0.2237
  630MOL0     H85031   8.075   2.905   7.276 -0.0204 -0.2896  3.5515
  630MOL0     H85032   7.787   3.103   7.336  0.1221 -0.6417 -1.2042
  630MOL0     H85033   7.659   3.299   7.440 -0.1518  0.6917 -1.8999
  630MOL0     H85034   6.503   3.048   6.308 -0.6091 -4.4670  0.2387
  630MOL0     H85035   6.275   3.048   6.190  0.3471  0.5446  0.8696
  630MOL0     H85036   6.032   2.946   5.925 -1.7322 -2.2192 -0.4019
  630MOL0     H85037   5.824   2.880   5.820  1.0551 -0.3073  1.5664
  630MOL0     H85038   5.577   2.895   5.561 -0.5493  0.4705  0.2985
  630MOL0     H85039   5.743   2.857   5.580  0.8313  0.1442  0.4913
  630MOL0     H85040   5.811   3.058   5.445 -1.0033  3.9051  0.3432
  630MOL0     H85041   5.643   3.113   5.450  0.6990  1.2674  3.9840
  630MOL0     H85042   5.745   2.863   5.331 -2.2651 -1.9996  2.0641
  630MOL0     H85043   5.700   3.016   5.235  3.5015 -0.3778 -0.3931
  630MOL0     H85044   5.510   2.832   5.215 -0.4691 -0.5952 -0.0328
  630MOL0     H85045   5.495   2.838   5.379 -1.6638 -0.0202 -2.0342
  630MOL0     H85046   5.321   3.204   5.248  1.2435  1.3535 -2.7706
  630MOL0     H85047   5.773   3.263   5.655  2.9757  1.9649 -0.7503
  630MOL0     H85048   5.993   3.433   5.834 -0.8617 -0.1627  0.2181
  630MOL0     H85049   6.088   3.383   5.697 -0.3494 -1.1781  0.0886
  630MOL0     H85050   5.910   3.435   5.680  1.1135  1.0764 -1.9150
  631MOL0     O85051   9.761  10.133   3.280 -0.7929  0.3586  0.3451
  631MOL0     C85052   9.718  10.048   3.361  0.2012 -0.5281  1.2686
  631MOL0     O85053   9.752   9.916   3.362  0.1228  0.6859 -0.0894
  631MOL0     C85054   9.875   9.885   3.300  1.1162  0.3676  0.2163
  631MOL0     C85055   9.905   9.892   3.163 -0.5996  0.0329  0.3486
  631MOL0     C85056  10.032   9.861   3.112  0.2547  0.8790  0.5096
  631MOL0     C85057  10.129   9.803   3.201  0.1818 -0.6628 -0.3439
  631MOL0     O85058  10.248   9.752   3.172 -0.1562  0.3083  0.6877
  631MOL0     C85059  10.299   9.793   3.045 -0.4987 -0.0376 -0.4782
  631MOL0     C85060  10.443   9.737   3.024 -0.7813  0.7198  0.0750
  631MOL0     C85061  10.559   9.789   3.111  0.8356 -0.8859 -0.6822
  631MOL0     C85062  10.577   9.946   3.096 -0.6046 -0.0059  0.6160
  631MOL0     C85063  10.688   9.981   3.190 -0.5493  0.8995 -0.1561
  631MOL0     C85064  10.726  10.132   3.176 -0.1216 -0.0124 -0.3992
  631MOL0     C85065  10.860  10.165   3.238  0.0195  0.5769  0.1474
  631MOL0     C85066  10.967  10.194   3.131  0.2643 -0.1085  0.5430
  631MOL0     N85067  11.071  10.289   3.174  0.1113 -0.3373  0.2616
  631MOL0     C85068  11.084  10.420   3.152  0.6496  0.4308  1.0732
  631MOL0     C85069  11.199  10.462   3.220 -0.6095 -0.7682  0.2301
  631MOL0     C85070  11.251  10.598   3.234  0.4012 -0.5652 -0.6326
  631MOL0     C85071  11.330  10.628   3.369  0.7472  0.1537  0.3036
  631MOL0     C85072  11.376  10.773   3.389 -0.5231 -0.2649 -0.7870
  631MOL0     C85073  11.406  10.852   3.266  0.3341  0.7761  0.0776
  631MOL0     O85074  11.523  10.796   3.209  0.2612  0.1513 -0.0182
  631MOL0     C85075  11.643  10.835   3.263 -0.5067  0.8170 -0.0641
  631MOL0     C85076  11.761  10.798   3.196  0.8064 -0.2425  0.1764
  631MOL0     C85077  11.882  10.850   3.234 -0.3868  0.0062  0.4389
  631MOL0     C85078  11.902  10.943   3.339  0.1043  0.4236 -0.4117
  631MOL0     C85079  12.041  11.006   3.362 -0.3190  0.3274 -0.4517
  631MOL0     O85080  12.142  10.975   3.289 -0.7060  0.5818  0.4053
  631MOL0     C85081  12.275  11.008   3.318  0.1653 -0.1970  0.6675
  631MOL0     C85082  12.361  10.985   3.203 -0.2042  0.1209 -0.4636
  631MOL0     C85083  12.506  11.009   3.222  0.6816 -0.5746  0.2458
  631MOL0     C85084  12.551  11.044   3.344  0.0933 -0.2509 -1.0051
  631MOL0     O85085  12.693  11.074   3.343 -0.3119  0.1610 -0.3983
  631MOL0     C85086  12.757  11.037   3.464 -0.6747 -0.8660  0.0432
  631MOL0     C85087  12.908  11.055   3.449  0.4440 -1.4247 -0.6528
  631MOL0     C85088  12.971  10.955   3.362 -0.1552  0.1803 -0.1492
  631MOL0     C85089  13.127  10.925   3.378  0.9931  0.6077  1.0259
  631MOL0     C85090  13.222  11.053   3.343  0.7052 -0.5021 -0.9645
  631MOL0     C85091  13.364  11.013   3.395 -0.8567 -0.6936 -0.4577
  631MOL0     C85092  13.456  11.132   3.425  0.4278 -0.1299  0.3490
  631MOL0     C85093  13.480  11.158   3.570 -0.4141  0.3867  0.7547
  631MOL0    Cl85094  13.576  11.019   3.625  0.0655 -0.1532  0.1619
  631MOL0     C85095  12.468  11.069   3.459  0.2750 -0.7064  0.9215
  631MOL0     C85096  12.329  11.054   3.441 -0.0458 -0.7643  0.2422
  631MOL0     O85097  12.041  11.070   3.465  0.1030  0.2198 -0.2661
  631MOL0     C85098  11.786  10.978   3.411  0.3722 -0.4193  0.7749
  631MOL0     C85099  11.661  10.933   3.364 -0.0932  0.1072 -0.0164
  631MOL0     N85100  11.236  10.347   3.291  0.3189  0.4044  0.0054
  631MOL0     N85101  11.169  10.245   3.261  0.7376 -0.1485  0.3069
  631MOL0     C85102  10.091   9.784   3.337  0.3835 -1.4932  0.0920
  631MOL0     C85103   9.967   9.831   3.385  0.3740 -0.1018  0.1057
  631MOL0     C85104   9.613  10.105   3.449  1.2020 -0.7627  1.1054
  631MOL0     C85105   9.519  10.184   3.386 -0.7539  0.4197 -0.4238
  631MOL0     C85106   9.412  10.245   3.447 -0.7779  0.8282  0.7078
  631MOL0     C85107   9.386  10.206   3.575 -0.2689 -0.2393 -0.7962
  631MOL0     O85108   9.276  10.248   3.650 -0.6697 -0.0773  0.1650
  631MOL0     C85109   9.181  10.341   3.589  0.5046  0.5983 -1.0365
  631MOL0     C85110   9.058  10.360   3.679  0.5174 -0.0772 -0.6584
  631MOL0     C85111   9.094  10.422   3.815  0.5165  1.0252  0.3150
  631MOL0     C85112   8.965  10.417   3.905  0.2608 -0.2739 -0.7172
  631MOL0     C85113   8.973  10.280   3.981 -0.8519 -0.9865 -0.1417
  631MOL0     C85114   8.982  10.191   4.060 -1.0808 -0.7903 -0.0010
  631MOL0     C85115   9.473  10.113   3.640  0.0228 -0.1588  0.3526
  631MOL0     C85116   9.598  10.071   3.580  0.5508  0.4496 -0.3814
  631MOL0     C85117   9.698  10.008   3.667 -0.4627  0.2141 -0.0643
  631MOL0     H85118   9.835   9.928   3.089  1.5079  3.2319 -0.2741
  631MOL0     H85119  10.056   9.884   3.009 -1.1543 -0.4432 -0.1659
  631MOL0     H85120  10.237   9.773   2.957  0.4006  1.3504 -1.4810
  631MOL0     H85121  10.314   9.901   3.040 -1.8551  0.2902  1.3283
  631MOL0     H85122  10.472   9.763   2.922 -1.6057  0.3253 -0.2652
  631MOL0     H85123  10.437   9.630   3.046  1.1049  0.9792  2.3129
  631MOL0     H85124  10.651   9.737   3.083  0.0385 -2.3936 -0.5902
  631MOL0     H85125  10.539   9.779   3.218 -0.3034  0.3173 -0.7550
  631MOL0     H85126  10.600   9.971   2.992  0.4462  1.8087  1.2419
  631MOL0     H85127  10.488  10.007   3.115 -0.5796  0.4422 -0.6232
  631MOL0     H85128  10.665   9.947   3.291 -0.0875 -0.7041 -0.5584
  631MOL0     H85129  10.773   9.919   3.161 -0.6251  0.2693  0.9483
  631MOL0     H85130  10.730  10.163   3.071  3.3380 -0.1728 -0.4121
  631MOL0     H85131  10.638  10.187   3.211 -0.0712  1.5581 -2.5131
  631MOL0     H85132  10.883  10.072   3.292 -2.2041 -0.5609 -0.6968
  631MOL0     H85133  10.842  10.253   3.299  1.0230  1.8460 -1.3171
  631MOL0     H85134  11.021  10.105   3.095 -0.9159  0.3210 -2.5481
  631MOL0     H85135  10.920  10.248   3.049 -0.3894  3.1562  2.8513
  631MOL0     H85136  11.029  10.475   3.077 -2.4078 -0.3373  2.6199
  631MOL0     H85137  11.321  10.601   3.150 -0.2716 -2.6317 -1.3214
  631MOL0     H85138  11.173  10.672   3.214 -0.7707 -1.4218  0.5877
  631MOL0     H85139  11.256  10.612   3.448  0.0963  3.4862  0.5346
  631MOL0     H85140  11.415  10.559   3.367  1.0643  0.5463  0.1380
  631MOL0     H85141  11.456  10.762   3.463 -1.6384  0.4704  0.5896
  631MOL0     H85142  11.295  10.823   3.445  0.2697 -2.0360  2.1830
  631MOL0     H85143  11.409  10.960   3.287  0.8424  0.3666  2.4177
  631MOL0     H85144  11.322  10.838   3.197 -0.2313  0.3352  0.8414
  631MOL0     H85145  11.754  10.721   3.119  0.7382 -1.3894  1.2853
  631MOL0     H85146  11.974  10.814   3.188 -0.7910 -0.5232  0.0254
  631MOL0     H85147  12.327  10.950   3.106 -1.8162  0.7002 -0.1234
  631MOL0     H85148  12.573  10.995   3.138 -0.5985 -3.0980 -0.4682
  631MOL0     H85149  12.717  11.095   3.548 -3.0000  0.8014 -2.0649
  631MOL0     H85150  12.742  10.935   3.498 -0.7133 -0.4850  1.2126
  631MOL0     H85151  12.920  11.153   3.402  0.8292 -1.1982 -0.0857
  631MOL0     H85152  12.956  11.065   3.546  0.2015  2.8453 -0.8143
  631MOL0     H85153  12.931  10.853   3.367  0.6036 -0.2215 -1.6230
  631MOL0     H85154  12.961  10.985   3.257 -2.3846 -0.3163 -0.1430
  631MOL0     H85155  13.142  10.847   3.303 -0.7080  2.9600 -2.0202
  631MOL0     H85156  13.134  10.883   3.479 -0.7288 -0.8448  0.6058
  631MOL0     H85157  13.181  11.127   3.412  0.2431 -0.2554 -1.4927
  631MOL0     H85158  13.214  11.090   3.240  0.5250  2.5639  0.0556
  631MOL0     H85159  13.347  10.957   3.487  1.5844 -2.2539 -0.8417
  631MOL0     H85160  13.414  10.956   3.316  1.1098  1.3465 -0.8052
  631MOL0     H85161  13.415  11.216   3.368 -1.3291 -0.2275  1.4145
  631MOL0     H85162  13.556  11.118   3.382  1.9184  2.6733  2.5498
  631MOL0     H85163  13.541  11.248   3.582 -0.0337  0.3828 -0.9350
  631MOL0     H85164  13.384  11.167   3.622 -1.7371  0.2691 -1.5191
  631MOL0     H85165  12.508  11.103   3.554  0.5073  1.0011  0.2439
  631MOL0     H85166  12.269  11.093   3.523  0.4597  0.0751  0.2327
  631MOL0     H85167  11.792  11.048   3.494  0.0757 -0.8582  1.1737
  631MOL0     H85168  11.587  10.969   3.435  1.4014  3.5783  0.0314
  631MOL0     H85169  10.167   9.747   3.407 -1.1613  1.1405  3.4464
  631MOL0     H85170   9.934   9.823   3.488 -0.9370  2.4842 -0.0165
  631MOL0     H85171   9.531  10.223   3.285  0.6521  3.1513  0.6761
  631MOL0     H85172   9.366  10.326   3.392 -1.0514 -1.1289 -2.1311
  631MOL0     H85173   9.147  10.303   3.492 -1.1682 -1.6422  0.3278
  631MOL0     H85174   9.228  10.438   3.572 -1.3478  1.3011 -2.5026
  631MOL0     H85175   9.015  10.261   3.693  0.6446 -0.6053 -3.3774
  631MOL0     H85176   8.994  10.431   3.627 -0.5250  0.1469  0.8769
  631MOL0     H85177   9.135  10.520   3.788 -1.5869  1.7026 -0.6747
  631MOL0     H85178   9.169  10.358   3.862 -1.8646 -2.7532 -0.5779
  631MOL0     H85179   8.972  10.499   3.978  2.2261  0.8635 -2.0646
  631MOL0     H85180   8.870  10.435   3.854 -1.7866  2.5302  3.4696
  631MOL0     H85181   8.984  10.116   4.136 -1.4986 -2.1567 -1.3017
  631MOL0     H85182   9.444  10.080   3.740 -0.9745 -0.0064  0.1239
  631MOL0     H85183   9.727   9.912   3.624 -1.2267  0.2670 -0.7229
  631MOL0     H85184   9.789  10.070   3.671  2.6486 -3.5616 -3.5205
  631MOL0     H85185   9.672   9.995   3.772  0.2572  0.3455  0.1384
  632MOL0     O85186   1.991  10.290   9.110  0.7333 -0.3015 -0.5099
  632MOL0     C85187   1.956  10.182   9.158 -0.1119  0.4010 -0.9326
  632MOL0     O85188   2.042  10.099   9.233  0.9709  1.1477 -0.4458
  632MOL0     C85189   2.179  10.115   9.255  0.1919 -1.7102 -0.1845
  632MOL0     C85190   2.241  10.012   9.329 -0.8017  0.6483 -0.2944
  632MOL0     C85191   2.371  10.017   9.370 -0.4512  0.4043  0.3642
  632MOL0     C85192   2.451  10.132   9.356  0.8185  1.0836 -0.4103
  632MOL0     O85193   2.577  10.143   9.413 -0.1449 -0.4291 -0.0719
  632MOL0     C85194   2.639  10.024   9.475 -0.2665 -0.0457 -0.7532
  632MOL0     C85195   2.782  10.052   9.504 -1.5209  0.5928 -0.1426
  632MOL0     C85196   2.849  10.116   9.388  0.5266  0.0257  0.5388
  632MOL0     C85197   3.005  10.130   9.399  0.1831 -0.0957 -0.6119
  632MOL0     C85198   3.063  10.177   9.265 -0.0769  0.3838 -0.6120
  632MOL0     C85199   3.215  10.211   9.287 -0.0480  0.4682  0.1234
  632MOL0     C85200   3.307  10.146   9.184  0.0787 -0.5695 -0.0212
  632MOL0     C85201   3.452  10.164   9.234 -0.2010 -0.8000  0.2179
  632MOL0     N85202   3.479  10.308   9.264 -0.1883  0.3911  0.5558
  632MOL0     C85203   3.504  10.413   9.175  0.2204 -0.1892 -0.1652
  632MOL0     C85204   3.549  10.516   9.247 -0.2062 -0.3334 -0.2732
  632MOL0     C85205   3.618  10.639   9.192  0.2351 -0.7999  0.1736
  632MOL0     C85206   3.750  10.625   9.116 -0.2677  0.1030 -0.5334
  632MOL0     C85207   3.859  10.612   9.220 -0.6275  0.0265  1.2305
  632MOL0     C85208   4.003  10.636   9.167  0.3161  0.1607 -0.0635
  632MOL0     O85209   4.109  10.617   9.262 -0.0734  0.3837 -0.4991
  632MOL0     C85210   4.237  10.606   9.210 -0.1715  0.3518 -0.3939
  632MOL0     C85211   4.331  10.568   9.309  0.0633  0.5947  0.6785
  632MOL0     C85212   4.467  10.559   9.274  0.6207 -0.7480  0.2618
  632MOL0     C85213   4.515  10.584   9.144  0.4463 -0.8897 -1.0515
  632MOL0     C85214   4.654  10.567   9.102  0.5817  0.4371  0.5760
  632MOL0     O85215   4.747  10.565   9.204  0.0561  0.0746 -0.3965
  632MOL0     C85216   4.882  10.541   9.162 -0.3677 -0.6461 -0.6402
  632MOL0     C85217   4.974  10.646   9.168 -0.1166  0.5140  0.1993
  632MOL0     C85218   5.101  10.622   9.114  0.0426 -0.4190  0.0610
  632MOL0     C85219   5.132  10.494   9.068  0.0875  0.2546  0.5117
  632MOL0     O85220   5.258  10.464   9.020  0.4719 -0.1322 -0.8932
  632MOL0     C85221   5.281  10.532   8.897 -0.4701  0.0290 -0.4042
  632MOL0     C85222   5.354  10.437   8.809  0.1758  0.4442 -0.5287
  632MOL0     C85223   5.387  10.492   8.661 -0.1673  0.1851  0.5613
  632MOL0     C85224   5.470  10.391   8.588  0.1423 -0.7784 -0.3570
  632MOL0     C85225   5.478  10.430   8.446  1.1834  0.0846  0.6504
  632MOL0     C85226   5.557  10.558   8.410  0.7753  1.9574  0.3177
  632MOL0     C85227   5.539  10.599   8.267  0.5059 -0.4783 -0.2578
  632MOL0     C85228   5.626  10.725   8.240  0.7602  0.4119 -0.6158
  632MOL0    Cl85229   5.589  10.799   8.085 -0.2679  0.0156  0.1320
  632MOL0     C85230   5.042  10.385   9.065  0.2837 -0.7080  0.1413
  632MOL0     C85231   4.919  10.415   9.115  0.2357  0.1472 -0.2540
  632MOL0     O85232   4.674  10.548   8.983  0.2590  0.8619 -0.4139
  632MOL0     C85233   4.415  10.616   9.047  0.0864  1.3016  0.4663
  632MOL0     C85234   4.275  10.616   9.074 -0.5061  0.8345 -0.0794
  632MOL0     N85235   3.552  10.478   9.378 -0.0147  1.0595 -0.7402
  632MOL0     N85236   3.499  10.360   9.388  0.9159 -0.5265  0.2772
  632MOL0     C85237   2.397  10.242   9.293  0.2499  0.1507  1.0230
  632MOL0     C85238   2.267  10.229   9.234 -0.0661 -0.7694  0.3291
  632MOL0     C85239   1.801  10.150   9.159 -0.4593 -0.2394 -0.3248
  632MOL0     C85240   1.762  10.040   9.233  0.4634  0.0847 -0.5222
  632MOL0     C85241   1.630  10.012   9.261 -0.1169  0.4806 -0.4353
  632MOL0     C85242   1.525  10.091   9.212 -0.9764  0.8892 -0.3696
  632MOL0     O85243   1.399  10.061   9.259 -0.2665 -0.3331 -0.6472
  632MOL0     C85244   1.288  10.106   9.183  0.7885 -0.1787  0.7473
  632MOL0     C85245   1.159  10.035   9.241 -0.9038 -0.5033  0.5751
  632MOL0     C85246   1.034  10.100   9.183  0.3273 -0.0603 -0.1955
  632MOL0     C85247   1.023  10.063   9.031 -0.5116  0.1200 -0.3488
  632MOL0     C85248   0.879  10.079   8.993  0.5729 -0.5388 -0.4633
  632MOL0     C85249   0.759  10.077   8.975 -0.1675 -0.0188  0.7698
  632MOL0     C85250   1.562  10.192   9.122 -0.6728  0.5809 -0.1698
  632MOL0     C85251   1.693  10.222   9.094 -0.2935 -0.3950 -0.7698
  632MOL0     C85252   1.718  10.336   8.990 -0.1750 -0.2672  0.1399
  632MOL0     H85253   2.178   9.925   9.345  1.6118 -1.3920 -1.2837
  632MOL0     H85254   2.404   9.932   9.427 -1.0602 -1.6400 -2.1299
  632MOL0     H85255   2.598  10.003   9.574  0.2403  1.9883 -0.0544
  632MOL0     H85256   2.624   9.940   9.407 -1.2690 -0.5066  0.0234
  632MOL0     H85257   2.816   9.952   9.531 -0.3613  0.9528 -0.1877
  632MOL0     H85258   2.797  10.108   9.597 -4.6132 -1.6166  1.8948
  632MOL0     H85259   2.804  10.215   9.381 -0.6453 -0.5816 -1.1889
  632MOL0     H85260   2.820  10.054   9.302 -0.5758  0.7409  0.3666
  632MOL0     H85261   3.026  10.197   9.484  0.3583 -1.2539  0.2838
  632MOL0     H85262   3.054  10.041   9.439 -1.6386 -0.0073  2.0819
  632MOL0     H85263   3.055  10.089   9.199 -1.1989 -2.0192  2.4744
  632MOL0     H85264   3.008  10.262   9.225 -4.7137 -1.8375  0.3435
  632MOL0     H85265   3.230  10.318   9.275 -0.0858  0.4961  0.3272
  632MOL0     H85266   3.245  10.186   9.388 -1.1000 -0.1505  0.3026
  632MOL0     H85267   3.290  10.184   9.083  1.7331 -1.1424 -0.5502
  632MOL0     H85268   3.295  10.038   9.172  1.7943 -0.7355 -0.5018
  632MOL0     H85269   3.475  10.102   9.321  0.5595 -1.8044 -0.6665
  632MOL0     H85270   3.519  10.118   9.161  1.8260  0.2259  1.3368
  632MOL0     H85271   3.500  10.406   9.067  0.5580 -3.6401 -0.0492
  632MOL0     H85272   3.543  10.675   9.120  2.5077  0.4835 -1.7123
  632MOL0     H85273   3.633  10.719   9.264  0.1847 -0.5648 -0.0738
  632MOL0     H85274   3.760  10.544   9.044  1.1139 -1.3500  1.2000
  632MOL0     H85275   3.759  10.718   9.058 -1.1144  0.4549 -0.1175
  632MOL0     H85276   3.845  10.516   9.270 -0.5659  0.0794  1.3483
  632MOL0     H85277   3.850  10.695   9.290 -1.0119  0.5426  0.5792
  632MOL0     H85278   4.007  10.729   9.110  0.0407 -0.4928 -1.1747
  632MOL0     H85279   4.019  10.554   9.096 -0.0175 -0.2231  0.2980
  632MOL0     H85280   4.299  10.554   9.412  0.2173  0.7643  0.7498
  632MOL0     H85281   4.538  10.530   9.351 -0.7434 -2.6332  0.8806
  632MOL0     H85282   4.973  10.751   9.194 -1.3752  0.4583  0.4052
  632MOL0     H85283   5.174  10.702   9.120  0.0950 -0.5005  0.5664
  632MOL0     H85284   5.187  10.564   8.851 -0.7739 -0.2357  0.0327
  632MOL0     H85285   5.334  10.627   8.912  0.9927 -0.7421 -0.5150
  632MOL0     H85286   5.445  10.405   8.862  0.4106  2.6523  0.5287
  632MOL0     H85287   5.288  10.350   8.795  1.8646 -1.1311  0.7440
  632MOL0     H85288   5.290  10.507   8.612 -0.8179  0.3343  1.8667
  632MOL0     H85289   5.435  10.590   8.672 -1.6825  0.8448  1.5686
  632MOL0     H85290   5.436  10.288   8.606 -3.4596  0.5921  1.7067
  632MOL0     H85291   5.573  10.401   8.625  0.5931  3.8271 -2.1635
  632MOL0     H85292   5.374  10.437   8.413  0.4586 -0.2713  2.6848
  632MOL0     H85293   5.521  10.349   8.386 -1.1066  0.3006 -1.4143
  632MOL0     H85294   5.513  10.633   8.475  2.9623  0.9031  3.2160
  632MOL0     H85295   5.660  10.528   8.433  0.1580 -0.7817 -0.0913
  632MOL0     H85296   5.432  10.618   8.255  0.8511  0.2980 -2.7762
  632MOL0     H85297   5.566  10.522   8.194  2.1916  1.1671 -1.4621
  632MOL0     H85298   5.606  10.793   8.324 -0.1374 -1.3336  0.6541
  632MOL0     H85299   5.733  10.709   8.253  0.7557  1.7611  1.5629
  632MOL0     H85300   5.056  10.286   9.024  0.9342  0.1766 -1.8910
  632MOL0     H85301   4.839  10.342   9.111 -0.7737  1.2457 -2.9636
  632MOL0     H85302   4.433  10.604   8.940  0.2347 -1.7847  0.7481
  632MOL0     H85303   4.200  10.620   8.996 -0.0875  0.4519 -0.5121
  632MOL0     H85304   2.459  10.331   9.286 -1.9051  1.6940  0.4506
  632MOL0     H85305   2.238  10.315   9.173  1.9249 -1.9400 -2.4489
  632MOL0     H85306   1.841   9.970   9.258  1.2225  0.9259 -0.5170
  632MOL0     H85307   1.609   9.921   9.317  5.6632  0.3132  2.1790
  632MOL0     H85308   1.286  10.080   9.077 -0.3791 -0.1013  0.7359
  632MOL0     H85309   1.269  10.213   9.188 -0.8165 -0.3136 -1.3272
  632MOL0     H85310   1.170  10.050   9.349 -0.8680 -0.6731  0.5948
  632MOL0     H85311   1.172   9.928   9.225  1.2092 -0.4591  1.6617
  632MOL0     H85312   1.030  10.208   9.199  1.1768 -0.2180  1.1599
  632MOL0     H85313   0.949  10.050   9.230  0.5967  0.4968  0.9100
  632MOL0     H85314   1.084  10.127   8.966  0.9135 -2.5856 -1.8433
  632MOL0     H85315   1.053   9.960   9.014  0.3891  0.6360 -2.1238
  632MOL0     H85316   0.662  10.101   8.938  0.8269  2.8255 -0.2726
  632MOL0     H85317   1.480  10.241   9.071 -0.1180  1.4008 -0.2838
  632MOL0     H85318   1.775  10.289   8.909 -0.6786  2.2502 -1.8258
  632MOL0     H85319   1.629  10.374   8.939  0.1626  0.2805 -0.0650
  632MOL0     H85320   1.770  10.422   9.035 -2.7849  1.7166 -0.3953
  633MOL0     O85321   2.805   1.480   9.372  0.4410 -0.1456 -0.4020
  633MOL0     C85322   2.717   1.469   9.291  0.0038 -0.2943 -0.6669
  633MOL0     O85323   2.734   1.400   9.169  0.4327  0.5441 -0.2267
  633MOL0     C85324   2.866   1.369   9.137 -0.1593  0.2337 -1.0024
  633MOL0     C85325   2.938   1.272   9.199 -0.4259  0.3673  0.3106
  633MOL0     C85326   3.059   1.228   9.147 -0.5348  0.8549  0.2384
  633MOL0     C85327   3.123   1.286   9.033  0.2413  0.0180  0.3553
  633MOL0     O85328   3.246   1.251   8.987  0.2516  0.2959  0.2961
  633MOL0     C85329   3.300   1.316   8.877  0.0996 -0.3620 -0.1186
  633MOL0     C85330   3.353   1.460   8.916 -0.8829  0.2936  0.0360
  633MOL0     C85331   3.469   1.515   8.834 -0.1673  0.3895 -0.4780
  633MOL0     C85332   3.601   1.463   8.887  0.2044  0.4157  0.0964
  633MOL0     C85333   3.721   1.491   8.795  0.7439  0.4465 -0.0289
  633MOL0     C85334   3.740   1.632   8.761  0.2947 -0.5359  0.0088
  633MOL0     C85335   3.839   1.650   8.658  0.0912  1.2273 -0.2913
  633MOL0     C85336   3.868   1.795   8.620  0.2882  0.6249 -0.1033
  633MOL0     N85337   3.940   1.872   8.724 -0.3117  0.3186  0.4552
  633MOL0     C85338   4.076   1.865   8.747 -1.0480  0.1320 -1.0141
  633MOL0     C85339   4.091   1.948   8.857  0.0385  0.4279  0.6315
  633MOL0     C85340   4.220   1.974   8.937  0.4484 -0.1983  0.2638
  633MOL0     C85341   4.203   1.952   9.081 -0.1997  0.5330 -0.0953
  633MOL0     C85342   4.314   2.024   9.161 -0.1397 -0.5787  0.3027
  633MOL0     C85343   4.452   1.970   9.130  0.1511  1.2375  0.8070
  633MOL0     O85344   4.537   2.018   9.235  0.1058  0.4207 -0.1652
  633MOL0     C85345   4.662   2.046   9.200 -0.6926  0.2813  0.4465
  633MOL0     C85346   4.712   2.171   9.232 -0.6990  0.8842  0.0701
  633MOL0     C85347   4.833   2.214   9.188 -0.6493  1.0245 -0.0056
  633MOL0     C85348   4.910   2.128   9.101  0.5404 -0.4898 -0.2653
  633MOL0     C85349   5.035   2.174   9.052  0.0845 -0.7299  0.6049
  633MOL0     O85350   5.121   2.081   9.017 -0.6167  0.6964  0.0856
  633MOL0     C85351   5.247   2.103   8.956  0.3850 -0.7895  0.2234
  633MOL0     C85352   5.351   2.012   8.973 -0.4033  0.2968  0.6691
  633MOL0     C85353   5.477   2.034   8.932 -0.1477 -0.2663 -0.2485
  633MOL0     C85354   5.513   2.153   8.868  0.4140 -0.3979 -0.5530
  633MOL0     O85355   5.644   2.193   8.839 -1.1103  0.1163 -0.1901
  633MOL0     C85356   5.727   2.087   8.804  0.4195 -0.5358 -0.0041
  633MOL0     C85357   5.853   2.140   8.738  0.1336  0.1259 -0.0879
  633MOL0     C85358   5.945   2.191   8.854 -0.1346  0.0999  0.1531
  633MOL0     C85359   6.012   2.077   8.920 -0.2755  0.4016  0.4750
  633MOL0     C85360   6.165   2.069   8.906  0.0272 -0.5038 -0.4192
  633MOL0     C85361   6.218   2.066   8.758 -0.2890 -0.1409 -0.3620
  633MOL0     C85362   6.374   2.058   8.764 -0.8372 -0.5821 -0.1750
  633MOL0     C85363   6.434   2.066   8.622 -0.1884 -0.5360 -0.6819
  633MOL0    Cl85364   6.381   1.907   8.532 -0.1222  0.1080  0.7706
  633MOL0     C85365   5.408   2.237   8.840  0.2675 -0.4677  0.0932
  633MOL0     C85366   5.275   2.216   8.874 -0.0729 -0.5018 -0.4840
  633MOL0     O85367   5.045   2.295   9.033 -0.5337  0.4690 -0.3527
  633MOL0     C85368   4.860   2.000   9.078  0.7677  0.2171 -0.3649
  633MOL0     C85369   4.737   1.958   9.120 -0.0816  0.3391  0.1140
  633MOL0     N85370   3.970   2.006   8.891 -0.2336  0.3732 -0.2510
  633MOL0     N85371   3.883   1.962   8.809 -0.7259 -0.6365  0.0200
  633MOL0     C85372   3.042   1.381   8.968 -0.3332 -0.4608  0.4175
  633MOL0     C85373   2.914   1.421   9.025 -1.2255 -0.2411  0.7513
  633MOL0     C85374   2.578   1.510   9.342  1.0643  0.2086  0.2894
  633MOL0     C85375   2.470   1.447   9.278 -0.1305 -0.4793  0.6602
  633MOL0     C85376   2.340   1.460   9.318  0.0833  0.2438  0.0371
  633MOL0     C85377   2.311   1.549   9.422  0.5837  1.0643 -0.1684
  633MOL0     O85378   2.184   1.544   9.475 -0.2701 -0.1044  0.9006
  633MOL0     C85379   2.084   1.602   9.393  0.0647  0.4116 -0.4891
  633MOL0     C85380   1.954   1.623   9.461  0.1902 -0.3466 -0.1201
  633MOL0     C85381   1.870   1.730   9.397  0.2178  0.4942  0.5505
  633MOL0     C85382   1.760   1.778   9.482 -0.2588 -0.3722  0.2355
  633MOL0     C85383   1.810   1.828   9.608  0.2884 -0.0172  0.4413
  633MOL0     C85384   1.860   1.879   9.698 -0.6450  0.7237  0.1474
  633MOL0     C85385   2.407   1.634   9.474  0.5812 -0.9801  0.4599
  633MOL0     C85386   2.542   1.618   9.434  0.2481 -0.2065  0.6514
  633MOL0     C85387   2.655   1.708   9.490 -0.1444  0.6086  0.2336
  633MOL0     H85388   2.898   1.207   9.276 -2.2198  1.1379  0.0678
  633MOL0     H85389   3.100   1.136   9.187 -0.1870 -0.7632 -3.4366
  633MOL0     H85390   3.391   1.261   8.851  2.4667  2.5644  1.2546
  633MOL0     H85391   3.231   1.317   8.792 -0.4878  0.5697  0.3573
  633MOL0     H85392   3.387   1.465   9.019 -0.7721  1.4466 -0.0425
  633MOL0     H85393   3.271   1.533   8.906 -0.5756  0.6901  0.3801
  633MOL0     H85394   3.462   1.624   8.832 -1.9522  0.3227  0.4137
  633MOL0     H85395   3.462   1.469   8.735  2.8654  0.9633 -1.0310
  633MOL0     H85396   3.613   1.496   8.991 -1.8371 -3.4208  1.7517
  633MOL0     H85397   3.593   1.357   8.912  2.0683  0.5069  1.2078
  633MOL0     H85398   3.814   1.453   8.839  1.0146 -0.7077 -1.5408
  633MOL0     H85399   3.697   1.444   8.700  1.9364  2.6685 -1.5163
  633MOL0     H85400   3.645   1.673   8.728  0.0380  0.3928  1.7859
  633MOL0     H85401   3.771   1.687   8.850 -0.3416 -0.5572  0.2465
  633MOL0     H85402   3.802   1.594   8.573 -2.9157  2.1768  0.2682
  633MOL0     H85403   3.931   1.603   8.696 -0.8030 -1.4790 -1.2800
  633MOL0     H85404   3.915   1.789   8.522 -0.9295  2.0381 -0.8303
  633MOL0     H85405   3.777   1.856   8.607 -0.7774  0.0522  3.6419
  633MOL0     H85406   4.149   1.806   8.694 -1.5896 -0.8586 -0.6881
  633MOL0     H85407   4.294   1.903   8.899  0.7434  0.2577 -0.0270
  633MOL0     H85408   4.257   2.073   8.907  2.5756 -1.5859 -2.0997
  633MOL0     H85409   4.108   2.000   9.105  0.1461  2.4415 -2.1837
  633MOL0     H85410   4.210   1.845   9.105  1.2429  0.6780  0.2166
  633MOL0     H85411   4.285   2.001   9.264 -2.6511 -0.8519 -0.3836
  633MOL0     H85412   4.320   2.132   9.143  0.2409 -0.9647 -2.1840
  633MOL0     H85413   4.488   2.001   9.031 -0.4221  1.5355  0.6913
  633MOL0     H85414   4.447   1.861   9.129  0.4085  1.2129  1.4834
  633MOL0     H85415   4.662   2.231   9.307 -1.5990 -0.3070  0.4513
  633MOL0     H85416   4.868   2.314   9.214  1.7108  0.2485  0.0910
  633MOL0     H85417   5.326   1.910   9.000 -0.8529 -0.4592 -2.3071
  633MOL0     H85418   5.544   1.955   8.965 -0.0540  0.7880  2.2920
  633MOL0     H85419   5.765   2.029   8.889  3.7744 -0.6181 -1.4210
  633MOL0     H85420   5.669   2.030   8.731 -2.0883  2.0048 -0.1816
  633MOL0     H85421   5.911   2.064   8.683  0.6037 -0.8980  1.7545
  633MOL0     H85422   5.823   2.218   8.668 -1.5748 -0.9634 -0.6582
  633MOL0     H85423   6.016   2.263   8.813 -0.6087  1.3517  1.4327
  633MOL0     H85424   5.882   2.252   8.920 -4.9447 -2.4897 -1.5654
  633MOL0     H85425   5.968   1.984   8.882 -1.0043  1.5305 -1.5718
  633MOL0     H85426   5.987   2.076   9.027  1.8595 -2.4263  1.0782
  633MOL0     H85427   6.183   1.986   8.976 -1.0365  1.5615  2.5234
  633MOL0     H85428   6.207   2.157   8.956 -3.2140  1.1957 -0.4320
  633MOL0     H85429   6.183   1.983   8.696 -0.1202 -0.4835 -0.0077
  633MOL0     H85430   6.195   2.159   8.706  3.2617  0.4631 -1.1322
  633MOL0     H85431   6.409   1.973   8.823 -0.9291 -0.9898 -0.6966
  633MOL0     H85432   6.413   2.150   8.808  0.2974  0.4627 -3.0574
  633MOL0     H85433   6.391   2.156   8.578  0.2857 -0.0323 -0.1391
  633MOL0     H85434   6.543   2.081   8.626 -0.4584  1.5368  0.3996
  633MOL0     H85435   5.440   2.319   8.777  0.9369  0.5947  1.7534
  633MOL0     H85436   5.197   2.281   8.836  1.9330  1.4165 -1.5541
  633MOL0     H85437   4.926   1.948   9.009  1.1153 -1.7134  1.3308
  633MOL0     H85438   4.681   1.871   9.089 -1.1183  1.1085 -0.2460
  633MOL0     H85439   3.073   1.438   8.881  1.4605  0.1789  1.4189
  633MOL0     H85440   2.850   1.488   8.969 -2.4672 -0.9438  1.2664
  633MOL0     H85441   2.489   1.392   9.186 -0.1261 -0.0571  0.4056
  633MOL0     H85442   2.269   1.405   9.257  2.1737 -2.7606  0.0675
  633MOL0     H85443   2.061   1.563   9.293 -2.5526  2.1666 -0.6427
  633MOL0     H85444   2.128   1.701   9.378  1.3931 -0.2637 -1.2935
  633MOL0     H85445   1.980   1.665   9.558  0.0785  0.1114 -0.2821
  633MOL0     H85446   1.909   1.524   9.474 -2.7284  0.1263 -4.3964
  633MOL0     H85447   1.830   1.681   9.307 -0.3171 -2.1483  2.1151
  633MOL0     H85448   1.923   1.821   9.370  0.6683 -0.1154 -0.7266
  633MOL0     H85449   1.722   1.863   9.425  0.6032 -0.1706 -0.0433
  633MOL0     H85450   1.686   1.698   9.497  0.5396 -0.8561  1.8405
  633MOL0     H85451   1.921   1.924   9.774  0.8744  1.8885 -1.6791
  633MOL0     H85452   2.388   1.710   9.549  1.5597  2.0179 -2.0767
  633MOL0     H85453   2.610   1.787   9.551 -1.4861  0.1334 -0.1119
  633MOL0     H85454   2.705   1.643   9.562  0.5029  0.0452 -0.7050
  633MOL0     H85455   2.730   1.752   9.423  0.3210  0.9729  0.9896
  634MOL0     O85456   1.985   6.835   3.180  0.1750 -0.2753 -0.5175
  634MOL0     C85457   1.970   6.805   3.062  1.2816 -0.0327 -0.4460
  634MOL0     O85458   2.053   6.730   2.987 -0.0932  0.3167 -0.2604
  634MOL0     C85459   2.178   6.700   3.045  0.6752  0.9349  0.1556
  634MOL0     C85460   2.283   6.787   3.039 -0.5911  1.0390  0.4740
  634MOL0     C85461   2.411   6.738   3.079 -0.1497  0.1010 -0.0367
  634MOL0     C85462   2.426   6.609   3.135  0.0738 -0.1835 -0.1774
  634MOL0     O85463   2.543   6.566   3.182  0.2776  0.6629 -0.3229
  634MOL0     C85464   2.659   6.624   3.131  0.1759  0.3816  0.7040
  634MOL0     C85465   2.780   6.535   3.146 -1.0044 -0.0098  0.1371
  634MOL0     C85466   2.914   6.604   3.105  0.0542 -0.3901 -0.9308
  634MOL0     C85467   3.044   6.521   3.129 -0.7270 -0.6454 -0.5513
  634MOL0     C85468   3.172   6.599   3.075  0.0110 -0.0092 -0.3538
  634MOL0     C85469   3.311   6.565   3.146 -0.2175  0.2690 -0.4669
  634MOL0     C85470   3.433   6.616   3.058  0.6974 -0.1346 -0.0163
  634MOL0     C85471   3.567   6.619   3.131 -0.5550  0.0278 -0.0605
  634MOL0     N85472   3.607   6.486   3.185 -0.2942 -0.2032  0.0534
  634MOL0     C85473   3.668   6.391   3.106 -0.1886 -0.5410 -0.5091
  634MOL0     C85474   3.686   6.287   3.188  0.2346  1.3058 -0.3393
  634MOL0     C85475   3.764   6.153   3.171  0.0445 -0.0665 -0.3467
  634MOL0     C85476   3.913   6.172   3.188  0.5296  0.4167 -0.0602
  634MOL0     C85477   3.950   6.190   3.334  0.6298  0.2304  0.0783
  634MOL0     C85478   4.099   6.208   3.346  0.1650 -0.0209 -0.4169
  634MOL0     O85479   4.168   6.090   3.301  0.1836 -0.4644  0.4660
  634MOL0     C85480   4.307   6.081   3.318 -0.1481  0.3538 -0.0939
  634MOL0     C85481   4.378   6.164   3.407  0.1235  0.0462  0.1608
  634MOL0     C85482   4.509   6.148   3.439  0.0354 -0.5260 -0.1201
  634MOL0     C85483   4.575   6.037   3.389  0.3833  0.5331  0.5184
  634MOL0     C85484   4.721   6.022   3.401  0.1391 -0.3356  0.1089
  634MOL0     O85485   4.785   5.951   3.303 -0.4068 -1.3559  0.4371
  634MOL0     C85486   4.924   5.952   3.291 -0.1947 -0.5367  0.1699
  634MOL0     C85487   4.994   5.835   3.250 -0.0586  0.7529  0.6139
  634MOL0     C85488   5.133   5.822   3.251  0.0582 -0.4490  0.6426
  634MOL0     C85489   5.211   5.928   3.286 -0.2091 -0.2246 -0.3613
  634MOL0     O85490   5.349   5.916   3.307 -0.2829  0.4152  0.5195
  634MOL0     C85491   5.417   5.981   3.210 -0.1308 -0.0996 -0.2687
  634MOL0     C85492   5.563   5.980   3.245 -1.5394  0.1108  0.7885
  634MOL0     C85493   5.642   6.048   3.136  0.4326  0.1401  0.5935
  634MOL0     C85494   5.766   5.957   3.103 -0.1091 -0.8628  0.5388
  634MOL0     C85495   5.851   6.037   3.009 -0.0733 -0.1869  0.3541
  634MOL0     C85496   5.790   6.062   2.864  0.9213 -0.3309 -0.7155
  634MOL0     C85497   5.904   6.117   2.773 -0.0149 -0.4881 -0.1359
  634MOL0     C85498   5.851   6.156   2.639  0.0227 -0.2784 -0.6582
  634MOL0    Cl85499   5.980   6.215   2.534 -0.6169  0.0609 -0.4761
  634MOL0     C85500   5.144   6.051   3.308  0.1820 -0.2708 -0.4908
  634MOL0     C85501   5.005   6.068   3.307  0.8617  0.7966  0.4667
  634MOL0     O85502   4.777   6.079   3.502 -0.6462  0.5099  0.7131
  634MOL0     C85503   4.505   5.953   3.292  0.1732  0.5595 -0.4579
  634MOL0     C85504   4.377   5.978   3.249 -0.2051 -0.3051 -0.1834
  634MOL0     N85505   3.625   6.316   3.310  0.3513 -0.6202 -0.2501
  634MOL0     N85506   3.583   6.441   3.312  0.2476  0.0632  0.1657
  634MOL0     C85507   2.313   6.526   3.144  0.0603 -0.4335  0.5816
  634MOL0     C85508   2.189   6.570   3.104 -1.1463 -0.7211  0.4595
  634MOL0     C85509   1.857   6.869   2.984 -0.2160  0.3409 -0.4331
  634MOL0     C85510   1.877   6.964   2.886  0.4517 -0.3376 -0.5461
  634MOL0     C85511   1.768   7.020   2.823  0.4405 -0.4555  0.5458
  634MOL0     C85512   1.641   6.974   2.838 -0.3734 -0.2709  0.9290
  634MOL0     O85513   1.545   7.023   2.759  0.1866  0.2472  0.0952
  634MOL0     C85514   1.408   7.030   2.794  0.0069 -0.1617 -0.2492
  634MOL0     C85515   1.339   7.154   2.740  0.0191 -0.0606 -0.0513
  634MOL0     C85516   1.184   7.130   2.723 -0.6062 -0.4249  0.6924
  634MOL0     C85517   1.108   7.267   2.702  0.3468 -0.1272 -0.0263
  634MOL0     C85518   0.982   7.242   2.622  1.2020 -0.3646 -1.0394
  634MOL0     C85519   0.878   7.238   2.570 -0.1164  0.4177 -0.2581
  634MOL0     C85520   1.621   6.879   2.945 -1.1025 -0.1892  0.1153
  634MOL0     C85521   1.728   6.831   3.019  0.2276  1.1591 -0.1968
  634MOL0     C85522   1.692   6.735   3.128 -0.4187 -0.9832 -0.3856
  634MOL0     H85523   2.263   6.887   3.002 -1.2814  1.2232  1.3123
  634MOL0     H85524   2.501   6.798   3.065  1.2285 -1.5289  1.3873
  634MOL0     H85525   2.651   6.646   3.024  2.5096 -1.7951 -0.0340
  634MOL0     H85526   2.675   6.718   3.183  0.9904  0.4232  0.3880
  634MOL0     H85527   2.776   6.443   3.087  2.0060  0.2902 -0.6954
  634MOL0     H85528   2.789   6.506   3.252  0.0244 -1.0589 -0.2130
  634MOL0     H85529   2.933   6.694   3.164  1.6875 -1.7700  0.8030
  634MOL0     H85530   2.908   6.623   2.998 -0.5851 -1.2125 -1.0429
  634MOL0     H85531   3.064   6.510   3.236 -0.0563 -1.4060 -0.7442
  634MOL0     H85532   3.044   6.418   3.092  1.1656  0.2160 -3.2743
  634MOL0     H85533   3.175   6.561   2.973  0.5881 -0.5045 -0.1592
  634MOL0     H85534   3.168   6.708   3.075 -1.6843  0.0041 -2.8092
  634MOL0     H85535   3.317   6.628   3.235 -2.3312  1.1889 -0.8880
  634MOL0     H85536   3.323   6.461   3.177 -1.4362  0.4818  0.8302
  634MOL0     H85537   3.407   6.714   3.017  2.0411 -0.7306 -2.5532
  634MOL0     H85538   3.447   6.560   2.965  1.3231 -0.7259  0.4252
  634MOL0     H85539   3.647   6.653   3.064 -1.8477  0.5184 -1.4008
  634MOL0     H85540   3.568   6.699   3.205  1.8288  0.0236 -0.0065
  634MOL0     H85541   3.700   6.401   3.003  1.6121 -0.2985  0.0321
  634MOL0     H85542   3.740   6.082   3.250 -0.1612 -0.9508 -1.1915
  634MOL0     H85543   3.744   6.107   3.074  0.3568 -2.4460  0.6408
  634MOL0     H85544   3.963   6.079   3.162 -0.1830  0.1102 -0.3335
  634MOL0     H85545   3.946   6.254   3.123 -1.7846  0.2212 -1.5843
  634MOL0     H85546   3.914   6.110   3.399 -1.8473 -0.7120 -2.2308
  634MOL0     H85547   3.901   6.281   3.373 -1.6013 -1.2500  0.9709
  634MOL0     H85548   4.116   6.233   3.452 -0.9704  0.3078 -0.2978
  634MOL0     H85549   4.141   6.292   3.289  0.4878 -0.3304 -0.6368
  634MOL0     H85550   4.330   6.248   3.457  1.6561  0.6777  0.6049
  634MOL0     H85551   4.543   6.216   3.517  1.0144  0.6312 -1.5085
  634MOL0     H85552   4.948   5.741   3.218  3.4948 -1.6429  1.9257
  634MOL0     H85553   5.179   5.729   3.221 -0.0550 -0.4420  0.4455
  634MOL0     H85554   5.405   5.930   3.114 -4.1734 -0.6254  0.3363
  634MOL0     H85555   5.382   6.081   3.184  0.5780  0.6635  1.5792
  634MOL0     H85556   5.575   6.019   3.346  1.1075  0.1428  0.5264
  634MOL0     H85557   5.596   5.876   3.255 -1.1501  0.2904  1.3855
  634MOL0     H85558   5.579   6.063   3.048 -0.5029 -1.5826  0.9263
  634MOL0     H85559   5.679   6.143   3.177  2.4126 -0.7605  1.0277
  634MOL0     H85560   5.722   5.872   3.051 -0.0313  1.0133 -2.8755
  634MOL0     H85561   5.832   5.922   3.183  1.4207  0.4400 -0.1093
  634MOL0     H85562   5.940   5.977   2.988  0.5309  1.1804 -1.1961
  634MOL0     H85563   5.876   6.136   3.047 -1.0371  0.7682 -1.3538
  634MOL0     H85564   5.744   5.971   2.825  0.1135  0.1085 -0.7946
  634MOL0     H85565   5.713   6.136   2.882  1.2240 -0.5268  1.9139
  634MOL0     H85566   5.974   6.034   2.767 -0.3870 -0.9305  1.2145
  634MOL0     H85567   5.945   6.202   2.828 -1.7205  0.1695  0.1946
  634MOL0     H85568   5.797   6.071   2.597 -3.1726 -0.9764  4.1171
  634MOL0     H85569   5.774   6.233   2.656 -1.4709 -2.1292  1.5412
  634MOL0     H85570   5.212   6.133   3.332  1.6615 -0.9812 -2.0514
  634MOL0     H85571   4.972   6.171   3.315  1.1359  0.9486 -0.2506
  634MOL0     H85572   4.562   5.884   3.230 -0.5680  0.7755 -1.4105
  634MOL0     H85573   4.317   5.920   3.179 -1.4548  1.3020 -0.4979
  634MOL0     H85574   2.324   6.432   3.197  0.0288  1.7365  4.8607
  634MOL0     H85575   2.102   6.507   3.120 -0.8957 -1.3489 -0.5527
  634MOL0     H85576   1.976   7.000   2.859  0.8082  1.9388  3.1498
  634MOL0     H85577   1.788   7.099   2.751 -1.5238  2.6123  3.1343
  634MOL0     H85578   1.394   7.019   2.902 -1.2487 -3.3776 -0.6385
  634MOL0     H85579   1.369   6.935   2.756 -3.0322  1.8435 -2.6026
  634MOL0     H85580   1.378   7.167   2.639  1.5310  2.7621  0.7805
  634MOL0     H85581   1.366   7.238   2.806  2.2819 -1.1947  0.5977
  634MOL0     H85582   1.127   7.083   2.803 -0.3472 -0.5648  0.7971
  634MOL0     H85583   1.185   7.063   2.637  2.3558  1.9110 -1.3092
  634MOL0     H85584   1.077   7.299   2.802 -1.1148 -0.6982 -0.2757
  634MOL0     H85585   1.176   7.346   2.668  1.7396 -0.1192  2.5456
  634MOL0     H85586   0.788   7.225   2.513 -1.7214  1.5331  1.8649
  634MOL0     H85587   1.526   6.854   2.991 -1.0453 -1.3388 -0.3626
  634MOL0     H85588   1.702   6.632   3.094  1.5308 -0.7472 -0.6358
  634MOL0     H85589   1.747   6.745   3.223 -1.1249  0.9430 -0.1257
  634MOL0     H85590   1.588   6.755   3.156  0.0492 -0.0656  0.8255
  635MOL0     O85591   9.671   7.904   4.171 -0.2693 -0.2521  0.2145
  635MOL0     C85592   9.647   8.025   4.200 -0.7028  1.1732  0.2764
  635MOL0     O85593   9.664   8.077   4.323  0.0632  0.7377 -0.5870
  635MOL0     C85594   9.721   7.998   4.420  0.3409 -0.5914  0.0730
  635MOL0     C85595   9.649   7.936   4.517 -0.3884 -0.0447  0.3662
  635MOL0     C85596   9.709   7.861   4.618 -1.1150 -0.6298  0.3430
  635MOL0     C85597   9.853   7.855   4.620  0.0798  0.5658 -0.9849
  635MOL0     O85598   9.915   7.796   4.729  0.2351  0.4871 -0.2275
  635MOL0     C85599  10.033   7.869   4.775 -0.0313 -0.2337  0.0468
  635MOL0     C85600  10.151   7.769   4.781 -0.6388  0.3192 -0.4956
  635MOL0     C85601  10.267   7.849   4.854 -0.5446  0.4468 -0.3754
  635MOL0     C85602  10.394   7.759   4.859 -0.2405  0.3803  0.2843
  635MOL0     C85603  10.497   7.806   4.960 -0.2106  0.0830 -0.2832
  635MOL0     C85604  10.545   7.951   4.943  0.4977 -1.0332 -0.8237
  635MOL0     C85605  10.692   7.972   4.990  1.2803  0.3745 -0.0807
  635MOL0     C85606  10.796   7.901   4.908 -0.8008 -0.0881 -0.0247
  635MOL0     N85607  10.922   7.971   4.923  0.1679 -0.9300 -0.3468
  635MOL0     C85608  11.006   7.960   5.032  0.1350 -0.3545  0.0384
  635MOL0     C85609  11.108   8.047   5.010 -0.0554  0.2182 -0.5227
  635MOL0     C85610  11.206   8.053   5.121 -0.6816  0.0227  0.5847
  635MOL0     C85611  11.341   8.112   5.085  0.0179 -0.6983 -0.0554
  635MOL0     C85612  11.408   8.048   4.962  0.1814  0.8767 -1.5261
  635MOL0     C85613  11.558   8.072   4.950  0.4834  0.0175 -0.2823
  635MOL0     O85614  11.584   8.211   4.917  0.2392  0.1574  0.2257
  635MOL0     C85615  11.703   8.248   4.863  0.8700 -0.4874 -0.3531
  635MOL0     C85616  11.736   8.377   4.887 -1.4089  0.3040  0.4892
  635MOL0     C85617  11.853   8.437   4.833  0.3259  0.0309  0.0884
  635MOL0     C85618  11.957   8.361   4.780 -0.1395  0.2225  0.3101
  635MOL0     C85619  12.070   8.425   4.724  0.2026 -0.7593 -0.1638
  635MOL0     O85620  12.169   8.345   4.687 -0.9454 -0.0358 -0.2029
  635MOL0     C85621  12.293   8.404   4.664  1.1577 -0.3825  0.5099
  635MOL0     C85622  12.355   8.487   4.757  0.3789  0.6948 -0.1309
  635MOL0     C85623  12.462   8.565   4.719  0.2519 -1.0242 -1.2997
  635MOL0     C85624  12.531   8.552   4.597 -0.1936  0.5260 -0.9083
  635MOL0     O85625  12.634   8.625   4.548 -0.2109  0.5314  0.1651
  635MOL0     C85626  12.693   8.731   4.618 -0.2702 -0.0233 -0.0661
  635MOL0     C85627  12.839   8.764   4.571 -0.2396  0.9261 -0.4401
  635MOL0     C85628  12.838   8.853   4.444 -0.0067  0.3113 -0.4757
  635MOL0     C85629  12.831   8.755   4.323 -0.5982  0.9570 -0.3468
  635MOL0     C85630  12.795   8.816   4.190  0.8621  0.2991  0.3186
  635MOL0     C85631  12.775   8.707   4.085  1.7346 -0.7893 -0.1810
  635MOL0     C85632  12.750   8.752   3.945  0.4547 -0.0876 -0.4058
  635MOL0     C85633  12.875   8.789   3.867 -0.4158 -0.1615 -0.0491
  635MOL0    Cl85634  12.977   8.647   3.835 -0.3953 -0.0133  0.1264
  635MOL0     C85635  12.483   8.450   4.515  1.2832 -0.1979  0.4698
  635MOL0     C85636  12.365   8.381   4.547 -0.1965  0.3788  0.0908
  635MOL0     O85637  12.078   8.551   4.729 -0.6241  0.6650  0.5705
  635MOL0     C85638  11.933   8.223   4.764  0.1458  0.5038  0.1389
  635MOL0     C85639  11.805   8.168   4.791  1.3132  0.1756 -0.2669
  635MOL0     N85640  11.086   8.103   4.888  0.3865 -0.6730 -0.5074
  635MOL0     N85641  10.979   8.057   4.837 -0.5972  0.1103 -0.2412
  635MOL0     C85642   9.928   7.915   4.522  0.0012  0.2164  0.0740
  635MOL0     C85643   9.860   7.980   4.418  0.0263  0.0463 -0.8135
  635MOL0     C85644   9.575   8.104   4.105  0.7163 -0.2691 -0.0730
  635MOL0     C85645   9.577   8.249   4.116 -0.0709 -0.5750 -0.0281
  635MOL0     C85646   9.539   8.331   4.004  0.7494 -0.6883 -0.5876
  635MOL0     C85647   9.484   8.269   3.891 -0.3692 -0.1668  0.1504
  635MOL0     O85648   9.431   8.348   3.795 -0.0277 -0.2511 -0.3544
  635MOL0     C85649   9.486   8.482   3.766 -0.4200 -0.3018 -0.1510
  635MOL0     C85650   9.519   8.514   3.616 -0.4926  0.5527  0.2396
  635MOL0     C85651   9.387   8.498   3.536 -0.4244  0.4512 -0.0356
  635MOL0     C85652   9.346   8.355   3.508  0.3729 -0.1531  0.6149
  635MOL0     C85653   9.205   8.335   3.486  0.0612  0.0077  0.3538
  635MOL0     C85654   9.085   8.321   3.466 -0.9004  0.5201 -0.5288
  635MOL0     C85655   9.469   8.132   3.889  0.4145  0.0047  0.3558
  635MOL0     C85656   9.515   8.054   3.986 -0.7668  0.9166  0.3750
  635MOL0     C85657   9.490   7.898   3.965 -0.4373 -0.5900  0.1009
  635MOL0     H85658   9.540   7.934   4.514 -0.4702  0.9709 -3.3843
  635MOL0     H85659   9.649   7.837   4.705 -0.1150  0.2274  1.2904
  635MOL0     H85660  10.071   7.951   4.713 -1.9506  1.4735  1.0238
  635MOL0     H85661  10.008   7.916   4.870  1.5558  3.2135 -1.0895
  635MOL0     H85662  10.168   7.723   4.683 -1.2890 -0.2113 -0.3679
  635MOL0     H85663  10.114   7.685   4.841  0.1173  1.0938  1.1374
  635MOL0     H85664  10.248   7.868   4.960 -0.2436 -2.0018  0.1870
  635MOL0     H85665  10.286   7.941   4.798  1.4872  0.6698  0.5772
  635MOL0     H85666  10.356   7.662   4.892 -0.6656  1.1357  2.1248
  635MOL0     H85667  10.439   7.759   4.759  1.3502  2.4400  0.9267
  635MOL0     H85668  10.447   7.811   5.057  1.7654  0.2509  0.7723
  635MOL0     H85669  10.581   7.737   4.971  0.5093  0.9922  0.0349
  635MOL0     H85670  10.527   7.988   4.841 -1.8549  2.5330  0.6908
  635MOL0     H85671  10.486   8.021   5.002  0.9540 -1.3067 -0.0371
  635MOL0     H85672  10.692   7.939   5.094  1.1735 -0.7567 -0.4201
  635MOL0     H85673  10.710   8.078   4.969  1.0327  0.1365 -1.6729
  635MOL0     H85674  10.797   7.794   4.931 -1.3163  0.0110  0.4964
  635MOL0     H85675  10.768   7.910   4.803  0.2510  3.1600 -0.1250
  635MOL0     H85676  10.998   7.901   5.123 -0.7471  1.7918  1.4539
  635MOL0     H85677  11.171   8.104   5.211  1.5820  0.1172  1.4740
  635MOL0     H85678  11.228   7.949   5.145 -1.6977 -0.3651 -0.0734
  635MOL0     H85679  11.337   8.221   5.085 -1.2170 -0.7289 -0.4991
  635MOL0     H85680  11.407   8.094   5.170 -0.2226  0.7599  0.4653
  635MOL0     H85681  11.369   8.079   4.865  0.0130 -0.5959 -1.9524
  635MOL0     H85682  11.387   7.941   4.968 -1.5630  1.2772  1.9534
  635MOL0     H85683  11.582   7.992   4.880 -3.6800 -0.3816 -1.5552
  635MOL0     H85684  11.590   8.058   5.054 -1.8986  0.1897  0.5399
  635MOL0     H85685  11.662   8.444   4.929 -0.2385  0.5803  2.2456
  635MOL0     H85686  11.865   8.544   4.851 -4.6002  0.6922  0.9913
  635MOL0     H85687  12.296   8.508   4.846 -3.6749  1.5549 -2.7264
  635MOL0     H85688  12.503   8.639   4.787  0.5561 -0.3354 -2.2172
  635MOL0     H85689  12.626   8.815   4.597 -1.4255 -0.7221  0.7098
  635MOL0     H85690  12.693   8.710   4.725  1.0315  1.9459  0.3682
  635MOL0     H85691  12.892   8.819   4.648 -2.9854  3.9634 -0.4825
  635MOL0     H85692  12.898   8.673   4.556 -1.0086  0.6197 -1.7907
  635MOL0     H85693  12.762   8.930   4.448 -2.1604 -1.7406  0.5810
  635MOL0     H85694  12.928   8.913   4.429  1.6730 -1.5932  1.1721
  635MOL0     H85695  12.760   8.678   4.354  0.4145  0.3743  0.6042
  635MOL0     H85696  12.929   8.708   4.310  0.4501  1.8577  3.0476
  635MOL0     H85697  12.865   8.896   4.163 -1.0766  2.1337  0.4628
  635MOL0     H85698  12.702   8.872   4.201  0.3689 -0.4648  0.1457
  635MOL0     H85699  12.857   8.635   4.087  1.1525 -1.7433 -3.5930
  635MOL0     H85700  12.686   8.651   4.114  1.6063 -0.9721 -0.9134
  635MOL0     H85701  12.669   8.825   3.953 -0.7836 -1.4333 -0.2006
  635MOL0     H85702  12.702   8.669   3.892 -2.0219  0.2927  1.0794
  635MOL0     H85703  12.854   8.845   3.776 -1.2823 -0.8347 -0.2664
  635MOL0     H85704  12.933   8.851   3.937 -2.2353 -0.3516  1.7040
  635MOL0     H85705  12.540   8.432   4.424  2.4723  2.0644  0.7004
  635MOL0     H85706  12.339   8.299   4.481  1.9600  0.2461 -0.6749
  635MOL0     H85707  12.009   8.165   4.712 -0.9079  0.7953 -1.7892
  635MOL0     H85708  11.786   8.063   4.773  1.1151 -0.0843  1.2937
  635MOL0     H85709  10.034   7.896   4.508 -0.0112  1.6259 -2.4232
  635MOL0     H85710   9.915   8.026   4.336 -0.9491  2.3608 -0.2503
  635MOL0     H85711   9.612   8.301   4.204  2.4732  1.5914 -2.1382
  635MOL0     H85712   9.555   8.438   4.016  3.0534 -0.9609 -0.8627
  635MOL0     H85713   9.583   8.486   3.817 -0.4720 -4.3539  0.6401
  635MOL0     H85714   9.411   8.553   3.803  0.3014 -0.1865  1.1710
  635MOL0     H85715   9.594   8.452   3.566 -1.7839  0.1095 -1.2439
  635MOL0     H85716   9.549   8.619   3.603 -0.6291  0.6666  0.8105
  635MOL0     H85717   9.399   8.541   3.436 -2.4316  0.0323 -0.4982
  635MOL0     H85718   9.306   8.560   3.574  0.5157  1.7393 -0.0465
  635MOL0     H85719   9.389   8.324   3.413 -0.8404  0.5289 -0.1798
  635MOL0     H85720   9.390   8.279   3.574 -0.2295 -0.9959  0.0662
  635MOL0     H85721   8.980   8.306   3.449 -1.2635  2.6613 -0.3884
  635MOL0     H85722   9.417   8.104   3.798  0.7968 -1.5356  0.5963
  635MOL0     H85723   9.440   7.850   4.050 -1.2738 -3.3231 -1.8295
  635MOL0     H85724   9.426   7.883   3.878  0.7716 -1.5787 -0.6494
  635MOL0     H85725   9.581   7.840   3.949  0.1797 -0.7625  3.4935
  636MOL0     O85726  10.535  10.392   1.466  0.0813  0.9989 -0.4961
  636MOL0     C85727  10.511  10.272   1.444 -0.0619  0.4722 -0.3195
  636MOL0     O85728  10.599  10.170   1.470  1.5123 -0.0430  0.4325
  636MOL0     C85729  10.717  10.184   1.535  0.2331 -0.1173 -0.2924
  636MOL0     C85730  10.837  10.198   1.459  0.6862 -0.5154  0.0155
  636MOL0     C85731  10.968  10.216   1.515  1.3044 -0.3899 -0.6620
  636MOL0     C85732  10.962  10.246   1.650  0.2846  0.4896 -0.4279
  636MOL0     O85733  11.059  10.288   1.728 -1.0853  0.0404 -0.1517
  636MOL0     C85734  11.195  10.256   1.691  0.1829 -0.1893 -0.8678
  636MOL0     C85735  11.290  10.344   1.787 -0.0133 -0.5816  0.0942
  636MOL0     C85736  11.445  10.321   1.758 -0.0293 -0.5341 -0.2288
  636MOL0     C85737  11.482  10.374   1.619  0.3264  0.4369  0.2176
  636MOL0     C85738  11.584  10.289   1.559  0.7130  0.0861 -0.4910
  636MOL0     C85739  11.714  10.269   1.650  0.2704 -0.4030  0.0826
  636MOL0     C85740  11.840  10.306   1.566 -0.0030 -0.4364 -0.7233
  636MOL0     C85741  11.881  10.447   1.559 -0.0892  0.0925 -0.0253
  636MOL0     N85742  12.004  10.459   1.480 -0.4004  0.1720 -0.7391
  636MOL0     C85743  12.079  10.577   1.483  0.4548 -0.0501 -0.5615
  636MOL0     C85744  12.166  10.569   1.381 -0.3075 -0.2359 -0.6236
  636MOL0     C85745  12.251  10.679   1.344 -0.6214  0.1504  0.3186
  636MOL0     C85746  12.400  10.658   1.387  0.1185  0.6046 -0.0134
  636MOL0     C85747  12.507  10.767   1.347  0.3862  0.4209  0.3020
  636MOL0     C85748  12.658  10.728   1.366 -0.2162  0.5756 -0.2917
  636MOL0     O85749  12.720  10.848   1.311 -0.8184 -0.5113  0.2967
  636MOL0     C85750  12.828  10.844   1.235 -0.7479 -0.0165 -0.1554
  636MOL0     C85751  12.866  10.972   1.195 -0.4638  0.5450 -0.5966
  636MOL0     C85752  12.984  10.996   1.121  0.4215  0.0335 -0.0547
  636MOL0     C85753  13.070  10.883   1.088 -0.4823 -0.3321  0.3274
  636MOL0     C85754  13.196  10.902   1.026 -0.1323  0.3394 -0.1450
  636MOL0     O85755  13.214  11.014   0.948 -0.2141  0.2247 -0.1423
  636MOL0     C85756  13.330  11.021   0.873 -0.8473  0.1490 -1.4913
  636MOL0     C85757  13.449  11.038   0.944  0.1374  0.0863 -0.8950
  636MOL0     C85758  13.575  11.040   0.886 -0.3057 -0.0708 -0.1693
  636MOL0     C85759  13.587  11.028   0.744 -0.6130 -0.2199 -0.9120
  636MOL0     O85760  13.707  11.020   0.674  0.6465 -0.2360 -0.1605
  636MOL0     C85761  13.798  11.122   0.716  0.4697  0.6034 -0.3630
  636MOL0     C85762  13.766  11.268   0.667 -0.7328  0.1449  0.5071
  636MOL0     C85763  13.880  11.365   0.723  1.3074  0.6663 -0.0109
  636MOL0     C85764  13.995  11.399   0.625  1.0625  0.5846 -0.6212
  636MOL0     C85765  14.132  11.424   0.661 -0.9039  0.0944 -0.1998
  636MOL0     C85766  14.194  11.287   0.690  0.2009  1.2966 -0.6240
  636MOL0     C85767  14.340  11.271   0.750  0.5328  0.1714 -0.2443
  636MOL0     C85768  14.447  11.344   0.666 -0.4503  0.2489  0.1041
  636MOL0    Cl85769  14.602  11.284   0.712  0.3947 -0.3266 -0.4155
  636MOL0     C85770  13.476  10.995   0.676  0.0235 -0.0846 -0.1336
  636MOL0     C85771  13.342  11.005   0.733 -1.0792 -0.5774 -1.0398
  636MOL0     O85772  13.272  10.809   1.045  0.1715  0.0806  0.5708
  636MOL0     C85773  13.030  10.762   1.138 -0.0570  0.5954  0.2185
  636MOL0     C85774  12.908  10.730   1.197  0.3183  0.0086 -0.4899
  636MOL0     N85775  12.137  10.440   1.313  0.4223 -0.1841 -0.5242
  636MOL0     N85776  12.038  10.378   1.371 -0.6834 -0.7661  0.0474
  636MOL0     C85777  10.841  10.228   1.728 -0.1509  0.1426  0.6080
  636MOL0     C85778  10.719  10.197   1.670  0.7792  0.2016 -0.6876
  636MOL0     C85779  10.390  10.228   1.368  1.0398  0.0406 -0.0419
  636MOL0     C85780  10.363  10.091   1.346  0.1879 -0.2394 -1.2011
  636MOL0     C85781  10.253  10.049   1.273 -0.1370  0.1932  0.6565
  636MOL0     C85782  10.159  10.140   1.217  0.0178  0.0953 -0.9010
  636MOL0     O85783  10.038  10.107   1.165  0.3409 -0.2373  0.1263
  636MOL0     C85784  10.016   9.963   1.139 -0.1712 -0.0363  0.6285
  636MOL0     C85785   9.886   9.936   1.061 -0.8915 -0.0635  0.1644
  636MOL0     C85786   9.771   9.999   1.131  0.5071  0.3599  0.1709
  636MOL0     C85787   9.643   9.996   1.042 -0.9372  1.0317  0.5427
  636MOL0     C85788   9.520  10.042   1.112 -0.3740  0.2095  0.4008
  636MOL0     C85789   9.418  10.057   1.167 -0.3656  0.0692  0.1902
  636MOL0     C85790  10.185  10.280   1.237 -0.9648  0.2911  0.4639
  636MOL0     C85791  10.304  10.324   1.300 -0.2106 -0.1174  0.5521
  636MOL0     C85792  10.333  10.466   1.274  0.6466 -0.6267 -0.3832
  636MOL0     H85793  10.820  10.191   1.352 -0.4497  0.3761  0.1158
  636MOL0     H85794  11.062  10.218   1.461  1.8203  2.2184  0.2113
  636MOL0     H85795  11.223  10.153   1.715  0.9675  0.1406 -0.3219
  636MOL0     H85796  11.214  10.278   1.586 -0.5217  1.2592 -0.7199
  636MOL0     H85797  11.261  10.310   1.887 -2.8276 -0.6372 -0.6431
  636MOL0     H85798  11.268  10.451   1.780 -1.4180 -0.9296 -1.9729
  636MOL0     H85799  11.465  10.214   1.767 -2.6715 -1.4492 -3.4079
  636MOL0     H85800  11.503  10.366   1.839 -1.3604 -1.1801  1.1393
  636MOL0     H85801  11.392  10.375   1.557 -1.3131 -0.7144  2.4142
  636MOL0     H85802  11.527  10.474   1.625  4.0845 -1.1422  0.9060
  636MOL0     H85803  11.529  10.195   1.553  0.1905  0.4837 -3.6922
  636MOL0     H85804  11.609  10.324   1.459 -0.8868 -0.0017 -0.9465
  636MOL0     H85805  11.718  10.317   1.748 -3.3097 -0.3571  0.3425
  636MOL0     H85806  11.719  10.162   1.672  0.1355 -0.6771 -1.1464
  636MOL0     H85807  11.825  10.261   1.468  1.5075  0.1118 -1.2355
  636MOL0     H85808  11.921  10.249   1.612 -2.4108 -2.9252  0.7809
  636MOL0     H85809  11.801  10.517   1.531 -1.1100 -1.0760 -0.1359
  636MOL0     H85810  11.899  10.473   1.664 -1.3282 -0.0226  0.2353
  636MOL0     H85811  12.061  10.667   1.540  0.4359  0.4487 -1.3325
  636MOL0     H85812  12.250  10.691   1.235  2.2916 -2.1892 -0.0917
  636MOL0     H85813  12.214  10.770   1.393  0.6281  0.3236  0.9959
  636MOL0     H85814  12.405  10.652   1.496  1.7726  0.7984 -0.0566
  636MOL0     H85815  12.440  10.563   1.350  1.7005 -0.7525  4.4558
  636MOL0     H85816  12.493  10.848   1.419  0.0992  4.5183 -3.8083
  636MOL0     H85817  12.496  10.810   1.246  1.2270  0.3684  0.1827
  636MOL0     H85818  12.675  10.634   1.314  1.2570  0.8471 -0.3511
  636MOL0     H85819  12.675  10.709   1.473  1.7551  1.2530 -0.4464
  636MOL0     H85820  12.801  11.056   1.214 -2.3951 -1.0250  0.1507
  636MOL0     H85821  13.007  11.099   1.099  1.9054 -0.0976  0.6942
  636MOL0     H85822  13.441  11.062   1.050  1.9328 -1.0568 -0.4489
  636MOL0     H85823  13.664  11.044   0.947 -1.2966  1.5349  1.2575
  636MOL0     H85824  13.817  11.135   0.823  1.1511 -1.2818 -0.2304
  636MOL0     H85825  13.897  11.102   0.673 -0.4142  0.5605 -2.4924
  636MOL0     H85826  13.773  11.274   0.558  2.3143 -0.8763  0.5451
  636MOL0     H85827  13.665  11.301   0.693 -1.3721  0.5789 -2.1649
  636MOL0     H85828  13.824  11.452   0.757  0.3168  0.7823 -1.8177
  636MOL0     H85829  13.928  11.321   0.811  0.1945 -1.4587 -0.4003
  636MOL0     H85830  13.950  11.489   0.581 -1.5315  0.4367  1.4513
  636MOL0     H85831  13.998  11.322   0.546  0.7587  0.4276 -0.4831
  636MOL0     H85832  14.128  11.491   0.747 -2.4032  0.4338 -0.5084
  636MOL0     H85833  14.186  11.477   0.582  0.3783 -0.0825  0.5239
  636MOL0     H85834  14.129  11.225   0.752  2.7786 -0.8778  0.1197
  636MOL0     H85835  14.194  11.237   0.593  3.0900 -1.3124  0.5299
  636MOL0     H85836  14.370  11.167   0.762  0.6904 -0.0952 -2.5274
  636MOL0     H85837  14.341  11.326   0.845  1.9242  3.8490 -2.1583
  636MOL0     H85838  14.437  11.327   0.558  2.4531  2.5420 -0.6622
  636MOL0     H85839  14.442  11.450   0.691 -0.8517  0.2819 -0.0934
  636MOL0     H85840  13.485  10.970   0.571 -0.6059  2.3753 -0.8535
  636MOL0     H85841  13.258  10.994   0.665 -2.1394 -0.6854  0.2554
  636MOL0     H85842  13.090  10.677   1.108  1.0369  1.1015  0.8791
  636MOL0     H85843  12.883  10.629   1.225  2.9549  0.0163  2.5571
  636MOL0     H85844  10.849  10.247   1.834 -0.2796 -3.9522  1.5251
  636MOL0     H85845  10.625  10.184   1.723 -1.0333  0.4828 -3.5964
  636MOL0     H85846  10.422  10.010   1.387 -1.2034 -0.4923  0.3700
  636MOL0     H85847  10.253   9.942   1.257 -3.1593 -0.0437  1.6537
  636MOL0     H85848  10.022   9.895   1.224  3.4770  0.0006  0.5643
  636MOL0     H85849  10.102   9.927   1.083  0.4108  0.9821  0.8443
  636MOL0     H85850   9.871   9.828   1.056 -2.8679  0.0623  2.1655
  636MOL0     H85851   9.895   9.972   0.958 -1.2439  1.2334  0.5613
  636MOL0     H85852   9.803  10.103   1.144  2.8958 -0.1213 -1.2130
  636MOL0     H85853   9.756   9.948   1.227  3.0038  0.7423  0.8345
  636MOL0     H85854   9.661  10.049   0.948 -0.1646  1.0247  0.6787
  636MOL0     H85855   9.629   9.893   1.010  1.3485  1.2699 -1.5411
  636MOL0     H85856   9.319  10.069   1.205 -0.5280  1.6736 -0.6665
  636MOL0     H85857  10.121  10.352   1.188 -2.3398 -2.1386 -1.5623
  636MOL0     H85858  10.318  10.534   1.359  1.6827 -1.5985  0.6050
  636MOL0     H85859  10.436  10.485   1.244  0.6984  3.0077  1.4967
  636MOL0     H85860  10.275  10.512   1.194  2.5973 -0.1943 -1.5883
  637MOL0     O85861   0.175   7.672   0.805 -0.0635 -0.4192 -0.3065
  637MOL0     C85862   0.185   7.612   0.910  0.8238 -0.8489  0.2518
  637MOL0     O85863   0.076   7.557   0.969 -0.1708 -0.4846  0.1178
  637MOL0     C85864  -0.050   7.586   0.943 -0.1852  0.5031  0.4626
  637MOL0     C85865  -0.099   7.702   0.992 -0.0900  0.0265 -0.6611
  637MOL0     C85866  -0.238   7.737   0.972 -0.5115 -0.2172 -0.5036
  637MOL0     C85867  -0.326   7.653   0.898 -0.5744  0.2990 -0.7720
  637MOL0     O85868  -0.456   7.686   0.871 -0.4248  0.1981 -0.4363
  637MOL0     C85869  -0.503   7.820   0.884  0.0251  0.0563 -0.4592
  637MOL0     C85870  -0.641   7.823   0.826  0.5971  0.2073 -0.2999
  637MOL0     C85871  -0.647   7.802   0.679  0.0312  0.0454  0.2981
  637MOL0     C85872  -0.784   7.855   0.633 -0.5881 -0.8966  0.1086
  637MOL0     C85873  -0.798   7.842   0.482  0.1132 -0.3665 -0.3831
  637MOL0     C85874  -0.898   7.943   0.419  0.4408 -0.3752  0.0255
  637MOL0     C85875  -0.933   7.903   0.279  0.1205 -0.0654 -0.7843
  637MOL0     C85876  -0.811   7.902   0.183 -0.6060 -0.4978 -0.2073
  637MOL0     N85877  -0.741   8.035   0.161  0.6399  0.4833  0.3404
  637MOL0     C85878  -0.810   8.144   0.122  0.0969 -0.8627 -0.0958
  637MOL0     C85879  -0.716   8.239   0.121 -0.7890  0.2284 -0.0906
  637MOL0     C85880  -0.749   8.388   0.099 -0.4267  0.0658 -0.8653
  637MOL0     C85881  -0.644   8.473   0.175 -0.6272  0.8346  0.4856
  637MOL0     C85882  -0.645   8.617   0.126 -1.1889  0.3440  1.0854
  637MOL0     C85883  -0.744   8.717   0.185 -1.3247  0.7890  0.0593
  637MOL0     O85884  -0.742   8.726   0.332  0.0138  0.6319  0.2805
  637MOL0     C85885  -0.625   8.751   0.395 -0.3455  0.3204 -0.1190
  637MOL0     C85886  -0.521   8.827   0.328 -0.3908  0.5978 -0.0988
  637MOL0     C85887  -0.403   8.850   0.396  0.2514 -0.4202  0.4065
  637MOL0     C85888  -0.385   8.808   0.529  0.4905  0.0100 -0.0900
  637MOL0     C85889  -0.254   8.815   0.586 -0.5760  0.3905 -0.2229
  637MOL0     O85890  -0.232   8.806   0.724  0.3498  0.1548 -0.5876
  637MOL0     C85891  -0.107   8.830   0.779 -0.5772  0.8040  0.1130
  637MOL0     C85892  -0.014   8.925   0.730 -0.3341  0.6966  0.4556
  637MOL0     C85893   0.107   8.939   0.805  0.4163 -0.1267  1.4393
  637MOL0     C85894   0.147   8.870   0.918  0.0573 -0.2451 -0.2385
  637MOL0     O85895   0.268   8.874   0.979  0.1261  0.5184  0.0269
  637MOL0     C85896   0.356   8.986   0.937  0.1720  0.2470  0.1353
  637MOL0     C85897   0.485   8.985   1.027  0.2290 -0.0375  1.5582
  637MOL0     C85898   0.463   8.986   1.172 -0.7060 -0.0979 -0.7844
  637MOL0     C85899   0.585   9.022   1.245 -1.1539 -0.3297  0.6010
  637MOL0     C85900   0.691   8.915   1.248 -0.1264  1.4353  0.3604
  637MOL0     C85901   0.813   8.969   1.332 -0.2950  0.6289  0.2886
  637MOL0     C85902   0.892   9.074   1.258 -0.6453 -0.4091  0.9138
  637MOL0     C85903   1.013   9.122   1.333 -0.6288 -0.5881  0.2355
  637MOL0    Cl85904   1.121   8.983   1.381  0.3642  0.0107  0.1693
  637MOL0     C85905   0.049   8.772   0.960 -0.6144 -0.6148 -0.3908
  637MOL0     C85906  -0.071   8.751   0.888  0.3708  0.6905 -0.0782
  637MOL0     O85907  -0.163   8.823   0.504 -0.4499 -0.2339 -0.3110
  637MOL0     C85908  -0.488   8.746   0.599  0.1634  0.8719  0.3311
  637MOL0     C85909  -0.610   8.715   0.527  0.3033  0.8668  0.4690
  637MOL0     N85910  -0.590   8.182   0.143 -0.9011 -0.3445 -0.4551
  637MOL0     N85911  -0.611   8.058   0.176  0.9316 -0.7235  0.5672
  637MOL0     C85912  -0.277   7.529   0.859 -0.1004  0.0556 -0.0402
  637MOL0     C85913  -0.140   7.498   0.879  0.1504 -0.3518  0.0315
  637MOL0     C85914   0.320   7.595   0.973  0.8636 -0.3186 -0.2998
  637MOL0     C85915   0.329   7.499   1.073 -0.8233 -0.1939  0.8415
  637MOL0     C85916   0.455   7.500   1.145 -0.3126  0.5347 -0.1397
  637MOL0     C85917   0.557   7.587   1.119 -0.4502  0.7104  0.0778
  637MOL0     O85918   0.651   7.599   1.218 -0.4819  0.3096  0.3930
  637MOL0     C85919   0.741   7.714   1.234 -0.3541  0.3773  0.1602
  637MOL0     C85920   0.668   7.845   1.276  0.2833  0.1840  0.1174
  637MOL0     C85921   0.724   7.983   1.253 -0.1588 -1.0523  0.5734
  637MOL0     C85922   0.757   8.024   1.109  0.1332 -0.1115  0.1830
  637MOL0     C85923   0.637   8.056   1.033 -0.0964 -1.0816 -0.0316
  637MOL0     C85924   0.532   8.079   0.972 -1.3703 -0.1837  0.1611
  637MOL0     C85925   0.545   7.673   1.015 -0.5962  0.0275 -0.2129
  637MOL0     C85926   0.427   7.674   0.940 -1.0392  1.4052 -0.2447
  637MOL0     C85927   0.439   7.782   0.833  0.0532  0.3438 -0.0341
  637MOL0     H85928  -0.035   7.774   1.042 -0.5722  0.5834 -0.8305
  637MOL0     H85929  -0.271   7.830   1.015  1.9998  0.9335 -0.8842
  637MOL0     H85930  -0.508   7.847   0.990 -4.2186  1.7330 -0.9097
  637MOL0     H85931  -0.430   7.883   0.832  3.4846 -2.0738  1.4411
  637MOL0     H85932  -0.667   7.929   0.836 -0.0224  0.3522 -2.8433
  637MOL0     H85933  -0.709   7.766   0.890  1.4498 -0.9960 -0.4499
  637MOL0     H85934  -0.626   7.699   0.649 -1.6501  0.4622 -2.7832
  637MOL0     H85935  -0.565   7.861   0.636 -1.8107  2.5687 -0.0135
  637MOL0     H85936  -0.869   7.811   0.685 -2.7612  0.7729 -1.8119
  637MOL0     H85937  -0.782   7.964   0.648 -3.0571 -0.9048  0.8572
  637MOL0     H85938  -0.699   7.857   0.437 -1.0784 -0.0178 -3.0747
  637MOL0     H85939  -0.845   7.745   0.462 -1.1071  0.2950 -0.8629
  637MOL0     H85940  -0.996   7.950   0.468 -0.7041  1.9112 -2.2805
  637MOL0     H85941  -0.853   8.041   0.437  1.0747 -0.8938  1.3658
  637MOL0     H85942  -1.004   7.968   0.228 -0.8352 -1.5563 -1.4276
  637MOL0     H85943  -0.995   7.814   0.280 -0.3212  0.0707  3.6712
  637MOL0     H85944  -0.742   7.830   0.228  0.4415 -0.2832 -1.4126
  637MOL0     H85945  -0.845   7.863   0.087 -1.0516 -0.3463 -0.1115
  637MOL0     H85946  -0.915   8.155   0.099 -0.0350  1.5304  1.2992
  637MOL0     H85947  -0.758   8.415  -0.006 -1.5326 -0.7366 -1.0029
  637MOL0     H85948  -0.848   8.409   0.141 -0.9381 -2.9174 -0.3555
  637MOL0     H85949  -0.661   8.469   0.283 -1.7198 -0.3141  0.2931
  637MOL0     H85950  -0.547   8.430   0.147 -0.6663  0.7899  0.4176
  637MOL0     H85951  -0.657   8.623   0.017 -2.1126  0.6244  1.1912
  637MOL0     H85952  -0.543   8.655   0.123  0.0661 -2.7094 -0.8615
  637MOL0     H85953  -0.842   8.686   0.147 -0.4505 -0.7370 -1.0622
  637MOL0     H85954  -0.720   8.809   0.131  1.2174  0.2740  0.1864
  637MOL0     H85955  -0.530   8.860   0.225 -5.0526 -0.1447 -0.1394
  637MOL0     H85956  -0.326   8.906   0.344 -0.3776 -0.5964 -0.7601
  637MOL0     H85957  -0.035   8.973   0.635 -1.4319 -1.3475 -0.4162
  637MOL0     H85958   0.185   9.008   0.773 -1.5218  1.9107  0.8964
  637MOL0     H85959   0.376   8.975   0.830 -1.7414 -2.1809 -0.0533
  637MOL0     H85960   0.304   9.079   0.959 -0.7236  0.3204 -2.0142
  637MOL0     H85961   0.544   8.903   0.984 -0.0852  0.8119 -0.6120
  637MOL0     H85962   0.533   9.079   0.996  0.9641 -1.4768 -2.3195
  637MOL0     H85963   0.388   9.062   1.198  0.8407  0.7854  1.3538
  637MOL0     H85964   0.425   8.893   1.215 -1.4425  0.2075 -0.7443
  637MOL0     H85965   0.563   9.047   1.349 -1.6845  1.9666 -0.0124
  637MOL0     H85966   0.626   9.117   1.209 -0.5117 -0.2463  1.4992
  637MOL0     H85967   0.730   8.877   1.153  1.5999  0.7381  1.2994
  637MOL0     H85968   0.649   8.835   1.309  0.1265  0.5099 -0.6465
  637MOL0     H85969   0.789   9.012   1.429 -0.3308  1.2845 -0.0060
  637MOL0     H85970   0.873   8.885   1.369 -0.7153  0.1982  0.0105
  637MOL0     H85971   0.832   9.162   1.234  2.0851  0.7895 -2.3524
  637MOL0     H85972   0.931   9.042   1.160  1.7956  1.2720  1.2428
  637MOL0     H85973   1.068   9.196   1.275 -1.4492  1.6734  2.1581
  637MOL0     H85974   0.978   9.177   1.421  0.2887 -1.3441  1.0965
  637MOL0     H85975   0.076   8.717   1.049 -2.9224 -0.2019  0.6345
  637MOL0     H85976  -0.133   8.668   0.919  2.7945 -0.8620  0.8912
  637MOL0     H85977  -0.483   8.713   0.702 -2.7462  0.3686  0.4054
  637MOL0     H85978  -0.692   8.673   0.585 -1.0183  0.4809 -1.5804
  637MOL0     H85979  -0.335   7.448   0.817  1.0451 -2.4401  2.7705
  637MOL0     H85980  -0.090   7.411   0.838 -0.0482  0.0699 -1.1466
  637MOL0     H85981   0.242   7.442   1.105  0.6356 -1.5248  2.7274
  637MOL0     H85982   0.469   7.437   1.231 -0.4819  0.2635 -0.3103
  637MOL0     H85983   0.799   7.731   1.142  2.7543 -2.2163  1.4534
  637MOL0     H85984   0.822   7.683   1.300 -1.2419 -1.5974  0.4098
  637MOL0     H85985   0.631   7.835   1.378 -0.6395  0.3467 -0.1903
  637MOL0     H85986   0.580   7.851   1.210  0.0156 -0.5407  0.4052
  637MOL0     H85987   0.819   7.991   1.307  0.0898  1.1790 -0.0824
  637MOL0     H85988   0.659   8.061   1.293  0.0822 -0.3583 -0.3524
  637MOL0     H85989   0.827   8.107   1.119  2.1870 -1.7386 -0.1592
  637MOL0     H85990   0.816   7.943   1.065  0.8079 -0.6809  2.0712
  637MOL0     H85991   0.437   8.065   0.924 -2.7701 -0.4468  2.7700
  637MOL0     H85992   0.621   7.749   1.001 -1.1180  0.0733 -3.6073
  637MOL0     H85993   0.535   7.834   0.839 -0.1275  0.8264 -1.0682
  637MOL0     H85994   0.437   7.738   0.733  1.2869 -0.2419  0.1886
  637MOL0     H85995   0.357   7.853   0.850  0.2131  0.2552  1.2148
  638MOL0     O85996  11.090   5.799   1.527  0.1939 -0.0326 -0.2189
  638MOL0     C85997  11.063   5.915   1.557  0.8428  0.6176 -0.0370
  638MOL0     O85998  11.090   5.978   1.672 -0.0846  0.5137 -0.7623
  638MOL0     C85999  11.214   5.954   1.740  0.9810 -0.4545  0.8368
  638MOL0     C86000  11.331   5.923   1.671 -0.4848 -0.4271  0.3117
  638MOL0     C86001  11.451   5.914   1.742  0.2588 -0.7702  0.2027
  638MOL0     C86002  11.458   5.931   1.879 -0.2039 -0.0602 -0.4523
  638MOL0     O86003  11.575   5.925   1.953 -0.1423 -0.6022 -0.6624
  638MOL0     C86004  11.703   5.898   1.885  1.1860  0.5321 -0.5593
  638MOL0     C86005  11.808   5.869   1.986 -0.2806  0.2609  0.7317
  638MOL0     C86006  11.936   5.838   1.915 -0.7614 -0.8087  0.7403
  638MOL0     C86007  12.046   5.839   2.014 -0.7101  0.0151  0.6071
  638MOL0     C86008  12.167   5.786   1.943  0.7989  0.7551 -0.1640
  638MOL0     C86009  12.279   5.768   2.055  0.3928  0.5792 -0.2409
  638MOL0     C86010  12.421   5.784   1.997 -0.2581 -0.9431  0.1483
  638MOL0     C86011  12.517   5.781   2.112  0.2732 -0.3595  0.2171
  638MOL0     N86012  12.661   5.768   2.072 -0.0693 -0.0348 -0.3893
  638MOL0     C86013  12.760   5.851   2.119  0.2772  0.0533 -0.1072
  638MOL0     C86014  12.876   5.789   2.097  0.4044  0.3826 -0.2171
  638MOL0     C86015  13.010   5.846   2.117 -0.3727  0.0010  0.8891
  638MOL0     C86016  13.041   5.983   2.051 -0.3113  0.3127  0.0692
  638MOL0     C86017  13.006   5.986   1.909  0.1267  0.0457 -0.0903
  638MOL0     C86018  13.023   6.124   1.841 -0.1063 -0.6907 -1.4618
  638MOL0     O86019  12.934   6.228   1.884 -0.7872 -0.3562  0.6464
  638MOL0     C86020  12.803   6.196   1.849  0.4005 -0.5434 -0.1836
  638MOL0     C86021  12.707   6.166   1.947  0.2200 -0.2767 -0.7223
  638MOL0     C86022  12.564   6.153   1.918 -0.7771  0.4336  0.6389
  638MOL0     C86023  12.528   6.156   1.776 -0.9512 -0.8839  0.7389
  638MOL0     C86024  12.383   6.144   1.727  0.0764 -0.1971  1.0646
  638MOL0     O86025  12.352   6.207   1.610  0.4178  0.6853  0.2091
  638MOL0     C86026  12.220   6.216   1.568  0.6250  0.6633 -0.2738
  638MOL0     C86027  12.125   6.307   1.621  0.1778 -0.7378  0.9191
  638MOL0     C86028  11.994   6.292   1.586  0.0658 -0.1803  0.2166
  638MOL0     C86029  11.947   6.188   1.502 -0.5700 -0.1214 -0.3528
  638MOL0     O86030  11.813   6.187   1.482  0.8631  0.9166  0.2636
  638MOL0     C86031  11.763   6.063   1.416 -0.4515 -0.3915 -0.0092
  638MOL0     C86032  11.608   6.069   1.413  0.6620  0.7016  0.4449
  638MOL0     C86033  11.547   6.184   1.326 -1.0210  0.2225  0.1332
  638MOL0     C86034  11.605   6.173   1.176 -0.3805 -0.3808 -0.2087
  638MOL0     C86035  11.529   6.274   1.076 -0.5048 -0.0244 -0.6937
  638MOL0     C86036  11.377   6.236   1.052 -0.3507 -0.1223 -1.3939
  638MOL0     C86037  11.328   6.301   0.923  0.3649 -0.4557  0.3437
  638MOL0     C86038  11.195   6.235   0.887  0.1456  0.7381  0.6638
  638MOL0    Cl86039  11.223   6.073   0.803 -0.1138  0.0373 -0.4366
  638MOL0     C86040  12.041   6.102   1.448 -0.4710  0.3237  0.8028
  638MOL0     C86041  12.175   6.114   1.479  0.5769  0.4801 -0.6495
  638MOL0     O86042  12.298   6.101   1.805  0.5469  0.1025  0.5753
  638MOL0     C86043  12.630   6.184   1.680 -0.8454  0.3045 -0.2224
  638MOL0     C86044  12.766   6.202   1.716  0.6076 -0.1743 -0.3562
  638MOL0     N86045  12.844   5.670   2.041  0.6891  0.1640  0.0831
  638MOL0     N86046  12.717   5.651   2.035  0.2561  0.5303 -0.0076
  638MOL0     C86047  11.341   5.948   1.951  0.5844 -0.6993  0.0335
  638MOL0     C86048  11.219   5.964   1.877  0.4884  0.6743 -0.0951
  638MOL0     C86049  10.964   5.982   1.460 -0.6708 -0.3178  0.2944
  638MOL0     C86050  10.880   5.899   1.380  0.0672 -0.4723 -0.1924
  638MOL0     C86051  10.796   5.954   1.287 -0.1390  0.1362  0.0194
  638MOL0     C86052  10.792   6.093   1.260  0.3737  0.2685 -0.6330
  638MOL0     O86053  10.697   6.126   1.166 -0.7662  0.0634  0.4405
  638MOL0     C86054  10.671   6.266   1.170  0.4165  0.1151  0.1924
  638MOL0     C86055  10.575   6.285   1.045 -0.8285  0.5818  0.6557
  638MOL0     C86056  10.642   6.226   0.922 -0.4602 -0.0041  0.1997
  638MOL0     C86057  10.560   6.253   0.800  0.1674  0.6340  0.2605
  638MOL0     C86058  10.550   6.396   0.764  0.2273 -0.4507  0.2721
  638MOL0     C86059  10.534   6.509   0.727  0.5352 -0.4446 -0.7827
  638MOL0     C86060  10.870   6.177   1.348 -1.1880 -0.0516 -0.9817
  638MOL0     C86061  10.958   6.122   1.445 -0.1954 -0.2045 -1.3752
  638MOL0     C86062  11.024   6.225   1.532  0.2722  0.0717 -0.8542
  638MOL0     H86063  11.335   5.933   1.563  0.8511  2.4100  0.5315
  638MOL0     H86064  11.540   5.908   1.680  1.1928  1.1676  1.2806
  638MOL0     H86065  11.698   5.808   1.823 -0.2410  0.7749 -0.8240
  638MOL0     H86066  11.734   5.978   1.817 -1.3170  0.1505 -2.2974
  638MOL0     H86067  11.778   5.781   2.044 -3.5753 -0.1868 -1.3975
  638MOL0     H86068  11.835   5.956   2.047  4.3931 -0.5543  0.2044
  638MOL0     H86069  11.963   5.908   1.835 -0.0458 -1.0916  0.7344
  638MOL0     H86070  11.920   5.738   1.873 -3.2802  0.1207 -0.7674
  638MOL0     H86071  12.061   5.941   2.053 -1.3380  0.0344  0.8021
  638MOL0     H86072  12.025   5.779   2.102  0.5301  1.5935  2.0601
  638MOL0     H86073  12.148   5.689   1.897 -0.1193  0.7811  0.1426
  638MOL0     H86074  12.204   5.860   1.871 -1.6614  0.8510 -1.4295
  638MOL0     H86075  12.266   5.841   2.136 -0.5249 -2.2481  2.3492
  638MOL0     H86076  12.264   5.666   2.092 -0.3014 -0.2806 -2.7336
  638MOL0     H86077  12.413   5.884   1.954 -0.6778 -0.7102  0.7460
  638MOL0     H86078  12.437   5.708   1.920  1.0801  0.0936 -0.6219
  638MOL0     H86079  12.522   5.869   2.176 -0.4882  0.2857 -0.5932
  638MOL0     H86080  12.491   5.699   2.180 -1.2394 -0.2748 -0.2300
  638MOL0     H86081  12.744   5.952   2.155 -1.5859 -0.5603  0.9609
  638MOL0     H86082  13.030   5.856   2.224  1.7315  0.8479  0.4692
  638MOL0     H86083  13.080   5.771   2.079 -2.2604 -1.0437 -0.7340
  638MOL0     H86084  12.974   6.055   2.098 -0.5993 -0.5496  1.0233
  638MOL0     H86085  13.143   6.004   2.086 -0.5199  0.5979  0.5129
  638MOL0     H86086  12.915   5.929   1.888  1.5194 -1.6470 -1.8647
  638MOL0     H86087  13.088   5.926   1.868  0.3310  0.5484 -0.4193
  638MOL0     H86088  13.026   6.119   1.731  2.5651 -1.2715 -1.4377
  638MOL0     H86089  13.123   6.158   1.870 -0.7831 -2.0007  3.1046
  638MOL0     H86090  12.735   6.144   2.050 -2.7360  0.4212  0.3355
  638MOL0     H86091  12.488   6.126   1.990 -2.0428  1.6124 -0.1901
  638MOL0     H86092  12.157   6.395   1.675 -0.8073 -0.4091  0.9876
  638MOL0     H86093  11.921   6.365   1.620  0.0639 -1.1095  2.3837
  638MOL0     H86094  11.806   6.055   1.316 -1.3969 -0.3626 -0.4219
  638MOL0     H86095  11.786   5.970   1.469  0.6749 -0.1417 -0.0189
  638MOL0     H86096  11.568   5.980   1.364 -1.4156  1.5312  0.5314
  638MOL0     H86097  11.562   6.081   1.512 -0.7235  2.3237 -0.3359
  638MOL0     H86098  11.438   6.178   1.324 -1.3102  3.5174  0.5958
  638MOL0     H86099  11.563   6.277   1.381 -0.6714 -0.0614  0.5140
  638MOL0     H86100  11.599   6.066   1.154  1.1015 -0.6229  0.3951
  638MOL0     H86101  11.714   6.189   1.175 -0.3594  0.0789  2.5652
  638MOL0     H86102  11.574   6.268   0.977  0.6525 -0.5150 -0.1616
  638MOL0     H86103  11.539   6.377   1.110  0.7724 -0.0671 -0.8998
  638MOL0     H86104  11.369   6.127   1.049 -1.4003 -0.0682 -0.8502
  638MOL0     H86105  11.311   6.270   1.132  2.2932 -0.0023  0.8705
  638MOL0     H86106  11.401   6.288   0.842  0.2538 -2.6130  0.5403
  638MOL0     H86107  11.313   6.409   0.936  2.2822  0.0603 -1.1648
  638MOL0     H86108  11.123   6.234   0.970 -0.8087 -0.8112 -0.1263
  638MOL0     H86109  11.141   6.293   0.811 -1.6280 -2.3372 -0.6513
  638MOL0     H86110  12.021   6.016   1.384 -0.8882 -0.0399  1.4062
  638MOL0     H86111  12.250   6.049   1.436 -0.2745 -0.1617 -1.1746
  638MOL0     H86112  12.593   6.200   1.579 -0.8488 -0.4011 -0.3407
  638MOL0     H86113  12.844   6.231   1.646  1.4891 -0.7502  0.3656
  638MOL0     H86114  11.352   5.950   2.059  1.1837  1.7697  0.0007
  638MOL0     H86115  11.123   5.968   1.929  1.0338 -1.7432  1.2539
  638MOL0     H86116  10.881   5.790   1.389 -0.2134 -0.3131  3.3415
  638MOL0     H86117  10.719   5.889   1.247  0.9381 -2.9899  2.5979
  638MOL0     H86118  10.766   6.320   1.164  0.9444 -0.8886 -0.9431
  638MOL0     H86119  10.628   6.295   1.266 -0.0227  1.3556 -0.3538
  638MOL0     H86120  10.562   6.393   1.036  1.6078  0.8048 -1.4695
  638MOL0     H86121  10.473   6.245   1.049 -0.5766 -0.6730 -2.5215
  638MOL0     H86122  10.668   6.119   0.923 -0.7037 -0.0757 -0.3926
  638MOL0     H86123  10.734   6.284   0.914 -0.8501  1.0224  2.5311
  638MOL0     H86124  10.591   6.193   0.714  1.1676  0.8823  0.4332
  638MOL0     H86125  10.458   6.216   0.811 -0.6494  2.6842  0.0139
  638MOL0     H86126  10.518   6.606   0.684 -2.1833 -1.6969 -2.8616
  638MOL0     H86127  10.879   6.283   1.330  3.7015  0.1103  1.0873
  638MOL0     H86128  11.028   6.195   1.638  2.1933 -1.4112 -1.2903
  638MOL0     H86129  11.127   6.241   1.501  0.9754  0.9039  1.6440
  638MOL0     H86130  10.984   6.327   1.526 -0.4221 -0.0719  0.6348
  639MOL0     O86131   4.600   3.405   1.177  0.0628  0.2308 -0.5010
  639MOL0     C86132   4.551   3.320   1.098 -0.3660  0.4885  0.4006
  639MOL0     O86133   4.437   3.254   1.123 -0.2103 -0.4985  0.6733
  639MOL0     C86134   4.389   3.238   1.252 -0.5396  0.0735 -1.0452
  639MOL0     C86135   4.476   3.228   1.365 -0.2932 -0.2728  0.1595
  639MOL0     C86136   4.436   3.193   1.492 -0.2876 -0.3711  0.4605
  639MOL0     C86137   4.300   3.177   1.515  0.3970 -0.0488 -0.1710
  639MOL0     O86138   4.271   3.140   1.649  0.0340  0.6700  0.0113
  639MOL0     C86139   4.144   3.086   1.666  0.7600  0.4711 -0.0002
  639MOL0     C86140   4.130   2.943   1.592 -0.2246 -0.2488  0.0750
  639MOL0     C86141   4.008   2.861   1.638 -0.0102 -0.4145  0.3393
  639MOL0     C86142   3.869   2.918   1.603  0.5421 -0.3495 -0.0293
  639MOL0     C86143   3.763   2.817   1.648  0.2010  0.5675 -0.8195
  639MOL0     C86144   3.627   2.871   1.618 -0.3770 -0.1775  0.0372
  639MOL0     C86145   3.530   2.768   1.657  0.5277  0.0528 -0.1468
  639MOL0     C86146   3.520   2.646   1.563 -0.4615  0.0225 -0.0716
  639MOL0     N86147   3.513   2.682   1.420 -0.0221 -0.2046  0.5321
  639MOL0     C86148   3.394   2.716   1.350  0.0436  0.8239  0.2527
  639MOL0     C86149   3.438   2.769   1.239  0.3060 -0.9410  0.4547
  639MOL0     C86150   3.355   2.845   1.138  0.0790 -0.1562 -0.0426
  639MOL0     C86151   3.209   2.797   1.109 -0.1775  0.7337 -0.2336
  639MOL0     C86152   3.134   2.878   1.010  0.0820  0.9373 -0.1707
  639MOL0     C86153   3.185   2.866   0.864 -0.1089 -0.6824 -0.0799
  639MOL0     O86154   3.140   2.983   0.781 -0.3356 -0.4645 -0.5769
  639MOL0     C86155   3.223   3.044   0.696 -1.0209 -0.4311  0.4139
  639MOL0     C86156   3.196   3.176   0.660 -0.3397  0.2193 -0.0894
  639MOL0     C86157   3.269   3.256   0.572  0.2135 -0.7682 -0.3025
  639MOL0     C86158   3.393   3.204   0.517  0.0357  0.4212  0.1789
  639MOL0     C86159   3.463   3.279   0.411 -0.2225  0.0686  0.5463
  639MOL0     O86160   3.419   3.412   0.388 -0.7116  0.4386  0.1039
  639MOL0     C86161   3.496   3.495   0.310 -0.4678 -0.5208  0.4419
  639MOL0     C86162   3.424   3.601   0.253 -0.6429  0.4417  0.4457
  639MOL0     C86163   3.489   3.706   0.187 -0.2190 -0.2605 -0.1921
  639MOL0     C86164   3.628   3.703   0.163  0.1655 -0.2295  0.2172
  639MOL0     O86165   3.701   3.794   0.084 -0.0929 -0.6608 -0.3914
  639MOL0     C86166   3.699   3.929   0.125 -0.0815 -0.0535 -0.3144
  639MOL0     C86167   3.838   3.997   0.069 -0.4632  0.6872 -0.4593
  639MOL0     C86168   3.955   3.946   0.167  0.1192  0.3344 -0.0136
  639MOL0     C86169   4.084   4.015   0.140 -0.3332 -0.4093  1.0281
  639MOL0     C86170   4.218   3.965   0.208 -0.3774  0.4640  0.1574
  639MOL0     C86171   4.228   3.985   0.354  0.5032 -0.2526 -0.5260
  639MOL0     C86172   4.373   3.966   0.402  0.1819  0.0177  0.5481
  639MOL0     C86173   4.407   4.012   0.540  1.2688  0.5775  0.8838
  639MOL0    Cl86174   4.575   3.958   0.549 -0.2619  0.0583  0.1345
  639MOL0     C86175   3.700   3.594   0.211 -0.4268 -0.4383 -0.2801
  639MOL0     C86176   3.640   3.492   0.292 -0.2533 -0.4225 -0.5526
  639MOL0     O86177   3.547   3.217   0.345 -0.9284  0.2807 -0.4881
  639MOL0     C86178   3.431   3.070   0.556  0.6274  0.1173 -0.6818
  639MOL0     C86179   3.345   2.993   0.648 -0.1625  0.6260 -0.0129
  639MOL0     N86180   3.573   2.753   1.228 -0.1287  0.1848  0.1758
  639MOL0     N86181   3.618   2.690   1.334  0.0956 -0.7494  0.0100
  639MOL0     C86182   4.209   3.191   1.407 -0.0253  0.1213 -0.4421
  639MOL0     C86183   4.255   3.207   1.272  0.0115 -0.2136  0.6294
  639MOL0     C86184   4.617   3.301   0.966 -0.2172 -0.6601  0.3897
  639MOL0     C86185   4.543   3.220   0.872 -0.6319 -0.0524 -0.3921
  639MOL0     C86186   4.606   3.188   0.747  0.3522 -1.1506 -0.0725
  639MOL0     C86187   4.731   3.246   0.712  0.0672 -0.3262 -0.2917
  639MOL0     O86188   4.777   3.222   0.586  0.4635  0.6592  0.2831
  639MOL0     C86189   4.877   3.310   0.519 -0.2922 -0.4294 -1.8509
  639MOL0     C86190   4.917   3.258   0.386 -0.2716 -0.9540 -0.4154
  639MOL0     C86191   4.956   3.109   0.381 -0.1953 -0.3059  0.8258
  639MOL0     C86192   5.010   3.060   0.256 -0.3581  0.4399  0.9616
  639MOL0     C86193   4.927   3.071   0.148  0.8884 -0.5860 -0.1515
  639MOL0     C86194   4.856   3.096   0.054  0.3806  0.4148  0.5335
  639MOL0     C86195   4.790   3.336   0.804  0.0010  0.5317  0.8501
  639MOL0     C86196   4.745   3.362   0.931 -0.4449 -0.2971 -0.4448
  639MOL0     C86197   4.828   3.451   1.023 -0.5335 -0.0954  0.2572
  639MOL0     H86198   4.583   3.238   1.357 -0.2909 -0.3314  0.1208
  639MOL0     H86199   4.517   3.188   1.565 -0.9383  0.7001  1.2806
  639MOL0     H86200   4.139   3.065   1.773 -1.2009  2.9374  0.4765
  639MOL0     H86201   4.066   3.162   1.657 -2.1699 -2.3289  0.3739
  639MOL0     H86202   4.217   2.884   1.622 -0.1143  0.3867  1.0670
  639MOL0     H86203   4.125   2.957   1.484 -0.5824  1.0007  0.2463
  639MOL0     H86204   4.014   2.843   1.745 -0.2114  0.7767  0.5660
  639MOL0     H86205   4.013   2.763   1.589 -3.0261 -0.3778 -0.2083
  639MOL0     H86206   3.851   3.014   1.652 -0.5577  0.8014 -2.5198
  639MOL0     H86207   3.850   2.938   1.497 -0.8139 -3.2833 -0.4410
  639MOL0     H86208   3.771   2.721   1.596 -0.5143  0.9978 -1.7578
  639MOL0     H86209   3.770   2.803   1.756  0.5364 -1.2149 -1.0407
  639MOL0     H86210   3.619   2.970   1.664  0.7370  0.8852 -1.9241
  639MOL0     H86211   3.631   2.888   1.510  2.7723  0.6361  0.1952
  639MOL0     H86212   3.435   2.822   1.656  0.1249 -0.6274 -1.6466
  639MOL0     H86213   3.547   2.738   1.761  2.3402  2.1186  0.2321
  639MOL0     H86214   3.603   2.577   1.582  0.5894  0.6529 -2.0211
  639MOL0     H86215   3.419   2.614   1.589 -1.0585  0.5424 -1.6348
  639MOL0     H86216   3.292   2.721   1.388 -0.0013 -1.7755  0.6342
  639MOL0     H86217   3.350   2.939   1.194  1.4886 -0.7000  1.0546
  639MOL0     H86218   3.415   2.873   1.050  3.3890  0.0102  2.0789
  639MOL0     H86219   3.224   2.695   1.072  2.0573  0.4120  1.3613
  639MOL0     H86220   3.147   2.789   1.198 -2.1252 -1.3093 -1.6496
  639MOL0     H86221   3.135   2.985   1.032 -1.3457  1.8947 -3.9036
  639MOL0     H86222   3.032   2.839   1.005  1.4811 -3.3981  1.0334
  639MOL0     H86223   3.142   2.780   0.812  1.4231 -1.5149 -0.0344
  639MOL0     H86224   3.294   2.855   0.871  0.3492  3.4111  1.8727
  639MOL0     H86225   3.096   3.201   0.691 -2.0408 -2.0673 -3.1397
  639MOL0     H86226   3.222   3.348   0.538  1.3652 -0.4934 -1.2086
  639MOL0     H86227   3.317   3.603   0.272 -1.1613 -2.0795 -1.6969
  639MOL0     H86228   3.429   3.785   0.142 -0.1849 -1.2505 -2.0843
  639MOL0     H86229   3.616   3.975   0.071  0.0898 -1.1314 -1.5310
  639MOL0     H86230   3.684   3.934   0.233 -0.1571  2.1527 -0.3947
  639MOL0     H86231   3.852   3.978  -0.037 -0.1235 -0.6858 -0.1897
  639MOL0     H86232   3.838   4.106   0.084  0.1902  0.4346  1.7404
  639MOL0     H86233   3.927   3.957   0.272  0.5004  0.9412  0.0283
  639MOL0     H86234   3.965   3.838   0.148 -0.3801  0.3647 -0.4594
  639MOL0     H86235   4.075   4.123   0.156  3.4970  0.0466  1.2760
  639MOL0     H86236   4.099   4.013   0.032 -0.1725  1.9604  0.9576
  639MOL0     H86237   4.306   4.009   0.160  1.1243  0.8294  3.0219
  639MOL0     H86238   4.235   3.861   0.180  1.4213  0.8833 -0.4429
  639MOL0     H86239   4.193   4.086   0.377  0.5263 -0.1832 -0.7840
  639MOL0     H86240   4.157   3.920   0.405 -0.1688  1.1189  0.3554
  639MOL0     H86241   4.435   4.030   0.338  0.9890 -0.6313  0.6608
  639MOL0     H86242   4.408   3.862   0.395  2.6739  0.7375  1.2638
  639MOL0     H86243   4.405   4.122   0.548  1.0154  0.7276 -0.9018
  639MOL0     H86244   4.351   3.964   0.620 -0.2486  4.4574  2.4194
  639MOL0     H86245   3.808   3.589   0.198  0.0131  0.9823  2.0480
  639MOL0     H86246   3.700   3.407   0.322  0.7820 -0.4301 -2.4877
  639MOL0     H86247   3.527   3.029   0.526 -0.3629 -2.6094 -0.4441
  639MOL0     H86248   3.363   2.887   0.662 -0.5274  0.8953  3.0849
  639MOL0     H86249   4.102   3.176   1.419 -0.0028  0.8590  0.9003
  639MOL0     H86250   4.187   3.212   1.188 -0.4939  0.7146  1.0819
  639MOL0     H86251   4.443   3.187   0.895 -0.7664  0.4219 -0.2826
  639MOL0     H86252   4.566   3.115   0.677  0.1553 -1.7562  0.6443
  639MOL0     H86253   4.965   3.306   0.584  1.2170  0.6493 -3.7191
  639MOL0     H86254   4.841   3.412   0.502 -0.6624  0.1332  1.5424
  639MOL0     H86255   5.004   3.318   0.360 -0.9607  0.1822 -0.1703
  639MOL0     H86256   4.835   3.279   0.317  0.4091  2.8958 -0.2540
  639MOL0     H86257   4.870   3.046   0.403 -2.2755  0.8257 -3.0427
  639MOL0     H86258   5.022   3.080   0.463  0.4050 -0.2740  0.3611
  639MOL0     H86259   5.105   3.108   0.233 -0.3196 -0.3819 -0.7680
  639MOL0     H86260   5.027   2.952   0.250  2.2758  0.8112 -4.3514
  639MOL0     H86261   4.784   3.107  -0.024 -1.5478 -1.4037  1.9372
  639MOL0     H86262   4.882   3.385   0.774  0.8188 -2.1402 -1.5740
  639MOL0     H86263   4.850   3.403   1.119  0.0007 -1.6724 -0.6161
  639MOL0     H86264   4.932   3.458   0.989 -0.4634  1.7021  0.7130
  639MOL0     H86265   4.787   3.552   1.018 -0.8628 -0.2257  0.3409
  640MOL0     O86266   0.987   1.363   1.668  0.1802 -0.2072 -0.4376
  640MOL0     C86267   0.938   1.264   1.619 -0.0301 -0.1973 -0.6712
  640MOL0     O86268   0.972   1.129   1.646  0.1442  0.1558 -1.2181
  640MOL0     C86269   1.103   1.095   1.672 -0.5624 -0.4432 -0.0625
  640MOL0     C86270   1.187   1.035   1.576  0.2371  0.8555 -0.6612
  640MOL0     C86271   1.317   1.007   1.601 -0.1315 -0.0407 -0.8663
  640MOL0     C86272   1.369   1.025   1.728  0.5371  0.0306 -0.2883
  640MOL0     O86273   1.492   0.986   1.762 -0.0183  0.3991  0.6715
  640MOL0     C86274   1.601   1.012   1.674  1.0352 -1.0027  0.3179
  640MOL0     C86275   1.729   1.017   1.754 -0.1136  0.5871 -0.0158
  640MOL0     C86276   1.859   1.009   1.665  0.4301  0.8747 -0.3409
  640MOL0     C86277   1.959   0.896   1.703 -0.0178  0.2226 -0.5046
  640MOL0     C86278   2.069   0.879   1.607 -0.5270 -0.7701 -0.1734
  640MOL0     C86279   2.177   0.778   1.653 -0.0648 -0.0728  0.5261
  640MOL0     C86280   2.308   0.791   1.572 -0.2337  0.2772 -0.1228
  640MOL0     C86281   2.420   0.695   1.621 -0.0013 -0.4961  0.2641
  640MOL0     N86282   2.543   0.718   1.539  0.0156  0.3753 -0.1892
  640MOL0     C86283   2.555   0.703   1.402  1.0642  0.5767  1.1793
  640MOL0     C86284   2.688   0.715   1.382 -0.2970  0.0465 -0.9470
  640MOL0     C86285   2.768   0.715   1.253  0.2088  0.9846 -0.0541
  640MOL0     C86286   2.906   0.663   1.266 -0.4522 -0.6922  0.0624
  640MOL0     C86287   2.990   0.662   1.147  0.6549  0.2700 -0.5133
  640MOL0     C86288   3.006   0.804   1.104  0.2467 -0.0190  0.0329
  640MOL0     O86289   3.102   0.814   1.001 -0.2449  0.3361 -0.4054
  640MOL0     C86290   3.224   0.833   1.051 -0.6213  0.3458  0.6161
  640MOL0     C86291   3.272   0.856   1.183  0.0660 -0.5273 -0.2763
  640MOL0     C86292   3.403   0.887   1.206 -1.0207  0.1308  0.1020
  640MOL0     C86293   3.493   0.905   1.100  1.1229  0.1340  0.3405
  640MOL0     C86294   3.630   0.951   1.131 -0.2575  0.0908 -0.6525
  640MOL0     O86295   3.652   1.009   1.262 -0.9766  0.0135  0.3860
  640MOL0     C86296   3.771   1.058   1.312  0.6864  0.2883  0.0976
  640MOL0     C86297   3.753   1.166   1.395 -0.3763  0.3408 -0.4691
  640MOL0     C86298   3.867   1.241   1.427  0.0538  0.4025 -0.4159
  640MOL0     C86299   3.994   1.199   1.398  0.1755 -0.4537  0.8870
  640MOL0     O86300   4.113   1.257   1.428 -0.3624 -0.1874 -0.0742
  640MOL0     C86301   4.118   1.400   1.437 -0.3691 -0.2485 -0.0013
  640MOL0     C86302   4.256   1.443   1.469  0.0411 -0.1293 -0.1340
  640MOL0     C86303   4.268   1.594   1.509 -0.1035 -0.2461 -0.3313
  640MOL0     C86304   4.320   1.678   1.389  0.1684 -0.0702  0.6980
  640MOL0     C86305   4.465   1.681   1.359 -1.0743  0.8200  0.5400
  640MOL0     C86306   4.498   1.793   1.257  0.5589 -0.4048  0.1562
  640MOL0     C86307   4.640   1.772   1.193  0.7489  0.2932 -1.1427
  640MOL0     C86308   4.682   1.907   1.125  0.1717  0.6036 -0.8375
  640MOL0    Cl86309   4.840   1.884   1.046 -0.0748  0.3592  0.1153
  640MOL0     C86310   4.002   1.073   1.336  0.5280  0.1837 -0.7452
  640MOL0     C86311   3.892   0.991   1.294  0.2420  0.0361  0.6648
  640MOL0     O86312   3.715   0.930   1.047 -0.3691 -0.6803 -0.0363
  640MOL0     C86313   3.448   0.878   0.972  0.1677  0.5327 -0.4034
  640MOL0     C86314   3.315   0.846   0.947  0.5131  0.4526  1.0280
  640MOL0     N86315   2.746   0.737   1.502 -1.2058 -0.2799  0.3460
  640MOL0     N86316   2.660   0.734   1.600 -0.2715 -0.2291 -0.4479
  640MOL0     C86317   1.289   1.084   1.827  0.4799 -0.0644  0.2612
  640MOL0     C86318   1.155   1.121   1.794  0.1041 -0.8024 -0.8348
  640MOL0     C86319   0.829   1.288   1.518 -0.0287  0.0912 -0.0091
  640MOL0     C86320   0.767   1.182   1.447 -0.2999  0.7378 -0.0044
  640MOL0     C86321   0.689   1.192   1.338  0.0964  0.0624  0.3973
  640MOL0     C86322   0.637   1.316   1.301  0.0453 -0.6073 -0.3824
  640MOL0     O86323   0.551   1.311   1.197  0.9322 -0.3812  0.2670
  640MOL0     C86324   0.422   1.371   1.214 -0.3828  0.9059 -0.0249
  640MOL0     C86325   0.331   1.310   1.108 -0.2729  0.0831  0.9922
  640MOL0     C86326   0.189   1.336   1.153  0.8636  0.0266 -0.2458
  640MOL0     C86327   0.091   1.321   1.034 -0.3112  1.1951  0.8829
  640MOL0     C86328  -0.053   1.304   1.073  1.2142  0.1957 -0.1692
  640MOL0     C86329  -0.167   1.287   1.114 -0.0354 -0.3384 -0.1832
  640MOL0     C86330   0.684   1.426   1.377  0.3176 -1.2118  0.3137
  640MOL0     C86331   0.777   1.417   1.485 -0.4843  0.3389 -0.6900
  640MOL0     C86332   0.803   1.546   1.557  0.6466 -0.1124 -0.8244
  640MOL0     H86333   1.136   1.016   1.481  0.6912 -0.0693 -0.7274
  640MOL0     H86334   1.382   0.961   1.527 -0.3034 -0.6260 -0.6608
  640MOL0     H86335   1.612   0.933   1.599  3.3184 -1.7236  1.3274
  640MOL0     H86336   1.583   1.111   1.632  0.9505 -1.6261 -1.1723
  640MOL0     H86337   1.723   0.929   1.820 -0.1362 -2.0147 -3.2415
  640MOL0     H86338   1.727   1.110   1.811  4.4548  1.2233 -0.5301
  640MOL0     H86339   1.910   1.106   1.674  2.5719 -0.3845  2.9439
  640MOL0     H86340   1.836   0.994   1.560  1.6770  0.4295 -0.5652
  640MOL0     H86341   1.996   0.924   1.802 -1.3306  2.7163 -0.6484
  640MOL0     H86342   1.911   0.797   1.709  2.7169 -1.1537  0.0203
  640MOL0     H86343   2.036   0.850   1.507  1.6085 -4.6458  0.0745
  640MOL0     H86344   2.122   0.974   1.597  4.6648 -3.5580 -3.6808
  640MOL0     H86345   2.203   0.792   1.759 -0.5419  0.0345  0.6339
  640MOL0     H86346   2.134   0.678   1.644 -2.8786  1.0631 -0.0257
  640MOL0     H86347   2.349   0.892   1.584 -1.5351  0.9090 -0.7545
  640MOL0     H86348   2.290   0.764   1.468 -0.2992 -0.2894  0.0321
  640MOL0     H86349   2.444   0.727   1.723 -0.9223  1.0581  0.0357
  640MOL0     H86350   2.387   0.591   1.617  0.7566 -0.8163  1.7580
  640MOL0     H86351   2.471   0.678   1.339  0.6053 -0.1690  2.0622
  640MOL0     H86352   2.716   0.653   1.179 -0.1420 -0.6309  1.4529
  640MOL0     H86353   2.759   0.819   1.220 -0.6999  1.1359  0.6165
  640MOL0     H86354   2.958   0.712   1.350  1.0290  1.0473 -1.7761
  640MOL0     H86355   2.892   0.558   1.296  0.7072 -1.3378 -1.4894
  640MOL0     H86356   2.962   0.596   1.065  2.3880 -1.6190  0.3270
  640MOL0     H86357   3.085   0.623   1.185 -0.2105 -2.3012 -0.8432
  640MOL0     H86358   3.030   0.873   1.185  3.4769 -0.6057 -0.2981
  640MOL0     H86359   2.911   0.844   1.066 -0.6398  0.4846  2.6129
  640MOL0     H86360   3.197   0.852   1.262 -1.4326  2.1293 -1.4128
  640MOL0     H86361   3.448   0.897   1.304 -0.0175  0.7442 -0.4108
  640MOL0     H86362   3.652   1.205   1.405 -0.6462 -0.2698 -0.7885
  640MOL0     H86363   3.838   1.329   1.484 -3.8700  0.2820 -1.9550
  640MOL0     H86364   4.075   1.438   1.344  1.9526  0.0678 -1.0286
  640MOL0     H86365   4.055   1.427   1.522 -0.0142  1.3833 -0.2141
  640MOL0     H86366   4.279   1.376   1.553  0.9262 -0.7761 -0.8728
  640MOL0     H86367   4.319   1.424   1.382 -2.0172  3.9401 -2.8392
  640MOL0     H86368   4.170   1.624   1.548 -0.9369 -1.8929 -1.0736
  640MOL0     H86369   4.339   1.604   1.592 -4.0386 -0.3857  3.4573
  640MOL0     H86370   4.291   1.782   1.405  0.5589  0.6854 -2.6983
  640MOL0     H86371   4.266   1.637   1.303  0.6366 -4.9900  2.4132
  640MOL0     H86372   4.491   1.585   1.314 -0.2700  1.4446 -0.3760
  640MOL0     H86373   4.520   1.698   1.452 -1.5653  1.2864  0.7447
  640MOL0     H86374   4.423   1.789   1.177  3.0480 -0.0588 -2.3301
  640MOL0     H86375   4.494   1.894   1.298  0.3712 -0.3598  0.0310
  640MOL0     H86376   4.637   1.693   1.117  2.6894 -0.1330 -0.8423
  640MOL0     H86377   4.714   1.741   1.268  1.2066  1.8974 -0.8955
  640MOL0     H86378   4.607   1.929   1.048 -2.5219 -2.0192  0.8296
  640MOL0     H86379   4.705   1.991   1.191  1.1591  0.1363 -0.5650
  640MOL0     H86380   4.103   1.035   1.320  0.5933  0.0981 -0.1501
  640MOL0     H86381   3.905   0.904   1.231  1.1071  0.5783  0.0786
  640MOL0     H86382   3.512   0.877   0.884 -0.2427 -0.5872 -0.7125
  640MOL0     H86383   3.277   0.815   0.850  2.7519  0.8254 -0.0391
  640MOL0     H86384   1.342   1.109   1.918  3.9601 -1.6862 -1.1640
  640MOL0     H86385   1.093   1.162   1.873  1.3816 -0.3369 -0.0461
  640MOL0     H86386   0.801   1.082   1.473  0.5693  1.1720  0.5741
  640MOL0     H86387   0.650   1.106   1.284 -0.3165 -0.2677  1.2080
  640MOL0     H86388   0.445   1.478   1.218  2.0979  0.4137  2.2925
  640MOL0     H86389   0.390   1.339   1.313  2.0798  0.2356  0.6428
  640MOL0     H86390   0.347   1.203   1.091 -2.2827  0.1329 -1.8098
  640MOL0     H86391   0.349   1.363   1.014 -1.5174 -2.1674 -0.6014
  640MOL0     H86392   0.181   1.433   1.204 -2.4863  0.3584 -1.1829
  640MOL0     H86393   0.145   1.264   1.224  0.8052  1.2857  1.0313
  640MOL0     H86394   0.107   1.415   0.979  0.0425 -0.0992 -1.3516
  640MOL0     H86395   0.125   1.237   0.972 -0.8059  1.5372  0.1291
  640MOL0     H86396  -0.261   1.289   1.166 -0.4809 -1.0419 -0.9329
  640MOL0     H86397   0.636   1.520   1.351  0.4719 -1.4922 -1.0826
  640MOL0     H86398   0.741   1.630   1.523  0.8132  0.0068 -0.8342
  640MOL0     H86399   0.777   1.532   1.662  0.5470  0.9887 -0.6955
  640MOL0     H86400   0.908   1.574   1.548  1.1528 -1.5130  0.3301
  641MOL0     O86401   9.489   7.134   6.996  1.0948 -0.8896  0.9457
  641MOL0     C86402   9.462   7.215   6.907 -0.1882 -0.3810  0.4769
  641MOL0     O86403   9.532   7.332   6.882 -0.2327 -0.5891 -0.2465
  641MOL0     C86404   9.641   7.338   6.961 -0.0831 -0.1966  0.0232
  641MOL0     C86405   9.673   7.469   7.019  0.7750 -0.2953  0.1483
  641MOL0     C86406   9.784   7.496   7.086 -0.3252 -0.0094  0.4374
  641MOL0     C86407   9.885   7.405   7.096 -0.5465  0.7576  0.7292
  641MOL0     O86408  10.008   7.424   7.154 -0.1394  0.2467  0.4331
  641MOL0     C86409  10.058   7.555   7.192 -0.4256 -0.4650 -0.0142
  641MOL0     C86410  10.205   7.558   7.239 -0.1102  0.4760 -0.5740
  641MOL0     C86411  10.234   7.692   7.309  0.2998  0.4739 -0.8880
  641MOL0     C86412  10.230   7.677   7.463 -0.3056  0.6490  0.2861
  641MOL0     C86413  10.244   7.808   7.550 -0.7542 -0.1574  0.1275
  641MOL0     C86414  10.367   7.900   7.505  0.4099  0.3226  0.0308
  641MOL0     C86415  10.399   8.014   7.608  0.5124 -0.3203  0.7486
  641MOL0     C86416  10.494   7.967   7.724  0.0244  0.0077 -0.1331
  641MOL0     N86417  10.627   8.030   7.697 -0.8089  0.3874  0.4218
  641MOL0     C86418  10.692   8.022   7.578 -0.7383 -0.3195  0.0437
  641MOL0     C86419  10.779   8.131   7.575  0.0264 -0.3329 -0.0374
  641MOL0     C86420  10.868   8.181   7.463 -0.5515  0.9450 -0.6060
  641MOL0     C86421  11.004   8.204   7.520 -0.8343 -0.2430 -0.0435
  641MOL0     C86422  11.074   8.302   7.417  0.8795  0.6009 -0.4478
  641MOL0     C86423  11.217   8.317   7.446  0.0477  0.3284 -0.0824
  641MOL0     O86424  11.274   8.421   7.367  0.9590  0.5619 -0.3811
  641MOL0     C86425  11.402   8.448   7.402  0.7097  0.0586  0.5189
  641MOL0     C86426  11.482   8.407   7.515  0.8755 -1.0277  0.5389
  641MOL0     C86427  11.604   8.458   7.530 -0.7004  1.0689 -0.0798
  641MOL0     C86428  11.665   8.540   7.434  0.1041 -0.0571 -0.3768
  641MOL0     C86429  11.811   8.591   7.446  0.5351  0.5794 -0.0694
  641MOL0     O86430  11.868   8.585   7.561 -0.5029  0.0175 -0.2219
  641MOL0     C86431  12.003   8.563   7.571  0.4223  0.6298 -0.5818
  641MOL0     C86432  12.090   8.651   7.640 -0.5373  0.4243 -0.1810
  641MOL0     C86433  12.229   8.621   7.647  0.0950 -0.5720  0.7235
  641MOL0     C86434  12.284   8.509   7.584 -0.2818 -0.1209 -0.1777
  641MOL0     O86435  12.420   8.491   7.587 -0.1804 -0.5030  0.1838
  641MOL0     C86436  12.490   8.396   7.500  0.0462 -0.2992 -0.2614
  641MOL0     C86437  12.641   8.418   7.528  0.0246 -0.2078 -0.6714
  641MOL0     C86438  12.668   8.357   7.668  0.2319 -0.2324 -0.1683
  641MOL0     C86439  12.809   8.358   7.712 -0.5417 -0.0769 -0.6151
  641MOL0     C86440  12.871   8.499   7.710 -0.6612  0.5025 -0.0206
  641MOL0     C86441  12.999   8.490   7.784 -0.4357  0.4507  0.0098
  641MOL0     C86442  12.980   8.498   7.939  0.4681  0.3364  0.8836
  641MOL0     C86443  13.116   8.483   8.016  0.1737  0.2032 -0.3913
  641MOL0    Cl86444  13.180   8.650   8.024  0.5141  0.1189 -0.0233
  641MOL0     C86445  12.199   8.426   7.522 -0.1545  0.0309  0.0629
  641MOL0     C86446  12.060   8.449   7.515 -0.1488  0.3917  0.5418
  641MOL0     O86447  11.863   8.633   7.342 -0.0403 -0.0366 -0.4197
  641MOL0     C86448  11.585   8.588   7.322  0.0866  0.5867  0.5263
  641MOL0     C86449  11.453   8.539   7.306  0.7044 -0.0088 -0.3317
  641MOL0     N86450  10.755   8.199   7.695 -0.1003 -0.6128 -0.5043
  641MOL0     N86451  10.683   8.133   7.771  0.1335  0.4006  0.6872
  641MOL0     C86452   9.871   7.280   7.033  0.0245 -0.3425  0.0595
  641MOL0     C86453   9.746   7.245   6.976 -0.9115  0.3725 -0.5452
  641MOL0     C86454   9.353   7.178   6.818  0.2420  0.1955 -0.0758
  641MOL0     C86455   9.275   7.064   6.841  0.0408  0.8160  0.0506
  641MOL0     C86456   9.176   7.019   6.751  0.2707 -0.5729 -0.4419
  641MOL0     C86457   9.150   7.091   6.639  0.6628  0.7244 -0.2238
  641MOL0     O86458   9.060   7.049   6.544  0.6198 -0.5183  0.4044
  641MOL0     C86459   9.004   6.918   6.558  0.3278 -0.2285 -0.4758
  641MOL0     C86460   8.931   6.877   6.425  0.0954 -0.2692  0.5358
  641MOL0     C86461   8.848   6.749   6.463 -0.2513 -0.2325  0.3969
  641MOL0     C86462   8.757   6.696   6.341 -0.0831 -0.4841  0.3837
  641MOL0     C86463   8.682   6.575   6.381  0.3076 -0.2283  0.2076
  641MOL0     C86464   8.617   6.473   6.373 -0.1643  0.9537 -0.8717
  641MOL0     C86465   9.222   7.204   6.611  0.3421  0.2522  0.6098
  641MOL0     C86466   9.317   7.252   6.697  0.0006  0.0166  0.6864
  641MOL0     C86467   9.375   7.395   6.662 -0.4575 -0.0136  0.0438
  641MOL0     H86468   9.593   7.540   7.000  0.5657  0.2827  2.7112
  641MOL0     H86469   9.800   7.602   7.106 -0.8630  0.4719 -1.5070
  641MOL0     H86470  10.051   7.615   7.101 -2.7641  2.5856  1.9686
  641MOL0     H86471   9.988   7.598   7.265 -0.6514  0.0213 -0.5151
  641MOL0     H86472  10.268   7.538   7.152  0.9154  1.2085 -0.0051
  641MOL0     H86473  10.222   7.477   7.311 -0.0129  0.6793 -0.3692
  641MOL0     H86474  10.169   7.771   7.270  1.8080  2.3973  0.3541
  641MOL0     H86475  10.333   7.730   7.282 -0.3895  2.2210 -1.0482
  641MOL0     H86476  10.138   7.625   7.490 -0.0585 -0.0459 -0.1866
  641MOL0     H86477  10.307   7.606   7.494 -1.5127 -0.8786 -0.0777
  641MOL0     H86478  10.156   7.873   7.543 -1.1390 -0.5875  0.8465
  641MOL0     H86479  10.256   7.777   7.654 -0.7101 -0.2095  0.1068
  641MOL0     H86480  10.451   7.829   7.503 -1.7947 -2.6616  2.6436
  641MOL0     H86481  10.356   7.947   7.407 -1.2979 -1.6739 -0.8187
  641MOL0     H86482  10.303   8.042   7.653  1.0783 -0.9657  2.4402
  641MOL0     H86483  10.443   8.097   7.552 -5.1984  0.6871 -3.0806
  641MOL0     H86484  10.461   8.005   7.821  0.0481 -0.9986  0.2813
  641MOL0     H86485  10.514   7.860   7.739  1.3686  0.1532 -0.7294
  641MOL0     H86486  10.685   7.951   7.496 -3.9391 -0.4769  0.3419
  641MOL0     H86487  10.878   8.106   7.384 -4.7302 -0.8542  0.2990
  641MOL0     H86488  10.823   8.266   7.412 -1.2690  1.9293  1.5337
  641MOL0     H86489  11.009   8.258   7.615 -0.4443  1.7997 -1.1491
  641MOL0     H86490  11.053   8.107   7.532  1.6351  1.1028  2.1392
  641MOL0     H86491  11.018   8.395   7.414 -0.1869 -0.0467 -3.2104
  641MOL0     H86492  11.056   8.266   7.316  1.1375  0.6082 -0.4976
  641MOL0     H86493  11.248   8.216   7.417 -0.7204 -0.3907  1.4390
  641MOL0     H86494  11.229   8.335   7.554 -1.6540 -1.0442  0.3803
  641MOL0     H86495  11.441   8.337   7.586  0.5670 -2.3308 -0.8827
  641MOL0     H86496  11.651   8.424   7.622 -0.5622  0.7648 -0.2608
  641MOL0     H86497  12.061   8.744   7.686 -0.9732  0.0533  0.3029
  641MOL0     H86498  12.297   8.694   7.689 -3.4933  2.6347  1.5160
  641MOL0     H86499  12.459   8.290   7.502  0.8313 -0.7037 -3.4726
  641MOL0     H86500  12.471   8.418   7.394 -0.4318 -0.0012 -0.1147
  641MOL0     H86501  12.703   8.375   7.449 -0.2668  0.7297 -1.4415
  641MOL0     H86502  12.656   8.526   7.527 -0.4497 -0.1380 -0.5871
  641MOL0     H86503  12.612   8.413   7.743 -0.8582 -0.2880 -0.9191
  641MOL0     H86504  12.629   8.255   7.657 -2.6732  0.6242  1.3148
  641MOL0     H86505  12.869   8.297   7.644  0.2908  0.9909 -0.8601
  641MOL0     H86506  12.813   8.303   7.807  1.6097 -1.1620 -1.2664
  641MOL0     H86507  12.805   8.577   7.749 -0.4785  0.6914 -0.0900
  641MOL0     H86508  12.896   8.524   7.607  1.1996 -0.1677  0.2387
  641MOL0     H86509  13.055   8.401   7.752 -0.8184  0.2699 -0.1538
  641MOL0     H86510  13.063   8.576   7.760 -0.9230  1.4968  2.1866
  641MOL0     H86511  12.907   8.421   7.968 -0.2547  0.8457  0.4439
  641MOL0     H86512  12.925   8.585   7.976 -1.3070 -0.6874  0.7817
  641MOL0     H86513  13.097   8.466   8.122  2.0458  3.1834  0.5509
  641MOL0     H86514  13.187   8.410   7.975 -0.1329 -0.5257  0.3442
  641MOL0     H86515  12.226   8.341   7.460 -1.7179 -2.3213  2.3719
  641MOL0     H86516  12.003   8.373   7.461 -1.2402  0.5182  1.4729
  641MOL0     H86517  11.629   8.659   7.252  0.6220 -0.5148 -0.2919
  641MOL0     H86518  11.393   8.572   7.222  0.3776 -1.8646 -0.8641
  641MOL0     H86519   9.946   7.202   7.029 -1.1470 -1.4469 -2.2435
  641MOL0     H86520   9.741   7.149   6.927  1.1410 -0.3613  0.5426
  641MOL0     H86521   9.287   7.003   6.930 -1.5634 -3.0648 -2.1360
  641MOL0     H86522   9.128   6.929   6.787  1.9873 -1.6790 -0.8100
  641MOL0     H86523   8.934   6.909   6.642  0.2467 -1.7624 -0.6919
  641MOL0     H86524   9.080   6.841   6.573  2.4379  2.2230  3.0094
  641MOL0     H86525   9.001   6.862   6.342  2.1449  0.5044  2.0434
  641MOL0     H86526   8.865   6.959   6.396  0.3537 -0.1823  0.1880
  641MOL0     H86527   8.782   6.777   6.546 -1.4335 -2.7939  0.4457
  641MOL0     H86528   8.920   6.669   6.482  0.6424 -0.6165 -3.7447
  641MOL0     H86529   8.688   6.773   6.306  1.5201  1.3846  1.1614
  641MOL0     H86530   8.819   6.666   6.257  0.8312  3.2867 -0.4728
  641MOL0     H86531   8.559   6.384   6.359 -0.9764  1.6855 -2.4469
  641MOL0     H86532   9.217   7.251   6.513 -0.5183 -0.7777  0.1399
  641MOL0     H86533   9.319   7.458   6.592 -2.1512 -0.9342  0.5405
  641MOL0     H86534   9.389   7.459   6.750 -2.9784 -1.0280  1.2799
  641MOL0     H86535   9.476   7.379   6.622  0.3780 -0.2245  2.1362
  642MOL0     O86536  11.199   8.263   0.014 -1.1604  0.3462  0.2806
  642MOL0     C86537  11.105   8.340  -0.011  0.0689  0.7913  1.2919
  642MOL0     O86538  11.038   8.410   0.083  0.1423 -0.1340 -0.2204
  642MOL0     C86539  11.091   8.410   0.210  0.6835 -0.9907 -0.0503
  642MOL0     C86540  11.033   8.329   0.308 -0.6557  1.2663  0.1294
  642MOL0     C86541  11.084   8.338   0.439 -0.7674  0.5526  0.4905
  642MOL0     C86542  11.202   8.410   0.470  0.5659  0.1785 -0.1764
  642MOL0     O86543  11.249   8.402   0.595  0.6444 -1.1033 -0.6997
  642MOL0     C86544  11.385   8.429   0.626  0.0261 -0.8640 -0.7044
  642MOL0     C86545  11.413   8.392   0.781 -0.9599  0.1248  0.6091
  642MOL0     C86546  11.565   8.394   0.802 -0.3633 -0.7043  0.1901
  642MOL0     C86547  11.610   8.450   0.945 -0.4977 -0.3887  0.0033
  642MOL0     C86548  11.761   8.472   0.953 -0.4774 -0.3233 -0.2184
  642MOL0     C86549  11.788   8.552   1.081 -0.6734 -0.0628  0.1332
  642MOL0     C86550  11.936   8.582   1.094  0.3425 -0.2561 -0.1079
  642MOL0     C86551  12.018   8.462   1.137  0.2952  0.5571  0.0547
  642MOL0     N86552  12.157   8.496   1.171 -0.6834 -0.2670 -0.5511
  642MOL0     C86553  12.250   8.408   1.225  0.0787  0.0255 -0.6097
  642MOL0     C86554  12.365   8.479   1.232 -0.3563  0.5184  0.3370
  642MOL0     C86555  12.488   8.398   1.261  0.0175  0.7179  0.2838
  642MOL0     C86556  12.555   8.434   1.389 -0.8278  0.1168  0.0294
  642MOL0     C86557  12.694   8.363   1.400  1.1906  0.3148  0.4979
  642MOL0     C86558  12.745   8.342   1.541  0.7253  0.0149  0.7442
  642MOL0     O86559  12.746   8.203   1.585 -0.0940 -0.7033  0.3146
  642MOL0     C86560  12.876   8.156   1.598 -0.1686 -0.8339  0.1233
  642MOL0     C86561  12.930   8.131   1.723 -1.1628 -0.5884 -0.6619
  642MOL0     C86562  13.060   8.086   1.739 -0.1587 -0.5388  1.1525
  642MOL0     C86563  13.139   8.050   1.623 -0.6723  0.0331 -0.2495
  642MOL0     C86564  13.276   7.993   1.620  0.4107  0.1937 -1.5634
  642MOL0     O86565  13.354   7.989   1.505  0.4005  0.0113  0.0514
  642MOL0     C86566  13.488   7.964   1.490 -0.7186 -0.0863  0.3362
  642MOL0     C86567  13.557   7.884   1.575 -0.7896 -0.5386  0.7833
  642MOL0     C86568  13.694   7.864   1.547 -0.0595 -0.9428 -0.1263
  642MOL0     C86569  13.766   7.927   1.439  0.0071 -0.0688 -0.8707
  642MOL0     O86570  13.901   7.900   1.438 -0.3074 -0.1443  0.3492
  642MOL0     C86571  13.989   7.980   1.348 -0.1431 -0.7863  0.2027
  642MOL0     C86572  14.129   7.928   1.328 -0.3359 -0.6474 -0.7585
  642MOL0     C86573  14.188   7.991   1.205 -0.5347 -1.4785 -0.0514
  642MOL0     C86574  14.335   7.945   1.193  0.3785  0.8145 -0.0611
  642MOL0     C86575  14.328   7.811   1.112  0.0097 -0.0889  0.1987
  642MOL0     C86576  14.464   7.730   1.106  0.4008  0.0964 -0.2951
  642MOL0     C86577  14.561   7.783   1.003 -0.5925  0.0667  0.5628
  642MOL0     C86578  14.704   7.808   1.052 -0.2266  0.1513 -1.0506
  642MOL0    Cl86579  14.701   7.924   1.184  0.4551  0.0142 -0.1134
  642MOL0     C86580  13.696   8.007   1.351  0.3175 -0.2389 -0.7149
  642MOL0     C86581  13.555   8.020   1.380  0.0811 -0.6024 -0.0476
  642MOL0     O86582  13.308   7.952   1.734 -0.3698  0.3628  0.1926
  642MOL0     C86583  13.081   8.091   1.491  0.2499 -0.1376 -0.2581
  642MOL0     C86584  12.951   8.141   1.484  1.1417 -0.9291 -0.2534
  642MOL0     N86585  12.340   8.615   1.187 -0.0646 -0.1302 -0.2107
  642MOL0     N86586  12.217   8.613   1.150  0.2150 -0.0575  0.3008
  642MOL0     C86587  11.270   8.473   0.367  0.1690  0.6733  0.5265
  642MOL0     C86588  11.208   8.482   0.238 -0.8726 -0.8087 -0.7377
  642MOL0     C86589  11.048   8.333  -0.152  0.0676 -0.6225 -0.4238
  642MOL0     C86590  10.909   8.343  -0.161 -0.1159 -0.3489  0.1424
  642MOL0     C86591  10.836   8.298  -0.272 -0.4890 -0.3680 -0.0686
  642MOL0     C86592  10.911   8.253  -0.383  0.3845 -0.0278  0.2593
  642MOL0     O86593  10.849   8.218  -0.501 -0.0207 -0.1845  0.2705
  642MOL0     C86594  10.733   8.303  -0.540  0.2110  0.1739  0.2912
  642MOL0     C86595  10.735   8.333  -0.693 -0.1570  1.2840  0.0177
  642MOL0     C86596  10.744   8.209  -0.781  0.6334  0.5595 -0.5302
  642MOL0     C86597  10.611   8.193  -0.851  0.8890  0.5699 -0.3548
  642MOL0     C86598  10.580   8.068  -0.926  0.2931 -0.7137 -0.2753
  642MOL0     C86599  10.557   7.971  -0.991 -0.2825  0.2181  0.3651
  642MOL0     C86600  11.046   8.255  -0.378 -0.1155  0.7558 -1.1625
  642MOL0     C86601  11.123   8.294  -0.269  0.0064  1.9035 -0.0839
  642MOL0     C86602  11.267   8.277  -0.278  0.1914 -0.7885  0.5435
  642MOL0     H86603  10.944   8.268   0.295 -1.0750  2.3411 -2.6017
  642MOL0     H86604  11.050   8.274   0.519  1.0908 -1.1716 -0.0092
  642MOL0     H86605  11.458   8.383   0.558  0.1432 -1.0092 -0.4795
  642MOL0     H86606  11.408   8.536   0.624  0.1436 -0.8270  1.2107
  642MOL0     H86607  11.371   8.292   0.798 -1.3001  0.2080  0.2808
  642MOL0     H86608  11.355   8.454   0.849  0.4427  1.8642  0.2785
  642MOL0     H86609  11.619   8.443   0.721  2.4191 -0.2859  2.1448
  642MOL0     H86610  11.599   8.290   0.797 -0.2449 -0.7551  1.7436
  642MOL0     H86611  11.566   8.546   0.971  1.2130  1.1637 -2.4124
  642MOL0     H86612  11.574   8.375   1.017  2.7246 -2.5758 -0.4507
  642MOL0     H86613  11.813   8.376   0.960 -2.6872 -1.5888 -0.1075
  642MOL0     H86614  11.795   8.532   0.869 -3.6240 -0.6576 -1.8686
  642MOL0     H86615  11.739   8.650   1.088 -1.5998 -0.3011 -2.0954
  642MOL0     H86616  11.738   8.501   1.163 -1.2583 -0.9846 -0.7671
  642MOL0     H86617  11.961   8.660   1.166  3.6212  0.2164 -1.5581
  642MOL0     H86618  11.974   8.610   0.995 -0.8501  1.7196 -0.0692
  642MOL0     H86619  11.971   8.425   1.229 -2.3292  2.0237 -0.5777
  642MOL0     H86620  12.032   8.384   1.063  0.7174  0.6780  0.0019
  642MOL0     H86621  12.237   8.305   1.257 -1.3532  0.5083  0.4122
  642MOL0     H86622  12.479   8.290   1.243 -0.2637  1.1326 -2.3942
  642MOL0     H86623  12.570   8.426   1.194 -0.9506  0.9328 -0.8356
  642MOL0     H86624  12.573   8.542   1.389  5.3921 -0.4746  2.1189
  642MOL0     H86625  12.493   8.399   1.472 -1.6270  1.4714  0.0199
  642MOL0     H86626  12.765   8.427   1.347 -0.3146  0.2018 -1.7952
  642MOL0     H86627  12.703   8.267   1.348  1.7735  0.6044  0.0457
  642MOL0     H86628  12.681   8.391   1.615  1.2856  0.6942  0.7921
  642MOL0     H86629  12.847   8.383   1.551  0.8236  0.1454 -0.6334
  642MOL0     H86630  12.867   8.152   1.809  1.0265 -0.3342  0.9663
  642MOL0     H86631  13.100   8.074   1.840 -0.3384  0.8288  1.4049
  642MOL0     H86632  13.501   7.829   1.650 -3.2159  0.4414 -0.1937
  642MOL0     H86633  13.761   7.804   1.609  2.4217  1.0192 -0.7278
  642MOL0     H86634  13.944   7.968   1.249 -1.4750  0.3125  0.6562
  642MOL0     H86635  13.997   8.089   1.356 -0.7336 -0.6468 -0.9110
  642MOL0     H86636  14.189   7.953   1.416 -0.3366 -0.9930 -0.6549
  642MOL0     H86637  14.143   7.820   1.339 -0.5328 -0.5616  0.4878
  642MOL0     H86638  14.130   7.955   1.119 -2.0752 -5.7551  2.4715
  642MOL0     H86639  14.188   8.100   1.206 -0.8203 -1.4573 -0.9546
  642MOL0     H86640  14.373   7.913   1.290 -0.7216  1.2295  0.5322
  642MOL0     H86641  14.406   8.017   1.151  0.4795 -0.0833 -1.5128
  642MOL0     H86642  14.290   7.834   1.011  0.0059  1.0733  0.4492
  642MOL0     H86643  14.243   7.753   1.148 -1.0688  0.4937 -1.2826
  642MOL0     H86644  14.509   7.737   1.206  1.1687  1.9329 -0.7429
  642MOL0     H86645  14.437   7.625   1.089 -4.4930  0.8008  1.7045
  642MOL0     H86646  14.518   7.878   0.970 -3.0718 -0.6903  1.4032
  642MOL0     H86647  14.563   7.709   0.922  1.9060  1.0251 -0.3686
  642MOL0     H86648  14.758   7.718   1.082  1.3201  1.3729 -0.0178
  642MOL0     H86649  14.766   7.843   0.970  2.0331 -2.4785 -0.6243
  642MOL0     H86650  13.748   8.060   1.271 -1.2798 -1.4254 -2.6148
  642MOL0     H86651  13.504   8.097   1.323  2.7859 -0.2360 -2.1900
  642MOL0     H86652  13.125   8.078   1.393 -1.8984  0.0364 -1.3011
  642MOL0     H86653  12.914   8.169   1.386  0.6315 -0.5707  0.0357
  642MOL0     H86654  11.368   8.515   0.391  0.9725 -1.3809  1.0195
  642MOL0     H86655  11.240   8.544   0.155 -1.0978  1.3796  0.7226
  642MOL0     H86656  10.848   8.378  -0.078 -2.9691 -3.3944 -0.4335
  642MOL0     H86657  10.728   8.300  -0.279 -0.5161 -1.3396 -0.0299
  642MOL0     H86658  10.737   8.400  -0.490 -2.1154  1.6914 -2.1837
  642MOL0     H86659  10.637   8.255  -0.514  0.0472 -1.2421 -2.5564
  642MOL0     H86660  10.819   8.400  -0.714  0.6094  1.8014  3.9290
  642MOL0     H86661  10.643   8.386  -0.718  0.4923  0.8475 -3.8921
  642MOL0     H86662  10.771   8.119  -0.725  0.7916 -1.3959 -3.5021
  642MOL0     H86663  10.822   8.224  -0.857 -1.6255  1.9395 -2.7520
  642MOL0     H86664  10.536   8.205  -0.772  0.7423 -2.5824  0.1323
  642MOL0     H86665  10.607   8.279  -0.918  2.3677  0.6518 -0.3693
  642MOL0     H86666  10.535   7.878  -1.039 -1.8363  1.4737 -1.5086
  642MOL0     H86667  11.104   8.226  -0.465  2.9993  1.1259  0.6607
  642MOL0     H86668  11.329   8.341  -0.214  0.7778 -0.7392 -0.0633
  642MOL0     H86669  11.286   8.170  -0.266  1.4094 -0.6547 -0.0254
  642MOL0     H86670  11.297   8.305  -0.379  0.8526 -0.8022  0.7332
  643MOL0     O86671   8.879   7.345   0.741  0.6744  0.4050  0.9000
  643MOL0     C86672   8.827   7.440   0.799  0.0449  0.1062 -0.4896
  643MOL0     O86673   8.888   7.519   0.893  0.3854 -0.0635 -0.0181
  643MOL0     C86674   9.007   7.477   0.950  0.6242 -0.4912  0.2819
  643MOL0     C86675   9.050   7.344   0.966  0.0242  0.4126 -0.0786
  643MOL0     C86676   9.179   7.309   1.025  0.6591  0.0547  0.0268
  643MOL0     C86677   9.253   7.414   1.077 -0.6709  1.1935 -0.0845
  643MOL0     O86678   9.366   7.398   1.155  0.3226  0.3084  0.3906
  643MOL0     C86679   9.398   7.276   1.212 -0.7679 -0.3928  0.6417
  643MOL0     C86680   9.517   7.273   1.310  0.2090  0.2100  0.1374
  643MOL0     C86681   9.519   7.384   1.413  0.2455 -0.2590 -0.1469
  643MOL0     C86682   9.653   7.388   1.498  0.2878  0.0546  0.0673
  643MOL0     C86683   9.673   7.539   1.542  0.8760 -0.0023  0.7823
  643MOL0     C86684   9.552   7.587   1.626 -0.8678  0.2331 -0.4984
  643MOL0     C86685   9.598   7.686   1.737  0.6931 -0.4345 -0.0214
  643MOL0     C86686   9.468   7.750   1.806  1.0004  0.7593 -0.0522
  643MOL0     N86687   9.508   7.827   1.919 -0.1547  0.2043 -0.5103
  643MOL0     C86688   9.622   7.899   1.919 -0.0002 -0.0532 -1.1223
  643MOL0     C86689   9.635   7.947   2.046 -0.7702  0.9979  0.8878
  643MOL0     C86690   9.755   8.024   2.101  0.1554  0.5737 -0.4477
  643MOL0     C86691   9.841   7.936   2.178  0.0190  0.7342 -0.1910
  643MOL0     C86692   9.945   8.010   2.263  0.8649  0.1450  0.2946
  643MOL0     C86693  10.019   7.920   2.356 -0.1776 -0.5700 -0.7464
  643MOL0     O86694  10.152   7.976   2.372  0.4629  0.6903  0.1232
  643MOL0     C86695  10.236   7.905   2.454 -1.2162  0.1010 -0.4150
  643MOL0     C86696  10.371   7.910   2.417 -0.6453  0.4375 -0.1039
  643MOL0     C86697  10.468   7.838   2.487  0.8128  0.4105 -0.6333
  643MOL0     C86698  10.432   7.755   2.596  0.0075  0.0998  0.8728
  643MOL0     C86699  10.542   7.691   2.669  0.3315 -0.0578  0.6504
  643MOL0     O86700  10.668   7.678   2.607 -0.3605 -0.0155 -0.0450
  643MOL0     C86701  10.752   7.582   2.653 -0.5402 -0.7240 -0.4980
  643MOL0     C86702  10.749   7.450   2.605 -0.1345 -0.3317 -0.3730
  643MOL0     C86703  10.843   7.355   2.653 -0.8405 -0.3592 -0.3058
  643MOL0     C86704  10.946   7.396   2.738 -0.3811  0.6351  0.0751
  643MOL0     O86705  11.028   7.290   2.770  0.5605  0.6554  0.3770
  643MOL0     C86706  11.103   7.305   2.892  0.9298 -0.5494  0.6243
  643MOL0     C86707  11.252   7.322   2.859  0.1289 -0.3407  0.4966
  643MOL0     C86708  11.287   7.443   2.767 -0.4851 -0.1042  0.2157
  643MOL0     C86709  11.427   7.446   2.723 -0.3991 -0.3743  1.0069
  643MOL0     C86710  11.444   7.370   2.593 -0.6497 -0.3039  0.3342
  643MOL0     C86711  11.597   7.355   2.562  0.2079  0.5833 -0.9559
  643MOL0     C86712  11.664   7.234   2.630  0.9425  0.3327  0.1302
  643MOL0     C86713  11.782   7.187   2.540  0.8574  0.4964 -0.4818
  643MOL0    Cl86714  11.895   7.110   2.657  0.2806 -0.4864  0.3282
  643MOL0     C86715  10.945   7.523   2.779 -0.0962 -0.2665 -0.0513
  643MOL0     C86716  10.857   7.618   2.734 -0.4433  0.2250  0.4151
  643MOL0     O86717  10.522   7.657   2.783  0.6300  0.1689  0.4120
  643MOL0     C86718  10.295   7.753   2.644  0.0425 -1.5261 -0.2187
  643MOL0     C86719  10.203   7.826   2.569  0.7345  0.4295 -0.1864
  643MOL0     N86720   9.526   7.900   2.113  0.3850 -0.7721  0.0874
  643MOL0     N86721   9.450   7.830   2.035  0.2069 -0.6674 -0.6495
  643MOL0     C86722   9.210   7.548   1.065  0.8665 -0.2609  0.1834
  643MOL0     C86723   9.090   7.583   1.003 -0.9368  0.2836  0.1360
  643MOL0     C86724   8.693   7.482   0.770 -0.1977 -0.0941  0.1553
  643MOL0     C86725   8.594   7.379   0.759 -0.1129 -0.3366  0.2856
  643MOL0     C86726   8.461   7.407   0.750 -0.3877  0.5920 -0.3120
  643MOL0     C86727   8.423   7.533   0.733  0.2074 -0.1496 -0.8066
  643MOL0     O86728   8.289   7.546   0.729 -0.2365  0.4046 -0.4863
  643MOL0     C86729   8.220   7.666   0.713  0.5183 -1.0338  0.1299
  643MOL0     C86730   8.081   7.648   0.780 -0.4263 -0.6303  0.2783
  643MOL0     C86731   7.976   7.583   0.694  0.2167  0.5978  0.5023
  643MOL0     C86732   8.026   7.451   0.622 -0.4693 -0.5259  0.5115
  643MOL0     C86733   7.923   7.404   0.536 -0.4079  0.5314 -0.0548
  643MOL0     C86734   7.844   7.374   0.455  0.4314  0.1269 -0.1412
  643MOL0     C86735   8.511   7.641   0.745 -0.1583 -0.6639  0.5458
  643MOL0     C86736   8.649   7.616   0.760  0.0586 -0.2824 -0.4774
  643MOL0     C86737   8.748   7.728   0.753 -0.2079  1.0313  0.3998
  643MOL0     H86738   8.989   7.262   0.927 -2.5333  1.7953  0.7762
  643MOL0     H86739   9.215   7.207   1.034  2.1051  0.4146 -1.2954
  643MOL0     H86740   9.310   7.237   1.263 -1.0270  1.4472  1.6813
  643MOL0     H86741   9.435   7.222   1.124 -0.3395  2.2457 -0.8794
  643MOL0     H86742   9.603   7.293   1.245 -1.5365 -0.2143 -2.4417
  643MOL0     H86743   9.540   7.181   1.365  0.4471  0.3351  0.2514
  643MOL0     H86744   9.436   7.377   1.483 -0.5151  1.3534 -0.8253
  643MOL0     H86745   9.513   7.481   1.361  1.4900 -0.3951 -0.5738
  643MOL0     H86746   9.643   7.323   1.585  2.3624  0.5574  0.7432
  643MOL0     H86747   9.738   7.344   1.445 -0.4859 -2.4562  0.7889
  643MOL0     H86748   9.771   7.550   1.589  0.1840  0.6194  2.1313
  643MOL0     H86749   9.672   7.601   1.452  4.1893  1.1881  1.4412
  643MOL0     H86750   9.475   7.631   1.562 -0.4049  1.4648 -0.2298
  643MOL0     H86751   9.516   7.495   1.674 -3.3837  1.3790 -0.0277
  643MOL0     H86752   9.643   7.774   1.692 -1.1063 -0.2349 -1.5665
  643MOL0     H86753   9.659   7.633   1.811  0.1142  1.8243  2.2286
  643MOL0     H86754   9.441   7.828   1.735 -1.4986  1.2506  1.3139
  643MOL0     H86755   9.382   7.688   1.832 -0.8435  1.7517 -3.3061
  643MOL0     H86756   9.692   7.905   1.836  0.5780 -2.7119 -0.9247
  643MOL0     H86757   9.809   8.077   2.021  0.0125  0.5705 -0.5479
  643MOL0     H86758   9.718   8.103   2.166  1.8759  2.6931 -1.8819
  643MOL0     H86759   9.781   7.881   2.250  0.9006  0.8162  0.6229
  643MOL0     H86760   9.898   7.877   2.105  0.0325  2.2842 -1.4932
  643MOL0     H86761   9.900   8.086   2.328  2.2449  1.3017 -0.0272
  643MOL0     H86762  10.017   8.057   2.195  0.9371 -1.2947 -0.6705
  643MOL0     H86763  10.032   7.821   2.312 -1.7574 -0.9327 -0.4700
  643MOL0     H86764   9.971   7.913   2.453 -1.5677  3.6311 -0.9238
  643MOL0     H86765  10.390   7.970   2.329  2.3783  0.3170  0.3359
  643MOL0     H86766  10.570   7.835   2.450  0.6761  1.0405 -1.0857
  643MOL0     H86767  10.664   7.414   2.548 -1.4337 -1.6050  2.1901
  643MOL0     H86768  10.832   7.253   2.615 -0.0296 -1.7296  2.8125
  643MOL0     H86769  11.055   7.381   2.955  0.7197 -1.0339  1.0510
  643MOL0     H86770  11.081   7.212   2.944  0.7316  0.7028  2.9264
  643MOL0     H86771  11.306   7.345   2.951  0.4428  2.0519 -0.2212
  643MOL0     H86772  11.276   7.228   2.810  0.3830  1.0182 -2.2102
  643MOL0     H86773  11.224   7.443   2.678 -0.9471  2.6717  0.4531
  643MOL0     H86774  11.257   7.539   2.810 -1.2463  1.3892 -3.3609
  643MOL0     H86775  11.499   7.416   2.800 -0.0116  0.8302  1.1267
  643MOL0     H86776  11.466   7.546   2.700  2.2150 -1.6532 -0.6964
  643MOL0     H86777  11.393   7.432   2.519 -0.0835  2.6720  2.2242
  643MOL0     H86778  11.396   7.272   2.605 -1.9323  0.2985  0.3103
  643MOL0     H86779  11.623   7.358   2.456  1.2061  0.8338 -0.7220
  643MOL0     H86780  11.644   7.442   2.609 -1.3506  0.2613  1.3356
  643MOL0     H86781  11.589   7.155   2.641  0.0075  0.3302 -4.2330
  643MOL0     H86782  11.705   7.264   2.726  0.1176 -2.2117  1.3618
  643MOL0     H86783  11.760   7.106   2.470  3.9014  1.8831 -3.2941
  643MOL0     H86784  11.827   7.274   2.491 -1.9612  2.9454  0.9551
  643MOL0     H86785  11.013   7.570   2.849  0.8956 -1.4835 -0.1460
  643MOL0     H86786  10.859   7.724   2.758 -0.8871  0.3542 -0.0911
  643MOL0     H86787  10.255   7.705   2.732 -4.4950  0.6184 -0.8013
  643MOL0     H86788  10.101   7.823   2.606  0.3155  0.0954 -1.3140
  643MOL0     H86789   9.268   7.619   1.122 -0.3627 -2.0665  4.0142
  643MOL0     H86790   9.056   7.685   0.985  0.0721  0.5686 -0.2153
  643MOL0     H86791   8.631   7.277   0.765  1.1892  0.0896 -0.1995
  643MOL0     H86792   8.383   7.331   0.746  0.2024  0.0452 -2.4525
  643MOL0     H86793   8.212   7.696   0.608 -2.2827 -0.7700  0.3426
  643MOL0     H86794   8.282   7.734   0.772 -0.0303  0.1406 -0.6178
  643MOL0     H86795   8.044   7.749   0.800  0.1258  0.0254 -1.7165
  643MOL0     H86796   8.099   7.614   0.882 -0.0260  2.4609  1.3443
  643MOL0     H86797   7.954   7.664   0.625  3.3330  2.7958  1.8328
  643MOL0     H86798   7.887   7.556   0.751  0.1798 -0.2857  0.0505
  643MOL0     H86799   8.113   7.466   0.556 -0.3847  1.0780  0.9588
  643MOL0     H86800   8.065   7.383   0.698  4.2937 -0.4226 -1.4448
  643MOL0     H86801   7.760   7.340   0.397  0.5635 -1.8740  0.7719
  643MOL0     H86802   8.473   7.740   0.722  2.1916  0.2093  0.1595
  643MOL0     H86803   8.716   7.797   0.675 -3.8633  0.7623  1.4758
  643MOL0     H86804   8.754   7.780   0.849 -1.1653  0.7585  0.6246
  643MOL0     H86805   8.850   7.700   0.727 -1.9535 -1.2381 -5.8980
  644MOL0     O86806   7.746   7.973   6.939 -0.2824 -0.2400 -0.1764
  644MOL0     C86807   7.722   8.008   6.822  0.8752  0.2539  0.8032
  644MOL0     O86808   7.807   8.076   6.743 -0.3958  0.1000  0.0733
  644MOL0     C86809   7.935   8.085   6.786  0.2408  0.6027 -0.0828
  644MOL0     C86810   8.012   7.970   6.799 -0.4546  0.7008  0.2879
  644MOL0     C86811   8.150   7.985   6.845  0.4492  0.6096  0.1136
  644MOL0     C86812   8.206   8.109   6.864 -0.6530 -0.1524  0.0945
  644MOL0     O86813   8.345   8.120   6.893  0.1985 -0.1471  0.0136
  644MOL0     C86814   8.383   8.221   6.987  0.6535  0.5381  0.4976
  644MOL0     C86815   8.526   8.220   7.040 -0.4583 -0.5656 -0.3523
  644MOL0     C86816   8.630   8.285   6.949 -0.3085  0.7482 -0.4384
  644MOL0     C86817   8.757   8.315   7.040  0.3403  0.0401 -1.0787
  644MOL0     C86818   8.742   8.453   7.108 -1.5262 -1.2143 -0.6214
  644MOL0     C86819   8.872   8.492   7.177 -1.0646  0.2709 -0.1808
  644MOL0     C86820   8.878   8.630   7.228  0.3793 -0.3362 -0.0955
  644MOL0     C86821   8.993   8.657   7.317  0.9969  0.3317  0.7381
  644MOL0     N86822   9.122   8.623   7.268 -0.1853  0.0827 -0.0282
  644MOL0     C86823   9.218   8.540   7.321 -0.1836  0.1854 -0.2276
  644MOL0     C86824   9.336   8.594   7.279 -0.2970  0.6769  0.9449
  644MOL0     C86825   9.476   8.527   7.305  0.1216  0.0599 -0.4803
  644MOL0     C86826   9.469   8.381   7.354 -0.5281 -0.4199  0.4502
  644MOL0     C86827   9.427   8.282   7.245 -1.2461  0.8542 -0.4241
  644MOL0     C86828   9.382   8.153   7.321 -1.1381 -0.5483 -0.4464
  644MOL0     O86829   9.259   8.172   7.393 -0.2801  0.1575 -0.1780
  644MOL0     C86830   9.138   8.135   7.333  0.3056 -0.4211  0.1400
  644MOL0     C86831   9.117   8.125   7.196 -0.1967 -0.3594 -0.1088
  644MOL0     C86832   9.002   8.066   7.133 -0.8570  0.1938 -0.6913
  644MOL0     C86833   8.902   8.004   7.216 -1.0378 -0.2538  0.2191
  644MOL0     C86834   8.793   7.930   7.158  0.7584  0.6377  0.6515
  644MOL0     O86835   8.703   7.893   7.245  0.3396 -0.3459  0.3947
  644MOL0     C86836   8.599   7.808   7.220 -0.0372  0.5801  0.1047
  644MOL0     C86837   8.565   7.724   7.324 -0.8453 -0.1565  0.1745
  644MOL0     C86838   8.444   7.652   7.318 -0.9328 -0.2713 -0.3646
  644MOL0     C86839   8.371   7.658   7.204 -0.7222 -0.1916  0.2126
  644MOL0     O86840   8.261   7.590   7.200  0.8879  0.3521  0.4569
  644MOL0     C86841   8.144   7.675   7.209 -0.9586  0.8701  0.8239
  644MOL0     C86842   8.024   7.589   7.257 -0.1060 -0.8698 -0.1463
  644MOL0     C86843   7.897   7.667   7.227 -0.4156  0.2882 -0.1225
  644MOL0     C86844   7.790   7.561   7.192 -0.6211  0.1251  0.1471
  644MOL0     C86845   7.667   7.629   7.148 -0.0367  0.3402  0.0992
  644MOL0     C86846   7.562   7.526   7.118 -0.0348 -0.5003  0.5374
  644MOL0     C86847   7.436   7.594   7.067  0.1752 -1.2085  0.3136
  644MOL0     C86848   7.307   7.511   7.045 -0.9838 -0.2265  0.3133
  644MOL0    Cl86849   7.172   7.597   6.947  0.2982 -0.3105  0.5019
  644MOL0     C86850   8.402   7.738   7.097 -0.3406  0.7687 -0.1750
  644MOL0     C86851   8.520   7.804   7.097 -0.6928  0.5038 -0.3602
  644MOL0     O86852   8.798   7.902   7.036  0.0999 -0.4123 -0.1074
  644MOL0     C86853   8.921   8.017   7.355 -0.4077  0.3043 -0.1493
  644MOL0     C86854   9.036   8.078   7.409  0.4948  0.2729  0.3136
  644MOL0     N86855   9.311   8.691   7.190  0.1092  0.1260 -0.4955
  644MOL0     N86856   9.182   8.701   7.185  0.2103  0.7184  0.2737
  644MOL0     C86857   8.124   8.225   6.853  0.2169 -0.1406 -0.2912
  644MOL0     C86858   7.989   8.216   6.824 -0.6043  0.7340  0.3956
  644MOL0     C86859   7.582   7.968   6.780 -0.8906 -0.3089 -0.0589
  644MOL0     C86860   7.489   7.918   6.876 -0.8192  0.0342 -0.2818
  644MOL0     C86861   7.364   7.871   6.824 -0.5214 -0.2844  0.0138
  644MOL0     C86862   7.322   7.893   6.690  0.8617  0.1807  0.2186
  644MOL0     O86863   7.190   7.862   6.660 -0.4225  0.5638 -0.3619
  644MOL0     C86864   7.126   7.927   6.554  0.0738 -0.5405  0.8058
  644MOL0     C86865   7.104   8.082   6.575  0.3874 -0.5186 -0.0676
  644MOL0     C86866   7.044   8.122   6.712  1.0966  0.0690 -0.6014
  644MOL0     C86867   6.893   8.082   6.738  0.4390 -0.1447  0.6633
  644MOL0     C86868   6.819   8.206   6.737  0.3496  0.4340 -0.7782
  644MOL0     C86869   6.754   8.312   6.722  1.4719 -0.2210  0.4832
  644MOL0     C86870   7.422   7.939   6.600  0.2424  0.1290  0.4433
  644MOL0     C86871   7.546   7.980   6.641  0.7184 -0.0511  0.2591
  644MOL0     C86872   7.625   8.032   6.526  1.2127 -0.4712  0.3718
  644MOL0     H86873   7.962   7.874   6.789  2.2411 -0.7613 -0.0679
  644MOL0     H86874   8.207   7.894   6.859 -3.0972 -1.5230  2.0796
  644MOL0     H86875   8.368   8.317   6.939 -0.9681 -0.9753 -2.2738
  644MOL0     H86876   8.314   8.230   7.071  1.3540  2.5554  0.8974
  644MOL0     H86877   8.557   8.119   7.067  1.3597 -0.2415 -1.0627
  644MOL0     H86878   8.528   8.277   7.134 -1.5515  1.7496 -1.6278
  644MOL0     H86879   8.592   8.372   6.894  0.8367 -0.1207 -2.7397
  644MOL0     H86880   8.662   8.213   6.873 -0.7257 -2.3583  2.1536
  644MOL0     H86881   8.775   8.230   7.107 -0.5417 -0.0406 -0.9288
  644MOL0     H86882   8.846   8.341   6.981 -0.2404  3.3001 -0.7256
  644MOL0     H86883   8.710   8.532   7.039 -1.1058  0.0183  0.5541
  644MOL0     H86884   8.667   8.467   7.186 -0.9785  2.6572 -0.5910
  644MOL0     H86885   8.893   8.413   7.250 -1.7683 -0.6839 -0.9876
  644MOL0     H86886   8.946   8.486   7.097 -0.7817 -0.2054  0.1087
  644MOL0     H86887   8.783   8.666   7.270  0.2546  1.7418 -1.9358
  644MOL0     H86888   8.886   8.705   7.148  0.5061  1.0640  1.1895
  644MOL0     H86889   8.993   8.764   7.339  1.5229  0.5160 -0.0898
  644MOL0     H86890   8.975   8.610   7.414  0.0302 -0.6695  0.0994
  644MOL0     H86891   9.200   8.454   7.384  1.2013  1.7844  2.5633
  644MOL0     H86892   9.530   8.535   7.210  0.6256 -1.3076 -0.3207
  644MOL0     H86893   9.539   8.582   7.375  0.4031 -2.1488  1.1106
  644MOL0     H86894   9.570   8.348   7.381  0.4685  1.3426 -0.8849
  644MOL0     H86895   9.399   8.384   7.438 -0.8163  1.8083  0.1751
  644MOL0     H86896   9.520   8.256   7.192 -0.1549 -0.7204  2.0708
  644MOL0     H86897   9.353   8.329   7.180 -0.1286 -0.0594 -2.4555
  644MOL0     H86898   9.459   8.119   7.391 -1.5540 -0.1584  0.2103
  644MOL0     H86899   9.369   8.075   7.245 -1.5232  0.8853 -1.9300
  644MOL0     H86900   9.197   8.162   7.133  1.5167 -1.5152  1.2787
  644MOL0     H86901   8.997   8.061   7.025 -1.9747  1.1611 -0.7091
  644MOL0     H86902   8.627   7.730   7.413  1.1594 -0.1989 -1.1495
  644MOL0     H86903   8.412   7.591   7.402 -1.8252  0.8270  0.1180
  644MOL0     H86904   8.157   7.743   7.294 -1.0021  0.0890  1.4729
  644MOL0     H86905   8.123   7.729   7.116 -1.6984 -0.5187  0.1615
  644MOL0     H86906   8.027   7.492   7.205  2.0893 -0.2577 -1.2512
  644MOL0     H86907   8.031   7.568   7.364 -0.6243  1.4744  0.3937
  644MOL0     H86908   7.855   7.725   7.309 -2.8344 -3.0252  1.1965
  644MOL0     H86909   7.914   7.735   7.143  2.3621  1.8576  1.5669
  644MOL0     H86910   7.765   7.500   7.279 -1.8935 -0.3112 -0.4848
  644MOL0     H86911   7.838   7.498   7.116  2.1730  0.5774  1.4090
  644MOL0     H86912   7.682   7.684   7.055 -2.0818 -0.4271 -0.7572
  644MOL0     H86913   7.636   7.697   7.228 -1.9067 -0.6263  0.2677
  644MOL0     H86914   7.596   7.465   7.034 -2.9491  1.0242 -1.9497
  644MOL0     H86915   7.549   7.465   7.208 -1.8313  2.2010  2.2641
  644MOL0     H86916   7.462   7.642   6.972  1.8131  0.1058  1.3807
  644MOL0     H86917   7.419   7.668   7.145  1.4106  0.1466 -0.6613
  644MOL0     H86918   7.336   7.422   6.989 -0.1257 -0.4243  1.0612
  644MOL0     H86919   7.268   7.483   7.143 -1.5291 -2.6657 -0.5307
  644MOL0     H86920   8.332   7.752   7.015 -0.5462 -1.5778 -0.4550
  644MOL0     H86921   8.551   7.871   7.018  2.0818  2.1915  1.9507
  644MOL0     H86922   8.848   7.979   7.427  1.3020 -2.1548  0.4290
  644MOL0     H86923   9.044   8.085   7.518 -3.0111 -1.6098  0.8347
  644MOL0     H86924   8.165   8.321   6.882  2.7145 -1.7941  2.2408
  644MOL0     H86925   7.930   8.306   6.829 -0.1244  1.0383  0.5954
  644MOL0     H86926   7.521   7.916   6.979 -4.5307  0.1041  0.9908
  644MOL0     H86927   7.288   7.813   6.874 -3.2202  3.7176  0.9972
  644MOL0     H86928   7.025   7.887   6.540 -0.2876  0.9495 -1.0943
  644MOL0     H86929   7.169   7.905   6.456 -0.4648  0.0821  0.4198
  644MOL0     H86930   7.050   8.125   6.491 -0.3562 -0.6020  0.3575
  644MOL0     H86931   7.202   8.129   6.569  0.4299 -0.6039 -0.0514
  644MOL0     H86932   7.060   8.228   6.735 -1.2785  0.6738 -1.4363
  644MOL0     H86933   7.110   8.080   6.788 -0.7449 -0.1840  0.9293
  644MOL0     H86934   6.862   8.020   6.653 -0.4102 -0.7587  1.4070
  644MOL0     H86935   6.870   8.027   6.830 -1.2268 -0.3608  0.1573
  644MOL0     H86936   6.696   8.401   6.728  0.2901 -1.0040  0.9500
  644MOL0     H86937   7.390   7.930   6.496  2.4082  2.3026 -0.4951
  644MOL0     H86938   7.688   7.955   6.480  1.4859  0.2611 -0.4977
  644MOL0     H86939   7.549   8.056   6.451  0.9785 -0.2784  0.6667
  644MOL0     H86940   7.679   8.121   6.559 -0.3564  0.7780 -0.2732
  645MOL0     O86941   0.246   8.885   7.176 -0.0504 -0.1056 -0.7686
  645MOL0     C86942   0.167   8.976   7.202 -0.8712 -0.0892 -0.3883
  645MOL0     O86943   0.177   9.057   7.301 -0.2187  0.3993  0.5882
  645MOL0     C86944   0.283   9.067   7.387  0.7210 -0.5959 -0.6753
  645MOL0     C86945   0.408   9.010   7.379 -0.3206 -0.0468 -0.6781
  645MOL0     C86946   0.509   9.037   7.475 -0.3573  0.0450 -0.1869
  645MOL0     C86947   0.478   9.119   7.584 -0.1250  0.0386  0.1270
  645MOL0     O86948   0.560   9.153   7.687 -0.4516  0.5068  0.1089
  645MOL0     C86949   0.701   9.128   7.683  0.6604  0.0518  0.2825
  645MOL0     C86950   0.781   9.195   7.805  0.1702 -0.5858 -0.4055
  645MOL0     C86951   0.931   9.202   7.797 -0.2091 -0.0795  0.7554
  645MOL0     C86952   0.978   9.302   7.692 -0.6968 -0.3045 -0.1703
  645MOL0     C86953   1.123   9.361   7.720 -0.0452  0.4400  0.3358
  645MOL0     C86954   1.118   9.488   7.793 -0.0611  0.6504  0.1889
  645MOL0     C86955   1.268   9.535   7.817  0.0910 -0.1455 -0.3503
  645MOL0     C86956   1.269   9.647   7.922 -0.8153  0.2580 -0.0628
  645MOL0     N86957   1.399   9.695   7.959 -0.1388  0.3311 -0.7104
  645MOL0     C86958   1.447   9.702   8.087 -0.0994  1.0726 -0.3098
  645MOL0     C86959   1.552   9.791   8.072  0.7975 -0.4392 -0.1015
  645MOL0     C86960   1.661   9.820   8.177 -0.0484 -0.8622 -0.6378
  645MOL0     C86961   1.780   9.728   8.156  1.4441  0.1426 -0.1481
  645MOL0     C86962   1.736   9.575   8.153 -0.2026 -0.2645 -0.5541
  645MOL0     C86963   1.852   9.501   8.183 -0.1079  0.4261  0.0063
  645MOL0     O86964   1.951   9.539   8.081 -0.2105 -0.6764  0.2429
  645MOL0     C86965   2.087   9.550   8.098  0.1044 -0.3960 -0.2598
  645MOL0     C86966   2.148   9.501   8.217  0.2449 -0.4031  0.4408
  645MOL0     C86967   2.282   9.507   8.223  0.3371  0.1385  0.2764
  645MOL0     C86968   2.368   9.561   8.120  0.6687 -1.1574 -0.8328
  645MOL0     C86969   2.517   9.560   8.127 -0.1896 -0.2453  0.3975
  645MOL0     O86970   2.591   9.633   8.040 -0.0456  0.1847  0.3390
  645MOL0     C86971   2.729   9.616   8.044 -0.3648  0.0177  0.1568
  645MOL0     C86972   2.785   9.498   8.003  0.7240  0.3002  0.0609
  645MOL0     C86973   2.924   9.478   7.996  0.6382 -0.0456 -0.0915
  645MOL0     C86974   3.012   9.587   8.029 -1.0395  0.4681 -1.1673
  645MOL0     O86975   3.149   9.572   8.039 -0.4732 -0.1721 -0.1922
  645MOL0     C86976   3.207   9.444   8.056  0.2173 -0.2326 -0.2887
  645MOL0     C86977   3.358   9.466   8.069 -0.0913  0.7298 -0.1604
  645MOL0     C86978   3.390   9.528   8.211 -0.1720 -0.9411 -0.7655
  645MOL0     C86979   3.509   9.632   8.209  0.5795  0.7434 -0.8221
  645MOL0     C86980   3.498   9.734   8.318 -0.0744 -0.1219 -0.6031
  645MOL0     C86981   3.632   9.808   8.333 -0.0676 -0.4632  0.2469
  645MOL0     C86982   3.671   9.895   8.214  1.0280  0.1113 -0.1019
  645MOL0     C86983   3.569  10.011   8.199  0.6733 -0.6428  0.0504
  645MOL0    Cl86984   3.662  10.128   8.112 -0.0371  0.3215  0.1193
  645MOL0     C86985   2.958   9.705   8.077 -0.1245 -0.3721 -0.8087
  645MOL0     C86986   2.814   9.716   8.089  0.0674  0.1974 -0.6466
  645MOL0     O86987   2.563   9.489   8.225 -0.5175 -0.4384  0.2941
  645MOL0     C86988   2.299   9.611   8.003  0.4486  0.2948  1.0362
  645MOL0     C86989   2.159   9.604   7.989 -0.1800 -0.4258 -0.4270
  645MOL0     N86990   1.558   9.832   7.945 -0.7713  0.4830  0.4688
  645MOL0     N86991   1.464   9.780   7.872  0.0729  0.0514 -0.2953
  645MOL0     C86992   0.347   9.175   7.587 -0.2005  0.0652 -0.4420
  645MOL0     C86993   0.248   9.147   7.498  0.7283  1.1381  0.4246
  645MOL0     C86994   0.056   8.996   7.103 -0.0667 -0.2367 -0.4661
  645MOL0     C86995  -0.082   9.023   7.148 -0.3272 -1.1424  0.4342
  645MOL0     C86996  -0.181   9.044   7.052 -0.2747  0.6350  0.1005
  645MOL0     C86997  -0.150   9.045   6.920  0.6608 -0.1610 -0.2202
  645MOL0     O86998  -0.251   9.063   6.831 -0.3808  0.7510 -0.2273
  645MOL0     C86999  -0.310   8.946   6.777 -0.2959 -0.6265  0.0963
  645MOL0     C87000  -0.435   8.910   6.861  0.3789  0.7196 -0.1493
  645MOL0     C87001  -0.499   8.781   6.808 -0.0327  0.3598 -0.6834
  645MOL0     C87002  -0.638   8.732   6.864  0.6162 -0.1708  0.8019
  645MOL0     C87003  -0.617   8.683   7.000 -0.1326  0.5040  0.5941
  645MOL0     C87004  -0.602   8.631   7.106  0.2002  0.0732 -0.1898
  645MOL0     C87005  -0.015   9.045   6.878 -0.3155 -0.4371  0.3341
  645MOL0     C87006   0.086   9.010   6.965 -0.2887  0.0836 -0.3587
  645MOL0     C87007   0.221   9.000   6.912  0.1359 -0.4485 -0.1193
  645MOL0     H87008   0.438   8.943   7.299 -0.2388 -0.1152 -0.5897
  645MOL0     H87009   0.600   8.978   7.465 -1.5923 -2.0297  0.1320
  645MOL0     H87010   0.719   9.022   7.666 -0.9096 -0.1964  0.0274
  645MOL0     H87011   0.734   9.181   7.593 -3.8072  0.4438 -1.4124
  645MOL0     H87012   0.753   9.129   7.887  2.1658 -1.3265 -0.2618
  645MOL0     H87013   0.742   9.296   7.819  0.9629 -0.3621  0.2119
  645MOL0     H87014   0.959   9.099   7.773 -3.9098 -0.9710 -0.3796
  645MOL0     H87015   0.976   9.231   7.893 -0.1601 -0.9082  0.9877
  645MOL0     H87016   0.965   9.249   7.597 -4.1544 -0.6640  0.3964
  645MOL0     H87017   0.908   9.386   7.683 -1.9440 -1.1517  1.1480
  645MOL0     H87018   1.188   9.294   7.777  1.3488  1.6507  0.2349
  645MOL0     H87019   1.170   9.371   7.621 -2.7389 -2.2457 -1.4032
  645MOL0     H87020   1.050   9.562   7.749 -1.3139 -1.1288 -0.9852
  645MOL0     H87021   1.077   9.459   7.890 -2.5851 -0.8569 -1.2178
  645MOL0     H87022   1.297   9.580   7.721 -0.5996 -0.6175 -0.7899
  645MOL0     H87023   1.321   9.451   7.862 -0.9833 -0.5389  0.2158
  645MOL0     H87024   1.220   9.734   7.877  2.0618  2.5177  0.8164
  645MOL0     H87025   1.219   9.623   8.016  2.7447 -1.8073  1.5113
  645MOL0     H87026   1.418   9.649   8.177  1.6123 -0.1741 -0.4370
  645MOL0     H87027   1.698   9.923   8.172 -0.0208 -0.8072  0.5810
  645MOL0     H87028   1.623   9.809   8.279  0.0892 -1.8444 -0.6826
  645MOL0     H87029   1.814   9.761   8.057 -2.3235  0.7919 -1.4068
  645MOL0     H87030   1.848   9.746   8.239  0.9949  1.0730  0.0350
  645MOL0     H87031   1.707   9.549   8.050 -0.4416 -0.4432 -0.4441
  645MOL0     H87032   1.662   9.545   8.228  2.2098 -2.0493  1.2603
  645MOL0     H87033   1.834   9.394   8.192 -1.3509  0.5773 -0.4038
  645MOL0     H87034   1.885   9.526   8.284  1.6273  0.3725 -0.5227
  645MOL0     H87035   2.087   9.464   8.299  0.7492 -2.1116  0.0828
  645MOL0     H87036   2.329   9.470   8.313 -0.4440  0.2263  0.7324
  645MOL0     H87037   2.717   9.417   7.979  2.1760 -1.7667  2.4470
  645MOL0     H87038   2.974   9.387   7.966  1.6756  0.6941 -0.6446
  645MOL0     H87039   3.167   9.390   8.143 -1.6988  0.5209 -0.6495
  645MOL0     H87040   3.193   9.394   7.960  0.1042 -0.3237 -0.2263
  645MOL0     H87041   3.405   9.369   8.047 -4.2009 -1.1901 -1.6130
  645MOL0     H87042   3.390   9.528   7.985  1.0445 -0.3877 -0.5865
  645MOL0     H87043   3.299   9.586   8.227 -2.0534 -3.7034 -0.8204
  645MOL0     H87044   3.397   9.466   8.300 -2.7185  0.5069  0.5382
  645MOL0     H87045   3.508   9.686   8.114  2.1421 -1.5598 -2.2409
  645MOL0     H87046   3.598   9.572   8.229 -0.0116  0.9942  3.5806
  645MOL0     H87047   3.492   9.674   8.409 -2.1815  3.3004  1.7634
  645MOL0     H87048   3.409   9.796   8.304  0.2702  0.2250 -1.2687
  645MOL0     H87049   3.632   9.868   8.425 -0.4604 -1.4375  0.9001
  645MOL0     H87050   3.717   9.739   8.339  0.1853 -0.1960 -0.1696
  645MOL0     H87051   3.662   9.834   8.124 -0.4500  0.1943 -0.0474
  645MOL0     H87052   3.772   9.932   8.229  0.5365  1.8231 -0.7927
  645MOL0     H87053   3.479   9.984   8.145  0.4246 -1.2193  0.7356
  645MOL0     H87054   3.526  10.049   8.292  1.4897 -2.5992  1.2888
  645MOL0     H87055   3.031   9.779   8.108 -2.1157  2.1105 -1.6679
  645MOL0     H87056   2.775   9.813   8.119 -1.8987 -0.0149 -2.2947
  645MOL0     H87057   2.358   9.645   7.918  1.1610 -2.1530  0.4700
  645MOL0     H87058   2.104   9.650   7.908  0.0763  2.6551  1.0200
  645MOL0     H87059   0.325   9.237   7.673  4.3609  0.6378  0.5688
  645MOL0     H87060   0.158   9.208   7.498 -0.4093 -0.4577  1.0122
  645MOL0     H87061  -0.111   9.016   7.252 -2.2884 -0.1727 -0.0139
  645MOL0     H87062  -0.285   9.063   7.076  0.0895  1.5245  1.0294
  645MOL0     H87063  -0.249   8.857   6.761  2.5839  0.9073  1.6614
  645MOL0     H87064  -0.335   8.973   6.674 -1.8688  0.8933  0.8251
  645MOL0     H87065  -0.504   8.994   6.857  1.3659  1.5472 -0.3522
  645MOL0     H87066  -0.407   8.897   6.967  1.7988  0.2852 -0.5484
  645MOL0     H87067  -0.423   8.706   6.829  1.2024  1.5803 -0.6463
  645MOL0     H87068  -0.509   8.790   6.699 -4.0788  2.2138 -0.3661
  645MOL0     H87069  -0.705   8.819   6.862 -0.1262 -0.7385 -0.4238
  645MOL0     H87070  -0.674   8.659   6.791  1.6494  1.9066 -1.9762
  645MOL0     H87071  -0.599   8.579   7.200 -1.2224  1.6120  0.7573
  645MOL0     H87072   0.012   9.067   6.776 -0.3921  1.2445  0.6576
  645MOL0     H87073   0.221   9.013   6.803  3.0901  0.2828 -0.1303
  645MOL0     H87074   0.298   9.069   6.948 -1.7447  1.2474  0.8086
  645MOL0     H87075   0.262   8.898   6.916  0.6261 -0.2563 -0.1335
  646MOL0     O87076   9.935  10.641   1.504 -0.0930 -0.0617  0.3799
  646MOL0     C87077   9.901  10.535   1.560  0.3560  0.0879  0.0900
  646MOL0     O87078   9.956  10.493   1.680 -0.8513 -0.1988 -0.0399
  646MOL0     C87079  10.077  10.554   1.709  0.3528 -0.0831 -0.0942
  646MOL0     C87080  10.076  10.656   1.812 -0.0512 -0.0206  0.4587
  646MOL0     C87081  10.188  10.708   1.857 -0.0096 -0.0051  0.2955
  646MOL0     C87082  10.317  10.686   1.796  0.1790 -0.3014 -0.2223
  646MOL0     O87083  10.425  10.742   1.860  0.1014 -0.1299  0.3672
  646MOL0     C87084  10.534  10.778   1.783  0.2414 -0.1908  0.8021
  646MOL0     C87085  10.544  10.931   1.763 -0.5480 -0.5681  0.3176
  646MOL0     C87086  10.681  10.976   1.705 -0.0187  0.6132 -0.6024
  646MOL0     C87087  10.719  11.118   1.736  0.0118  0.2469  0.8865
  646MOL0     C87088  10.843  11.166   1.669 -0.4032 -0.2580 -0.1978
  646MOL0     C87089  10.837  11.140   1.514  0.0921  0.5710  0.0309
  646MOL0     C87090  10.948  11.216   1.440  1.0780 -0.4775 -0.6269
  646MOL0     C87091  10.919  11.207   1.285  1.8544  0.4567  0.1210
  646MOL0     N87092  11.023  11.283   1.221  0.5138  0.2044 -0.1978
  646MOL0     C87093  11.121  11.243   1.133  0.4980  0.1634  0.5834
  646MOL0     C87094  11.187  11.349   1.108  0.2462 -0.7383 -0.1644
  646MOL0     C87095  11.319  11.362   1.018 -0.1914  0.3918 -0.0471
  646MOL0     C87096  11.418  11.405   1.118 -0.4381 -0.2662  0.0958
  646MOL0     C87097  11.563  11.375   1.062  0.4918  0.1556  0.0033
  646MOL0     C87098  11.659  11.450   1.145 -0.7079 -1.4115 -0.9747
  646MOL0     O87099  11.798  11.449   1.098 -0.3261 -0.4078 -0.4881
  646MOL0     C87100  11.890  11.533   1.171  0.1615 -0.3226 -0.3841
  646MOL0     C87101  11.870  11.591   1.300  0.2354 -0.5744  0.5477
  646MOL0     C87102  11.976  11.639   1.379 -0.0318  0.1599  0.6462
  646MOL0     C87103  12.109  11.620   1.347 -0.8352  0.0259 -0.6100
  646MOL0     C87104  12.225  11.680   1.428  0.8232 -0.1177  0.3343
  646MOL0     O87105  12.192  11.720   1.554 -0.1642 -0.4634 -0.4344
  646MOL0     C87106  12.296  11.774   1.621  0.1613 -0.6141 -0.6152
  646MOL0     C87107  12.345  11.901   1.591  0.2760  0.2486  0.9073
  646MOL0     C87108  12.446  11.960   1.660 -0.6138  0.0141 -0.3410
  646MOL0     C87109  12.510  11.882   1.761  0.3967  0.5945 -0.0382
  646MOL0     O87110  12.614  11.915   1.844  0.0275 -0.5699  0.1720
  646MOL0     C87111  12.681  12.043   1.844  0.1307 -0.2534  0.0601
  646MOL0     C87112  12.731  12.063   1.985 -0.0708  0.2069  0.8605
  646MOL0     C87113  12.861  11.966   2.005 -0.5496 -1.1212 -0.4509
  646MOL0     C87114  12.989  12.044   2.042 -0.4513  0.1874 -0.5495
  646MOL0     C87115  13.109  11.948   2.059 -0.5376  0.7976 -0.6347
  646MOL0     C87116  13.223  12.027   2.122  0.0639 -0.3804  0.4786
  646MOL0     C87117  13.363  11.950   2.125  0.6682 -0.0938 -0.5178
  646MOL0     C87118  13.368  11.886   2.260  0.7700 -0.0411  0.2187
  646MOL0    Cl87119  13.500  11.782   2.280  0.2469  0.3993  0.0246
  646MOL0     C87120  12.455  11.755   1.787  0.0283 -0.6923  0.8932
  646MOL0     C87121  12.341  11.705   1.729 -0.0796  0.7272  0.0785
  646MOL0     O87122  12.333  11.683   1.379 -0.3255  0.4429 -0.3230
  646MOL0     C87123  12.133  11.555   1.218 -0.2400  0.4215  1.1178
  646MOL0     C87124  12.026  11.526   1.128  0.5650  0.2848 -0.4244
  646MOL0     N87125  11.128  11.465   1.168  0.5828  0.5988  0.3989
  646MOL0     N87126  11.023  11.416   1.227  0.7864  0.7887  0.7048
  646MOL0     C87127  10.322  10.587   1.699  1.2083 -0.9693 -0.0878
  646MOL0     C87128  10.206  10.519   1.653  0.4137 -0.9293  0.0832
  646MOL0     C87129   9.771  10.489   1.509 -0.4540  0.4239 -1.1592
  646MOL0     C87130   9.650  10.554   1.531 -0.1096  0.6674  0.6294
  646MOL0     C87131   9.528  10.498   1.493  1.0228 -0.9763 -0.4266
  646MOL0     C87132   9.523  10.377   1.424 -0.1786  0.1991  0.4311
  646MOL0     O87133   9.403  10.316   1.396  0.2381 -0.3428 -0.3250
  646MOL0     C87134   9.285  10.394   1.401  0.2056  0.3707 -0.3706
  646MOL0     C87135   9.153  10.312   1.375  0.1157 -0.1507 -0.0209
  646MOL0     C87136   9.122  10.233   1.506 -0.1205 -0.0519  0.3041
  646MOL0     C87137   8.989  10.151   1.508 -0.2543 -0.3492 -0.2562
  646MOL0     C87138   8.874  10.246   1.482  0.0967  0.2672 -0.5166
  646MOL0     C87139   8.780  10.316   1.444 -0.6659 -0.6359  0.4705
  646MOL0     C87140   9.645  10.323   1.375  0.1118  0.7723 -0.1066
  646MOL0     C87141   9.766  10.373   1.420 -0.3829  0.3861 -0.4633
  646MOL0     C87142   9.892  10.309   1.379 -0.1044  0.1579  0.0174
  646MOL0     H87143   9.973  10.667   1.845 -0.7021 -0.7409 -1.2043
  646MOL0     H87144  10.175  10.787   1.931 -1.1686 -0.6228  0.7803
  646MOL0     H87145  10.618  10.730   1.833  2.6779 -1.6238 -4.0311
  646MOL0     H87146  10.536  10.734   1.683 -0.7732 -0.8928  1.0782
  646MOL0     H87147  10.530  10.977   1.862 -0.4817  1.6713 -0.6397
  646MOL0     H87148  10.455  10.968   1.712  0.2579  0.6904 -0.2334
  646MOL0     H87149  10.679  10.967   1.596  0.0919 -0.5390 -0.5272
  646MOL0     H87150  10.753  10.915   1.761 -0.8249 -0.2472 -0.4626
  646MOL0     H87151  10.638  11.179   1.692 -0.3119  0.6923  2.0721
  646MOL0     H87152  10.726  11.130   1.844  0.6659 -2.5870  1.2221
  646MOL0     H87153  10.847  11.274   1.688  0.2924 -0.2694 -0.2666
  646MOL0     H87154  10.931  11.115   1.708  1.4383  1.3416 -2.0280
  646MOL0     H87155  10.856  11.035   1.492  1.4484  0.1842  2.6302
  646MOL0     H87156  10.741  11.177   1.476 -0.7606 -1.6785 -0.1307
  646MOL0     H87157  11.045  11.169   1.454  1.7556  1.3889  1.4091
  646MOL0     H87158  10.944  11.321   1.471  2.0082 -0.2734 -1.1596
  646MOL0     H87159  10.914  11.100   1.263 -0.4751  0.1282  1.8139
  646MOL0     H87160  10.827  11.260   1.259  1.6656 -0.3468 -0.8863
  646MOL0     H87161  11.152  11.150   1.087  0.8148  1.1240 -1.2291
  646MOL0     H87162  11.349  11.267   0.973  0.9148 -0.9268  3.1733
  646MOL0     H87163  11.316  11.441   0.943  0.5696  1.8127  1.3472
  646MOL0     H87164  11.413  11.511   1.146  2.6769  0.3153 -1.0093
  646MOL0     H87165  11.405  11.341   1.205  0.1011 -2.4121 -1.3146
  646MOL0     H87166  11.586  11.402   0.958 -2.7393  3.0832 -0.1026
  646MOL0     H87167  11.586  11.269   1.077 -0.4396 -0.1429 -0.5581
  646MOL0     H87168  11.658  11.427   1.252 -0.9530 -0.0673 -0.6724
  646MOL0     H87169  11.633  11.555   1.135 -1.0753 -1.5815 -1.9308
  646MOL0     H87170  11.770  11.596   1.341 -0.0231 -0.7869 -0.0407
  646MOL0     H87171  11.949  11.692   1.469 -0.7613  0.3598  0.3197
  646MOL0     H87172  12.292  11.962   1.519  1.2884  0.8652  0.6726
  646MOL0     H87173  12.470  12.064   1.637 -0.3788 -0.5748 -3.0548
  646MOL0     H87174  12.769  12.049   1.779 -1.9289  1.7125 -2.8145
  646MOL0     H87175  12.616  12.123   1.807 -0.6813 -1.5115 -1.3704
  646MOL0     H87176  12.758  12.169   1.986 -3.4282  1.4239 -4.0184
  646MOL0     H87177  12.643  12.040   2.046 -1.5536  0.0835 -1.2534
  646MOL0     H87178  12.854  11.893   2.087  0.0945  1.0040  1.5950
  646MOL0     H87179  12.886  11.925   1.907  0.6914  1.5439 -1.3163
  646MOL0     H87180  12.966  12.103   2.131 -1.7546 -0.1631 -0.6317
  646MOL0     H87181  13.001  12.114   1.959 -1.7166  1.2237  0.0946
  646MOL0     H87182  13.142  11.904   1.965 -0.0269  1.5199 -0.8036
  646MOL0     H87183  13.092  11.859   2.120  2.6784  0.0053 -0.7246
  646MOL0     H87184  13.248  12.116   2.064  0.5570  0.0526  1.3380
  646MOL0     H87185  13.197  12.046   2.226  0.0431  0.3113  0.3492
  646MOL0     H87186  13.446  12.016   2.096  2.4228 -3.1357 -3.1117
  646MOL0     H87187  13.342  11.873   2.050 -1.5227  1.9300 -2.1607
  646MOL0     H87188  13.390  11.967   2.330  1.9939 -1.2542  1.3151
  646MOL0     H87189  13.278  11.826   2.279  1.8942 -2.1638 -0.7197
  646MOL0     H87190  12.508  11.689   1.856  3.7395  1.0175 -0.0460
  646MOL0     H87191  12.306  11.608   1.763 -1.1104  0.4353 -1.7141
  646MOL0     H87192  12.235  11.542   1.184 -0.6890 -0.4234  0.0155
  646MOL0     H87193  12.043  11.465   1.040 -0.3865 -0.6274 -0.0102
  646MOL0     H87194  10.416  10.554   1.655  2.2489 -0.2463  1.4816
  646MOL0     H87195  10.211  10.442   1.577 -0.2149 -1.1605  0.2741
  646MOL0     H87196   9.642  10.643   1.593  1.1564  1.4228 -0.2269
  646MOL0     H87197   9.439  10.557   1.512  1.9453  1.0469 -2.0837
  646MOL0     H87198   9.279  10.471   1.325 -3.2108 -0.2194 -0.8443
  646MOL0     H87199   9.275  10.436   1.502 -1.6763  1.0561 -0.8054
  646MOL0     H87200   9.156  10.252   1.284 -0.9101  0.1492 -0.2730
  646MOL0     H87201   9.076  10.388   1.355  0.8646  1.2791  2.1579
  646MOL0     H87202   9.124  10.306   1.587  0.8287 -0.8224  1.0080
  646MOL0     H87203   9.207  10.164   1.513 -1.7242 -2.3052 -0.9814
  646MOL0     H87204   8.978  10.066   1.441 -0.2033 -2.3740  2.1417
  646MOL0     H87205   8.973  10.107   1.607  0.5252  0.4197  0.2281
  646MOL0     H87206   8.702  10.380   1.406 -0.0786 -1.8731 -3.2614
  646MOL0     H87207   9.652  10.234   1.314  2.2498  0.3454  0.6895
  646MOL0     H87208   9.886  10.200   1.390 -0.2852  0.4352  3.6832
  646MOL0     H87209   9.914  10.348   1.279 -3.2488  0.1023 -0.8058
  646MOL0     H87210   9.972  10.333   1.449 -1.4339  0.8778  1.3332
  647MOL0     O87211  10.453  10.212   3.570  1.1245  0.3570  0.5516
  647MOL0     C87212  10.558  10.155   3.609  0.4869 -0.7336 -0.0068
  647MOL0     O87213  10.687  10.202   3.592 -0.4961 -0.2185  0.2308
  647MOL0     C87214  10.714  10.324   3.531  0.5577 -0.1635 -0.2141
  647MOL0     C87215  10.840  10.358   3.553  0.4680  0.6403  0.1112
  647MOL0     C87216  10.892  10.474   3.500 -0.1734 -0.0813  1.2174
  647MOL0     C87217  10.808  10.553   3.421 -0.4496 -0.8198 -0.7012
  647MOL0     O87218  10.849  10.667   3.368 -0.3099 -0.3728 -0.4900
  647MOL0     C87219  10.849  10.774   3.463  0.0631 -0.5799 -0.6515
  647MOL0     C87220  10.887  10.902   3.381  0.1784  0.9629  0.3200
  647MOL0     C87221  11.040  10.898   3.358  0.6514  0.2316  0.6431
  647MOL0     C87222  11.090  11.016   3.269 -0.0061  0.6344  0.3206
  647MOL0     C87223  11.066  10.988   3.115  0.0510 -0.5465  0.5133
  647MOL0     C87224  11.099  11.113   3.019 -0.1596  0.2755 -0.8805
  647MOL0     C87225  11.253  11.135   3.002  0.6512  0.3401 -0.9907
  647MOL0     C87226  11.323  11.008   2.945 -0.0389 -0.3543  0.1828
  647MOL0     N87227  11.455  11.061   2.898  0.1008  0.1316  0.5376
  647MOL0     C87228  11.482  11.122   2.779 -0.5756  0.1541 -0.8487
  647MOL0     C87229  11.618  11.124   2.784 -0.2734  0.4388 -1.3016
  647MOL0     C87230  11.705  11.178   2.688 -0.4306  0.2919  0.3712
  647MOL0     C87231  11.766  11.054   2.618  0.2349 -0.7788  0.3663
  647MOL0     C87232  11.867  11.089   2.515 -0.1755  0.1656  0.7236
  647MOL0     C87233  11.929  10.964   2.444  0.6065  1.0096 -0.2710
  647MOL0     O87234  11.986  10.991   2.320  0.6200  0.0065 -0.4596
  647MOL0     C87235  12.124  11.020   2.321  0.0481 -0.5737  0.9983
  647MOL0     C87236  12.196  11.060   2.429 -0.6936 -0.3612 -0.6049
  647MOL0     C87237  12.342  11.092   2.410 -0.2521  0.2906 -0.8723
  647MOL0     C87238  12.404  11.082   2.287  0.8016  0.0521 -0.2990
  647MOL0     C87239  12.544  11.093   2.257 -0.3018 -0.6126 -0.5327
  647MOL0     O87240  12.627  11.132   2.364  0.3640 -0.5570  0.4770
  647MOL0     C87241  12.753  11.182   2.357  0.2259 -0.1406  1.3140
  647MOL0     C87242  12.808  11.230   2.476 -0.4633  0.7964 -0.2503
  647MOL0     C87243  12.947  11.260   2.488  0.3423 -0.2298  0.2724
  647MOL0     C87244  13.027  11.251   2.373  0.0962 -0.8157 -0.7241
  647MOL0     O87245  13.161  11.289   2.372 -1.0553  0.2641  0.2022
  647MOL0     C87246  13.259  11.194   2.318  1.1090 -0.5984  0.3306
  647MOL0     C87247  13.397  11.219   2.368  0.0852  0.6009  0.3264
  647MOL0     C87248  13.419  11.280   2.504  0.0178  0.3118 -0.0379
  647MOL0     C87249  13.355  11.205   2.619  0.1837 -0.0797  0.5325
  647MOL0     C87250  13.384  11.279   2.750 -0.4465  1.1037 -0.5040
  647MOL0     C87251  13.299  11.208   2.860 -0.1774  0.5392  0.2084
  647MOL0     C87252  13.286  11.304   2.981 -0.0498 -0.0869 -0.2066
  647MOL0     C87253  13.413  11.330   3.055 -0.3197  0.5643  0.7234
  647MOL0    Cl87254  13.375  11.417   3.201  0.1486 -0.4829 -0.1184
  647MOL0     C87255  12.974  11.206   2.257 -0.7264  0.3081  0.4943
  647MOL0     C87256  12.843  11.171   2.253 -0.4623 -0.3645 -0.2065
  647MOL0     O87257  12.580  11.087   2.136 -0.3630 -0.2293 -0.0058
  647MOL0     C87258  12.325  11.027   2.184 -0.6284 -0.1203 -0.4459
  647MOL0     C87259  12.189  11.003   2.201  0.3335 -0.6335 -0.5785
  647MOL0     N87260  11.671  11.075   2.904 -0.3530  0.4178  0.0675
  647MOL0     N87261  11.566  11.031   2.971 -0.2087  0.1771 -0.4969
  647MOL0     C87262  10.672  10.519   3.396 -0.1189 -0.5004 -0.1835
  647MOL0     C87263  10.622  10.400   3.451  0.3575 -0.4280 -0.0337
  647MOL0     C87264  10.542  10.035   3.694 -0.5609 -0.6254 -0.1954
  647MOL0     C87265  10.635  10.008   3.797  0.8343 -0.4755 -0.3576
  647MOL0     C87266  10.630   9.895   3.878 -0.0380 -0.5610  0.1359
  647MOL0     C87267  10.522   9.809   3.855 -0.7944  0.7559 -0.4071
  647MOL0     O87268  10.506   9.698   3.941 -0.5117  0.3551  0.0173
  647MOL0     C87269  10.423   9.588   3.917 -0.2209  0.0862  0.1860
  647MOL0     C87270  10.480   9.492   3.816 -0.0589  0.8063  1.4951
  647MOL0     C87271  10.615   9.432   3.857  0.0948 -0.4735 -0.4648
  647MOL0     C87272  10.647   9.306   3.782 -0.0253  0.6839  0.1187
  647MOL0     C87273  10.793   9.301   3.763 -0.5556 -0.9168 -0.1537
  647MOL0     C87274  10.915   9.304   3.756  0.5245 -0.2682 -0.1553
  647MOL0     C87275  10.423   9.831   3.759  0.6724 -0.3476  0.2413
  647MOL0     C87276  10.430   9.951   3.679  0.0180 -0.2469  0.3755
  647MOL0     C87277  10.321   9.966   3.573  0.6135  0.4061 -0.3507
  647MOL0     H87278  10.899  10.290   3.612 -1.5026 -1.5326 -0.2800
  647MOL0     H87279  10.996  10.494   3.524  1.5214 -0.8504 -4.1357
  647MOL0     H87280  10.754  10.780   3.517  0.8766  0.8430  0.6990
  647MOL0     H87281  10.920  10.761   3.544 -0.7435 -1.5300 -0.0773
  647MOL0     H87282  10.857  10.997   3.427 -0.3380  1.7368 -1.5096
  647MOL0     H87283  10.839  10.897   3.283  1.7820 -0.9497 -0.4448
  647MOL0     H87284  11.069  10.806   3.306  0.2702 -1.1525  2.7412
  647MOL0     H87285  11.087  10.906   3.456 -0.1379  1.8132  0.9269
  647MOL0     H87286  11.030  11.098   3.308 -1.9036  0.0935 -1.3223
  647MOL0     H87287  11.196  11.041   3.278  0.2454 -0.4781  0.6480
  647MOL0     H87288  11.123  10.902   3.078  1.2066  0.8532 -1.1420
  647MOL0     H87289  10.963  10.960   3.090  1.1428 -2.0415 -3.0061
  647MOL0     H87290  11.066  11.098   2.915  1.1622  1.2510 -1.4771
  647MOL0     H87291  11.047  11.202   3.054 -0.2818  0.5830 -1.8065
  647MOL0     H87292  11.290  11.161   3.101  0.4255  0.6932 -1.0002
  647MOL0     H87293  11.271  11.223   2.939  1.1761  1.1846  0.3106
  647MOL0     H87294  11.336  10.929   3.020  1.7515 -0.6571 -0.3893
  647MOL0     H87295  11.266  10.979   2.856  1.9809  3.8332 -2.8260
  647MOL0     H87296  11.422  11.163   2.699  1.8124  1.6328 -1.9694
  647MOL0     H87297  11.636  11.232   2.623  0.0764 -1.2509 -1.5385
  647MOL0     H87298  11.780  11.251   2.719  1.9626 -1.6396 -0.5173
  647MOL0     H87299  11.815  10.990   2.691  1.3737 -1.3655 -0.8697
  647MOL0     H87300  11.687  10.995   2.569  0.0710  1.7985 -2.7949
  647MOL0     H87301  11.937  11.156   2.567 -0.0728  0.0441  0.7439
  647MOL0     H87302  11.821  11.147   2.435 -0.0389  0.8210  1.1149
  647MOL0     H87303  11.845  10.899   2.418 -1.7821  3.5416  0.5358
  647MOL0     H87304  11.995  10.918   2.517 -0.2290  2.1768  1.2803
  647MOL0     H87305  12.161  11.062   2.532  3.5193  0.8055  1.0263
  647MOL0     H87306  12.388  11.119   2.504 -3.0168 -0.7087  0.8871
  647MOL0     H87307  12.736  11.237   2.557 -1.1821 -1.4749 -0.6101
  647MOL0     H87308  12.981  11.312   2.577 -0.0380  0.8570 -0.2000
  647MOL0     H87309  13.226  11.093   2.344 -1.2635 -0.4011 -1.5876
  647MOL0     H87310  13.262  11.202   2.209  1.4575  1.0596  0.4420
  647MOL0     H87311  13.445  11.124   2.391  0.7919  0.8568 -0.0532
  647MOL0     H87312  13.458  11.270   2.293 -0.3508  1.1271  0.3225
  647MOL0     H87313  13.525  11.295   2.526 -0.3510  4.2965 -0.2842
  647MOL0     H87314  13.381  11.382   2.495  1.0639  0.6874 -0.3857
  647MOL0     H87315  13.387  11.101   2.621  2.0071  0.4497  0.5015
  647MOL0     H87316  13.246  11.208   2.609  0.3982  0.5860 -2.2906
  647MOL0     H87317  13.335  11.377   2.748 -3.0493  0.0041  1.8611
  647MOL0     H87318  13.490  11.263   2.769 -0.7576 -0.3926  0.1823
  647MOL0     H87319  13.196  11.196   2.825 -0.7754  0.5711  1.8977
  647MOL0     H87320  13.348  11.111   2.876 -1.3306  0.1906  1.7988
  647MOL0     H87321  13.214  11.262   3.052  0.4401  1.0129  0.9614
  647MOL0     H87322  13.249  11.399   2.942  1.2251  1.2053  1.6269
  647MOL0     H87323  13.471  11.241   3.079  1.1125  1.6141  1.2517
  647MOL0     H87324  13.467  11.399   2.990  1.8957 -3.7954 -2.5939
  647MOL0     H87325  13.024  11.207   2.160 -0.9569  0.6059  0.3786
  647MOL0     H87326  12.807  11.133   2.157  0.1708  0.5626 -0.8292
  647MOL0     H87327  12.367  11.014   2.084 -0.0798 -0.8853 -0.1242
  647MOL0     H87328  12.132  10.955   2.122  2.1823 -1.7219 -1.3175
  647MOL0     H87329  10.619  10.584   3.327  3.1197  0.3950 -2.0440
  647MOL0     H87330  10.523  10.367   3.424 -0.4045  1.9652 -0.4048
  647MOL0     H87331  10.717  10.077   3.811  1.8322 -1.8307  0.7910
  647MOL0     H87332  10.703   9.881   3.957  0.9278 -2.1743 -0.9753
  647MOL0     H87333  10.320   9.613   3.889 -1.9694 -1.9555  3.9871
  647MOL0     H87334  10.397   9.530   4.006  0.6574  0.4000  0.6576
  647MOL0     H87335  10.501   9.533   3.717  1.1236 -2.3099  0.3262
  647MOL0     H87336  10.403   9.415   3.805 -0.8112  1.4953  1.7230
  647MOL0     H87337  10.607   9.417   3.965  1.2522  0.5228 -0.2114
  647MOL0     H87338  10.695   9.505   3.839 -2.0566  1.6165 -2.2210
  647MOL0     H87339  10.615   9.223   3.846  1.5964  1.5537  2.1608
  647MOL0     H87340  10.609   9.306   3.679  1.9938  3.6970 -0.7489
  647MOL0     H87341  11.022   9.312   3.754  0.6649 -1.7292  0.4368
  647MOL0     H87342  10.334   9.768   3.760  1.1844 -1.0983  1.0028
  647MOL0     H87343  10.364  10.002   3.479  0.1317  0.4186 -0.5742
  647MOL0     H87344  10.285   9.864   3.555  2.7460 -0.8170  1.7715
  647MOL0     H87345  10.238  10.032   3.603  0.8985  0.0557  1.3101
  648MOL0     O87346   6.523   3.901   9.427  1.3119 -0.3021  0.3118
  648MOL0     C87347   6.455   4.003   9.406 -0.9408 -1.2339 -0.8895
  648MOL0     O87348   6.516   4.123   9.383 -0.0889  0.3752  0.6465
  648MOL0     C87349   6.650   4.116   9.369 -0.1301  0.4368 -0.3177
  648MOL0     C87350   6.723   4.152   9.474 -0.4042 -0.1805  0.4375
  648MOL0     C87351   6.866   4.151   9.467  0.5801  0.6604 -0.2029
  648MOL0     C87352   6.929   4.113   9.345  0.0609 -0.5349  0.0870
  648MOL0     O87353   7.063   4.111   9.314 -0.0245 -0.5148  0.2312
  648MOL0     C87354   7.158   4.164   9.407 -0.0741  0.3041  1.0097
  648MOL0     C87355   7.291   4.117   9.358 -0.7203  0.0703  0.3438
  648MOL0     C87356   7.410   4.169   9.441 -0.7507 -0.2911  0.1665
  648MOL0     C87357   7.550   4.135   9.379  0.5805 -0.4895  1.0333
  648MOL0     C87358   7.670   4.190   9.467 -0.4510 -0.3495  0.4125
  648MOL0     C87359   7.687   4.113   9.597 -0.2348  0.2246 -0.6344
  648MOL0     C87360   7.823   4.125   9.658  0.0101  0.5757  0.1530
  648MOL0     C87361   7.844   4.048   9.803  0.2638  0.1068 -0.5560
  648MOL0     N87362   7.833   3.900   9.804  0.1947 -0.3857  0.4455
  648MOL0     C87363   7.730   3.819   9.853  0.1631  0.9010  0.3602
  648MOL0     C87364   7.755   3.694   9.809 -0.1593 -0.0378  0.1798
  648MOL0     C87365   7.676   3.568   9.813 -0.0084 -0.8701  0.2827
  648MOL0     C87366   7.707   3.492   9.943 -0.7057 -0.3720  0.4657
  648MOL0     C87367   7.858   3.455   9.980 -0.3801  0.7498  0.1042
  648MOL0     C87368   7.872   3.398  10.117  0.0230 -0.9199 -0.6403
  648MOL0     O87369   7.806   3.482  10.221 -0.4003  0.8560  0.5864
  648MOL0     C87370   7.831   3.475  10.356 -0.4819 -0.1402  0.0896
  648MOL0     C87371   7.728   3.506  10.448 -0.3960 -0.7267 -0.6698
  648MOL0     C87372   7.751   3.485  10.581 -0.4904  0.1185 -0.0085
  648MOL0     C87373   7.886   3.445  10.629  0.6239 -0.6075  0.2090
  648MOL0     C87374   7.904   3.430  10.776  0.1137 -0.6318 -0.0379
  648MOL0     O87375   8.032   3.434  10.809  0.1545  0.3550  1.0776
  648MOL0     C87376   8.056   3.436  10.941 -0.1312  0.4467 -0.5673
  648MOL0     C87377   8.106   3.555  10.996 -0.3684  0.7459  0.8570
  648MOL0     C87378   8.121   3.567  11.136 -0.4429 -0.5872  0.1010
  648MOL0     C87379   8.089   3.468  11.223  0.1086  0.3649  0.2353
  648MOL0     O87380   8.107   3.489  11.353 -0.2720 -0.2943 -0.7549
  648MOL0     C87381   8.197   3.404  11.417 -0.8741 -0.5489 -0.8541
  648MOL0     C87382   8.343   3.451  11.384  0.0062 -0.5150 -0.4581
  648MOL0     C87383   8.428   3.374  11.483 -0.8735  0.1239 -0.2631
  648MOL0     C87384   8.458   3.229  11.436 -0.7039  0.5670  0.3212
  648MOL0     C87385   8.544   3.158  11.544  0.4040  0.0036 -0.3827
  648MOL0     C87386   8.688   3.217  11.556 -0.1749 -0.8251  0.2501
  648MOL0     C87387   8.774   3.125  11.644 -0.6022 -1.0899  0.5304
  648MOL0     C87388   8.887   3.215  11.711  0.5831  0.5651  0.1783
  648MOL0    Cl87389   9.009   3.108  11.795  0.0526 -0.6810 -0.1032
  648MOL0     C87390   8.053   3.344  11.166 -0.0863  0.1717 -0.4000
  648MOL0     C87391   8.038   3.326  11.033 -0.0855  0.3088  0.8405
  648MOL0     O87392   7.809   3.426  10.859 -0.6771  0.3879 -0.1344
  648MOL0     C87393   7.992   3.436  10.537 -0.0189 -0.0912  0.4063
  648MOL0     C87394   7.965   3.440  10.400  0.2028 -0.0830 -0.4468
  648MOL0     N87395   7.884   3.699   9.749  0.0292  0.0961 -0.0277
  648MOL0     N87396   7.925   3.818   9.749  0.4615 -0.3829  0.7639
  648MOL0     C87397   6.849   4.082   9.234  0.1544  0.3963  0.6575
  648MOL0     C87398   6.710   4.085   9.248  0.5975 -0.8722  0.4575
  648MOL0     C87399   6.304   3.993   9.424 -0.6469  0.5039 -1.0294
  648MOL0     C87400   6.228   4.104   9.386  0.2340 -0.1223  0.1539
  648MOL0     C87401   6.092   4.118   9.394  0.5802  0.3361 -0.3942
  648MOL0     C87402   6.021   4.005   9.434 -0.1046 -0.0605  0.0639
  648MOL0     O87403   5.889   4.000   9.446  0.1716 -0.2988  0.0908
  648MOL0     C87404   5.809   4.098   9.392 -0.4025  0.4240 -0.0322
  648MOL0     C87405   5.664   4.046   9.399 -0.3768  0.4825  0.8654
  648MOL0     C87406   5.566   4.146   9.354 -0.4267  0.6101 -0.0575
  648MOL0     C87407   5.525   4.246   9.462 -0.1547 -1.1711  0.2568
  648MOL0     C87408   5.429   4.338   9.417 -0.2992 -0.4550 -0.0657
  648MOL0     C87409   5.342   4.412   9.368 -0.0679 -0.7625  0.3221
  648MOL0     C87410   6.093   3.885   9.468 -0.1936 -0.8482 -0.3719
  648MOL0     C87411   6.230   3.881   9.470 -0.2658 -0.0531  0.0588
  648MOL0     C87412   6.297   3.749   9.516  0.5552  0.6151  1.0538
  648MOL0     H87413   6.680   4.193   9.565 -2.3969  2.0854 -1.3894
  648MOL0     H87414   6.929   4.165   9.555 -0.6922 -0.7865  1.0019
  648MOL0     H87415   7.153   4.273   9.402  2.4838  0.5574  2.3477
  648MOL0     H87416   7.142   4.126   9.509 -1.5853 -0.4819  0.5202
  648MOL0     H87417   7.306   4.136   9.252  3.7456  1.5497  1.0107
  648MOL0     H87418   7.291   4.009   9.378  1.0217  0.0568  0.4070
  648MOL0     H87419   7.407   4.125   9.541 -0.7244 -2.8541 -0.8904
  648MOL0     H87420   7.417   4.278   9.450  0.5147 -0.4412  1.4129
  648MOL0     H87421   7.563   4.027   9.371 -0.7200 -0.6320  0.6515
  648MOL0     H87422   7.552   4.181   9.280  1.5827 -1.3743  0.6258
  648MOL0     H87423   7.761   4.188   9.407  0.7255 -4.1363  2.0278
  648MOL0     H87424   7.651   4.296   9.486 -2.5950 -0.8499  1.3263
  648MOL0     H87425   7.604   4.142   9.663  0.1793  1.0526 -0.4571
  648MOL0     H87426   7.677   4.008   9.571 -1.4485  0.0027  0.5675
  648MOL0     H87427   7.847   4.231   9.664  0.6344  0.3962  1.0812
  648MOL0     H87428   7.910   4.095   9.598 -2.2066  0.2829 -3.1758
  648MOL0     H87429   7.938   4.087   9.843 -0.9424  0.7414  1.8112
  648MOL0     H87430   7.774   4.094   9.873 -1.5898 -0.5905 -1.8661
  648MOL0     H87431   7.642   3.864   9.896 -0.9244 -1.2944  0.5449
  648MOL0     H87432   7.568   3.578   9.799  0.2880  0.1093 -1.7446
  648MOL0     H87433   7.710   3.506   9.729  0.8755  1.6538 -1.3304
  648MOL0     H87434   7.676   3.558  10.025 -0.6331 -1.1847  1.1642
  648MOL0     H87435   7.649   3.399   9.940 -1.4991  0.1528 -0.8860
  648MOL0     H87436   7.932   3.535   9.966  1.1102 -0.6495 -0.4023
  648MOL0     H87437   7.898   3.376   9.915  0.3347 -0.7574  2.2716
  648MOL0     H87438   7.979   3.399  10.141  0.0117  0.3527 -0.5872
  648MOL0     H87439   7.828   3.299  10.131  0.2973 -1.1260 -1.2295
  648MOL0     H87440   7.625   3.530  10.424 -0.1185  1.1385 -0.1727
  648MOL0     H87441   7.672   3.477  10.655  1.7496  0.9245  2.6425
  648MOL0     H87442   8.117   3.643  10.934 -1.0327  0.5274  0.4141
  648MOL0     H87443   8.144   3.669  11.165 -0.4768  0.3592 -2.8793
  648MOL0     H87444   8.182   3.411  11.525  1.4778 -1.3003 -0.4201
  648MOL0     H87445   8.180   3.303  11.380 -1.7338 -0.8703  0.3382
  648MOL0     H87446   8.374   3.418  11.285 -1.2941  0.9904 -1.4105
  648MOL0     H87447   8.354   3.560  11.385 -2.4984 -0.0573 -4.3936
  648MOL0     H87448   8.524   3.427  11.484 -0.9109  0.1829  0.7350
  648MOL0     H87449   8.388   3.362  11.584  1.4849 -0.1906  0.6944
  648MOL0     H87450   8.508   3.244  11.340 -3.1564 -2.2506 -1.5779
  648MOL0     H87451   8.371   3.172  11.403  1.1702 -0.9229 -2.4960
  648MOL0     H87452   8.563   3.056  11.511  0.6968 -0.1639  0.2908
  648MOL0     H87453   8.489   3.144  11.638  0.8284 -2.1265 -0.4051
  648MOL0     H87454   8.728   3.221  11.454 -0.5884  3.1412  0.1095
  648MOL0     H87455   8.692   3.319  11.595 -0.2462 -0.9758  0.6596
  648MOL0     H87456   8.822   3.051  11.579 -2.3441 -1.1304 -0.7642
  648MOL0     H87457   8.706   3.068  11.708 -0.6389 -0.0541  1.4295
  648MOL0     H87458   8.930   3.281  11.634  2.6606 -0.9077 -0.0223
  648MOL0     H87459   8.845   3.281  11.787 -1.1395 -2.2582  1.8442
  648MOL0     H87460   8.032   3.261  11.232  1.7415  0.4569  0.6149
  648MOL0     H87461   8.010   3.226  11.002  0.6455  0.0759  0.8967
  648MOL0     H87462   8.093   3.420  10.574  0.4714 -0.0483 -0.8543
  648MOL0     H87463   8.046   3.432  10.327 -1.0532 -1.8769 -1.7523
  648MOL0     H87464   6.898   4.058   9.141  0.9450  1.7450  0.6985
  648MOL0     H87465   6.647   4.062   9.163  1.3369  0.1456 -0.3796
  648MOL0     H87466   6.272   4.188   9.333  2.2366 -0.2946  1.4382
  648MOL0     H87467   6.038   4.208   9.368  2.9374  2.4366  1.4556
  648MOL0     H87468   5.833   4.126   9.289  0.4580  3.9700  0.9893
  648MOL0     H87469   5.814   4.188   9.454 -0.9283  1.5368 -1.5344
  648MOL0     H87470   5.645   4.014   9.502 -0.4658  0.0169  0.7075
  648MOL0     H87471   5.662   3.960   9.332  2.3841 -0.8308  2.2738
  648MOL0     H87472   5.477   4.083   9.339  1.5206 -2.5901  0.6793
  648MOL0     H87473   5.597   4.197   9.263  0.6790  1.3330  0.7051
  648MOL0     H87474   5.471   4.201   9.546  1.8474  3.0355  4.2132
  648MOL0     H87475   5.603   4.296   9.519 -1.1137 -2.6935  3.0801
  648MOL0     H87476   5.263   4.466   9.320  0.4021 -0.0916  0.2881
  648MOL0     H87477   6.030   3.800   9.494 -3.5292  0.8522 -2.2798
  648MOL0     H87478   6.224   3.676   9.553  1.2079 -1.6198 -1.7448
  648MOL0     H87479   6.356   3.700   9.438 -2.9473 -0.8027 -0.9438
  648MOL0     H87480   6.359   3.771   9.603 -1.3557  2.5738  2.0408
  649MOL0     O87481  10.553   4.078   0.256 -0.2351  0.4155  0.2790
  649MOL0     C87482  10.560   4.191   0.215 -0.0636  0.2828 -0.1362
  649MOL0     O87483  10.667   4.256   0.172 -0.0154  0.0751 -0.3328
  649MOL0     C87484  10.790   4.195   0.177  0.1948 -0.1933  0.5741
  649MOL0     C87485  10.810   4.089   0.083 -0.0947  0.7352 -0.2319
  649MOL0     C87486  10.939   4.036   0.071  0.5010  0.1099  0.0170
  649MOL0     C87487  11.037   4.063   0.162 -0.3636 -0.7958 -0.1883
  649MOL0     O87488  11.154   4.001   0.159 -0.7239 -0.0152 -0.3140
  649MOL0     C87489  11.207   3.913   0.055  0.2636  1.1722  0.2785
  649MOL0     C87490  11.356   3.890   0.101  0.3127  1.0591  0.2086
  649MOL0     C87491  11.439   3.842  -0.020 -0.6609 -0.5217  0.1105
  649MOL0     C87492  11.583   3.820   0.029 -0.1894  0.4682  0.1975
  649MOL0     C87493  11.658   3.749  -0.083  0.0101 -0.8560  0.2909
  649MOL0     C87494  11.790   3.686  -0.035 -0.5501  0.6911 -0.7378
  649MOL0     C87495  11.859   3.598  -0.142 -0.2005  0.4840  1.3865
  649MOL0     C87496  11.976   3.516  -0.084 -0.5160  0.6687 -0.5464
  649MOL0     N87497  12.053   3.436  -0.184  0.6882 -0.5798 -0.0013
  649MOL0     C87498  12.108   3.475  -0.308  0.7957 -0.0992  0.3998
  649MOL0     C87499  12.191   3.377  -0.346  0.5655 -0.3134 -0.2160
  649MOL0     C87500  12.272   3.392  -0.469  0.1500 -0.8221  0.0888
  649MOL0     C87501  12.423   3.356  -0.425 -0.0953  0.7353  0.1401
  649MOL0     C87502  12.520   3.392  -0.544 -0.4395  0.3635  0.3188
  649MOL0     C87503  12.522   3.267  -0.631 -0.0181  0.7714  0.0512
  649MOL0     O87504  12.597   3.312  -0.749  0.0697 -0.3218  0.1929
  649MOL0     C87505  12.732   3.311  -0.748  0.6953 -0.2213 -0.3394
  649MOL0     C87506  12.815   3.221  -0.671  0.2834  0.2343  0.5544
  649MOL0     C87507  12.952   3.223  -0.691  0.1401 -0.2892 -0.0820
  649MOL0     C87508  13.014   3.316  -0.774 -0.5372 -0.1840 -0.6138
  649MOL0     C87509  13.156   3.299  -0.800 -0.5688  0.5507  0.4404
  649MOL0     O87510  13.229   3.416  -0.813  0.5785  0.0530 -0.0120
  649MOL0     C87511  13.360   3.427  -0.859 -0.3351  0.1089  0.6454
  649MOL0     C87512  13.429   3.333  -0.943  0.7566 -0.4560  0.0705
  649MOL0     C87513  13.566   3.360  -0.973  0.4019  0.0225 -0.1478
  649MOL0     C87514  13.629   3.472  -0.917  0.2087 -0.1426 -1.1417
  649MOL0     O87515  13.769   3.459  -0.926  0.3089 -0.2919  0.5482
  649MOL0     C87516  13.846   3.584  -0.922 -0.5824  0.5263 -0.0107
  649MOL0     C87517  13.991   3.556  -0.950  0.0174 -0.7105 -0.8240
  649MOL0     C87518  14.023   3.485  -1.085  0.4038 -0.2020 -0.5846
  649MOL0     C87519  14.158   3.411  -1.057  0.6820  0.6592  0.4688
  649MOL0     C87520  14.220   3.390  -1.199  0.8505  0.3648  0.1300
  649MOL0     C87521  14.162   3.272  -1.278  0.5989 -0.1313  0.1712
  649MOL0     C87522  14.210   3.282  -1.422 -0.7216 -0.4856 -0.4781
  649MOL0     C87523  14.181   3.153  -1.490  0.8357 -0.2345 -0.4023
  649MOL0    Cl87524  14.272   3.130  -1.633  0.7081 -0.1144  0.0292
  649MOL0     C87525  13.560   3.558  -0.830 -0.7441 -0.0314  0.2568
  649MOL0     C87526  13.422   3.535  -0.809 -0.1986 -0.3405 -0.4971
  649MOL0     O87527  13.195   3.183  -0.813  0.3953 -0.0704 -0.1129
  649MOL0     C87528  12.936   3.414  -0.840 -0.6132 -0.2214  0.0553
  649MOL0     C87529  12.794   3.412  -0.821 -0.7584  0.4134 -0.3545
  649MOL0     N87530  12.197   3.280  -0.243 -0.1821 -0.3620 -0.7322
  649MOL0     N87531  12.123   3.324  -0.146  0.5083  0.3969  0.0245
  649MOL0     C87532  11.011   4.154   0.268  0.4184 -0.1899 -0.8464
  649MOL0     C87533  10.888   4.223   0.272  0.1583 -0.1999 -0.9701
  649MOL0     C87534  10.437   4.264   0.209  0.7783  0.2655  0.2933
  649MOL0     C87535  10.429   4.391   0.264  0.4648  1.1825  0.4075
  649MOL0     C87536  10.305   4.458   0.266 -0.1345 -0.3996 -0.1698
  649MOL0     C87537  10.188   4.396   0.236 -0.1443  0.2855 -0.0633
  649MOL0     O87538  10.071   4.467   0.255 -0.4388 -0.0021  0.0288
  649MOL0     C87539   9.946   4.394   0.272 -0.8531  0.1752 -0.7583
  649MOL0     C87540   9.855   4.439   0.170  0.1969  0.0750 -0.0702
  649MOL0     C87541   9.883   4.408   0.027  0.2795  0.0951  0.2091
  649MOL0     C87542   9.765   4.461  -0.064 -0.9301  0.2360 -0.4841
  649MOL0     C87543   9.820   4.525  -0.186  0.6627 -0.1871 -0.5503
  649MOL0     C87544   9.866   4.583  -0.285 -0.1412 -0.6777 -0.5938
  649MOL0     C87545  10.196   4.272   0.173 -0.1378  0.6638 -1.2734
  649MOL0     C87546  10.316   4.198   0.162  0.0544 -0.0962  0.5492
  649MOL0     C87547  10.305   4.061   0.092 -0.3434  0.4408  0.5721
  649MOL0     H87548  10.729   4.063   0.015  0.2544 -2.1464  0.3470
  649MOL0     H87549  10.950   3.957  -0.003  0.4766 -1.0732  1.2407
  649MOL0     H87550  11.144   3.824   0.060  0.8163  0.7800  0.4278
  649MOL0     H87551  11.202   3.960  -0.043  3.2260 -0.9940 -1.0824
  649MOL0     H87552  11.355   3.818   0.183  0.7607 -0.7810 -1.3208
  649MOL0     H87553  11.408   3.977   0.141  2.9937 -0.8370  1.1396
  649MOL0     H87554  11.454   3.921  -0.094  0.4462 -0.3809  0.4618
  649MOL0     H87555  11.400   3.753  -0.069 -3.6416  0.1638  1.0398
  649MOL0     H87556  11.630   3.910   0.068 -1.5752  0.5768  1.7251
  649MOL0     H87557  11.582   3.741   0.105  0.3614 -1.0131 -1.2491
  649MOL0     H87558  11.599   3.671  -0.134 -2.2132  1.0655 -0.2509
  649MOL0     H87559  11.678   3.829  -0.155 -1.0917  0.9239  1.8997
  649MOL0     H87560  11.853   3.772  -0.012 -0.5824  1.3505 -2.8890
  649MOL0     H87561  11.767   3.623   0.052 -1.3809 -0.1293 -1.5138
  649MOL0     H87562  11.908   3.663  -0.214  1.6414 -0.2257  1.9170
  649MOL0     H87563  11.786   3.525  -0.178  1.1952 -1.3655  2.0718
  649MOL0     H87564  12.034   3.587  -0.025 -0.8306  0.3494  0.1641
  649MOL0     H87565  11.924   3.449  -0.015 -0.9922  0.5519 -1.0042
  649MOL0     H87566  12.095   3.573  -0.353 -0.7427 -1.1859 -1.6895
  649MOL0     H87567  12.230   3.330  -0.549 -0.0051  0.4827 -0.8865
  649MOL0     H87568  12.267   3.500  -0.486 -1.8106 -0.8670  0.1540
  649MOL0     H87569  12.449   3.419  -0.340 -0.1356  2.3201 -0.9670
  649MOL0     H87570  12.423   3.249  -0.406 -4.5208  0.6961  1.0821
  649MOL0     H87571  12.621   3.414  -0.508 -0.1676 -0.6625  0.2159
  649MOL0     H87572  12.479   3.480  -0.594 -0.2260  1.4198  1.9385
  649MOL0     H87573  12.420   3.236  -0.657  0.9625 -1.9721 -0.9206
  649MOL0     H87574  12.568   3.180  -0.584 -0.3604  1.7654  2.3291
  649MOL0     H87575  12.772   3.141  -0.611 -3.6244 -0.7822 -3.1194
  649MOL0     H87576  13.006   3.141  -0.644 -1.4920 -1.4396 -0.1370
  649MOL0     H87577  13.385   3.241  -0.981 -1.2751  0.7092 -0.5790
  649MOL0     H87578  13.623   3.289  -1.033 -1.5656 -1.6889 -0.1331
  649MOL0     H87579  13.807   3.655  -0.996  1.1437  0.5840 -0.9004
  649MOL0     H87580  13.837   3.633  -0.824  1.9587  3.2137 -0.9596
  649MOL0     H87581  14.046   3.649  -0.934 -0.8383 -0.8477  5.4156
  649MOL0     H87582  14.006   3.493  -0.862 -1.2599 -0.9364 -0.7461
  649MOL0     H87583  13.944   3.417  -1.118 -1.7085  1.6815  0.3320
  649MOL0     H87584  14.036   3.553  -1.169 -1.7132  0.5182 -0.4021
  649MOL0     H87585  14.144   3.316  -1.003 -1.7216  1.4909  1.4354
  649MOL0     H87586  14.218   3.468  -0.986 -1.0854  0.7021  2.0072
  649MOL0     H87587  14.328   3.373  -1.185  0.9237  1.3162  0.8322
  649MOL0     H87588  14.211   3.481  -1.259 -1.9342 -0.9338 -1.5824
  649MOL0     H87589  14.203   3.182  -1.232  2.8498  0.5763 -0.3342
  649MOL0     H87590  14.053   3.282  -1.280  0.8091  3.5645 -0.7791
  649MOL0     H87591  14.316   3.309  -1.431 -0.3172 -2.5603 -3.6712
  649MOL0     H87592  14.152   3.366  -1.461 -1.4123  0.2961  2.0268
  649MOL0     H87593  14.213   3.072  -1.424  1.0717  1.0693  1.1432
  649MOL0     H87594  14.076   3.140  -1.521  1.4768 -3.0669 -1.6952
  649MOL0     H87595  13.604   3.644  -0.780  2.6829 -0.7197 -1.2753
  649MOL0     H87596  13.382   3.601  -0.734 -0.1124  0.8561 -1.4696
  649MOL0     H87597  12.982   3.499  -0.889 -0.5725  1.3170  2.5789
  649MOL0     H87598  12.746   3.495  -0.872  1.0409  0.8580 -1.4040
  649MOL0     H87599  11.088   4.168   0.343  0.3232 -2.3844 -0.2822
  649MOL0     H87600  10.866   4.290   0.354 -1.4603  0.3173 -1.7981
  649MOL0     H87601  10.518   4.445   0.294 -0.7131  2.4977  1.7345
  649MOL0     H87602  10.311   4.561   0.300 -1.3309 -1.4229  3.6557
  649MOL0     H87603   9.902   4.418   0.369  0.8340  2.4151 -0.4554
  649MOL0     H87604   9.957   4.286   0.279  0.4248  0.2454 -1.3553
  649MOL0     H87605   9.857   4.548   0.182  0.7568 -0.0217  0.8788
  649MOL0     H87606   9.764   4.384   0.196  0.4827 -0.7690 -0.8179
  649MOL0     H87607   9.902   4.303   0.004  0.6072 -0.0601  1.1336
  649MOL0     H87608   9.977   4.453  -0.003  0.5239 -0.3095  0.3591
  649MOL0     H87609   9.687   4.386  -0.082 -0.7180  0.1425 -1.0285
  649MOL0     H87610   9.713   4.536  -0.003  1.0590 -0.0557  1.7108
  649MOL0     H87611   9.896   4.641  -0.369 -0.1890 -1.2549 -1.0204
  649MOL0     H87612  10.106   4.221   0.141 -0.9873  0.3993  1.3441
  649MOL0     H87613  10.389   4.052   0.022 -0.9094 -0.9343  0.0438
  649MOL0     H87614  10.304   3.978   0.164 -0.5185 -1.2622 -1.3168
  649MOL0     H87615  10.221   4.063   0.022 -0.6921  1.6995  1.0008
  650MOL0     O87616   0.712  10.411  10.328  0.0103 -0.2752  0.4677
  650MOL0     C87617   0.622  10.469  10.396 -0.0447  0.3214 -0.8031
  650MOL0     O87618   0.645  10.541  10.504  0.1672  0.2427  0.1830
  650MOL0     C87619   0.774  10.538  10.542 -0.5885  0.1184 -0.4295
  650MOL0     C87620   0.823  10.469  10.655 -0.3801 -0.0873  0.7894
  650MOL0     C87621   0.959  10.493  10.702  0.9687  0.0982  0.3509
  650MOL0     C87622   1.041  10.576  10.631 -0.0568 -0.4189 -0.3301
  650MOL0     O87623   1.170  10.588  10.681  0.3371  0.4334  0.4189
  650MOL0     C87624   1.271  10.626  10.586 -0.1971 -0.6177  0.7167
  650MOL0     C87625   1.410  10.623  10.643  0.8744 -0.1691 -0.5309
  650MOL0     C87626   1.519  10.691  10.550 -0.5661 -0.0073  0.2986
  650MOL0     C87627   1.559  10.817  10.619 -1.0244  0.0496 -0.0486
  650MOL0     C87628   1.650  10.899  10.543  0.1424 -0.1477  0.3215
  650MOL0     C87629   1.748  10.988  10.622 -0.1282  0.3194  0.0720
  650MOL0     C87630   1.867  11.031  10.538 -0.0525  0.4235 -0.2081
  650MOL0     C87631   1.978  11.088  10.626 -0.1455  0.1162 -0.1142
  650MOL0     N87632   2.107  11.068  10.575 -0.8324  0.3603  0.5251
  650MOL0     C87633   2.233  11.087  10.640  0.0084  0.5521  0.0200
  650MOL0     C87634   2.322  11.057  10.546 -0.1687  0.2509  0.8769
  650MOL0     C87635   2.467  11.074  10.560 -0.7567  0.4273 -0.8923
  650MOL0     C87636   2.520  11.118  10.698  0.3025 -0.2757  0.2013
  650MOL0     C87637   2.671  11.142  10.681 -1.0618 -1.0573 -0.4372
  650MOL0     C87638   2.752  11.024  10.720 -0.3822  0.6382 -0.2081
  650MOL0     O87639   2.883  11.042  10.667  0.2277 -0.2209  0.2942
  650MOL0     C87640   2.995  10.977  10.724  0.2398 -0.2871  0.1828
  650MOL0     C87641   2.992  10.864  10.806 -0.4772  0.3062  0.2064
  650MOL0     C87642   3.108  10.806  10.862  0.5652  0.2528  0.7040
  650MOL0     C87643   3.228  10.858  10.825 -0.2659 -0.5563  0.2364
  650MOL0     C87644   3.347  10.810  10.892  0.5226  0.1883 -0.1214
  650MOL0     O87645   3.460  10.820  10.826  0.0807 -0.0799 -1.1811
  650MOL0     C87646   3.589  10.795  10.871  0.2157 -0.3679  0.2248
  650MOL0     C87647   3.637  10.782  11.000 -0.7413  1.1928  0.3742
  650MOL0     C87648   3.768  10.772  11.020  0.1124  0.3082 -0.1729
  650MOL0     C87649   3.859  10.784  10.921  0.0666 -0.2262  0.0596
  650MOL0     O87650   3.999  10.785  10.948  0.2288 -0.7350  1.1141
  650MOL0     C87651   4.073  10.897  10.889  0.2817  0.2941  0.0052
  650MOL0     C87652   4.213  10.841  10.854  0.7056  0.1984  0.7155
  650MOL0     C87653   4.196  10.734  10.749  0.1480  1.2766  1.1212
  650MOL0     C87654   4.338  10.701  10.691  0.5329  1.4922  0.3488
  650MOL0     C87655   4.328  10.583  10.607 -0.3384  0.0063  0.4365
  650MOL0     C87656   4.464  10.537  10.552 -0.1656  0.2536 -1.0092
  650MOL0     C87657   4.511  10.638  10.441  0.0276 -0.3081 -0.0027
  650MOL0     C87658   4.522  10.574  10.304  0.5744  0.2817 -0.2445
  650MOL0    Cl87659   4.369  10.509  10.241 -0.0925 -0.4704  0.1506
  650MOL0     C87660   3.815  10.804  10.791 -0.1910 -1.4184 -0.3173
  650MOL0     C87661   3.679  10.805  10.769 -1.1995 -0.2512  0.9045
  650MOL0     O87662   3.339  10.772  11.004  0.0237 -0.2091  0.1939
  650MOL0     C87663   3.229  10.965  10.736 -0.3858 -0.2973  0.1651
  650MOL0     C87664   3.119  11.024  10.686 -0.5351 -0.1094  0.7147
  650MOL0     N87665   2.251  11.008  10.435 -0.1990 -1.4223  0.0612
  650MOL0     N87666   2.134  11.034  10.451  0.6220  1.1215  0.3203
  650MOL0     C87667   0.990  10.638  10.518  0.3854  0.1170 -0.3770
  650MOL0     C87668   0.860  10.615  10.471 -0.0476 -0.2746 -0.1401
  650MOL0     C87669   0.476  10.455  10.350 -0.3345 -0.0590  0.2132
  650MOL0     C87670   0.447  10.490  10.221  0.0320  0.1604  0.5713
  650MOL0     C87671   0.315  10.501  10.167  0.0991  0.5220  0.3294
  650MOL0     C87672   0.213  10.487  10.253  0.1559 -0.6352  0.1492
  650MOL0     O87673   0.081  10.491  10.228  0.8673  0.1421 -0.4560
  650MOL0     C87674   0.047  10.486  10.094  0.3731 -0.2087  0.1359
  650MOL0     C87675  -0.105  10.447  10.077  0.5080 -0.5011  1.1477
  650MOL0     C87676  -0.149  10.435   9.923  0.1196  0.3115 -0.8712
  650MOL0     C87677  -0.302  10.394   9.906 -0.6005 -0.0425  0.4153
  650MOL0     C87678  -0.352  10.438   9.774  0.4717  0.9733 -0.3253
  650MOL0     C87679  -0.395  10.460   9.661  0.3827 -0.6718 -0.3725
  650MOL0     C87680   0.240  10.465  10.389 -0.2582 -0.3110  0.2311
  650MOL0     C87681   0.370  10.437  10.437  0.1944 -0.9031  0.3333
  650MOL0     C87682   0.387  10.409  10.588 -0.0556 -0.5527  0.5013
  650MOL0     H87683   0.750  10.405  10.704 -0.9360  0.6910  0.9906
  650MOL0     H87684   1.000  10.432  10.782  0.2046  0.4665  1.0378
  650MOL0     H87685   1.272  10.552  10.506  0.2100 -2.7320  2.5858
  650MOL0     H87686   1.254  10.721  10.534 -0.2558 -1.3448 -0.6226
  650MOL0     H87687   1.429  10.516  10.654  0.6668 -0.1141  0.4542
  650MOL0     H87688   1.431  10.661  10.743  1.7947 -1.9183 -0.0272
  650MOL0     H87689   1.500  10.712  10.445  3.8183  1.3264 -0.4293
  650MOL0     H87690   1.615  10.637  10.546  0.5306  1.7603  1.4299
  650MOL0     H87691   1.470  10.877  10.640  0.8478  2.8407  0.4715
  650MOL0     H87692   1.619  10.795  10.708 -0.5246 -3.0777 -1.0280
  650MOL0     H87693   1.713  10.830  10.488  0.8734  1.4951 -0.9982
  650MOL0     H87694   1.608  10.966  10.467  1.4378 -0.4075 -0.6552
  650MOL0     H87695   1.696  11.076  10.660  0.3992  0.3197  0.8060
  650MOL0     H87696   1.779  10.943  10.717 -0.6240  1.1086  0.6182
  650MOL0     H87697   1.847  11.091  10.449  0.7959 -1.4278 -1.7230
  650MOL0     H87698   1.907  10.934  10.504  0.9731  1.5659 -2.4843
  650MOL0     H87699   1.962  11.195  10.638 -2.1032 -0.2609  1.1781
  650MOL0     H87700   1.961  11.065  10.732 -0.3035  2.1046  0.3309
  650MOL0     H87701   2.251  11.099  10.746  0.7945  0.3903 -0.0856
  650MOL0     H87702   2.512  10.979  10.529 -0.7878 -0.1984  0.8401
  650MOL0     H87703   2.503  11.151  10.492  1.4774 -0.2953 -0.5918
  650MOL0     H87704   2.472  11.208  10.739 -2.5747 -1.6093 -0.0431
  650MOL0     H87705   2.505  11.039  10.772 -1.6762 -1.1651 -1.0743
  650MOL0     H87706   2.703  11.227  10.742 -1.2554  0.1570 -1.9688
  650MOL0     H87707   2.692  11.176  10.579  3.8815  0.3751  0.7909
  650MOL0     H87708   2.711  10.933  10.676  1.6236 -0.4405  0.0195
  650MOL0     H87709   2.744  10.996  10.826 -1.6019 -1.8677 -0.8944
  650MOL0     H87710   2.900  10.809  10.820 -0.2850 -0.5411 -1.5523
  650MOL0     H87711   3.098  10.723  10.931 -0.1860 -0.6394 -0.4409
  650MOL0     H87712   3.566  10.768  11.081 -1.6798 -1.2205 -0.7490
  650MOL0     H87713   3.804  10.772  11.123  0.0426 -1.5749 -0.1035
  650MOL0     H87714   4.031  10.952  10.805 -0.2699  1.8511  1.2477
  650MOL0     H87715   4.080  10.977  10.963  0.7561 -0.7968  1.1781
  650MOL0     H87716   4.276  10.920  10.810  3.3126 -2.5361 -0.8736
  650MOL0     H87717   4.275  10.807  10.938  3.6221  0.5687 -1.1363
  650MOL0     H87718   4.157  10.647  10.802  1.3770  0.3670  0.5570
  650MOL0     H87719   4.124  10.770  10.674 -1.6209  0.6945  2.4796
  650MOL0     H87720   4.409  10.666  10.767  1.9923 -1.7558 -2.2387
  650MOL0     H87721   4.370  10.785  10.629 -1.1555  0.3210 -2.2572
  650MOL0     H87722   4.262  10.600  10.521  0.2780 -0.4101 -0.1337
  650MOL0     H87723   4.278  10.497  10.652 -0.3029 -0.9845 -1.3314
  650MOL0     H87724   4.541  10.511  10.625 -0.6927 -0.9771 -0.8546
  650MOL0     H87725   4.451  10.440  10.502  1.4336 -0.6677  0.2551
  650MOL0     H87726   4.607  10.677  10.475  0.2695  0.9079 -1.9543
  650MOL0     H87727   4.452  10.730  10.435  1.5053  0.6244 -0.7226
  650MOL0     H87728   4.568  10.640  10.231 -0.7436  0.0809 -1.2872
  650MOL0     H87729   4.585  10.485  10.317 -0.8777 -1.1611 -2.4383
  650MOL0     H87730   3.896  10.807  10.719 -1.1294 -2.4736 -1.4531
  650MOL0     H87731   3.637  10.818  10.669 -1.0263 -0.8118  0.7555
  650MOL0     H87732   3.322  11.009  10.702 -0.8552  1.2603  0.8148
  650MOL0     H87733   3.134  11.120  10.637  4.5695  1.1989  4.0502
  650MOL0     H87734   1.055  10.703  10.459  0.4811 -1.0635 -1.6299
  650MOL0     H87735   0.825  10.661  10.379 -2.0567 -0.9530  0.2573
  650MOL0     H87736   0.532  10.506  10.156 -0.4494 -1.8329 -0.6084
  650MOL0     H87737   0.302  10.516  10.061  1.2015 -0.4526  0.0382
  650MOL0     H87738   0.099  10.415  10.029 -0.4755  0.7068 -1.6389
  650MOL0     H87739   0.055  10.586  10.050  2.7456 -0.9032 -1.2264
  650MOL0     H87740  -0.170  10.519  10.129 -0.0474 -1.4451  1.7856
  650MOL0     H87741  -0.121  10.350  10.125 -3.9576  0.3171  1.7091
  650MOL0     H87742  -0.082  10.363   9.875 -1.5021 -0.9118 -1.3896
  650MOL0     H87743  -0.127  10.531   9.875  1.2293 -1.4120 -4.1187
  650MOL0     H87744  -0.317  10.286   9.910 -1.6771  0.1333  3.3161
  650MOL0     H87745  -0.370  10.438   9.979 -1.0774 -0.8863  0.4880
  650MOL0     H87746  -0.439  10.488   9.567  2.0663 -2.2051 -1.6918
  650MOL0     H87747   0.157  10.453  10.458 -0.6781 -0.1095 -0.2408
  650MOL0     H87748   0.485  10.362  10.600 -0.6196 -1.7718  0.5243
  650MOL0     H87749   0.366  10.500  10.645 -3.3916 -1.3411  0.7351
  650MOL0     H87750   0.312  10.340  10.628 -0.3455 -1.0725 -0.8778
  651MOL0     O87751   1.564   9.418   4.438  0.6119  0.4480  0.0495
  651MOL0     C87752   1.545   9.312   4.379 -0.5470  0.0613 -0.4214
  651MOL0     O87753   1.422   9.248   4.366  1.1132  0.0891  0.7296
  651MOL0     C87754   1.321   9.340   4.345  0.8912  0.3250 -0.8066
  651MOL0     C87755   1.195   9.296   4.396  0.8014 -0.4280 -0.0220
  651MOL0     C87756   1.074   9.366   4.370  0.4023 -0.0099  0.6545
  651MOL0     C87757   1.082   9.496   4.320 -0.0069 -0.1928  0.1711
  651MOL0     O87758   0.970   9.577   4.332  0.2922 -0.2136  0.5548
  651MOL0     C87759   0.985   9.713   4.290  0.4530  0.3270  0.2524
  651MOL0     C87760   0.850   9.779   4.296 -0.2075 -0.2090 -0.1590
  651MOL0     C87761   0.858   9.924   4.270 -0.4606  0.0957 -0.0263
  651MOL0     C87762   0.735  10.013   4.282 -0.9860  0.3791  0.3200
  651MOL0     C87763   0.768  10.153   4.273 -0.2888  0.9492 -0.3613
  651MOL0     C87764   0.660  10.248   4.330 -0.6356  0.1036  0.5546
  651MOL0     C87765   0.689  10.396   4.292  0.0947 -0.0829  0.5924
  651MOL0     C87766   0.606  10.501   4.371 -0.4866  0.2095  0.8025
  651MOL0     N87767   0.674  10.526   4.493 -0.6400 -0.0037 -0.1983
  651MOL0     C87768   0.812  10.519   4.515 -0.8203 -0.5451  0.5916
  651MOL0     C87769   0.838  10.589   4.631  0.3098  0.3499  0.5187
  651MOL0     C87770   0.977  10.620   4.681  0.1734 -0.3108  0.3644
  651MOL0     C87771   1.047  10.490   4.725 -0.4498  0.3394  0.0700
  651MOL0     C87772   1.196  10.502   4.761  0.7147 -0.6644 -0.7316
  651MOL0     C87773   1.227  10.405   4.872  0.3767  0.0488  0.5723
  651MOL0     O87774   1.369  10.410   4.902 -0.0214  0.4059 -0.6913
  651MOL0     C87775   1.466  10.375   4.815 -0.1672  0.0291 -0.9998
  651MOL0     C87776   1.591  10.427   4.843 -0.7096  0.1523 -0.4728
  651MOL0     C87777   1.703  10.395   4.775  0.3011 -0.0569 -1.0586
  651MOL0     C87778   1.693  10.317   4.659  0.7612  0.0011 -0.6701
  651MOL0     C87779   1.807  10.282   4.581 -0.5761 -0.4720 -0.0806
  651MOL0     O87780   1.939  10.301   4.629  0.6340  0.8548 -0.2234
  651MOL0     C87781   2.022  10.295   4.524  0.6062  0.4287  0.5639
  651MOL0     C87782   2.107  10.187   4.507  0.0201 -0.2074  0.4888
  651MOL0     C87783   2.211  10.181   4.408  0.5587 -0.9012  0.2509
  651MOL0     C87784   2.229  10.293   4.324 -0.6389  0.4946 -0.3901
  651MOL0     O87785   2.331  10.298   4.229 -0.0821  0.7318  0.1370
  651MOL0     C87786   2.371  10.178   4.165  0.0182 -0.6932  0.5064
  651MOL0     C87787   2.473  10.195   4.047  0.1443  0.2045  0.2150
  651MOL0     C87788   2.589  10.291   4.083 -0.5800  0.3694  0.8411
  651MOL0     C87789   2.694  10.312   3.963  0.0319  0.0930 -0.3435
  651MOL0     C87790   2.797  10.421   4.004 -0.3871 -0.8671  0.1559
  651MOL0     C87791   2.855  10.493   3.886  0.6107 -0.1665 -0.4552
  651MOL0     C87792   2.972  10.426   3.822  0.2651 -0.2235 -0.1960
  651MOL0     C87793   3.016  10.490   3.691 -0.2882 -0.1703  0.0190
  651MOL0    Cl87794   3.116  10.631   3.736  0.0483  0.1024 -0.0340
  651MOL0     C87795   2.151  10.401   4.337 -0.4438 -0.4805  0.5107
  651MOL0     C87796   2.040  10.402   4.431 -0.6495  0.3170  0.3338
  651MOL0     O87797   1.779  10.238   4.468 -0.4662  0.3923 -0.0050
  651MOL0     C87798   1.562  10.277   4.618  0.0292 -0.5579  0.2039
  651MOL0     C87799   1.453  10.304   4.700  0.3733 -1.1405  0.6341
  651MOL0     N87800   0.713  10.610   4.690  0.0583  0.3711  0.5643
  651MOL0     N87801   0.617  10.589   4.603 -0.0611  0.0562 -0.2908
  651MOL0     C87802   1.209   9.536   4.266 -0.5917  0.4183  0.5448
  651MOL0     C87803   1.328   9.459   4.268 -0.8740 -0.9991 -0.2704
  651MOL0     C87804   1.662   9.255   4.321  0.4719 -0.3925  0.0196
  651MOL0     C87805   1.652   9.122   4.268  0.1970  0.5293  0.3559
  651MOL0     C87806   1.758   9.065   4.186  0.4596 -1.1542  0.4807
  651MOL0     C87807   1.868   9.141   4.137  0.7793 -0.3371 -0.2255
  651MOL0     O87808   1.937   9.100   4.035 -0.7734 -0.2935  0.8640
  651MOL0     C87809   1.998   8.974   4.047 -1.0978 -0.1182 -0.2700
  651MOL0     C87810   2.110   8.969   3.938  1.1321  0.5085 -0.2238
  651MOL0     C87811   2.236   8.923   3.991  0.7804 -0.4856  0.5704
  651MOL0     C87812   2.349   8.904   3.894 -0.6249  0.5965 -0.0274
  651MOL0     C87813   2.307   8.813   3.781  0.1403 -0.1825  0.2379
  651MOL0     C87814   2.284   8.752   3.683  0.2692  0.2136  0.4384
  651MOL0     C87815   1.874   9.274   4.177  0.7073 -0.2001  0.0742
  651MOL0     C87816   1.773   9.336   4.263 -1.0658  0.6110 -0.6262
  651MOL0     C87817   1.798   9.489   4.287  0.4586  0.4959 -0.3150
  651MOL0     H87818   1.170   9.203   4.444 -0.9521  0.7080  1.4104
  651MOL0     H87819   0.976   9.328   4.398  0.1409 -0.4849 -0.8543
  651MOL0     H87820   1.061   9.760   4.353  1.6228  0.5903 -1.3106
  651MOL0     H87821   1.019   9.721   4.186 -2.7663 -0.0147 -0.9505
  651MOL0     H87822   0.810   9.771   4.397  1.2420 -0.2866  0.4344
  651MOL0     H87823   0.779   9.726   4.231 -0.8601  0.5799 -0.1082
  651MOL0     H87824   0.879   9.945   4.165 -0.3127  2.8292  0.4767
  651MOL0     H87825   0.939   9.964   4.332  0.9876 -5.9786  2.7460
  651MOL0     H87826   0.670   9.985   4.199 -0.3482  0.6466 -0.2816
  651MOL0     H87827   0.679   9.989   4.373  0.2181 -0.3247  0.9047
  651MOL0     H87828   0.862  10.166   4.328  1.4350 -4.3690 -1.4295
  651MOL0     H87829   0.789  10.177   4.168 -0.2048  0.2977 -0.4964
  651MOL0     H87830   0.568  10.207   4.288  0.2357 -0.8918 -0.4320
  651MOL0     H87831   0.656  10.244   4.440  0.1753 -1.2627  0.5624
  651MOL0     H87832   0.661  10.402   4.186 -0.2098  0.0057  0.6783
  651MOL0     H87833   0.796  10.417   4.301  1.1348 -3.0406 -2.3873
  651MOL0     H87834   0.595  10.583   4.299 -2.1308 -0.6969 -0.0406
  651MOL0     H87835   0.501  10.474   4.390 -0.7503  0.5643 -0.0971
  651MOL0     H87836   0.902  10.498   4.457  1.6083  0.8924  3.5407
  651MOL0     H87837   1.033  10.660   4.596  0.9792  0.8113  1.3918
  651MOL0     H87838   0.976  10.697   4.759 -2.8912 -0.3555  0.4991
  651MOL0     H87839   0.992  10.460   4.815 -0.4314  0.5738  0.1608
  651MOL0     H87840   1.034  10.412   4.650 -0.1464 -0.5323  0.8955
  651MOL0     H87841   1.217  10.604   4.797 -0.4249 -0.9274  0.8083
  651MOL0     H87842   1.257  10.490   4.672 -1.3186  0.4292 -2.3680
  651MOL0     H87843   1.195  10.304   4.846 -1.9539  0.0483  3.0011
  651MOL0     H87844   1.166  10.423   4.961 -0.8844 -1.4082  0.0541
  651MOL0     H87845   1.608  10.492   4.929  2.7504 -1.2895  0.0760
  651MOL0     H87846   1.800  10.432   4.806  0.5759 -0.5703 -1.3018
  651MOL0     H87847   2.086  10.113   4.584  0.5167  0.7543  1.5897
  651MOL0     H87848   2.265  10.087   4.401 -1.0636 -1.8000 -0.8295
  651MOL0     H87849   2.405  10.113   4.246  2.0180 -0.0053  0.2690
  651MOL0     H87850   2.284  10.129   4.120  0.0447 -1.0085  0.7867
  651MOL0     H87851   2.522  10.100   4.024 -0.5932  0.1832 -1.4407
  651MOL0     H87852   2.413  10.225   3.960 -1.8925 -2.7042  0.4564
  651MOL0     H87853   2.551  10.385   4.124  0.9791  0.3884  2.3553
  651MOL0     H87854   2.641  10.230   4.158  1.0677 -2.0847 -2.0805
  651MOL0     H87855   2.636  10.349   3.878 -1.0708  1.9196  1.1348
  651MOL0     H87856   2.731  10.218   3.921  0.1467  0.1972 -0.4765
  651MOL0     H87857   2.879  10.377   4.062  1.4432 -0.3283 -1.9178
  651MOL0     H87858   2.739  10.501   4.051 -2.3281 -1.3798 -1.2287
  651MOL0     H87859   2.775  10.514   3.814 -1.8714  0.5637  2.3382
  651MOL0     H87860   2.885  10.591   3.925  0.2165 -0.7531  1.3912
  651MOL0     H87861   2.961  10.318   3.812  0.3396 -0.4792  1.9421
  651MOL0     H87862   3.056  10.439   3.892 -0.1673  2.2933 -0.0536
  651MOL0     H87863   3.080  10.424   3.631 -0.8351 -1.4942  0.8284
  651MOL0     H87864   2.925  10.512   3.635  0.4537  1.8305 -0.4720
  651MOL0     H87865   2.161  10.481   4.265  0.3968 -2.0550 -1.1997
  651MOL0     H87866   1.983  10.494   4.439  0.1633  0.8510  0.1568
  651MOL0     H87867   1.531  10.219   4.532 -1.1009  0.9156 -0.4327
  651MOL0     H87868   1.357  10.261   4.671  0.1766 -0.7145  0.6420
  651MOL0     H87869   1.219   9.636   4.224 -0.7149  0.7487  1.2844
  651MOL0     H87870   1.416   9.504   4.224 -1.2131 -1.4947 -1.4882
  651MOL0     H87871   1.566   9.057   4.282  0.9441 -0.2778  1.2603
  651MOL0     H87872   1.748   8.968   4.140  1.3267 -0.3527 -1.5585
  651MOL0     H87873   1.923   8.896   4.028 -0.5048 -0.6789 -0.3166
  651MOL0     H87874   2.039   8.951   4.145  0.1831 -2.4162 -1.2583
  651MOL0     H87875   2.139   9.071   3.910  2.2225  0.2038 -0.2409
  651MOL0     H87876   2.067   8.902   3.863 -1.4772 -1.2564  2.5932
  651MOL0     H87877   2.219   8.826   4.037 -0.2140 -0.5644  0.0620
  651MOL0     H87878   2.270   8.996   4.065  3.1853 -0.0237 -0.8793
  651MOL0     H87879   2.385   8.999   3.854 -1.6982  0.2259 -1.9868
  651MOL0     H87880   2.437   8.859   3.941 -0.8864  1.7133  1.5840
  651MOL0     H87881   2.258   8.688   3.601 -0.3385  0.7726  0.1962
  651MOL0     H87882   1.951   9.334   4.129  0.3493 -0.2578 -0.5833
  651MOL0     H87883   1.700   9.536   4.272 -0.5177 -1.9788 -2.7573
  651MOL0     H87884   1.820   9.505   4.392 -0.7066  0.9998 -0.1256
  651MOL0     H87885   1.876   9.535   4.226  0.3745  1.9005  0.5979
  652MOL0     O87886   9.428   5.821   4.484  0.7588  0.0412  0.3048
  652MOL0     C87887   9.436   5.748   4.582  0.9168 -0.6260 -0.0943
  652MOL0     O87888   9.554   5.717   4.645  0.1769 -1.0154 -0.0912
  652MOL0     C87889   9.680   5.742   4.589  0.7082  0.2828  0.1057
  652MOL0     C87890   9.710   5.743   4.451  0.5107  0.8574 -0.5883
  652MOL0     C87891   9.837   5.775   4.401  0.2372  0.3794 -0.1480
  652MOL0     C87892   9.939   5.803   4.492  0.4369 -0.8346  0.0649
  652MOL0     O87893  10.069   5.830   4.445 -0.1991 -0.3384 -0.3556
  652MOL0     C87894  10.158   5.735   4.492 -0.3808  0.1585 -0.0715
  652MOL0     C87895  10.293   5.757   4.438  0.5820 -0.5509  0.7665
  652MOL0     C87896  10.386   5.669   4.522  0.9523 -0.1357 -0.2161
  652MOL0     C87897  10.529   5.688   4.475 -0.4075 -0.9480 -0.2727
  652MOL0     C87898  10.638   5.638   4.580  0.3746  0.4162  0.0257
  652MOL0     C87899  10.791   5.663   4.546 -0.0721  1.2585  0.3025
  652MOL0     C87900  10.881   5.552   4.617 -0.0457 -0.4702  0.2570
  652MOL0     C87901  11.028   5.576   4.606 -0.4555 -0.3840 -0.0550
  652MOL0     N87902  11.102   5.517   4.718 -0.5429  0.0523  0.0741
  652MOL0     C87903  11.109   5.389   4.748  1.1634 -0.6879 -0.4754
  652MOL0     C87904  11.176   5.386   4.865  0.5298 -0.6673  0.1649
  652MOL0     C87905  11.204   5.258   4.930 -0.9059  0.7022  0.2261
  652MOL0     C87906  11.256   5.159   4.835  0.5478  0.4620 -0.7282
  652MOL0     C87907  11.275   5.017   4.888  0.2068 -0.3489  0.5871
  652MOL0     C87908  11.391   5.009   4.986 -0.3260  0.6412 -0.0370
  652MOL0     O87909  11.511   5.028   4.919 -0.1211 -0.2411 -0.6135
  652MOL0     C87910  11.628   5.021   4.987  1.1196 -0.0361 -0.3285
  652MOL0     C87911  11.727   5.111   4.963  0.1940  0.1331  0.2078
  652MOL0     C87912  11.843   5.124   5.037 -0.2796 -0.0606  0.0895
  652MOL0     C87913  11.862   5.038   5.151 -0.1516 -0.2905 -0.2333
  652MOL0     C87914  11.986   5.047   5.231  0.1648  0.1864 -0.5314
  652MOL0     O87915  12.070   5.153   5.202  0.2979  0.2274 -0.2306
  652MOL0     C87916  12.204   5.146   5.224 -0.0984  0.0854  0.1577
  652MOL0     C87917  12.280   5.034   5.192  0.4861  0.1380 -0.1106
  652MOL0     C87918  12.419   5.045   5.202 -0.0856  0.4933  0.0947
  652MOL0     C87919  12.494   5.166   5.234  0.9125 -0.4859  0.5528
  652MOL0     O87920  12.627   5.167   5.237  0.1198  0.1377 -0.1659
  652MOL0     C87921  12.700   5.294   5.255 -0.4280 -0.1937 -0.1904
  652MOL0     C87922  12.845   5.295   5.215 -0.3672  0.4620  0.5267
  652MOL0     C87923  12.866   5.274   5.072 -0.1091 -0.3927 -0.9708
  652MOL0     C87924  13.019   5.272   5.031  0.3139  0.3692 -0.2135
  652MOL0     C87925  13.031   5.173   4.916 -1.1282 -0.5299  0.2258
  652MOL0     C87926  13.178   5.163   4.873 -0.5603 -0.5716 -0.3695
  652MOL0     C87927  13.290   5.113   4.971 -0.7775 -0.2753 -0.5101
  652MOL0     C87928  13.420   5.115   4.900 -0.5037  0.2463  0.1213
  652MOL0    Cl87929  13.490   5.279   4.882  0.0063  0.1275 -0.1516
  652MOL0     C87930  12.414   5.267   5.278  0.4362  0.1814 -0.2900
  652MOL0     C87931  12.273   5.260   5.267 -0.5066 -0.6652  0.3202
  652MOL0     O87932  12.006   4.956   5.310  0.7822 -0.4530 -0.2238
  652MOL0     C87933  11.762   4.948   5.178  0.3647 -0.1352  0.4022
  652MOL0     C87934  11.645   4.945   5.100 -0.8562 -0.6886  0.0634
  652MOL0     N87935  11.184   5.514   4.917 -0.1573 -0.7570  0.5495
  652MOL0     N87936  11.156   5.593   4.816  0.0785 -0.8705 -0.0482
  652MOL0     C87937   9.916   5.805   4.628  0.1516  0.5679 -0.8424
  652MOL0     C87938   9.782   5.783   4.676  0.1325  0.5887  0.3033
  652MOL0     C87939   9.307   5.715   4.648  0.8528 -0.2930 -0.2979
  652MOL0     C87940   9.320   5.668   4.786 -0.1399 -0.0156 -0.3535
  652MOL0     C87941   9.205   5.644   4.867 -0.3255  1.1560 -0.7261
  652MOL0     C87942   9.078   5.652   4.822 -0.4515  0.4300  0.5759
  652MOL0     O87943   8.981   5.609   4.907  0.4346 -0.1205 -0.3250
  652MOL0     C87944   8.866   5.545   4.835 -1.0933 -0.4008  0.4166
  652MOL0     C87945   8.781   5.490   4.948 -0.4205  0.8083  0.4539
  652MOL0     C87946   8.862   5.378   5.013  0.1014 -0.5515  0.2079
  652MOL0     C87947   8.773   5.272   5.069  0.8079  0.5396  0.4967
  652MOL0     C87948   8.843   5.165   5.139 -0.8983  1.0303 -0.7175
  652MOL0     C87949   8.918   5.076   5.181 -0.0537 -0.3693  0.6804
  652MOL0     C87950   9.066   5.689   4.682 -0.9522 -0.9856  0.1774
  652MOL0     C87951   9.177   5.722   4.592  0.7932 -0.1101  0.6887
  652MOL0     C87952   9.149   5.756   4.452 -0.3215 -0.9736 -0.1701
  652MOL0     H87953   9.625   5.714   4.390  0.0431  0.1053  0.3780
  652MOL0     H87954   9.855   5.771   4.295  0.0751 -1.4617 -0.1444
  652MOL0     H87955  10.172   5.759   4.598  0.6861  0.3088 -0.2429
  652MOL0     H87956  10.126   5.632   4.473  2.3804 -0.4688 -1.8165
  652MOL0     H87957  10.321   5.862   4.453  0.3794 -0.3321 -0.3027
  652MOL0     H87958  10.296   5.729   4.332 -0.0514  0.3768  0.4845
  652MOL0     H87959  10.351   5.566   4.510 -0.1409  0.3419 -1.3136
  652MOL0     H87960  10.384   5.689   4.630  0.5902  0.2776 -0.2964
  652MOL0     H87961  10.548   5.636   4.380  0.4311 -2.3557  0.6280
  652MOL0     H87962  10.537   5.797   4.479 -0.8647 -0.8964 -0.6393
  652MOL0     H87963  10.627   5.694   4.674 -2.2765  2.7310 -1.5079
  652MOL0     H87964  10.624   5.535   4.615 -1.4812  1.0912  1.4541
  652MOL0     H87965  10.822   5.675   4.442  0.8393 -0.5155  0.3270
  652MOL0     H87966  10.802   5.762   4.591 -1.3975  1.7991 -0.5059
  652MOL0     H87967  10.861   5.452   4.576 -0.4817 -0.2203 -0.1425
  652MOL0     H87968  10.848   5.546   4.721 -2.7987  0.4568 -0.4808
  652MOL0     H87969  11.065   5.546   4.507 -0.2022  1.6783 -0.6296
  652MOL0     H87970  11.043   5.684   4.610  3.5051 -0.7589 -0.6688
  652MOL0     H87971  11.079   5.314   4.675  0.4722 -0.4470 -0.4477
  652MOL0     H87972  11.282   5.276   5.005  1.6349 -0.2774 -2.0211
  652MOL0     H87973  11.122   5.207   4.981 -0.8192 -1.5644 -1.7222
  652MOL0     H87974  11.179   5.158   4.757  0.1475 -0.8269 -0.3305
  652MOL0     H87975  11.348   5.204   4.797 -0.4283  0.6894 -2.9863
  652MOL0     H87976  11.302   4.964   4.796  0.6077  2.5443 -1.1214
  652MOL0     H87977  11.183   4.984   4.936 -1.1466  1.4141 -0.6442
  652MOL0     H87978  11.397   4.913   5.038  0.4568  1.6271  1.7786
  652MOL0     H87979  11.386   5.079   5.069 -0.0905 -0.8432  1.2747
  652MOL0     H87980  11.716   5.179   4.880 -0.6278 -0.6514 -0.3413
  652MOL0     H87981  11.913   5.200   5.004 -0.2390  0.5587  1.5391
  652MOL0     H87982  12.232   4.942   5.163  1.4124 -0.7377  1.0160
  652MOL0     H87983  12.467   4.952   5.173  4.0877  2.3449  0.2530
  652MOL0     H87984  12.646   5.376   5.206  0.0345  0.3775  0.2514
  652MOL0     H87985  12.698   5.324   5.360  1.7786  3.0811 -0.9430
  652MOL0     H87986  12.888   5.392   5.240 -0.2727  0.1775  1.5170
  652MOL0     H87987  12.896   5.218   5.275 -3.0270 -1.8239  0.0704
  652MOL0     H87988  12.817   5.179   5.045  0.2378 -1.0230  0.5398
  652MOL0     H87989  12.814   5.351   5.015  1.0714 -1.0357 -3.0447
  652MOL0     H87990  13.084   5.246   5.115 -1.7141  1.2423  1.7169
  652MOL0     H87991  13.060   5.370   5.005 -0.5540  0.6900 -0.4230
  652MOL0     H87992  12.961   5.207   4.839 -3.4286 -1.2389  1.8700
  652MOL0     H87993  12.993   5.079   4.958 -2.8268  0.0037 -0.0222
  652MOL0     H87994  13.180   5.103   4.782  1.3465  0.3603 -1.0127
  652MOL0     H87995  13.199   5.266   4.842 -3.5416  0.2899  0.1435
  652MOL0     H87996  13.271   5.012   5.009  0.0563  0.2659  1.4634
  652MOL0     H87997  13.296   5.173   5.062 -3.2220 -0.5483 -0.0904
  652MOL0     H87998  13.495   5.063   4.960  1.0685 -0.0347 -1.9571
  652MOL0     H87999  13.422   5.068   4.801  1.6566  2.6991 -1.1405
  652MOL0     H88000  12.449   5.356   5.329  1.7723  0.9214 -2.3954
  652MOL0     H88001  12.212   5.350   5.269 -1.7167 -1.2821 -2.7533
  652MOL0     H88002  11.768   4.889   5.269 -4.0133  0.0384  1.0139
  652MOL0     H88003  11.568   4.882   5.144 -0.8914 -0.3322  0.5214
  652MOL0     H88004   9.994   5.835   4.697  0.4664 -2.3878  0.2180
  652MOL0     H88005   9.753   5.786   4.781 -0.2302  1.4750  0.1801
  652MOL0     H88006   9.413   5.640   4.835 -0.4814 -2.2996 -0.8635
  652MOL0     H88007   9.224   5.607   4.967  1.7350 -1.4111 -1.9362
  652MOL0     H88008   8.899   5.472   4.761 -2.4214  1.0639 -1.7313
  652MOL0     H88009   8.807   5.623   4.786 -0.8596  0.0223  0.8044
  652MOL0     H88010   8.691   5.438   4.915  0.6054 -2.5597  2.4454
  652MOL0     H88011   8.754   5.565   5.023  0.6565 -0.3231  2.0469
  652MOL0     H88012   8.929   5.417   5.090 -2.9210 -0.8271  3.2157
  652MOL0     H88013   8.921   5.319   4.942  2.7150  1.6038  0.4499
  652MOL0     H88014   8.691   5.307   5.133 -2.2492 -0.3977 -2.6009
  652MOL0     H88015   8.718   5.224   4.987 -3.2256  0.4475  2.9678
  652MOL0     H88016   8.990   5.003   5.211  1.5115  0.7464 -0.2033
  652MOL0     H88017   8.971   5.672   4.632 -2.1659 -0.5394  2.2264
  652MOL0     H88018   9.156   5.865   4.448  2.2015 -0.8805  3.0781
  652MOL0     H88019   9.228   5.728   4.382  1.7436  3.0093  0.2757
  652MOL0     H88020   9.058   5.717   4.405 -1.0837  2.3119 -1.7326
  653MOL0     O88021   3.394   9.487   0.983  0.2764  0.3875 -0.2083
  653MOL0     C88022   3.351   9.384   0.927  0.0110 -1.2371  0.9336
  653MOL0     O88023   3.428   9.284   0.876 -0.1215  0.0467  0.4379
  653MOL0     C88024   3.570   9.286   0.884 -0.3671 -1.3121  1.1444
  653MOL0     C88025   3.637   9.205   0.973  0.1644 -0.2920  0.3874
  653MOL0     C88026   3.774   9.197   0.987  0.1167  0.0010 -0.2399
  653MOL0     C88027   3.850   9.277   0.902 -0.1479  0.4987 -0.2103
  653MOL0     O88028   3.990   9.270   0.896  0.0904 -0.2686 -1.2879
  653MOL0     C88029   4.053   9.298   1.027 -0.7916  0.9035 -0.4201
  653MOL0     C88030   4.161   9.389   0.997 -0.6960 -1.4925  0.1023
  653MOL0     C88031   4.273   9.311   0.918 -0.5325 -0.9532 -0.1354
  653MOL0     C88032   4.347   9.424   0.844  0.4651 -0.5376 -0.2756
  653MOL0     C88033   4.483   9.388   0.775  0.4108 -0.2646 -0.1281
  653MOL0     C88034   4.584   9.318   0.872  0.5692 -0.0250  0.7327
  653MOL0     C88035   4.730   9.351   0.837  0.7995  0.9696  0.7298
  653MOL0     C88036   4.840   9.301   0.938  1.0039 -0.3092  0.7502
  653MOL0     N88037   4.973   9.334   0.887 -0.6706  0.4996  0.4267
  653MOL0     C88038   5.050   9.438   0.933 -0.2988  0.4659  0.7525
  653MOL0     C88039   5.148   9.445   0.842 -0.7808  0.2081 -0.4108
  653MOL0     C88040   5.259   9.545   0.856 -0.0300  0.5319 -0.6736
  653MOL0     C88041   5.212   9.666   0.779 -0.1093  0.0948 -0.3336
  653MOL0     C88042   5.231   9.803   0.843  0.0562 -1.2979 -0.5346
  653MOL0     C88043   5.371   9.843   0.884  0.1173 -0.1783 -0.4886
  653MOL0     O88044   5.448   9.873   0.773 -0.0455 -0.3088 -0.4933
  653MOL0     C88045   5.584   9.854   0.795  0.9725  0.2626  0.3910
  653MOL0     C88046   5.654   9.952   0.863  0.7651 -0.2148  1.3385
  653MOL0     C88047   5.788   9.932   0.873  0.3988 -0.7248  1.1813
  653MOL0     C88048   5.857   9.821   0.824  0.0041  0.1590 -0.5008
  653MOL0     C88049   6.009   9.808   0.859  0.2457 -0.0982 -1.0849
  653MOL0     O88050   6.045   9.889   0.961  0.3654  0.4526 -0.0109
  653MOL0     C88051   6.179   9.891   0.994 -0.5394 -0.6398 -0.7650
  653MOL0     C88052   6.211   9.901   1.129 -0.5599  0.7642 -0.7731
  653MOL0     C88053   6.344   9.909   1.174 -0.0048  0.5123 -0.0679
  653MOL0     C88054   6.448   9.909   1.090  0.1970 -0.0228  1.3015
  653MOL0     O88055   6.565   9.925   1.160 -0.0442 -0.3398  0.2616
  653MOL0     C88056   6.663   9.998   1.085  1.0749  0.5751  0.3086
  653MOL0     C88057   6.771  10.039   1.184  0.3435 -1.1075  0.6533
  653MOL0     C88058   6.703  10.144   1.283  0.1043  0.2811 -0.0135
  653MOL0     C88059   6.803  10.209   1.379 -0.3472 -0.1719  0.5024
  653MOL0     C88060   6.861  10.099   1.469 -0.4678  0.4894  0.2384
  653MOL0     C88061   6.942  10.169   1.581  0.2921  0.6360  0.0114
  653MOL0     C88062   7.017  10.059   1.658  0.3031  0.5206  0.5755
  653MOL0     C88063   7.118  10.104   1.761  0.3721 -0.1874 -0.3049
  653MOL0    Cl88064   7.274  10.145   1.682 -0.4881 -0.4548  0.0639
  653MOL0     C88065   6.425   9.915   0.950  0.2732 -0.0331 -0.6795
  653MOL0     C88066   6.292   9.912   0.909  1.0358  0.1433  0.6177
  653MOL0     O88067   6.081   9.722   0.799 -0.3776 -0.1152 -0.1072
  653MOL0     C88068   5.787   9.730   0.750  0.1713  0.4822  0.2560
  653MOL0     C88069   5.649   9.745   0.737 -0.3672 -0.8204 -0.0641
  653MOL0     N88070   5.139   9.345   0.749 -0.1286  0.7105 -0.0074
  653MOL0     N88071   5.034   9.278   0.777  0.8542  0.4133  0.3756
  653MOL0     C88072   3.784   9.341   0.797  0.8004 -0.5333  0.8593
  653MOL0     C88073   3.647   9.349   0.784  0.2461  1.1514  0.3409
  653MOL0     C88074   3.208   9.361   0.934  0.3954 -0.6777 -0.0351
  653MOL0     C88075   3.123   9.439   0.859  0.1803  0.6820  0.1221
  653MOL0     C88076   2.990   9.415   0.856  0.3417  0.1091 -1.1232
  653MOL0     C88077   2.931   9.327   0.947  0.0977  0.5091 -0.5597
  653MOL0     O88078   2.792   9.310   0.961  0.7209  0.4494 -0.0199
  653MOL0     C88079   2.706   9.407   0.918  0.7410 -0.2397  0.5378
  653MOL0     C88080   2.647   9.373   0.777 -0.0101  0.6764 -0.1766
  653MOL0     C88081   2.539   9.261   0.810  0.1416  0.6874 -0.9097
  653MOL0     C88082   2.402   9.325   0.804  0.3419  0.8979 -0.3999
  653MOL0     C88083   2.373   9.421   0.911 -0.7573 -0.2533  0.0735
  653MOL0     C88084   2.351   9.504   0.999  0.9281  0.1421 -0.3324
  653MOL0     C88085   3.014   9.238   1.016 -0.1565  0.1656 -0.2025
  653MOL0     C88086   3.155   9.254   1.006  0.3387 -0.0075 -0.2236
  653MOL0     C88087   3.232   9.149   1.077 -0.0210 -0.6101 -0.2223
  653MOL0     H88088   3.571   9.149   1.038 -1.5949 -2.3798 -2.9116
  653MOL0     H88089   3.814   9.134   1.065  0.3820 -0.7642 -0.9830
  653MOL0     H88090   3.975   9.349   1.084 -0.4385  1.0465 -0.0593
  653MOL0     H88091   4.102   9.218   1.084 -0.3571  0.4653 -1.3810
  653MOL0     H88092   4.199   9.427   1.093 -2.3209 -3.0433  1.4271
  653MOL0     H88093   4.125   9.475   0.941 -1.4504 -2.6672 -1.2775
  653MOL0     H88094   4.236   9.252   0.833 -3.0180  0.9774 -0.5311
  653MOL0     H88095   4.330   9.246   0.984  0.3975 -0.4910 -0.4551
  653MOL0     H88096   4.277   9.456   0.766  0.6842 -1.2880 -0.8026
  653MOL0     H88097   4.358   9.507   0.914  2.3820  3.1999 -4.5056
  653MOL0     H88098   4.460   9.314   0.698 -0.3371 -1.0743  0.8489
  653MOL0     H88099   4.535   9.476   0.738  2.1513 -0.4321  1.6987
  653MOL0     H88100   4.556   9.350   0.973  0.5399 -2.5883  1.6127
  653MOL0     H88101   4.568   9.213   0.846  0.8493  0.3414 -1.0498
  653MOL0     H88102   4.738   9.460   0.830  0.6045  0.9283 -0.2840
  653MOL0     H88103   4.749   9.302   0.741  1.6555 -1.8875  2.2292
  653MOL0     H88104   4.825   9.333   1.041  1.4456 -0.8174  0.9810
  653MOL0     H88105   4.826   9.192   0.944 -1.7947 -0.2021 -1.6152
  653MOL0     H88106   5.039   9.501   1.021  0.5086  3.6223 -1.2407
  653MOL0     H88107   5.287   9.558   0.961  0.7418 -1.4966 -0.5896
  653MOL0     H88108   5.345   9.493   0.813  0.2245 -0.1129  0.5824
  653MOL0     H88109   5.268   9.663   0.685  1.8674  1.3251  0.7320
  653MOL0     H88110   5.110   9.659   0.739  0.6674 -1.7913 -2.1749
  653MOL0     H88111   5.175   9.804   0.937 -0.4737 -0.4622 -0.8519
  653MOL0     H88112   5.186   9.886   0.789 -0.8287 -0.2329  1.7093
  653MOL0     H88113   5.415   9.772   0.955  0.9289  2.1718  1.5304
  653MOL0     H88114   5.362   9.931   0.949 -0.3894 -0.9446  0.5199
  653MOL0     H88115   5.605  10.037   0.910  3.1076 -0.6192  4.8832
  653MOL0     H88116   5.831  10.013   0.932 -0.7518  0.2076  0.7789
  653MOL0     H88117   6.132   9.891   1.203 -1.2169  0.9879 -1.4242
  653MOL0     H88118   6.358   9.912   1.281 -2.0407  1.2786  0.2218
  653MOL0     H88119   6.703   9.933   1.007 -1.1940  0.3190 -0.7387
  653MOL0     H88120   6.619  10.090   1.044 -0.6889 -0.2457  0.3026
  653MOL0     H88121   6.810   9.951   1.236  2.4203 -0.8051 -0.2796
  653MOL0     H88122   6.853  10.094   1.137  0.0957  0.3769  1.8517
  653MOL0     H88123   6.645  10.225   1.237 -0.9785  1.7288  3.5167
  653MOL0     H88124   6.638  10.089   1.351  2.9914 -1.9279  1.1569
  653MOL0     H88125   6.747  10.277   1.444  2.1055  0.7392  1.7605
  653MOL0     H88126   6.870  10.276   1.325 -1.3218 -1.5394 -2.6749
  653MOL0     H88127   6.925  10.035   1.408  0.1319 -0.9260  2.2684
  653MOL0     H88128   6.789  10.026   1.505  0.5068 -2.8408 -3.7841
  653MOL0     H88129   7.006  10.249   1.543  2.4073 -0.9420  0.0749
  653MOL0     H88130   6.869  10.217   1.647  0.1075 -0.5055  0.6682
  653MOL0     H88131   7.067  10.001   1.580  4.6946  0.6835  2.9693
  653MOL0     H88132   6.949   9.994   1.713 -0.7233  0.6460 -0.4993
  653MOL0     H88133   7.076  10.199   1.795 -0.1566 -0.1942 -0.9296
  653MOL0     H88134   7.123  10.040   1.850  3.2923  1.9622  1.2793
  653MOL0     H88135   6.508   9.920   0.880  0.8547 -2.5349 -0.2500
  653MOL0     H88136   6.257   9.915   0.806  2.1869 -0.0836  0.2039
  653MOL0     H88137   5.827   9.636   0.713 -1.7422 -0.0670 -0.6134
  653MOL0     H88138   5.587   9.675   0.682 -0.6699  0.0014 -0.7891
  653MOL0     H88139   3.842   9.403   0.729 -0.5617  0.7814  0.8579
  653MOL0     H88140   3.600   9.401   0.701  0.6007 -0.5784 -1.0295
  653MOL0     H88141   3.167   9.514   0.794 -1.1631 -0.1307 -1.8364
  653MOL0     H88142   2.925   9.474   0.793 -1.5106 -0.5027  0.1483
  653MOL0     H88143   2.748   9.508   0.924 -2.2809  1.1579 -0.1227
  653MOL0     H88144   2.631   9.404   0.997  1.0175  0.2851  0.8227
  653MOL0     H88145   2.724   9.323   0.717 -0.4589  1.1348 -1.1462
  653MOL0     H88146   2.613   9.462   0.724  0.3991 -1.2430 -3.9966
  653MOL0     H88147   2.548   9.236   0.916 -1.1232  2.7763 -0.2421
  653MOL0     H88148   2.548   9.176   0.743  0.0593  1.4361 -1.8945
  653MOL0     H88149   2.373   9.370   0.708 -0.5418  0.6632 -0.2522
  653MOL0     H88150   2.328   9.244   0.803 -0.2584  1.4113  0.5823
  653MOL0     H88151   2.328   9.571   1.079 -0.5361 -1.5708  0.7396
  653MOL0     H88152   2.986   9.153   1.078  0.9008 -1.0129 -1.2934
  653MOL0     H88153   3.338   9.172   1.065 -0.3406  0.4789 -1.1041
  653MOL0     H88154   3.211   9.144   1.184 -1.1415  0.6911 -0.3533
  653MOL0     H88155   3.219   9.051   1.029 -0.4610 -0.2292 -0.8944
  654MOL0     O88156   9.826  10.133   5.370 -0.2884 -0.5084  0.2443
  654MOL0     C88157   9.831  10.121   5.244  0.4657  0.0906  0.5553
  654MOL0     O88158   9.922  10.181   5.163  0.1066  0.1191 -0.3105
  654MOL0     C88159  10.021  10.249   5.231 -0.0141 -0.1715 -0.5309
  654MOL0     C88160  10.131  10.177   5.283  0.3302  0.5230  0.8804
  654MOL0     C88161  10.245  10.230   5.327  0.9066  0.1819 -0.0755
  654MOL0     C88162  10.256  10.373   5.330 -0.5169  0.7792  0.4294
  654MOL0     O88163  10.376  10.420   5.376 -0.1484 -0.0367 -1.2971
  654MOL0     C88164  10.422  10.532   5.307  0.1807 -0.3635 -0.3048
  654MOL0     C88165  10.578  10.560   5.311 -0.3681  0.9233 -0.1458
  654MOL0     C88166  10.653  10.422   5.316 -0.2821 -0.7854  0.1172
  654MOL0     C88167  10.798  10.444   5.277 -0.6382 -0.9248  0.2843
  654MOL0     C88168  10.878  10.309   5.278  0.2050 -0.5469  0.5256
  654MOL0     C88169  11.020  10.336   5.219  0.1890 -0.6964  0.0479
  654MOL0     C88170  11.141  10.263   5.293 -0.0171 -0.0119  0.0259
  654MOL0     C88171  11.279  10.260   5.221  0.1376 -0.1605 -0.8183
  654MOL0     N88172  11.379  10.178   5.289  0.0775  0.2490 -0.3775
  654MOL0     C88173  11.425  10.203   5.417  0.3952 -0.1041  0.2609
  654MOL0     C88174  11.501  10.094   5.447  0.1850 -0.1770  0.1061
  654MOL0     C88175  11.554  10.052   5.584  0.6393  0.3070  0.0081
  654MOL0     C88176  11.459   9.946   5.653 -0.0285 -0.7725  0.1033
  654MOL0     C88177  11.340  10.012   5.725  0.2948  0.1380 -0.4450
  654MOL0     C88178  11.369  10.042   5.873  0.3853 -0.3598 -0.4423
  654MOL0     O88179  11.466  10.143   5.889 -0.3484 -0.0051 -0.5734
  654MOL0     C88180  11.531  10.165   6.009 -0.2898 -0.3461  0.0969
  654MOL0     C88181  11.483  10.119   6.138 -0.9122  0.7575 -0.9651
  654MOL0     C88182  11.554  10.146   6.261 -0.0600  1.0060 -0.4074
  654MOL0     C88183  11.673  10.219   6.246 -0.4935  0.1850 -0.0749
  654MOL0     C88184  11.745  10.251   6.368 -0.1706  1.0757  0.0834
  654MOL0     O88185  11.684  10.222   6.485  0.1707 -0.0864 -0.1728
  654MOL0     C88186  11.761  10.230   6.601 -0.7135  0.0271 -0.4095
  654MOL0     C88187  11.710  10.292   6.720  0.1019  0.0812 -0.5243
  654MOL0     C88188  11.789  10.294   6.833 -0.3624  0.4407 -0.1359
  654MOL0     C88189  11.921  10.259   6.832  0.3886  0.1495  0.6771
  654MOL0     O88190  12.003  10.284   6.939  0.5662  0.3435 -0.4276
  654MOL0     C88191  12.112  10.377   6.900 -0.3754 -0.2796 -0.2489
  654MOL0     C88192  12.206  10.428   7.012  0.7256  0.4314  0.2376
  654MOL0     C88193  12.298  10.318   7.068  0.8922 -0.1336 -0.4451
  654MOL0     C88194  12.245  10.251   7.192  0.1255 -0.2386  0.4797
  654MOL0     C88195  12.275  10.327   7.316 -0.4027  0.2663 -0.0854
  654MOL0     C88196  12.406  10.284   7.380  0.5037 -0.0058  0.7769
  654MOL0     C88197  12.454  10.366   7.498  0.2899  0.1707 -0.0250
  654MOL0     C88198  12.375  10.325   7.620 -0.9243 -0.4592  0.1136
  654MOL0    Cl88199  12.412  10.448   7.749 -0.0156  0.3996  0.1388
  654MOL0     C88200  11.976  10.205   6.717 -0.8970  0.3924  1.0427
  654MOL0     C88201  11.892  10.176   6.602  0.1990 -0.2330  0.2534
  654MOL0     O88202  11.847  10.312   6.356  0.4731  0.0623 -0.3637
  654MOL0     C88203  11.718  10.265   6.123  0.7276  0.6770 -0.2436
  654MOL0     C88204  11.649  10.237   6.007 -0.1678  0.0043 -0.4820
  654MOL0     N88205  11.507  10.015   5.333  0.2932  0.2610 -0.3950
  654MOL0     N88206  11.428  10.067   5.244  0.4648  0.6886 -0.5991
  654MOL0     C88207  10.149  10.450   5.274 -0.1527  0.3295  0.0351
  654MOL0     C88208  10.032  10.383   5.223  0.5190 -0.5546  0.9417
  654MOL0     C88209   9.716  10.053   5.175 -0.2149  0.0620  0.2036
  654MOL0     C88210   9.704  10.056   5.045  1.4034  0.4319  0.3239
  654MOL0     C88211   9.593  10.010   4.968  0.2492 -0.9494 -0.4850
  654MOL0     C88212   9.490   9.953   5.039  0.7063  0.2550  0.2391
  654MOL0     O88213   9.395   9.895   4.958  0.1909 -0.2474 -0.2116
  654MOL0     C88214   9.415   9.759   4.924 -1.0766  0.5359  0.0555
  654MOL0     C88215   9.439   9.748   4.776 -0.1609  0.3538 -0.9228
  654MOL0     C88216   9.327   9.789   4.684  0.1399  0.1279 -0.7583
  654MOL0     C88217   9.193   9.721   4.714 -0.0115  0.2329 -0.2386
  654MOL0     C88218   9.183   9.572   4.704  0.1127 -0.3071 -0.3627
  654MOL0     C88219   9.188   9.449   4.714 -0.0913 -0.0414  0.1091
  654MOL0     C88220   9.496   9.938   5.174 -0.3253 -0.2090 -0.5341
  654MOL0     C88221   9.602   9.994   5.243  0.7772 -0.2958 -0.3230
  654MOL0     C88222   9.583   9.987   5.394 -0.5631  0.1065 -0.1546
  654MOL0     H88223  10.129  10.069   5.294  0.4915  0.1228 -2.1738
  654MOL0     H88224  10.325  10.165   5.361  2.4052  1.0634 -1.7188
  654MOL0     H88225  10.389  10.519   5.204 -0.6877  0.4075 -0.1375
  654MOL0     H88226  10.363  10.619   5.338 -2.5363 -2.2356  0.1120
  654MOL0     H88227  10.599  10.615   5.403  3.9302  0.2695 -0.5638
  654MOL0     H88228  10.609  10.611   5.219 -0.4142 -0.4950 -0.9777
  654MOL0     H88229  10.604  10.347   5.253 -1.2245  0.9633 -1.3333
  654MOL0     H88230  10.648  10.380   5.417  1.5066 -1.6191 -0.1195
  654MOL0     H88231  10.795  10.494   5.179 -3.3239  2.5756  1.9392
  654MOL0     H88232  10.842  10.513   5.350 -3.1337 -0.4569  1.4456
  654MOL0     H88233  10.889  10.270   5.380 -0.1536 -1.1098  0.3539
  654MOL0     H88234  10.817  10.245   5.214  2.9281 -0.9153 -1.9417
  654MOL0     H88235  11.018  10.311   5.112  0.9963 -0.8820  0.0760
  654MOL0     H88236  11.048  10.441   5.227 -0.6327 -0.6283  3.2951
  654MOL0     H88237  11.119  10.158   5.312 -3.5962  0.1853 -2.1110
  654MOL0     H88238  11.162  10.319   5.385  1.0892 -0.3386 -0.0115
  654MOL0     H88239  11.256  10.228   5.119  0.5715 -0.3290 -0.8623
  654MOL0     H88240  11.325  10.359   5.217 -2.0957  1.1592  2.1040
  654MOL0     H88241  11.417  10.294   5.477 -0.8158  0.5349 -0.8063
  654MOL0     H88242  11.650  10.003   5.566  1.9146  2.8534 -0.6658
  654MOL0     H88243  11.569  10.139   5.648  0.5340  0.5123 -0.2419
  654MOL0     H88244  11.410   9.877   5.584 -1.5439 -0.3657  0.7297
  654MOL0     H88245  11.523   9.892   5.723 -1.3731  1.8748  3.6554
  654MOL0     H88246  11.260   9.942   5.700  1.4240 -0.5280 -2.3734
  654MOL0     H88247  11.315  10.107   5.677  4.9598  1.0588 -1.4806
  654MOL0     H88248  11.395   9.955   5.933  1.5330  1.7470  2.3604
  654MOL0     H88249  11.267  10.065   5.905  0.4419  1.6822 -1.5112
  654MOL0     H88250  11.384  10.075   6.128 -0.3035 -0.9458  0.0998
  654MOL0     H88251  11.507  10.112   6.353  4.0699 -1.1908  1.1823
  654MOL0     H88252  11.617  10.345   6.701  1.9446  2.4390 -4.0445
  654MOL0     H88253  11.760  10.343   6.926  3.0394  0.5923  0.9954
  654MOL0     H88254  12.169  10.333   6.818  0.1116 -0.9479  0.4432
  654MOL0     H88255  12.065  10.471   6.868  0.9380  1.1943  1.9282
  654MOL0     H88256  12.257  10.517   6.974 -0.2895  1.0978  0.3840
  654MOL0     H88257  12.147  10.469   7.095  1.4641  0.3804  0.8050
  654MOL0     H88258  12.320  10.238   6.997  1.5548  0.6080 -1.0930
  654MOL0     H88259  12.396  10.361   7.089 -0.7268  3.0060  1.5614
  654MOL0     H88260  12.300  10.157   7.188  1.0408  0.3130 -0.5811
  654MOL0     H88261  12.139  10.224   7.183  0.7165 -3.2916  1.4141
  654MOL0     H88262  12.191  10.317   7.386  0.7393  0.8237  1.4121
  654MOL0     H88263  12.284  10.433   7.289 -1.9429  0.8970  1.6111
  654MOL0     H88264  12.386  10.180   7.408  0.1967 -0.1643 -0.0148
  654MOL0     H88265  12.479  10.293   7.299 -0.3855  1.2196  0.0862
  654MOL0     H88266  12.419  10.469   7.482 -4.6887 -1.5064 -2.1611
  654MOL0     H88267  12.562  10.368   7.511  0.4108  2.3935 -0.9702
  654MOL0     H88268  12.270  10.330   7.592 -1.0584 -0.1489  0.6497
  654MOL0     H88269  12.399  10.232   7.673  0.5874  1.4177  2.9920
  654MOL0     H88270  12.077  10.172   6.698 -1.2331 -0.1511  0.1350
  654MOL0     H88271  11.931  10.114   6.523  3.4284 -0.8706  2.1562
  654MOL0     H88272  11.813  10.312   6.102  1.0922  0.0289 -0.0572
  654MOL0     H88273  11.683  10.269   5.909 -1.7863  0.7638 -0.8357
  654MOL0     H88274  10.174  10.555   5.260  1.4111 -0.1849 -1.3363
  654MOL0     H88275   9.956  10.446   5.178  2.0462  1.3824  0.9414
  654MOL0     H88276   9.784  10.106   4.991  0.8454 -0.2606 -1.1959
  654MOL0     H88277   9.600  10.014   4.860  0.8506  2.7755 -0.4514
  654MOL0     H88278   9.328   9.704   4.959 -0.7870  1.8476  3.0796
  654MOL0     H88279   9.500   9.715   4.977 -1.9611 -3.3617 -1.4078
  654MOL0     H88280   9.460   9.645   4.744  0.3743 -0.5223  1.9439
  654MOL0     H88281   9.525   9.810   4.748 -0.6255  1.4103 -0.0401
  654MOL0     H88282   9.361   9.770   4.581 -2.8308  0.7171 -1.9485
  654MOL0     H88283   9.307   9.897   4.687  0.9321  0.3684 -2.4525
  654MOL0     H88284   9.152   9.759   4.808  1.4898  2.7605 -0.5322
  654MOL0     H88285   9.120   9.757   4.640  0.7325  0.5462 -0.8314
  654MOL0     H88286   9.198   9.343   4.726 -3.7352 -0.6923 -1.1759
  654MOL0     H88287   9.419   9.879   5.223 -1.3869  0.4343 -1.3858
  654MOL0     H88288   9.573  10.083   5.445  2.9591 -0.4633  1.9775
  654MOL0     H88289   9.491   9.937   5.426 -1.3249  0.6713 -1.4147
  654MOL0     H88290   9.667   9.937   5.444 -1.7261 -0.5731  1.2008
  655MOL0     O88291   1.393   4.422   3.063 -0.3019  0.2057 -0.4002
  655MOL0     C88292   1.369   4.482   2.958  0.3592  0.9797 -0.8984
  655MOL0     O88293   1.468   4.525   2.870 -0.3016 -0.4428 -0.0217
  655MOL0     C88294   1.601   4.535   2.904 -0.3231  0.3185 -0.1406
  655MOL0     C88295   1.652   4.649   2.956 -0.3819  0.0653 -0.5797
  655MOL0     C88296   1.784   4.664   2.986 -0.0658 -0.0932  0.2755
  655MOL0     C88297   1.877   4.563   2.948 -0.6384  0.4133  0.7555
  655MOL0     O88298   2.012   4.587   2.970 -0.6802 -0.4398 -0.2462
  655MOL0     C88299   2.091   4.470   2.968  0.2026  0.0520  0.0733
  655MOL0     C88300   2.221   4.495   3.050  0.3750  0.0075 -0.4834
  655MOL0     C88301   2.343   4.547   2.974  0.2624 -0.2908  0.6831
  655MOL0     C88302   2.464   4.585   3.071  0.5458  0.1274  0.3782
  655MOL0     C88303   2.587   4.651   3.006  0.4559 -0.4214 -0.3647
  655MOL0     C88304   2.667   4.555   2.912 -0.4399 -0.2527 -0.2755
  655MOL0     C88305   2.795   4.618   2.878 -0.9816 -0.5178 -0.0376
  655MOL0     C88306   2.879   4.528   2.784  0.6372 -0.7366 -0.3234
  655MOL0     N88307   2.982   4.590   2.716  0.5844  0.3023 -0.0375
  655MOL0     C88308   3.043   4.556   2.606 -0.0447  0.0581 -0.6756
  655MOL0     C88309   3.136   4.649   2.574  0.0681 -0.0900  0.3657
  655MOL0     C88310   3.231   4.626   2.464  0.3990 -0.4760 -0.4270
  655MOL0     C88311   3.360   4.559   2.507 -0.5771 -0.1924 -0.2115
  655MOL0     C88312   3.441   4.522   2.388  0.0438  0.0333  0.3219
  655MOL0     C88313   3.386   4.417   2.296 -0.4462 -0.3771 -0.4182
  655MOL0     O88314   3.439   4.429   2.164 -0.2795  0.0985  0.3662
  655MOL0     C88315   3.577   4.458   2.151 -0.4844  0.0002 -0.8678
  655MOL0     C88316   3.612   4.572   2.085  0.2807  0.4229  0.2244
  655MOL0     C88317   3.747   4.586   2.051 -0.1436 -0.0739  1.2519
  655MOL0     C88318   3.854   4.508   2.102  0.1157  0.9780 -0.6311
  655MOL0     C88319   3.994   4.541   2.061 -0.6429 -0.2051  0.8855
  655MOL0     O88320   4.020   4.645   1.971  0.6048  0.2062 -0.0310
  655MOL0     C88321   4.142   4.666   1.919  0.2289 -0.1962 -0.6327
  655MOL0     C88322   4.188   4.587   1.810  0.4489  0.1940 -0.3209
  655MOL0     C88323   4.320   4.614   1.760  0.9369  0.0398 -0.1170
  655MOL0     C88324   4.392   4.729   1.810 -0.3362 -0.2786  0.2138
  655MOL0     O88325   4.512   4.777   1.768 -0.1023 -0.4617  0.3649
  655MOL0     C88326   4.610   4.687   1.712 -0.1582  0.0140 -0.4595
  655MOL0     C88327   4.736   4.757   1.665  0.8483  1.1846  0.5706
  655MOL0     C88328   4.800   4.841   1.782 -0.3126 -0.5895  0.4278
  655MOL0     C88329   4.932   4.892   1.733  0.6156 -0.0336 -0.0289
  655MOL0     C88330   5.020   4.972   1.828 -0.3483  0.1869 -0.1539
  655MOL0     C88331   5.147   5.020   1.752  0.8687 -0.1046 -1.1566
  655MOL0     C88332   5.114   5.112   1.632 -0.9076  0.0449  0.7663
  655MOL0     C88333   5.240   5.181   1.573  0.5395  1.1771  0.2091
  655MOL0    Cl88334   5.288   5.325   1.666 -0.2525 -0.2019  0.1280
  655MOL0     C88335   4.342   4.806   1.912  0.2595 -0.2447 -0.5718
  655MOL0     C88336   4.214   4.778   1.971  0.3764 -0.1239  0.0073
  655MOL0     O88337   4.075   4.467   2.107 -0.3801  0.0328 -0.3986
  655MOL0     C88338   3.813   4.399   2.184  0.4171  0.0697 -0.6220
  655MOL0     C88339   3.675   4.372   2.200  0.1717 -0.0363 -0.8177
  655MOL0     N88340   3.130   4.746   2.669  0.0854  0.1355  0.2964
  655MOL0     N88341   3.038   4.712   2.754 -0.0953 -0.1328 -0.0604
  655MOL0     C88342   1.822   4.446   2.887 -0.2618 -0.1468 -0.3738
  655MOL0     C88343   1.682   4.431   2.866  0.5284 -0.1099 -0.0081
  655MOL0     C88344   1.228   4.494   2.914  0.9452 -0.5965 -0.5830
  655MOL0     C88345   1.204   4.523   2.773  0.2237 -0.2716  0.3587
  655MOL0     C88346   1.073   4.530   2.728 -0.3120 -0.0769  0.2497
  655MOL0     C88347   0.965   4.502   2.806  0.5383  0.2971  0.5043
  655MOL0     O88348   0.839   4.525   2.740 -0.8864 -0.3761 -0.4716
  655MOL0     C88349   0.715   4.538   2.823 -0.4144 -0.4397  0.0761
  655MOL0     C88350   0.657   4.411   2.886  0.1096 -0.4332  0.5045
  655MOL0     C88351   0.512   4.392   2.839 -0.1992 -0.0750  0.1443
  655MOL0     C88352   0.432   4.304   2.945  0.0479  0.8320  0.3127
  655MOL0     C88353   0.299   4.285   2.891  0.4705 -0.5670 -0.1897
  655MOL0     C88354   0.186   4.243   2.864 -0.3317 -0.3638  0.2099
  655MOL0     C88355   0.986   4.469   2.936 -0.0819  0.6298 -0.3723
  655MOL0     C88356   1.115   4.454   2.988  0.4597  0.2791  0.3035
  655MOL0     C88357   1.123   4.412   3.137  0.6760  0.6568 -0.1443
  655MOL0     H88358   1.575   4.725   2.968 -1.6141 -1.4017  1.3549
  655MOL0     H88359   1.826   4.758   3.022 -1.0178  0.6330 -0.4893
  655MOL0     H88360   2.045   4.385   3.019  0.2049 -0.4913 -0.8245
  655MOL0     H88361   2.118   4.439   2.867 -0.6379  1.3220 -0.5619
  655MOL0     H88362   2.255   4.416   3.116  0.9307  1.0136  0.4625
  655MOL0     H88363   2.189   4.579   3.113  0.5905  0.0352 -0.4135
  655MOL0     H88364   2.317   4.643   2.929  0.1688 -0.5594  0.1608
  655MOL0     H88365   2.381   4.483   2.893  0.3067  0.5951 -0.0134
  655MOL0     H88366   2.422   4.658   3.140  0.7695 -0.3941  1.0690
  655MOL0     H88367   2.484   4.498   3.135 -0.9391  0.6545  1.5982
  655MOL0     H88368   2.549   4.745   2.965  0.4764 -0.2054  0.0998
  655MOL0     H88369   2.652   4.668   3.093 -1.7102  1.8276  0.9952
  655MOL0     H88370   2.688   4.463   2.968 -1.1741  0.9168  2.0647
  655MOL0     H88371   2.609   4.533   2.822  1.4770 -1.1037 -1.3639
  655MOL0     H88372   2.829   4.640   2.980  0.0561  0.3490 -0.5502
  655MOL0     H88373   2.765   4.706   2.822  1.2149  0.3645  0.0560
  655MOL0     H88374   2.922   4.447   2.845 -0.2151 -1.8909 -1.2196
  655MOL0     H88375   2.814   4.487   2.707  0.7623 -0.9451 -0.3179
  655MOL0     H88376   3.041   4.460   2.555  1.8566  0.0418 -0.8035
  655MOL0     H88377   3.170   4.575   2.389 -1.1634 -0.7787  0.9913
  655MOL0     H88378   3.269   4.722   2.428 -0.6998 -0.1970 -0.9011
  655MOL0     H88379   3.407   4.627   2.578 -1.0801  0.2959 -0.3348
  655MOL0     H88380   3.326   4.477   2.570 -2.6109  1.0379  0.4104
  655MOL0     H88381   3.538   4.484   2.422 -0.6328 -1.3644  0.7695
  655MOL0     H88382   3.450   4.614   2.330  2.8322 -2.0759 -3.0334
  655MOL0     H88383   3.277   4.427   2.290 -0.4433  0.8451  1.0238
  655MOL0     H88384   3.414   4.318   2.334  0.4481 -0.6884 -1.8045
  655MOL0     H88385   3.537   4.637   2.041  1.6008  2.1269  0.3778
  655MOL0     H88386   3.777   4.660   1.978 -0.2268 -0.2736  1.0143
  655MOL0     H88387   4.146   4.492   1.777  2.1147 -0.0548 -1.8774
  655MOL0     H88388   4.349   4.553   1.675 -1.4745  0.6244 -1.4456
  655MOL0     H88389   4.644   4.623   1.794 -0.0031  0.4484 -0.1823
  655MOL0     H88390   4.569   4.622   1.634 -2.4402  0.9496 -0.1230
  655MOL0     H88391   4.799   4.675   1.629  0.3708 -0.0547  2.4112
  655MOL0     H88392   4.705   4.827   1.587 -3.3227  1.2272  2.0471
  655MOL0     H88393   4.733   4.926   1.801 -2.1210 -1.0080 -3.2162
  655MOL0     H88394   4.807   4.784   1.875  1.0422  0.1094  0.7918
  655MOL0     H88395   4.917   4.966   1.653  4.9095  1.3814  0.2494
  655MOL0     H88396   4.993   4.813   1.689  2.3496  0.8752  0.6355
  655MOL0     H88397   5.055   4.909   1.910  1.1037 -1.2214 -1.8007
  655MOL0     H88398   4.963   5.050   1.881 -0.6182 -0.4231  0.4699
  655MOL0     H88399   5.200   5.089   1.819 -2.8310  2.2729 -0.4132
  655MOL0     H88400   5.204   4.934   1.717 -1.2967 -2.9581  1.7648
  655MOL0     H88401   5.027   5.177   1.649 -1.4573 -0.5729  0.3787
  655MOL0     H88402   5.083   5.035   1.560 -1.7614  0.6786  0.4301
  655MOL0     H88403   5.319   5.106   1.576  1.2204  1.9072  1.1961
  655MOL0     H88404   5.227   5.216   1.470  1.9660  0.7103 -0.1521
  655MOL0     H88405   4.390   4.899   1.944  0.5509  1.0279 -4.1897
  655MOL0     H88406   4.167   4.835   2.051  1.0313 -2.3029  2.0736
  655MOL0     H88407   3.889   4.328   2.216  1.3394 -0.1701 -3.1197
  655MOL0     H88408   3.653   4.280   2.253 -0.5100  1.0331  0.8236
  655MOL0     H88409   1.871   4.355   2.855 -0.7102 -0.0822 -1.2941
  655MOL0     H88410   1.640   4.341   2.822 -1.6657  0.0376  1.6382
  655MOL0     H88411   1.280   4.540   2.697  2.2518 -1.9527  1.8587
  655MOL0     H88412   1.063   4.553   2.623  0.2647 -0.9428 -0.0051
  655MOL0     H88413   0.644   4.572   2.747  1.2139 -0.3579 -1.4712
  655MOL0     H88414   0.727   4.616   2.899 -1.4109 -0.1547 -0.0494
  655MOL0     H88415   0.644   4.412   2.995 -2.2824  0.3381  0.2663
  655MOL0     H88416   0.729   4.334   2.857  0.5856 -0.1604  0.9517
  655MOL0     H88417   0.508   4.331   2.749  0.5304 -0.5136  0.4031
  655MOL0     H88418   0.454   4.485   2.835 -2.9951 -1.7078 -0.3866
  655MOL0     H88419   0.470   4.205   2.971 -3.0469 -1.0995 -1.8078
  655MOL0     H88420   0.428   4.352   3.043 -1.8565  2.6268 -0.5500
  655MOL0     H88421   0.095   4.201   2.827 -0.7102 -1.6844  2.4989
  655MOL0     H88422   0.904   4.445   3.003  1.4790  1.2828  1.9039
  655MOL0     H88423   1.180   4.487   3.192 -0.8129  0.3622  1.8955
  655MOL0     H88424   1.027   4.404   3.188  0.7576 -1.1683 -0.1958
  655MOL0     H88425   1.180   4.320   3.154  0.9524  0.6093 -1.2000
  656MOL0     O88426   5.328   3.264   1.939 -0.2899  0.4570  0.3143
  656MOL0     C88427   5.313   3.150   1.892 -0.3031 -0.1600  0.0114
  656MOL0     O88428   5.410   3.070   1.838 -0.1808 -0.6409 -0.3478
  656MOL0     C88429   5.542   3.124   1.841 -0.4134 -0.0488 -0.3002
  656MOL0     C88430   5.568   3.229   1.749  0.2389  0.0515  0.1891
  656MOL0     C88431   5.698   3.293   1.755  0.2414 -0.0492  0.3772
  656MOL0     C88432   5.794   3.243   1.842 -0.4223 -0.0802  0.5576
  656MOL0     O88433   5.924   3.283   1.848  0.2083 -0.2611 -0.1072
  656MOL0     C88434   5.975   3.364   1.752 -0.8734  1.0818  0.3495
  656MOL0     C88435   6.127   3.390   1.761 -0.3333 -0.8367 -0.1633
  656MOL0     C88436   6.177   3.470   1.639 -0.1687  0.1400  0.9243
  656MOL0     C88437   6.329   3.518   1.664  1.6045  0.3702  0.2770
  656MOL0     C88438   6.368   3.612   1.561  0.1622 -0.2226  0.0172
  656MOL0     C88439   6.508   3.674   1.614 -0.2366 -0.6788 -0.3863
  656MOL0     C88440   6.577   3.747   1.497 -0.6976 -1.1265  0.1418
  656MOL0     C88441   6.715   3.804   1.527  0.1439  0.8060 -1.4108
  656MOL0     N88442   6.781   3.898   1.436 -0.1462 -1.1147 -0.6804
  656MOL0     C88443   6.906   3.943   1.459  0.0815  0.3759  0.2384
  656MOL0     C88444   6.917   4.047   1.368 -0.9919 -0.1138  0.5437
  656MOL0     C88445   7.036   4.134   1.329  0.7712 -0.2201  0.2265
  656MOL0     C88446   7.151   4.103   1.421  0.1177  0.7256  0.0994
  656MOL0     C88447   7.263   4.209   1.414 -0.5542  0.4499 -0.3036
  656MOL0     C88448   7.324   4.253   1.279 -0.9798 -0.2165 -0.3583
  656MOL0     O88449   7.396   4.150   1.214 -0.7065 -0.1279  1.1051
  656MOL0     C88450   7.530   4.115   1.255  1.1016 -0.3747  0.1255
  656MOL0     C88451   7.588   4.013   1.183  0.2822  0.2861 -0.1689
  656MOL0     C88452   7.715   3.975   1.214 -0.4264 -0.8057  0.3125
  656MOL0     C88453   7.786   4.031   1.323 -0.1104  0.2829 -0.2676
  656MOL0     C88454   7.925   3.999   1.354  0.1083  0.2817 -0.3557
  656MOL0     O88455   7.991   4.068   1.446 -0.3587  0.5321 -0.3781
  656MOL0     C88456   8.128   4.056   1.466  0.0710  0.2034 -1.2883
  656MOL0     C88457   8.189   4.159   1.540 -0.1708 -1.0058  0.8305
  656MOL0     C88458   8.330   4.168   1.562  0.9898 -0.0463  0.2729
  656MOL0     C88459   8.407   4.059   1.519 -0.3998  0.1867 -0.8377
  656MOL0     O88460   8.543   4.078   1.536  0.1030  0.1176  0.2377
  656MOL0     C88461   8.634   3.989   1.468 -0.3000  0.4739 -0.8802
  656MOL0     C88462   8.776   4.042   1.487 -0.0041 -0.5632  0.4946
  656MOL0     C88463   8.876   3.953   1.411 -0.3415  0.6838  0.0093
  656MOL0     C88464   9.025   3.955   1.461 -0.3815 -0.9608  0.9409
  656MOL0     C88465   9.118   3.871   1.371  0.0927 -0.5790 -0.8808
  656MOL0     C88466   9.269   3.894   1.403  1.0292 -0.5826  0.0775
  656MOL0     C88467   9.364   3.821   1.303 -0.0471 -0.8407  0.3754
  656MOL0     C88468   9.324   3.680   1.275  1.3517  0.4502  1.2556
  656MOL0    Cl88469   9.351   3.569   1.418  0.0041  0.0132 -0.4859
  656MOL0     C88470   8.346   3.943   1.465 -0.1491 -0.7588 -0.4223
  656MOL0     C88471   8.204   3.941   1.436 -0.5296 -0.2833 -0.3174
  656MOL0     O88472   7.982   3.926   1.277  0.1579  0.7585  1.0808
  656MOL0     C88473   7.730   4.142   1.389  0.4503 -0.4917  1.0854
  656MOL0     C88474   7.596   4.186   1.355  0.0946 -0.3743 -0.2060
  656MOL0     N88475   6.802   4.060   1.290  0.8547 -0.5600  0.0072
  656MOL0     N88476   6.725   3.968   1.333  0.3696  0.0072  0.2309
  656MOL0     C88477   5.761   3.136   1.926 -0.8426  0.0367  0.3840
  656MOL0     C88478   5.639   3.070   1.927 -0.1843  0.5056 -0.0159
  656MOL0     C88479   5.180   3.081   1.910 -0.2235 -0.1398  0.4163
  656MOL0     C88480   5.179   2.939   1.912 -0.7054  0.4756  0.7801
  656MOL0     C88481   5.065   2.862   1.932  0.6158 -0.6122 -0.4425
  656MOL0     C88482   4.947   2.929   1.973  0.8352 -0.2201  0.0654
  656MOL0     O88483   4.829   2.867   1.998 -0.2699 -0.7048 -0.6143
  656MOL0     C88484   4.834   2.721   2.016  0.2264 -0.9642 -0.4312
  656MOL0     C88485   4.722   2.665   2.092  0.8154  0.6968 -1.0614
  656MOL0     C88486   4.683   2.739   2.218  0.3226  1.0820 -0.4333
  656MOL0     C88487   4.605   2.648   2.310  0.5877  0.0484 -0.1887
  656MOL0     C88488   4.556   2.736   2.413 -0.2298 -0.4740 -0.1918
  656MOL0     C88489   4.509   2.831   2.482 -0.6945 -0.5662 -0.7274
  656MOL0     C88490   4.947   3.069   1.977 -0.7487  0.5121 -0.6468
  656MOL0     C88491   5.059   3.148   1.943  0.0448 -0.4564 -0.5909
  656MOL0     C88492   5.051   3.297   1.967  0.9860 -1.2716  0.2059
  656MOL0     H88493   5.493   3.265   1.680  0.8724  2.0954  0.4789
  656MOL0     H88494   5.716   3.372   1.684  0.6682 -0.6796 -0.2337
  656MOL0     H88495   5.961   3.311   1.657  1.5987  2.1622 -0.7156
  656MOL0     H88496   5.925   3.462   1.751  0.7007  1.9326  0.7917
  656MOL0     H88497   6.182   3.295   1.765  0.7176 -0.2866 -1.0999
  656MOL0     H88498   6.142   3.451   1.851  1.4934  0.6662 -1.4091
  656MOL0     H88499   6.127   3.567   1.627 -1.1579 -0.4378  0.1710
  656MOL0     H88500   6.180   3.411   1.547  0.0364  0.3915  0.7647
  656MOL0     H88501   6.314   3.567   1.761 -1.1231  3.2478 -1.4146
  656MOL0     H88502   6.398   3.433   1.665 -1.2580 -2.1576 -0.3659
  656MOL0     H88503   6.366   3.565   1.462  0.7527 -1.5838  0.6299
  656MOL0     H88504   6.298   3.695   1.565  0.6052  0.1359  0.3406
  656MOL0     H88505   6.472   3.754   1.680  0.6675 -1.2283  0.7968
  656MOL0     H88506   6.575   3.597   1.652  0.5212 -0.3591 -1.0509
  656MOL0     H88507   6.516   3.832   1.465 -0.8273 -1.0428  0.6056
  656MOL0     H88508   6.588   3.680   1.411  0.7862 -1.2981  0.4343
  656MOL0     H88509   6.707   3.861   1.621 -0.0243 -0.8148 -0.3954
  656MOL0     H88510   6.782   3.720   1.548 -0.7480  0.2386 -0.7408
  656MOL0     H88511   6.985   3.915   1.527  0.5707  1.6407  0.2183
  656MOL0     H88512   7.073   4.116   1.228  0.6326  0.9346 -0.0392
  656MOL0     H88513   7.006   4.238   1.347  0.7088 -0.1216 -0.4364
  656MOL0     H88514   7.111   4.096   1.522  2.5631 -3.8333  1.0469
  656MOL0     H88515   7.198   4.007   1.396 -1.8211 -0.2600  0.0519
  656MOL0     H88516   7.345   4.175   1.479 -0.6812 -1.6148 -1.1667
  656MOL0     H88517   7.222   4.304   1.451 -1.4548 -1.0708  2.9491
  656MOL0     H88518   7.387   4.342   1.286 -0.9089 -0.1423 -1.6580
  656MOL0     H88519   7.239   4.288   1.219  0.1074 -0.3199 -2.0226
  656MOL0     H88520   7.514   3.965   1.120 -0.2513  1.2253 -0.2848
  656MOL0     H88521   7.760   3.889   1.165 -1.8074 -0.5418 -1.5501
  656MOL0     H88522   8.123   4.240   1.568  0.2396 -0.3521 -0.0709
  656MOL0     H88523   8.357   4.247   1.632 -0.2474 -1.2129  2.1496
  656MOL0     H88524   8.630   3.896   1.525 -0.1485  1.7810  1.3509
  656MOL0     H88525   8.597   3.968   1.367  0.1090 -1.3012 -0.7043
  656MOL0     H88526   8.789   4.146   1.454  0.0897 -0.5611  0.5374
  656MOL0     H88527   8.794   4.042   1.595  0.9092  2.6181  0.4587
  656MOL0     H88528   8.841   3.850   1.418  1.2283  0.1581  0.5110
  656MOL0     H88529   8.859   3.976   1.306 -1.2919 -0.9560 -0.2324
  656MOL0     H88530   9.022   3.937   1.569 -0.8535  0.2658  1.1503
  656MOL0     H88531   9.068   4.053   1.438  1.4503 -2.4254 -2.6449
  656MOL0     H88532   9.125   3.896   1.264  2.6600  1.8472 -0.2741
  656MOL0     H88533   9.092   3.767   1.392  1.4178 -0.5951  0.9146
  656MOL0     H88534   9.291   4.001   1.409  2.4221 -0.8475 -0.0202
  656MOL0     H88535   9.285   3.857   1.505  1.2823  3.2767  1.6220
  656MOL0     H88536   9.467   3.808   1.337  0.5566 -1.5361 -1.5941
  656MOL0     H88537   9.361   3.880   1.211  0.6179 -0.3756  0.6481
  656MOL0     H88538   9.224   3.672   1.233  2.9962 -1.7853 -2.9096
  656MOL0     H88539   9.385   3.647   1.190 -3.7220 -0.0097 -2.6752
  656MOL0     H88540   8.408   3.856   1.446 -0.3342 -0.9206 -0.2940
  656MOL0     H88541   8.162   3.860   1.377  1.8600 -1.9629  0.1392
  656MOL0     H88542   7.787   4.190   1.467  1.4228 -1.9175  1.2956
  656MOL0     H88543   7.546   4.262   1.414  1.7092 -1.0482  2.1335
  656MOL0     H88544   5.840   3.103   1.993  0.2041  0.3790 -0.6511
  656MOL0     H88545   5.606   2.984   1.984 -3.6909  1.4063 -0.4368
  656MOL0     H88546   5.270   2.883   1.893  0.9300  3.0297  0.6188
  656MOL0     H88547   5.070   2.753   1.923  1.6799 -0.8930  2.5338
  656MOL0     H88548   4.924   2.686   2.068 -0.3055 -1.1161  0.3984
  656MOL0     H88549   4.826   2.676   1.917  4.2382 -0.9726 -0.9297
  656MOL0     H88550   4.750   2.560   2.108 -3.0734 -0.7473 -2.5381
  656MOL0     H88551   4.626   2.660   2.040 -1.2978 -1.3753  2.5909
  656MOL0     H88552   4.632   2.830   2.186 -2.2271  0.8442  2.4736
  656MOL0     H88553   4.776   2.774   2.263 -0.3121  1.1081  0.8976
  656MOL0     H88554   4.517   2.612   2.255  0.6680 -0.3280 -0.0709
  656MOL0     H88555   4.672   2.567   2.341 -3.3514 -2.9075  1.5282
  656MOL0     H88556   4.458   2.893   2.553 -0.5675 -2.7392  1.4142
  656MOL0     H88557   4.855   3.118   2.005 -1.5772 -1.2996  0.0161
  656MOL0     H88558   4.949   3.325   1.937  1.5432  0.1394 -0.4408
  656MOL0     H88559   5.056   3.332   2.070  1.0242  3.5598 -1.1994
  656MOL0     H88560   5.113   3.344   1.891 -0.1500 -2.0519 -1.2680
  657MOL0     O88561   4.094   6.927   6.289  0.1442 -0.3182  0.3467
  657MOL0     C88562   4.178   6.844   6.321 -0.0394 -0.2754 -0.7826
  657MOL0     O88563   4.158   6.749   6.422 -0.5175  0.3079 -0.3193
  657MOL0     C88564   4.062   6.776   6.508  0.2919  0.2213  0.0475
  657MOL0     C88565   3.954   6.685   6.523  0.1761 -0.3165  0.9270
  657MOL0     C88566   3.842   6.716   6.596 -1.2137  0.8866  0.5694
  657MOL0     C88567   3.837   6.835   6.674 -0.2233  0.2442 -0.9836
  657MOL0     O88568   3.730   6.870   6.755 -0.2745 -0.2889 -0.1356
  657MOL0     C88569   3.600   6.828   6.714 -0.4877 -0.5722  0.9411
  657MOL0     C88570   3.502   6.924   6.774  0.1924 -0.1152 -0.2237
  657MOL0     C88571   3.526   7.057   6.710  0.2105  0.3059  0.0443
  657MOL0     C88572   3.404   7.150   6.753 -0.0004 -0.7329  0.6337
  657MOL0     C88573   3.421   7.291   6.701  0.2262 -0.7085 -0.1604
  657MOL0     C88574   3.294   7.376   6.709  0.3685  0.9974 -0.7671
  657MOL0     C88575   3.335   7.520   6.734 -0.7127 -0.1258 -1.1352
  657MOL0     C88576   3.216   7.616   6.720 -0.0225 -0.1932  0.9192
  657MOL0     N88577   3.108   7.605   6.830  1.0642 -0.0730  0.1887
  657MOL0     C88578   2.985   7.531   6.823  0.3901  0.1940 -0.3418
  657MOL0     C88579   2.903   7.591   6.918  0.3438 -0.9363  0.1616
  657MOL0     C88580   2.759   7.552   6.931  0.4769  0.0585  0.2849
  657MOL0     C88581   2.652   7.616   6.856 -0.6836  0.2663  0.1449
  657MOL0     C88582   2.685   7.616   6.712  0.2877 -0.5681  0.6641
  657MOL0     C88583   2.563   7.653   6.637 -0.2568  0.1208 -0.7247
  657MOL0     O88584   2.585   7.686   6.497  0.6620 -0.1088 -0.3491
  657MOL0     C88585   2.639   7.812   6.467  0.2873 -1.0970 -1.0401
  657MOL0     C88586   2.771   7.827   6.436 -0.0924  0.8701  0.2480
  657MOL0     C88587   2.828   7.952   6.400 -1.2265  0.2036 -0.0923
  657MOL0     C88588   2.755   8.068   6.403  0.1854 -0.3773 -0.2087
  657MOL0     C88589   2.825   8.194   6.370 -0.3121 -0.5568 -0.5926
  657MOL0     O88590   2.964   8.191   6.383 -0.1975 -0.3483 -0.0332
  657MOL0     C88591   3.039   8.299   6.375  0.4255  0.5832  0.0941
  657MOL0     C88592   3.075   8.357   6.258  0.2416 -0.4523 -0.6631
  657MOL0     C88593   3.168   8.463   6.261 -0.7636  0.4999  0.6595
  657MOL0     C88594   3.226   8.498   6.383  0.1277 -0.1392  0.5266
  657MOL0     O88595   3.303   8.612   6.404 -0.1782  0.0017 -0.0095
  657MOL0     C88596   3.433   8.596   6.338 -0.3856  0.4455  0.0039
  657MOL0     C88597   3.535   8.520   6.423 -0.1659 -0.4721  0.2723
  657MOL0     C88598   3.681   8.557   6.392  0.3475 -0.1282 -0.8273
  657MOL0     C88599   3.709   8.510   6.245  0.6027  0.2706 -0.2558
  657MOL0     C88600   3.853   8.484   6.206 -0.3424 -0.1139  0.3461
  657MOL0     C88601   3.937   8.610   6.194  0.6897  0.0282  0.2222
  657MOL0     C88602   4.026   8.592   6.065  0.1941  0.0210  0.3012
  657MOL0     C88603   4.124   8.714   6.037  0.3534  0.0848  0.8553
  657MOL0    Cl88604   4.192   8.737   5.882 -0.2808  0.0913 -0.2656
  657MOL0     C88605   3.184   8.439   6.498 -0.5230 -0.4999 -0.0803
  657MOL0     C88606   3.099   8.340   6.490  0.6962 -0.0204 -0.1045
  657MOL0     O88607   2.759   8.298   6.348 -0.1977  0.2235 -0.0250
  657MOL0     C88608   2.618   8.050   6.443  0.4127  0.1153  0.0250
  657MOL0     C88609   2.563   7.919   6.473  0.4519 -0.7884  1.2458
  657MOL0     N88610   2.982   7.684   6.991  0.4472 -0.1071 -0.3188
  657MOL0     N88611   3.098   7.693   6.936 -0.6800  0.1179  0.0073
  657MOL0     C88612   3.940   6.926   6.664 -0.0664 -0.8415  0.5219
  657MOL0     C88613   4.051   6.892   6.589 -0.8034 -0.6506  0.2484
  657MOL0     C88614   4.313   6.846   6.258  0.4279  0.0027  1.0918
  657MOL0     C88615   4.420   6.815   6.342  0.9952  0.8267 -0.1669
  657MOL0     C88616   4.553   6.811   6.286 -0.1792  0.4596  0.3051
  657MOL0     C88617   4.572   6.830   6.152  0.0026  0.0741  0.0441
  657MOL0     O88618   4.696   6.819   6.093  0.6684 -0.3221  0.2096
  657MOL0     C88619   4.811   6.779   6.168  0.0664  0.0029 -0.7751
  657MOL0     C88620   4.927   6.749   6.070  1.6849 -0.5137  0.9383
  657MOL0     C88621   5.058   6.779   6.136 -1.5101  0.7732  0.5765
  657MOL0     C88622   5.178   6.707   6.074  0.8201  0.2163 -0.5646
  657MOL0     C88623   5.175   6.742   5.929 -0.2238  0.4329 -0.8419
  657MOL0     C88624   5.182   6.793   5.814 -0.4171 -0.1811 -0.1761
  657MOL0     C88625   4.465   6.870   6.075  0.0638 -0.1332  0.8819
  657MOL0     C88626   4.333   6.874   6.123  0.0954  0.4960  0.6072
  657MOL0     C88627   4.220   6.919   6.032 -0.7644 -0.5389 -0.0942
  657MOL0     H88628   3.952   6.593   6.467 -1.0449 -2.1842  3.8216
  657MOL0     H88629   3.749   6.661   6.583 -1.7563  1.8090  0.4122
  657MOL0     H88630   3.602   6.836   6.604  3.8962  0.7595  0.9340
  657MOL0     H88631   3.568   6.725   6.733 -0.3394 -0.7189  0.4290
  657MOL0     H88632   3.504   6.918   6.883 -1.7245 -2.0201 -0.2164
  657MOL0     H88633   3.399   6.898   6.747  0.0428 -0.6839  0.8234
  657MOL0     H88634   3.523   7.050   6.601  3.8744  2.2934 -0.3375
  657MOL0     H88635   3.623   7.101   6.737 -0.9478  2.9414  0.2477
  657MOL0     H88636   3.313   7.112   6.705  0.5451  0.9971 -1.9341
  657MOL0     H88637   3.394   7.142   6.862 -2.2298  3.0385  0.8921
  657MOL0     H88638   3.488   7.339   6.772  1.2996 -2.8590  0.3711
  657MOL0     H88639   3.454   7.290   6.597  0.4685  1.2654 -0.1244
  657MOL0     H88640   3.231   7.373   6.619 -0.8800  0.9758  0.0905
  657MOL0     H88641   3.228   7.338   6.788 -0.2089  0.4182 -1.5033
  657MOL0     H88642   3.411   7.551   6.662  2.1085  1.0692  2.0417
  657MOL0     H88643   3.385   7.535   6.831  0.4280 -0.1786 -1.7026
  657MOL0     H88644   3.268   7.712   6.716  0.7852 -0.6727 -1.4852
  657MOL0     H88645   3.173   7.602   6.621 -0.4860 -0.1654  1.1150
  657MOL0     H88646   2.951   7.469   6.741 -0.4694 -0.6120  0.5874
  657MOL0     H88647   2.750   7.444   6.920  0.1508  0.1771 -0.6684
  657MOL0     H88648   2.737   7.566   7.037 -1.1909  0.4769 -0.0801
  657MOL0     H88649   2.562   7.554   6.865 -0.0955 -0.9724 -1.7656
  657MOL0     H88650   2.635   7.714   6.902  0.7640  0.0762  1.1488
  657MOL0     H88651   2.716   7.517   6.680  1.1321 -0.6920  1.7828
  657MOL0     H88652   2.765   7.690   6.701 -2.2212  2.3349  0.5621
  657MOL0     H88653   2.518   7.741   6.684  1.0674  0.0575  0.7655
  657MOL0     H88654   2.495   7.568   6.640  3.7231 -3.3421 -0.0785
  657MOL0     H88655   2.830   7.736   6.432  1.5121  1.8358  0.9804
  657MOL0     H88656   2.933   7.946   6.374 -0.7604  3.6211  0.5924
  657MOL0     H88657   3.023   8.328   6.168 -1.3167 -0.8763  0.3451
  657MOL0     H88658   3.181   8.524   6.173 -0.5615  0.9328  0.9908
  657MOL0     H88659   3.425   8.553   6.238 -1.0981  0.0841  0.2120
  657MOL0     H88660   3.469   8.699   6.332 -2.3702  1.1038 -1.5923
  657MOL0     H88661   3.525   8.548   6.529  2.1451  0.3179  0.3303
  657MOL0     H88662   3.507   8.418   6.397 -0.2539 -0.6226  0.9217
  657MOL0     H88663   3.684   8.665   6.409  0.9059 -0.4394  1.4478
  657MOL0     H88664   3.738   8.498   6.465  1.3528  0.5666 -1.0178
  657MOL0     H88665   3.666   8.587   6.180 -0.7150 -0.6361 -0.5061
  657MOL0     H88666   3.658   8.414   6.231 -0.1352  0.7136 -0.6632
  657MOL0     H88667   3.854   8.436   6.108  0.7914  1.0582 -0.2560
  657MOL0     H88668   3.892   8.415   6.281  0.7970 -0.4373 -0.5160
  657MOL0     H88669   3.880   8.701   6.175 -0.6136 -0.9840 -0.9367
  657MOL0     H88670   4.005   8.623   6.279  2.0391  0.3385 -0.8788
  657MOL0     H88671   3.962   8.579   5.977 -0.0531 -1.6973  0.6984
  657MOL0     H88672   4.080   8.497   6.074 -1.3859 -0.8432  1.1195
  657MOL0     H88673   4.070   8.802   6.073 -0.5091 -0.5795  1.2287
  657MOL0     H88674   4.211   8.683   6.097  0.2534 -3.3455 -0.5446
  657MOL0     H88675   3.226   8.469   6.594 -0.4904  1.4874 -0.6577
  657MOL0     H88676   3.062   8.285   6.576 -2.6984 -0.4359 -1.6706
  657MOL0     H88677   2.553   8.135   6.460 -0.1224 -0.1632 -0.5926
  657MOL0     H88678   2.456   7.910   6.484 -0.3474  0.0947 -3.5578
  657MOL0     H88679   3.951   7.016   6.724 -3.7378  0.3434 -0.3022
  657MOL0     H88680   4.129   6.966   6.576 -2.2551  0.8230 -0.3165
  657MOL0     H88681   4.421   6.793   6.449  2.2324 -2.1502 -0.6928
  657MOL0     H88682   4.635   6.790   6.354  2.2058  3.8088 -1.2076
  657MOL0     H88683   4.800   6.690   6.230  3.5884 -0.7668 -1.0436
  657MOL0     H88684   4.833   6.871   6.223 -1.1934  1.4493 -2.5727
  657MOL0     H88685   4.920   6.805   5.976 -1.2950 -1.8658  0.2136
  657MOL0     H88686   4.908   6.648   6.032 -1.1907  0.1618  0.3249
  657MOL0     H88687   5.060   6.772   6.245 -2.9244  1.2799  0.6628
  657MOL0     H88688   5.072   6.887   6.127  0.1267  0.5232 -0.3639
  657MOL0     H88689   5.274   6.729   6.122  0.7330 -3.6914  1.7907
  657MOL0     H88690   5.168   6.599   6.075  0.3519  0.2196  1.9745
  657MOL0     H88691   5.192   6.833   5.715  1.0228 -1.1548 -0.4624
  657MOL0     H88692   4.481   6.875   5.968  1.2051  0.2363  1.0617
  657MOL0     H88693   4.131   6.859   6.051  0.9877 -2.7850  1.7138
  657MOL0     H88694   4.203   7.026   6.049  0.3144 -0.8585  4.0768
  657MOL0     H88695   4.265   6.913   5.932 -1.7787  0.1395 -0.6050
  658MOL0     O88696   5.114   8.179   0.591  0.2702  0.3931 -1.0136
  658MOL0     C88697   5.072   8.294   0.608 -0.2302 -0.0944  0.2770
  658MOL0     O88698   5.141   8.404   0.572 -0.4926  0.1291 -0.0740
  658MOL0     C88699   5.263   8.402   0.511 -0.2941  0.1035  0.2350
  658MOL0     C88700   5.350   8.506   0.541  0.5562 -0.1890  0.3458
  658MOL0     C88701   5.474   8.513   0.482  0.0557  0.2110 -0.8901
  658MOL0     C88702   5.529   8.416   0.396  0.3579 -0.0804 -0.6829
  658MOL0     O88703   5.657   8.412   0.341  0.7615  0.5139  0.2464
  658MOL0     C88704   5.739   8.534   0.363  0.0438  0.4217  0.1671
  658MOL0     C88705   5.875   8.510   0.300  0.2400 -0.4251  0.4541
  658MOL0     C88706   5.966   8.637   0.321 -0.6627  0.0976  0.3099
  658MOL0     C88707   6.106   8.614   0.272  0.9179  0.2135 -0.2702
  658MOL0     C88708   6.209   8.725   0.306 -0.4275 -0.9483  0.0643
  658MOL0     C88709   6.345   8.712   0.226 -0.3042  1.1764 -0.4287
  658MOL0     C88710   6.428   8.837   0.221  0.3333 -0.3012  0.3941
  658MOL0     C88711   6.542   8.830   0.117 -0.1513  0.0852  0.1871
  658MOL0     N88712   6.592   8.964   0.111  0.2573 -0.4966 -0.4432
  658MOL0     C88713   6.686   9.024   0.197  0.3706 -0.3116 -0.1285
  658MOL0     C88714   6.683   9.158   0.175  1.0431  0.4660  0.3972
  658MOL0     C88715   6.759   9.268   0.244  0.2340  0.1267  0.7764
  658MOL0     C88716   6.863   9.208   0.338  0.0213 -0.0437  0.0983
  658MOL0     C88717   6.941   9.320   0.392 -0.3494 -0.2219 -0.2235
  658MOL0     C88718   7.038   9.268   0.506 -0.5062 -0.4244  0.5851
  658MOL0     O88719   7.030   9.359   0.621 -0.4880  0.0342 -0.4411
  658MOL0     C88720   7.145   9.434   0.659  0.3890 -0.2642  0.1346
  658MOL0     C88721   7.212   9.518   0.564  0.2335 -0.0861 -1.2726
  658MOL0     C88722   7.320   9.591   0.611 -1.1895  0.4061 -0.2153
  658MOL0     C88723   7.369   9.588   0.739 -0.6564  0.5570 -1.0411
  658MOL0     C88724   7.491   9.668   0.782 -0.1971  0.1391 -1.0190
  658MOL0     O88725   7.547   9.646   0.907  0.4046 -0.5304  0.2292
  658MOL0     C88726   7.667   9.711   0.942 -0.0557  0.4625 -0.1891
  658MOL0     C88727   7.762   9.763   0.851 -0.0058  0.3016  0.7640
  658MOL0     C88728   7.877   9.829   0.895 -0.7112 -0.0135 -0.5745
  658MOL0     C88729   7.902   9.828   1.036  0.9551 -0.4223  0.3463
  658MOL0     O88730   8.027   9.887   1.064  0.0064 -1.0593 -0.3692
  658MOL0     C88731   8.029   9.960   1.189  0.0770  0.0687 -0.2966
  658MOL0     C88732   8.149  10.054   1.194  0.5672  0.0867  0.1469
  658MOL0     C88733   8.283   9.988   1.161  0.0396 -0.0709 -0.1461
  658MOL0     C88734   8.405  10.079   1.169 -0.4362 -0.5233  0.0633
  658MOL0     C88735   8.534  10.002   1.153 -0.4062  0.0729 -0.5119
  658MOL0     C88736   8.661  10.076   1.166 -0.2891 -0.6635  0.0310
  658MOL0     C88737   8.782   9.980   1.152  0.0702 -0.8536  0.0667
  658MOL0     C88738   8.904  10.066   1.147 -0.8302  0.1553 -0.7837
  658MOL0    Cl88739   9.040   9.948   1.130 -0.2302  0.2772 -0.1602
  658MOL0     C88740   7.810   9.770   1.122 -0.0716  0.6714 -0.2810
  658MOL0     C88741   7.691   9.716   1.080 -0.8351 -0.9266  0.4047
  658MOL0     O88742   7.535   9.738   0.699 -0.0946 -0.3357  0.1444
  658MOL0     C88743   7.307   9.503   0.828 -0.7550  0.1499 -0.3614
  658MOL0     C88744   7.199   9.432   0.792  0.0582 -0.6766 -0.0775
  658MOL0     N88745   6.583   9.184   0.081 -0.3788  0.6584 -0.3079
  658MOL0     N88746   6.538   9.066   0.040  0.7730 -0.0079  0.0780
  658MOL0     C88747   5.433   8.313   0.359 -0.7044 -0.0376  0.0430
  658MOL0     C88748   5.299   8.311   0.411 -0.0176  0.4980 -0.4091
  658MOL0     C88749   4.934   8.330   0.649  0.1805 -0.5275  0.5922
  658MOL0     C88750   4.914   8.468   0.678 -0.5151  0.6170  0.2430
  658MOL0     C88751   4.792   8.507   0.706  0.6683 -0.0125 -0.2299
  658MOL0     C88752   4.678   8.424   0.711  0.4530  0.4973 -0.1404
  658MOL0     O88753   4.555   8.476   0.732  0.0870  0.0739 -0.5536
  658MOL0     C88754   4.528   8.518   0.865  1.3967 -0.0765 -1.2257
  658MOL0     C88755   4.521   8.393   0.958 -1.1710  0.4846  0.6113
  658MOL0     C88756   4.482   8.431   1.103  0.2218 -0.5706 -0.2394
  658MOL0     C88757   4.333   8.397   1.116 -0.5062 -0.3036  0.7193
  658MOL0     C88758   4.284   8.433   1.247 -0.2453  0.0619 -0.8230
  658MOL0     C88759   4.259   8.469   1.362 -0.7743  0.1096 -0.5432
  658MOL0     C88760   4.694   8.290   0.671 -0.0506 -0.6128  0.7688
  658MOL0     C88761   4.822   8.242   0.644 -0.1879 -0.0176 -0.1101
  658MOL0     C88762   4.843   8.096   0.623  0.3558  0.0066 -0.7855
  658MOL0     H88763   5.324   8.592   0.601 -2.4144  0.2813 -1.4407
  658MOL0     H88764   5.535   8.597   0.512  0.7949 -0.0980 -1.4982
  658MOL0     H88765   5.701   8.624   0.313  0.7402 -0.1920 -1.5300
  658MOL0     H88766   5.745   8.551   0.471 -0.9250 -0.3417  0.3576
  658MOL0     H88767   5.859   8.476   0.197  4.0117  2.3309 -1.2737
  658MOL0     H88768   5.912   8.433   0.368 -1.4928  0.3144  2.3435
  658MOL0     H88769   5.970   8.669   0.425 -0.4980 -0.4310  0.4688
  658MOL0     H88770   5.913   8.715   0.264  2.4130  0.3282 -2.5722
  658MOL0     H88771   6.145   8.519   0.310  1.2370  0.4640  0.0445
  658MOL0     H88772   6.102   8.602   0.164  0.2684 -1.3418 -0.1071
  658MOL0     H88773   6.164   8.820   0.278  0.5121  0.1698  2.1732
  658MOL0     H88774   6.223   8.741   0.414 -0.5650  0.8814 -0.1639
  658MOL0     H88775   6.404   8.634   0.276 -3.5530  0.5571  2.8756
  658MOL0     H88776   6.322   8.681   0.124  1.4034  1.2212 -0.8592
  658MOL0     H88777   6.453   8.861   0.324 -0.9836  0.0427  0.6603
  658MOL0     H88778   6.361   8.913   0.178  2.6852  0.9523 -1.2645
  658MOL0     H88779   6.621   8.759   0.143 -0.6504 -1.4648 -2.2741
  658MOL0     H88780   6.505   8.794   0.021 -0.5209  3.6195 -1.1577
  658MOL0     H88781   6.750   8.975   0.269  1.9058  0.0823 -1.1578
  658MOL0     H88782   6.806   9.335   0.172 -1.1570  1.0728  0.7122
  658MOL0     H88783   6.682   9.321   0.301  0.6323  0.9019  0.5904
  658MOL0     H88784   6.807   9.159   0.417 -2.2132  0.5821 -1.0127
  658MOL0     H88785   6.929   9.135   0.290  0.1288 -0.5695  1.0212
  658MOL0     H88786   6.869   9.387   0.439  1.2300  0.7271  0.9311
  658MOL0     H88787   7.003   9.359   0.311  0.7721 -1.2967  0.0797
  658MOL0     H88788   7.141   9.246   0.479  0.2191  4.0826 -1.2832
  658MOL0     H88789   6.991   9.175   0.539 -0.2634 -0.5701  0.5149
  658MOL0     H88790   7.169   9.506   0.466 -3.2244 -1.8967  0.2729
  658MOL0     H88791   7.364   9.657   0.537 -0.0962 -1.6025 -1.4502
  658MOL0     H88792   7.755   9.758   0.743  1.3460 -0.6087  0.6884
  658MOL0     H88793   7.948   9.872   0.825  0.1390  0.4927  0.5547
  658MOL0     H88794   7.943  10.024   1.208  1.1169  1.7192 -0.9224
  658MOL0     H88795   8.023   9.885   1.269 -3.1827  2.3593  1.8740
  658MOL0     H88796   8.137  10.138   1.125  0.2237 -0.9899 -1.1308
  658MOL0     H88797   8.162  10.102   1.292 -1.1371 -0.5843  0.7344
  658MOL0     H88798   8.304   9.911   1.236 -1.3460 -1.1966 -0.8555
  658MOL0     H88799   8.278   9.946   1.060 -2.2243  0.7196 -0.4045
  658MOL0     H88800   8.405  10.134   1.264  2.2893 -0.6945  0.2673
  658MOL0     H88801   8.393  10.152   1.088 -1.1987 -1.0808 -0.3353
  658MOL0     H88802   8.533   9.942   1.062  1.7279 -1.4654  0.3915
  658MOL0     H88803   8.547   9.932   1.237 -0.8868  0.5733 -0.0065
  658MOL0     H88804   8.667  10.163   1.099  3.0480 -0.6600  0.1489
  658MOL0     H88805   8.655  10.123   1.264  3.6806  1.2174 -0.4480
  658MOL0     H88806   8.776   9.921   1.060 -2.9387  0.6981 -0.8854
  658MOL0     H88807   8.789   9.919   1.242 -1.0831  1.7406  2.0697
  658MOL0     H88808   8.915  10.133   1.062 -0.8907  0.9418 -0.1874
  658MOL0     H88809   8.929  10.123   1.237 -2.2570 -0.5731  0.1144
  658MOL0     H88810   7.838   9.758   1.226  2.2289 -1.6671 -1.0620
  658MOL0     H88811   7.620   9.682   1.154  0.0346  2.4335  3.0636
  658MOL0     H88812   7.329   9.492   0.934  0.1506 -3.0469 -0.7762
  658MOL0     H88813   7.159   9.363   0.866  0.5664  1.9645  2.8588
  658MOL0     H88814   5.465   8.227   0.301 -2.3875 -1.6843  1.4417
  658MOL0     H88815   5.239   8.224   0.385  0.6302  0.1474 -0.7549
  658MOL0     H88816   4.985   8.548   0.694 -0.1590  0.2968  0.2716
  658MOL0     H88817   4.778   8.604   0.752 -1.0367  0.4221 -1.5558
  658MOL0     H88818   4.429   8.563   0.872  0.4074 -2.3906  1.9809
  658MOL0     H88819   4.602   8.595   0.889  1.9494 -0.5154 -1.4844
  658MOL0     H88820   4.624   8.358   0.969 -1.7272 -1.3258  0.3851
  658MOL0     H88821   4.476   8.308   0.907  2.0955 -0.1219 -1.5750
  658MOL0     H88822   4.503   8.536   1.123  0.1761 -0.4300 -0.9069
  658MOL0     H88823   4.537   8.374   1.179  0.7796 -0.4141 -0.5171
  658MOL0     H88824   4.275   8.459   1.047  1.4298  0.2404 -0.4615
  658MOL0     H88825   4.319   8.291   1.094 -2.5353  0.1467 -0.4499
  658MOL0     H88826   4.258   8.514   1.459 -0.8612  2.3208 -1.5225
  658MOL0     H88827   4.602   8.233   0.663 -0.1510 -0.2134 -4.2089
  658MOL0     H88828   4.902   8.067   0.536 -1.9732 -2.4146 -1.6958
  658MOL0     H88829   4.882   8.053   0.716  1.7230 -1.1534 -1.8586
  658MOL0     H88830   4.741   8.062   0.603  0.1267  1.0360 -1.4035
  659MOL0     O88831   0.563   8.583  10.351 -0.5852  0.2244 -0.2923
  659MOL0     C88832   0.527   8.477  10.300  1.3266 -0.1883  0.0687
  659MOL0     O88833   0.611   8.369  10.273 -0.3396 -0.0476 -0.3106
  659MOL0     C88834   0.734   8.346  10.336  0.0382  0.6728  0.5657
  659MOL0     C88835   0.823   8.256  10.276  0.2005 -0.0396  0.3662
  659MOL0     C88836   0.942   8.217  10.327 -0.0748 -0.4462  0.4227
  659MOL0     C88837   0.985   8.267  10.452 -0.1102  0.1201  0.1010
  659MOL0     O88838   1.104   8.212  10.505  0.4131 -0.3458  0.1002
  659MOL0     C88839   1.111   8.207  10.644 -0.1037 -0.0266  0.3244
  659MOL0     C88840   1.232   8.127  10.683 -0.0534  0.6768 -1.1355
  659MOL0     C88841   1.290   8.137  10.831 -0.1449  0.4484  0.4608
  659MOL0     C88842   1.333   8.281  10.857 -0.1915  0.8021  0.4740
  659MOL0     C88843   1.398   8.310  11.000  0.5710  0.1494 -0.3879
  659MOL0     C88844   1.454   8.452  10.999  0.3157 -0.5526 -0.9532
  659MOL0     C88845   1.531   8.496  11.131  0.6000  0.1212 -0.1622
  659MOL0     C88846   1.547   8.649  11.139 -0.7134 -0.7052 -0.4762
  659MOL0     N88847   1.603   8.696  11.012 -0.2090  0.0648  0.2473
  659MOL0     C88848   1.733   8.674  10.970  0.0492  0.0639  1.1321
  659MOL0     C88849   1.729   8.743  10.849 -0.0522 -0.8825  0.5063
  659MOL0     C88850   1.840   8.752  10.752 -0.8898 -1.2639 -0.3875
  659MOL0     C88851   1.978   8.753  10.822 -0.5328  0.4508 -0.1411
  659MOL0     C88852   2.088   8.821  10.738 -0.2271 -0.6183  0.1212
  659MOL0     C88853   2.117   8.741  10.617 -0.9373  0.3436 -0.2066
  659MOL0     O88854   2.215   8.651  10.652  0.3532  0.5976 -0.1453
  659MOL0     C88855   2.224   8.531  10.590 -0.2025  0.6669  0.0316
  659MOL0     C88856   2.190   8.514  10.457  0.3854  0.5077  0.1752
  659MOL0     C88857   2.202   8.397  10.385  0.1575 -0.2787 -0.1518
  659MOL0     C88858   2.282   8.295  10.444  0.6742  0.2418  0.1255
  659MOL0     C88859   2.322   8.176  10.380  0.7880  0.3385  0.1132
  659MOL0     O88860   2.400   8.080  10.444  0.3898  0.0259  0.0364
  659MOL0     C88861   2.438   7.977  10.356  0.3587  0.4587  0.1162
  659MOL0     C88862   2.541   7.986  10.259 -0.0446 -0.4629  1.3875
  659MOL0     C88863   2.579   7.873  10.183  0.7999 -0.4547 -0.1003
  659MOL0     C88864   2.523   7.747  10.219  0.5450  0.9994 -0.0737
  659MOL0     O88865   2.554   7.624  10.153  0.0516 -0.3254 -0.4356
  659MOL0     C88866   2.645   7.623  10.044 -0.0128 -0.7298  0.1029
  659MOL0     C88867   2.680   7.480   9.973  0.3727 -0.0603 -0.9448
  659MOL0     C88868   2.821   7.489   9.904 -0.2441  0.2961  0.1260
  659MOL0     C88869   2.841   7.380   9.804 -0.4365 -0.3111 -0.1843
  659MOL0     C88870   2.976   7.375   9.724 -0.7974 -0.8157 -0.0353
  659MOL0     C88871   2.952   7.278   9.600  0.1703  0.2189 -0.8913
  659MOL0     C88872   3.075   7.276   9.513  0.5451  0.4859  0.1482
  659MOL0     C88873   3.088   7.128   9.457 -0.6073  0.0159 -0.9025
  659MOL0    Cl88874   3.232   7.125   9.348 -0.2781 -0.6955 -0.2712
  659MOL0     C88875   2.433   7.731  10.325  0.2449  0.5066  0.8119
  659MOL0     C88876   2.384   7.848  10.384 -0.2191 -0.2714  1.0324
  659MOL0     O88877   2.280   8.160  10.267  0.2105 -0.5329 -0.0605
  659MOL0     C88878   2.320   8.313  10.578  0.4713  0.3176 -0.7407
  659MOL0     C88879   2.298   8.426  10.647 -0.1345  0.0409  0.4764
  659MOL0     N88880   1.610   8.814  10.836  0.2356 -0.8875 -0.0470
  659MOL0     N88881   1.542   8.791  10.939  0.6937  0.2891 -0.0524
  659MOL0     C88882   0.901   8.357  10.520  0.7449  0.4065  0.3388
  659MOL0     C88883   0.773   8.402  10.456  0.4445 -0.1959 -0.2678
  659MOL0     C88884   0.385   8.469  10.234 -0.5363 -0.0981  0.3472
  659MOL0     C88885   0.360   8.380  10.130  0.2722 -0.5014  0.1330
  659MOL0     C88886   0.233   8.366  10.073 -0.4424 -0.5315  0.1658
  659MOL0     C88887   0.122   8.437  10.129  0.1815  0.0147 -0.0650
  659MOL0     O88888  -0.001   8.426  10.066 -0.1735  1.0956 -0.1775
  659MOL0     C88889  -0.015   8.347   9.946  1.0581  0.2310 -0.1887
  659MOL0     C88890  -0.146   8.380   9.875  0.8138 -0.5768 -0.6759
  659MOL0     C88891  -0.181   8.266   9.786 -0.1006 -0.0127 -0.0502
  659MOL0     C88892  -0.319   8.282   9.712 -0.8473 -0.4581 -0.1502
  659MOL0     C88893  -0.353   8.158   9.646  0.4405  0.0108  0.0271
  659MOL0     C88894  -0.380   8.055   9.585 -0.3497  0.3030  0.1200
  659MOL0     C88895   0.148   8.507  10.247  0.9459 -0.0191 -0.0823
  659MOL0     C88896   0.275   8.526  10.301 -0.4603 -0.3962 -0.2551
  659MOL0     C88897   0.289   8.608  10.430  0.4054  0.4076 -0.4633
  659MOL0     H88898   0.772   8.220  10.187 -0.4579  0.3675  0.5775
  659MOL0     H88899   0.992   8.129  10.287 -0.8195 -0.8646  0.3870
  659MOL0     H88900   1.120   8.310  10.678  0.6524 -0.1795  0.6178
  659MOL0     H88901   1.017   8.169  10.686 -0.1147 -1.9574 -1.2694
  659MOL0     H88902   1.310   8.140  10.607  0.9742  0.5864 -0.1203
  659MOL0     H88903   1.202   8.023  10.665 -1.8868  1.2098 -1.3264
  659MOL0     H88904   1.380   8.077  10.846 -0.0579  0.5066  0.1761
  659MOL0     H88905   1.223   8.095  10.907 -0.1536  0.9225  0.7227
  659MOL0     H88906   1.413   8.308  10.788 -0.1261  0.7754  0.5397
  659MOL0     H88907   1.253   8.353  10.836  0.3775  1.1806 -0.4375
  659MOL0     H88908   1.334   8.310  11.089  0.2271  3.4960 -0.5003
  659MOL0     H88909   1.471   8.230  11.015  0.3808 -1.2139 -5.1714
  659MOL0     H88910   1.521   8.456  10.912 -1.8720  0.0087 -2.7122
  659MOL0     H88911   1.368   8.518  10.980  0.6259 -0.2348 -1.2654
  659MOL0     H88912   1.633   8.455  11.134  1.8315  2.9875  2.3712
  659MOL0     H88913   1.484   8.450  11.218  1.1723  0.8936  0.5694
  659MOL0     H88914   1.458   8.707  11.163  1.1627  1.8739  0.7143
  659MOL0     H88915   1.620   8.668  11.218 -0.0520 -2.5917 -0.5922
  659MOL0     H88916   1.810   8.605  11.001  0.4599  0.5502  1.1974
  659MOL0     H88917   1.847   8.659  10.695  2.0775 -0.9208 -0.7424
  659MOL0     H88918   1.826   8.841  10.689 -0.9470 -0.6865  0.4227
  659MOL0     H88919   1.982   8.807  10.917  2.1698  1.3807 -0.7119
  659MOL0     H88920   2.014   8.656  10.857 -0.2339  0.9333  0.9348
  659MOL0     H88921   2.183   8.834  10.791 -0.9366 -1.1060  1.5958
  659MOL0     H88922   2.054   8.918  10.701 -0.7546 -0.5530  0.7617
  659MOL0     H88923   2.156   8.805  10.537 -0.2665  1.1364  0.7376
  659MOL0     H88924   2.025   8.696  10.579  0.2470 -1.4602 -1.1189
  659MOL0     H88925   2.142   8.596  10.404 -1.5677 -2.4650 -3.1617
  659MOL0     H88926   2.159   8.395  10.285 -0.6056  0.1692  0.1574
  659MOL0     H88927   2.574   8.087  10.239 -2.1878 -0.1206 -0.9340
  659MOL0     H88928   2.644   7.880  10.096  3.0238  0.2436  1.5219
  659MOL0     H88929   2.606   7.682   9.961  1.0446 -0.5490 -0.2801
  659MOL0     H88930   2.738   7.667  10.082  0.4211 -2.0368  0.6033
  659MOL0     H88931   2.684   7.400  10.049  0.0219 -1.7856 -2.6525
  659MOL0     H88932   2.600   7.457   9.902  1.4897 -2.3814 -1.5801
  659MOL0     H88933   2.828   7.590   9.864 -0.4954  1.3193  2.4991
  659MOL0     H88934   2.901   7.482   9.978 -0.5322  1.5622  0.5792
  659MOL0     H88935   2.763   7.375   9.726  0.5997 -0.6950 -1.2225
  659MOL0     H88936   2.834   7.284   9.856  0.2063 -0.2314  0.0529
  659MOL0     H88937   3.061   7.334   9.779  0.1114 -1.2914 -1.7148
  659MOL0     H88938   3.011   7.474   9.694 -0.7013 -0.9355 -0.3317
  659MOL0     H88939   2.927   7.183   9.650 -1.2205  2.4884  3.1808
  659MOL0     H88940   2.867   7.317   9.544 -1.5918 -1.4851  0.4318
  659MOL0     H88941   3.164   7.282   9.576  1.6269 -0.3075 -1.2418
  659MOL0     H88942   3.066   7.354   9.437  1.4561  0.6652  0.2149
  659MOL0     H88943   3.099   7.052   9.535  0.1686  0.2495 -0.7741
  659MOL0     H88944   2.990   7.112   9.411 -1.7618  1.1972  0.9892
  659MOL0     H88945   2.375   7.642  10.348  0.0381  0.1574 -0.8855
  659MOL0     H88946   2.311   7.839  10.463 -1.1583 -0.6118  0.1450
  659MOL0     H88947   2.373   8.228  10.620 -0.1799  1.5026  2.8764
  659MOL0     H88948   2.347   8.452  10.740  0.9920  0.9303 -0.3343
  659MOL0     H88949   0.920   8.406  10.615 -0.0389 -0.0379  0.7362
  659MOL0     H88950   0.707   8.466  10.514  2.8983  2.4409 -0.1870
  659MOL0     H88951   0.443   8.315  10.104  1.1174 -0.9493  3.4560
  659MOL0     H88952   0.231   8.289   9.996  0.6507  1.4515 -1.9681
  659MOL0     H88953  -0.026   8.242   9.972 -1.2393  0.7065  0.9950
  659MOL0     H88954   0.066   8.347   9.872  0.1771 -0.4331 -1.1635
  659MOL0     H88955  -0.139   8.474   9.819 -2.0018 -0.3591 -0.8160
  659MOL0     H88956  -0.233   8.395   9.940  2.9361  0.9632  2.0412
  659MOL0     H88957  -0.182   8.173   9.844  0.3216  1.0662  1.7292
  659MOL0     H88958  -0.099   8.263   9.713  0.8192  2.2594  0.8126
  659MOL0     H88959  -0.408   8.311   9.769 -0.4367  0.8914 -0.1440
  659MOL0     H88960  -0.308   8.356   9.632  0.4915 -1.0397 -0.5237
  659MOL0     H88961  -0.394   7.965   9.529  2.4890  0.3425 -0.7703
  659MOL0     H88962   0.057   8.545  10.291  1.2350  1.5986 -0.7985
  659MOL0     H88963   0.191   8.643  10.466 -0.1869  0.5890 -2.1654
  659MOL0     H88964   0.353   8.561  10.505  1.8077  1.6515 -0.8496
  659MOL0     H88965   0.345   8.698  10.406 -0.0566  0.9120  0.2843
  660MOL0     O88966   0.500   0.006   0.118 -0.0584 -0.0169 -0.6138
  660MOL0     C88967   0.410   0.026   0.199  0.3557 -0.4865  0.3514
  660MOL0     O88968   0.386   0.139   0.276  0.7859  0.1831 -0.2606
  660MOL0     C88969   0.482   0.232   0.275 -0.2706 -0.4291  0.6400
  660MOL0     C88970   0.473   0.352   0.207 -0.3845  0.0179  0.0229
  660MOL0     C88971   0.572   0.446   0.218 -0.0750 -1.2650 -0.6238
  660MOL0     C88972   0.689   0.423   0.279 -0.2186  0.1054  0.2069
  660MOL0     O88973   0.791   0.505   0.293 -0.3634 -0.1434  0.1358
  660MOL0     C88974   0.803   0.626   0.204  0.4553 -0.9759  0.6553
  660MOL0     C88975   0.945   0.651   0.179 -0.4494  0.1135  0.5309
  660MOL0     C88976   1.002   0.535   0.097 -0.2195 -0.9485  0.9477
  660MOL0     C88977   1.156   0.555   0.068  0.4374 -0.1939 -0.2438
  660MOL0     C88978   1.194   0.671  -0.027  0.2157 -0.1096  0.2961
  660MOL0     C88979   1.344   0.703  -0.008 -0.0359 -0.2333  0.3898
  660MOL0     C88980   1.408   0.775  -0.124  0.0626  0.2090  1.0315
  660MOL0     C88981   1.564   0.787  -0.102  1.3147 -0.7509  0.5609
  660MOL0     N88982   1.598   0.906  -0.022  0.0949 -0.1650 -0.0615
  660MOL0     C88983   1.705   0.922   0.061 -0.1538 -0.2173  0.0463
  660MOL0     C88984   1.691   1.041   0.123 -0.6146  0.0706 -0.0965
  660MOL0     C88985   1.785   1.095   0.225  0.8147 -0.5758  0.0231
  660MOL0     C88986   1.811   0.996   0.336  0.1330  0.3603 -0.6148
  660MOL0     C88987   1.892   1.053   0.446 -0.4041 -0.2514 -0.0964
  660MOL0     C88988   1.929   0.940   0.552  0.5301 -0.7887 -0.1481
  660MOL0     O88989   1.997   0.990   0.669 -0.6401  0.2608  0.5714
  660MOL0     C88990   2.132   1.011   0.649 -0.6603  0.0189  0.3014
  660MOL0     C88991   2.194   1.128   0.596  1.3529  0.7794  0.4622
  660MOL0     C88992   2.332   1.138   0.575  0.1901 -0.7376 -0.6441
  660MOL0     C88993   2.416   1.029   0.605 -0.0397 -1.1927  0.1161
  660MOL0     C88994   2.563   1.041   0.583 -1.2817  0.6459  0.4632
  660MOL0     O88995   2.631   0.926   0.588  0.3980  0.2274 -0.4645
  660MOL0     C88996   2.768   0.926   0.580 -0.4008  0.2705 -0.2378
  660MOL0     C88997   2.835   0.888   0.696  0.1998  0.2217 -0.2696
  660MOL0     C88998   2.974   0.912   0.698 -0.3663  0.5696 -0.4898
  660MOL0     C88999   3.046   0.950   0.579  0.5045 -0.4173 -0.3559
  660MOL0     O89000   3.181   0.968   0.604  0.2897  0.2674 -0.4385
  660MOL0     C89001   3.255   1.050   0.516  0.4010  0.2706 -0.2172
  660MOL0     C89002   3.382   1.112   0.578  0.0448  0.0711  0.7291
  660MOL0     C89003   3.490   1.007   0.592  0.0213 -0.1188 -0.1002
  660MOL0     C89004   3.620   1.082   0.616  0.9175 -0.3033  0.3172
  660MOL0     C89005   3.734   0.981   0.620  0.3691  1.0275  0.8967
  660MOL0     C89006   3.858   1.042   0.704 -0.4033  0.7943  0.4115
  660MOL0     C89007   3.973   0.941   0.712  0.5806  0.2003  0.7460
  660MOL0     C89008   4.090   0.988   0.799 -0.6667 -0.9240  0.4532
  660MOL0    Cl89009   4.035   0.992   0.971 -0.1463 -0.5512 -0.0317
  660MOL0     C89010   2.972   0.969   0.458 -0.2217  0.6939 -0.4183
  660MOL0     C89011   2.833   0.964   0.463 -0.8221 -0.4028  0.7423
  660MOL0     O89012   2.617   1.148   0.571 -0.1046  0.0381 -0.0520
  660MOL0     C89013   2.356   0.911   0.651  0.2228 -0.3647 -0.1482
  660MOL0     C89014   2.218   0.912   0.688 -0.7381  1.5925  0.5017
  660MOL0     N89015   1.571   1.094   0.081 -0.3925 -0.8652 -0.5654
  660MOL0     N89016   1.519   1.023  -0.001  0.1944  0.3036 -0.3089
  660MOL0     C89017   0.697   0.308   0.352 -0.5406 -0.0384 -0.5499
  660MOL0     C89018   0.599   0.212   0.352  0.7108 -0.7918  0.3273
  660MOL0     C89019   0.333  -0.091   0.239  0.5109 -0.5097  0.2408
  660MOL0     C89020   0.327  -0.109   0.387  0.5919  0.5787  0.5312
  660MOL0     C89021   0.265  -0.216   0.446  0.1371 -0.8134  0.6541
  660MOL0     C89022   0.202  -0.313   0.360 -1.1225  0.3717  0.2655
  660MOL0     O89023   0.156  -0.416   0.433 -0.3905  0.5280  0.3985
  660MOL0     C89024   0.015  -0.413   0.449 -0.9338 -0.2371 -0.9882
  660MOL0     C89025  -0.044  -0.497   0.562 -0.1846  1.6184  0.2785
  660MOL0     C89026   0.006  -0.442   0.694  0.3831  0.8278  0.6963
  660MOL0     C89027  -0.097  -0.464   0.806 -0.1891 -0.2655  0.2506
  660MOL0     C89028  -0.159  -0.588   0.795  0.2638  0.3297  0.0586
  660MOL0     C89029  -0.192  -0.704   0.783  0.1875 -0.9228 -0.1054
  660MOL0     C89030   0.202  -0.298   0.220 -0.5361 -0.0808  0.5764
  660MOL0     C89031   0.272  -0.185   0.159 -0.1399  0.5652 -1.0120
  660MOL0     C89032   0.250  -0.163   0.011 -0.3542  0.9989 -0.5627
  660MOL0     H89033   0.378   0.369   0.156  0.3755  0.4689 -1.2923
  660MOL0     H89034   0.550   0.537   0.163 -3.2581 -0.9733  0.9148
  660MOL0     H89035   0.753   0.606   0.109 -0.0890  2.9245 -0.0628
  660MOL0     H89036   0.759   0.712   0.255 -1.2435 -1.8188  0.6625
  660MOL0     H89037   0.991   0.670   0.277  1.8295  0.8377 -0.5963
  660MOL0     H89038   0.961   0.744   0.122 -2.8281  1.0239  1.2304
  660MOL0     H89039   0.948   0.534   0.002  4.1762  1.2455 -1.9028
  660MOL0     H89040   0.989   0.436   0.142 -1.7025 -0.6184  1.2944
  660MOL0     H89041   1.202   0.569   0.166  0.9866  3.9343 -0.8938
  660MOL0     H89042   1.201   0.467   0.023  0.2089  1.3570 -3.8359
  660MOL0     H89043   1.171   0.626  -0.124 -0.0867  0.0408  0.2992
  660MOL0     H89044   1.124   0.753  -0.014 -0.6089 -0.6478 -0.5918
  660MOL0     H89045   1.343   0.765   0.082 -1.9844 -2.8737  2.3450
  660MOL0     H89046   1.397   0.614   0.026  1.8001  1.1326  1.2057
  660MOL0     H89047   1.365   0.872  -0.149  1.7184  0.5592 -0.6743
  660MOL0     H89048   1.383   0.721  -0.215  2.5879  4.1449 -2.3302
  660MOL0     H89049   1.596   0.692  -0.059  2.8484 -0.1055  0.9176
  660MOL0     H89050   1.617   0.797  -0.197  0.8152 -0.2101  0.3319
  660MOL0     H89051   1.780   0.847   0.083 -0.9635 -1.1715 -0.3295
  660MOL0     H89052   1.881   1.118   0.178  0.6369  1.4435  0.5521
  660MOL0     H89053   1.744   1.185   0.271 -3.7361 -2.2326 -0.3059
  660MOL0     H89054   1.715   0.961   0.376  0.8403  1.0736  1.9447
  660MOL0     H89055   1.856   0.900   0.307  0.2659  0.8332 -2.0264
  660MOL0     H89056   1.835   1.138   0.484  0.2175  1.1719 -2.1943
  660MOL0     H89057   1.994   1.084   0.424  0.1030  0.0292  2.2906
  660MOL0     H89058   1.994   0.864   0.509  1.6057 -0.6366  1.1649
  660MOL0     H89059   1.836   0.905   0.598 -0.2069  2.0733  0.7262
  660MOL0     H89060   2.136   1.210   0.557 -1.4888  1.1801  4.8055
  660MOL0     H89061   2.373   1.233   0.543 -1.3251  0.4383  0.7024
  660MOL0     H89062   2.784   0.848   0.783  4.2010 -1.9002  1.3618
  660MOL0     H89063   3.031   0.885   0.786 -1.5919 -1.9980 -0.3762
  660MOL0     H89064   3.278   0.983   0.432  2.9439  0.6257  0.1271
  660MOL0     H89065   3.185   1.130   0.488  0.4812  1.0842  1.7519
  660MOL0     H89066   3.410   1.189   0.505  0.6365 -1.4537 -0.7198
  660MOL0     H89067   3.357   1.166   0.669 -2.4013  0.2452  0.0218
  660MOL0     H89068   3.461   0.938   0.672  2.6728  0.1411  1.2044
  660MOL0     H89069   3.504   0.951   0.499 -0.9254  1.2563 -1.1069
  660MOL0     H89070   3.612   1.115   0.721  0.3604 -2.2565  0.9284
  660MOL0     H89071   3.639   1.160   0.541 -0.9262 -1.4210 -1.4130
  660MOL0     H89072   3.770   0.958   0.519  1.1209  0.7205  1.2236
  660MOL0     H89073   3.710   0.884   0.664 -0.4634  0.8000 -0.0075
  660MOL0     H89074   3.891   1.134   0.655  1.5001  1.1230  2.1613
  660MOL0     H89075   3.837   1.068   0.808  2.4608 -1.5161  1.7123
  660MOL0     H89076   4.009   0.926   0.610 -1.7360  0.0148 -0.0967
  660MOL0     H89077   3.945   0.843   0.750  0.7040  0.2953  1.0853
  660MOL0     H89078   4.180   0.926   0.784  0.0328  0.4027 -1.0751
  660MOL0     H89079   4.139   1.082   0.771 -0.3631 -1.1213  0.3128
  660MOL0     H89080   3.020   0.991   0.364  0.4293 -0.8740 -0.4852
  660MOL0     H89081   2.794   0.995   0.367 -1.7031 -0.8939  0.9307
  660MOL0     H89082   2.421   0.825   0.668  2.6130  1.2526 -0.5471
  660MOL0     H89083   2.184   0.816   0.726  2.0059  0.1864 -0.3637
  660MOL0     H89084   0.790   0.291   0.405 -0.0294  0.0413 -1.4119
  660MOL0     H89085   0.607   0.112   0.394 -2.0228 -0.5184  1.7015
  660MOL0     H89086   0.373  -0.029   0.444 -0.0012  1.6072 -0.3955
  660MOL0     H89087   0.251  -0.229   0.552 -1.6588  1.2549  0.7368
  660MOL0     H89088  -0.033  -0.438   0.354 -5.0852  2.3741  0.1681
  660MOL0     H89089  -0.011  -0.309   0.468 -0.0532 -0.1689 -0.0306
  660MOL0     H89090  -0.010  -0.601   0.555 -2.8483  0.5389  1.7291
  660MOL0     H89091  -0.153  -0.497   0.554 -0.1967  0.8375  0.3824
  660MOL0     H89092   0.032  -0.336   0.681 -1.3284  0.9440 -2.8753
  660MOL0     H89093   0.094  -0.501   0.722  0.4854  1.2943  1.3829
  660MOL0     H89094  -0.055  -0.439   0.904 -0.3522 -0.4642  0.3719
  660MOL0     H89095  -0.176  -0.391   0.789  1.1823  0.5597 -3.5454
  660MOL0     H89096  -0.213  -0.808   0.770 -1.8618 -0.7779  1.4948
  660MOL0     H89097   0.145  -0.368   0.159 -0.0603  1.4774 -1.7882
  660MOL0     H89098   0.339  -0.112  -0.028  0.0331 -0.1031 -1.1487
  660MOL0     H89099   0.252  -0.262  -0.034  1.2005  0.3849  0.7314
  660MOL0     H89100   0.163  -0.105  -0.022 -0.2884  0.8776 -0.9519
  661MOL0     O89101   3.916   8.298   7.531  0.3070  0.3072 -0.3913
  661MOL0     C89102   3.883   8.290   7.651 -0.6259 -0.5568 -0.0138
  661MOL0     O89103   3.949   8.356   7.754  0.1032 -0.2410 -0.2161
  661MOL0     C89104   4.018   8.474   7.741 -0.5465 -0.6322  0.2601
  661MOL0     C89105   4.114   8.511   7.843 -0.3708 -0.8154  0.1836
  661MOL0     C89106   4.190   8.632   7.831  0.0980  0.4331  0.0451
  661MOL0     C89107   4.182   8.715   7.718  0.2349 -0.0250 -0.3353
  661MOL0     O89108   4.261   8.832   7.713  0.1896  0.3027 -0.0831
  661MOL0     C89109   4.372   8.829   7.618 -0.2361 -0.4071 -0.2109
  661MOL0     C89110   4.440   8.972   7.595 -0.9964 -0.1429  0.1356
  661MOL0     C89111   4.517   8.984   7.464  0.0506 -0.2714 -0.7155
  661MOL0     C89112   4.660   8.912   7.474 -1.0412 -0.1672 -0.2971
  661MOL0     C89113   4.746   8.924   7.338  0.1960 -0.2225 -0.3835
  661MOL0     C89114   4.865   8.830   7.350  1.5371  0.0154 -0.2633
  661MOL0     C89115   4.947   8.867   7.220 -0.4712 -0.2169 -0.6388
  661MOL0     C89116   5.072   8.777   7.221  0.0752 -0.2861  0.9201
  661MOL0     N89117   5.140   8.798   7.086  0.1272  0.1862  0.4010
  661MOL0     C89118   5.085   8.761   6.962  0.0633 -0.5742  0.4106
  661MOL0     C89119   5.168   8.816   6.876 -0.8207 -0.3348 -1.0606
  661MOL0     C89120   5.172   8.824   6.734 -0.6156 -0.9993  1.4466
  661MOL0     C89121   5.296   8.776   6.652 -0.6550 -0.4206  0.1310
  661MOL0     C89122   5.263   8.779   6.504  0.1620 -0.1007  0.6801
  661MOL0     C89123   5.380   8.719   6.419 -1.1710 -0.3446 -0.3441
  661MOL0     O89124   5.489   8.816   6.428  0.2022 -0.6252 -0.0249
  661MOL0     C89125   5.616   8.788   6.395 -0.0475  0.3852  0.9168
  661MOL0     C89126   5.653   8.669   6.334 -0.4004 -0.4244  0.5465
  661MOL0     C89127   5.791   8.645   6.307  0.0604 -0.0819 -0.4220
  661MOL0     C89128   5.889   8.736   6.332 -0.7810 -0.4741  0.2293
  661MOL0     C89129   6.024   8.711   6.287  0.3902  0.3700 -0.0797
  661MOL0     O89130   6.038   8.599   6.204 -0.1481  0.4465 -0.3917
  661MOL0     C89131   6.150   8.552   6.147  0.5106 -0.1478 -0.4522
  661MOL0     C89132   6.239   8.638   6.083 -0.4064  0.0033  0.3253
  661MOL0     C89133   6.357   8.582   6.025 -0.8558 -0.5670 -0.1382
  661MOL0     C89134   6.385   8.439   6.036  0.0175  0.0159 -0.0568
  661MOL0     O89135   6.496   8.385   5.970 -0.2064  0.0298 -0.1194
  661MOL0     C89136   6.632   8.430   6.000  0.3412  0.1997 -0.2938
  661MOL0     C89137   6.736   8.353   5.920  0.6278 -0.8323 -0.9960
  661MOL0     C89138   6.873   8.409   5.936  0.1501 -0.1692 -0.0712
  661MOL0     C89139   6.929   8.359   6.073 -0.0493 -0.6450  0.2977
  661MOL0     C89140   7.063   8.429   6.090  0.0775  0.8593 -0.2768
  661MOL0     C89141   7.102   8.462   6.236 -0.4955 -0.5054 -0.1135
  661MOL0     C89142   7.237   8.535   6.259  0.0835  0.1420 -0.8978
  661MOL0     C89143   7.272   8.559   6.408  0.8646  0.6277  0.0212
  661MOL0    Cl89144   7.278   8.400   6.495 -0.0392 -0.2455 -0.2147
  661MOL0     C89145   6.294   8.361   6.113 -0.0244 -0.5037  0.4834
  661MOL0     C89146   6.178   8.412   6.160 -0.3320 -0.5599 -0.3604
  661MOL0     O89147   6.113   8.796   6.307  0.8045  0.4492 -0.7434
  661MOL0     C89148   5.850   8.855   6.396 -0.0103  0.3080 -0.0035
  661MOL0     C89149   5.714   8.877   6.432 -0.5265 -0.2875  0.6672
  661MOL0     N89150   5.269   8.890   6.944 -0.6558  0.2842 -0.3443
  661MOL0     N89151   5.252   8.868   7.070  0.2833  0.3315  0.6436
  661MOL0     C89152   4.095   8.675   7.618  0.0474  0.4531  0.6278
  661MOL0     C89153   4.011   8.560   7.628 -0.3403 -0.8229 -0.0448
  661MOL0     C89154   3.780   8.196   7.689  0.1382 -0.0453 -0.1853
  661MOL0     C89155   3.743   8.192   7.821  0.6560 -0.0019  0.3922
  661MOL0     C89156   3.624   8.126   7.854 -0.0437 -0.0764  0.5891
  661MOL0     C89157   3.537   8.067   7.756 -0.4451  0.3566  0.2121
  661MOL0     O89158   3.417   8.018   7.785 -0.1157  0.2559  0.4160
  661MOL0     C89159   3.358   8.012   7.916  0.6017  0.8972 -0.1268
  661MOL0     C89160   3.267   8.137   7.949 -0.2998  0.3898  0.0033
  661MOL0     C89161   3.121   8.112   7.903 -0.3046  0.3303  0.3807
  661MOL0     C89162   3.100   8.105   7.748  1.1541 -0.1142 -0.4269
  661MOL0     C89163   2.957   8.136   7.729  0.3713 -0.0154 -0.4566
  661MOL0     C89164   2.836   8.152   7.729 -0.1820  0.3968 -0.0823
  661MOL0     C89165   3.584   8.060   7.630 -0.0807 -0.4905 -0.0264
  661MOL0     C89166   3.709   8.110   7.597 -0.1357 -0.3333 -0.7650
  661MOL0     C89167   3.746   8.085   7.456 -0.2652  0.3491 -0.4190
  661MOL0     H89168   4.107   8.463   7.940 -1.0775 -1.8866 -0.3699
  661MOL0     H89169   4.255   8.653   7.916 -3.5347  1.4353  2.8088
  661MOL0     H89170   4.456   8.764   7.642 -1.9091 -4.0816 -3.2121
  661MOL0     H89171   4.319   8.802   7.526 -2.3755  1.5796  0.3343
  661MOL0     H89172   4.518   8.986   7.671  0.2396  0.0738 -1.1287
  661MOL0     H89173   4.361   9.048   7.598 -2.7743 -1.8714 -1.1902
  661MOL0     H89174   4.528   9.092   7.448 -2.4462  0.2725  0.7298
  661MOL0     H89175   4.455   8.935   7.389  0.5185  0.5175 -1.6387
  661MOL0     H89176   4.723   8.963   7.547  0.4935 -0.0658 -1.6097
  661MOL0     H89177   4.641   8.807   7.499 -1.5646 -0.7841 -2.9813
  661MOL0     H89178   4.687   8.889   7.253 -0.8636  0.4514  0.0521
  661MOL0     H89179   4.783   9.026   7.328  1.1246 -0.6231 -1.1374
  661MOL0     H89180   4.916   8.828   7.447 -2.5344 -0.7016  2.0858
  661MOL0     H89181   4.820   8.731   7.339 -0.3978  0.9796 -1.6116
  661MOL0     H89182   4.988   8.968   7.213  1.5573 -0.9579 -0.3465
  661MOL0     H89183   4.893   8.852   7.126  1.6935 -0.2971 -1.9347
  661MOL0     H89184   5.139   8.803   7.302  1.3215 -1.4159  0.2915
  661MOL0     H89185   5.057   8.669   7.233  0.6178 -0.2533  2.0004
  661MOL0     H89186   4.997   8.699   6.943  0.7673 -2.1945  2.1577
  661MOL0     H89187   5.094   8.752   6.707 -0.7364 -0.1879 -0.5509
  661MOL0     H89188   5.143   8.927   6.714 -0.5849 -1.2426  0.0552
  661MOL0     H89189   5.376   8.845   6.681  0.7742 -1.2058 -1.7323
  661MOL0     H89190   5.313   8.674   6.688 -1.4697 -0.4744  0.3731
  661MOL0     H89191   5.245   8.883   6.477  1.9681 -0.2697 -1.3536
  661MOL0     H89192   5.171   8.722   6.484  0.8961 -1.0269 -0.1582
  661MOL0     H89193   5.338   8.726   6.318 -2.3084  2.0929  0.2145
  661MOL0     H89194   5.405   8.617   6.449  0.7790 -0.0888 -0.9258
  661MOL0     H89195   5.579   8.594   6.308 -1.0811  0.7393 -1.0204
  661MOL0     H89196   5.823   8.543   6.288  0.6477  0.0314 -0.0795
  661MOL0     H89197   6.210   8.742   6.069  0.7301 -0.0533 -3.6107
  661MOL0     H89198   6.420   8.652   5.972  1.9576 -1.4380  1.8222
  661MOL0     H89199   6.633   8.537   5.977 -1.1948 -0.1545 -2.1899
  661MOL0     H89200   6.654   8.411   6.106  0.0833 -0.7206 -0.3934
  661MOL0     H89201   6.734   8.248   5.948 -0.1024 -0.8826 -1.2085
  661MOL0     H89202   6.698   8.360   5.818  0.4248 -4.0598 -1.2312
  661MOL0     H89203   6.931   8.366   5.854 -0.7642 -1.0534 -0.2731
  661MOL0     H89204   6.855   8.516   5.927 -3.9429 -0.6234  0.7410
  661MOL0     H89205   6.945   8.251   6.078 -2.4857 -1.1302 -0.8278
  661MOL0     H89206   6.872   8.386   6.162  1.8664 -1.5465  1.8634
  661MOL0     H89207   7.057   8.525   6.037 -1.4933  0.1019 -1.5570
  661MOL0     H89208   7.147   8.379   6.041 -0.7186 -0.8061 -0.0210
  661MOL0     H89209   7.024   8.531   6.271  1.1567  4.2789 -4.5201
  661MOL0     H89210   7.107   8.372   6.297  1.3502  0.9494  2.0478
  661MOL0     H89211   7.247   8.621   6.193  0.2894  0.0075 -1.0461
  661MOL0     H89212   7.319   8.475   6.217  0.7884 -1.0081  1.9049
  661MOL0     H89213   7.367   8.609   6.427 -0.5284  2.9853  1.1792
  661MOL0     H89214   7.192   8.623   6.446 -0.5772 -1.1635  0.1497
  661MOL0     H89215   6.315   8.255   6.125  2.8202 -0.0994 -0.2551
  661MOL0     H89216   6.107   8.361   6.225 -0.6306  0.1033 -0.1534
  661MOL0     H89217   5.930   8.928   6.408 -1.1999  1.9231 -1.4695
  661MOL0     H89218   5.685   8.963   6.492 -1.7600 -0.8505  0.9023
  661MOL0     H89219   4.087   8.727   7.523  1.9269  1.0548  0.7625
  661MOL0     H89220   3.947   8.532   7.545  0.3290  0.6920 -1.1236
  661MOL0     H89221   3.805   8.240   7.896  1.2354 -1.4491  0.8870
  661MOL0     H89222   3.577   8.130   7.952 -1.4700 -0.4320 -0.0586
  661MOL0     H89223   3.426   7.986   7.996 -0.9062 -1.3236  0.5204
  661MOL0     H89224   3.287   7.929   7.911  1.6864 -0.0311 -0.2618
  661MOL0     H89225   3.302   8.217   7.884 -2.0211 -0.2139 -1.7591
  661MOL0     H89226   3.275   8.165   8.055  2.1062  2.1012 -0.5496
  661MOL0     H89227   3.061   8.192   7.946 -0.3202  1.6650 -1.9572
  661MOL0     H89228   3.088   8.015   7.943 -1.4598 -1.6944 -4.6555
  661MOL0     H89229   3.157   8.185   7.699 -2.2805  2.5740 -0.4718
  661MOL0     H89230   3.124   8.006   7.709 -0.5250 -0.8876  0.4112
  661MOL0     H89231   2.729   8.158   7.719 -0.7311  0.6605  4.0372
  661MOL0     H89232   3.526   8.022   7.547  0.5080  0.0733 -0.7002
  661MOL0     H89233   3.852   8.069   7.433  0.8370  3.2895  1.8225
  661MOL0     H89234   3.684   7.999   7.429  1.9850 -2.0484  1.5355
  661MOL0     H89235   3.712   8.164   7.388  0.2055  0.0314 -1.0292
  662MOL0     O89236   7.116   7.694   7.494 -0.3607 -0.4260  0.4772
  662MOL0     C89237   7.071   7.597   7.554  0.4789 -0.1598  0.8852
  662MOL0     O89238   7.146   7.512   7.619  1.1309 -0.1718 -0.3593
  662MOL0     C89239   7.280   7.492   7.605 -0.6920  0.1731 -0.6226
  662MOL0     C89240   7.364   7.517   7.707 -0.8501  0.3028  0.5314
  662MOL0     C89241   7.504   7.497   7.698  0.3303  0.5230  0.1600
  662MOL0     C89242   7.556   7.435   7.581 -0.6255  0.5984  0.3424
  662MOL0     O89243   7.680   7.386   7.560 -0.2927  0.4067  0.3092
  662MOL0     C89244   7.788   7.428   7.646  0.0452 -0.6014  0.3894
  662MOL0     C89245   7.904   7.330   7.627 -0.9874 -0.4008 -0.1539
  662MOL0     C89246   8.046   7.389   7.664  0.6402 -0.1541 -0.1319
  662MOL0     C89247   8.145   7.297   7.586  1.3116 -0.1619  0.5356
  662MOL0     C89248   8.288   7.330   7.605  0.4165 -0.1979  0.0211
  662MOL0     C89249   8.381   7.220   7.583 -0.4518  0.3202  1.1523
  662MOL0     C89250   8.500   7.225   7.679  0.1332  0.5495 -0.0023
  662MOL0     C89251   8.606   7.111   7.660  0.6526  0.2881  0.5501
  662MOL0     N89252   8.698   7.112   7.769 -0.6666 -0.0733 -0.2875
  662MOL0     C89253   8.788   7.215   7.782 -0.2965 -1.3990 -0.4153
  662MOL0     C89254   8.851   7.193   7.901  1.2782 -0.0726  0.3769
  662MOL0     C89255   8.977   7.264   7.931 -0.0644  0.1318 -0.0645
  662MOL0     C89256   9.030   7.225   8.068  0.0645  0.3590  0.2250
  662MOL0     C89257   9.165   7.288   8.089 -0.4295  0.0532 -0.0077
  662MOL0     C89258   9.277   7.219   8.016  0.0285  0.4489  1.2637
  662MOL0     O89259   9.397   7.248   8.088 -0.5902  0.0446  0.1425
  662MOL0     C89260   9.521   7.193   8.041 -0.0264  0.1237  0.1955
  662MOL0     C89261   9.642   7.231   8.105  0.0754 -0.5078  1.0814
  662MOL0     C89262   9.769   7.188   8.068  0.6825  0.2996  0.1480
  662MOL0     C89263   9.781   7.101   7.962  0.1339 -0.8188  0.5372
  662MOL0     C89264   9.907   7.055   7.914  0.2333  0.7257  0.7775
  662MOL0     O89265  10.015   7.080   7.995 -0.5670 -0.2473  0.0230
  662MOL0     C89266  10.144   7.045   7.941  0.7221 -0.0654 -0.8899
  662MOL0     C89267  10.179   6.931   7.869  0.3050 -0.2098  1.0276
  662MOL0     C89268  10.306   6.902   7.825  0.4646  0.4794  0.2888
  662MOL0     C89269  10.410   6.974   7.872 -0.2587 -0.1852 -0.3863
  662MOL0     O89270  10.520   6.959   7.802 -0.6034  0.2557 -0.3879
  662MOL0     C89271  10.631   7.053   7.819 -0.0275 -0.0591 -1.1131
  662MOL0     C89272  10.744   7.004   7.724 -0.0661 -1.6913 -0.9012
  662MOL0     C89273  10.860   7.104   7.696  1.0436  0.1470 -0.1081
  662MOL0     C89274  10.929   7.155   7.824 -0.4680 -0.2937  0.1721
  662MOL0     C89275  11.037   7.259   7.802 -0.0128  0.3565 -0.3364
  662MOL0     C89276  11.096   7.278   7.943  0.5121  0.0323  0.1432
  662MOL0     C89277  11.164   7.411   7.956 -0.5140 -0.6299  0.0019
  662MOL0     C89278  11.308   7.417   7.918 -0.7147  0.2955 -0.9868
  662MOL0    Cl89279  11.393   7.305   8.020 -0.3840  0.3251 -0.2082
  662MOL0     C89280  10.387   7.093   7.953 -0.0535 -0.7438  0.2436
  662MOL0     C89281  10.252   7.118   7.989 -0.4565  0.5681  0.7428
  662MOL0     O89282   9.904   7.006   7.796  0.3357  0.3991  0.4408
  662MOL0     C89283   9.657   7.060   7.902  0.5760  0.2608  0.1494
  662MOL0     C89284   9.531   7.113   7.931 -0.5487  0.1031 -0.7199
  662MOL0     N89285   8.771   7.098   7.962 -0.0181  0.5231 -0.6100
  662MOL0     N89286   8.684   7.049   7.888 -0.0448 -0.2099 -0.4293
  662MOL0     C89287   7.461   7.410   7.478  0.0941 -0.0768 -0.4291
  662MOL0     C89288   7.330   7.444   7.491  0.0793 -0.8365  0.1738
  662MOL0     C89289   6.926   7.575   7.553  0.1473  0.4549 -0.5665
  662MOL0     C89290   6.869   7.522   7.668 -0.3403  0.0393  0.2822
  662MOL0     C89291   6.732   7.501   7.689 -0.4863 -0.2391  0.0948
  662MOL0     C89292   6.650   7.520   7.588 -0.1551 -0.3953 -0.8938
  662MOL0     O89293   6.518   7.524   7.605  0.0420 -0.0297  0.1381
  662MOL0     C89294   6.468   7.628   7.691  0.3503  0.4730  0.1085
  662MOL0     C89295   6.378   7.712   7.609 -0.0895 -0.6781  0.3005
  662MOL0     C89296   6.250   7.648   7.582 -0.1930  0.8011  0.6937
  662MOL0     C89297   6.138   7.737   7.542  0.3548  0.9030 -0.6368
  662MOL0     C89298   6.010   7.664   7.528 -0.3606 -0.3799  0.6827
  662MOL0     C89299   5.907   7.605   7.529 -0.3370  0.0268 -0.5907
  662MOL0     C89300   6.702   7.557   7.467  0.7431  0.1272 -0.4438
  662MOL0     C89301   6.841   7.588   7.445 -0.1441  0.0376  1.4664
  662MOL0     C89302   6.889   7.649   7.307 -0.4977 -0.2532  0.2916
  662MOL0     H89303   7.328   7.564   7.798 -1.5522 -0.4359  0.6443
  662MOL0     H89304   7.569   7.513   7.783 -1.0866  0.2944  1.3229
  662MOL0     H89305   7.831   7.519   7.605  1.8693 -1.1886  0.8862
  662MOL0     H89306   7.769   7.429   7.754 -1.4095  1.5101  0.1784
  662MOL0     H89307   7.904   7.285   7.527  3.8492 -1.5892  0.1530
  662MOL0     H89308   7.884   7.239   7.686 -0.0029 -0.3658  0.2442
  662MOL0     H89309   8.063   7.379   7.772  0.0775  3.1215  0.3583
  662MOL0     H89310   8.058   7.489   7.623 -1.0851 -1.0811 -3.2102
  662MOL0     H89311   8.121   7.193   7.606 -0.0141  0.4196  2.2205
  662MOL0     H89312   8.127   7.315   7.480  0.4178  0.0772  0.7156
  662MOL0     H89313   8.312   7.423   7.553 -0.3903 -1.0618 -2.0057
  662MOL0     H89314   8.297   7.352   7.712 -1.8836  1.5896 -0.0749
  662MOL0     H89315   8.338   7.119   7.580 -0.6082  0.4052 -0.9732
  662MOL0     H89316   8.418   7.230   7.481 -1.4460  0.6804  0.8221
  662MOL0     H89317   8.452   7.219   7.777 -1.0306 -0.3744 -0.5973
  662MOL0     H89318   8.556   7.318   7.668 -0.7378  1.2675  1.4156
  662MOL0     H89319   8.551   7.017   7.670  0.9879  0.1817  1.5454
  662MOL0     H89320   8.660   7.118   7.566  1.5169  3.2200  1.1738
  662MOL0     H89321   8.819   7.287   7.707  0.7130 -0.1303  1.1538
  662MOL0     H89322   9.052   7.233   7.857 -0.2447 -0.5989  0.0512
  662MOL0     H89323   8.960   7.372   7.936 -0.5853 -0.0117  1.6058
  662MOL0     H89324   8.970   7.256   8.154  0.4692  0.8521  0.3344
  662MOL0     H89325   9.042   7.116   8.073 -0.3981  0.3191  0.6061
  662MOL0     H89326   9.185   7.295   8.196 -1.4268  2.1545  0.1022
  662MOL0     H89327   9.151   7.390   8.050 -0.3185  0.5059  1.1072
  662MOL0     H89328   9.277   7.255   7.913  0.0143  0.7114  1.3540
  662MOL0     H89329   9.243   7.115   8.012  0.9908  0.1492 -0.9059
  662MOL0     H89330   9.636   7.291   8.194  0.2953 -1.5151  1.7921
  662MOL0     H89331   9.857   7.219   8.125  1.3087  2.1451 -1.7176
  662MOL0     H89332  10.100   6.868   7.829 -1.3899  2.0196  0.6590
  662MOL0     H89333  10.326   6.830   7.747  0.6879  0.5639  0.2686
  662MOL0     H89334  10.607   7.159   7.803  0.1245 -0.1061 -1.6641
  662MOL0     H89335  10.659   7.051   7.925 -2.5606  1.1917 -0.3355
  662MOL0     H89336  10.787   6.912   7.766  1.5133 -1.1738 -1.3292
  662MOL0     H89337  10.700   6.981   7.626 -2.5389  0.9825 -0.5391
  662MOL0     H89338  10.943   7.062   7.639  0.2651 -0.5408 -0.7638
  662MOL0     H89339  10.807   7.189   7.653 -0.8964 -0.1910  1.4343
  662MOL0     H89340  10.957   7.072   7.890 -1.6817 -0.6336  0.2744
  662MOL0     H89341  10.847   7.201   7.880 -0.0281  0.9759 -0.1963
  662MOL0     H89342  10.992   7.346   7.753 -1.0983  1.4485  2.4192
  662MOL0     H89343  11.120   7.221   7.742  3.0282 -0.6857  4.0092
  662MOL0     H89344  11.018   7.261   8.018  3.2522 -3.8000  2.5341
  662MOL0     H89345  11.164   7.196   7.967  2.5077  0.8849 -2.1517
  662MOL0     H89346  11.153   7.440   8.061 -1.7556  1.0965 -0.5555
  662MOL0     H89347  11.106   7.484   7.899  0.0289 -0.3209 -0.1611
  662MOL0     H89348  11.330   7.393   7.813 -1.4216  2.2561 -1.6168
  662MOL0     H89349  11.342   7.519   7.936 -2.0948  0.1772  3.4008
  662MOL0     H89350  10.458   7.162   7.996 -0.2390  0.0309 -0.6605
  662MOL0     H89351  10.240   7.198   8.061 -3.2929  0.6885  0.2188
  662MOL0     H89352   9.679   6.985   7.826 -2.9311  2.9650 -4.0074
  662MOL0     H89353   9.448   7.074   7.873 -1.6407  0.9451  0.2177
  662MOL0     H89354   7.490   7.358   7.388 -0.0206  0.3929 -0.7392
  662MOL0     H89355   7.262   7.422   7.409 -1.4011  2.2708  0.4275
  662MOL0     H89356   6.942   7.507   7.746  1.7358  2.7288 -0.9728
  662MOL0     H89357   6.695   7.487   7.790  1.8220  3.4011  1.6676
  662MOL0     H89358   6.550   7.687   7.732  0.0778  0.1491  1.1699
  662MOL0     H89359   6.423   7.583   7.781  2.5244  0.1123  1.0645
  662MOL0     H89360   6.431   7.745   7.519  1.6090  1.0480  1.8426
  662MOL0     H89361   6.362   7.802   7.669  1.0964 -0.3648  0.1680
  662MOL0     H89362   6.219   7.584   7.665 -1.2546  0.5552  0.1231
  662MOL0     H89363   6.266   7.579   7.499 -1.4115  1.8813 -0.4749
  662MOL0     H89364   6.129   7.802   7.630  0.7913  2.1327 -1.4751
  662MOL0     H89365   6.159   7.789   7.448 -2.4314  0.0703 -1.8186
  662MOL0     H89366   5.827   7.534   7.537  0.3254 -0.9759 -2.3693
  662MOL0     H89367   6.638   7.554   7.379  1.2236 -1.3168 -0.7705
  662MOL0     H89368   6.797   7.657   7.248 -0.4412  0.3399  0.2753
  662MOL0     H89369   6.943   7.744   7.308  0.3641 -0.7225 -0.5854
  662MOL0     H89370   6.952   7.582   7.248 -2.0761 -1.1533 -0.4452
  663MOL0     O89371   5.649   8.836  11.185 -0.8903 -0.0444  0.3010
  663MOL0     C89372   5.635   8.788  11.303 -0.4129  0.1836  0.5916
  663MOL0     O89373   5.731   8.755  11.386 -0.9270 -0.1100 -0.1956
  663MOL0     C89374   5.867   8.762  11.337  0.0088  0.0814  0.0338
  663MOL0     C89375   5.949   8.860  11.390 -0.0247  0.3835 -0.1638
  663MOL0     C89376   6.082   8.881  11.346  0.0575  0.3642  0.1642
  663MOL0     C89377   6.131   8.799  11.245 -0.5594 -0.0874  0.1400
  663MOL0     O89378   6.265   8.826  11.224 -0.3222 -0.4655  0.1172
  663MOL0     C89379   6.333   8.786  11.100  0.5832 -0.3945 -0.2180
  663MOL0     C89380   6.300   8.874  10.980  0.4837  0.3456 -0.2284
  663MOL0     C89381   6.278   9.024  11.011 -0.3457  0.4638 -0.5834
  663MOL0     C89382   6.410   9.093  11.048  0.4904  0.0289  0.0674
  663MOL0     C89383   6.404   9.247  11.076  0.8574  0.4971  0.2581
  663MOL0     C89384   6.341   9.328  10.960  0.0787 -0.2854 -0.2749
  663MOL0     C89385   6.414   9.317  10.828  0.2600  0.0558 -0.4342
  663MOL0     C89386   6.330   9.367  10.709 -0.1353 -0.3355 -0.5455
  663MOL0     N89387   6.400   9.362  10.574  0.3890 -0.4135 -0.9922
  663MOL0     C89388   6.420   9.463  10.480  0.1315  0.2535  0.4189
  663MOL0     C89389   6.450   9.406  10.363 -0.0606  0.1074 -0.1468
  663MOL0     C89390   6.446   9.484  10.241  0.2855 -0.3340  1.0367
  663MOL0     C89391   6.566   9.466  10.148 -1.1952  0.3010  0.3142
  663MOL0     C89392   6.699   9.506  10.217 -0.4459  0.0201 -0.3274
  663MOL0     C89393   6.821   9.509  10.130  0.3313  0.0074 -0.1758
  663MOL0     O89394   6.927   9.475  10.216 -0.7081  0.0583  0.5854
  663MOL0     C89395   7.052   9.451  10.156  0.3072  0.1104 -0.7858
  663MOL0     C89396   7.095   9.501  10.033  0.4189  0.0234  0.2675
  663MOL0     C89397   7.227   9.481   9.988  0.0799 -0.4253 -0.0860
  663MOL0     C89398   7.320   9.408  10.057  0.0512 -0.1565  0.2136
  663MOL0     C89399   7.454   9.395   9.998  0.4509 -0.2878  0.1564
  663MOL0     O89400   7.478   9.424   9.862 -0.1632 -0.8710 -0.2803
  663MOL0     C89401   7.607   9.410   9.824 -0.1446  0.8714 -0.3709
  663MOL0     C89402   7.683   9.528   9.799 -0.1859 -0.0322  0.6307
  663MOL0     C89403   7.815   9.515   9.742  0.9900 -0.4720 -0.3665
  663MOL0     C89404   7.855   9.392   9.698  0.7292  0.2444 -0.3901
  663MOL0     O89405   7.989   9.382   9.659 -0.0952  0.4673 -0.4732
  663MOL0     C89406   8.045   9.252   9.645  0.3047  0.2710  0.0033
  663MOL0     C89407   8.201   9.280   9.617 -0.1802  0.1817  0.1001
  663MOL0     C89408   8.279   9.359   9.726  0.2424  0.0086  0.1479
  663MOL0     C89409   8.423   9.369   9.669 -0.7142 -0.1901 -0.0119
  663MOL0     C89410   8.524   9.461   9.735  0.6876 -0.4436 -0.4376
  663MOL0     C89411   8.559   9.429   9.880  0.6448  0.8882  0.1957
  663MOL0     C89412   8.678   9.506   9.931 -0.4553  0.3353  0.3806
  663MOL0     C89413   8.710   9.490  10.082  0.1282 -0.4954 -0.9995
  663MOL0    Cl89414   8.869   9.564  10.114 -0.2893 -0.0344 -0.2191
  663MOL0     C89415   7.768   9.275   9.699  0.4664 -0.6364 -0.7761
  663MOL0     C89416   7.646   9.288   9.776 -0.1117  0.6398  0.6608
  663MOL0     O89417   7.542   9.350  10.077  0.2430 -0.5349 -0.5149
  663MOL0     C89418   7.276   9.358  10.180 -0.5773  0.3725  0.6892
  663MOL0     C89419   7.146   9.386  10.231  0.1486  0.1581 -0.4515
  663MOL0     N89420   6.458   9.274  10.387  0.8635  0.1222  0.4758
  663MOL0     N89421   6.427   9.248  10.507  1.3800 -0.2577 -0.2896
  663MOL0     C89422   6.047   8.702  11.188  0.3131  0.7543 -0.1798
  663MOL0     C89423   5.913   8.687  11.231  0.0044 -0.4812 -0.5524
  663MOL0     C89424   5.503   8.763  11.359  0.3090 -0.1962 -0.7146
  663MOL0     C89425   5.487   8.652  11.448  0.5393  0.2167  0.2834
  663MOL0     C89426   5.358   8.617  11.497 -0.5385  0.6845 -0.1322
  663MOL0     C89427   5.248   8.693  11.452 -0.1105 -0.7857  0.1940
  663MOL0     O89428   5.120   8.682  11.483 -0.0522  0.1825 -0.1331
  663MOL0     C89429   5.104   8.602  11.594  0.1165 -0.3305  0.2267
  663MOL0     C89430   4.956   8.595  11.652 -0.0875 -0.2034 -0.5051
  663MOL0     C89431   4.874   8.734  11.639 -0.2690  1.0453  0.6021
  663MOL0     C89432   4.721   8.736  11.685  0.6350  0.5758 -1.1449
  663MOL0     C89433   4.642   8.648  11.599  1.0621  0.1529 -1.0816
  663MOL0     C89434   4.589   8.581  11.518  0.1657  0.2054 -0.2527
  663MOL0     C89435   5.266   8.806  11.374  1.2198 -0.3829 -0.0685
  663MOL0     C89436   5.392   8.853  11.332 -0.6234 -0.0804  0.2632
  663MOL0     C89437   5.410   8.978  11.251 -0.0121 -0.6770  0.1269
  663MOL0     H89438   5.913   8.925  11.470 -1.5108 -2.3276  1.5198
  663MOL0     H89439   6.146   8.947  11.403 -1.5436 -0.7772  3.5508
  663MOL0     H89440   6.440   8.806  11.115 -0.0906  2.9352  1.0452
  663MOL0     H89441   6.308   8.681  11.081 -1.9181  0.3200 -1.1808
  663MOL0     H89442   6.201   8.842  10.948  0.7958 -1.2858  0.3413
  663MOL0     H89443   6.364   8.859  10.892  1.2563 -1.6290  0.6286
  663MOL0     H89444   6.207   9.030  11.094  0.5836 -2.2353  0.5071
  663MOL0     H89445   6.234   9.063  10.919  2.1482 -0.4727 -2.2718
  663MOL0     H89446   6.439   9.041  11.140  2.1239  1.3282  0.3376
  663MOL0     H89447   6.490   9.064  10.979  1.7304  1.6503  0.7603
  663MOL0     H89448   6.336   9.254  11.162  1.4034 -0.5837  0.7892
  663MOL0     H89449   6.504   9.278  11.109  0.1725  3.3184 -0.0228
  663MOL0     H89450   6.234   9.310  10.945  0.3177 -1.3895 -0.7897
  663MOL0     H89451   6.360   9.429  10.997  1.9337 -1.1033  1.1821
  663MOL0     H89452   6.430   9.210  10.811 -1.3047 -0.4531  0.9854
  663MOL0     H89453   6.510   9.369  10.832 -1.1491  2.7534  1.7765
  663MOL0     H89454   6.240   9.305  10.702 -0.7779 -0.0760  3.4008
  663MOL0     H89455   6.280   9.464  10.724 -0.1643 -0.4382  0.0390
  663MOL0     H89456   6.393   9.567  10.494 -4.0352 -0.7429  0.9766
  663MOL0     H89457   6.360   9.464  10.177 -1.3334  1.9091  2.3717
  663MOL0     H89458   6.442   9.592  10.258  1.3274 -0.3088  1.1936
  663MOL0     H89459   6.572   9.361  10.117  0.3692  0.7051 -0.9184
  663MOL0     H89460   6.558   9.534  10.063 -0.5397 -0.6379 -0.5243
  663MOL0     H89461   6.727   9.454  10.309  0.4417 -1.1858 -1.2557
  663MOL0     H89462   6.682   9.609  10.249 -2.0180 -0.0546 -0.8200
  663MOL0     H89463   6.838   9.608  10.087 -1.2785  1.0469  1.4359
  663MOL0     H89464   6.802   9.434  10.053 -1.2129  0.2779 -0.0812
  663MOL0     H89465   7.031   9.561   9.969  0.6235  0.1767  0.2070
  663MOL0     H89466   7.249   9.524   9.891  1.8508 -1.9328 -0.4072
  663MOL0     H89467   7.643   9.623   9.834 -2.3774 -0.4414 -0.5756
  663MOL0     H89468   7.882   9.599   9.754  1.6069 -1.0484  0.3360
  663MOL0     H89469   8.028   9.193   9.735 -0.4393 -3.2189 -2.2350
  663MOL0     H89470   7.999   9.207   9.556 -2.8405  0.5645  1.3219
  663MOL0     H89471   8.251   9.187   9.590 -0.9205  0.0716 -0.9678
  663MOL0     H89472   8.194   9.342   9.527 -3.0247 -0.2182 -0.0337
  663MOL0     H89473   8.228   9.456   9.734 -1.4782 -0.5765 -2.4334
  663MOL0     H89474   8.277   9.308   9.823  4.3112  2.4775  1.7968
  663MOL0     H89475   8.425   9.405   9.566  0.1203  0.8993  0.3547
  663MOL0     H89476   8.466   9.269   9.664 -1.7439 -0.5857 -2.0464
  663MOL0     H89477   8.479   9.561   9.735 -2.6283 -1.7896  0.9299
  663MOL0     H89478   8.615   9.474   9.677  0.6218 -0.6437 -0.5875
  663MOL0     H89479   8.475   9.445   9.949  0.4275  0.7200 -0.0258
  663MOL0     H89480   8.585   9.322   9.884  3.5318  1.5558  1.0736
  663MOL0     H89481   8.684   9.609   9.893  2.6521  0.1931  0.2266
  663MOL0     H89482   8.765   9.465   9.880  1.1751  2.9619  0.8570
  663MOL0     H89483   8.628   9.551  10.120  0.8198  1.2324 -2.1602
  663MOL0     H89484   8.701   9.386  10.116 -0.7269  0.5509  2.4245
  663MOL0     H89485   7.794   9.190   9.637  0.6843  1.3872 -3.6811
  663MOL0     H89486   7.570   9.212   9.790 -1.6313  2.0041  0.1412
  663MOL0     H89487   7.351   9.326  10.252 -2.4455 -0.5362  2.3315
  663MOL0     H89488   7.121   9.344  10.327  0.0265  0.7050 -0.2413
  663MOL0     H89489   6.089   8.628  11.121  3.0290  0.8977  1.2144
  663MOL0     H89490   5.845   8.622  11.177 -0.8018  1.8662 -2.5414
  663MOL0     H89491   5.570   8.587  11.476  1.6898  0.9221 -1.3544
  663MOL0     H89492   5.353   8.531  11.564  0.5595  0.1211 -0.7315
  663MOL0     H89493   5.163   8.646  11.675  0.4317  2.9866 -1.6554
  663MOL0     H89494   5.139   8.503  11.561  5.4927  1.3342  0.0509
  663MOL0     H89495   4.943   8.558  11.754 -1.2476  1.4303 -0.0265
  663MOL0     H89496   4.907   8.522  11.586  0.2896 -0.9524  0.0221
  663MOL0     H89497   4.886   8.750  11.532 -2.4466  1.2703  0.3566
  663MOL0     H89498   4.922   8.815  11.696  0.4531  0.4178  0.9052
  663MOL0     H89499   4.721   8.698  11.788  1.3162 -1.1499 -1.7381
  663MOL0     H89500   4.676   8.836  11.687  0.8977  0.6903 -0.8974
  663MOL0     H89501   4.531   8.519  11.454 -3.2163  1.4014  1.3963
  663MOL0     H89502   5.179   8.857  11.333  1.6824  0.6032  0.1292
  663MOL0     H89503   5.508   9.026  11.259 -0.6940  1.1006 -1.3175
  663MOL0     H89504   5.384   8.953  11.148  0.6335 -0.4717 -0.0884
  663MOL0     H89505   5.344   9.056  11.292  0.9286  1.7595 -2.6133
  664MOL0     O89506   9.208   7.765   5.352  0.0411 -0.1574 -0.4002
  664MOL0     C89507   9.198   7.650   5.315  0.3189  0.4675 -0.4308
  664MOL0     O89508   9.299   7.566   5.301  0.7076  0.0997  0.6583
  664MOL0     C89509   9.410   7.631   5.254 -1.0762  0.0630  0.2150
  664MOL0     C89510   9.421   7.714   5.145 -0.6370  0.5992 -0.5730
  664MOL0     C89511   9.554   7.740   5.097  0.1584  0.9011  0.8730
  664MOL0     C89512   9.672   7.703   5.167  0.6796  0.0313 -0.5004
  664MOL0     O89513   9.794   7.749   5.125  0.1980  0.3897  0.0764
  664MOL0     C89514   9.903   7.685   5.189 -0.0811 -0.1438 -0.3076
  664MOL0     C89515  10.030   7.685   5.099  0.1793 -0.4961  0.1793
  664MOL0     C89516  10.144   7.613   5.160  1.1484 -0.2210 -0.3481
  664MOL0     C89517  10.118   7.470   5.204 -0.2667  0.6449 -0.3031
  664MOL0     C89518  10.249   7.415   5.272 -0.1459 -1.0266 -1.4805
  664MOL0     C89519  10.249   7.271   5.325  0.0635 -0.0873 -0.3519
  664MOL0     C89520  10.386   7.241   5.391 -0.0079  0.1169  0.0820
  664MOL0     C89521  10.374   7.113   5.475  0.9885 -0.7417  0.7988
  664MOL0     N89522  10.510   7.087   5.530  0.4357  1.1569 -0.4258
  664MOL0     C89523  10.526   7.011   5.649  0.4809  0.8049  0.2197
  664MOL0     C89524  10.657   6.988   5.641 -0.2797 -0.3373  0.3502
  664MOL0     C89525  10.731   6.921   5.753 -0.8943  0.6382 -0.2967
  664MOL0     C89526  10.750   7.012   5.880 -0.6953 -0.5728  0.1956
  664MOL0     C89527  10.799   6.924   6.000 -0.1531  1.0073  0.3228
  664MOL0     C89528  10.938   6.929   6.025 -0.6505 -0.1058  0.2071
  664MOL0     O89529  10.980   7.057   6.071 -1.2587 -1.0075  0.6967
  664MOL0     C89530  11.119   7.080   6.084  0.0498  0.6683 -0.5862
  664MOL0     C89531  11.157   7.202   6.132  0.5864  0.3407  0.6636
  664MOL0     C89532  11.289   7.245   6.152  0.1851 -0.0948  0.2932
  664MOL0     C89533  11.390   7.159   6.102 -0.2624  0.8908 -1.1569
  664MOL0     C89534  11.531   7.211   6.111  0.2550  0.4063  0.8578
  664MOL0     O89535  11.630   7.116   6.081 -0.7754 -0.4162 -0.1996
  664MOL0     C89536  11.761   7.167   6.074 -0.1576 -0.5692 -0.3670
  664MOL0     C89537  11.820   7.149   5.952 -0.8245  0.6578  0.4861
  664MOL0     C89538  11.960   7.164   5.927  0.2548 -0.3253  0.0460
  664MOL0     C89539  12.043   7.199   6.041 -0.2711 -0.0479  0.1831
  664MOL0     O89540  12.177   7.229   6.027 -0.4214  0.4057 -0.5523
  664MOL0     C89541  12.229   7.254   5.891  0.1322 -0.3275 -0.8934
  664MOL0     C89542  12.378   7.297   5.906 -0.0918 -0.2721  0.6488
  664MOL0     C89543  12.464   7.260   5.777 -0.3185 -0.0771  0.6123
  664MOL0     C89544  12.611   7.272   5.809  0.6911 -0.1485 -0.6603
  664MOL0     C89545  12.662   7.416   5.837  0.1969  0.3750  0.0425
  664MOL0     C89546  12.813   7.430   5.856  0.2819  0.0195  0.6586
  664MOL0     C89547  12.865   7.335   5.963  0.3600 -0.2239  0.0314
  664MOL0     C89548  12.998   7.379   6.020 -0.3814  0.4777  0.6402
  664MOL0    Cl89549  13.001   7.524   6.122  0.2788  0.2446  0.3381
  664MOL0     C89550  11.983   7.210   6.165  0.4168 -0.7018  1.2869
  664MOL0     C89551  11.842   7.192   6.183 -0.2395  0.1950  0.3194
  664MOL0     O89552  11.554   7.331   6.139  0.6361 -0.4794 -0.2581
  664MOL0     C89553  11.362   7.033   6.055 -0.3418 -0.5779 -0.5088
  664MOL0     C89554  11.225   6.996   6.050  0.1545 -0.4412 -0.6675
  664MOL0     N89555  10.711   7.051   5.534 -0.4157 -0.0122 -0.1299
  664MOL0     N89556  10.622   7.099   5.460  0.3318 -0.0124  0.0109
  664MOL0     C89557   9.656   7.627   5.285 -0.4795 -0.4900  0.5112
  664MOL0     C89558   9.525   7.595   5.322  0.0873  0.3967 -0.3794
  664MOL0     C89559   9.064   7.596   5.322  0.0326  0.8082 -0.4543
  664MOL0     C89560   8.990   7.612   5.439  0.8199  0.3378 -0.2126
  664MOL0     C89561   8.873   7.547   5.464  0.3670 -0.0847  0.5091
  664MOL0     C89562   8.823   7.459   5.367 -0.5700 -0.8176  0.8007
  664MOL0     O89563   8.695   7.404   5.388  0.4502  0.5536  0.4754
  664MOL0     C89564   8.637   7.316   5.291  0.5919  0.2012 -0.1749
  664MOL0     C89565   8.519   7.249   5.355 -0.5593  0.9219  0.4201
  664MOL0     C89566   8.389   7.307   5.301  0.0445 -0.4637 -0.4196
  664MOL0     C89567   8.363   7.453   5.328 -0.7227  0.2335 -0.4728
  664MOL0     C89568   8.226   7.498   5.292  0.6883  1.2234  0.3174
  664MOL0     C89569   8.120   7.553   5.267  0.2708  0.0355 -0.5540
  664MOL0     C89570   8.886   7.447   5.248 -0.0361  0.4197  0.8836
  664MOL0     C89571   9.006   7.518   5.222 -0.6667  0.2642  0.0235
  664MOL0     C89572   9.068   7.497   5.091  0.1640  0.2117 -0.9785
  664MOL0     H89573   9.334   7.759   5.098  0.4637  5.1950  1.1659
  664MOL0     H89574   9.564   7.801   5.008 -0.5037  1.6634  1.2957
  664MOL0     H89575   9.937   7.719   5.287  0.6857  1.4337 -1.0815
  664MOL0     H89576   9.871   7.580   5.193 -1.9714  0.4103  0.0883
  664MOL0     H89577  10.051   7.792   5.084 -1.4480 -0.5387 -3.0904
  664MOL0     H89578  10.005   7.644   5.002  0.0817  0.0217 -0.0196
  664MOL0     H89579  10.181   7.668   5.247 -2.7795 -2.8601  3.4263
  664MOL0     H89580  10.226   7.605   5.088  1.5444  0.9809 -0.0534
  664MOL0     H89581  10.040   7.451   5.277  0.9851 -1.9559  0.4632
  664MOL0     H89582  10.105   7.409   5.114  0.7732 -2.4238  1.5132
  664MOL0     H89583  10.322   7.434   5.192  0.3672  1.8736 -0.4443
  664MOL0     H89584  10.281   7.481   5.353 -0.8430 -0.2480 -1.8200
  664MOL0     H89585  10.164   7.259   5.393  1.8332 -3.2501  1.5226
  664MOL0     H89586  10.235   7.201   5.243 -0.5193  0.8677 -1.0982
  664MOL0     H89587  10.427   7.321   5.453  0.9631  1.8526 -2.6142
  664MOL0     H89588  10.462   7.226   5.314 -0.3254  0.6287 -0.3397
  664MOL0     H89589  10.308   7.131   5.560 -0.0327 -1.3710  0.1636
  664MOL0     H89590  10.337   7.033   5.409  1.0231  0.8853 -1.3212
  664MOL0     H89591  10.459   6.977   5.727  0.1566  0.1534 -0.3344
  664MOL0     H89592  10.661   6.844   5.788  0.7123 -0.1281  1.4022
  664MOL0     H89593  10.825   6.880   5.715  1.2613  4.2378  0.6605
  664MOL0     H89594  10.824   7.091   5.869 -0.9639 -0.0690  1.8035
  664MOL0     H89595  10.655   7.063   5.901  0.4712  1.3807  0.9147
  664MOL0     H89596  10.791   6.816   5.982  1.1471  0.4273  2.8474
  664MOL0     H89597  10.746   6.945   6.093  2.8991  4.4348  1.5101
  664MOL0     H89598  11.000   6.885   5.946 -0.1097 -0.2856  0.7322
  664MOL0     H89599  10.946   6.864   6.112 -3.5290  0.1854  0.7919
  664MOL0     H89600  11.073   7.257   6.174 -0.9641 -1.4033  0.0269
  664MOL0     H89601  11.308   7.348   6.183  1.7619 -0.1592 -0.3635
  664MOL0     H89602  11.761   7.116   5.867  0.5428  0.4734 -0.4369
  664MOL0     H89603  11.990   7.156   5.823 -3.4473 -0.8274 -1.1371
  664MOL0     H89604  12.228   7.158   5.839 -1.8722 -2.3351  2.4837
  664MOL0     H89605  12.175   7.329   5.833 -2.5692 -1.6323 -0.2016
  664MOL0     H89606  12.367   7.404   5.922 -0.2339 -0.3960  1.4068
  664MOL0     H89607  12.426   7.266   5.999  0.5476  3.2859  1.6549
  664MOL0     H89608  12.447   7.154   5.756 -2.2670  0.4013 -0.4502
  664MOL0     H89609  12.423   7.314   5.691 -0.8042 -1.0608  0.2110
  664MOL0     H89610  12.659   7.226   5.722 -0.9489 -0.2091 -1.5807
  664MOL0     H89611  12.632   7.220   5.903  0.3903  2.1070  0.7325
  664MOL0     H89612  12.613   7.454   5.927  1.5230  2.6025 -0.0989
  664MOL0     H89613  12.637   7.477   5.750  1.3558 -1.4555 -1.6496
  664MOL0     H89614  12.852   7.410   5.756 -2.2647 -1.7885 -0.0857
  664MOL0     H89615  12.835   7.535   5.879 -0.9492  0.4498  0.0047
  664MOL0     H89616  12.885   7.240   5.912  0.6209 -0.2161  0.1155
  664MOL0     H89617  12.801   7.322   6.050  2.0980 -0.9108  1.2643
  664MOL0     H89618  13.039   7.296   6.078 -3.9180 -2.0112 -0.1044
  664MOL0     H89619  13.057   7.397   5.930  0.6661  0.2864  1.2782
  664MOL0     H89620  12.050   7.222   6.250  2.3090 -3.0371  0.2544
  664MOL0     H89621  11.798   7.200   6.283 -3.9035 -0.8919 -1.0188
  664MOL0     H89622  11.439   6.965   6.020  0.3321 -1.2762  2.0978
  664MOL0     H89623  11.211   6.897   6.006 -0.1480 -0.3486 -0.7840
  664MOL0     H89624   9.744   7.602   5.344  1.3252  3.6220 -0.1557
  664MOL0     H89625   9.514   7.530   5.409  0.4942 -1.7617 -1.8639
  664MOL0     H89626   9.015   7.686   5.514  2.3910 -0.3699  0.0099
  664MOL0     H89627   8.809   7.567   5.549 -1.0705 -0.9726 -0.3153
  664MOL0     H89628   8.701   7.231   5.265  0.1799 -0.3234  0.5129
  664MOL0     H89629   8.600   7.369   5.203  0.4048  0.1504 -0.1282
  664MOL0     H89630   8.516   7.267   5.463  1.1507  2.6456  0.2432
  664MOL0     H89631   8.519   7.143   5.329  0.4791  1.2212 -0.9490
  664MOL0     H89632   8.311   7.246   5.347 -0.1157  1.6774  2.3326
  664MOL0     H89633   8.370   7.293   5.194 -0.5597  0.0557 -0.3834
  664MOL0     H89634   8.382   7.485   5.430 -1.0013  4.6097 -1.6043
  664MOL0     H89635   8.439   7.512   5.275 -0.1547  0.7215  0.8529
  664MOL0     H89636   8.036   7.608   5.231  0.1654 -1.2150 -2.3379
  664MOL0     H89637   8.848   7.386   5.167  0.2080  1.2059  0.1611
  664MOL0     H89638   9.052   7.399   5.046 -0.1943 -0.1106 -0.1738
  664MOL0     H89639   9.003   7.566   5.036 -2.0149 -0.6126  0.4096
  664MOL0     H89640   9.170   7.534   5.082  0.7149 -1.0029  0.1196
  665MOL0     O89641   5.142   4.630   1.540 -0.4072 -0.0384 -0.6128
  665MOL0     C89642   5.261   4.626   1.504 -0.1326 -0.2844  0.6619
  665MOL0     O89643   5.312   4.681   1.387  0.5388 -0.9272  0.6521
  665MOL0     C89644   5.221   4.692   1.287  0.1297  0.2108 -0.2785
  665MOL0     C89645   5.231   4.586   1.189  0.0542  0.6851 -0.2043
  665MOL0     C89646   5.138   4.575   1.085 -1.1115 -0.0690  0.0360
  665MOL0     C89647   5.030   4.676   1.075  0.0040 -0.1534  1.1923
  665MOL0     O89648   4.935   4.678   0.980  0.3195 -0.8385  1.0395
  665MOL0     C89649   4.907   4.561   0.906  0.0992  0.2028 -0.2611
  665MOL0     C89650   4.791   4.596   0.807  0.1518  1.2086  0.1186
  665MOL0     C89651   4.832   4.679   0.681  0.6495 -0.3543 -0.3319
  665MOL0     C89652   4.889   4.813   0.710 -0.1372 -0.0774  0.3595
  665MOL0     C89653   4.862   4.919   0.605 -0.8104  0.5561  0.0165
  665MOL0     C89654   4.912   4.884   0.459 -0.0888 -0.4584  0.4647
  665MOL0     C89655   5.060   4.866   0.457 -0.7413  0.0170 -0.2826
  665MOL0     C89656   5.134   4.992   0.510  0.3903  0.5226  0.1314
  665MOL0     N89657   5.276   4.973   0.501  0.2242 -0.3050  0.2051
  665MOL0     C89658   5.341   4.891   0.578 -0.7271  0.0704 -0.5415
  665MOL0     C89659   5.465   4.883   0.534 -0.0143  0.0830 -0.2760
  665MOL0     C89660   5.575   4.807   0.591 -0.3350  0.4134  0.2052
  665MOL0     C89661   5.660   4.726   0.488 -0.5318 -0.5036 -0.9968
  665MOL0     C89662   5.751   4.615   0.536 -0.8226 -0.1355 -0.1367
  665MOL0     C89663   5.854   4.667   0.640 -0.0336 -0.1016 -0.5858
  665MOL0     O89664   5.928   4.784   0.593  0.7029  0.2581 -0.5592
  665MOL0     C89665   6.012   4.842   0.681  0.1348  0.0103  0.4154
  665MOL0     C89666   6.046   4.785   0.802  0.1977  0.2314 -0.2327
  665MOL0     C89667   6.136   4.851   0.888  0.6095 -0.0500 -0.0826
  665MOL0     C89668   6.179   4.979   0.858  0.2884  1.2522 -0.0533
  665MOL0     C89669   6.269   5.050   0.951 -0.3523 -0.6883  0.3197
  665MOL0     O89670   6.314   5.175   0.918 -0.5153  0.5304 -0.0624
  665MOL0     C89671   6.380   5.239   1.014  0.2473 -0.1758  0.9549
  665MOL0     C89672   6.508   5.300   0.995 -0.7499  0.6348 -0.2108
  665MOL0     C89673   6.569   5.391   1.083 -0.3121 -0.1117 -0.0109
  665MOL0     C89674   6.503   5.415   1.210  0.0920 -0.0878 -0.4779
  665MOL0     O89675   6.535   5.509   1.307 -0.0535 -0.1379 -0.3015
  665MOL0     C89676   6.616   5.623   1.252  0.0413  0.7194  0.2442
  665MOL0     C89677   6.621   5.732   1.351 -0.1640  0.0414  0.9904
  665MOL0     C89678   6.492   5.804   1.385 -0.1183  0.2694  0.7173
  665MOL0     C89679   6.524   5.916   1.484  0.9246  0.4435  0.1914
  665MOL0     C89680   6.574   5.879   1.625 -0.6066 -0.1982  0.4920
  665MOL0     C89681   6.654   5.992   1.688  1.2428 -1.4615 -0.7518
  665MOL0     C89682   6.579   6.134   1.689  0.1060 -0.2293  0.5757
  665MOL0     C89683   6.677   6.255   1.713  0.6788 -0.6014 -0.7380
  665MOL0    Cl89684   6.810   6.245   1.589  0.0496  0.2065 -0.4025
  665MOL0     C89685   6.384   5.350   1.237  0.8222  0.2223 -0.7074
  665MOL0     C89686   6.312   5.279   1.130 -0.1809 -0.1711  0.4235
  665MOL0     O89687   6.297   4.993   1.058 -1.0160 -0.4388  0.3970
  665MOL0     C89688   6.149   5.036   0.735 -0.1394 -0.0919 -0.4642
  665MOL0     C89689   6.065   4.967   0.653 -0.0620  0.2514  0.0409
  665MOL0     N89690   5.463   4.960   0.417 -0.7367  0.0726  0.7169
  665MOL0     N89691   5.347   5.010   0.394  0.2607 -0.0844  0.1432
  665MOL0     C89692   5.031   4.784   1.161  0.5554 -0.0616  0.8700
  665MOL0     C89693   5.126   4.797   1.268  0.2123  1.0219 -0.0602
  665MOL0     C89694   5.360   4.555   1.595  0.6689  0.2298 -0.1401
  665MOL0     C89695   5.324   4.429   1.644 -0.1194  0.2493  0.8892
  665MOL0     C89696   5.413   4.349   1.709  0.0464 -0.3381  0.1645
  665MOL0     C89697   5.547   4.386   1.736  0.0723  1.0553  0.7968
  665MOL0     O89698   5.646   4.311   1.799  0.4402 -0.0335  0.8222
  665MOL0     C89699   5.626   4.171   1.835 -0.4989  0.2845 -0.2861
  665MOL0     C89700   5.630   4.075   1.708  0.3854  0.4488  0.2193
  665MOL0     C89701   5.612   3.930   1.760 -0.6673  0.2156 -0.0613
  665MOL0     C89702   5.635   3.831   1.652  0.4740 -0.0005 -0.1355
  665MOL0     C89703   5.781   3.834   1.629  0.7898 -0.5750  0.3143
  665MOL0     C89704   5.898   3.824   1.599  0.8068 -0.1955 -0.3649
  665MOL0     C89705   5.579   4.517   1.699 -0.0901  0.9012 -0.5162
  665MOL0     C89706   5.486   4.599   1.634 -0.0110  0.3310 -0.4187
  665MOL0     C89707   5.533   4.734   1.587  0.0481 -0.9538  0.3743
  665MOL0     H89708   5.308   4.513   1.212  1.0342  2.4841  2.7611
  665MOL0     H89709   5.147   4.496   1.011  1.2337 -0.3944  0.6042
  665MOL0     H89710   4.991   4.519   0.851  0.9497 -0.4504  1.4639
  665MOL0     H89711   4.870   4.484   0.975 -2.3142 -0.8773 -2.5856
  665MOL0     H89712   4.708   4.647   0.856 -1.7930  0.2796 -2.0684
  665MOL0     H89713   4.750   4.501   0.772  1.4883 -0.2032  2.0930
  665MOL0     H89714   4.750   4.707   0.614  1.2945  6.8706  1.0611
  665MOL0     H89715   4.909   4.622   0.629 -0.2668 -2.3738  0.4438
  665MOL0     H89716   4.859   4.838   0.812 -0.4978  1.5060 -0.1091
  665MOL0     H89717   4.998   4.808   0.718 -0.2167  1.2211  4.7916
  665MOL0     H89718   4.754   4.934   0.605 -0.8840  0.0538  0.1861
  665MOL0     H89719   4.911   5.010   0.641 -1.6560  0.9342  0.2434
  665MOL0     H89720   4.866   4.796   0.412  0.4772 -1.3795  1.5926
  665MOL0     H89721   4.883   4.961   0.387 -1.1208 -2.2422 -1.1296
  665MOL0     H89722   5.089   4.837   0.356  0.6139  3.0324 -0.8817
  665MOL0     H89723   5.090   4.786   0.525  1.5152  0.7213 -0.3813
  665MOL0     H89724   5.098   5.075   0.448 -0.8158  0.5209  0.8022
  665MOL0     H89725   5.110   5.005   0.616 -0.1335  0.6583 -0.0013
  665MOL0     H89726   5.306   4.844   0.670 -0.1698  1.2549  0.3076
  665MOL0     H89727   5.647   4.870   0.645  1.3794 -1.3326  0.0961
  665MOL0     H89728   5.533   4.745   0.671  0.1903  1.0032  0.9565
  665MOL0     H89729   5.574   4.686   0.433 -1.7285  2.5041 -1.5247
  665MOL0     H89730   5.720   4.792   0.425  1.1299 -0.5973  0.3994
  665MOL0     H89731   5.808   4.570   0.454  0.1403 -0.3356  0.6173
  665MOL0     H89732   5.692   4.538   0.587  0.4931 -1.2258 -0.2122
  665MOL0     H89733   5.928   4.587   0.651  2.5778  2.1100 -0.7597
  665MOL0     H89734   5.811   4.677   0.740  1.0532 -0.6485 -0.0472
  665MOL0     H89735   6.011   4.686   0.829  0.3943  0.0052 -0.8059
  665MOL0     H89736   6.170   4.806   0.981 -2.2686  2.1655  2.2555
  665MOL0     H89737   6.565   5.282   0.904 -0.5046  0.1579  0.0346
  665MOL0     H89738   6.657   5.451   1.064  0.5219 -1.2586  0.1165
  665MOL0     H89739   6.718   5.584   1.245 -0.0444  0.3968  0.7633
  665MOL0     H89740   6.582   5.653   1.152  3.1085  1.1542 -0.7742
  665MOL0     H89741   6.653   5.685   1.444 -1.5554  0.1486  1.5518
  665MOL0     H89742   6.695   5.799   1.305  0.2078 -1.7250 -1.1156
  665MOL0     H89743   6.465   5.838   1.284  1.4946 -1.9895 -0.5718
  665MOL0     H89744   6.420   5.730   1.421  0.7399 -0.7995  0.2822
  665MOL0     H89745   6.434   5.977   1.498 -0.0041 -0.9647  0.5888
  665MOL0     H89746   6.606   5.967   1.433  1.4735  0.3738  0.9811
  665MOL0     H89747   6.631   5.785   1.617 -0.6293 -0.2564  0.9772
  665MOL0     H89748   6.492   5.848   1.690 -1.2935  0.4587 -0.0488
  665MOL0     H89749   6.679   5.974   1.793 -0.4662 -2.1016 -0.4158
  665MOL0     H89750   6.750   5.996   1.637  2.0558  0.9886  0.7710
  665MOL0     H89751   6.508   6.130   1.771  1.3745  2.2867  1.9308
  665MOL0     H89752   6.518   6.158   1.601  0.0165  2.1202  1.2069
  665MOL0     H89753   6.623   6.350   1.703  0.2973 -0.9954 -3.1809
  665MOL0     H89754   6.735   6.249   1.805  2.8802 -2.0505 -2.1059
  665MOL0     H89755   6.330   5.362   1.330  0.5651 -1.0872 -0.6580
  665MOL0     H89756   6.208   5.254   1.144 -0.4477  1.5291  1.7949
  665MOL0     H89757   6.185   5.136   0.718 -1.6418  0.5925  0.1826
  665MOL0     H89758   6.043   5.012   0.557  2.6297  0.6758 -0.4518
  665MOL0     H89759   4.949   4.854   1.152 -0.9788 -1.9625 -0.7474
  665MOL0     H89760   5.114   4.871   1.346 -3.2212 -0.9500  1.5302
  665MOL0     H89761   5.218   4.405   1.639 -0.7819  2.2984  3.0376
  665MOL0     H89762   5.360   4.261   1.743  0.2920 -0.2280  0.8452
  665MOL0     H89763   5.528   4.157   1.882 -0.4599  0.3703 -0.1795
  665MOL0     H89764   5.706   4.156   1.909 -0.5538  1.1918 -0.0253
  665MOL0     H89765   5.726   4.082   1.656  1.6039 -1.5229  2.0188
  665MOL0     H89766   5.552   4.095   1.635  0.5666  0.7686  0.1104
  665MOL0     H89767   5.516   3.920   1.812 -0.2343  0.0257  0.7252
  665MOL0     H89768   5.691   3.917   1.834  0.5814 -0.1535 -1.4091
  665MOL0     H89769   5.595   3.733   1.679  0.6663 -1.1996 -3.6678
  665MOL0     H89770   5.597   3.864   1.555  3.2363  2.6067 -0.5013
  665MOL0     H89771   6.004   3.812   1.593  1.1797  1.1517  2.2481
  665MOL0     H89772   5.680   4.556   1.709  0.4526 -0.0453 -1.8961
  665MOL0     H89773   5.489   4.798   1.664 -0.6999 -0.3166 -0.5555
  665MOL0     H89774   5.642   4.747   1.584 -0.0012 -0.1860 -3.3780
  665MOL0     H89775   5.516   4.765   1.484  2.3059  1.1887  0.5430
  666MOL0     O89776   8.832   9.590   5.680 -0.2803  0.2579  0.5928
  666MOL0     C89777   8.837   9.682   5.592  0.9115 -0.1490 -0.3928
  666MOL0     O89778   8.919   9.788   5.586 -0.0592  0.3247  0.2108
  666MOL0     C89779   9.004   9.787   5.696  0.2306 -0.0196  0.1421
  666MOL0     C89780   8.971   9.859   5.808  0.5284  0.6641  0.2703
  666MOL0     C89781   9.062   9.860   5.921 -1.1955 -0.8645 -0.6695
  666MOL0     C89782   9.174   9.783   5.923 -0.5543 -0.1646 -1.1535
  666MOL0     O89783   9.253   9.785   6.035  0.0202 -0.8195  0.4692
  666MOL0     C89784   9.376   9.864   6.042 -0.7619  0.2414 -0.4668
  666MOL0     C89785   9.339   9.989   6.118  0.3801 -0.6271 -0.5764
  666MOL0     C89786   9.458  10.090   6.148 -0.3450 -1.4640  0.1309
  666MOL0     C89787   9.564  10.024   6.245  0.3946  0.2828  0.6863
  666MOL0     C89788   9.664  10.122   6.299 -0.4997  0.2240  0.0406
  666MOL0     C89789   9.742  10.201   6.193  0.0665 -0.3729  0.5331
  666MOL0     C89790   9.860  10.283   6.249  0.1328 -1.1158  0.4045
  666MOL0     C89791   9.987  10.198   6.247 -1.2254  0.1259  0.7896
  666MOL0     N89792   9.998  10.125   6.372  0.1765 -0.1704 -0.6238
  666MOL0     C89793  10.051  10.174   6.489 -0.3601 -0.1785 -0.6921
  666MOL0     C89794  10.068  10.073   6.580 -0.0394 -0.3418  0.1207
  666MOL0     C89795  10.106  10.082   6.726  0.1401 -0.6628  0.1887
  666MOL0     C89796  10.260  10.085   6.760 -0.6696 -0.6123  0.3037
  666MOL0     C89797  10.336  10.210   6.709  0.6070 -0.1730 -0.5191
  666MOL0     C89798  10.278  10.345   6.761  0.3827 -0.3048  0.6855
  666MOL0     O89799  10.345  10.451   6.690  0.0159  0.2213  0.2854
  666MOL0     C89800  10.398  10.558   6.752 -0.3689  0.3364  0.3148
  666MOL0     C89801  10.373  10.597   6.884 -1.0669  0.0411 -0.0833
  666MOL0     C89802  10.425  10.713   6.939 -0.1911 -0.3534 -0.1579
  666MOL0     C89803  10.525  10.782   6.867  0.4526  0.1253  0.4256
  666MOL0     C89804  10.598  10.896   6.919  0.0622  0.2188 -0.4320
  666MOL0     O89805  10.604  10.896   7.051  0.6607  0.3505 -0.6391
  666MOL0     C89806  10.695  10.975   7.121  0.3927  0.4586  0.6487
  666MOL0     C89807  10.661  11.103   7.136  0.3365 -0.8832 -1.0470
  666MOL0     C89808  10.734  11.185   7.227  0.3501  0.1217  0.4344
  666MOL0     C89809  10.855  11.142   7.284  0.3845 -0.2393 -0.0987
  666MOL0     O89810  10.921  11.217   7.383 -0.1317  0.1320 -0.2796
  666MOL0     C89811  11.070  11.202   7.385  0.2129 -0.4285  0.6946
  666MOL0     C89812  11.141  11.330   7.441 -0.0733 -0.2750 -1.1675
  666MOL0     C89813  11.291  11.305   7.441 -0.0356 -0.6840 -0.4625
  666MOL0     C89814  11.360  11.421   7.516 -0.3162 -0.1221 -0.0485
  666MOL0     C89815  11.507  11.381   7.551  0.2571  0.1263  0.4411
  666MOL0     C89816  11.585  11.510   7.583  0.5648  0.2170  1.3411
  666MOL0     C89817  11.677  11.560   7.472 -0.3407  0.3612 -0.5266
  666MOL0     C89818  11.749  11.690   7.509  0.4040 -0.0829  0.4977
  666MOL0    Cl89819  11.901  11.643   7.581  0.5097 -0.7462  0.4097
  666MOL0     C89820  10.896  11.015   7.258  0.0618  0.2867 -0.3609
  666MOL0     C89821  10.821  10.936   7.171 -0.5531 -0.5124 -0.0531
  666MOL0     O89822  10.659  10.971   6.843  0.5928 -0.1363 -0.4710
  666MOL0     C89823  10.555  10.749   6.739 -0.2279 -0.1584 -0.0628
  666MOL0     C89824  10.495  10.642   6.685  1.5211  0.8908 -0.7497
  666MOL0     N89825  10.031   9.953   6.518 -0.1413 -0.3446  0.0106
  666MOL0     N89826   9.990   9.986   6.397  0.0954 -0.1330 -0.1216
  666MOL0     C89827   9.202   9.704   5.814  0.1330 -0.1987  0.1637
  666MOL0     C89828   9.121   9.715   5.701  0.3409  0.3917  1.1808
  666MOL0     C89829   8.733   9.682   5.485 -0.3565 -0.1636  1.0864
  666MOL0     C89830   8.714   9.809   5.430  0.8779  0.3366  0.2798
  666MOL0     C89831   8.624   9.831   5.330  0.6425 -0.1678  0.0240
  666MOL0     C89832   8.526   9.734   5.299  0.4575 -0.6097  0.2353
  666MOL0     O89833   8.433   9.773   5.200 -0.3213 -0.2181 -1.0602
  666MOL0     C89834   8.340   9.664   5.172 -0.1363  0.5246  1.2500
  666MOL0     C89835   8.405   9.557   5.079 -0.7238 -0.0304  0.1424
  666MOL0     C89836   8.338   9.516   4.949 -0.1313 -0.7511  0.0782
  666MOL0     C89837   8.199   9.450   4.957  0.2187 -0.0766 -0.2358
  666MOL0     C89838   8.096   9.549   4.930 -0.1970 -0.5999  0.1872
  666MOL0     C89839   8.010   9.625   4.900  0.4543  0.2948 -0.2829
  666MOL0     C89840   8.533   9.612   5.370  0.2195  0.5409 -0.0301
  666MOL0     C89841   8.637   9.576   5.460 -0.2168 -0.5997 -0.1016
  666MOL0     C89842   8.637   9.443   5.529 -0.4102 -0.4713 -0.0638
  666MOL0     H89843   8.876   9.910   5.798 -1.1873 -2.4638 -0.4846
  666MOL0     H89844   9.022   9.920   6.002 -1.2461  1.2504 -2.1741
  666MOL0     H89845   9.446   9.809   6.106 -2.2687 -1.1538  0.0496
  666MOL0     H89846   9.425   9.886   5.947 -0.5863 -3.4683 -1.3903
  666MOL0     H89847   9.295   9.954   6.212  3.1151  2.3431  2.0276
  666MOL0     H89848   9.259  10.043   6.067  0.2905  1.8653  1.9541
  666MOL0     H89849   9.419  10.176   6.203 -1.0345 -1.9121  0.3551
  666MOL0     H89850   9.507  10.130   6.059 -1.2334 -5.0313 -2.1792
  666MOL0     H89851   9.509   9.982   6.330 -0.0013  0.0157  0.2986
  666MOL0     H89852   9.624   9.943   6.203  0.0025  0.4120 -0.1390
  666MOL0     H89853   9.607  10.197   6.354 -0.0688 -1.8110  3.5412
  666MOL0     H89854   9.730  10.075   6.373 -0.8814 -1.6118 -0.7333
  666MOL0     H89855   9.788  10.134   6.119  1.6585  0.8467  0.3628
  666MOL0     H89856   9.670  10.266   6.144 -0.3052 -1.7090 -0.7718
  666MOL0     H89857   9.838  10.330   6.345  1.9571  0.2745  0.1892
  666MOL0     H89858   9.893  10.361   6.181  0.4455 -0.8653  0.8345
  666MOL0     H89859  10.002  10.147   6.152 -0.5283  2.0565 -0.1937
  666MOL0     H89860  10.076  10.261   6.242  1.4441 -3.4435 -1.0079
  666MOL0     H89861  10.065  10.279   6.512  2.3365 -0.6659  0.2224
  666MOL0     H89862  10.057  10.172   6.763  3.9100  2.2308 -1.1531
  666MOL0     H89863  10.051  10.000   6.773 -3.7676  0.6963 -1.5529
  666MOL0     H89864  10.273  10.073   6.868 -1.1571  1.7047  0.6759
  666MOL0     H89865  10.297   9.996   6.708 -1.2548 -0.4627 -0.3887
  666MOL0     H89866  10.349  10.207   6.600  0.3915  1.6638 -0.6355
  666MOL0     H89867  10.442  10.198   6.735  0.5807 -1.0343 -0.7850
  666MOL0     H89868  10.279  10.354   6.870  0.4810 -1.9570  0.8348
  666MOL0     H89869  10.173  10.346   6.730  0.5780 -2.4814 -0.2469
  666MOL0     H89870  10.295  10.543   6.937 -1.6140 -1.9872 -2.7020
  666MOL0     H89871  10.391  10.728   7.041  0.7391 -1.2939  0.3124
  666MOL0     H89872  10.568  11.148   7.102 -1.2389 -1.0784  2.5075
  666MOL0     H89873  10.688  11.280   7.252  1.9753  0.9787  0.3724
  666MOL0     H89874  11.094  11.114   7.446  1.1233  1.0416  2.5818
  666MOL0     H89875  11.116  11.172   7.291  1.5936  0.5019  1.0211
  666MOL0     H89876  11.115  11.414   7.376 -0.7065 -1.7735 -2.9283
  666MOL0     H89877  11.103  11.354   7.541  0.9310 -1.9798 -0.3238
  666MOL0     H89878  11.314  11.214   7.498 -0.4058 -2.0919 -2.4635
  666MOL0     H89879  11.340  11.281   7.346  1.0508 -2.4057  0.4806
  666MOL0     H89880  11.310  11.455   7.607  0.3782  1.1265 -0.1116
  666MOL0     H89881  11.356  11.507   7.449  1.2383  0.8372  1.0183
  666MOL0     H89882  11.551  11.315   7.477  0.8459  1.1834 -0.1702
  666MOL0     H89883  11.490  11.327   7.645  1.1552 -0.1968  0.4207
  666MOL0     H89884  11.511  11.584   7.614 -2.0251 -1.2625 -0.7747
  666MOL0     H89885  11.642  11.488   7.673 -1.1379  0.5655  2.5636
  666MOL0     H89886  11.612  11.581   7.387 -0.8966 -0.5125 -0.3253
  666MOL0     H89887  11.752  11.483   7.449 -0.9580 -0.2111 -0.6301
  666MOL0     H89888  11.762  11.748   7.417  1.6677  1.5510  1.6573
  666MOL0     H89889  11.689  11.750   7.578 -0.0637  0.5202 -0.4042
  666MOL0     H89890  10.988  10.976   7.301 -1.1170 -4.1979 -1.3962
  666MOL0     H89891  10.869  10.839   7.160 -0.6240 -0.8354  2.2022
  666MOL0     H89892  10.635  10.796   6.684  1.3747  0.7338  2.8171
  666MOL0     H89893  10.518  10.609   6.584 -2.0470 -0.8242 -1.1580
  666MOL0     H89894   9.288   9.638   5.804  0.9904  0.4613  2.5095
  666MOL0     H89895   9.142   9.660   5.611 -1.3809  1.6895 -0.0818
  666MOL0     H89896   8.770   9.897   5.459 -1.3727  1.8394  0.3716
  666MOL0     H89897   8.610   9.926   5.279  0.8491  1.4711  2.7871
  666MOL0     H89898   8.251   9.704   5.123 -0.3523  0.0404  1.2373
  666MOL0     H89899   8.311   9.619   5.268  4.0705 -0.7806  2.1292
  666MOL0     H89900   8.442   9.478   5.145 -0.6644  0.6827  0.9896
  666MOL0     H89901   8.500   9.606   5.053 -1.9220  2.4093  0.1202
  666MOL0     H89902   8.400   9.446   4.892 -0.8709  0.3022 -2.1036
  666MOL0     H89903   8.341   9.606   4.887  3.0122 -0.8777 -0.1171
  666MOL0     H89904   8.187   9.371   4.882 -1.1114 -3.3136  3.0846
  666MOL0     H89905   8.177   9.397   5.050  0.0773  1.8942  0.9049
  666MOL0     H89906   7.933   9.690   4.865 -0.4807 -0.4066  0.4327
  666MOL0     H89907   8.448   9.545   5.373 -0.8962  1.9298  0.8762
  666MOL0     H89908   8.609   9.469   5.631 -0.9563  0.6843 -0.4891
  666MOL0     H89909   8.575   9.370   5.476  1.5925 -0.7819 -2.1635
  666MOL0     H89910   8.738   9.403   5.517  0.3798  1.0687  1.0671
  667MOL0     O89911   7.609   2.511   4.302  0.3966  0.4354  0.1418
  667MOL0     C89912   7.559   2.621   4.328 -0.1609  0.1937 -0.4232
  667MOL0     O89913   7.634   2.738   4.334 -0.7331  0.5372 -0.1588
  667MOL0     C89914   7.757   2.733   4.267  0.1880  0.0390 -0.6296
  667MOL0     C89915   7.863   2.800   4.338 -0.6454  0.6700  0.2141
  667MOL0     C89916   7.995   2.799   4.281  0.3046 -0.3868  0.2500
  667MOL0     C89917   8.018   2.731   4.161 -0.8092 -0.5871  0.1713
  667MOL0     O89918   8.143   2.724   4.105 -0.2926  0.1672 -0.0542
  667MOL0     C89919   8.263   2.778   4.166 -0.1424 -0.2492  0.2315
  667MOL0     C89920   8.373   2.746   4.071 -0.7510 -0.0811 -0.2148
  667MOL0     C89921   8.512   2.805   4.112  0.1797 -0.1658 -0.2658
  667MOL0     C89922   8.590   2.879   4.000 -0.5319 -0.0600  0.8750
  667MOL0     C89923   8.720   2.955   4.052 -0.3169 -0.3232  0.3463
  667MOL0     C89924   8.789   3.024   3.933 -0.6428  0.5086  0.2678
  667MOL0     C89925   8.844   2.917   3.837 -0.7291  0.4683 -0.0705
  667MOL0     C89926   8.763   2.880   3.709 -1.1779  0.6622 -1.1339
  667MOL0     N89927   8.853   2.861   3.594  0.4050 -0.3094 -0.0436
  667MOL0     C89928   8.942   2.949   3.532  0.4515 -0.2032 -0.4826
  667MOL0     C89929   9.008   2.874   3.443 -1.0545  0.0423 -0.1793
  667MOL0     C89930   9.107   2.923   3.346  0.7967  0.3232  0.0893
  667MOL0     C89931   9.252   2.906   3.400 -0.1559  0.1077  0.7212
  667MOL0     C89932   9.302   2.761   3.393  0.8987 -0.2088  0.0775
  667MOL0     C89933   9.444   2.753   3.431 -0.4233  0.5226 -0.8553
  667MOL0     O89934   9.476   2.610   3.462  1.1931  0.4425 -0.6936
  667MOL0     C89935   9.599   2.597   3.530  0.2657 -0.3779  1.5233
  667MOL0     C89936   9.627   2.462   3.561 -0.2482 -0.1173  0.3791
  667MOL0     C89937   9.742   2.424   3.632 -0.4957 -0.0204 -0.2074
  667MOL0     C89938   9.834   2.523   3.688 -0.8351  0.7627 -0.3905
  667MOL0     C89939   9.945   2.480   3.774 -0.3878  0.1748  0.9108
  667MOL0     O89940   9.962   2.351   3.793 -0.1104 -0.1925 -1.1067
  667MOL0     C89941  10.073   2.316   3.856 -0.2124  0.3188  1.0613
  667MOL0     C89942  10.196   2.297   3.780  0.1252 -0.1453  0.7602
  667MOL0     C89943  10.313   2.263   3.843  0.2263  0.4308  1.0258
  667MOL0     C89944  10.315   2.242   3.976  0.1888 -0.9436 -0.7465
  667MOL0     O89945  10.437   2.195   4.019  0.7550 -0.4671  0.0333
  667MOL0     C89946  10.435   2.112   4.137 -0.3515  0.0710 -0.2081
  667MOL0     C89947  10.582   2.085   4.182  0.8254 -0.4084  0.8777
  667MOL0     C89948  10.663   2.209   4.230  0.3670  1.1414 -0.4184
  667MOL0     C89949  10.806   2.164   4.269 -0.0203  0.3763 -0.5906
  667MOL0     C89950  10.897   2.273   4.314 -0.1223 -0.1928 -0.5994
  667MOL0     C89951  11.045   2.228   4.318 -0.1732  0.3944  0.2852
  667MOL0     C89952  11.131   2.342   4.365 -0.0374  0.6080 -0.4779
  667MOL0     C89953  11.117   2.365   4.517 -0.2445  0.0424  0.0047
  667MOL0    Cl89954  11.244   2.477   4.576 -0.4364  0.3069  0.0958
  667MOL0     C89955  10.196   2.253   4.052  0.0571  1.1374 -0.5646
  667MOL0     C89956  10.075   2.291   3.991  0.4617  0.3211 -0.2837
  667MOL0     O89957  10.007   2.571   3.823  0.1994 -0.1888  0.7299
  667MOL0     C89958   9.809   2.654   3.643  0.1729 -0.4600 -0.2733
  667MOL0     C89959   9.685   2.691   3.576 -0.3116 -0.5789 -0.3694
  667MOL0     N89960   8.951   2.749   3.451 -0.4171 -0.1708 -0.2017
  667MOL0     N89961   8.856   2.740   3.538  0.3331 -0.1701  0.4724
  667MOL0     C89962   7.910   2.663   4.096  0.2216 -0.7173 -0.3265
  667MOL0     C89963   7.777   2.667   4.147  0.1826  0.0198 -0.3373
  667MOL0     C89964   7.414   2.629   4.367  0.0280 -0.3143  0.0731
  667MOL0     C89965   7.391   2.731   4.457  0.2878 -0.4646 -0.1450
  667MOL0     C89966   7.262   2.750   4.514 -0.3158  0.6952 -0.1353
  667MOL0     C89967   7.153   2.676   4.469  0.5249 -1.2883 -0.1404
  667MOL0     O89968   7.033   2.698   4.536  0.4627  0.1771  0.1182
  667MOL0     C89969   6.914   2.656   4.471  0.6416 -0.1035 -0.0751
  667MOL0     C89970   6.792   2.752   4.496  0.1938  0.1622  0.0571
  667MOL0     C89971   6.694   2.748   4.379  0.3155 -0.9512 -0.4236
  667MOL0     C89972   6.563   2.816   4.435  0.4287 -0.7346  0.6668
  667MOL0     C89973   6.504   2.887   4.317 -0.3888 -0.2707 -0.2340
  667MOL0     C89974   6.455   2.960   4.229 -0.8034 -0.2487 -0.2379
  667MOL0     C89975   7.179   2.578   4.374 -0.5092  1.3425 -0.2028
  667MOL0     C89976   7.300   2.554   4.314  0.0273  0.2610 -0.5024
  667MOL0     C89977   7.328   2.441   4.221 -0.8133  0.1604  0.8240
  667MOL0     H89978   7.852   2.850   4.433 -0.4654  0.7292  0.2026
  667MOL0     H89979   8.076   2.841   4.340  2.1960 -1.1603 -1.6917
  667MOL0     H89980   8.257   2.886   4.177  0.7027 -0.2630  0.8888
  667MOL0     H89981   8.291   2.733   4.262  3.1197  1.1149  0.0305
  667MOL0     H89982   8.343   2.776   3.970 -0.2119 -0.6827 -0.5617
  667MOL0     H89983   8.379   2.637   4.066  0.1790 -0.0173 -0.8472
  667MOL0     H89984   8.570   2.722   4.155 -0.9087 -1.4616 -1.2138
  667MOL0     H89985   8.498   2.876   4.194  1.2841  0.8784 -0.9550
  667MOL0     H89986   8.618   2.802   3.928  0.8776  1.1958  0.0041
  667MOL0     H89987   8.528   2.952   3.947 -1.2481 -1.3507 -0.1121
  667MOL0     H89988   8.688   3.027   4.127  0.8900  0.4546  0.1290
  667MOL0     H89989   8.782   2.877   4.097 -1.9735 -0.2853  2.8678
  667MOL0     H89990   8.715   3.086   3.882  0.6743  1.0220 -1.1158
  667MOL0     H89991   8.865   3.094   3.969 -0.0164  0.5030 -0.9680
  667MOL0     H89992   8.862   2.833   3.904  3.1519  1.3013  0.1442
  667MOL0     H89993   8.942   2.954   3.806 -1.0809  1.4629 -0.0341
  667MOL0     H89994   8.695   2.798   3.730 -1.7579  1.1636 -1.0342
  667MOL0     H89995   8.695   2.961   3.681 -1.6984  1.0889  1.2016
  667MOL0     H89996   8.951   3.054   3.559  4.0070 -0.4661 -0.2083
  667MOL0     H89997   9.108   2.885   3.244 -1.1255  0.8175 -0.1611
  667MOL0     H89998   9.090   3.031   3.343  2.6623  0.7932  2.8423
  667MOL0     H89999   9.319   2.962   3.335  0.6382 -0.1433  1.3181
  667MOL0     H90000   9.261   2.956   3.496  0.7557  0.6650  0.3541
  667MOL0     H90001   9.285   2.716   3.295 -0.1024 -2.9302  1.4116
  667MOL0     H90002   9.239   2.697   3.455 -0.0886  0.9080  0.2429
  667MOL0     H90003   9.447   2.820   3.518 -0.6151 -0.8900  0.2823
  667MOL0     H90004   9.519   2.784   3.358  0.6938  0.9811  0.4435
  667MOL0     H90005   9.546   2.398   3.529 -2.2242  1.7718  1.3198
  667MOL0     H90006   9.760   2.321   3.664 -1.2025  0.7551  3.1117
  667MOL0     H90007  10.207   2.290   3.673  0.0822  0.7507  0.6890
  667MOL0     H90008  10.409   2.244   3.796  0.0204 -1.9601  1.4172
  667MOL0     H90009  10.387   2.167   4.218  1.9320 -0.8710  1.9364
  667MOL0     H90010  10.385   2.015   4.122 -1.7374  0.2744  2.5770
  667MOL0     H90011  10.577   2.022   4.271  1.5471 -0.2176  1.0641
  667MOL0     H90012  10.633   2.033   4.101 -4.7652 -2.0289 -2.1485
  667MOL0     H90013  10.659   2.283   4.150  0.2800  0.4645 -1.0577
  667MOL0     H90014  10.625   2.235   4.329  0.1874 -0.3896 -0.0497
  667MOL0     H90015  10.847   2.106   4.185  0.3572  0.8990 -0.7712
  667MOL0     H90016  10.804   2.083   4.343  1.9580 -3.6555 -4.4229
  667MOL0     H90017  10.868   2.312   4.412  1.0726  1.7418 -0.9651
  667MOL0     H90018  10.894   2.356   4.242 -1.1068  2.8260  2.6300
  667MOL0     H90019  11.055   2.140   4.383  1.5437  0.1514 -0.2428
  667MOL0     H90020  11.074   2.192   4.219  0.6783  0.0873  0.6352
  667MOL0     H90021  11.105   2.434   4.313 -1.0457 -0.2096 -1.4745
  667MOL0     H90022  11.238   2.325   4.348 -0.0308 -1.5093  1.2785
  667MOL0     H90023  11.025   2.420   4.540  0.7370  0.9247  2.0916
  667MOL0     H90024  11.115   2.273   4.576 -1.9082  0.6139  0.9169
  667MOL0     H90025  10.187   2.238   4.159  0.0281  4.0590 -0.0819
  667MOL0     H90026   9.981   2.305   4.045 -1.1769  0.0835 -2.9213
  667MOL0     H90027   9.876   2.725   3.691 -0.5734  0.3245 -0.3476
  667MOL0     H90028   9.669   2.797   3.559 -0.8446 -0.7790 -1.1890
  667MOL0     H90029   7.927   2.623   3.997 -0.6599  1.9826 -1.6678
  667MOL0     H90030   7.698   2.603   4.107 -0.1248  0.7921 -0.9897
  667MOL0     H90031   7.473   2.794   4.488 -0.5854 -0.1039  1.5077
  667MOL0     H90032   7.250   2.821   4.594  0.6420  0.7008  0.0082
  667MOL0     H90033   6.897   2.554   4.504  0.6915 -0.6882 -1.7702
  667MOL0     H90034   6.925   2.652   4.362  2.3299  4.6590 -0.3554
  667MOL0     H90035   6.825   2.853   4.519 -0.5626  0.1875  1.0787
  667MOL0     H90036   6.747   2.720   4.590  1.4977  0.0441  0.6654
  667MOL0     H90037   6.664   2.647   4.350 -2.9053  0.4624 -2.5830
  667MOL0     H90038   6.726   2.809   4.294 -2.2009  0.5150 -0.3962
  667MOL0     H90039   6.488   2.741   4.461 -0.0266 -0.7338 -0.5459
  667MOL0     H90040   6.571   2.884   4.520 -0.3437 -2.7381  2.4255
  667MOL0     H90041   6.415   3.018   4.149  0.6779 -0.8001 -1.4169
  667MOL0     H90042   7.097   2.512   4.346  0.2164  1.0398 -1.7097
  667MOL0     H90043   7.419   2.388   4.250 -0.0759  1.3490  0.7616
  667MOL0     H90044   7.243   2.372   4.222 -0.3238 -0.4453  0.7358
  667MOL0     H90045   7.354   2.476   4.120  1.1982 -2.2490  0.4106
  668MOL0     O90046   7.978   0.034   7.162  0.3184 -0.7273  0.4410
  668MOL0     C90047   7.880   0.042   7.244 -0.9135  0.6073  0.7264
  668MOL0     O90048   7.893   0.043   7.381 -0.4573 -0.5385 -0.2612
  668MOL0     C90049   8.027   0.057   7.415  0.4628  0.3091  0.0972
  668MOL0     C90050   8.104   0.178   7.406 -0.1989  1.1389 -0.1038
  668MOL0     C90051   8.228   0.193   7.459 -0.8962 -0.2159 -0.7869
  668MOL0     C90052   8.295   0.091   7.521 -0.0499  0.0288 -0.5998
  668MOL0     O90053   8.425   0.084   7.563 -0.0142 -0.4976  0.2986
  668MOL0     C90054   8.518   0.188   7.509  0.6314  0.1615  0.0920
  668MOL0     C90055   8.657   0.157   7.547  0.8674  0.4235 -0.2983
  668MOL0     C90056   8.764   0.254   7.489 -1.1951  0.0098 -0.1812
  668MOL0     C90057   8.738   0.400   7.516 -0.7565  0.2171 -0.3442
  668MOL0     C90058   8.836   0.504   7.460  0.5106 -0.7691  0.4938
  668MOL0     C90059   8.873   0.494   7.305 -0.1589  0.3493  0.0552
  668MOL0     C90060   8.997   0.575   7.267  0.2720 -0.0050  0.6532
  668MOL0     C90061   8.969   0.720   7.237  0.2094  0.1036 -0.4454
  668MOL0     N90062   9.083   0.777   7.176 -1.0982 -0.6484 -0.3134
  668MOL0     C90063   9.137   0.751   7.049  0.7700 -0.7549 -0.3923
  668MOL0     C90064   9.261   0.805   7.052  1.1482 -0.0005  0.0288
  668MOL0     C90065   9.352   0.817   6.937 -0.9659  0.5270  1.0032
  668MOL0     C90066   9.472   0.717   6.934 -0.3808  0.1164 -0.0519
  668MOL0     C90067   9.562   0.739   6.820 -0.8539  0.8604 -0.1898
  668MOL0     C90068   9.655   0.858   6.821  0.2102 -0.0364  0.7126
  668MOL0     O90069   9.739   0.871   6.934 -0.0512  0.3862  0.0224
  668MOL0     C90070   9.851   0.944   6.920  0.2965  0.0434  0.6237
  668MOL0     C90071   9.949   0.911   7.011 -0.5582 -0.3449 -0.6631
  668MOL0     C90072  10.079   0.960   6.988  0.0898 -0.4610  0.0196
  668MOL0     C90073  10.109   1.060   6.887 -0.3847  0.8390 -0.4831
  668MOL0     C90074  10.249   1.114   6.873  0.1066  0.4016  0.3064
  668MOL0     O90075  10.275   1.219   6.787  0.1908 -1.0908  0.8124
  668MOL0     C90076  10.403   1.254   6.740  0.3013  0.9880 -0.3326
  668MOL0     C90077  10.526   1.191   6.766 -0.6493 -0.6785 -0.3576
  668MOL0     C90078  10.651   1.247   6.717 -0.9178 -0.1343  0.7854
  668MOL0     C90079  10.651   1.367   6.637  0.5212  0.1684 -0.0673
  668MOL0     O90080  10.757   1.436   6.583 -0.8332  0.2341 -0.2565
  668MOL0     C90081  10.874   1.353   6.588 -0.2788 -1.2009  0.2451
  668MOL0     C90082  10.979   1.425   6.500  0.1510  0.3476  0.3492
  668MOL0     C90083  11.120   1.362   6.531 -0.8510 -0.2508 -0.2775
  668MOL0     C90084  11.219   1.423   6.425  0.1566 -0.7022 -0.1393
  668MOL0     C90085  11.365   1.390   6.443  0.2678  0.2080  0.6275
  668MOL0     C90086  11.417   1.426   6.586  0.3298  0.5549 -0.0898
  668MOL0     C90087  11.575   1.421   6.593 -0.5754 -0.8822  0.2224
  668MOL0     C90088  11.632   1.448   6.723 -0.2642 -1.5113 -0.7119
  668MOL0    Cl90089  11.811   1.428   6.706 -0.0153  0.1537  0.1024
  668MOL0     C90090  10.521   1.418   6.614 -0.4386  0.4599  0.1483
  668MOL0     C90091  10.403   1.368   6.667  0.7871 -0.4956  0.4560
  668MOL0     O90092  10.334   1.055   6.937 -0.3624  0.1175  0.2046
  668MOL0     C90093  10.000   1.096   6.807  0.0974 -0.6776 -0.5066
  668MOL0     C90094   9.879   1.037   6.815  0.0417  0.3054  0.1230
  668MOL0     N90095   9.277   0.876   7.171 -1.0578  0.2582 -0.0404
  668MOL0     N90096   9.169   0.864   7.241 -0.1944  0.3073  0.4907
  668MOL0     C90097   8.225  -0.033   7.535  0.2711  0.3355 -0.1295
  668MOL0     C90098   8.097  -0.047   7.486 -0.0319 -0.1797  0.0649
  668MOL0     C90099   7.747   0.048   7.200 -0.1043 -0.4481  0.7069
  668MOL0     C90100   7.664   0.135   7.273  0.4219 -0.1345 -0.4704
  668MOL0     C90101   7.534   0.139   7.241  0.1321 -0.2945 -1.5759
  668MOL0     C90102   7.476   0.072   7.142 -0.2162  0.5314 -0.1807
  668MOL0     O90103   7.341   0.099   7.119 -0.6536 -0.7472 -0.0558
  668MOL0     C90104   7.273   0.006   7.033 -0.9146 -0.2950 -0.3147
  668MOL0     C90105   7.141   0.064   6.979 -0.4976 -0.4862 -0.3026
  668MOL0     C90106   7.049   0.128   7.089  0.1795  0.1623 -0.3823
  668MOL0     C90107   6.988   0.012   7.182  0.2091 -0.6441  0.3024
  668MOL0     C90108   6.883  -0.061   7.104  0.4201 -1.1221  0.5671
  668MOL0     C90109   6.783  -0.092   7.043 -0.3791  0.6987  0.1446
  668MOL0     C90110   7.555  -0.020   7.080  0.4268 -0.2733 -0.8229
  668MOL0     C90111   7.692  -0.031   7.099 -0.5665  1.0130  0.3825
  668MOL0     C90112   7.781  -0.112   7.012  0.7603 -0.1595  0.1676
  668MOL0     H90113   8.065   0.262   7.349 -0.4209  0.2872 -1.2392
  668MOL0     H90114   8.277   0.287   7.439 -3.6147  1.3804 -0.3917
  668MOL0     H90115   8.520   0.180   7.400 -1.2822  0.0567  0.0287
  668MOL0     H90116   8.480   0.284   7.546  0.3374  0.2603 -0.4575
  668MOL0     H90117   8.688   0.057   7.515 -0.4017  0.0430 -0.4167
  668MOL0     H90118   8.667   0.166   7.655  1.1253  1.7228 -0.4143
  668MOL0     H90119   8.765   0.243   7.380 -1.1155 -0.3185 -0.1482
  668MOL0     H90120   8.863   0.234   7.530 -1.1375  2.2579  0.9021
  668MOL0     H90121   8.635   0.431   7.495 -0.1006  1.0390 -2.8059
  668MOL0     H90122   8.746   0.410   7.624 -3.9873  0.3003 -0.0054
  668MOL0     H90123   8.796   0.602   7.489  3.2149  0.6195 -0.1311
  668MOL0     H90124   8.930   0.485   7.512 -1.3694 -2.5055  3.5530
  668MOL0     H90125   8.897   0.393   7.271 -0.5084  1.1387 -2.8038
  668MOL0     H90126   8.778   0.522   7.260 -0.8035 -0.8077  0.6465
  668MOL0     H90127   9.034   0.523   7.178 -1.8901 -1.0366  0.3013
  668MOL0     H90128   9.078   0.559   7.339 -0.6837  0.6176  1.9112
  668MOL0     H90129   8.877   0.728   7.179  1.0429 -1.5065 -2.1005
  668MOL0     H90130   8.941   0.774   7.328 -0.5553 -2.1365  0.7221
  668MOL0     H90131   9.095   0.683   6.975  0.4681  0.6927 -1.6035
  668MOL0     H90132   9.290   0.797   6.849  0.7119 -0.7064  0.0174
  668MOL0     H90133   9.385   0.919   6.918 -0.2408 -0.2564 -3.0424
  668MOL0     H90134   9.533   0.726   7.024  0.6083 -2.4254 -0.4058
  668MOL0     H90135   9.423   0.619   6.936  0.6036 -0.4469  3.5129
  668MOL0     H90136   9.501   0.738   6.730 -1.3090 -1.1797  0.0834
  668MOL0     H90137   9.628   0.652   6.813 -1.3319  0.4052  0.6752
  668MOL0     H90138   9.587   0.943   6.811 -0.1175 -0.4913 -1.4135
  668MOL0     H90139   9.715   0.856   6.729  1.3958  0.1582  1.4585
  668MOL0     H90140   9.929   0.837   7.088 -0.4391 -1.6925 -1.8870
  668MOL0     H90141  10.154   0.922   7.057  0.6401  0.0237 -0.2991
  668MOL0     H90142  10.534   1.095   6.815 -0.2241 -1.8575 -2.5925
  668MOL0     H90143  10.743   1.192   6.734 -1.1163 -1.1562 -1.1247
  668MOL0     H90144  10.911   1.346   6.691 -0.6823  1.4614  0.6519
  668MOL0     H90145  10.870   1.250   6.550 -2.1227 -0.4250 -1.9061
  668MOL0     H90146  10.946   1.413   6.397 -2.4226 -1.5812  1.2740
  668MOL0     H90147  10.970   1.532   6.523  1.2499  1.1492 -2.6068
  668MOL0     H90148  11.164   1.395   6.626  3.0063  0.4341 -2.0984
  668MOL0     H90149  11.118   1.253   6.536 -2.3675 -0.1861  1.4113
  668MOL0     H90150  11.209   1.532   6.427 -1.0632 -0.7438 -1.7416
  668MOL0     H90151  11.196   1.393   6.322  0.8599  1.3381 -0.9508
  668MOL0     H90152  11.420   1.443   6.365 -1.3178  0.7043 -0.1905
  668MOL0     H90153  11.379   1.283   6.424 -1.0303  0.5454 -2.9859
  668MOL0     H90154  11.371   1.524   6.602 -2.1293 -0.5735  0.1622
  668MOL0     H90155  11.366   1.359   6.655 -1.0259 -1.6428 -3.0004
  668MOL0     H90156  11.620   1.487   6.518 -0.6917 -0.3115  0.6421
  668MOL0     H90157  11.601   1.319   6.563  2.6022 -0.0842 -0.0833
  668MOL0     H90158  11.613   1.552   6.748 -0.5358 -1.5338 -0.8208
  668MOL0     H90159  11.587   1.383   6.799  0.0474 -0.5230  0.3525
  668MOL0     H90160  10.514   1.509   6.557  0.9178 -0.7762 -2.1532
  668MOL0     H90161  10.310   1.423   6.654  0.8757 -0.4584 -0.0465
  668MOL0     H90162  10.012   1.181   6.741  0.1987  1.0949  1.6737
  668MOL0     H90163   9.807   1.062   6.737  0.3513 -1.7822 -0.9043
  668MOL0     H90164   8.272  -0.118   7.583  0.5240 -1.4009 -3.1783
  668MOL0     H90165   8.044  -0.140   7.504 -0.7985 -0.0609 -1.4107
  668MOL0     H90166   7.701   0.185   7.363  3.6114  1.1485 -2.2981
  668MOL0     H90167   7.478   0.217   7.291 -2.0582 -2.3836 -0.6382
  668MOL0     H90168   7.251  -0.081   7.095 -3.0347  0.1208 -0.3886
  668MOL0     H90169   7.335  -0.014   6.946  0.3683  2.6303 -0.2017
  668MOL0     H90170   7.091  -0.018   6.926 -0.1927 -2.7459  2.6738
  668MOL0     H90171   7.171   0.139   6.905  0.0182  0.7240  1.0820
  668MOL0     H90172   6.974   0.185   7.032 -0.9801 -1.9876 -1.1134
  668MOL0     H90173   7.113   0.203   7.135  0.2789  0.8511 -1.5950
  668MOL0     H90174   7.066  -0.055   7.219  1.6703 -0.3789 -2.0908
  668MOL0     H90175   6.934   0.057   7.266 -1.5557 -1.0210 -0.5695
  668MOL0     H90176   6.693  -0.129   6.998 -0.7563  2.2667 -0.4564
  668MOL0     H90177   7.517  -0.098   7.016  3.1516 -3.4866  1.1017
  668MOL0     H90178   7.849  -0.182   7.063  0.4035 -0.2427  0.5327
  668MOL0     H90179   7.730  -0.167   6.933  0.9993  0.7442 -0.6354
  668MOL0     H90180   7.849  -0.042   6.962 -2.0036  1.3587 -1.7334
  669MOL0     O90181   4.633   4.086   4.084  0.2511 -0.9427 -0.3337
  669MOL0     C90182   4.526   4.145   4.092  0.5957 -0.3151  0.4319
  669MOL0     O90183   4.510   4.288   4.099 -0.1907  0.2199 -0.0135
  669MOL0     C90184   4.618   4.369   4.066  0.1904  0.6585 -0.5551
  669MOL0     C90185   4.662   4.379   3.933 -0.7793 -0.2420 -0.6269
  669MOL0     C90186   4.775   4.465   3.908  0.4487 -0.8069 -0.4429
  669MOL0     C90187   4.840   4.540   4.001  0.1749 -0.1635  0.3099
  669MOL0     O90188   4.939   4.620   3.946 -0.0045  0.1727  0.5041
  669MOL0     C90189   5.037   4.660   4.042  1.2950 -0.1066  0.1434
  669MOL0     C90190   5.155   4.710   3.963  0.5218  0.4881 -0.0002
  669MOL0     C90191   5.234   4.595   3.901 -0.1679  1.3064  0.4835
  669MOL0     C90192   5.387   4.616   3.869  0.0896  0.2744 -0.6270
  669MOL0     C90193   5.479   4.543   3.957 -0.1376  0.0570  0.1773
  669MOL0     C90194   5.611   4.531   3.881  0.5405  0.1215 -0.3139
  669MOL0     C90195   5.666   4.387   3.885  0.9565  0.2533 -0.4687
  669MOL0     C90196   5.766   4.355   3.777  0.2804 -1.3978  0.6251
  669MOL0     N90197   5.893   4.428   3.800  0.4093  0.0700  1.0511
  669MOL0     C90198   5.919   4.564   3.754  0.3213  0.2469  0.2086
  669MOL0     C90199   6.047   4.579   3.794  0.4456 -0.3174  0.2910
  669MOL0     C90200   6.115   4.717   3.790 -0.1728 -0.4286  0.1066
  669MOL0     C90201   6.270   4.718   3.807  0.2114  0.1717  0.6292
  669MOL0     C90202   6.351   4.849   3.786  0.1504  0.3553  0.6415
  669MOL0     C90203   6.500   4.812   3.788  0.7984 -0.3492  0.3122
  669MOL0     O90204   6.586   4.928   3.789  0.3289 -0.1575 -0.1694
  669MOL0     C90205   6.718   4.898   3.784 -0.5990 -0.0169  0.0331
  669MOL0     C90206   6.797   4.999   3.734  0.0253  0.4630 -0.0554
  669MOL0     C90207   6.935   4.997   3.715 -0.5630  0.0811 -1.2777
  669MOL0     C90208   7.007   4.882   3.748  0.1080  0.6546  0.3162
  669MOL0     C90209   7.160   4.881   3.728  0.0647  0.8979 -0.0976
  669MOL0     O90210   7.217   5.001   3.720  0.0809 -1.0507 -0.1820
  669MOL0     C90211   7.358   5.024   3.724  0.3892 -0.6223  0.5741
  669MOL0     C90212   7.399   5.139   3.660 -0.0482  0.0024 -0.0515
  669MOL0     C90213   7.531   5.186   3.663  0.6891 -0.7465  0.1371
  669MOL0     C90214   7.630   5.120   3.726 -0.8844 -0.1369  0.2219
  669MOL0     O90215   7.763   5.149   3.720  0.1837 -0.5440  0.3025
  669MOL0     C90216   7.803   5.251   3.812  0.1578  0.0920 -0.8862
  669MOL0     C90217   7.949   5.225   3.850  0.4549  0.1381 -0.6894
  669MOL0     C90218   8.018   5.352   3.885 -0.3945 -0.2092 -0.3725
  669MOL0     C90219   8.175   5.344   3.906 -0.1359 -0.3458 -0.5280
  669MOL0     C90220   8.210   5.316   4.048 -0.1538  0.2835  0.0103
  669MOL0     C90221   8.359   5.359   4.069  0.3758  0.4422  0.3275
  669MOL0     C90222   8.378   5.393   4.213 -0.2952 -0.0520  0.1265
  669MOL0     C90223   8.513   5.449   4.252  0.2360  0.4946  0.4297
  669MOL0    Cl90224   8.651   5.362   4.181 -0.3817  0.4423  0.4783
  669MOL0     C90225   7.595   5.009   3.795  0.3736  0.1136 -0.4006
  669MOL0     C90226   7.462   4.957   3.793  0.1949  0.2807  0.6324
  669MOL0     O90227   7.220   4.769   3.751  0.7824 -0.3585  0.0821
  669MOL0     C90228   6.935   4.772   3.810 -0.2700  0.1739  0.5114
  669MOL0     C90229   6.793   4.779   3.821  0.4589  0.9138  0.4111
  669MOL0     N90230   6.104   4.463   3.837 -0.3610 -0.1444  0.8818
  669MOL0     N90231   6.005   4.382   3.855 -0.3838 -0.0696 -0.9867
  669MOL0     C90232   4.787   4.547   4.130  0.6121  0.4579  0.1882
  669MOL0     C90233   4.673   4.460   4.160  0.8054 -0.3288 -0.4966
  669MOL0     C90234   4.390   4.071   4.082  0.7713 -0.6578 -0.8428
  669MOL0     C90235   4.277   4.143   4.122  0.5282  0.8433 -0.8366
  669MOL0     C90236   4.151   4.084   4.107 -0.7655 -0.1851 -0.0629
  669MOL0     C90237   4.128   3.961   4.049 -0.2267  0.3188  0.5483
  669MOL0     O90238   4.007   3.903   4.014 -0.7040 -0.8269 -0.1899
  669MOL0     C90239   3.896   3.975   4.059  0.1812 -0.7756  0.3439
  669MOL0     C90240   3.773   3.899   4.014  0.1001  0.6359 -0.1900
  669MOL0     C90241   3.767   3.853   3.872  0.5185  0.6690 -0.1950
  669MOL0     C90242   3.627   3.785   3.830 -0.0143  0.1690 -0.3182
  669MOL0     C90243   3.515   3.884   3.805 -0.2747  0.1965 -0.3793
  669MOL0     C90244   3.419   3.964   3.775  0.7848  0.6522 -0.9606
  669MOL0     C90245   4.235   3.885   4.012 -0.1487 -0.1141  0.4772
  669MOL0     C90246   4.370   3.933   4.028  0.2001 -0.3497 -1.0492
  669MOL0     C90247   4.474   3.841   3.960  0.9344  0.0842  0.1744
  669MOL0     H90248   4.628   4.329   3.843 -2.2596 -1.0099  0.3178
  669MOL0     H90249   4.795   4.473   3.801 -0.7934  1.1603 -0.5719
  669MOL0     H90250   4.989   4.737   4.103 -1.6439 -0.9272 -0.9144
  669MOL0     H90251   5.055   4.577   4.110  1.5749 -0.4188 -0.3031
  669MOL0     H90252   5.221   4.757   4.037 -1.3516  0.9176  1.4895
  669MOL0     H90253   5.131   4.787   3.890  0.8692  0.3655 -0.2476
  669MOL0     H90254   5.179   4.580   3.808  0.2043  1.0794  0.2988
  669MOL0     H90255   5.219   4.507   3.965  5.2812 -1.4523 -1.3721
  669MOL0     H90256   5.408   4.574   3.770 -0.4864 -0.1178 -0.5913
  669MOL0     H90257   5.409   4.722   3.882  2.3894 -0.3090  0.7849
  669MOL0     H90258   5.494   4.598   4.051  0.9636  1.5323 -0.8152
  669MOL0     H90259   5.440   4.443   3.976 -2.8987  1.2078  1.0559
  669MOL0     H90260   5.605   4.551   3.773  0.9178 -3.5093 -1.1539
  669MOL0     H90261   5.680   4.602   3.928 -0.9263 -0.4003  2.9080
  669MOL0     H90262   5.583   4.317   3.873 -0.6640  2.1616 -0.8330
  669MOL0     H90263   5.708   4.368   3.985  2.1087 -0.3424 -1.0478
  669MOL0     H90264   5.791   4.249   3.776  0.4219 -1.3660  0.8232
  669MOL0     H90265   5.713   4.380   3.684 -3.3145  0.1441  2.8423
  669MOL0     H90266   5.865   4.626   3.683 -1.5285 -3.0583 -1.5729
  669MOL0     H90267   6.090   4.757   3.692 -1.2651  1.1485  0.9889
  669MOL0     H90268   6.077   4.785   3.867  0.4732 -0.1341  0.1708
  669MOL0     H90269   6.298   4.690   3.909  0.6455  1.4731  0.8829
  669MOL0     H90270   6.317   4.651   3.735  2.8829  3.2318 -0.7436
  669MOL0     H90271   6.325   4.914   3.870  1.0503 -0.5764  1.6665
  669MOL0     H90272   6.330   4.890   3.687 -0.1750  0.5814  0.8022
  669MOL0     H90273   6.524   4.745   3.705  1.6719  2.3065 -1.7229
  669MOL0     H90274   6.523   4.754   3.878 -4.5934 -1.6715  1.1763
  669MOL0     H90275   6.741   5.087   3.704 -2.7515 -0.0232  3.1131
  669MOL0     H90276   6.975   5.079   3.656  1.2602  0.0343 -0.1889
  669MOL0     H90277   7.325   5.193   3.602  0.0878 -0.1632 -0.3890
  669MOL0     H90278   7.572   5.277   3.621 -0.7033 -0.5608 -0.9210
  669MOL0     H90279   7.794   5.347   3.761 -0.6196  0.4202 -0.1623
  669MOL0     H90280   7.754   5.251   3.910  1.6018  1.8676 -0.0856
  669MOL0     H90281   7.960   5.149   3.929 -0.4258  0.6711 -0.0400
  669MOL0     H90282   7.995   5.189   3.758 -1.1681  3.1461 -2.8238
  669MOL0     H90283   8.000   5.425   3.805  0.6425 -1.8108 -2.1712
  669MOL0     H90284   7.971   5.389   3.976  1.2652  1.5716 -0.1600
  669MOL0     H90285   8.212   5.445   3.885 -1.3955 -0.1583 -2.0166
  669MOL0     H90286   8.223   5.276   3.835 -2.4695 -1.1741 -1.4303
  669MOL0     H90287   8.189   5.213   4.078  0.4067  0.3057  0.5219
  669MOL0     H90288   8.149   5.380   4.112  0.4001  1.1428 -0.2894
  669MOL0     H90289   8.434   5.285   4.041  2.2134  2.7863 -1.3408
  669MOL0     H90290   8.382   5.439   3.999  0.4844 -0.3854 -0.6006
  669MOL0     H90291   8.361   5.300   4.267 -2.2649  0.6289  0.7332
  669MOL0     H90292   8.295   5.453   4.248  1.2265  2.9339 -1.0188
  669MOL0     H90293   8.510   5.553   4.218  1.9940  1.6207  3.3658
  669MOL0     H90294   8.526   5.444   4.361 -1.2299 -1.1530  0.5826
  669MOL0     H90295   7.681   4.956   3.833  2.6692  3.4090 -0.5047
  669MOL0     H90296   7.440   4.858   3.832  0.2897 -1.2765 -2.8855
  669MOL0     H90297   6.991   4.685   3.842 -2.9194 -1.3579  1.2877
  669MOL0     H90298   6.741   4.689   3.851  0.3624  0.5249 -0.8540
  669MOL0     H90299   4.838   4.618   4.195  1.7963  2.1070 -2.3835
  669MOL0     H90300   4.629   4.472   4.259  0.2263 -0.1520 -0.7696
  669MOL0     H90301   4.271   4.243   4.164  0.0681 -0.2752  2.0009
  669MOL0     H90302   4.059   4.136   4.132 -2.1227 -1.9011 -1.2514
  669MOL0     H90303   3.899   4.074   4.011 -1.0054 -1.3519 -0.9766
  669MOL0     H90304   3.901   3.995   4.166  0.7765 -0.9070  0.3429
  669MOL0     H90305   3.680   3.953   4.035  0.2904 -0.0906  3.0648
  669MOL0     H90306   3.774   3.808   4.075  1.4237  0.2359 -0.7813
  669MOL0     H90307   3.846   3.779   3.857  0.6917  0.8070  0.0340
  669MOL0     H90308   3.786   3.940   3.809 -0.9249  0.8349 -0.4466
  669MOL0     H90309   3.624   3.716   3.745 -0.0682  1.2086 -1.1937
  669MOL0     H90310   3.591   3.726   3.914  2.1968  1.8382  1.9244
  669MOL0     H90311   3.339   4.032   3.751  1.3149  1.3710 -0.7123
  669MOL0     H90312   4.222   3.788   3.964  4.0387 -0.2348 -0.8454
  669MOL0     H90313   4.510   3.886   3.867  0.7568  4.0020  1.8027
  669MOL0     H90314   4.554   3.814   4.030  0.9679 -1.6211 -0.4846
  669MOL0     H90315   4.429   3.745   3.934 -0.6271  0.7723  0.2405
  670MOL0     O90316  11.325   8.050   6.139  0.3785  0.2656  0.2234
  670MOL0     C90317  11.233   8.034   6.219 -0.1083  0.2660  0.1701
  670MOL0     O90318  11.227   8.088   6.345 -0.4198  0.1911 -0.6608
  670MOL0     C90319  11.311   8.193   6.369 -0.2564  0.4671 -0.8003
  670MOL0     C90320  11.281   8.326   6.332 -0.4230 -0.3714  0.6807
  670MOL0     C90321  11.370   8.432   6.351  0.1037 -0.5645  0.4289
  670MOL0     C90322  11.487   8.412   6.415  0.2185 -0.5416 -0.0287
  670MOL0     O90323  11.579   8.511   6.432  0.4258  0.4693  1.3491
  670MOL0     C90324  11.576   8.625   6.344  0.2652  0.0690  0.4771
  670MOL0     C90325  11.738   8.653   6.335  0.4802 -1.5297 -0.6005
  670MOL0     C90326  11.800   8.669   6.468  0.3163 -0.2982 -0.2413
  670MOL0     C90327  11.752   8.771   6.572  0.6162 -0.3946 -0.0963
  670MOL0     C90328  11.827   8.757   6.704  0.3207  0.7073 -0.0796
  670MOL0     C90329  11.975   8.791   6.689 -0.5519 -0.1316  0.3824
  670MOL0     C90330  12.047   8.780   6.823  0.0503 -0.1015  0.7337
  670MOL0     C90331  11.981   8.871   6.923  0.3890 -0.4818  0.6530
  670MOL0     N90332  12.081   8.914   7.016 -0.5298  0.1743 -1.0480
  670MOL0     C90333  12.101   8.859   7.140  1.2231 -0.3289  0.3911
  670MOL0     C90334  12.184   8.944   7.204 -0.4210 -0.5483 -0.0082
  670MOL0     C90335  12.228   8.930   7.348  0.8847 -0.5693  0.1579
  670MOL0     C90336  12.369   8.989   7.370 -0.5225  0.0667 -0.0904
  670MOL0     C90337  12.428   8.946   7.502  0.2427  1.0914  0.0895
  670MOL0     C90338  12.478   8.798   7.496 -0.1368  0.4473  0.2856
  670MOL0     O90339  12.593   8.808   7.408  0.1544 -0.6880 -0.0635
  670MOL0     C90340  12.715   8.846   7.455 -0.6361 -0.2389 -0.3661
  670MOL0     C90341  12.810   8.891   7.358  0.4405 -0.2641  0.1022
  670MOL0     C90342  12.937   8.941   7.399 -0.6514  0.2905 -0.0752
  670MOL0     C90343  12.975   8.939   7.533  0.1787  0.2851  0.2579
  670MOL0     C90344  13.109   8.975   7.573 -0.3210 -0.5569 -0.3636
  670MOL0     O90345  13.128   9.026   7.701  1.2132  0.0144  0.0946
  670MOL0     C90346  13.247   9.034   7.774  0.8413  0.1217  0.3852
  670MOL0     C90347  13.342   8.936   7.780  0.5215 -0.9234  0.4437
  670MOL0     C90348  13.448   8.947   7.858  0.1175 -1.0364 -0.1149
  670MOL0     C90349  13.464   9.056   7.945 -0.7268 -0.5427  1.2134
  670MOL0     O90350  13.581   9.048   8.019 -0.5355 -0.1570 -0.0187
  670MOL0     C90351  13.603   9.166   8.096  0.4138 -0.0587  0.1355
  670MOL0     C90352  13.729   9.145   8.186  0.1144 -0.1764 -0.0459
  670MOL0     C90353  13.839   9.084   8.108 -0.4147  0.5509  0.8727
  670MOL0     C90354  13.982   9.111   8.160  1.1101 -0.4446 -0.0909
  670MOL0     C90355  14.096   9.039   8.082 -0.4832 -0.5595  0.1590
  670MOL0     C90356  14.229   9.020   8.163  0.1740  0.1342  0.2837
  670MOL0     C90357  14.294   9.155   8.196  0.1387 -1.3271  1.2386
  670MOL0     C90358  14.416   9.134   8.284 -0.2337 -0.4521  0.0079
  670MOL0    Cl90359  14.551   9.051   8.194 -0.1243  0.5497 -0.0872
  670MOL0     C90360  13.359   9.154   7.949 -0.6707 -0.0840  0.1570
  670MOL0     C90361  13.258   9.142   7.858 -0.6198 -0.7688  0.0085
  670MOL0     O90362  13.194   8.952   7.494  0.1341  0.0191 -0.7353
  670MOL0     C90363  12.880   8.899   7.634 -0.6252 -0.2102  0.1612
  670MOL0     C90364  12.756   8.856   7.588 -0.3314  0.6259 -0.0273
  670MOL0     N90365  12.219   9.036   7.111  0.1567  0.3530  0.2820
  670MOL0     N90366  12.159   9.027   6.999  0.3359 -0.4699 -0.2764
  670MOL0     C90367  11.520   8.284   6.461  0.5132 -0.0466  0.7713
  670MOL0     C90368  11.424   8.182   6.449  1.2518 -1.3944 -0.0389
  670MOL0     C90369  11.109   7.964   6.171  0.5689 -0.7268 -0.2062
  670MOL0     C90370  11.005   7.965   6.267  0.4254  0.0962  0.3618
  670MOL0     C90371  10.870   7.918   6.231 -0.2267 -0.0273  0.5038
  670MOL0     C90372  10.857   7.862   6.100  0.4541  0.5507 -0.6447
  670MOL0     O90373  10.742   7.824   6.046 -0.1831  0.0843  0.0185
  670MOL0     C90374  10.634   7.793   6.135  0.6014 -0.8847 -0.1983
  670MOL0     C90375  10.532   7.719   6.055  0.1175  0.4290  0.4256
  670MOL0     C90376  10.596   7.599   5.989  0.0637 -0.1860 -0.7775
  670MOL0     C90377  10.479   7.512   5.950  1.0421  0.5677 -0.0222
  670MOL0     C90378  10.529   7.397   5.871  0.3096  0.6699 -0.5356
  670MOL0     C90379  10.573   7.330   5.784  0.2388  0.1198 -0.2348
  670MOL0     C90380  10.954   7.867   6.004  0.6599  0.2382  0.1702
  670MOL0     C90381  11.084   7.923   6.035 -0.3616 -0.5890  1.4028
  670MOL0     C90382  11.187   7.929   5.923 -0.0549 -0.0204 -0.3519
  670MOL0     H90383  11.189   8.337   6.276 -1.1238 -2.7696  1.2472
  670MOL0     H90384  11.349   8.531   6.312  0.1696 -0.2564  1.1422
  670MOL0     H90385  11.534   8.605   6.245 -0.6566  2.3632  0.3441
  670MOL0     H90386  11.529   8.713   6.388  1.2192  0.7474  0.1643
  670MOL0     H90387  11.752   8.749   6.285  1.3222 -0.4045  1.6776
  670MOL0     H90388  11.788   8.572   6.281 -2.2699 -1.3514 -3.7204
  670MOL0     H90389  11.903   8.702   6.450 -0.3752  2.1144 -0.0706
  670MOL0     H90390  11.815   8.565   6.500  0.7090 -1.3271 -3.4292
  670MOL0     H90391  11.765   8.875   6.541  1.5793 -0.7707 -1.0041
  670MOL0     H90392  11.645   8.746   6.579  0.7578 -0.9047  0.3423
  670MOL0     H90393  11.775   8.827   6.770 -0.5958 -1.4815  1.6503
  670MOL0     H90394  11.818   8.654   6.741  2.2587 -0.5233 -2.6947
  670MOL0     H90395  12.019   8.729   6.610 -1.4564 -0.0019 -0.2499
  670MOL0     H90396  12.000   8.888   6.645  4.6320 -2.2320 -2.2784
  670MOL0     H90397  12.150   8.811   6.801 -0.5237  0.9864 -0.5044
  670MOL0     H90398  12.034   8.674   6.848  0.8087 -0.1312  1.0320
  670MOL0     H90399  11.945   8.958   6.866  0.7758 -0.5719  0.2616
  670MOL0     H90400  11.893   8.822   6.965 -1.0918  1.1678 -0.3728
  670MOL0     H90401  12.055   8.767   7.175  0.6244  0.3042  1.3091
  670MOL0     H90402  12.158   8.979   7.418  2.3834 -0.9091  1.9834
  670MOL0     H90403  12.231   8.825   7.378  1.1718 -0.2393  1.3265
  670MOL0     H90404  12.426   8.950   7.284 -0.7594 -0.7977  0.1322
  670MOL0     H90405  12.379   9.098   7.372 -2.6379  0.3618 -1.7200
  670MOL0     H90406  12.350   8.955   7.578  2.5143 -1.4050  3.0170
  670MOL0     H90407  12.508   9.009   7.542  1.5972 -0.4422 -0.1086
  670MOL0     H90408  12.414   8.728   7.442 -0.0384  1.1741 -0.8035
  670MOL0     H90409  12.501   8.758   7.595  1.0482  0.6974  0.1214
  670MOL0     H90410  12.790   8.893   7.251 -0.4802  1.0739  0.2658
  670MOL0     H90411  13.014   8.969   7.328  1.3616  1.5989  2.4365
  670MOL0     H90412  13.327   8.853   7.712 -0.9428  0.8965 -1.5870
  670MOL0     H90413  13.528   8.874   7.852  1.5263  0.1073  2.9136
  670MOL0     H90414  13.624   9.247   8.025 -1.2559 -0.4895 -0.9206
  670MOL0     H90415  13.515   9.193   8.155 -1.7180 -1.5006 -2.1343
  670MOL0     H90416  13.770   9.236   8.231 -1.1610 -0.0991  1.0249
  670MOL0     H90417  13.701   9.074   8.265 -0.7992  1.8791  1.5638
  670MOL0     H90418  13.828   8.975   8.103  0.1000  0.5370 -2.5918
  670MOL0     H90419  13.842   9.124   8.006 -1.4944  0.0946  0.6443
  670MOL0     H90420  13.985   9.070   8.261 -1.3327 -4.2635 -1.3343
  670MOL0     H90421  13.999   9.219   8.156 -0.3172 -0.1691  0.5738
  670MOL0     H90422  14.104   9.087   7.984  0.6485 -0.9246  0.0648
  670MOL0     H90423  14.058   8.939   8.060  0.7673 -1.1403  0.5407
  670MOL0     H90424  14.208   8.961   8.253  0.5111 -1.4334 -0.6278
  670MOL0     H90425  14.302   8.970   8.099 -1.2719  0.7558 -1.9656
  670MOL0     H90426  14.219   9.220   8.241 -1.7374 -0.6547 -2.4710
  670MOL0     H90427  14.327   9.206   8.105 -1.2564 -1.5074  0.6056
  670MOL0     H90428  14.437   9.236   8.318  0.5914 -1.0320  1.3252
  670MOL0     H90429  14.391   9.073   8.371 -0.0912  0.6352  0.8257
  670MOL0     H90430  13.358   9.238   8.018 -0.2947 -0.2139  0.3276
  670MOL0     H90431  13.172   9.207   7.866  0.7632  1.0720  0.7932
  670MOL0     H90432  12.905   8.906   7.740 -1.2769  2.1262  0.2310
  670MOL0     H90433  12.681   8.816   7.655  0.5257 -0.8032  0.1300
  670MOL0     H90434  11.611   8.269   6.519 -0.1271 -3.5466  1.0754
  670MOL0     H90435  11.437   8.086   6.498 -0.4774 -1.6491 -0.0104
  670MOL0     H90436  11.011   8.011   6.365  1.7790  2.7815 -0.8806
  670MOL0     H90437  10.778   7.914   6.288 -0.5893  0.2674 -0.0509
  670MOL0     H90438  10.596   7.887   6.174  1.7837 -0.6581  0.4267
  670MOL0     H90439  10.665   7.731   6.220  0.0402 -0.6792  0.1606
  670MOL0     H90440  10.500   7.793   5.981  1.1119  0.1688 -0.2810
  670MOL0     H90441  10.452   7.685   6.121 -0.1501 -0.5744 -0.4021
  670MOL0     H90442  10.659   7.543   6.059 -1.2707  0.1374  0.7471
  670MOL0     H90443  10.651   7.634   5.901  0.3297  0.6351 -0.3042
  670MOL0     H90444  10.427   7.472   6.037  0.2253  1.4694 -0.0724
  670MOL0     H90445  10.403   7.558   5.885  0.9895 -2.0644 -1.9741
  670MOL0     H90446  10.597   7.273   5.697 -2.1357 -0.7178 -0.3964
  670MOL0     H90447  10.927   7.831   5.905  4.9758  0.4803 -1.3030
  670MOL0     H90448  11.265   7.857   5.952  0.3177  0.3968 -0.2976
  670MOL0     H90449  11.153   7.891   5.827 -0.6461 -1.5622  0.4250
  670MOL0     H90450  11.224   8.031   5.914 -2.2170  0.6994 -1.6086
  671MOL0     O90451   1.429   4.945   3.337 -0.0759 -0.0677 -0.2945
  671MOL0     C90452   1.408   4.825   3.341 -0.2361  0.8310 -0.7778
  671MOL0     O90453   1.297   4.765   3.307 -0.8506 -0.0424 -0.0044
  671MOL0     C90454   1.187   4.832   3.264  0.5803  0.1746  0.0179
  671MOL0     C90455   1.126   4.934   3.337 -0.4856  0.1474 -0.0372
  671MOL0     C90456   0.994   4.976   3.297 -0.1150 -0.8192 -0.5744
  671MOL0     C90457   0.934   4.946   3.182  0.0917  1.0561  0.7542
  671MOL0     O90458   0.822   5.009   3.158 -0.0982  0.4663  0.6750
  671MOL0     C90459   0.773   5.010   3.023  0.3005  0.3412 -1.3387
  671MOL0     C90460   0.675   5.127   3.014 -0.4854 -1.0932  0.2289
  671MOL0     C90461   0.572   5.130   3.137 -0.3858  0.6447 -0.1348
  671MOL0     C90462   0.447   5.215   3.105  0.1912  0.7030 -0.3934
  671MOL0     C90463   0.342   5.182   3.210  0.1965  0.2902  0.2233
  671MOL0     C90464   0.216   5.235   3.159  0.7754  0.3719 -0.4746
  671MOL0     C90465   0.097   5.218   3.265 -1.3221  0.4824  0.8398
  671MOL0     C90466  -0.040   5.281   3.232 -0.1684  0.1499  0.8410
  671MOL0     N90467  -0.146   5.316   3.333 -0.3559 -0.1903  0.7898
  671MOL0     C90468  -0.139   5.396   3.444  0.2155 -0.5670  0.7890
  671MOL0     C90469  -0.256   5.381   3.512  0.5877 -0.3313  0.3246
  671MOL0     C90470  -0.287   5.439   3.648  0.8889 -0.7637  0.2687
  671MOL0     C90471  -0.179   5.412   3.743 -0.2994 -0.0940  0.7325
  671MOL0     C90472  -0.217   5.264   3.803  0.5194  0.3215 -0.5762
  671MOL0     C90473  -0.093   5.189   3.843 -0.1509  0.0475  0.1490
  671MOL0     O90474  -0.041   5.269   3.943  0.3731  0.2403 -0.8629
  671MOL0     C90475   0.094   5.254   3.974 -0.7061 -0.2817 -0.0146
  671MOL0     C90476   0.156   5.357   4.056 -0.5865 -0.3499 -0.7369
  671MOL0     C90477   0.299   5.356   4.090  0.2211  1.0767 -0.3226
  671MOL0     C90478   0.387   5.255   4.029 -0.4826 -0.3294  0.1154
  671MOL0     C90479   0.528   5.259   4.057  0.6131 -0.9834 -0.4924
  671MOL0     O90480   0.612   5.172   3.992 -0.3050 -0.5907  0.3063
  671MOL0     C90481   0.742   5.179   4.031 -0.1821  0.9668  0.9079
  671MOL0     C90482   0.837   5.195   3.926 -0.4463  0.8522  0.5349
  671MOL0     C90483   0.975   5.215   3.949  0.5628  0.3350  0.7985
  671MOL0     C90484   1.026   5.222   4.075  0.0380 -0.0194  0.2764
  671MOL0     O90485   1.155   5.235   4.115 -0.4502  0.1031  0.8876
  671MOL0     C90486   1.246   5.268   4.017  0.5770 -0.2014  0.1244
  671MOL0     C90487   1.380   5.323   4.069  0.2748  1.2160  0.0170
  671MOL0     C90488   1.465   5.228   4.160  0.1659 -0.0008 -0.1853
  671MOL0     C90489   1.589   5.302   4.202 -0.1316 -0.3182 -0.2556
  671MOL0     C90490   1.659   5.219   4.306 -0.3893 -0.1519  0.2261
  671MOL0     C90491   1.805   5.257   4.300 -0.5969  0.4101 -0.4942
  671MOL0     C90492   1.897   5.196   4.415  0.8046  0.1583 -0.0465
  671MOL0     C90493   2.053   5.221   4.398  0.0824  0.2941 -0.2406
  671MOL0    Cl90494   2.125   5.165   4.546  0.2237  0.4855 -0.2392
  671MOL0     C90495   0.936   5.190   4.179 -0.9225 -0.5628 -0.2031
  671MOL0     C90496   0.796   5.173   4.155  0.2910 -0.3681  0.1202
  671MOL0     O90497   0.565   5.347   4.139 -0.1472  0.0538 -0.5361
  671MOL0     C90498   0.319   5.153   3.956 -0.6468  0.0615 -0.4724
  671MOL0     C90499   0.176   5.158   3.928 -0.8223  0.7194 -0.1059
  671MOL0     N90500  -0.341   5.316   3.425 -0.0897  0.1821 -0.3870
  671MOL0     N90501  -0.276   5.268   3.326 -0.4239 -0.7616  0.0867
  671MOL0     C90502   0.998   4.846   3.097  0.0659 -0.2791  1.0963
  671MOL0     C90503   1.122   4.784   3.146  0.4436 -0.5055  0.8811
  671MOL0     C90504   1.511   4.735   3.395 -0.5135 -0.1357 -0.0030
  671MOL0     C90505   1.519   4.597   3.353  0.6921  0.4368 -0.2959
  671MOL0     C90506   1.622   4.512   3.385 -0.3915  0.1931  0.1018
  671MOL0     C90507   1.717   4.558   3.459  0.0836 -1.1149 -0.2558
  671MOL0     O90508   1.822   4.481   3.498 -0.0011 -0.6236  0.2423
  671MOL0     C90509   1.921   4.454   3.399  0.2744  0.8868  0.0333
  671MOL0     C90510   1.986   4.319   3.431  0.2680 -0.6012 -0.9445
  671MOL0     C90511   2.101   4.272   3.337 -0.7480 -0.9998 -0.8290
  671MOL0     C90512   2.133   4.120   3.363 -0.3097 -0.0481 -0.5165
  671MOL0     C90513   2.235   4.075   3.264  0.7139 -0.7931  0.3221
  671MOL0     C90514   2.312   4.047   3.177  0.0231  0.0486  0.3569
  671MOL0     C90515   1.717   4.685   3.513  0.2550 -0.5997  0.6059
  671MOL0     C90516   1.624   4.781   3.468  0.5807 -0.5001 -0.2548
  671MOL0     C90517   1.648   4.929   3.500  0.4472 -0.1498 -0.2020
  671MOL0     H90518   1.162   4.979   3.429 -0.1638  1.7985 -0.9182
  671MOL0     H90519   0.940   5.047   3.359  0.3110 -0.6559 -0.3921
  671MOL0     H90520   0.850   5.026   2.947 -0.2386  0.9653 -1.7679
  671MOL0     H90521   0.714   4.921   3.002 -0.1948  0.4991 -0.6676
  671MOL0     H90522   0.616   5.101   2.926 -0.5482 -1.6832  0.4465
  671MOL0     H90523   0.721   5.226   3.004 -1.8045 -0.6348 -2.1091
  671MOL0     H90524   0.624   5.165   3.227 -3.6887  0.9230  1.8188
  671MOL0     H90525   0.544   5.025   3.152  0.9005  0.0596 -1.5055
  671MOL0     H90526   0.465   5.323   3.110 -3.0717  1.4000 -1.3926
  671MOL0     H90527   0.405   5.187   3.008 -0.7461 -0.0025  0.1974
  671MOL0     H90528   0.325   5.075   3.223  1.4780 -0.0564 -0.8226
  671MOL0     H90529   0.362   5.230   3.307  1.8922 -1.1007  0.6042
  671MOL0     H90530   0.226   5.342   3.136 -0.0735  0.7654  0.8937
  671MOL0     H90531   0.201   5.182   3.065 -0.1115 -3.7661  1.7726
  671MOL0     H90532   0.131   5.265   3.358 -1.1043 -0.2910  1.1586
  671MOL0     H90533   0.081   5.110   3.267  2.0403 -0.1471 -0.6211
  671MOL0     H90534  -0.019   5.374   3.177 -1.8963  0.3914  0.5332
  671MOL0     H90535  -0.078   5.223   3.148  2.2478 -1.3640  0.7140
  671MOL0     H90536  -0.045   5.440   3.475 -0.0786 -0.1148  1.0517
  671MOL0     H90537  -0.302   5.547   3.646 -1.9457 -1.0060  2.0989
  671MOL0     H90538  -0.375   5.384   3.683  0.8335 -0.2162  1.0133
  671MOL0     H90539  -0.080   5.419   3.698 -0.6447  3.6262  0.2743
  671MOL0     H90540  -0.181   5.484   3.825 -2.6101  1.4756 -0.5861
  671MOL0     H90541  -0.264   5.197   3.730 -0.5908 -2.6157  2.5807
  671MOL0     H90542  -0.286   5.265   3.887 -0.8677  1.0278 -1.6687
  671MOL0     H90543  -0.023   5.192   3.760  0.0940 -0.1430  0.3486
  671MOL0     H90544  -0.112   5.085   3.872  1.6390 -1.1377 -2.5153
  671MOL0     H90545   0.091   5.427   4.108 -1.3853 -1.0680 -0.7483
  671MOL0     H90546   0.355   5.431   4.145 -0.1805  1.7791 -0.8607
  671MOL0     H90547   0.821   5.187   3.819  2.2970  1.9378 -0.0372
  671MOL0     H90548   1.040   5.237   3.866  0.1090 -1.2425 -0.0221
  671MOL0     H90549   1.260   5.186   3.946 -2.0216  1.6181 -2.7178
  671MOL0     H90550   1.225   5.351   3.948  1.6296  1.5263  1.7634
  671MOL0     H90551   1.449   5.352   3.989 -0.5601 -0.2697 -1.3021
  671MOL0     H90552   1.362   5.413   4.129 -1.2192  0.0320  1.4616
  671MOL0     H90553   1.411   5.193   4.248 -1.0426  0.3447 -0.7591
  671MOL0     H90554   1.507   5.142   4.107  0.1335 -0.7948  1.0440
  671MOL0     H90555   1.566   5.397   4.251  2.0518  0.1525 -0.0367
  671MOL0     H90556   1.660   5.319   4.121 -0.3441 -2.3841 -0.9179
  671MOL0     H90557   1.650   5.112   4.287 -3.5015  0.0726 -0.1187
  671MOL0     H90558   1.618   5.237   4.405  0.0161 -0.5528  0.4685
  671MOL0     H90559   1.846   5.214   4.208 -1.7407 -0.1806 -0.7465
  671MOL0     H90560   1.819   5.365   4.301 -2.1842  0.6730  2.3745
  671MOL0     H90561   1.873   5.089   4.422  1.6162  0.0251  1.0217
  671MOL0     H90562   1.860   5.243   4.507  0.1368  1.1998 -0.8274
  671MOL0     H90563   2.092   5.168   4.311  2.3373  2.0570 -0.3913
  671MOL0     H90564   2.080   5.327   4.388  1.3320 -0.1020 -1.3219
  671MOL0     H90565   0.968   5.179   4.282  0.4202 -1.1797 -0.6716
  671MOL0     H90566   0.738   5.159   4.246 -0.7604 -0.3032 -0.5331
  671MOL0     H90567   0.381   5.072   3.918  0.4847  0.3792  0.6189
  671MOL0     H90568   0.143   5.084   3.855  1.2817  1.2726 -1.7389
  671MOL0     H90569   0.958   4.825   2.998  0.3303 -2.3272  1.3868
  671MOL0     H90570   1.169   4.709   3.082  0.2006 -1.0427  1.3187
  671MOL0     H90571   1.449   4.559   3.280  1.3707  0.8337 -1.1641
  671MOL0     H90572   1.631   4.410   3.348 -3.1172 -1.0745  2.5577
  671MOL0     H90573   1.994   4.536   3.393  0.1040  0.9828 -0.9697
  671MOL0     H90574   1.878   4.453   3.298  3.1791 -0.2321 -1.3070
  671MOL0     H90575   1.910   4.240   3.440  0.6922 -0.8139  1.5975
  671MOL0     H90576   2.036   4.336   3.527 -0.1009 -2.1138 -0.4478
  671MOL0     H90577   2.193   4.329   3.349 -0.2776 -2.0889  1.4203
  671MOL0     H90578   2.068   4.292   3.235 -0.7782  2.0039 -0.3100
  671MOL0     H90579   2.171   4.110   3.465  0.9288  0.3252 -0.9262
  671MOL0     H90580   2.053   4.046   3.360 -0.2142 -0.4242  2.4870
  671MOL0     H90581   2.387   4.017   3.107  0.9911  1.1513  0.8774
  671MOL0     H90582   1.798   4.725   3.574  1.5694  1.1161 -2.0917
  671MOL0     H90583   1.665   4.994   3.414 -0.0918 -1.1844 -1.1219
  671MOL0     H90584   1.565   4.970   3.560  1.7927  1.0062  0.9652
  671MOL0     H90585   1.731   4.932   3.572 -0.5278  1.6479  0.9334
  672MOL0     O90586   0.845   5.727   8.758 -0.2971 -0.2222  0.4605
  672MOL0     C90587   0.896   5.826   8.818  0.0675  0.2962  0.7595
  672MOL0     O90588   0.832   5.914   8.894 -0.8002  0.6720 -0.4083
  672MOL0     C90589   0.699   5.902   8.926 -0.3893 -0.0147  0.2676
  672MOL0     C90590   0.623   6.024   8.913  0.1090 -0.7724 -0.5397
  672MOL0     C90591   0.489   6.028   8.945  0.1104  0.5046 -0.7876
  672MOL0     C90592   0.424   5.910   8.996 -1.1836  0.0448 -0.4707
  672MOL0     O90593   0.292   5.907   9.017  0.0316  0.5527  0.0527
  672MOL0     C90594   0.208   6.018   9.052 -0.5249 -0.0222 -0.5571
  672MOL0     C90595   0.119   6.048   8.932  0.4503  0.2559 -0.3500
  672MOL0     C90596   0.193   6.109   8.818  0.2894 -0.3031  0.1735
  672MOL0     C90597   0.094   6.140   8.705 -0.4168 -0.2852 -0.5809
  672MOL0     C90598   0.157   6.142   8.581 -0.4658 -0.3485 -0.0202
  672MOL0     C90599   0.272   6.241   8.550  0.9627  0.0206  0.3406
  672MOL0     C90600   0.294   6.257   8.395 -0.2151  0.6082  1.2512
  672MOL0     C90601   0.386   6.374   8.356 -1.0567  0.5779  0.0835
  672MOL0     N90602   0.526   6.367   8.411  0.1008  0.5320  0.2494
  672MOL0     C90603   0.634   6.312   8.348 -1.0121  0.1502  0.2955
  672MOL0     C90604   0.738   6.317   8.437 -0.2231 -0.7005 -0.2610
  672MOL0     C90605   0.860   6.239   8.438 -0.2156 -0.6756  0.1531
  672MOL0     C90606   0.987   6.309   8.390 -0.4119  0.5841 -0.5747
  672MOL0     C90607   1.108   6.213   8.380 -0.6033  0.3073  0.1191
  672MOL0     C90608   1.241   6.290   8.353  0.0168  0.8762  0.3219
  672MOL0     O90609   1.231   6.356   8.227  0.4701  0.2057 -0.2364
  672MOL0     C90610   1.349   6.417   8.180 -0.8843  1.0420 -0.2811
  672MOL0     C90611   1.340   6.462   8.051 -0.3081  0.4733  0.3364
  672MOL0     C90612   1.450   6.539   8.003 -0.1481 -0.1619 -0.0113
  672MOL0     C90613   1.564   6.580   8.076  0.5070  0.3426 -0.8644
  672MOL0     C90614   1.673   6.655   8.007 -0.5354  0.5393 -0.6405
  672MOL0     O90615   1.795   6.651   8.074 -0.7589 -0.4176  0.4020
  672MOL0     C90616   1.909   6.701   8.020  0.1900  0.1330  1.4779
  672MOL0     C90617   2.023   6.619   8.035  0.1864 -0.6658  0.7557
  672MOL0     C90618   2.149   6.656   7.984 -0.1178  0.1799 -0.3364
  672MOL0     C90619   2.162   6.790   7.928 -0.5279 -0.0793 -0.0378
  672MOL0     O90620   2.269   6.853   7.868 -0.3420  0.0451  0.1953
  672MOL0     C90621   2.395   6.821   7.931 -0.9813 -0.3649  0.2181
  672MOL0     C90622   2.511   6.900   7.867 -1.1828  0.1016 -0.0482
  672MOL0     C90623   2.649   6.880   7.931  0.1343 -0.2927  0.0586
  672MOL0     C90624   2.753   6.965   7.855 -0.0635  0.0588 -0.2862
  672MOL0     C90625   2.887   6.981   7.937  0.3633 -0.7288  0.0968
  672MOL0     C90626   2.991   7.066   7.857 -0.3841 -0.3453  0.7863
  672MOL0     C90627   3.121   7.083   7.938  0.2151 -0.2995  0.0193
  672MOL0     C90628   3.213   7.176   7.867 -1.1616  0.0523  0.1157
  672MOL0    Cl90629   3.158   7.340   7.877 -0.0916  0.0506 -0.0268
  672MOL0     C90630   2.056   6.879   7.930 -0.8625  0.2334 -0.0856
  672MOL0     C90631   1.928   6.829   7.968 -0.3300 -0.3362 -0.0919
  672MOL0     O90632   1.651   6.704   7.897 -0.4168 -0.4505  0.1212
  672MOL0     C90633   1.559   6.540   8.212 -0.1725 -0.1860 -0.2374
  672MOL0     C90634   1.461   6.461   8.260  0.4936  0.2197  0.1410
  672MOL0     N90635   0.697   6.391   8.540 -0.2047  0.8525 -0.0136
  672MOL0     N90636   0.568   6.418   8.527 -0.1835 -0.1965  0.5349
  672MOL0     C90637   0.500   5.803   9.030 -0.2947  0.0407 -0.5021
  672MOL0     C90638   0.636   5.795   8.989  0.1840  0.1350 -0.4745
  672MOL0     C90639   1.040   5.841   8.792 -0.7587 -0.1419 -1.1838
  672MOL0     C90640   1.087   5.975   8.801 -0.2047 -0.3597 -0.3053
  672MOL0     C90641   1.217   6.006   8.772 -0.6375  0.4702  0.5579
  672MOL0     C90642   1.305   5.903   8.731  0.0015 -0.4380  0.1310
  672MOL0     O90643   1.429   5.922   8.688 -0.4660  0.5396  0.0834
  672MOL0     C90644   1.452   6.003   8.574  0.1412 -0.0658  0.2720
  672MOL0     C90645   1.572   6.097   8.601  0.3334  0.6662 -0.0147
  672MOL0     C90646   1.716   6.050   8.562 -0.2602  0.7318  0.5296
  672MOL0     C90647   1.727   5.972   8.424 -0.2469  0.0683  0.1579
  672MOL0     C90648   1.873   5.982   8.383  1.3388  0.5362 -0.2482
  672MOL0     C90649   1.987   5.999   8.349  0.0909  0.0892 -0.2762
  672MOL0     C90650   1.259   5.771   8.718  0.2629  0.2924 -0.3620
  672MOL0     C90651   1.127   5.738   8.756 -0.5960  0.0500 -0.0786
  672MOL0     C90652   1.086   5.596   8.749  0.2572 -0.3004 -0.2593
  672MOL0     H90653   0.679   6.107   8.872 -1.5095  2.2563  2.7929
  672MOL0     H90654   0.436   6.120   8.924 -1.1764 -0.3396 -1.3740
  672MOL0     H90655   0.139   5.983   9.130 -1.3468 -1.3925 -1.8435
  672MOL0     H90656   0.267   6.104   9.082 -2.6923  2.2894 -2.4617
  672MOL0     H90657   0.044   6.122   8.961 -1.2444 -2.2046  2.0092
  672MOL0     H90658   0.083   5.956   8.885 -1.5896  1.0637 -0.4870
  672MOL0     H90659   0.277   6.046   8.787  1.1081  0.1417  1.4240
  672MOL0     H90660   0.237   6.198   8.863 -1.6860 -0.2488  2.1490
  672MOL0     H90661   0.024   6.058   8.689  0.4245 -0.4976 -4.2554
  672MOL0     H90662   0.044   6.236   8.720 -1.3785 -0.9079  0.2802
  672MOL0     H90663   0.180   6.037   8.559 -0.7948 -0.5882  0.7478
  672MOL0     H90664   0.079   6.172   8.510  1.6512  3.9050 -0.8373
  672MOL0     H90665   0.236   6.337   8.587  1.0531  0.2432 -0.1531
  672MOL0     H90666   0.367   6.216   8.598  2.8398 -1.7629 -3.8035
  672MOL0     H90667   0.201   6.277   8.341  0.8438  1.9912 -0.1439
  672MOL0     H90668   0.343   6.162   8.370 -0.7274  0.7392 -0.3904
  672MOL0     H90669   0.369   6.376   8.247 -0.2559 -1.2333 -0.1027
  672MOL0     H90670   0.359   6.474   8.393 -1.7203  0.1415  0.8145
  672MOL0     H90671   0.642   6.264   8.251 -0.0378 -0.2648  0.5693
  672MOL0     H90672   0.870   6.203   8.541 -2.9040 -1.0352  0.3693
  672MOL0     H90673   0.847   6.147   8.380 -2.5406 -2.5240  3.2368
  672MOL0     H90674   0.973   6.359   8.293  0.0655 -2.0286 -2.0790
  672MOL0     H90675   1.023   6.378   8.467 -3.2661  0.8617  0.6305
  672MOL0     H90676   1.081   6.146   8.298 -0.8991  1.0351 -0.3953
  672MOL0     H90677   1.122   6.158   8.474 -0.2667 -0.0854 -0.1582
  672MOL0     H90678   1.326   6.222   8.362 -0.2599  0.7534  6.1556
  672MOL0     H90679   1.240   6.370   8.427  0.2099  0.6241  0.5988
  672MOL0     H90680   1.254   6.432   7.992  0.5354 -1.4334  0.0000
  672MOL0     H90681   1.459   6.542   7.894  2.2355 -2.0735  0.0468
  672MOL0     H90682   2.017   6.521   8.082  0.9169 -0.6314  0.9255
  672MOL0     H90683   2.232   6.587   7.993 -0.7390 -0.3962  1.2994
  672MOL0     H90684   2.388   6.842   8.038 -0.7849 -1.6027  0.4887
  672MOL0     H90685   2.421   6.715   7.930  0.6033 -0.0457  2.0123
  672MOL0     H90686   2.525   6.874   7.762 -0.8078  2.4498 -0.6275
  672MOL0     H90687   2.490   7.007   7.875  2.2766  1.4236 -4.5366
  672MOL0     H90688   2.637   6.930   8.028 -3.7474 -0.6786 -0.0550
  672MOL0     H90689   2.683   6.776   7.936 -2.8373 -1.3030  1.5745
  672MOL0     H90690   2.725   7.064   7.817  0.0779 -0.9748 -3.3708
  672MOL0     H90691   2.790   6.915   7.765  0.3589 -0.6911  0.2876
  672MOL0     H90692   2.921   6.886   7.979 -0.5887 -1.5145 -0.8693
  672MOL0     H90693   2.855   7.048   8.018 -3.3737 -1.3069 -0.7398
  672MOL0     H90694   3.008   7.013   7.762 -3.7859  0.3574 -0.3656
  672MOL0     H90695   2.964   7.169   7.832 -1.0751 -0.2576  1.8652
  672MOL0     H90696   3.165   6.988   7.970  0.6656  0.0826  0.5586
  672MOL0     H90697   3.093   7.128   8.034  0.1404 -2.3417  1.0137
  672MOL0     H90698   3.313   7.164   7.911 -0.8551  1.9946  0.0285
  672MOL0     H90699   3.209   7.148   7.761 -0.9546  2.3115 -0.5273
  672MOL0     H90700   2.079   6.981   7.901  1.8452  0.1460  1.4453
  672MOL0     H90701   1.848   6.902   7.970  0.9519  1.1586 -0.5520
  672MOL0     H90702   1.639   6.581   8.271 -1.2529  1.5246  0.1103
  672MOL0     H90703   1.452   6.448   8.368 -4.0355  0.9449  0.0201
  672MOL0     H90704   0.441   5.723   9.074 -1.7473  1.6321  0.5538
  672MOL0     H90705   0.699   5.706   8.989 -0.4492 -0.3372  0.6929
  672MOL0     H90706   1.027   6.061   8.830  1.0905  0.4898 -0.0412
  672MOL0     H90707   1.247   6.110   8.775  1.0211  0.2234 -2.8874
  672MOL0     H90708   1.368   6.056   8.528 -1.0846 -2.9083 -1.0829
  672MOL0     H90709   1.487   5.934   8.495  4.0701 -0.0253  1.7670
  672MOL0     H90710   1.574   6.122   8.707 -1.7580 -0.2650  0.2973
  672MOL0     H90711   1.546   6.188   8.546 -3.2946 -0.6230 -0.7338
  672MOL0     H90712   1.739   5.967   8.630  0.9276 -2.3053 -3.1986
  672MOL0     H90713   1.784   6.136   8.574 -2.2057  2.2056  1.4351
  672MOL0     H90714   1.705   5.865   8.434  0.5696 -0.0852  0.4567
  672MOL0     H90715   1.655   6.008   8.350  2.5867 -1.9633 -4.0181
  672MOL0     H90716   2.092   6.005   8.327  0.3801  0.3730  1.1012
  672MOL0     H90717   1.329   5.700   8.674  2.1748  2.2006 -0.5263
  672MOL0     H90718   1.045   5.576   8.650  0.7628  2.2551 -1.0752
  672MOL0     H90719   1.180   5.540   8.757 -0.2933 -1.4217 -1.3147
  672MOL0     H90720   1.012   5.568   8.824 -0.1978  0.5979 -0.3515
  673MOL0     O90721   8.415  10.170   5.273  0.6967  0.1636 -0.1008
  673MOL0     C90722   8.357  10.251   5.349  0.0100  0.5424  0.0463
  673MOL0     O90723   8.409  10.294   5.471  0.6786  0.7614  0.3879
  673MOL0     C90724   8.539  10.269   5.485 -0.4942  0.3713  0.4449
  673MOL0     C90725   8.641  10.333   5.412 -0.9188 -0.7593 -0.0157
  673MOL0     C90726   8.777  10.327   5.456  0.5039  0.6351  0.1421
  673MOL0     C90727   8.807  10.234   5.559  0.0573 -0.7800  0.0358
  673MOL0     O90728   8.937  10.197   5.597 -0.4962 -0.4662  0.4645
  673MOL0     C90729   9.042  10.240   5.505 -0.0884 -0.0069  0.2831
  673MOL0     C90730   9.164  10.156   5.535  0.8074  0.4068 -0.1462
  673MOL0     C90731   9.229  10.209   5.660  0.3076  0.0540  0.1965
  673MOL0     C90732   9.351  10.125   5.693  0.2407 -0.1892  0.4722
  673MOL0     C90733   9.435  10.171   5.811 -0.8283  0.1144  0.0385
  673MOL0     C90734   9.503  10.303   5.780  0.1069  0.3901 -0.3532
  673MOL0     C90735   9.662  10.294   5.768 -0.2436 -0.5887 -0.6092
  673MOL0     C90736   9.731  10.420   5.716  0.3769  0.5764  0.0885
  673MOL0     N90737   9.876  10.436   5.734  0.0484 -0.3235 -0.5485
  673MOL0     C90738   9.971  10.378   5.653 -0.0904  0.0954  0.1366
  673MOL0     C90739  10.085  10.369   5.728  0.0264 -1.3651  0.2563
  673MOL0     C90740  10.218  10.328   5.673  0.4239 -0.0184 -0.6951
  673MOL0     C90741  10.290  10.252   5.789  0.3312  0.6054  0.7262
  673MOL0     C90742  10.423  10.187   5.745 -0.2501 -0.3690  0.1942
  673MOL0     C90743  10.523  10.275   5.674 -0.1967 -0.0918 -0.1088
  673MOL0     O90744  10.526  10.412   5.723 -0.1506  0.6908 -0.3959
  673MOL0     C90745  10.643  10.433   5.803  0.0754 -0.8025  0.5622
  673MOL0     C90746  10.645  10.399   5.942  0.3105  0.0024  0.1349
  673MOL0     C90747  10.759  10.400   6.013 -0.0940 -0.4681 -0.5649
  673MOL0     C90748  10.872  10.456   5.955 -0.5534 -0.8186  0.4853
  673MOL0     C90749  11.002  10.458   6.026 -0.5244 -0.3160  0.3963
  673MOL0     O90750  11.007  10.382   6.146 -0.4915 -0.3392 -0.1901
  673MOL0     C90751  11.107  10.427   6.235 -0.2916 -0.2972  0.8204
  673MOL0     C90752  11.178  10.328   6.286 -0.0060 -0.1473 -0.4323
  673MOL0     C90753  11.278  10.365   6.385  0.0205  0.4581  0.5516
  673MOL0     C90754  11.298  10.497   6.425  0.2988  0.7138 -0.0257
  673MOL0     O90755  11.387  10.518   6.528 -0.2566  0.2673 -0.0237
  673MOL0     C90756  11.395  10.649   6.583 -0.7945 -0.5645  0.1887
  673MOL0     C90757  11.515  10.667   6.675  0.3687 -0.0766  0.7244
  673MOL0     C90758  11.553  10.812   6.678 -0.9709  0.1115 -0.2134
  673MOL0     C90759  11.471  10.901   6.768  0.1006 -0.2168  0.0440
  673MOL0     C90760  11.520  11.034   6.797 -0.4236 -1.1076 -0.0738
  673MOL0     C90761  11.524  11.119   6.671  0.2596 -0.3006 -0.0507
  673MOL0     C90762  11.562  11.267   6.692  0.0710  0.1737 -0.2257
  673MOL0     C90763  11.711  11.273   6.706  0.4311  0.3236  0.0622
  673MOL0    Cl90764  11.761  11.438   6.738 -0.1031  0.2682  0.0364
  673MOL0     C90765  11.217  10.588   6.372  0.7658 -0.5038 -0.1956
  673MOL0     C90766  11.122  10.555   6.281  0.6280  0.3275  0.2910
  673MOL0     O90767  11.096  10.530   5.987  0.2480 -0.0515 -0.1750
  673MOL0     C90768  10.874  10.498   5.819 -0.7199  0.5834  0.9277
  673MOL0     C90769  10.755  10.489   5.746 -0.1722  0.0864  0.6337
  673MOL0     N90770  10.054  10.428   5.848 -0.4983 -0.1139  0.0254
  673MOL0     N90771   9.929  10.462   5.855 -0.2916 -0.8247 -0.1820
  673MOL0     C90772   8.706  10.159   5.613  0.6988  0.1938 -0.0926
  673MOL0     C90773   8.569  10.179   5.587  0.5541  0.6359 -0.6683
  673MOL0     C90774   8.226  10.316   5.321 -0.0881  0.4159  0.3181
  673MOL0     C90775   8.153  10.376   5.424 -0.2459 -0.5993 -0.3751
  673MOL0     C90776   8.031  10.444   5.402  0.4295  0.3739 -0.0283
  673MOL0     C90777   7.966  10.432   5.275  0.3490  0.0934 -1.2014
  673MOL0     O90778   7.840  10.478   5.264  0.4835 -0.9180 -0.4937
  673MOL0     C90779   7.808  10.586   5.354 -0.0047  0.5051 -0.0348
  673MOL0     C90780   7.699  10.675   5.300  0.7954  0.6444 -0.1997
  673MOL0     C90781   7.580  10.589   5.244  0.7986  0.1805 -0.5334
  673MOL0     C90782   7.463  10.681   5.178  0.5375  0.6179 -0.0395
  673MOL0     C90783   7.333  10.618   5.184  0.4776  0.6488  0.8572
  673MOL0     C90784   7.220  10.583   5.165  0.2384 -0.1259 -0.2701
  673MOL0     C90785   8.034  10.361   5.177  0.5048 -0.3016  0.9109
  673MOL0     C90786   8.164  10.310   5.194  0.7898  0.4439  0.5320
  673MOL0     C90787   8.234  10.253   5.072  0.1089 -0.2170  0.7634
  673MOL0     H90788   8.612  10.402   5.334  0.5794 -0.0363  0.0374
  673MOL0     H90789   8.853  10.373   5.394  2.4308 -2.2380  0.1688
  673MOL0     H90790   9.014  10.221   5.401  1.5955 -0.8747 -0.0467
  673MOL0     H90791   9.059  10.346   5.522  1.3408 -0.0730 -0.5975
  673MOL0     H90792   9.236  10.162   5.453  0.7836  1.3774 -0.0974
  673MOL0     H90793   9.125  10.053   5.534  2.0225 -0.0692 -0.4894
  673MOL0     H90794   9.145  10.201   5.730 -2.2262 -0.5915 -2.6915
  673MOL0     H90795   9.251  10.315   5.652 -0.5930  0.1273 -2.1222
  673MOL0     H90796   9.307  10.025   5.704 -3.1764  0.9260 -1.4165
  673MOL0     H90797   9.422  10.121   5.610  0.8548 -0.3861  1.0024
  673MOL0     H90798   9.359  10.175   5.890 -0.4600  0.5987  0.3674
  673MOL0     H90799   9.505  10.090   5.830 -1.7302 -0.4699  0.9990
  673MOL0     H90800   9.473  10.351   5.687 -0.6385  2.2835  0.7991
  673MOL0     H90801   9.481  10.377   5.857  0.2552 -1.0572  1.1513
  673MOL0     H90802   9.679  10.215   5.694 -2.2108 -3.8834  2.1119
  673MOL0     H90803   9.714  10.254   5.856  0.1566 -0.1737 -0.6528
  673MOL0     H90804   9.716  10.437   5.609 -2.4327  3.4294  0.7702
  673MOL0     H90805   9.675  10.504   5.758 -1.8180  0.6571 -2.7498
  673MOL0     H90806   9.959  10.355   5.548 -0.2643  1.1279 -0.0883
  673MOL0     H90807  10.211  10.255   5.592 -2.7046  0.5953 -1.1162
  673MOL0     H90808  10.265  10.412   5.621 -0.7126 -0.0700 -1.8541
  673MOL0     H90809  10.311  10.329   5.864  1.6687 -0.2878  1.2918
  673MOL0     H90810  10.225  10.178   5.836  1.3057 -1.4959 -1.0313
  673MOL0     H90811  10.415  10.100   5.680  5.6516 -0.5834 -0.8694
  673MOL0     H90812  10.476  10.161   5.837  0.2360 -1.7597 -0.4596
  673MOL0     H90813  10.506  10.267   5.566  1.7301 -0.9891 -0.3907
  673MOL0     H90814  10.622  10.228   5.672 -0.4543 -0.6413 -1.9389
  673MOL0     H90815  10.550  10.362   5.980 -0.0447 -0.0527 -0.8021
  673MOL0     H90816  10.756  10.371   6.118 -0.5333  1.8002  0.0966
  673MOL0     H90817  11.167  10.223   6.259  0.2143 -0.3523  0.2506
  673MOL0     H90818  11.337  10.286   6.429  1.3187 -1.0629 -3.4395
  673MOL0     H90819  11.399  10.721   6.501  0.9041 -0.3202  0.4295
  673MOL0     H90820  11.303  10.664   6.640 -1.0328 -1.1030 -0.0491
  673MOL0     H90821  11.504  10.627   6.776 -0.4673 -4.1350 -0.7649
  673MOL0     H90822  11.595  10.606   6.631 -2.4678 -3.4764 -0.1616
  673MOL0     H90823  11.655  10.821   6.718 -1.3013 -0.2267  0.7372
  673MOL0     H90824  11.567  10.856   6.579  3.4602  0.4367  0.3334
  673MOL0     H90825  11.466  10.848   6.865  0.8489 -2.2108 -0.9447
  673MOL0     H90826  11.371  10.909   6.726  0.6428  0.4745 -1.1346
  673MOL0     H90827  11.622  11.021   6.837  0.5349 -1.6427 -2.5236
  673MOL0     H90828  11.460  11.076   6.878 -1.8516 -1.1354 -1.0908
  673MOL0     H90829  11.579  11.072   6.590 -0.1924 -0.0686 -0.4978
  673MOL0     H90830  11.423  11.130   6.631 -0.6781 -3.1064  1.2985
  673MOL0     H90831  11.521  11.310   6.784 -0.0801  0.2220 -0.3161
  673MOL0     H90832  11.528  11.323   6.604  0.2834 -1.4604 -1.3826
  673MOL0     H90833  11.738  11.212   6.792 -1.8019 -0.0553  0.5524
  673MOL0     H90834  11.761  11.242   6.613 -0.3784  2.7545 -1.2887
  673MOL0     H90835  11.214  10.692   6.402  1.1182 -0.5024 -0.1575
  673MOL0     H90836  11.045  10.627   6.254 -1.8458 -2.2383  0.0849
  673MOL0     H90837  10.958  10.545   5.769 -2.7150  2.4842 -0.8509
  673MOL0     H90838  10.750  10.512   5.640  1.1866 -0.9618  0.3187
  673MOL0     H90839   8.740  10.095   5.694  1.9543  0.8895 -0.0513
  673MOL0     H90840   8.490  10.134   5.647 -1.2185  2.8364 -1.2279
  673MOL0     H90841   8.189  10.393   5.525  1.2235 -1.0084 -0.8022
  673MOL0     H90842   7.981  10.487   5.488 -0.7321 -0.4642 -0.2498
  673MOL0     H90843   7.893  10.652   5.377 -0.0957  1.5549 -2.3956
  673MOL0     H90844   7.767  10.542   5.445 -1.4223  0.7908 -0.5163
  673MOL0     H90845   7.726  10.748   5.223 -0.7708 -0.5445 -1.9699
  673MOL0     H90846   7.653  10.735   5.379 -0.0618  0.6424 -0.6875
  673MOL0     H90847   7.531  10.520   5.313  0.0969 -1.8852 -2.9423
  673MOL0     H90848   7.617  10.522   5.165  1.0396 -0.6184  0.2441
  673MOL0     H90849   7.460  10.781   5.223  3.1438 -0.8879  4.0673
  673MOL0     H90850   7.483  10.691   5.071  0.8934 -0.2313 -0.0618
  673MOL0     H90851   7.123  10.551   5.136  0.8284 -1.0337 -1.3109
  673MOL0     H90852   7.982  10.358   5.082 -0.4502  0.9315  1.3625
  673MOL0     H90853   8.232  10.144   5.073  0.1878 -0.2274  0.0167
  673MOL0     H90854   8.202  10.289   4.974  0.2170  1.5457  1.3477
  673MOL0     H90855   8.340  10.281   5.077 -0.1635  0.6959  1.5259
  674MOL0     O90856  11.208   9.711   9.051 -0.2738 -0.2567  0.0470
  674MOL0     C90857  11.122   9.735   8.962  0.3795  0.3511 -0.1482
  674MOL0     O90858  11.100   9.858   8.904 -0.0648 -1.1766  0.5965
  674MOL0     C90859  11.179   9.957   8.957 -0.9497 -0.5828  0.2387
  674MOL0     C90860  11.135  10.024   9.078  0.4062  0.5397 -0.4068
  674MOL0     C90861  11.222  10.116   9.140 -0.1533  0.2867  0.4297
  674MOL0     C90862  11.348  10.148   9.086 -0.4862  0.5564  0.1385
  674MOL0     O90863  11.421  10.238   9.156 -0.0562 -0.1829 -0.4387
  674MOL0     C90864  11.562  10.222   9.170  0.7418  0.1012 -0.0435
  674MOL0     C90865  11.630  10.328   9.248  0.1114 -0.6010 -0.1422
  674MOL0     C90866  11.782  10.338   9.250  1.2932  0.2733  0.0847
  674MOL0     C90867  11.836  10.459   9.312  0.4280 -0.1061  0.3624
  674MOL0     C90868  11.980  10.445   9.344 -0.4120 -0.3536 -0.0135
  674MOL0     C90869  12.034  10.590   9.368  0.8549 -0.1591  0.4588
  674MOL0     C90870  12.186  10.583   9.401 -0.5289 -0.2956 -0.1633
  674MOL0     C90871  12.221  10.717   9.455 -0.4126  0.3143  0.3564
  674MOL0     N90872  12.359  10.715   9.513  0.0863  0.1829 -0.2204
  674MOL0     C90873  12.396  10.760   9.635 -0.4696  0.1573 -0.2864
  674MOL0     C90874  12.529  10.723   9.637 -0.4541 -0.9125  0.3252
  674MOL0     C90875  12.619  10.781   9.748  0.3974 -0.2785 -0.1769
  674MOL0     C90876  12.769  10.734   9.742 -0.3992  0.2519  0.4242
  674MOL0     C90877  12.860  10.822   9.831  0.9535 -0.2458  0.2856
  674MOL0     C90878  13.003  10.776   9.818 -0.1531  0.2508 -0.1508
  674MOL0     O90879  13.031  10.647   9.871  0.0144 -1.5465 -0.2632
  674MOL0     C90880  13.164  10.595   9.878  0.1195 -0.1104 -0.1841
  674MOL0     C90881  13.181  10.479   9.953 -0.1418 -0.2596 -0.7998
  674MOL0     C90882  13.312  10.435   9.975  0.2974  0.4968  0.1311
  674MOL0     C90883  13.421  10.493   9.913  0.6061 -0.6366  0.4898
  674MOL0     C90884  13.559  10.438   9.927 -0.4881  0.2838 -0.0133
  674MOL0     O90885  13.665  10.512   9.883  0.1095 -0.0943 -0.0459
  674MOL0     C90886  13.790  10.459   9.915  0.4595  0.1172 -0.3232
  674MOL0     C90887  13.876  10.526  10.005  0.5549 -0.3736 -0.5409
  674MOL0     C90888  14.006  10.482  10.025  0.0303 -0.1878 -0.8196
  674MOL0     C90889  14.049  10.361   9.961 -0.1065 -1.1961 -0.0663
  674MOL0     O90890  14.173  10.302   9.968 -0.5054  0.7794  0.1592
  674MOL0     C90891  14.259  10.347  10.080  0.5304  1.1980 -0.0234
  674MOL0     C90892  14.378  10.257  10.082 -0.5701 -0.4546  0.6473
  674MOL0     C90893  14.488  10.293  10.176  0.4578  0.4540 -0.6101
  674MOL0     C90894  14.447  10.333  10.314 -0.0087  0.7394  0.8571
  674MOL0     C90895  14.561  10.366  10.407  0.8495  0.1018  0.4252
  674MOL0     C90896  14.667  10.456  10.354 -0.2237 -0.7118  0.5666
  674MOL0     C90897  14.785  10.470  10.455 -0.0094  0.5089  1.0057
  674MOL0     C90898  14.747  10.570  10.563  1.1531  0.1281 -0.3329
  674MOL0    Cl90899  14.735  10.737  10.507 -0.1778  0.3654  0.5424
  674MOL0     C90900  13.969  10.306   9.862  0.0403 -0.0373  0.3627
  674MOL0     C90901  13.840  10.347   9.844  0.8075  0.8302 -0.4935
  674MOL0     O90902  13.567  10.321   9.976 -0.4423  0.1752  0.2372
  674MOL0     C90903  13.404  10.612   9.839 -0.2893  1.5044  0.5019
  674MOL0     C90904  13.277  10.657   9.823  0.9299 -0.1823  0.5244
  674MOL0     N90905  12.572  10.660   9.518 -0.4523  0.2515 -0.1696
  674MOL0     N90906  12.466  10.657   9.445  0.6533 -0.8275  0.4502
  674MOL0     C90907  11.391  10.087   8.966 -0.5614 -0.6199 -1.1524
  674MOL0     C90908  11.305   9.999   8.901 -0.4652  0.8589 -0.1813
  674MOL0     C90909  11.057   9.625   8.891  0.4927  0.2432 -0.6193
  674MOL0     C90910  10.961   9.664   8.795 -0.7797  0.0669 -0.1054
  674MOL0     C90911  10.904   9.574   8.704 -0.0538 -0.1386  0.1447
  674MOL0     C90912  10.932   9.436   8.717 -0.6130 -0.7164 -0.1150
  674MOL0     O90913  10.889   9.339   8.630 -0.5648  0.2445  0.9746
  674MOL0     C90914  10.971   9.331   8.507 -0.3642  0.7641 -0.8567
  674MOL0     C90915  10.921   9.423   8.402  0.1642  0.4727 -0.4380
  674MOL0     C90916  10.789   9.390   8.344  0.3308  0.0030  0.0384
  674MOL0     C90917  10.764   9.473   8.221 -0.3718 -0.1503 -1.0911
  674MOL0     C90918  10.630   9.445   8.172  0.3750 -1.1234 -0.7632
  674MOL0     C90919  10.512   9.445   8.142 -0.2853  0.1877 -0.1127
  674MOL0     C90920  11.021   9.398   8.821 -0.7671  0.5828  0.0611
  674MOL0     C90921  11.080   9.488   8.913 -0.1751  0.2156  0.3825
  674MOL0     C90922  11.179   9.432   9.014  0.8669  0.8508  0.9001
  674MOL0     H90923  11.047   9.990   9.133  1.5173  1.4574  2.1246
  674MOL0     H90924  11.194  10.169   9.230  2.1507  0.7064  0.9822
  674MOL0     H90925  11.578  10.130   9.227 -0.3300 -0.5539 -0.7525
  674MOL0     H90926  11.611  10.214   9.072 -0.2805 -0.9724 -0.4944
  674MOL0     H90927  11.581  10.337   9.345  1.5136 -0.1997  0.5551
  674MOL0     H90928  11.600  10.420   9.196  2.6994  0.7454  0.6017
  674MOL0     H90929  11.819  10.330   9.148  1.3824  0.0466  0.1360
  674MOL0     H90930  11.808  10.249   9.309  4.2065  1.5047  0.8588
  674MOL0     H90931  11.822  10.536   9.235  1.0686  2.0524  2.3107
  674MOL0     H90932  11.784  10.481   9.405  1.1652 -1.8889  1.2275
  674MOL0     H90933  11.990  10.383   9.433 -1.4339  1.7354  1.6423
  674MOL0     H90934  12.041  10.402   9.264 -0.3562  0.0443 -0.1900
  674MOL0     H90935  12.018  10.657   9.283 -0.0885 -1.7444 -0.6886
  674MOL0     H90936  11.985  10.627   9.459 -0.3100  1.7181 -0.8659
  674MOL0     H90937  12.248  10.550   9.317 -1.9363 -0.7274 -1.0754
  674MOL0     H90938  12.208  10.508   9.478  0.5768  0.2311  0.0491
  674MOL0     H90939  12.216  10.792   9.376 -0.3212 -1.8378 -1.7984
  674MOL0     H90940  12.158  10.735   9.543  0.2642 -0.2805  0.9819
  674MOL0     H90941  12.333  10.803   9.713 -1.7305 -3.4435  0.8714
  674MOL0     H90942  12.614  10.890   9.735 -1.4117  0.1019  2.8471
  674MOL0     H90943  12.581  10.754   9.846 -2.9564 -1.8690 -1.7541
  674MOL0     H90944  12.779  10.629   9.770  2.9812 -0.0880 -1.4745
  674MOL0     H90945  12.803  10.722   9.638  0.1201 -2.1545  0.8012
  674MOL0     H90946  12.818  10.828   9.932  1.4548 -0.7793  0.5262
  674MOL0     H90947  12.859  10.921   9.784  1.7136 -0.9918 -1.3902
  674MOL0     H90948  13.061  10.860   9.859  0.3021  1.6425 -3.3609
  674MOL0     H90949  13.030  10.766   9.713  0.2741 -0.8500  0.0546
  674MOL0     H90950  13.092  10.447  10.006  0.9630  0.1536  1.4335
  674MOL0     H90951  13.322  10.345  10.034 -2.3181  0.8134  1.1668
  674MOL0     H90952  13.848  10.616  10.059  2.4368 -1.0126  1.6678
  674MOL0     H90953  14.067  10.535  10.097 -0.0309 -0.5248 -0.5165
  674MOL0     H90954  14.299  10.448  10.064  1.0039  1.1008  0.5314
  674MOL0     H90955  14.200  10.333  10.171 -0.5102 -2.2690 -1.0870
  674MOL0     H90956  14.351  10.154  10.107  0.5251 -1.6045 -2.4250
  674MOL0     H90957  14.427  10.265   9.985 -1.3985  0.7162  0.3106
  674MOL0     H90958  14.562  10.213  10.178  1.9857  1.7833  1.9971
  674MOL0     H90959  14.528  10.388  10.138  2.4407 -0.9062 -2.0705
  674MOL0     H90960  14.394  10.247  10.359 -0.8956  0.3366 -0.8636
  674MOL0     H90961  14.384  10.422  10.307  1.3637  1.6641 -0.1420
  674MOL0     H90962  14.607  10.271  10.437 -0.9857 -0.6515  0.9957
  674MOL0     H90963  14.515  10.413  10.495 -0.4379  0.4300 -0.4051
  674MOL0     H90964  14.709  10.406  10.266 -0.2386  0.7508 -0.3026
  674MOL0     H90965  14.620  10.553  10.336 -3.6477 -2.5175 -1.2827
  674MOL0     H90966  14.873  10.505  10.400  0.4223  0.4262  1.6420
  674MOL0     H90967  14.809  10.368  10.488 -0.0714 -0.3974 -1.4941
  674MOL0     H90968  14.655  10.537  10.612  2.5745 -2.7949  0.5278
  674MOL0     H90969  14.824  10.576  10.640  0.0899 -0.9184  0.8583
  674MOL0     H90970  13.998  10.219   9.804 -0.8178 -0.2655  0.2625
  674MOL0     H90971  13.780  10.291   9.773 -1.0952  1.5943  0.4569
  674MOL0     H90972  13.481  10.657   9.777  1.0586 -1.6954 -0.3573
  674MOL0     H90973  13.252  10.748   9.770  0.6997 -1.0982 -1.0107
  674MOL0     H90974  11.485  10.114   8.919 -0.0615 -0.4224 -0.0463
  674MOL0     H90975  11.339   9.974   8.801  1.6208  0.3585  0.5886
  674MOL0     H90976  10.936   9.769   8.786 -0.3527  0.3117  1.3266
  674MOL0     H90977  10.833   9.605   8.628 -0.0090 -0.5222 -0.0542
  674MOL0     H90978  10.967   9.233   8.461 -0.4690  1.4074 -2.2557
  674MOL0     H90979  11.069   9.359   8.546  0.1538  0.4529 -1.9327
  674MOL0     H90980  10.998   9.424   8.324  0.1908 -1.2620 -0.4691
  674MOL0     H90981  10.917   9.524   8.444  0.9496  0.6321 -0.7206
  674MOL0     H90982  10.716   9.425   8.418  1.8615  2.2283  0.5839
  674MOL0     H90983  10.771   9.285   8.316  0.6601  0.1230 -0.6500
  674MOL0     H90984  10.781   9.581   8.232 -1.5662 -0.2075  2.9018
  674MOL0     H90985  10.831   9.436   8.144  2.6400 -0.7319  1.6063
  674MOL0     H90986  10.415   9.449   8.097  0.7426  1.0644 -2.3852
  674MOL0     H90987  11.043   9.293   8.840 -0.9575  0.8060  1.6059
  674MOL0     H90988  11.136   9.437   9.114 -1.0506  0.2097  0.1553
  674MOL0     H90989  11.187   9.325   8.993 -1.3116  1.4225 -4.5208
  674MOL0     H90990  11.280   9.473   9.015  0.6230  1.4590  1.3442
  675MOL0     O90991   0.785   9.022   5.804 -0.0140  0.0889 -1.1860
  675MOL0     C90992   0.698   9.097   5.851  0.4469  0.2947  0.2943
  675MOL0     O90993   0.724   9.205   5.923  0.2782 -0.1436  0.5206
  675MOL0     C90994   0.847   9.249   5.972 -0.2412 -0.7108  0.2105
  675MOL0     C90995   0.939   9.165   6.035  0.0256 -0.3463  0.4431
  675MOL0     C90996   1.059   9.219   6.086 -0.5738 -0.1350 -0.2759
  675MOL0     C90997   1.087   9.357   6.070  0.6715  0.3714 -0.1255
  675MOL0     O90998   1.203   9.417   6.113 -0.2479  0.5280  0.2115
  675MOL0     C90999   1.296   9.332   6.178  0.4321  0.0242 -0.2901
  675MOL0     C91000   1.431   9.404   6.198 -0.3587 -0.0100 -0.2483
  675MOL0     C91001   1.531   9.307   6.265  0.2918 -0.3938  0.0228
  675MOL0     C91002   1.647   9.373   6.328  0.4501  0.3558  0.5402
  675MOL0     C91003   1.756   9.265   6.367  0.3758 -0.0241  0.0174
  675MOL0     C91004   1.849   9.320   6.478  1.0306  0.1035 -0.2356
  675MOL0     C91005   1.945   9.427   6.430  0.5538  0.0294 -0.0710
  675MOL0     C91006   2.069   9.367   6.365  0.0616  0.0394  0.5862
  675MOL0     N91007   2.191   9.399   6.438  0.3489 -0.0703 -0.8817
  675MOL0     C91008   2.246   9.526   6.442  0.0447  0.5663  0.0655
  675MOL0     C91009   2.325   9.523   6.555  0.4950  0.3085 -0.1779
  675MOL0     C91010   2.405   9.636   6.610 -0.2759  0.0568  0.3720
  675MOL0     C91011   2.553   9.617   6.607 -0.5800  0.4887  0.0082
  675MOL0     C91012   2.622   9.745   6.670 -0.4638  0.9473  0.2797
  675MOL0     C91013   2.777   9.742   6.675  0.1436  0.0208 -0.1011
  675MOL0     O91014   2.821   9.797   6.546  0.2033 -0.2516 -0.4952
  675MOL0     C91015   2.965   9.791   6.520  0.6353  0.7996  1.0451
  675MOL0     C91016   3.057   9.720   6.587 -0.5597  0.1613 -0.4204
  675MOL0     C91017   3.192   9.748   6.565 -0.1337 -0.5392 -0.7256
  675MOL0     C91018   3.241   9.817   6.452  0.1447 -0.2057  0.5321
  675MOL0     C91019   3.385   9.812   6.416  1.2610 -0.2452 -0.2518
  675MOL0     O91020   3.476   9.748   6.497 -0.4115  0.2087  0.3501
  675MOL0     C91021   3.608   9.762   6.451  0.2447 -0.1494 -0.0544
  675MOL0     C91022   3.698   9.864   6.489  0.0699  0.4116  1.1387
  675MOL0     C91023   3.835   9.862   6.445 -0.4474 -0.4413  0.0856
  675MOL0     C91024   3.886   9.757   6.365  0.1161  0.3653  0.5482
  675MOL0     O91025   4.010   9.764   6.306 -0.3532  0.0602  0.3919
  675MOL0     C91026   4.070   9.640   6.245  0.3142  0.0190 -1.1914
  675MOL0     C91027   4.226   9.673   6.232  0.5541 -0.2800 -0.4362
  675MOL0     C91028   4.300   9.553   6.161  0.9130  0.1242  0.2453
  675MOL0     C91029   4.442   9.599   6.130  0.0143 -0.1128 -0.7318
  675MOL0     C91030   4.459   9.687   6.001  0.6220 -0.0642  0.3635
  675MOL0     C91031   4.600   9.744   5.998  0.0918 -0.2367  0.5655
  675MOL0     C91032   4.611   9.799   5.856  0.1744 -0.2369 -1.3722
  675MOL0     C91033   4.740   9.876   5.834  0.5302 -0.2982 -0.3184
  675MOL0    Cl91034   4.741   9.948   5.676  0.5489 -0.4940 -0.0274
  675MOL0     C91035   3.797   9.649   6.349 -0.1128 -0.3966  0.2843
  675MOL0     C91036   3.670   9.649   6.396  0.1264 -0.1201  0.1261
  675MOL0     O91037   3.404   9.866   6.307 -0.5171 -0.2033 -0.0232
  675MOL0     C91038   3.142   9.873   6.375  1.2853  0.0313 -0.2270
  675MOL0     C91039   3.009   9.864   6.411  0.2662 -0.0518  0.0736
  675MOL0     N91040   2.333   9.397   6.596 -0.4004 -0.5168  0.9988
  675MOL0     N91041   2.250   9.323   6.529  0.5279  0.6143 -0.4459
  675MOL0     C91042   1.001   9.432   5.991  0.2155 -0.4127 -0.0705
  675MOL0     C91043   0.878   9.382   5.947  0.9598  0.5469 -0.5981
  675MOL0     C91044   0.555   9.075   5.800  0.2348  0.7882 -0.1339
  675MOL0     C91045   0.506   8.947   5.782 -0.4485  0.4320 -0.1645
  675MOL0     C91046   0.378   8.919   5.736  0.2212  0.2368 -0.4854
  675MOL0     C91047   0.292   9.018   5.693  0.6487  0.2066 -0.5858
  675MOL0     O91048   0.175   8.972   5.623 -0.2450 -0.3448  0.0424
  675MOL0     C91049   0.088   9.067   5.557  0.0470  0.5272  0.1581
  675MOL0     C91050  -0.002   9.009   5.456 -0.0122  0.3884 -0.2097
  675MOL0     C91051  -0.063   9.115   5.375  0.8417 -0.5958 -0.6863
  675MOL0     C91052  -0.175   9.071   5.286  0.1784  0.3153  0.4599
  675MOL0     C91053  -0.129   8.995   5.167 -0.1838  0.3538  0.0976
  675MOL0     C91054  -0.079   8.974   5.054 -0.3562  1.2120 -0.6291
  675MOL0     C91055   0.344   9.150   5.704  0.4533 -0.3615 -0.2500
  675MOL0     C91056   0.472   9.180   5.748 -0.6869 -0.1794 -0.8600
  675MOL0     C91057   0.524   9.322   5.774 -0.1762  0.9803  0.6828
  675MOL0     H91058   0.912   9.060   6.038  2.6828 -1.2050 -1.8408
  675MOL0     H91059   1.135   9.148   6.119  2.7045  2.7017 -1.1075
  675MOL0     H91060   1.259   9.304   6.277 -0.9482 -0.8199 -1.0016
  675MOL0     H91061   1.320   9.238   6.128  1.4799  0.3151 -0.3512
  675MOL0     H91062   1.429   9.502   6.246 -1.1964 -1.1975  2.2883
  675MOL0     H91063   1.474   9.421   6.099  0.4359 -0.0317  0.0890
  675MOL0     H91064   1.574   9.234   6.196  3.1262  0.9773  0.1772
  675MOL0     H91065   1.481   9.251   6.344 -1.6557  0.6575 -0.3825
  675MOL0     H91066   1.675   9.453   6.259  0.9522 -1.2812 -1.2620
  675MOL0     H91067   1.607   9.424   6.415  0.1271  2.7236 -0.8980
  675MOL0     H91068   1.709   9.179   6.416  1.9093  0.8050  3.1840
  675MOL0     H91069   1.806   9.237   6.273 -1.5616  0.3901 -1.2070
  675MOL0     H91070   1.790   9.355   6.564  0.3532 -0.9429 -0.2482
  675MOL0     H91071   1.905   9.235   6.519 -2.8944 -1.0675  3.4584
  675MOL0     H91072   1.986   9.477   6.518  1.2034 -2.5019  1.1527
  675MOL0     H91073   1.889   9.488   6.358 -0.0896  1.5253  1.6078
  675MOL0     H91074   2.067   9.258   6.355  1.2336  0.2175 -2.7560
  675MOL0     H91075   2.078   9.407   6.264  1.7136 -2.4615 -0.3477
  675MOL0     H91076   2.229   9.608   6.373  5.4802  0.4938 -1.7607
  675MOL0     H91077   2.372   9.723   6.553 -0.9565 -0.1238  0.4912
  675MOL0     H91078   2.372   9.650   6.713 -0.6037  0.0360  0.2701
  675MOL0     H91079   2.586   9.528   6.661  1.3691 -0.7937 -2.9597
  675MOL0     H91080   2.596   9.611   6.506 -0.2084 -2.5004  0.2327
  675MOL0     H91081   2.598   9.753   6.776 -1.2028 -2.7383  0.5337
  675MOL0     H91082   2.602   9.836   6.612  1.4728 -0.1657 -2.3444
  675MOL0     H91083   2.824   9.647   6.702  0.3763 -0.0562 -0.7652
  675MOL0     H91084   2.802   9.816   6.752  0.3388 -1.6927  1.5435
  675MOL0     H91085   3.035   9.645   6.663  0.9655  0.9052  0.8163
  675MOL0     H91086   3.257   9.701   6.639 -0.1842  1.0273  0.3857
  675MOL0     H91087   3.654   9.949   6.540 -0.4716 -1.1547  3.4599
  675MOL0     H91088   3.912   9.934   6.474 -1.5958  0.4710  0.9359
  675MOL0     H91089   4.054   9.554   6.311  0.2853  0.9164 -0.0075
  675MOL0     H91090   4.024   9.620   6.148 -0.4523  0.9829 -1.0365
  675MOL0     H91091   4.239   9.771   6.184 -1.1231  0.5638  0.7471
  675MOL0     H91092   4.269   9.690   6.331  1.7002  1.1920 -1.1291
  675MOL0     H91093   4.298   9.462   6.222  0.7343  0.8750  1.3811
  675MOL0     H91094   4.243   9.528   6.071  0.1528  0.1575  0.7068
  675MOL0     H91095   4.514   9.523   6.098  0.1546 -0.1828 -0.2441
  675MOL0     H91096   4.488   9.637   6.221 -0.0527 -0.5769 -0.5039
  675MOL0     H91097   4.391   9.772   5.999  0.1053 -0.4437  1.4809
  675MOL0     H91098   4.432   9.624   5.915  0.2967 -1.3698  1.3999
  675MOL0     H91099   4.608   9.821   6.076 -2.9509  0.6504  0.1637
  675MOL0     H91100   4.672   9.663   6.008 -0.3401 -1.2493 -3.1572
  675MOL0     H91101   4.515   9.850   5.844 -0.8808 -0.7578  3.1048
  675MOL0     H91102   4.623   9.707   5.798  0.2252 -2.0748  1.3787
  675MOL0     H91103   4.753   9.952   5.912 -0.3239  0.1960 -0.6419
  675MOL0     H91104   4.826   9.810   5.837 -0.2252 -1.4077  4.1907
  675MOL0     H91105   3.828   9.556   6.302 -3.5598 -1.8498  0.5721
  675MOL0     H91106   3.610   9.564   6.366  2.4376 -1.2434 -1.6787
  675MOL0     H91107   3.171   9.934   6.289  2.8404 -3.2039 -2.1819
  675MOL0     H91108   2.934   9.915   6.351  0.6467 -4.2672 -4.6623
  675MOL0     H91109   1.044   9.527   5.961  2.1446 -0.5131  2.0195
  675MOL0     H91110   0.796   9.436   5.902  1.8561  0.8231 -1.9747
  675MOL0     H91111   0.563   8.860   5.814 -0.4370 -0.1725 -1.7133
  675MOL0     H91112   0.346   8.816   5.747  0.2084  0.0471 -2.0420
  675MOL0     H91113   0.154   9.138   5.507  0.2269 -1.1289 -2.1040
  675MOL0     H91114   0.030   9.114   5.637 -1.3023 -2.7871  1.2782
  675MOL0     H91115  -0.068   8.946   5.517  0.5814  1.5389  1.7246
  675MOL0     H91116   0.043   8.930   5.395  0.6333 -2.0774  3.1363
  675MOL0     H91117   0.020   9.142   5.308  1.2394 -2.5516 -1.0275
  675MOL0     H91118  -0.096   9.190   5.447 -3.2130 -3.2151  0.5018
  675MOL0     H91119  -0.247   9.020   5.351 -1.5478  0.6651 -1.0915
  675MOL0     H91120  -0.232   9.158   5.250  1.4659 -0.1252 -3.0347
  675MOL0     H91121  -0.041   8.944   4.958  0.8756 -0.5405  0.3447
  675MOL0     H91122   0.291   9.239   5.672 -3.5034 -2.7074 -0.8802
  675MOL0     H91123   0.623   9.336   5.730 -0.8512 -0.6146 -1.5321
  675MOL0     H91124   0.466   9.402   5.728 -0.8456  0.2235  0.1845
  675MOL0     H91125   0.535   9.344   5.881 -0.5938 -0.9817  1.1702
  676MOL0     O91126   3.629   4.828   4.209  0.6141  0.8234  0.6348
  676MOL0     C91127   3.569   4.820   4.316 -0.4263  0.4260  0.3552
  676MOL0     O91128   3.622   4.845   4.442 -0.3028  0.0370 -0.1238
  676MOL0     C91129   3.757   4.894   4.440 -0.6073 -0.2726  1.2140
  676MOL0     C91130   3.861   4.799   4.450  0.1700 -0.5054  0.3797
  676MOL0     C91131   3.995   4.847   4.450 -1.3400  0.2483 -0.4197
  676MOL0     C91132   4.021   4.989   4.439 -0.5229 -0.1069 -0.2740
  676MOL0     O91133   4.151   5.025   4.446 -0.0633  0.2921  0.5964
  676MOL0     C91134   4.188   5.156   4.406 -0.0795  0.0671 -0.1729
  676MOL0     C91135   4.334   5.167   4.403 -0.0271 -0.1585 -0.0467
  676MOL0     C91136   4.385   5.215   4.539  0.0086  0.1165  0.3569
  676MOL0     C91137   4.538   5.225   4.553  0.7373  0.2999  0.0060
  676MOL0     C91138   4.584   5.306   4.681 -0.4260  0.2489  0.4019
  676MOL0     C91139   4.734   5.312   4.680  0.1109 -1.1368 -0.3708
  676MOL0     C91140   4.802   5.183   4.686  0.1096 -0.6708 -0.0466
  676MOL0     C91141   4.939   5.188   4.747  0.0950 -0.7302 -0.4682
  676MOL0     N91142   5.029   5.297   4.700 -0.5033  0.3005  0.5492
  676MOL0     C91143   5.160   5.271   4.661  0.0651 -0.6690 -0.3584
  676MOL0     C91144   5.211   5.390   4.640 -0.0828 -0.2335  0.7697
  676MOL0     C91145   5.358   5.421   4.583 -0.2058 -0.2602  0.1371
  676MOL0     C91146   5.469   5.374   4.681 -0.1823 -0.1437  0.1222
  676MOL0     C91147   5.606   5.399   4.611 -0.5378 -1.2503  0.0452
  676MOL0     C91148   5.656   5.545   4.638  0.3057  0.5902  0.2891
  676MOL0     O91149   5.647   5.574   4.773  0.1391  0.0112  0.2650
  676MOL0     C91150   5.756   5.613   4.846 -0.0177 -0.8612  0.2239
  676MOL0     C91151   5.738   5.603   4.986  0.3585  0.2086 -0.4297
  676MOL0     C91152   5.840   5.629   5.081 -0.2836 -0.6510 -0.2947
  676MOL0     C91153   5.947   5.697   5.030 -0.3582 -0.1018 -0.1038
  676MOL0     C91154   6.056   5.757   5.112 -0.4659  0.7124  0.0491
  676MOL0     O91155   6.157   5.828   5.048 -1.1602 -0.1441 -0.2302
  676MOL0     C91156   6.272   5.879   5.105  0.3051  0.0509  0.0316
  676MOL0     C91157   6.331   5.842   5.226 -0.3671 -0.1830 -0.4102
  676MOL0     C91158   6.453   5.903   5.274  0.5019  0.3195  0.9340
  676MOL0     C91159   6.512   6.002   5.197  0.2162 -0.0112  0.0914
  676MOL0     O91160   6.616   6.070   5.263  0.7935  0.3742 -0.3353
  676MOL0     C91161   6.718   6.135   5.192  0.3279  1.2255  0.2664
  676MOL0     C91162   6.813   6.186   5.302 -0.2325 -0.2283 -0.1895
  676MOL0     C91163   6.947   6.241   5.244  0.4910  0.0957 -0.1218
  676MOL0     C91164   7.066   6.217   5.336  0.4159  0.1924  0.8274
  676MOL0     C91165   7.180   6.290   5.270  0.4929  0.6992 -0.6808
  676MOL0     C91166   7.305   6.297   5.356  0.1245  0.5132  0.3326
  676MOL0     C91167   7.343   6.160   5.420  0.3803 -0.6499 -0.1235
  676MOL0     C91168   7.475   6.168   5.507  0.6937 -0.2541  0.9460
  676MOL0    Cl91169   7.532   5.998   5.543  0.2178 -0.0095  0.2573
  676MOL0     C91170   6.458   6.043   5.076 -0.2603 -0.7213 -0.2194
  676MOL0     C91171   6.336   5.977   5.032  0.8182 -0.1148 -0.6905
  676MOL0     O91172   6.047   5.738   5.233  0.4009 -0.0939 -0.8285
  676MOL0     C91173   5.968   5.712   4.893 -0.3177  0.3379 -0.8467
  676MOL0     C91174   5.873   5.669   4.803  0.1454  0.5522  0.3600
  676MOL0     N91175   5.113   5.485   4.676  0.1530  0.8887 -0.0010
  676MOL0     N91176   5.006   5.431   4.715 -1.0547  1.4130  0.0683
  676MOL0     C91177   3.914   5.077   4.432  0.3038  0.5282  0.0408
  676MOL0     C91178   3.785   5.032   4.416 -0.3113 -0.9421  0.0614
  676MOL0     C91179   3.418   4.800   4.321  0.2474  1.2394  0.5348
  676MOL0     C91180   3.347   4.820   4.193  0.6064  0.0976  0.2326
  676MOL0     C91181   3.208   4.791   4.176  0.4523 -0.7975 -0.3027
  676MOL0     C91182   3.131   4.754   4.289 -0.0365  0.8254 -0.3899
  676MOL0     O91183   3.001   4.735   4.267  0.9625  0.3948  0.3782
  676MOL0     C91184   2.905   4.724   4.372  0.2847  0.6122 -0.9326
  676MOL0     C91185   2.764   4.689   4.309 -0.3863  0.3873 -0.8032
  676MOL0     C91186   2.650   4.740   4.397 -0.1105 -1.0023  0.5242
  676MOL0     C91187   2.624   4.891   4.384 -0.5472 -0.3187 -0.4138
  676MOL0     C91188   2.521   4.934   4.477 -0.0084  0.3160 -0.4121
  676MOL0     C91189   2.446   4.979   4.565 -0.3089  0.4241  0.8118
  676MOL0     C91190   3.194   4.744   4.417 -0.4559 -0.3926  0.9163
  676MOL0     C91191   3.332   4.750   4.431  0.2725  0.1475  0.2797
  676MOL0     C91192   3.382   4.708   4.562  0.4420  0.1728 -0.3080
  676MOL0     H91193   3.845   4.694   4.469  0.3649  0.0140  4.0065
  676MOL0     H91194   4.090   4.796   4.451 -1.1125  0.5652  1.9973
  676MOL0     H91195   4.156   5.167   4.302 -1.3778  0.4065  0.2460
  676MOL0     H91196   4.143   5.235   4.467  0.9399  0.3476  0.2293
  676MOL0     H91197   4.364   5.244   4.332 -2.7690  1.7322  0.6911
  676MOL0     H91198   4.372   5.068   4.375  1.5690  0.8861 -1.7900
  676MOL0     H91199   4.334   5.160   4.618 -2.4144  0.6546 -0.7382
  676MOL0     H91200   4.363   5.322   4.544 -3.0156 -0.2374 -2.2143
  676MOL0     H91201   4.575   5.123   4.565 -3.1256 -1.5896 -2.0989
  676MOL0     H91202   4.581   5.265   4.461  1.5585 -0.7408 -0.0772
  676MOL0     H91203   4.539   5.405   4.676 -2.0082 -0.4675 -0.6772
  676MOL0     H91204   4.553   5.263   4.777 -0.9886 -0.4967 -0.1017
  676MOL0     H91205   4.769   5.365   4.591 -0.1559 -0.3637 -0.0258
  676MOL0     H91206   4.761   5.363   4.773  1.6615 -3.5847  0.6245
  676MOL0     H91207   4.800   5.134   4.588 -0.9260 -0.6210 -0.0659
  676MOL0     H91208   4.742   5.113   4.746 -1.2614 -0.5992 -1.2782
  676MOL0     H91209   4.924   5.193   4.855 -0.3668  0.8729 -0.5755
  676MOL0     H91210   4.991   5.096   4.720 -2.8445 -2.7816  0.3436
  676MOL0     H91211   5.214   5.177   4.647  0.5251 -0.2811 -1.2788
  676MOL0     H91212   5.359   5.377   4.483  0.3188 -1.4916  0.6743
  676MOL0     H91213   5.367   5.529   4.566 -1.5371  0.0363  1.1366
  676MOL0     H91214   5.456   5.430   4.774  0.0648  3.0757 -1.6451
  676MOL0     H91215   5.462   5.268   4.707 -3.4174 -0.0200  0.2431
  676MOL0     H91216   5.595   5.375   4.505 -0.6364  2.5421 -0.9271
  676MOL0     H91217   5.681   5.326   4.643 -1.2229 -2.4452 -0.9899
  676MOL0     H91218   5.578   5.587   4.573  0.6646 -0.8853 -1.1600
  676MOL0     H91219   5.752   5.563   4.589  1.3615 -1.7196  1.3747
  676MOL0     H91220   5.649   5.553   5.020 -0.3824  2.5458  1.3223
  676MOL0     H91221   5.837   5.593   5.183  0.9017  1.1179  0.4216
  676MOL0     H91222   6.280   5.780   5.299 -0.2731 -2.5339 -2.2327
  676MOL0     H91223   6.482   5.875   5.375  0.4852 -3.0886  0.1224
  676MOL0     H91224   6.773   6.067   5.126  0.0157  2.1716 -1.0176
  676MOL0     H91225   6.680   6.214   5.127  0.2492 -0.3004 -1.6501
  676MOL0     H91226   6.774   6.271   5.359  4.0591  1.1451  1.0513
  676MOL0     H91227   6.841   6.112   5.376  1.1193  0.7895  0.3647
  676MOL0     H91228   6.962   6.191   5.148 -1.2277 -0.4853 -0.1185
  676MOL0     H91229   6.935   6.347   5.220 -0.7051  0.3090  1.2517
  676MOL0     H91230   7.090   6.112   5.352  2.8047  0.6875  0.8155
  676MOL0     H91231   7.061   6.248   5.441 -1.0213 -0.0439  0.8557
  676MOL0     H91232   7.160   6.395   5.247 -3.7083  0.1597 -0.3766
  676MOL0     H91233   7.203   6.240   5.175  1.2858 -0.6195  0.1705
  676MOL0     H91234   7.390   6.332   5.297  0.5771 -0.5898  0.3119
  676MOL0     H91235   7.295   6.371   5.436 -0.6336 -2.3299  3.0559
  676MOL0     H91236   7.353   6.087   5.339 -1.8826 -0.5449 -0.5678
  676MOL0     H91237   7.266   6.128   5.491  0.5191 -1.0278 -0.1389
  676MOL0     H91238   7.559   6.225   5.465  0.0834 -0.5469 -0.7602
  676MOL0     H91239   7.444   6.220   5.598 -0.6536 -1.0175  0.9467
  676MOL0     H91240   6.496   6.130   5.025  0.1460 -0.2143  0.9353
  676MOL0     H91241   6.299   6.001   4.933  1.5521 -2.3670 -1.5793
  676MOL0     H91242   6.059   5.763   4.863  0.2322 -0.1426 -0.0265
  676MOL0     H91243   5.888   5.698   4.699  1.0883 -1.3195 -0.0758
  676MOL0     H91244   3.929   5.185   4.434  3.0679  0.2010  1.3869
  676MOL0     H91245   3.705   5.102   4.397 -0.1749 -0.1473  2.1390
  676MOL0     H91246   3.403   4.852   4.106  0.0373  1.7188  0.4302
  676MOL0     H91247   3.154   4.813   4.085  0.2364  0.0890  0.0274
  676MOL0     H91248   2.905   4.819   4.425 -0.7884 -0.7829  1.7899
  676MOL0     H91249   2.937   4.644   4.440  3.7372  0.6482 -2.3166
  676MOL0     H91250   2.762   4.579   4.307  1.1622  0.2622  1.0988
  676MOL0     H91251   2.748   4.724   4.207 -0.5401  0.2521 -0.8263
  676MOL0     H91252   2.688   4.715   4.497  1.7936  1.5467  0.5226
  676MOL0     H91253   2.557   4.686   4.378 -1.3800  0.2657  2.6754
  676MOL0     H91254   2.714   4.946   4.416 -0.9029  1.1014 -1.7854
  676MOL0     H91255   2.608   4.931   4.284  2.8124  2.4370 -0.0715
  676MOL0     H91256   2.368   5.017   4.628 -1.0115  0.7833 -0.2553
  676MOL0     H91257   3.123   4.723   4.497  1.1454 -0.9989  2.2305
  676MOL0     H91258   3.484   4.670   4.559 -0.1403 -1.9832  2.8741
  676MOL0     H91259   3.380   4.791   4.632 -2.1043 -1.7246  2.0825
  676MOL0     H91260   3.327   4.623   4.604  1.6036 -0.0844  0.7303
  677MOL0     O91261   6.606   2.328   6.544 -0.2784 -0.2616 -0.5725
  677MOL0     C91262   6.626   2.411   6.630 -0.2620  0.1167  0.3269
  677MOL0     O91263   6.534   2.483   6.690  0.0487  0.8514 -0.4594
  677MOL0     C91264   6.397   2.458   6.688 -0.1273  0.5111 -0.6641
  677MOL0     C91265   6.316   2.569   6.666 -0.1915  0.1179 -0.4704
  677MOL0     C91266   6.174   2.552   6.659  0.3254 -0.7090  0.4521
  677MOL0     C91267   6.120   2.423   6.672 -0.8015  0.0264 -0.4871
  677MOL0     O91268   5.990   2.389   6.672  0.6561 -0.2023 -0.0158
  677MOL0     C91269   5.885   2.481   6.633  0.0839 -0.0028 -0.3036
  677MOL0     C91270   5.869   2.471   6.480  0.0129 -0.2548  0.3886
  677MOL0     C91271   5.815   2.330   6.437  0.3336 -0.4293 -0.2829
  677MOL0     C91272   5.675   2.303   6.484 -0.5886  0.2346  0.8564
  677MOL0     C91273   5.592   2.197   6.406 -0.5778  0.3959 -0.4534
  677MOL0     C91274   5.452   2.169   6.463  0.5444 -0.2755  0.0463
  677MOL0     C91275   5.462   2.053   6.565 -0.1382  0.8964 -0.6462
  677MOL0     C91276   5.330   2.009   6.635 -0.2523 -0.0542  0.0664
  677MOL0     N91277   5.249   1.939   6.537 -1.4474 -0.7460 -0.5418
  677MOL0     C91278   5.275   1.812   6.488 -0.0616 -0.0477  1.3289
  677MOL0     C91279   5.185   1.791   6.390 -0.0845 -0.4612  0.5055
  677MOL0     C91280   5.177   1.676   6.294 -0.2982 -0.0544 -0.1838
  677MOL0     C91281   5.247   1.551   6.350 -0.8046 -0.7176 -0.0485
  677MOL0     C91282   5.207   1.412   6.276  0.6632  0.4797 -0.5817
  677MOL0     C91283   5.260   1.397   6.138  0.3156 -0.4443 -0.5398
  677MOL0     O91284   5.400   1.378   6.148 -0.1885  0.4042  0.2532
  677MOL0     C91285   5.447   1.338   6.020 -0.8969 -0.0814  0.1980
  677MOL0     C91286   5.423   1.408   5.904  0.5511  0.3032  0.2630
  677MOL0     C91287   5.479   1.371   5.780 -0.2749 -0.1974 -0.5101
  677MOL0     C91288   5.565   1.251   5.774  0.3071  0.3099  0.7556
  677MOL0     C91289   5.606   1.207   5.637 -1.0304  0.0246  0.0327
  677MOL0     O91290   5.696   1.092   5.627 -0.1522  0.0967 -0.2560
  677MOL0     C91291   5.757   1.055   5.510 -0.1535 -0.1336 -1.3583
  677MOL0     C91292   5.765   0.916   5.492 -0.3023  0.2053  0.3975
  677MOL0     C91293   5.839   0.872   5.385  0.3818 -0.2388  0.0294
  677MOL0     C91294   5.897   0.961   5.288 -0.1859  0.8562 -0.2826
  677MOL0     O91295   5.982   0.914   5.191 -0.1202  0.0813 -0.0532
  677MOL0     C91296   5.947   0.950   5.056 -0.1032 -0.4609 -0.6116
  677MOL0     C91297   6.074   0.971   4.970 -0.5565 -0.0777 -0.2893
  677MOL0     C91298   6.178   1.066   5.039  0.1635 -0.2251  0.8647
  677MOL0     C91299   6.297   1.078   4.940 -0.6942  0.8413  0.3208
  677MOL0     C91300   6.397   1.185   4.982 -0.5878 -0.5104  0.3270
  677MOL0     C91301   6.521   1.186   4.895 -0.6322  0.3196 -0.4073
  677MOL0     C91302   6.623   1.298   4.915  0.0132 -0.4451  0.1784
  677MOL0     C91303   6.550   1.429   4.890  0.6778 -0.0434 -0.4271
  677MOL0    Cl91304   6.660   1.555   4.865 -0.2021 -0.4466 -0.0564
  677MOL0     C91305   5.874   1.095   5.302  0.8699  0.3192  0.3308
  677MOL0     C91306   5.805   1.146   5.413 -0.1375  0.6658  0.0904
  677MOL0     O91307   5.567   1.270   5.532  0.2347 -0.2448  0.5438
  677MOL0     C91308   5.595   1.181   5.892  0.2176 -0.5110 -0.6719
  677MOL0     C91309   5.537   1.230   6.014  0.3744 -0.7846 -0.3356
  677MOL0     N91310   5.110   1.906   6.375  0.4005 -0.4824 -0.3180
  677MOL0     N91311   5.140   1.987   6.477 -0.7809 -1.1565  0.5856
  677MOL0     C91312   6.202   2.318   6.688 -0.4263  0.2281 -0.3020
  677MOL0     C91313   6.339   2.333   6.713 -0.8429  0.2602  0.1803
  677MOL0     C91314   6.764   2.456   6.685  0.1768  0.6383  0.2709
  677MOL0     C91315   6.782   2.583   6.736  0.3004  0.0801 -0.7333
  677MOL0     C91316   6.914   2.628   6.772  0.8378  0.4594 -0.6054
  677MOL0     C91317   7.024   2.548   6.758 -0.0984  0.1745  0.2522
  677MOL0     O91318   7.154   2.588   6.788  0.6141  0.0632 -0.4139
  677MOL0     C91319   7.187   2.732   6.776 -0.3740  0.1552 -0.3697
  677MOL0     C91320   7.187   2.799   6.643 -0.4920 -0.1602 -0.3668
  677MOL0     C91321   7.207   2.950   6.645 -1.5391  0.1129  0.2340
  677MOL0     C91322   7.355   2.998   6.642 -0.2693 -0.0599  0.5197
  677MOL0     C91323   7.363   3.144   6.620 -0.3770  0.4999 -0.4707
  677MOL0     C91324   7.372   3.258   6.601  0.3525  0.4597  0.2373
  677MOL0     C91325   7.000   2.424   6.708 -0.3115  0.1401 -0.1367
  677MOL0     C91326   6.878   2.376   6.662 -0.8067  0.0886 -0.3641
  677MOL0     C91327   6.877   2.252   6.591 -0.3183  0.4082  0.4844
  677MOL0     H91328   6.372   2.660   6.649  2.0501 -1.2572 -0.9503
  677MOL0     H91329   6.110   2.637   6.637 -0.3660 -1.5411 -0.9740
  677MOL0     H91330   5.795   2.470   6.694  0.8849  0.1585  0.9578
  677MOL0     H91331   5.915   2.583   6.659  2.8766 -0.5601 -1.0250
  677MOL0     H91332   5.961   2.502   6.430 -0.5178  1.8789  0.6709
  677MOL0     H91333   5.801   2.548   6.444  1.8872  0.6043 -1.5545
  677MOL0     H91334   5.883   2.252   6.471  0.4487 -0.0080  0.4716
  677MOL0     H91335   5.812   2.321   6.328 -0.2048 -0.7494 -0.2420
  677MOL0     H91336   5.677   2.275   6.590  1.8957  2.4610  1.5024
  677MOL0     H91337   5.620   2.397   6.481 -2.3645 -0.7677 -0.3222
  677MOL0     H91338   5.584   2.219   6.299  0.0914 -3.1521 -1.3641
  677MOL0     H91339   5.649   2.104   6.407  0.3776  0.9601  0.4703
  677MOL0     H91340   5.419   2.266   6.500 -1.2211 -0.5974 -0.5952
  677MOL0     H91341   5.385   2.140   6.382  1.2139 -0.2419 -0.5305
  677MOL0     H91342   5.529   2.081   6.647 -1.9200  2.1850  0.4209
  677MOL0     H91343   5.507   1.967   6.515 -0.3422  0.4168 -0.0201
  677MOL0     H91344   5.362   1.941   6.714  2.3931 -1.5790 -2.1550
  677MOL0     H91345   5.271   2.091   6.677  2.0606  1.3152  0.8200
  677MOL0     H91346   5.341   1.733   6.521 -0.3336 -1.4458 -1.2212
  677MOL0     H91347   5.074   1.650   6.266 -0.4204 -0.2824  0.4720
  677MOL0     H91348   5.240   1.703   6.208  1.5405 -2.8281  0.1617
  677MOL0     H91349   5.354   1.575   6.348 -0.8672 -0.3886 -3.0222
  677MOL0     H91350   5.205   1.536   6.450 -0.8581 -3.5013 -0.4164
  677MOL0     H91351   5.097   1.410   6.273  0.6107  1.8289 -0.3812
  677MOL0     H91352   5.235   1.329   6.341  1.0878  1.9187  1.1631
  677MOL0     H91353   5.240   1.487   6.079 -2.5366 -0.6966 -0.0944
  677MOL0     H91354   5.206   1.317   6.088  0.6164 -0.7212 -0.4218
  677MOL0     H91355   5.350   1.487   5.888  1.5040  0.7124 -2.6294
  677MOL0     H91356   5.447   1.430   5.694  0.2355  0.8750  0.0223
  677MOL0     H91357   5.731   0.845   5.567  2.3726  0.8037  2.3066
  677MOL0     H91358   5.848   0.766   5.362 -1.4457 -0.2344 -0.8622
  677MOL0     H91359   5.879   0.874   5.016 -0.7524 -0.3260  0.2156
  677MOL0     H91360   5.895   1.046   5.053 -0.0925 -0.3402  1.5143
  677MOL0     H91361   6.124   0.874   4.968  2.5509  1.2798  2.4812
  677MOL0     H91362   6.050   1.013   4.871 -1.4307 -1.1271 -0.5423
  677MOL0     H91363   6.138   1.168   5.040  1.6735  0.4137 -0.2219
  677MOL0     H91364   6.209   1.044   5.142  1.7356  1.6886  0.8500
  677MOL0     H91365   6.259   1.087   4.838  0.9114  1.0292 -0.2908
  677MOL0     H91366   6.354   0.985   4.948  0.0334  1.2651  0.1443
  677MOL0     H91367   6.418   1.173   5.089  1.1739 -1.0588 -0.0530
  677MOL0     H91368   6.346   1.281   4.967  1.5934  0.7587  0.5483
  677MOL0     H91369   6.569   1.088   4.904 -0.4416  0.4068 -0.4659
  677MOL0     H91370   6.490   1.189   4.790  2.9295 -0.5368 -1.6188
  677MOL0     H91371   6.706   1.295   4.844 -0.2577  2.7884 -0.4434
  677MOL0     H91372   6.657   1.299   5.019 -1.1765  2.1828  0.6181
  677MOL0     H91373   6.493   1.422   4.798  1.0108 -1.9213 -0.5221
  677MOL0     H91374   6.488   1.458   4.975 -0.8280 -2.7548 -0.5194
  677MOL0     H91375   5.896   1.167   5.224 -0.8581  3.3876  2.4569
  677MOL0     H91376   5.794   1.254   5.422 -1.1188  0.4821  1.3472
  677MOL0     H91377   5.656   1.092   5.897  0.1065 -0.4918  1.8972
  677MOL0     H91378   5.545   1.178   6.109 -3.0521 -2.0674 -0.5936
  677MOL0     H91379   6.155   2.220   6.689 -0.8936  0.4481  0.1845
  677MOL0     H91380   6.415   2.257   6.731  0.8518  1.9592  0.5808
  677MOL0     H91381   6.701   2.651   6.760 -0.2619 -0.2256 -1.7006
  677MOL0     H91382   6.915   2.727   6.817  0.6430  0.7095 -1.1304
  677MOL0     H91383   7.287   2.741   6.821 -0.2726  1.6333 -0.8412
  677MOL0     H91384   7.118   2.788   6.839  2.3758  3.0066  0.3410
  677MOL0     H91385   7.094   2.764   6.596 -0.9544  0.4232  0.1055
  677MOL0     H91386   7.264   2.760   6.576 -0.1915  2.4146 -1.6712
  677MOL0     H91387   7.153   2.992   6.730 -0.6450  1.2381  0.2676
  677MOL0     H91388   7.162   2.981   6.549 -1.3283 -3.2796 -1.0912
  677MOL0     H91389   7.412   2.974   6.732 -0.0575  0.7480  0.6075
  677MOL0     H91390   7.416   2.953   6.563  0.4491  0.1849  0.9283
  677MOL0     H91391   7.373   3.363   6.583  0.2840  0.0923 -2.2911
  677MOL0     H91392   7.084   2.356   6.698 -0.5881 -0.0749 -1.0806
  677MOL0     H91393   6.805   2.179   6.629  2.1139 -2.6425 -0.3324
  677MOL0     H91394   6.883   2.255   6.481 -1.2791 -2.8876  0.2420
  677MOL0     H91395   6.965   2.191   6.610 -0.2650 -0.2153 -1.4753
  678MOL0     O91396   4.698   6.689   4.361 -0.1402 -0.0893  0.6318
  678MOL0     C91397   4.649   6.586   4.414 -0.1652  0.4167  0.0099
  678MOL0     O91398   4.720   6.466   4.427 -0.1160 -0.5977  0.3151
  678MOL0     C91399   4.838   6.455   4.357 -0.6006  0.2155  0.4614
  678MOL0     C91400   4.840   6.455   4.215  0.3955 -0.2783  0.4328
  678MOL0     C91401   4.962   6.451   4.145 -0.8503 -0.7028  0.3093
  678MOL0     C91402   5.082   6.435   4.217  0.5333 -0.4192 -0.9625
  678MOL0     O91403   5.205   6.414   4.159  0.2912  0.5550  0.2373
  678MOL0     C91404   5.209   6.401   4.013 -0.7023  0.2701 -1.0191
  678MOL0     C91405   5.356   6.380   3.960  0.6012 -0.4832 -0.1788
  678MOL0     C91406   5.457   6.490   3.976  0.4609 -0.3019 -0.0934
  678MOL0     C91407   5.579   6.463   3.890  0.1166  0.7369 -0.6232
  678MOL0     C91408   5.688   6.384   3.977  0.4295 -0.4140  0.3277
  678MOL0     C91409   5.796   6.341   3.869  0.3069 -0.2525 -1.1282
  678MOL0     C91410   5.870   6.461   3.803  0.0248  0.6847  0.0410
  678MOL0     C91411   5.992   6.405   3.746 -0.0093 -0.8333  0.4386
  678MOL0     N91412   6.072   6.509   3.691 -0.9822 -1.4774 -0.0399
  678MOL0     C91413   6.149   6.495   3.579 -0.2555 -0.2842 -0.7670
  678MOL0     C91414   6.228   6.606   3.582  0.6743  0.2925 -0.0923
  678MOL0     C91415   6.352   6.627   3.508 -0.0376  0.0676  0.3056
  678MOL0     C91416   6.328   6.618   3.357 -0.5613 -0.6930  0.3774
  678MOL0     C91417   6.462   6.663   3.283 -0.7296  0.9346 -0.3686
  678MOL0     C91418   6.435   6.661   3.129  0.0263 -0.2075 -0.5404
  678MOL0     O91419   6.541   6.691   3.042 -0.0844  0.5303  0.5345
  678MOL0     C91420   6.617   6.590   2.976 -1.0561 -0.5272 -0.6060
  678MOL0     C91421   6.759   6.615   2.958  0.5369 -0.4423 -0.3967
  678MOL0     C91422   6.830   6.524   2.889  1.3188 -0.2187  0.2364
  678MOL0     C91423   6.785   6.397   2.859  0.7093  1.3346  0.1028
  678MOL0     C91424   6.874   6.299   2.793 -0.2172  0.3854  0.6891
  678MOL0     O91425   6.818   6.181   2.745  0.9995  0.0246 -0.0333
  678MOL0     C91426   6.879   6.125   2.639 -0.4328  0.5648 -0.3942
  678MOL0     C91427   6.991   6.039   2.640 -0.6370 -0.1696  0.3834
  678MOL0     C91428   7.055   5.998   2.517  0.1888 -0.5834 -1.0968
  678MOL0     C91429   7.001   6.033   2.392 -0.7211  0.0148  0.0553
  678MOL0     O91430   7.067   5.997   2.282 -0.3533  0.9059 -0.4257
  678MOL0     C91431   6.985   5.946   2.170 -0.3740 -0.3473  0.2384
  678MOL0     C91432   7.077   5.928   2.038  0.4846 -0.1343 -0.9934
  678MOL0     C91433   7.003   5.848   1.926 -0.7818  0.0117 -0.2937
  678MOL0     C91434   7.087   5.840   1.802 -0.2764 -0.4919  0.7136
  678MOL0     C91435   7.010   5.776   1.690 -0.3135 -0.3296  0.5563
  678MOL0     C91436   7.085   5.754   1.554  0.3599 -0.1342 -0.2417
  678MOL0     C91437   7.136   5.884   1.497  0.0674 -0.9981  0.4509
  678MOL0     C91438   7.030   5.985   1.466 -0.3101 -0.2381  0.2910
  678MOL0    Cl91439   7.100   6.114   1.365 -0.4000 -0.0956  0.3659
  678MOL0     C91440   6.891   6.112   2.401 -0.1565 -0.0305 -0.7504
  678MOL0     C91441   6.835   6.169   2.515 -0.4532  0.4761  1.1279
  678MOL0     O91442   6.991   6.335   2.775 -0.1125 -0.0182 -0.3073
  678MOL0     C91443   6.651   6.365   2.889  0.4450  0.5283 -1.0201
  678MOL0     C91444   6.569   6.463   2.947 -0.2774  0.0618 -0.1494
  678MOL0     N91445   6.185   6.696   3.681  0.2377 -0.5163 -0.3263
  678MOL0     N91446   6.085   6.637   3.747 -1.1056 -0.0105  0.1302
  678MOL0     C91447   5.072   6.436   4.357  0.4074 -0.7413 -0.5483
  678MOL0     C91448   4.951   6.447   4.430 -0.7246  0.4101  0.7544
  678MOL0     C91449   4.515   6.603   4.473  0.6070  0.2466 -0.2412
  678MOL0     C91450   4.465   6.490   4.535  0.5126  0.6051  0.3619
  678MOL0     C91451   4.336   6.485   4.588 -0.7639 -1.1162 -0.4742
  678MOL0     C91452   4.246   6.591   4.564  0.2674 -0.3730 -0.2438
  678MOL0     O91453   4.123   6.581   4.623  0.3533 -0.7451  0.7502
  678MOL0     C91454   4.026   6.529   4.538  0.2153  0.2434  0.5283
  678MOL0     C91455   3.905   6.466   4.594 -0.1123  0.1645 -0.1569
  678MOL0     C91456   3.804   6.431   4.478  0.3139 -0.0713 -0.3008
  678MOL0     C91457   3.711   6.316   4.499 -0.4736 -0.2130 -0.2929
  678MOL0     C91458   3.595   6.322   4.405  0.1222  1.1228 -0.1195
  678MOL0     C91459   3.488   6.322   4.347  0.0033  0.5662  0.4149
  678MOL0     C91460   4.284   6.701   4.493 -0.0647  0.7104  0.1278
  678MOL0     C91461   4.422   6.714   4.458 -0.3191 -0.4292  0.1866
  678MOL0     C91462   4.461   6.857   4.416 -0.0060  1.0818  0.5354
  678MOL0     H91463   4.746   6.461   4.162 -0.2035  2.4848  1.6145
  678MOL0     H91464   4.956   6.456   4.037 -3.6182  3.3257  0.4604
  678MOL0     H91465   5.143   6.320   3.984  0.5837 -0.4616 -2.0100
  678MOL0     H91466   5.170   6.491   3.964  1.2638  0.7069 -1.8881
  678MOL0     H91467   5.357   6.355   3.853  1.3090  0.1667 -0.3329
  678MOL0     H91468   5.396   6.292   4.009  0.7305  0.2852  1.1425
  678MOL0     H91469   5.482   6.518   4.079 -2.8202  1.7191  0.3017
  678MOL0     H91470   5.405   6.580   3.943 -0.8009 -1.5059 -1.5268
  678MOL0     H91471   5.559   6.401   3.802 -2.3559  1.2136 -0.4771
  678MOL0     H91472   5.622   6.557   3.854  2.0169  0.3380  0.4499
  678MOL0     H91473   5.724   6.454   4.053  0.0257 -0.5697  0.6685
  678MOL0     H91474   5.643   6.304   4.036 -1.3801  0.6212  0.3961
  678MOL0     H91475   5.867   6.285   3.931 -1.3834 -2.3024 -0.9366
  678MOL0     H91476   5.751   6.277   3.793 -2.8701  1.2101 -0.6419
  678MOL0     H91477   5.904   6.538   3.873 -3.3731  1.4401  1.0073
  678MOL0     H91478   5.814   6.507   3.721  0.8761 -1.0297 -1.5802
  678MOL0     H91479   6.062   6.354   3.813 -0.4740 -0.2058  1.4254
  678MOL0     H91480   5.974   6.326   3.672  5.2609 -0.3220 -1.8746
  678MOL0     H91481   6.171   6.402   3.528  1.2214 -1.5114  1.9274
  678MOL0     H91482   6.389   6.726   3.538  0.5630 -0.8305  2.7955
  678MOL0     H91483   6.420   6.545   3.529  0.0260  0.0208 -0.0776
  678MOL0     H91484   6.295   6.520   3.323  1.4189 -0.4898 -2.4784
  678MOL0     H91485   6.247   6.688   3.335 -0.5033 -0.9816 -0.8020
  678MOL0     H91486   6.537   6.592   3.318 -1.3352 -0.2085 -1.3392
  678MOL0     H91487   6.497   6.763   3.311 -0.1114 -0.1972  3.4306
  678MOL0     H91488   6.346   6.723   3.119 -1.0089 -1.9538 -3.0337
  678MOL0     H91489   6.404   6.558   3.111  1.4377 -0.9664  1.0713
  678MOL0     H91490   6.799   6.706   3.002 -2.9495  1.4675 -0.7973
  678MOL0     H91491   6.937   6.538   2.876  1.0987  0.5300 -0.9095
  678MOL0     H91492   7.026   6.000   2.735 -0.7138 -0.4025  0.3158
  678MOL0     H91493   7.150   5.948   2.506  0.7355  0.5783 -1.8635
  678MOL0     H91494   6.936   5.854   2.203 -0.2811  0.1606  1.8801
  678MOL0     H91495   6.901   6.013   2.149 -0.5860 -1.5217 -3.4020
  678MOL0     H91496   7.093   6.034   2.015 -0.4928 -0.6199 -4.4872
  678MOL0     H91497   7.164   5.873   2.075 -0.6118  0.1842  2.4038
  678MOL0     H91498   6.993   5.746   1.964  1.2475 -0.5065 -1.0470
  678MOL0     H91499   6.906   5.893   1.905 -0.4088 -0.1722 -2.6493
  678MOL0     H91500   7.165   5.768   1.829 -0.6650 -1.0303  0.4205
  678MOL0     H91501   7.130   5.937   1.776 -1.7972 -0.1347 -0.6213
  678MOL0     H91502   6.922   5.837   1.665  1.6396  3.8386  2.7828
  678MOL0     H91503   6.969   5.683   1.729 -2.0769 -1.1279 -2.7829
  678MOL0     H91504   7.175   5.696   1.573  0.7387 -0.0513 -1.6613
  678MOL0     H91505   7.020   5.702   1.483 -0.1199 -0.5313  0.4765
  678MOL0     H91506   7.179   5.855   1.401  0.1121  1.9086 -0.5256
  678MOL0     H91507   7.208   5.931   1.566  1.6027 -1.7571 -0.5925
  678MOL0     H91508   6.952   5.935   1.407  1.1321 -1.4042 -0.7368
  678MOL0     H91509   6.991   6.013   1.564 -1.2526 -5.6035  1.8120
  678MOL0     H91510   6.837   6.140   2.312  1.3013  0.1443 -1.6169
  678MOL0     H91511   6.765   6.252   2.509 -0.0754  0.6960 -2.8021
  678MOL0     H91512   6.618   6.263   2.870 -0.2796  0.4907  0.3154
  678MOL0     H91513   6.463   6.444   2.953  0.0787 -1.6713  1.4609
  678MOL0     H91514   5.165   6.418   4.410  1.2734 -1.2207 -2.1909
  678MOL0     H91515   4.953   6.427   4.537 -1.9713 -2.3215  0.3490
  678MOL0     H91516   4.524   6.398   4.544 -2.2373 -1.5428 -1.8917
  678MOL0     H91517   4.308   6.392   4.636  0.8394 -1.1010  0.5800
  678MOL0     H91518   4.077   6.460   4.470  0.6164  0.5804  0.4856
  678MOL0     H91519   3.985   6.602   4.467  2.5061 -0.5901 -1.8072
  678MOL0     H91520   3.850   6.533   4.661  0.8375 -0.8791  1.7472
  678MOL0     H91521   3.930   6.385   4.662  0.0380  0.9156  0.7018
  678MOL0     H91522   3.851   6.416   4.380  0.6971 -0.4377 -0.0615
  678MOL0     H91523   3.740   6.519   4.467  1.3052  0.7220  0.1924
  678MOL0     H91524   3.766   6.224   4.479  1.2457  1.3472 -3.3338
  678MOL0     H91525   3.680   6.320   4.604 -0.3155  0.2297 -0.2606
  678MOL0     H91526   3.397   6.332   4.290  1.5057 -1.0269 -2.5180
  678MOL0     H91527   4.214   6.782   4.478 -1.4502 -0.5737 -0.6379
  678MOL0     H91528   4.509   6.855   4.317  2.6851  0.7020  1.7599
  678MOL0     H91529   4.363   6.903   4.398 -0.5168 -0.2544 -0.3311
  678MOL0     H91530   4.519   6.915   4.488  0.2039 -0.2972  1.5197
  679MOL0     O91531   5.451   8.534   8.858  0.1605  0.2402 -0.5171
  679MOL0     C91532   5.334   8.490   8.864 -0.9774  0.2342 -0.2602
  679MOL0     O91533   5.273   8.425   8.762 -0.1619 -0.1860  0.1978
  679MOL0     C91534   5.345   8.381   8.656  0.3127  0.0603  0.0391
  679MOL0     C91535   5.358   8.248   8.628 -0.1894  0.1612  0.3290
  679MOL0     C91536   5.432   8.210   8.516 -0.9232 -0.2377  0.6835
  679MOL0     C91537   5.495   8.301   8.421 -0.2356  0.3944 -0.5430
  679MOL0     O91538   5.563   8.254   8.310  0.0044  0.0422  0.1222
  679MOL0     C91539   5.617   8.339   8.220 -0.0067  0.0772  0.2020
  679MOL0     C91540   5.635   8.266   8.093 -0.2939  0.5456  0.0567
  679MOL0     C91541   5.758   8.166   8.101 -0.1745  0.2111 -0.0594
  679MOL0     C91542   5.828   8.149   7.958  0.5107  0.1825  0.2443
  679MOL0     C91543   5.970   8.106   7.969 -0.4238  0.2608  0.2031
  679MOL0     C91544   6.037   8.092   7.833  0.0485  0.5343  0.0052
  679MOL0     C91545   6.179   8.031   7.847 -0.0688  0.2047 -0.3709
  679MOL0     C91546   6.291   8.082   7.931  0.8635  0.4249  0.4721
  679MOL0     N91547   6.422   8.014   7.909 -0.4909 -0.2820  0.6364
  679MOL0     C91548   6.510   8.038   7.805  0.5072  0.4080 -0.3575
  679MOL0     C91549   6.602   7.938   7.819  0.7608  0.6384 -0.2133
  679MOL0     C91550   6.722   7.925   7.732 -0.6298  0.2737  0.2905
  679MOL0     C91551   6.795   8.057   7.703  0.4139 -0.1349 -0.4185
  679MOL0     C91552   6.882   8.046   7.574  0.0106  0.4709 -0.2510
  679MOL0     C91553   7.014   7.985   7.606 -0.0382 -0.7547 -0.0106
  679MOL0     O91554   7.096   8.093   7.670 -0.2615 -0.5195 -0.1193
  679MOL0     C91555   7.224   8.052   7.705  0.6985  0.1067 -0.3206
  679MOL0     C91556   7.270   7.922   7.709 -0.1235  0.6694  1.3927
  679MOL0     C91557   7.401   7.896   7.753 -0.0410  0.3088 -0.2561
  679MOL0     C91558   7.491   8.003   7.791  0.1528 -0.2290 -0.4931
  679MOL0     C91559   7.622   7.976   7.851  0.4865 -0.7116  1.0127
  679MOL0     O91560   7.651   7.842   7.866  0.2323  1.0417 -0.2082
  679MOL0     C91561   7.766   7.802   7.931  0.3844 -0.2757  0.2965
  679MOL0     C91562   7.829   7.691   7.876  0.5621  0.4789  0.2064
  679MOL0     C91563   7.936   7.629   7.944  0.8345  0.3564  0.1099
  679MOL0     C91564   7.976   7.676   8.065 -0.4522  0.2585 -0.4758
  679MOL0     O91565   8.082   7.627   8.143 -0.3467 -0.2459  0.2163
  679MOL0     C91566   8.191   7.547   8.090 -0.4848  0.3010 -0.2631
  679MOL0     C91567   8.283   7.637   8.009  0.2831 -0.5940 -0.1645
  679MOL0     C91568   8.414   7.566   7.972  0.4594  0.2754 -0.0779
  679MOL0     C91569   8.471   7.646   7.860  0.6616  0.9365 -0.2974
  679MOL0     C91570   8.621   7.642   7.868  0.3898  0.0727 -0.7925
  679MOL0     C91571   8.677   7.755   7.785  0.5160  1.3309 -0.1230
  679MOL0     C91572   8.821   7.730   7.746 -0.1516  0.2500  0.8295
  679MOL0     C91573   8.918   7.768   7.867  0.9163  1.1080 -0.2735
  679MOL0    Cl91574   9.092   7.771   7.817  0.3104  0.0255  0.1879
  679MOL0     C91575   7.909   7.789   8.118 -0.0750 -0.0184  0.7841
  679MOL0     C91576   7.813   7.857   8.054 -0.7689  0.6655  0.1920
  679MOL0     O91577   7.695   8.076   7.877  0.2159  0.4802 -0.3814
  679MOL0     C91578   7.440   8.126   7.792  0.2211 -0.1426  0.3033
  679MOL0     C91579   7.313   8.149   7.746 -0.7416  0.0335 -0.2089
  679MOL0     N91580   6.578   7.864   7.925  0.0086 -0.2499 -0.6311
  679MOL0     N91581   6.473   7.916   7.982  0.5466  0.0836 -0.3821
  679MOL0     C91582   5.486   8.436   8.461 -0.2646 -0.5355 -0.8165
  679MOL0     C91583   5.413   8.478   8.577  0.3368 -0.2489  1.2351
  679MOL0     C91584   5.237   8.536   8.970 -0.2061 -0.2880 -0.1378
  679MOL0     C91585   5.100   8.534   8.944 -0.7019  0.8519  0.0938
  679MOL0     C91586   5.009   8.589   9.036  0.2963  0.2417 -0.8186
  679MOL0     C91587   5.048   8.665   9.151  0.4218 -0.5099 -0.2738
  679MOL0     O91588   4.965   8.733   9.230  0.4398  0.2665 -0.5430
  679MOL0     C91589   4.839   8.774   9.179 -0.2291 -0.4494  0.8915
  679MOL0     C91590   4.759   8.845   9.288  0.8445  0.2169  1.0365
  679MOL0     C91591   4.792   8.996   9.298  0.1257  0.7998 -0.9190
  679MOL0     C91592   4.940   9.036   9.313  0.0853 -0.4965  1.0246
  679MOL0     C91593   4.989   9.038   9.452  0.1020 -0.3001  0.3212
  679MOL0     C91594   5.035   9.018   9.565  0.0545 -0.6033 -0.6633
  679MOL0     C91595   5.181   8.655   9.187 -0.7144  0.9526 -0.8967
  679MOL0     C91596   5.280   8.590   9.101  1.2416  0.1148  0.8601
  679MOL0     C91597   5.417   8.593   9.148 -0.5113 -0.2819  0.8254
  679MOL0     H91598   5.312   8.178   8.697  0.1176  1.6535  2.1107
  679MOL0     H91599   5.438   8.102   8.506 -0.3940 -0.2889  1.5130
  679MOL0     H91600   5.544   8.420   8.204  0.3635  0.2490 -0.6783
  679MOL0     H91601   5.712   8.370   8.263  0.3499 -1.8172  0.8527
  679MOL0     H91602   5.660   8.340   8.017  0.0436  0.1253 -0.2524
  679MOL0     H91603   5.544   8.209   8.073  1.6396 -2.3382 -1.3503
  679MOL0     H91604   5.720   8.069   8.135  0.9272  0.1659  1.0984
  679MOL0     H91605   5.832   8.186   8.178  1.9098  0.5480 -2.0467
  679MOL0     H91606   5.767   8.085   7.894  0.7254  4.3216 -4.7692
  679MOL0     H91607   5.833   8.247   7.910  1.8655 -1.0942 -2.4684
  679MOL0     H91608   6.017   8.188   8.026 -1.5473  1.1901 -0.1786
  679MOL0     H91609   5.987   8.018   8.031 -0.2229  0.3712  0.3087
  679MOL0     H91610   5.981   8.015   7.780  1.5352  1.5817 -3.3178
  679MOL0     H91611   6.029   8.183   7.773 -0.1881 -1.0519 -2.5107
  679MOL0     H91612   6.214   8.019   7.744  0.5115  0.5511 -0.2143
  679MOL0     H91613   6.155   7.927   7.872 -4.1520  1.2116  0.6675
  679MOL0     H91614   6.293   8.191   7.920 -0.0092  0.6186  1.9457
  679MOL0     H91615   6.265   8.063   8.035 -1.5011  1.1024  0.0597
  679MOL0     H91616   6.509   8.114   7.728 -2.3934  0.7059 -0.1362
  679MOL0     H91617   6.796   7.866   7.786 -0.8783 -1.7401 -1.4392
  679MOL0     H91618   6.699   7.873   7.639  0.4841  0.6267 -0.1946
  679MOL0     H91619   6.737   8.150   7.705 -0.3848 -0.4838 -3.1753
  679MOL0     H91620   6.855   8.070   7.793 -0.3957 -0.9422  0.2583
  679MOL0     H91621   6.896   8.147   7.535  0.6813  0.3654 -0.2818
  679MOL0     H91622   6.839   7.981   7.497  2.9290 -0.4383 -1.2607
  679MOL0     H91623   7.067   7.952   7.516 -2.2953  0.7546 -1.9895
  679MOL0     H91624   6.993   7.897   7.669 -0.2879 -0.6277  0.0827
  679MOL0     H91625   7.201   7.839   7.703  2.9666 -2.4280  4.0430
  679MOL0     H91626   7.429   7.791   7.761  2.1549  0.4101 -3.9966
  679MOL0     H91627   7.791   7.664   7.779 -0.8114 -2.2198  1.3916
  679MOL0     H91628   7.980   7.544   7.892 -0.6814  0.8575 -2.1864
  679MOL0     H91629   8.245   7.511   8.179 -1.7779 -1.6583 -0.2052
  679MOL0     H91630   8.163   7.448   8.051 -0.3019 -0.1659  0.7502
  679MOL0     H91631   8.235   7.670   7.916 -1.4073  0.4041  1.0037
  679MOL0     H91632   8.303   7.723   8.073  3.4708 -1.5408  0.2920
  679MOL0     H91633   8.479   7.573   8.060 -0.0018 -0.5721  0.3361
  679MOL0     H91634   8.393   7.462   7.947 -0.0670  0.5936 -1.0113
  679MOL0     H91635   8.442   7.751   7.868 -3.2100  0.0857 -1.1831
  679MOL0     H91636   8.424   7.612   7.767 -0.7446 -2.8199  1.5640
  679MOL0     H91637   8.650   7.543   7.830  1.0053  0.2544 -0.8047
  679MOL0     H91638   8.656   7.651   7.971  0.5352 -2.6557 -0.5363
  679MOL0     H91639   8.616   7.744   7.695 -2.8579 -3.6391  2.2913
  679MOL0     H91640   8.658   7.855   7.825  0.1468  1.8713 -1.5895
  679MOL0     H91641   8.840   7.781   7.651 -0.2122 -3.4879 -1.4209
  679MOL0     H91642   8.832   7.623   7.723  1.9485 -0.0284  2.7895
  679MOL0     H91643   8.885   7.866   7.904 -1.3886 -0.0664  1.0038
  679MOL0     H91644   8.901   7.694   7.945 -0.7954  0.9988 -0.7035
  679MOL0     H91645   7.947   7.821   8.214 -0.1715  0.0976  0.7837
  679MOL0     H91646   7.764   7.944   8.096  0.4639  0.9846  1.0352
  679MOL0     H91647   7.499   8.212   7.821 -0.0626  0.3659 -0.5731
  679MOL0     H91648   7.275   8.250   7.751 -1.8891 -0.4188  0.7063
  679MOL0     H91649   5.541   8.513   8.408  0.7951  1.0485  2.3567
  679MOL0     H91650   5.409   8.581   8.611  0.5390 -0.0968  0.8031
  679MOL0     H91651   5.068   8.499   8.846  0.2894  0.0964  0.0207
  679MOL0     H91652   4.908   8.599   8.998 -0.6615 -3.5694  0.2625
  679MOL0     H91653   4.795   8.676   9.159 -1.0223  0.0128  0.3108
  679MOL0     H91654   4.834   8.825   9.082  3.1476 -0.0012  0.8245
  679MOL0     H91655   4.780   8.789   9.379  2.4338  1.9138  1.7823
  679MOL0     H91656   4.653   8.836   9.262  1.2712 -3.1613  0.0514
  679MOL0     H91657   4.732   9.044   9.376  0.3466 -0.9983  0.4272
  679MOL0     H91658   4.742   9.034   9.208 -1.5111  3.5588  0.9830
  679MOL0     H91659   5.007   8.967   9.260 -0.6775 -1.2538  1.0259
  679MOL0     H91660   4.956   9.134   9.267 -3.5965  0.7809  2.1662
  679MOL0     H91661   5.070   8.989   9.662 -3.1769 -2.1665  0.1564
  679MOL0     H91662   5.216   8.699   9.280  0.2324 -2.3964  0.4757
  679MOL0     H91663   5.479   8.517   9.099  0.8166  1.8247 -0.9967
  679MOL0     H91664   5.460   8.690   9.121 -3.3475  0.8971  0.2535
  679MOL0     H91665   5.425   8.579   9.256 -3.6305  0.0095  1.1688
  680MOL0     O91666   9.054   1.716   8.081  0.6711 -0.0013 -0.2816
  680MOL0     C91667   9.073   1.592   8.084  0.7238  0.1386  1.1149
  680MOL0     O91668   9.195   1.533   8.098  0.4520  0.3229  0.7390
  680MOL0     C91669   9.307   1.573   8.167 -0.2788 -0.1468  0.4227
  680MOL0     C91670   9.424   1.499   8.152 -0.8291 -0.6220 -0.1341
  680MOL0     C91671   9.531   1.528   8.233 -0.6637 -0.5100  0.2782
  680MOL0     C91672   9.526   1.627   8.334 -0.8135  0.1637  0.0949
  680MOL0     O91673   9.641   1.658   8.396 -0.3611  0.3243  0.2236
  680MOL0     C91674   9.636   1.703   8.528 -0.3673 -0.4734  0.1833
  680MOL0     C91675   9.773   1.766   8.561  0.2914 -0.4435  0.2356
  680MOL0     C91676   9.857   1.672   8.653 -0.6521 -0.1854 -0.1589
  680MOL0     C91677   9.887   1.529   8.602 -0.0186 -0.5398 -0.3830
  680MOL0     C91678   9.966   1.542   8.458  0.0905 -0.3697 -0.6305
  680MOL0     C91679  10.117   1.571   8.487  0.7077 -0.3445 -0.2433
  680MOL0     C91680  10.181   1.637   8.360 -0.2651  0.4045 -0.1396
  680MOL0     C91681  10.333   1.639   8.372 -0.2261  0.7086 -0.1858
  680MOL0     N91682  10.413   1.688   8.260 -0.1375 -1.0751  0.6594
  680MOL0     C91683  10.546   1.652   8.234  0.4459 -0.6051 -0.8876
  680MOL0     C91684  10.571   1.707   8.113 -0.0733 -0.0601  0.0743
  680MOL0     C91685  10.709   1.710   8.047 -1.5310 -0.3025  0.2754
  680MOL0     C91686  10.771   1.571   8.043 -0.1793  0.2946 -0.1428
  680MOL0     C91687  10.876   1.562   7.932 -0.9651 -0.4805 -0.3465
  680MOL0     C91688  11.000   1.643   7.967  0.2728 -0.3248  0.0621
  680MOL0     O91689  11.122   1.581   7.933 -0.5605  0.2272 -0.3632
  680MOL0     C91690  11.210   1.555   8.033  0.3028  0.4865  0.0485
  680MOL0     C91691  11.179   1.505   8.163 -0.0376  1.0764  0.0117
  680MOL0     C91692  11.272   1.492   8.260  0.4139 -0.0154  0.6974
  680MOL0     C91693  11.402   1.525   8.232 -0.6495 -1.0373 -0.1620
  680MOL0     C91694  11.506   1.505   8.341 -1.4362 -0.1718  0.0052
  680MOL0     O91695  11.630   1.532   8.300 -0.2244  0.1892 -0.8706
  680MOL0     C91696  11.733   1.520   8.397 -0.5395  0.3965 -0.0265
  680MOL0     C91697  11.715   1.531   8.537 -0.2303 -0.2348 -0.3138
  680MOL0     C91698  11.825   1.551   8.620 -0.3018  0.3918  0.0951
  680MOL0     C91699  11.948   1.547   8.568 -0.6074  0.2609  0.2780
  680MOL0     O91700  12.059   1.549   8.655  0.2578  0.6963  0.2086
  680MOL0     C91701  12.191   1.572   8.606 -0.0790  0.1392  0.0473
  680MOL0     C91702  12.282   1.565   8.729 -0.4459  1.1493 -0.6026
  680MOL0     C91703  12.428   1.591   8.687 -0.2262  0.2305  0.8576
  680MOL0     C91704  12.543   1.514   8.752  1.0250 -0.2302 -0.0498
  680MOL0     C91705  12.677   1.581   8.735 -0.3130  0.1375  0.3890
  680MOL0     C91706  12.806   1.505   8.769  0.3761  0.3302  0.2696
  680MOL0     C91707  12.934   1.588   8.768  0.2287 -0.0432  0.2914
  680MOL0     C91708  13.051   1.521   8.837 -0.4224 -0.3658 -0.3188
  680MOL0    Cl91709  13.085   1.359   8.766 -0.4021  0.0649 -0.1044
  680MOL0     C91710  11.972   1.524   8.427  0.1267  0.3670 -0.3098
  680MOL0     C91711  11.860   1.522   8.342 -0.2835  0.0535  0.1852
  680MOL0     O91712  11.472   1.452   8.445  0.1746 -0.2319 -0.0932
  680MOL0     C91713  11.439   1.570   8.107  0.5933 -1.0891  0.2763
  680MOL0     C91714  11.340   1.589   8.007  0.3420  0.4992 -0.3906
  680MOL0     N91715  10.457   1.773   8.059 -0.3325  0.7063 -0.4000
  680MOL0     N91716  10.368   1.754   8.149 -0.3440 -0.3253 -0.2690
  680MOL0     C91717   9.410   1.706   8.347  0.1707  0.4460  0.0844
  680MOL0     C91718   9.303   1.682   8.251 -0.3364 -0.3705 -0.2577
  680MOL0     C91719   8.965   1.505   8.049  0.4109  0.2213 -0.2316
  680MOL0     C91720   8.978   1.417   7.940  0.2516 -0.1196  1.0101
  680MOL0     C91721   8.883   1.318   7.921 -0.1395 -0.2813 -0.2052
  680MOL0     C91722   8.769   1.320   8.002 -0.7295 -0.4515 -0.0006
  680MOL0     O91723   8.673   1.221   7.987  0.3388  0.2810 -0.1149
  680MOL0     C91724   8.531   1.274   7.963  0.1634  0.2200 -0.3646
  680MOL0     C91725   8.434   1.166   7.946  0.6299 -0.7081  0.5234
  680MOL0     C91726   8.444   1.063   8.059 -0.1347 -0.2325  0.5127
  680MOL0     C91727   8.311   0.987   8.066 -1.1917 -0.1259  0.5475
  680MOL0     C91728   8.270   0.920   7.943  0.7498 -0.3934  0.1822
  680MOL0     C91729   8.244   0.867   7.838 -0.9059  0.0079 -0.3439
  680MOL0     C91730   8.751   1.423   8.092  0.2798  0.3429 -0.4853
  680MOL0     C91731   8.841   1.520   8.107  0.3514 -0.3457  0.3906
  680MOL0     C91732   8.824   1.617   8.220  0.1125  0.6721 -0.0123
  680MOL0     H91733   9.417   1.423   8.075  0.8287  0.0004 -0.9430
  680MOL0     H91734   9.622   1.478   8.205 -1.2400 -2.8724  2.2265
  680MOL0     H91735   9.556   1.776   8.546  2.1356  2.6077 -0.1045
  680MOL0     H91736   9.617   1.620   8.596 -1.0824 -0.5244 -0.0641
  680MOL0     H91737   9.761   1.860   8.617 -1.5107  1.7058 -3.3570
  680MOL0     H91738   9.823   1.799   8.469  0.3888 -0.4147  0.2982
  680MOL0     H91739   9.815   1.653   8.752  0.0865 -0.4112  0.1203
  680MOL0     H91740   9.954   1.720   8.670  0.4735 -1.5658 -2.1466
  680MOL0     H91741   9.963   1.495   8.673  1.3508  0.8989 -1.0791
  680MOL0     H91742   9.802   1.461   8.604 -2.1344  1.9102  2.5869
  680MOL0     H91743   9.953   1.442   8.416 -1.2590 -0.1203 -0.8794
  680MOL0     H91744   9.924   1.623   8.397 -0.4530 -0.5229 -0.4646
  680MOL0     H91745  10.143   1.634   8.573  0.7220  2.4747 -2.2017
  680MOL0     H91746  10.151   1.470   8.512  2.1655  0.1650 -0.0725
  680MOL0     H91747  10.142   1.738   8.347 -0.9691  0.1451 -0.0859
  680MOL0     H91748  10.148   1.575   8.277 -2.2000 -0.3628  1.1305
  680MOL0     H91749  10.347   1.704   8.459  1.3661  0.2948 -0.1067
  680MOL0     H91750  10.366   1.538   8.399 -1.7209  0.6007  1.4179
  680MOL0     H91751  10.605   1.586   8.297 -0.5711 -2.7868 -2.1310
  680MOL0     H91752  10.702   1.749   7.945  1.2570 -0.6209 -0.0931
  680MOL0     H91753  10.775   1.768   8.112  1.1522 -1.9254 -0.8490
  680MOL0     H91754  10.811   1.561   8.145 -2.2801 -0.9409  0.6405
  680MOL0     H91755  10.694   1.496   8.022  0.1062  0.5313 -2.1528
  680MOL0     H91756  10.842   1.603   7.836  3.5644  1.0936 -1.5406
  680MOL0     H91757  10.904   1.460   7.902 -0.0584 -1.0149  2.1024
  680MOL0     H91758  10.999   1.653   8.076 -1.3783 -6.2468  0.9403
  680MOL0     H91759  10.984   1.744   7.928 -1.3640  0.4687  2.5501
  680MOL0     H91760  11.076   1.483   8.185 -0.0417 -1.5827 -2.1164
  680MOL0     H91761  11.240   1.465   8.360 -0.1143 -1.7997  0.0763
  680MOL0     H91762  11.620   1.553   8.585 -0.9625 -3.0927 -0.2796
  680MOL0     H91763  11.820   1.559   8.728  0.9326  0.7640  0.1359
  680MOL0     H91764  12.229   1.504   8.530  2.3841  1.3388  0.1107
  680MOL0     H91765  12.198   1.672   8.564  0.6994  0.1056  0.0875
  680MOL0     H91766  12.261   1.632   8.813 -1.2189 -1.9774  1.8892
  680MOL0     H91767  12.285   1.464   8.770  0.1650  0.6838 -1.7568
  680MOL0     H91768  12.434   1.568   8.580 -0.5641 -1.3523  1.1543
  680MOL0     H91769  12.451   1.697   8.697 -0.4677  0.5839 -1.6021
  680MOL0     H91770  12.536   1.414   8.709  0.3764  0.7458 -2.4339
  680MOL0     H91771  12.523   1.502   8.859  0.6769  2.3154  0.2515
  680MOL0     H91772  12.673   1.669   8.800  1.9112 -1.6660  3.2482
  680MOL0     H91773  12.692   1.615   8.632 -0.6233 -1.6704 -0.2847
  680MOL0     H91774  12.786   1.441   8.856 -2.9413  0.3913 -0.2996
  680MOL0     H91775  12.822   1.435   8.687  1.1597 -1.2498  1.7007
  680MOL0     H91776  12.923   1.685   8.817 -1.2197  0.5180 -1.0452
  680MOL0     H91777  12.966   1.601   8.664  0.7216 -0.8391  0.3352
  680MOL0     H91778  13.145   1.576   8.851  1.9629 -4.3933  1.2243
  680MOL0     H91779  13.019   1.499   8.939 -0.6145 -0.7075 -0.4529
  680MOL0     H91780  12.064   1.506   8.372 -0.5561 -0.0254 -1.3595
  680MOL0     H91781  11.872   1.499   8.236 -0.8121 -1.6537  0.4645
  680MOL0     H91782  11.535   1.598   8.064 -1.7104  1.9773 -3.5054
  680MOL0     H91783  11.361   1.635   7.912 -1.6171  1.9737 -0.1689
  680MOL0     H91784   9.403   1.787   8.419  0.0926  1.5541 -1.1165
  680MOL0     H91785   9.210   1.738   8.256 -0.4131 -0.2714 -2.0892
  680MOL0     H91786   9.072   1.423   7.886  0.8125 -2.8939  1.5477
  680MOL0     H91787   8.892   1.237   7.848  0.3461 -1.7610  1.4336
  680MOL0     H91788   8.527   1.338   7.875  1.4086 -0.1524 -0.7055
  680MOL0     H91789   8.497   1.324   8.055  1.1389 -2.0603  1.3403
  680MOL0     H91790   8.461   1.122   7.850 -0.1953 -0.7366  0.2969
  680MOL0     H91791   8.333   1.208   7.952  2.2913  3.6811  1.4182
  680MOL0     H91792   8.461   1.120   8.151  4.0294  0.6301 -0.5821
  680MOL0     H91793   8.533   1.001   8.045 -0.9170 -1.6121  1.3520
  680MOL0     H91794   8.313   0.905   8.138 -0.2753  0.3372  1.0645
  680MOL0     H91795   8.232   1.056   8.098 -2.6658 -1.2065 -0.6065
  680MOL0     H91796   8.219   0.834   7.739  0.9830 -1.7978 -0.2760
  680MOL0     H91797   8.670   1.418   8.164  0.9614  1.6499  0.3959
  680MOL0     H91798   8.831   1.715   8.172 -0.3677  0.3944 -0.6588
  680MOL0     H91799   8.725   1.610   8.266 -0.2613  1.2231 -0.7112
  680MOL0     H91800   8.901   1.601   8.296  0.1402  0.9940  0.0319
  681MOL0     O91801   5.977   7.045   5.875 -0.4278 -0.2017  0.1235
  681MOL0     C91802   5.860   7.022   5.847  0.0855 -0.3492  0.6305
  681MOL0     O91803   5.805   7.044   5.719 -0.1951 -0.3951 -0.2066
  681MOL0     C91804   5.854   7.136   5.636 -0.3474 -0.3083  0.3538
  681MOL0     C91805   5.938   7.097   5.527 -0.8341  0.2287  0.3509
  681MOL0     C91806   6.018   7.190   5.458  0.6014 -0.2248  0.7078
  681MOL0     C91807   5.993   7.327   5.481 -0.4766  0.6857  0.7419
  681MOL0     O91808   6.057   7.425   5.405  0.8483  0.1283  0.7728
  681MOL0     C91809   6.156   7.399   5.302  0.2902 -0.4507 -0.3100
  681MOL0     C91810   6.296   7.394   5.368  0.1943  0.7883  0.2318
  681MOL0     C91811   6.333   7.538   5.402 -0.1591 -0.2124  0.1472
  681MOL0     C91812   6.475   7.563   5.452 -0.0334 -0.2624 -0.0782
  681MOL0     C91813   6.578   7.600   5.351 -0.2390  0.1653  0.0767
  681MOL0     C91814   6.681   7.691   5.422 -0.4224 -0.5832  0.1306
  681MOL0     C91815   6.798   7.721   5.328 -0.1889 -0.5148 -0.5451
  681MOL0     C91816   6.761   7.840   5.240  0.1254  0.3091  0.5132
  681MOL0     N91817   6.869   7.881   5.146  1.0187  0.1057 -0.1175
  681MOL0     C91818   6.849   7.928   5.014  0.0157  0.2668  0.6944
  681MOL0     C91819   6.957   8.005   4.991 -0.0715  0.5911 -0.2796
  681MOL0     C91820   6.970   8.072   4.854 -0.3206 -0.5256  0.2609
  681MOL0     C91821   7.036   7.979   4.750 -0.2302  0.2622 -0.2941
  681MOL0     C91822   7.185   7.981   4.779  0.0504 -0.2102  0.0473
  681MOL0     C91823   7.269   7.892   4.691 -0.7361 -0.2516 -0.3457
  681MOL0     O91824   7.406   7.911   4.732  0.9527  0.5645  0.0621
  681MOL0     C91825   7.508   7.850   4.660  0.6994 -0.3224 -0.6849
  681MOL0     C91826   7.631   7.826   4.720 -0.4719 -0.4338  0.2237
  681MOL0     C91827   7.738   7.772   4.654 -0.1923  0.4847  0.1960
  681MOL0     C91828   7.725   7.735   4.513  0.0181 -0.1944 -0.3281
  681MOL0     C91829   7.833   7.671   4.441  0.5109 -0.6859  0.5877
  681MOL0     O91830   7.822   7.650   4.304  0.2546 -0.4055  0.2989
  681MOL0     C91831   7.934   7.607   4.246 -0.0675 -0.3589  0.4585
  681MOL0     C91832   7.965   7.469   4.252  0.2203  0.4599  0.2827
  681MOL0     C91833   8.074   7.418   4.185 -0.1132  0.1937 -0.2587
  681MOL0     C91834   8.164   7.504   4.114  0.2324 -0.2712  0.3292
  681MOL0     O91835   8.270   7.447   4.050  0.1253  1.4301  0.4595
  681MOL0     C91836   8.286   7.297   4.035 -1.0889 -0.4591  0.3811
  681MOL0     C91837   8.379   7.262   3.932 -1.8245 -0.1315  0.2158
  681MOL0     C91838   8.523   7.285   3.976  0.4127  0.0744  0.0597
  681MOL0     C91839   8.616   7.202   3.892  0.3745 -0.5407  0.6389
  681MOL0     C91840   8.753   7.283   3.894  0.4965 -0.5976 -0.3882
  681MOL0     C91841   8.864   7.194   3.837  0.7160  0.6277  1.0515
  681MOL0     C91842   8.858   7.207   3.680 -0.7117  0.1504  0.0680
  681MOL0     C91843   8.986   7.169   3.600  0.5303  1.1093  0.1047
  681MOL0    Cl91844   9.117   7.265   3.679 -0.2393 -0.0809  0.1001
  681MOL0     C91845   8.135   7.647   4.103 -0.0228 -0.1160 -0.2576
  681MOL0     C91846   8.024   7.696   4.180 -0.5452  0.2637 -0.7495
  681MOL0     O91847   7.926   7.630   4.513  0.2023 -0.8434 -0.4891
  681MOL0     C91848   7.599   7.759   4.450 -0.6084  0.6842 -1.3625
  681MOL0     C91849   7.491   7.804   4.526  0.2572 -0.2583 -0.0961
  681MOL0     N91850   7.029   8.026   5.105  0.2917  0.3560 -0.0012
  681MOL0     N91851   6.984   7.944   5.194  0.6914 -0.0602  0.4781
  681MOL0     C91852   5.894   7.365   5.565 -0.5977 -0.6017 -0.0008
  681MOL0     C91853   5.822   7.273   5.640  0.0868 -0.7007 -0.6208
  681MOL0     C91854   5.774   6.965   5.952  0.7257 -0.2918 -0.4161
  681MOL0     C91855   5.679   6.862   5.911 -0.4467  0.5578  0.5084
  681MOL0     C91856   5.599   6.792   6.005  0.6680 -0.3367 -1.0132
  681MOL0     C91857   5.615   6.834   6.135 -0.1781  0.8006 -0.3846
  681MOL0     O91858   5.522   6.781   6.224 -0.4861  0.2244  0.0742
  681MOL0     C91859   5.561   6.788   6.364  0.8871  0.2349 -0.1759
  681MOL0     C91860   5.477   6.685   6.435  0.3461 -0.1487 -0.3016
  681MOL0     C91861   5.331   6.703   6.446 -0.2838  0.3517  0.0862
  681MOL0     C91862   5.253   6.591   6.510 -0.2806 -0.3964 -0.0182
  681MOL0     C91863   5.108   6.619   6.514 -0.4078  0.5844  1.0884
  681MOL0     C91864   4.985   6.633   6.527 -0.9715  0.2849  0.5524
  681MOL0     C91865   5.702   6.933   6.175  0.8736 -0.0516  0.1296
  681MOL0     C91866   5.787   7.000   6.088 -0.4348 -0.7224 -0.3194
  681MOL0     C91867   5.890   7.101   6.139  0.0964 -0.5996  0.3110
  681MOL0     H91868   5.950   6.989   5.522 -1.6373  0.1542 -0.1695
  681MOL0     H91869   6.076   7.149   5.376  1.2813 -1.0674  1.5855
  681MOL0     H91870   6.134   7.301   5.259 -2.4075 -0.3708  0.6624
  681MOL0     H91871   6.144   7.474   5.223  2.8031 -0.2430 -0.5690
  681MOL0     H91872   6.365   7.358   5.291  1.5047  1.6966  0.9398
  681MOL0     H91873   6.304   7.324   5.452 -0.5819 -0.1929 -0.4799
  681MOL0     H91874   6.262   7.577   5.476 -1.1617 -0.7324 -0.5273
  681MOL0     H91875   6.332   7.592   5.307  1.8549  0.3386  0.3817
  681MOL0     H91876   6.451   7.652   5.512 -6.2686 -0.4493 -1.6117
  681MOL0     H91877   6.508   7.495   5.531 -2.1085 -0.1122  1.0010
  681MOL0     H91878   6.625   7.509   5.313  0.6403 -0.8590  3.3542
  681MOL0     H91879   6.531   7.664   5.275  1.6612  3.5073  1.4912
  681MOL0     H91880   6.629   7.780   5.460  0.3025  0.6329 -1.5963
  681MOL0     H91881   6.725   7.644   5.511  2.3299 -0.3531 -0.9864
  681MOL0     H91882   6.808   7.628   5.271  0.1087 -2.4646  2.4764
  681MOL0     H91883   6.895   7.736   5.377 -0.0221 -0.9375 -0.7338
  681MOL0     H91884   6.682   7.809   5.171  0.9028  0.7085 -0.6013
  681MOL0     H91885   6.719   7.917   5.304 -2.2175 -1.6521  1.4844
  681MOL0     H91886   6.773   7.905   4.941 -0.8876 -0.1296  1.7329
  681MOL0     H91887   6.873   8.099   4.813  0.5231  2.2629 -0.0954
  681MOL0     H91888   7.040   8.155   4.866 -0.0740 -0.8736  1.4297
  681MOL0     H91889   6.982   7.884   4.756  0.7086 -0.2734 -0.1451
  681MOL0     H91890   7.020   8.012   4.647 -0.7656  0.7117 -0.0703
  681MOL0     H91891   7.192   7.958   4.886  1.0885  4.3687  1.1585
  681MOL0     H91892   7.229   8.081   4.776  1.2101 -0.5231  2.9177
  681MOL0     H91893   7.258   7.911   4.584 -0.8861 -2.0958 -0.6743
  681MOL0     H91894   7.229   7.791   4.703 -1.6602 -0.3649 -3.5089
  681MOL0     H91895   7.650   7.872   4.816 -1.0835  2.3080 -0.8525
  681MOL0     H91896   7.836   7.768   4.700 -0.6755  3.5407  1.7623
  681MOL0     H91897   7.881   7.414   4.293  1.6802 -0.7250  1.8058
  681MOL0     H91898   8.082   7.310   4.188  1.3493  0.2962  1.1445
  681MOL0     H91899   8.320   7.263   4.133 -2.0993  2.3710  1.8516
  681MOL0     H91900   8.187   7.259   4.010 -1.5209  1.1872 -0.5924
  681MOL0     H91901   8.376   7.154   3.912  1.4356 -0.5064  1.0722
  681MOL0     H91902   8.367   7.326   3.844  3.1309  3.0178  1.4021
  681MOL0     H91903   8.538   7.392   3.956  0.1290  0.2697  0.8529
  681MOL0     H91904   8.536   7.277   4.084 -0.5367  2.0177  0.3604
  681MOL0     H91905   8.577   7.203   3.790 -1.7303  0.2706  1.4036
  681MOL0     H91906   8.615   7.099   3.929 -3.2666  0.3717  3.6679
  681MOL0     H91907   8.771   7.313   3.997 -0.4708 -0.2100 -0.3253
  681MOL0     H91908   8.748   7.380   3.844  1.1454  1.6433  3.4910
  681MOL0     H91909   8.955   7.238   3.878  1.0793 -0.8335  1.8581
  681MOL0     H91910   8.866   7.090   3.872  1.3326  0.5636  0.8243
  681MOL0     H91911   8.850   7.314   3.657  1.0515  0.0949 -0.9871
  681MOL0     H91912   8.769   7.153   3.644 -0.1839 -0.6369 -0.0925
  681MOL0     H91913   8.995   7.060   3.593  2.0470  1.2757 -0.9899
  681MOL0     H91914   8.984   7.202   3.495 -0.7643  0.5558 -0.0757
  681MOL0     H91915   8.206   7.713   4.054  1.4600 -0.4420  1.3919
  681MOL0     H91916   7.997   7.800   4.165 -0.1565  0.8701  2.1845
  681MOL0     H91917   7.576   7.734   4.347 -1.2722 -0.3827 -0.9804
  681MOL0     H91918   7.397   7.815   4.473  0.9183  0.2795 -1.2065
  681MOL0     H91919   5.878   7.471   5.578  4.7589  0.5763 -0.7906
  681MOL0     H91920   5.743   7.313   5.704  0.7430 -0.4330  0.0482
  681MOL0     H91921   5.665   6.829   5.809 -0.3660  0.4188  0.5421
  681MOL0     H91922   5.530   6.711   5.986 -0.1649  0.4723 -1.5691
  681MOL0     H91923   5.552   6.889   6.404  0.4867  0.1266  0.0121
  681MOL0     H91924   5.667   6.764   6.377  0.8584  1.1098  2.1790
  681MOL0     H91925   5.519   6.681   6.536  0.3858  2.1194 -0.1755
  681MOL0     H91926   5.484   6.585   6.392  1.5672 -0.8592  1.4147
  681MOL0     H91927   5.292   6.724   6.347  0.9014 -2.0414 -0.9742
  681MOL0     H91928   5.313   6.792   6.506 -0.4818 -0.6914  1.6406
  681MOL0     H91929   5.279   6.499   6.457 -0.5366 -0.1217 -0.6331
  681MOL0     H91930   5.289   6.587   6.613  4.4262  1.5536 -1.2998
  681MOL0     H91931   4.879   6.636   6.538 -1.3850  1.5690 -2.5995
  681MOL0     H91932   5.702   6.970   6.277 -1.5411  1.7721 -0.4516
  681MOL0     H91933   5.992   7.063   6.130  0.2375 -0.7739  2.1491
  681MOL0     H91934   5.889   7.192   6.077  0.3081 -1.0699 -0.3897
  681MOL0     H91935   5.880   7.121   6.246  2.0343 -4.1267  1.3128
  682MOL0     O91936   0.872   6.376   5.114 -1.2269  0.5701  0.1782
  682MOL0     C91937   0.788   6.287   5.129 -0.6751 -1.0762  0.5199
  682MOL0     O91938   0.825   6.162   5.176 -0.3097  0.0031 -0.0587
  682MOL0     C91939   0.959   6.123   5.161  0.1733  0.6136  0.0836
  682MOL0     C91940   1.053   6.172   5.061  0.3996 -0.6203  0.0069
  682MOL0     C91941   1.181   6.108   5.055 -0.2468  0.1901  0.0597
  682MOL0     C91942   1.218   5.999   5.133 -0.0847  0.8721  0.3280
  682MOL0     O91943   1.348   5.950   5.126 -0.4475  0.0062 -0.3729
  682MOL0     C91944   1.353   5.849   5.027  0.2437  0.0079  0.7783
  682MOL0     C91945   1.497   5.786   5.029  0.0261  0.0015  0.0372
  682MOL0     C91946   1.609   5.889   4.994  0.9731  0.1286 -0.1584
  682MOL0     C91947   1.738   5.810   4.966 -0.4805 -0.2457 -0.6099
  682MOL0     C91948   1.857   5.901   4.937 -0.0757 -0.0513  0.2654
  682MOL0     C91949   1.982   5.826   4.878  0.3974  0.1509 -0.6829
  682MOL0     C91950   2.112   5.910   4.885 -0.7190  0.1678 -0.7953
  682MOL0     C91951   2.230   5.837   4.814 -0.2459 -0.3685 -0.8866
  682MOL0     N91952   2.358   5.872   4.878  1.1955 -0.1304  0.1235
  682MOL0     C91953   2.392   6.001   4.917  0.5297 -0.1039  0.3711
  682MOL0     C91954   2.518   5.980   4.958 -0.4028 -0.4150  0.2806
  682MOL0     C91955   2.594   6.083   5.043  0.3908 -0.2353 -0.3485
  682MOL0     C91956   2.739   6.044   5.068 -0.3632 -0.1546  0.6045
  682MOL0     C91957   2.809   6.161   5.143  0.0041 -0.0572  0.6028
  682MOL0     C91958   2.950   6.117   5.176  0.5422 -0.3179 -0.4581
  682MOL0     O91959   3.042   6.226   5.212 -0.3157  0.0405  1.0999
  682MOL0     C91960   3.169   6.230   5.152  0.3347 -0.1666 -0.5519
  682MOL0     C91961   3.201   6.162   5.032 -0.2270 -0.4037  0.4387
  682MOL0     C91962   3.325   6.161   4.975  0.2514 -0.1530 -0.3424
  682MOL0     C91963   3.413   6.258   5.029  0.1444  0.7954  0.8665
  682MOL0     C91964   3.553   6.270   4.972 -0.0501 -0.1040  0.8914
  682MOL0     O91965   3.629   6.369   5.017 -0.1418 -0.2202 -0.4583
  682MOL0     C91966   3.759   6.369   4.997  0.1565 -0.5893  0.2535
  682MOL0     C91967   3.822   6.467   4.916 -0.2333 -0.5840 -0.2092
  682MOL0     C91968   3.961   6.488   4.925 -0.5154 -0.9508  0.0198
  682MOL0     C91969   4.045   6.404   4.997  0.2686 -0.1470  0.8762
  682MOL0     O91970   4.174   6.404   5.007 -0.8170  0.0899 -0.7269
  682MOL0     C91971   4.252   6.506   4.944 -0.5415  0.0339  0.1943
  682MOL0     C91972   4.407   6.490   4.931 -0.1326  0.3604  0.3813
  682MOL0     C91973   4.492   6.609   4.891  0.3938 -0.5183 -0.1315
  682MOL0     C91974   4.639   6.571   4.865  0.5908 -0.2253 -0.1687
  682MOL0     C91975   4.718   6.675   4.774 -0.0449 -0.0727 -0.5595
  682MOL0     C91976   4.867   6.625   4.757  0.2330  0.1287 -0.8958
  682MOL0     C91977   4.935   6.719   4.650  0.1997 -0.0947 -0.3205
  682MOL0     C91978   5.085   6.716   4.647  0.1926 -0.1088 -0.6173
  682MOL0    Cl91979   5.139   6.739   4.817  0.0587  0.1789  0.0928
  682MOL0     C91980   3.982   6.304   5.077 -0.1223 -0.7497 -0.0297
  682MOL0     C91981   3.841   6.285   5.074  0.8409  0.1353 -0.0340
  682MOL0     O91982   3.581   6.202   4.873  0.3564  0.2927  0.1668
  682MOL0     C91983   3.383   6.330   5.152  0.4196  0.6952  0.2384
  682MOL0     C91984   3.261   6.314   5.217  0.9193 -0.1484  1.1657
  682MOL0     N91985   2.553   5.850   4.948 -0.4332  0.5474 -0.1258
  682MOL0     N91986   2.457   5.782   4.908  0.6061  0.1550  0.2196
  682MOL0     C91987   1.120   5.954   5.224  0.9478  0.0734  0.3830
  682MOL0     C91988   0.989   6.011   5.239 -0.5402 -0.6145  0.8353
  682MOL0     C91989   0.643   6.321   5.117 -0.0264 -0.1795 -0.8929
  682MOL0     C91990   0.547   6.253   5.200  0.4496 -0.8450 -0.0625
  682MOL0     C91991   0.409   6.283   5.192  1.5755 -0.0456  0.7514
  682MOL0     C91992   0.366   6.385   5.109 -0.1863  0.1778  0.3025
  682MOL0     O91993   0.238   6.433   5.096  0.3372  0.5900 -0.7988
  682MOL0     C91994   0.134   6.348   5.155  0.0660 -0.4718  0.2175
  682MOL0     C91995  -0.004   6.381   5.092  0.5018 -0.4493  0.5796
  682MOL0     C91996  -0.048   6.286   4.978  0.4845  0.0800 -0.4368
  682MOL0     C91997  -0.179   6.332   4.914 -0.5327  0.2843 -1.2234
  682MOL0     C91998  -0.300   6.342   5.005 -0.1172 -0.4946 -0.0964
  682MOL0     C91999  -0.404   6.336   5.062  0.5882 -0.1098 -0.7724
  682MOL0     C92000   0.458   6.451   5.027 -0.1747 -0.7424 -0.0529
  682MOL0     C92001   0.592   6.418   5.024 -0.0737 -0.0313 -0.6512
  682MOL0     C92002   0.686   6.506   4.948 -0.3708 -0.1722 -0.2233
  682MOL0     H92003   1.034   6.244   4.983  1.7950  0.9808  1.0496
  682MOL0     H92004   1.256   6.144   4.984  0.0628  1.5480  1.0194
  682MOL0     H92005   1.273   5.776   5.041 -1.6299  1.8311  0.0699
  682MOL0     H92006   1.340   5.894   4.928  1.5301 -1.0690  0.0862
  682MOL0     H92007   1.504   5.707   4.953 -0.6645 -0.1964  0.1774
  682MOL0     H92008   1.515   5.748   5.129 -0.6736  1.0452  0.5817
  682MOL0     H92009   1.615   5.965   5.073 -2.8384  0.2494  0.2158
  682MOL0     H92010   1.580   5.946   4.905 -0.8862 -1.8303 -0.8770
  682MOL0     H92011   1.766   5.750   5.053  1.2712 -0.8062 -1.5102
  682MOL0     H92012   1.718   5.749   4.878  0.2592 -0.6789 -0.4863
  682MOL0     H92013   1.830   5.979   4.865 -1.0565  1.3494  2.0398
  682MOL0     H92014   1.875   5.946   5.035 -1.1441  1.1570 -0.0634
  682MOL0     H92015   1.992   5.733   4.935  1.3181  0.3323 -0.5363
  682MOL0     H92016   1.947   5.796   4.779 -0.5934  0.4464 -0.4322
  682MOL0     H92017   2.131   5.935   4.990  1.0671 -1.6949 -0.6203
  682MOL0     H92018   2.107   6.002   4.826  0.9986 -0.6210 -2.2249
  682MOL0     H92019   2.209   5.730   4.818  0.3512 -0.4755 -0.4670
  682MOL0     H92020   2.230   5.866   4.708  0.3627 -2.1798 -1.4128
  682MOL0     H92021   2.339   6.096   4.918 -1.6046 -1.2022  1.8238
  682MOL0     H92022   2.578   6.182   5.001 -0.9663  0.4289  1.5635
  682MOL0     H92023   2.544   6.090   5.141  0.3784 -4.0941  0.0723
  682MOL0     H92024   2.748   5.963   5.141 -0.3785 -0.3730  0.3650
  682MOL0     H92025   2.805   6.019   4.984  2.2696  0.0295  2.4865
  682MOL0     H92026   2.754   6.191   5.233 -0.9466  0.6631 -0.1893
  682MOL0     H92027   2.811   6.238   5.064 -0.8773 -1.3620 -0.7424
  682MOL0     H92028   2.985   6.055   5.093 -2.3811 -1.1653 -1.1861
  682MOL0     H92029   2.942   6.044   5.257 -3.5283  1.0415  0.5774
  682MOL0     H92030   3.129   6.095   4.985 -2.4411  0.5658  2.2693
  682MOL0     H92031   3.357   6.101   4.891  1.1705  3.0199 -2.4729
  682MOL0     H92032   3.760   6.539   4.866  1.1292  0.6108 -0.2554
  682MOL0     H92033   4.016   6.568   4.877 -1.2909 -0.4782 -0.0841
  682MOL0     H92034   4.220   6.528   4.842 -1.7008  3.2135  1.1016
  682MOL0     H92035   4.242   6.601   4.998 -1.6888  0.5516 -0.8933
  682MOL0     H92036   4.446   6.439   5.020 -2.4293 -4.3653 -0.9565
  682MOL0     H92037   4.424   6.416   4.852  0.1786  1.8978 -1.0293
  682MOL0     H92038   4.463   6.649   4.794  0.6749  0.8392  0.3203
  682MOL0     H92039   4.481   6.694   4.959 -2.5447 -1.1382  0.2601
  682MOL0     H92040   4.645   6.475   4.812  1.3954  0.0329 -0.5654
  682MOL0     H92041   4.697   6.548   4.956  0.9021 -1.1319 -0.5813
  682MOL0     H92042   4.714   6.773   4.821 -0.5084  0.1211 -0.9962
  682MOL0     H92043   4.664   6.685   4.679 -0.3497  1.9375 -0.2065
  682MOL0     H92044   4.913   6.625   4.856  2.9838  0.9316 -2.0823
  682MOL0     H92045   4.872   6.518   4.734  2.6676 -0.3588  1.4526
  682MOL0     H92046   4.898   6.819   4.673  0.1383 -0.5407  1.7568
  682MOL0     H92047   4.894   6.699   4.551 -0.2500  1.6108 -0.5174
  682MOL0     H92048   5.108   6.619   4.601 -2.9060 -2.1147  1.5903
  682MOL0     H92049   5.114   6.805   4.592 -0.1837  0.1215 -0.4448
  682MOL0     H92050   4.049   6.239   5.132  1.6945  0.7971 -0.3023
  682MOL0     H92051   3.807   6.206   5.139  0.0729  0.4201 -0.0818
  682MOL0     H92052   3.451   6.404   5.192 -0.6090  0.6832  2.1278
  682MOL0     H92053   3.233   6.364   5.309 -3.1276 -0.4287  0.2804
  682MOL0     H92054   1.123   5.876   5.300 -0.0905 -0.9039 -0.5394
  682MOL0     H92055   0.924   5.972   5.317 -0.9800 -2.2658 -0.3027
  682MOL0     H92056   0.589   6.184   5.273  0.8686  0.5242  1.0217
  682MOL0     H92057   0.341   6.219   5.248  0.2727  0.5471 -0.1120
  682MOL0     H92058   0.132   6.371   5.261  0.4300 -2.3237  0.6652
  682MOL0     H92059   0.155   6.240   5.154  3.4753  0.0329  2.6652
  682MOL0     H92060  -0.017   6.482   5.052 -2.3614  0.1231  2.6319
  682MOL0     H92061  -0.077   6.372   5.173 -0.2462 -0.0749 -0.0350
  682MOL0     H92062  -0.066   6.187   5.023 -0.0961 -0.6487 -2.1907
  682MOL0     H92063   0.030   6.275   4.903  0.9988 -0.8232  0.2044
  682MOL0     H92064  -0.175   6.422   4.853  1.5380  0.3816 -1.0123
  682MOL0     H92065  -0.208   6.255   4.841 -3.2152  0.1576 -0.1323
  682MOL0     H92066  -0.499   6.336   5.111  1.4695 -0.8563  1.0556
  682MOL0     H92067   0.417   6.537   4.976 -0.1605  1.1421  2.8616
  682MOL0     H92068   0.775   6.450   4.918 -0.7597 -0.3756 -1.0120
  682MOL0     H92069   0.630   6.526   4.856 -0.3843  1.0589  0.0372
  682MOL0     H92070   0.708   6.599   5.001  0.8007  0.1550 -1.2496
  683MOL0     O92071   7.656  11.295   4.096 -0.0167 -0.7237  0.0443
  683MOL0     C92072   7.583  11.383   4.059 -0.1284  0.4872  0.5198
  683MOL0     O92073   7.621  11.523   4.072  0.2357 -0.2582 -0.4671
  683MOL0     C92074   7.741  11.557   4.130  0.1122  1.2573  0.7104
  683MOL0     C92075   7.843  11.582   4.041  0.2405 -0.1799  0.8430
  683MOL0     C92076   7.969  11.615   4.088 -0.6457  0.6683 -0.0092
  683MOL0     C92077   8.005  11.603   4.222  0.9634 -0.1372 -0.5054
  683MOL0     O92078   8.122  11.620   4.280 -1.1181  0.1136 -0.5351
  683MOL0     C92079   8.199  11.744   4.260  0.1763  0.2864 -0.4472
  683MOL0     C92080   8.329  11.712   4.179  0.3399 -0.0757 -0.5457
  683MOL0     C92081   8.428  11.823   4.204 -0.5074  0.0983  0.6793
  683MOL0     C92082   8.387  11.956   4.152  1.3018 -0.4924 -0.1824
  683MOL0     C92083   8.497  12.068   4.144  0.2969  0.3039  0.2429
  683MOL0     C92084   8.579  12.116   4.258 -0.7556 -0.8176 -0.1760
  683MOL0     C92085   8.676  12.224   4.209  0.4977  0.6466  0.0654
  683MOL0     C92086   8.613  12.360   4.214  0.2392  0.6404  0.6643
  683MOL0     N92087   8.696  12.452   4.142 -0.1974 -0.2815 -0.6269
  683MOL0     C92088   8.830  12.464   4.166 -0.1943 -1.7241  1.1247
  683MOL0     C92089   8.874  12.535   4.059 -0.3272 -0.1849  1.0747
  683MOL0     C92090   9.010  12.585   4.055 -0.9820 -0.0359  1.2462
  683MOL0     C92091   9.041  12.643   3.909  0.2707  0.8919  0.5097
  683MOL0     C92092   9.158  12.729   3.916  0.3722  0.1212 -0.3585
  683MOL0     C92093   9.294  12.652   3.937 -0.7998 -0.1382  0.0766
  683MOL0     O92094   9.306  12.638   4.079 -0.7685  0.4103 -0.4615
  683MOL0     C92095   9.412  12.555   4.117  0.6055 -0.3211 -0.4100
  683MOL0     C92096   9.395  12.481   4.237 -0.2313 -0.9168  0.1098
  683MOL0     C92097   9.508  12.403   4.292  0.5396 -0.6018  0.5742
  683MOL0     C92098   9.632  12.412   4.238 -1.5896  0.1031  0.1818
  683MOL0     C92099   9.748  12.340   4.295 -0.0053 -0.6416  0.2091
  683MOL0     O92100   9.871  12.373   4.240 -0.0036  0.1847 -0.1164
  683MOL0     C92101   9.987  12.331   4.291 -0.4656  0.5849  0.0265
  683MOL0     C92102  10.018  12.336   4.426 -0.0001  0.0130 -0.7921
  683MOL0     C92103  10.141  12.289   4.470 -0.6116 -0.4474  0.1588
  683MOL0     C92104  10.238  12.246   4.375 -0.2368 -0.7806  0.4484
  683MOL0     O92105  10.360  12.203   4.406  0.7119 -0.1104  0.2333
  683MOL0     C92106  10.424  12.275   4.511 -0.1522  0.5826  0.1341
  683MOL0     C92107  10.420  12.189   4.637  0.3194  0.8308  0.1270
  683MOL0     C92108  10.534  12.082   4.648 -0.1945  0.7510  0.9544
  683MOL0     C92109  10.654  12.136   4.728 -0.3707  0.2703 -0.3829
  683MOL0     C92110  10.772  12.043   4.711 -0.3777  0.1415  0.0938
  683MOL0     C92111  10.890  12.095   4.789 -0.7522 -0.1588 -0.4475
  683MOL0     C92112  10.971  12.218   4.737 -0.9751  0.1725  0.2196
  683MOL0     C92113  11.104  12.226   4.810 -0.8466  0.2405 -0.2534
  683MOL0    Cl92114  11.196  12.376   4.746 -0.8264 -0.1032 -0.0979
  683MOL0     C92115  10.209  12.243   4.237  0.1521 -0.2003  0.1354
  683MOL0     C92116  10.073  12.272   4.196 -0.4003 -0.2110  0.1164
  683MOL0     O92117   9.731  12.250   4.386 -0.3719  0.0109  0.0113
  683MOL0     C92118   9.639  12.464   4.107  0.0416  0.4620  0.4600
  683MOL0     C92119   9.529  12.537   4.054  0.8651  0.5118 -0.4518
  683MOL0     N92120   8.770  12.565   3.972  0.3917  1.0335 -0.5775
  683MOL0     N92121   8.659  12.527   4.035  0.6423 -0.0030 -1.2401
  683MOL0     C92122   7.898  11.566   4.308 -0.0495  0.8923  0.3780
  683MOL0     C92123   7.770  11.546   4.255 -0.0311 -0.0398  0.4704
  683MOL0     C92124   7.439  11.349   4.012 -0.7247 -1.0699  0.1083
  683MOL0     C92125   7.361  11.279   4.103  0.1686  0.4224  0.8321
  683MOL0     C92126   7.216  11.271   4.072 -0.6213  0.9094 -1.0407
  683MOL0     C92127   7.160  11.340   3.967 -0.3357 -0.5926  0.1337
  683MOL0     O92128   7.028  11.342   3.947 -0.9650  0.3246  0.2026
  683MOL0     C92129   6.934  11.299   4.046 -0.7743  0.1680  0.9827
  683MOL0     C92130   6.887  11.159   4.015 -0.1892 -0.0334  0.1729
  683MOL0     C92131   6.813  11.151   3.875 -0.4823 -0.2994 -0.7039
  683MOL0     C92132   6.771  11.007   3.844  0.1458  0.4779  0.2593
  683MOL0     C92133   6.754  10.993   3.699 -0.2706 -0.2375 -0.1744
  683MOL0     C92134   6.716  10.979   3.584 -0.0421  0.2897 -0.0328
  683MOL0     C92135   7.246  11.407   3.881  0.5197 -0.1298  0.3796
  683MOL0     C92136   7.386  11.406   3.898 -0.0967  0.5304 -0.1329
  683MOL0     C92137   7.463  11.499   3.807  0.6303  0.2088  0.7146
  683MOL0     H92138   7.833  11.608   3.936 -0.1264 -0.3907  0.8243
  683MOL0     H92139   8.047  11.640   4.016 -1.5854 -0.3927 -1.4449
  683MOL0     H92140   8.132  11.809   4.203  1.0288 -0.8139 -2.8153
  683MOL0     H92141   8.237  11.795   4.350  0.4709  1.6453 -1.3065
  683MOL0     H92142   8.306  11.696   4.074 -1.4582  0.9813 -0.3636
  683MOL0     H92143   8.375  11.621   4.219  2.6371  0.3518 -2.0145
  683MOL0     H92144   8.532  11.808   4.176 -0.3315 -0.4633  1.5915
  683MOL0     H92145   8.439  11.832   4.312 -0.0187  3.4548  0.4760
  683MOL0     H92146   8.352  11.945   4.049  3.7993 -0.0591 -1.1483
  683MOL0     H92147   8.311  12.004   4.214  0.3441 -2.0342 -0.1088
  683MOL0     H92148   8.570  12.034   4.071 -2.4480  0.2147 -2.6845
  683MOL0     H92149   8.443  12.152   4.100  0.4808 -0.2973 -1.1917
  683MOL0     H92150   8.528  12.154   4.346 -0.1571 -1.3744  0.4214
  683MOL0     H92151   8.637  12.027   4.285 -1.0608 -1.0710 -0.3429
  683MOL0     H92152   8.713  12.201   4.108  2.6344 -1.3174  1.2093
  683MOL0     H92153   8.765  12.219   4.273  1.9543 -3.0186 -1.9534
  683MOL0     H92154   8.520  12.365   4.157  0.3832  2.4136  0.5336
  683MOL0     H92155   8.580  12.383   4.316 -1.4865 -0.8705  0.4996
  683MOL0     H92156   8.893  12.418   4.241  0.1312 -0.6309  1.5368
  683MOL0     H92157   9.022  12.666   4.127 -2.4111  0.0990  1.3652
  683MOL0     H92158   9.075  12.506   4.092 -1.7103 -0.7306  1.0588
  683MOL0     H92159   9.049  12.566   3.832  0.1405  1.7222 -0.3471
  683MOL0     H92160   8.957  12.704   3.875 -0.0032 -0.5486 -1.5945
  683MOL0     H92161   9.145  12.810   3.989  3.0994  1.8987 -1.6468
  683MOL0     H92162   9.162  12.767   3.813 -1.0319 -0.2972 -0.5861
  683MOL0     H92163   9.377  12.712   3.899 -0.4578 -0.2856  0.5806
  683MOL0     H92164   9.290  12.549   3.902 -4.1280 -0.0894  0.0091
  683MOL0     H92165   9.302  12.487   4.294  0.1513  0.4857  0.6300
  683MOL0     H92166   9.492  12.349   4.384  1.6543  0.7513  1.5970
  683MOL0     H92167   9.936  12.365   4.490 -0.1844  2.2547 -1.9702
  683MOL0     H92168  10.152  12.265   4.575  3.1504 -1.2930 -0.2888
  683MOL0     H92169  10.530  12.297   4.495  0.2228  0.5299  2.2215
  683MOL0     H92170  10.378  12.371   4.535 -0.3437 -0.0646  2.6087
  683MOL0     H92171  10.410  12.243   4.732 -0.3678 -1.4445  1.4079
  683MOL0     H92172  10.328  12.131   4.649  1.9723 -1.7139  1.4645
  683MOL0     H92173  10.494  11.985   4.680 -3.4654  0.2604 -3.6211
  683MOL0     H92174  10.569  12.061   4.547 -1.2109 -0.7043  0.8656
  683MOL0     H92175  10.626  12.139   4.834 -1.6368  0.5240 -0.7124
  683MOL0     H92176  10.676  12.240   4.701 -0.7683  0.2693 -0.7114
  683MOL0     H92177  10.801  12.026   4.607 -0.4214  3.1885 -0.4887
  683MOL0     H92178  10.743  11.944   4.748 -0.7433 -0.9995 -2.9525
  683MOL0     H92179  10.856  12.114   4.891 -2.3711 -0.3552 -0.9291
  683MOL0     H92180  10.962  12.014   4.802 -3.8340 -2.7270  2.1227
  683MOL0     H92181  10.918  12.313   4.753  0.6822  1.3360 -0.8902
  683MOL0     H92182  10.992  12.211   4.630  1.2008  1.3872  0.5024
  683MOL0     H92183  11.096  12.214   4.918 -0.6261 -0.0405 -0.2671
  683MOL0     H92184  11.160  12.135   4.785  0.2074  0.2945  1.7207
  683MOL0     H92185  10.285  12.212   4.166 -0.6988  0.3554 -1.0609
  683MOL0     H92186  10.036  12.262   4.095 -2.1114 -1.8256  0.8107
  683MOL0     H92187   9.733  12.458   4.053 -0.6328 -8.0486 -1.1152
  683MOL0     H92188   9.540  12.601   3.968 -2.2164  1.0505 -0.5471
  683MOL0     H92189   7.925  11.548   4.411  0.2552  1.7448  0.4544
  683MOL0     H92190   7.683  11.527   4.317 -3.1203  3.2101 -2.4410
  683MOL0     H92191   7.416  11.231   4.184  4.4422  1.4777 -1.1507
  683MOL0     H92192   7.154  11.209   4.136  0.3865 -0.2138 -1.1201
  683MOL0     H92193   6.853  11.373   4.044 -0.8601  0.1087 -1.7103
  683MOL0     H92194   6.974  11.311   4.147  1.0110  1.5219  0.1584
  683MOL0     H92195   6.821  11.123   4.094  0.0491 -0.3605  0.2276
  683MOL0     H92196   6.973  11.090   4.016  0.6788  0.8593 -2.7421
  683MOL0     H92197   6.871  11.201   3.797  0.3815  0.0430  0.1308
  683MOL0     H92198   6.719  11.206   3.882  0.3779  1.2277 -0.5541
  683MOL0     H92199   6.850  10.938   3.876  0.9147  0.0680 -2.2937
  683MOL0     H92200   6.675  10.977   3.887  0.2949 -3.0089 -1.4797
  683MOL0     H92201   6.691  10.979   3.480 -2.0291  0.8130  0.4069
  683MOL0     H92202   7.189  11.449   3.798 -2.4084 -0.9029  1.8641
  683MOL0     H92203   7.548  11.444   3.763 -0.2347 -0.0964 -0.6354
  683MOL0     H92204   7.395  11.540   3.732 -0.6771  2.4823  3.0160
  683MOL0     H92205   7.503  11.586   3.859 -0.0216  1.8301 -1.3732
  684MOL0     O92206  11.220   4.864   4.510 -0.0067  0.2235 -0.1362
  684MOL0     C92207  11.333   4.912   4.490 -0.0526 -0.1065  0.0204
  684MOL0     O92208  11.369   5.044   4.448 -0.3785 -0.2101  0.1146
  684MOL0     C92209  11.276   5.133   4.406 -0.1069  0.8742 -0.6032
  684MOL0     C92210  11.142   5.146   4.460  0.1319  0.6181 -0.5094
  684MOL0     C92211  11.051   5.244   4.409 -0.7870 -0.8874 -0.8843
  684MOL0     C92212  11.086   5.323   4.305 -0.4816  0.0847  0.1040
  684MOL0     O92213  10.994   5.417   4.270 -0.0466 -0.5163  0.6837
  684MOL0     C92214  11.042   5.542   4.233 -0.2326 -0.1043 -0.4499
  684MOL0     C92215  11.038   5.559   4.078 -0.1199 -0.9527  0.1806
  684MOL0     C92216  11.044   5.693   4.015 -0.2807 -0.3420 -0.2697
  684MOL0     C92217  11.168   5.783   4.040 -0.3945  0.0893  0.0930
  684MOL0     C92218  11.301   5.713   3.998 -0.1957 -0.0722  1.0659
  684MOL0     C92219  11.424   5.804   4.005  0.3299  0.2375 -0.6737
  684MOL0     C92220  11.557   5.728   3.992 -0.6151  0.2923  0.2022
  684MOL0     C92221  11.672   5.826   3.977  0.7192 -0.2188  0.4574
  684MOL0     N92222  11.799   5.763   4.006  0.1904  0.3038  0.2878
  684MOL0     C92223  11.896   5.733   3.913 -0.1644 -0.6912 -0.1547
  684MOL0     C92224  12.000   5.685   3.984  0.1698  0.6086  0.1054
  684MOL0     C92225  12.122   5.614   3.923  0.7039 -0.3516 -0.3374
  684MOL0     C92226  12.248   5.617   3.997 -0.3084  0.3109  0.1679
  684MOL0     C92227  12.290   5.754   4.038  0.6726 -0.0092 -0.5091
  684MOL0     C92228  12.436   5.761   4.080  0.4923 -0.4306  0.3664
  684MOL0     O92229  12.522   5.736   3.968  0.9113 -1.0815  0.4105
  684MOL0     C92230  12.660   5.724   3.977 -0.0921  0.2617  0.1552
  684MOL0     C92231  12.723   5.692   3.857  0.0003 -1.3180 -0.5678
  684MOL0     C92232  12.866   5.679   3.852 -0.2247  0.6287 -0.1977
  684MOL0     C92233  12.945   5.700   3.973  0.3338 -0.7487  0.1672
  684MOL0     C92234  13.087   5.685   3.981 -0.4471  0.2259 -0.7384
  684MOL0     O92235  13.145   5.709   4.098 -0.3239 -0.2092  0.5602
  684MOL0     C92236  13.278   5.676   4.112  0.0915  0.0996 -0.3772
  684MOL0     C92237  13.360   5.780   4.147  1.4323 -1.0991 -0.8175
  684MOL0     C92238  13.504   5.770   4.143  0.1834  0.0536 -0.5618
  684MOL0     C92239  13.561   5.639   4.129  0.1445  0.6576  0.7807
  684MOL0     O92240  13.699   5.620   4.123  0.3812 -0.2285  0.4775
  684MOL0     C92241  13.786   5.723   4.179  0.1760 -1.2401  0.8617
  684MOL0     C92242  13.923   5.653   4.184  0.0798  0.3588 -0.7848
  684MOL0     C92243  14.034   5.742   4.246 -0.3275  0.2712  0.1155
  684MOL0     C92244  14.174   5.666   4.242  0.0447 -0.4994  0.8897
  684MOL0     C92245  14.282   5.707   4.338  0.3374  1.0328 -0.0904
  684MOL0     C92246  14.410   5.628   4.305  0.2196 -0.1261  0.6480
  684MOL0     C92247  14.522   5.682   4.400 -0.1900 -0.1249 -0.2076
  684MOL0     C92248  14.500   5.622   4.542  0.0096 -0.3873  0.4568
  684MOL0    Cl92249  14.663   5.606   4.617 -0.1329  0.3881  0.1266
  684MOL0     C92250  13.476   5.530   4.097 -0.3995 -0.0675  0.0433
  684MOL0     C92251  13.336   5.553   4.085  0.6047  0.5685  0.7856
  684MOL0     O92252  13.149   5.666   3.878 -0.5128  0.1339  0.1532
  684MOL0     C92253  12.877   5.734   4.092 -0.3037 -0.9703  0.0937
  684MOL0     C92254  12.731   5.736   4.094 -0.0690  0.7000 -0.1039
  684MOL0     N92255  11.966   5.690   4.117 -0.3410 -0.8464  0.2548
  684MOL0     N92256  11.858   5.750   4.137  0.2735  0.3405 -0.3938
  684MOL0     C92257  11.220   5.316   4.250  0.5501  0.2648 -0.7713
  684MOL0     C92258  11.308   5.221   4.299 -0.5075  1.1931 -0.1103
  684MOL0     C92259  11.441   4.831   4.541 -0.2598  0.2704  0.0596
  684MOL0     C92260  11.528   4.891   4.636  0.5705  0.1109 -0.7031
  684MOL0     C92261  11.632   4.816   4.688  0.6667 -0.1363 -0.2144
  684MOL0     C92262  11.649   4.685   4.651  0.3240  0.3352  0.6978
  684MOL0     O92263  11.751   4.616   4.706 -0.1222  0.9507  0.5917
  684MOL0     C92264  11.793   4.497   4.649 -0.6381  0.9665  0.2834
  684MOL0     C92265  11.906   4.433   4.727  1.2764  0.3256 -0.0865
  684MOL0     C92266  11.854   4.388   4.865 -0.5498  0.4831  0.1766
  684MOL0     C92267  11.977   4.356   4.965  0.3554  0.1294 -0.4922
  684MOL0     C92268  12.090   4.287   4.914  0.4120  0.3628 -0.9457
  684MOL0     C92269  12.187   4.220   4.882 -0.4824 -1.3470 -0.2325
  684MOL0     C92270  11.559   4.632   4.557 -0.9512  0.4327  0.0738
  684MOL0     C92271  11.457   4.698   4.501 -0.6249 -0.1347  0.5578
  684MOL0     C92272  11.374   4.619   4.399  0.3137 -0.2104 -0.7704
  684MOL0     H92273  11.119   5.075   4.539  0.1886 -0.2101 -1.2231
  684MOL0     H92274  10.954   5.260   4.454  0.0766  0.5222  0.5596
  684MOL0     H92275  10.986   5.624   4.280 -2.0665 -0.1241 -2.4422
  684MOL0     H92276  11.142   5.553   4.275 -0.1124 -1.9316 -0.2050
  684MOL0     H92277  10.945   5.515   4.040 -0.3045  0.2182 -0.7779
  684MOL0     H92278  11.122   5.509   4.031  1.1771  3.0026 -2.1593
  684MOL0     H92279  10.955   5.749   4.044 -1.5536 -1.7838 -1.2250
  684MOL0     H92280  11.039   5.679   3.906  1.4515  2.3281 -0.7851
  684MOL0     H92281  11.152   5.872   3.979  0.4629  0.1320 -0.0925
  684MOL0     H92282  11.172   5.822   4.143  0.4700 -0.1572  0.1642
  684MOL0     H92283  11.318   5.629   4.067 -0.7482 -1.1341 -0.0399
  684MOL0     H92284  11.300   5.676   3.895  0.8065  0.6247  0.7992
  684MOL0     H92285  11.414   5.878   3.925  1.2152  0.2668 -0.7650
  684MOL0     H92286  11.421   5.859   4.099  0.0085  3.2004 -2.2803
  684MOL0     H92287  11.555   5.663   3.904 -2.0280  0.6026 -0.0149
  684MOL0     H92288  11.574   5.668   4.082  2.2566 -1.4708 -1.3704
  684MOL0     H92289  11.672   5.862   3.874  0.0038 -0.8606  0.2192
  684MOL0     H92290  11.648   5.902   4.052  0.0377 -1.1933  1.2637
  684MOL0     H92291  11.892   5.741   3.805 -2.1326  4.1188  0.0086
  684MOL0     H92292  12.095   5.509   3.911  0.0897 -0.1316 -1.0034
  684MOL0     H92293  12.140   5.643   3.819  1.4454 -4.2033 -1.4288
  684MOL0     H92294  12.249   5.541   4.076 -2.9694 -0.0910 -0.0912
  684MOL0     H92295  12.320   5.581   3.923  0.6160  0.9396  0.7369
  684MOL0     H92296  12.232   5.776   4.129 -1.0607  0.6590 -1.7208
  684MOL0     H92297  12.273   5.837   3.969 -1.0955  1.8527  1.9749
  684MOL0     H92298  12.455   5.679   4.149  0.6438 -0.3867  0.3776
  684MOL0     H92299  12.460   5.854   4.132  0.7630  0.4742 -1.3094
  684MOL0     H92300  12.663   5.677   3.768 -1.6987  3.1389 -0.4039
  684MOL0     H92301  12.920   5.650   3.763  4.0917 -0.5405  2.4988
  684MOL0     H92302  13.316   5.876   4.171  2.1629 -0.6774 -1.1182
  684MOL0     H92303  13.568   5.854   4.163 -1.2213  0.5567  2.4004
  684MOL0     H92304  13.794   5.814   4.119 -1.4268 -0.5022  1.7064
  684MOL0     H92305  13.745   5.766   4.272  0.7894  1.8192 -0.1448
  684MOL0     H92306  13.916   5.559   4.240  1.6546  1.1845  0.8710
  684MOL0     H92307  13.948   5.623   4.081  0.2194 -1.2892 -0.3005
  684MOL0     H92308  14.048   5.831   4.185 -0.3817  0.6283  0.6189
  684MOL0     H92309  13.996   5.779   4.342  0.5792  1.0787  0.1625
  684MOL0     H92310  14.205   5.681   4.138 -3.8383 -0.0243 -0.3667
  684MOL0     H92311  14.156   5.559   4.255 -1.3276 -0.6191 -1.4404
  684MOL0     H92312  14.255   5.704   4.444  1.6814  1.3678  0.2880
  684MOL0     H92313  14.307   5.813   4.323 -1.1897  1.4597  0.2134
  684MOL0     H92314  14.403   5.520   4.315 -0.4212 -0.1059  0.4822
  684MOL0     H92315  14.442   5.640   4.201 -0.6769 -0.0345  0.3652
  684MOL0     H92316  14.519   5.791   4.407  2.7277  0.0800 -0.8919
  684MOL0     H92317  14.618   5.650   4.359  1.3347  0.8772  2.3106
  684MOL0     H92318  14.439   5.693   4.599  0.5198 -0.1050  0.6553
  684MOL0     H92319  14.458   5.521   4.544 -0.2673 -0.3517 -1.4014
  684MOL0     H92320  13.506   5.428   4.075 -2.1654 -0.5238 -0.3931
  684MOL0     H92321  13.285   5.460   4.060 -1.4660  1.6903  0.6196
  684MOL0     H92322  12.925   5.733   4.189 -1.4083  0.5330  0.7033
  684MOL0     H92323  12.687   5.749   4.192 -1.0813 -0.4981 -0.3771
  684MOL0     H92324  11.235   5.380   4.163 -2.5405  2.1284 -0.0502
  684MOL0     H92325  11.409   5.209   4.260 -0.5305 -1.0329  0.4074
  684MOL0     H92326  11.514   4.993   4.670 -0.1219  0.4314 -1.9144
  684MOL0     H92327  11.702   4.861   4.758 -0.0317  1.1404 -0.3016
  684MOL0     H92328  11.839   4.517   4.552  0.5406  2.1160  1.0369
  684MOL0     H92329  11.713   4.425   4.633 -1.2299  1.9716 -1.5905
  684MOL0     H92330  11.985   4.507   4.742 -0.2148  1.4494  3.2124
  684MOL0     H92331  11.948   4.347   4.673 -2.2276 -0.8645 -1.1849
  684MOL0     H92332  11.780   4.311   4.843 -1.2001  1.3048 -0.6102
  684MOL0     H92333  11.798   4.467   4.915  2.1147  1.3032  2.1113
  684MOL0     H92334  12.016   4.450   5.006  0.5604  1.8494 -4.2400
  684MOL0     H92335  11.930   4.310   5.053  2.3474  3.6867  2.7394
  684MOL0     H92336  12.273   4.164   4.852 -1.3225 -4.5986  2.6664
  684MOL0     H92337  11.565   4.528   4.525 -3.4959 -0.2923  1.6652
  684MOL0     H92338  11.354   4.524   4.450 -1.3759  0.1471 -0.7234
  684MOL0     H92339  11.278   4.663   4.373  1.3091  0.7669 -3.0387
  684MOL0     H92340  11.425   4.605   4.303  2.7270 -0.9440  0.5190
  685MOL0     O92341   1.518   0.460   6.704  0.3646  0.7998  0.7286
  685MOL0     C92342   1.532   0.338   6.694 -0.7022  0.2856 -0.1398
  685MOL0     O92343   1.617   0.268   6.773 -1.0778  0.6408 -0.6846
  685MOL0     C92344   1.697   0.328   6.862  0.3303 -0.2925  0.5121
  685MOL0     C92345   1.819   0.374   6.815  1.3318  1.3689  0.5629
  685MOL0     C92346   1.906   0.437   6.898  0.2974 -0.6592 -0.1970
  685MOL0     C92347   1.867   0.467   7.034 -0.8056 -0.7495 -1.5711
  685MOL0     O92348   1.964   0.504   7.121  0.7999  0.3312  0.0813
  685MOL0     C92349   2.012   0.638   7.095  0.0434  0.4527  0.0884
  685MOL0     C92350   2.117   0.694   7.201 -0.4053  0.0169 -0.5467
  685MOL0     C92351   2.260   0.625   7.194  0.5302  0.0831  0.2443
  685MOL0     C92352   2.342   0.653   7.329  0.8227  0.2286  0.9045
  685MOL0     C92353   2.478   0.591   7.342  0.6275 -0.3561 -0.1237
  685MOL0     C92354   2.571   0.644   7.235 -0.3448 -0.7149  0.2585
  685MOL0     C92355   2.711   0.586   7.251 -0.3461 -0.6623  0.1815
  685MOL0     C92356   2.778   0.612   7.387  0.8751  0.2388 -0.8572
  685MOL0     N92357   2.799   0.759   7.401 -0.5297  0.0655 -0.1526
  685MOL0     C92358   2.917   0.830   7.373  0.5058 -0.3105 -0.4457
  685MOL0     C92359   2.898   0.953   7.437  0.0737  0.2435  0.7814
  685MOL0     C92360   2.989   1.067   7.431 -0.0059  0.1631 -0.3165
  685MOL0     C92361   3.120   1.042   7.496  0.5264  0.6795 -0.5033
  685MOL0     C92362   3.129   1.062   7.648 -0.0168  0.4920 -0.0823
  685MOL0     C92363   3.259   1.007   7.705 -0.0148  0.2750  0.5923
  685MOL0     O92364   3.363   1.089   7.666 -0.8538  0.3106  0.2892
  685MOL0     C92365   3.490   1.042   7.641 -0.0583 -0.3753  0.4627
  685MOL0     C92366   3.534   0.917   7.683 -0.1587  0.1024 -0.1747
  685MOL0     C92367   3.662   0.871   7.653 -0.0709  0.2042  0.7119
  685MOL0     C92368   3.762   0.949   7.592  0.4051  0.2036  0.2163
  685MOL0     C92369   3.897   0.887   7.571 -0.1164  0.0143  0.0336
  685MOL0     O92370   3.995   0.962   7.509  0.0970  0.2049  0.4156
  685MOL0     C92371   4.123   0.916   7.478 -0.0083 -0.4888 -0.0593
  685MOL0     C92372   4.174   0.788   7.507  0.7681 -0.1577 -0.0606
  685MOL0     C92373   4.302   0.754   7.474  0.6530 -0.4677  0.5365
  685MOL0     C92374   4.383   0.839   7.404  0.3267  0.1478 -0.7077
  685MOL0     O92375   4.513   0.808   7.378  0.2332  1.0537  0.1375
  685MOL0     C92376   4.590   0.734   7.479  0.0414  0.0952  0.5793
  685MOL0     C92377   4.608   0.814   7.597 -0.6554  0.2986  0.4220
  685MOL0     C92378   4.693   0.739   7.700 -0.1967  0.3785  0.8332
  685MOL0     C92379   4.849   0.767   7.696  0.4210  0.5801  0.3320
  685MOL0     C92380   4.941   0.669   7.770 -0.2156  0.9416  0.0868
  685MOL0     C92381   4.958   0.540   7.690 -0.1379  0.4730  0.5417
  685MOL0     C92382   5.028   0.424   7.769  0.0773  0.6038 -0.0479
  685MOL0     C92383   5.175   0.452   7.811 -0.0325 -0.2001  0.5169
  685MOL0    Cl92384   5.264   0.452   7.658 -0.1569 -0.2351 -0.0649
  685MOL0     C92385   4.343   0.970   7.377 -0.2348  0.8294  0.9693
  685MOL0     C92386   4.207   1.008   7.408 -0.3581  0.8682  0.2824
  685MOL0     O92387   3.903   0.770   7.604 -0.0668 -0.1220  0.0756
  685MOL0     C92388   3.727   1.084   7.569  0.2521  1.3095 -0.5189
  685MOL0     C92389   3.589   1.128   7.582 -0.0482  0.6520 -0.5941
  685MOL0     N92390   2.787   0.947   7.508 -0.2856  0.1368  0.3350
  685MOL0     N92391   2.732   0.831   7.494  0.4851 -0.9513  0.2100
  685MOL0     C92392   1.743   0.426   7.082  0.1637  1.3237  0.0561
  685MOL0     C92393   1.657   0.349   6.998  0.4692 -0.6006  0.7627
  685MOL0     C92394   1.440   0.266   6.602  0.3083  0.6437  0.0131
  685MOL0     C92395   1.449   0.130   6.605  0.0164 -0.0037  0.2558
  685MOL0     C92396   1.349   0.053   6.555  0.0352  0.3171 -0.8595
  685MOL0     C92397   1.240   0.110   6.492 -0.1936  0.1088 -0.4773
  685MOL0     O92398   1.139   0.023   6.454 -0.2616 -0.1094  0.2820
  685MOL0     C92399   1.030   0.071   6.369  0.0704  0.0963  0.4192
  685MOL0     C92400   0.969  -0.040   6.296  0.3118  0.6194  0.3308
  685MOL0     C92401   1.057  -0.084   6.177  0.8448 -0.3062 -0.2773
  685MOL0     C92402   1.003  -0.203   6.098  0.0848  0.3967 -0.0299
  685MOL0     C92403   0.898  -0.169   6.011  0.0648 -0.8658 -0.1165
  685MOL0     C92404   0.818  -0.129   5.925 -0.5922  1.0158 -0.6290
  685MOL0     C92405   1.248   0.245   6.471 -0.1881 -0.3693 -0.3843
  685MOL0     C92406   1.341   0.327   6.534 -0.5255  0.5302 -0.0850
  685MOL0     C92407   1.321   0.477   6.514  0.1723  0.0893  0.1441
  685MOL0     H92408   1.838   0.352   6.710  0.6009  1.2459  0.4519
  685MOL0     H92409   2.007   0.469   6.874  0.6974 -1.5757  0.2011
  685MOL0     H92410   2.079   0.638   7.009  0.2853 -0.8361  0.2669
  685MOL0     H92411   1.928   0.705   7.072  0.0269  1.0016  1.6230
  685MOL0     H92412   2.082   0.673   7.302 -1.5095 -0.4055 -0.9893
  685MOL0     H92413   2.135   0.801   7.190 -2.6476  0.5666  0.5170
  685MOL0     H92414   2.315   0.674   7.113  0.7823 -1.4776 -0.5771
  685MOL0     H92415   2.254   0.517   7.173  1.5318 -0.1454  0.9979
  685MOL0     H92416   2.347   0.762   7.332 -0.5395  0.3059  0.9748
  685MOL0     H92417   2.270   0.626   7.406 -2.2902  2.9789 -0.7920
  685MOL0     H92418   2.514   0.619   7.441  1.9063 -0.2455 -0.5991
  685MOL0     H92419   2.471   0.482   7.342  0.1049 -0.4709  3.6617
  685MOL0     H92420   2.545   0.618   7.132  3.2469 -0.9825 -0.7417
  685MOL0     H92421   2.567   0.753   7.243 -1.7412 -0.6662 -0.7356
  685MOL0     H92422   2.775   0.624   7.171  1.7635  0.0270  2.0733
  685MOL0     H92423   2.693   0.479   7.237 -0.1146 -1.1792  3.1806
  685MOL0     H92424   2.723   0.577   7.474  0.5201  2.5522 -0.0745
  685MOL0     H92425   2.877   0.566   7.375  0.7074 -0.7065  1.1107
  685MOL0     H92426   2.988   0.798   7.297 -0.6937 -0.5943 -1.4849
  685MOL0     H92427   2.989   1.116   7.333 -1.3642 -0.5108 -0.6833
  685MOL0     H92428   2.943   1.149   7.486 -1.6952  0.0159 -1.4437
  685MOL0     H92429   3.147   0.940   7.465  0.3217 -0.1763  1.9538
  685MOL0     H92430   3.183   1.117   7.448  0.5176  0.9123 -0.1495
  685MOL0     H92431   3.041   1.012   7.690  0.5609 -0.9072 -0.4785
  685MOL0     H92432   3.123   1.168   7.675 -0.1371  1.3469 -3.0980
  685MOL0     H92433   3.275   0.908   7.661  2.4181  0.8586  0.0500
  685MOL0     H92434   3.258   0.988   7.813 -0.6065  0.3809  0.6088
  685MOL0     H92435   3.466   0.849   7.733 -0.6397 -0.9212 -2.1031
  685MOL0     H92436   3.682   0.764   7.660 -3.9956 -0.9176 -1.5394
  685MOL0     H92437   4.121   0.709   7.558 -0.9181  1.6950  1.1949
  685MOL0     H92438   4.348   0.658   7.497  1.4639 -0.5566 -1.2947
  685MOL0     H92439   4.554   0.636   7.511  3.1167 -1.4285 -0.2213
  685MOL0     H92440   4.681   0.696   7.432  0.3246  0.7513  0.5719
  685MOL0     H92441   4.652   0.913   7.581  1.5924 -0.6720  0.2738
  685MOL0     H92442   4.511   0.848   7.635 -0.4897  3.6055 -1.6584
  685MOL0     H92443   4.656   0.771   7.798 -1.1221  3.0346 -0.2796
  685MOL0     H92444   4.677   0.631   7.703  0.4974  0.2881  2.7512
  685MOL0     H92445   4.865   0.868   7.733  0.7721  0.9502 -0.7872
  685MOL0     H92446   4.878   0.772   7.591  0.7465 -0.9973  0.3254
  685MOL0     H92447   4.895   0.650   7.868 -2.0373 -0.2666 -0.9565
  685MOL0     H92448   5.042   0.703   7.794  0.8896 -1.4209 -0.9325
  685MOL0     H92449   4.864   0.492   7.661  0.4627 -0.5016  0.1400
  685MOL0     H92450   5.014   0.558   7.597  2.0312 -1.3106  1.4058
  685MOL0     H92451   5.031   0.329   7.715 -0.5689  0.0977  0.7976
  685MOL0     H92452   4.972   0.406   7.860 -1.8903 -2.8214 -1.7592
  685MOL0     H92453   5.191   0.547   7.862 -0.2411 -0.5465  1.2333
  685MOL0     H92454   5.201   0.369   7.877 -3.0797 -0.9421  0.9771
  685MOL0     H92455   4.412   1.042   7.335  0.5585 -0.1218  0.6200
  685MOL0     H92456   4.159   1.102   7.380 -2.0537 -0.2013 -0.5832
  685MOL0     H92457   3.802   1.151   7.528  0.3956  1.3175 -0.2461
  685MOL0     H92458   3.559   1.231   7.566  0.1710  1.0644  1.4127
  685MOL0     H92459   1.724   0.428   7.189  2.1465  0.9627  0.4494
  685MOL0     H92460   1.564   0.306   7.031 -2.0053  2.8031 -1.1281
  685MOL0     H92461   1.523   0.076   6.663  0.0885 -1.8240 -1.4274
  685MOL0     H92462   1.353  -0.055   6.564 -4.0831  0.0918  0.2856
  685MOL0     H92463   1.059   0.153   6.303  0.5454 -1.5036 -1.4426
  685MOL0     H92464   0.952   0.114   6.432 -1.6537  1.0184 -2.1587
  685MOL0     H92465   0.871  -0.007   6.259 -0.0656  0.2619  0.9798
  685MOL0     H92466   0.955  -0.128   6.360  1.8972 -0.2807 -0.5122
  685MOL0     H92467   1.159  -0.108   6.210  0.4572 -0.6959  0.6637
  685MOL0     H92468   1.060   0.003   6.110  1.7661  0.1000  0.2770
  685MOL0     H92469   1.086  -0.237   6.037 -0.2941 -2.2271  0.7854
  685MOL0     H92470   0.971  -0.285   6.164  0.7618  0.2134  0.0781
  685MOL0     H92471   0.745  -0.094   5.854 -1.0453 -1.2896 -1.3832
  685MOL0     H92472   1.163   0.285   6.416 -0.2754 -1.4775 -1.0863
  685MOL0     H92473   1.412   0.525   6.478  0.2327  0.7030  1.0909
  685MOL0     H92474   1.248   0.500   6.435  0.4028  0.1195 -0.0605
  685MOL0     H92475   1.289   0.527   6.606 -0.3760 -2.4715  1.4478
  686MOL0     O92476   2.918   4.941   6.469  0.3079  0.1287 -0.1211
  686MOL0     C92477   2.918   5.024   6.561 -0.1581 -0.3332  0.2290
  686MOL0     O92478   3.031   5.069   6.627  0.1908  0.6581 -0.3173
  686MOL0     C92479   3.148   5.065   6.561 -0.0447  0.3777  0.7828
  686MOL0     C92480   3.254   4.980   6.610  0.0901 -0.7045  0.1249
  686MOL0     C92481   3.377   4.980   6.547  0.3361  0.8642 -0.0457
  686MOL0     C92482   3.406   5.068   6.448  1.0932 -0.0357  1.2006
  686MOL0     O92483   3.528   5.078   6.388  0.2313 -0.2598  0.2667
  686MOL0     C92484   3.639   5.072   6.474  0.3399  0.0451  0.1110
  686MOL0     C92485   3.753   5.147   6.391 -0.2213  0.1183  0.3611
  686MOL0     C92486   3.894   5.136   6.447  0.1542  0.0967 -0.2734
  686MOL0     C92487   3.992   5.238   6.384 -0.4846 -0.3985 -0.7046
  686MOL0     C92488   4.106   5.275   6.483  0.5243  0.5388  0.6044
  686MOL0     C92489   4.221   5.341   6.400 -0.3750  0.6084 -0.1911
  686MOL0     C92490   4.341   5.364   6.490  0.3809 -0.3815  0.4209
  686MOL0     C92491   4.444   5.412   6.402 -0.1585  0.4662  0.0541
  686MOL0     N92492   4.555   5.471   6.485  0.2963 -0.1474  1.1232
  686MOL0     C92493   4.655   5.399   6.551  0.4441 -0.4160 -0.1295
  686MOL0     C92494   4.728   5.494   6.602  0.1561 -0.3480  0.0705
  686MOL0     C92495   4.861   5.453   6.657  0.0490  0.3558  0.2454
  686MOL0     C92496   4.849   5.388   6.795 -0.3090 -0.5327 -0.1284
  686MOL0     C92497   4.970   5.314   6.855 -0.4347  0.4927  0.5709
  686MOL0     C92498   5.102   5.391   6.829 -0.4473 -0.0903 -0.1789
  686MOL0     O92499   5.084   5.525   6.890  0.2273  0.4791 -0.0736
  686MOL0     C92500   5.194   5.598   6.921  0.2185  0.1240  0.9095
  686MOL0     C92501   5.314   5.581   6.856 -0.5338 -0.1892  0.8489
  686MOL0     C92502   5.417   5.671   6.884  0.1271 -0.1095  0.0705
  686MOL0     C92503   5.397   5.780   6.971 -0.8354 -0.9891 -0.3521
  686MOL0     C92504   5.504   5.875   6.994  0.0822 -0.7775 -0.3321
  686MOL0     O92505   5.621   5.860   6.935  0.5137  0.6832  0.2408
  686MOL0     C92506   5.711   5.965   6.947  0.7496 -0.0349  0.0653
  686MOL0     C92507   5.705   6.073   6.856  0.0417 -0.5075  0.2518
  686MOL0     C92508   5.810   6.169   6.847  0.0836 -0.1001 -0.3747
  686MOL0     C92509   5.927   6.158   6.925  0.0781 -0.9808  0.4638
  686MOL0     O92510   6.034   6.240   6.930  0.4170 -0.0404  0.0144
  686MOL0     C92511   6.060   6.313   6.807  0.7373 -0.3581  0.7825
  686MOL0     C92512   6.202   6.364   6.821 -0.3791 -0.3777 -0.6402
  686MOL0     C92513   6.229   6.473   6.716  0.7497  0.1254  0.1032
  686MOL0     C92514   6.377   6.499   6.710 -0.5427 -0.0143 -1.0649
  686MOL0     C92515   6.404   6.591   6.591 -0.2062 -0.1218 -0.2732
  686MOL0     C92516   6.549   6.615   6.566  0.3518 -0.0461  0.1906
  686MOL0     C92517   6.596   6.721   6.460 -0.3937  0.1136  0.1606
  686MOL0     C92518   6.741   6.765   6.470 -0.3926  0.2672  0.7067
  686MOL0    Cl92519   6.783   6.904   6.357  0.6329 -0.0833 -0.1789
  686MOL0     C92520   5.925   6.043   7.008  0.2880 -0.6138 -0.4460
  686MOL0     C92521   5.826   5.944   7.018  0.1057  0.0205 -0.0490
  686MOL0     O92522   5.473   5.970   7.072  0.2130 -0.7789  0.6359
  686MOL0     C92523   5.279   5.788   7.045 -0.0984 -0.0523 -0.6583
  686MOL0     C92524   5.176   5.698   7.022 -0.9800 -0.1106  0.3037
  686MOL0     N92525   4.685   5.627   6.572  0.0886 -0.0860 -0.2678
  686MOL0     N92526   4.577   5.609   6.510 -0.5520 -0.7758  0.5748
  686MOL0     C92527   3.298   5.135   6.380  0.0444  1.2819 -0.6545
  686MOL0     C92528   3.169   5.140   6.442 -0.4128 -0.0848 -0.1971
  686MOL0     C92529   2.784   5.072   6.606 -0.1574 -0.1249 -0.3585
  686MOL0     C92530   2.691   4.964   6.629 -1.0186  0.5247 -0.4946
  686MOL0     C92531   2.564   4.992   6.672 -0.7341  0.0197 -0.5427
  686MOL0     C92532   2.530   5.122   6.712  0.3268 -0.2250 -0.2335
  686MOL0     O92533   2.416   5.160   6.763 -0.1212  0.0891 -0.1282
  686MOL0     C92534   2.313   5.067   6.789 -0.5213  0.1208  0.6075
  686MOL0     C92535   2.185   5.148   6.807 -0.1959 -0.0205  0.0367
  686MOL0     C92536   2.058   5.063   6.796 -0.6745 -0.2878  0.6352
  686MOL0     C92537   2.042   4.950   6.901 -0.1356 -0.4489 -0.4986
  686MOL0     C92538   2.020   5.006   7.035 -0.3406 -0.8926  0.5277
  686MOL0     C92539   2.003   5.039   7.145 -0.4046 -0.2275 -0.3422
  686MOL0     C92540   2.625   5.227   6.695  0.9191 -0.5244 -0.4393
  686MOL0     C92541   2.749   5.199   6.642 -0.7705  0.1880  0.0901
  686MOL0     C92542   2.847   5.314   6.637  0.4511 -0.1753 -0.5377
  686MOL0     H92543   3.236   4.926   6.703  0.7149  0.2513  0.8220
  686MOL0     H92544   3.458   4.910   6.567 -0.1355 -0.0323 -1.1744
  686MOL0     H92545   3.629   5.104   6.577  0.0806 -0.4882  0.2566
  686MOL0     H92546   3.666   4.966   6.487  2.6135  0.4441 -0.8098
  686MOL0     H92547   3.726   5.253   6.395 -0.6646  0.0649 -0.8299
  686MOL0     H92548   3.746   5.112   6.288 -3.4414  0.0585  0.5009
  686MOL0     H92549   3.921   5.030   6.452  1.1506  0.3488 -0.0744
  686MOL0     H92550   3.888   5.160   6.554 -2.5847  2.3922 -0.8162
  686MOL0     H92551   4.044   5.192   6.299  0.7920 -0.9513  0.3535
  686MOL0     H92552   3.948   5.331   6.347  1.0553  0.3554 -0.7412
  686MOL0     H92553   4.069   5.341   6.561 -2.0008  0.3644 -0.3462
  686MOL0     H92554   4.148   5.187   6.532  3.5946  1.6135  0.1225
  686MOL0     H92555   4.246   5.277   6.314 -2.6610  0.1824 -0.6136
  686MOL0     H92556   4.179   5.435   6.364  0.9125  0.8509 -1.1355
  686MOL0     H92557   4.384   5.281   6.546  1.9397  0.7746  1.0206
  686MOL0     H92558   4.323   5.445   6.561 -1.6519 -1.4017  1.1390
  686MOL0     H92559   4.507   5.340   6.349  1.6095  0.7998  1.6007
  686MOL0     H92560   4.403   5.495   6.344  2.0080  0.2518 -1.9353
  686MOL0     H92561   4.664   5.291   6.547  2.1631 -0.4501  2.6515
  686MOL0     H92562   4.915   5.389   6.587 -0.2853 -0.9755  1.1632
  686MOL0     H92563   4.922   5.542   6.677  0.6418 -0.6314  3.6003
  686MOL0     H92564   4.828   5.471   6.863 -3.5293 -0.8767 -0.5461
  686MOL0     H92565   4.768   5.315   6.799 -0.1867 -0.6333  3.0172
  686MOL0     H92566   4.982   5.220   6.802  0.9853  0.6690  0.5469
  686MOL0     H92567   4.947   5.284   6.958 -1.2336 -0.0232  0.2500
  686MOL0     H92568   5.111   5.399   6.720 -1.5652 -2.0181 -0.4670
  686MOL0     H92569   5.191   5.347   6.876  1.1431  1.5027 -1.5774
  686MOL0     H92570   5.352   5.507   6.785  1.0376  4.1289 -3.3620
  686MOL0     H92571   5.516   5.664   6.839  0.9838  2.0421  1.4391
  686MOL0     H92572   5.621   6.092   6.790  1.3291  1.8032 -0.8372
  686MOL0     H92573   5.802   6.244   6.768 -0.0503 -1.1323 -1.3702
  686MOL0     H92574   6.050   6.243   6.724  0.4689 -1.1019  1.4254
  686MOL0     H92575   5.980   6.387   6.808 -0.2294 -1.3727  0.8236
  686MOL0     H92576   6.221   6.411   6.918  2.1861 -1.3305 -0.6163
  686MOL0     H92577   6.267   6.278   6.802 -0.0879 -0.1269 -0.7960
  686MOL0     H92578   6.176   6.440   6.626  0.4904  3.8870 -1.2956
  686MOL0     H92579   6.191   6.570   6.749 -0.8139 -0.3837 -0.1117
  686MOL0     H92580   6.435   6.406   6.715 -0.5924  0.0049  2.5624
  686MOL0     H92581   6.411   6.547   6.802 -1.1499 -0.2366 -0.7190
  686MOL0     H92582   6.348   6.683   6.611 -0.9371 -0.9039  1.4256
  686MOL0     H92583   6.365   6.540   6.502 -0.4992 -5.1635  2.4086
  686MOL0     H92584   6.592   6.638   6.664  0.6376 -1.8414  0.5221
  686MOL0     H92585   6.602   6.524   6.536 -1.6123 -0.3401 -2.8386
  686MOL0     H92586   6.530   6.808   6.470 -3.8522 -2.0499 -1.9879
  686MOL0     H92587   6.583   6.676   6.362  1.7241  1.3560 -0.7743
  686MOL0     H92588   6.766   6.782   6.576 -3.4826  1.6268  1.3420
  686MOL0     H92589   6.794   6.674   6.442 -1.0329 -0.4011  1.5912
  686MOL0     H92590   6.012   6.040   7.073 -0.3230  1.6440  0.5660
  686MOL0     H92591   5.830   5.857   7.082 -1.2978  1.2079  1.7554
  686MOL0     H92592   5.270   5.860   7.126  1.8922  0.2999 -0.6998
  686MOL0     H92593   5.077   5.695   7.066 -1.4346 -2.5705 -0.7582
  686MOL0     H92594   3.314   5.182   6.284  1.7122  2.9230  0.3818
  686MOL0     H92595   3.098   5.212   6.403 -0.1799  1.3208  1.7984
  686MOL0     H92596   2.724   4.862   6.610 -0.1872  0.6062  0.4325
  686MOL0     H92597   2.495   4.912   6.698  0.7601 -1.1400  0.0022
  686MOL0     H92598   2.340   5.011   6.879  0.7690  2.0558  1.4829
  686MOL0     H92599   2.299   5.004   6.701 -1.8081  0.2374  0.7096
  686MOL0     H92600   2.192   5.218   6.724  5.5416 -1.1814 -0.8847
  686MOL0     H92601   2.197   5.192   6.907  3.4537 -0.1227 -0.2198
  686MOL0     H92602   2.053   5.020   6.696 -3.7072  0.3512  0.4200
  686MOL0     H92603   1.967   5.123   6.793 -0.7404 -0.4288 -0.4128
  686MOL0     H92604   1.956   4.886   6.878  0.5449 -1.8965  0.8082
  686MOL0     H92605   2.127   4.881   6.903 -1.7593 -2.6369 -1.8532
  686MOL0     H92606   1.978   5.098   7.231 -1.5654 -1.2478  0.0440
  686MOL0     H92607   2.584   5.326   6.712 -0.5627 -1.2763  0.6244
  686MOL0     H92608   2.886   5.332   6.738 -1.0151  0.6351 -0.0879
  686MOL0     H92609   2.920   5.297   6.557  0.6986 -3.3840  0.2284
  686MOL0     H92610   2.785   5.400   6.610 -1.1725  0.0299  3.3019
  687MOL0     O92611   0.668   6.088   3.439  0.0748  0.2543 -0.2149
  687MOL0     C92612   0.584   5.998   3.450  1.4596 -0.2203  1.0154
  687MOL0     O92613   0.602   5.876   3.502 -0.1178 -0.4704  0.5550
  687MOL0     C92614   0.731   5.844   3.511  0.9850  0.1604 -0.0577
  687MOL0     C92615   0.791   5.780   3.405 -0.5793 -0.7673  0.4912
  687MOL0     C92616   0.926   5.739   3.405  0.0045 -0.1195 -0.0012
  687MOL0     C92617   0.999   5.765   3.522  0.6542  0.6661 -1.0011
  687MOL0     O92618   1.136   5.741   3.520 -0.0689  0.0239  0.0164
  687MOL0     C92619   1.201   5.722   3.397 -0.2849  0.2474  0.2201
  687MOL0     C92620   1.229   5.852   3.328  0.1106  0.7623  0.5410
  687MOL0     C92621   1.313   5.945   3.421  0.3824  0.1278  1.0195
  687MOL0     C92622   1.451   5.904   3.453  0.1038 -0.6981 -0.2872
  687MOL0     C92623   1.533   6.020   3.521 -0.6749  0.2672  0.6536
  687MOL0     C92624   1.681   5.997   3.549  0.0322  0.6976  0.9440
  687MOL0     C92625   1.702   5.927   3.682  0.0997 -0.5434  0.3776
  687MOL0     C92626   1.797   5.992   3.782 -0.3285  0.0374  0.4297
  687MOL0     N92627   1.938   5.986   3.730  0.4151  0.3500  0.5745
  687MOL0     C92628   2.013   5.874   3.749 -0.0397 -0.4074 -1.4488
  687MOL0     C92629   2.125   5.882   3.677  0.2951 -0.0079 -0.2895
  687MOL0     C92630   2.231   5.780   3.660  0.4176  0.5689 -0.2942
  687MOL0     C92631   2.303   5.720   3.788 -0.5519 -0.4945  0.3315
  687MOL0     C92632   2.397   5.601   3.745 -0.1671 -0.0147  0.1773
  687MOL0     C92633   2.489   5.635   3.627  0.1679 -0.3505 -0.5124
  687MOL0     O92634   2.578   5.739   3.649 -0.7957 -0.7635 -0.1872
  687MOL0     C92635   2.718   5.706   3.654  0.9906  0.4141 -0.3114
  687MOL0     C92636   2.800   5.792   3.585 -0.3857 -0.3698  0.2279
  687MOL0     C92637   2.937   5.766   3.607 -0.1368 -0.4212  0.1699
  687MOL0     C92638   2.986   5.664   3.683  0.1142  0.1469 -0.2833
  687MOL0     C92639   3.136   5.649   3.684  0.1332  0.9084 -0.0888
  687MOL0     O92640   3.172   5.575   3.791  0.1998  0.2614 -0.0209
  687MOL0     C92641   3.303   5.561   3.812  0.3359 -0.3379  0.5750
  687MOL0     C92642   3.354   5.439   3.771 -0.5642  0.3415  0.8969
  687MOL0     C92643   3.491   5.414   3.783  0.6504 -0.3004  0.2094
  687MOL0     C92644   3.575   5.511   3.842 -0.1388 -0.2850  0.4422
  687MOL0     O92645   3.711   5.494   3.860  0.3525 -0.7797  0.0730
  687MOL0     C92646   3.771   5.406   3.768  0.3874  0.9962  0.0072
  687MOL0     C92647   3.920   5.424   3.745  0.2739 -0.0445  0.5745
  687MOL0     C92648   3.968   5.322   3.647 -0.4553  0.2911  0.3038
  687MOL0     C92649   4.123   5.311   3.632 -0.5299 -0.0869  0.4147
  687MOL0     C92650   4.204   5.437   3.599  0.0859 -0.0390  0.2935
  687MOL0     C92651   4.353   5.423   3.551  0.1729 -0.2300  0.5940
  687MOL0     C92652   4.440   5.552   3.547  0.3475 -0.0732  0.0338
  687MOL0     C92653   4.556   5.538   3.451  0.2465  0.1277  0.5477
  687MOL0    Cl92654   4.656   5.684   3.449 -0.5123  0.1385 -0.3344
  687MOL0     C92655   3.522   5.629   3.892  0.7240 -0.0251  0.2981
  687MOL0     C92656   3.379   5.654   3.881  0.9808 -0.4899 -0.2256
  687MOL0     O92657   3.212   5.708   3.609 -0.3688  0.8793 -0.5744
  687MOL0     C92658   2.897   5.573   3.740  0.9508 -0.0820 -0.0331
  687MOL0     C92659   2.763   5.599   3.718 -0.5118  1.1972 -0.6006
  687MOL0     N92660   2.117   6.004   3.614 -0.3733  0.0398  0.2664
  687MOL0     N92661   2.005   6.063   3.645  0.1230 -0.6387 -0.6790
  687MOL0     C92662   0.934   5.813   3.634 -0.1734  0.7606 -0.2585
  687MOL0     C92663   0.796   5.851   3.632  0.4149 -0.9212 -0.3047
  687MOL0     C92664   0.448   6.026   3.395  0.0843  0.4114 -0.3383
  687MOL0     C92665   0.442   6.091   3.272  0.0340 -0.5726  0.6470
  687MOL0     C92666   0.329   6.147   3.218 -0.1777  0.2232 -0.1367
  687MOL0     C92667   0.210   6.139   3.286  0.3733 -0.5134 -0.7786
  687MOL0     O92668   0.097   6.185   3.229 -0.4533 -0.1796  0.0895
  687MOL0     C92669  -0.031   6.176   3.291  0.4402 -0.2371  0.2319
  687MOL0     C92670  -0.156   6.175   3.194  0.1657 -0.1727 -0.1945
  687MOL0     C92671  -0.183   6.038   3.141  0.4627 -0.5773  0.2550
  687MOL0     C92672  -0.242   5.943   3.243  0.1090  0.2157  1.3128
  687MOL0     C92673  -0.256   5.811   3.177  0.4897 -0.0359  0.1318
  687MOL0     C92674  -0.262   5.697   3.129 -0.4815  0.5192 -0.3136
  687MOL0     C92675   0.212   6.071   3.411 -0.0505  0.8771  1.4750
  687MOL0     C92676   0.330   6.012   3.467  0.3166 -0.0240  0.6477
  687MOL0     C92677   0.318   5.948   3.603 -0.0259 -0.4101  0.7045
  687MOL0     H92678   0.734   5.765   3.314  0.7595 -1.4420 -0.2732
  687MOL0     H92679   0.961   5.708   3.307  2.3604  0.3774  0.6140
  687MOL0     H92680   1.302   5.682   3.406 -0.3447  0.0908  0.1860
  687MOL0     H92681   1.154   5.641   3.342  0.1197 -0.8428  1.4104
  687MOL0     H92682   1.134   5.901   3.304 -0.5596 -0.3243  0.8829
  687MOL0     H92683   1.280   5.832   3.233 -4.1770  1.3509 -2.1911
  687MOL0     H92684   1.253   5.967   3.509 -0.4324  1.2748  0.2030
  687MOL0     H92685   1.314   6.037   3.362 -0.4191 -0.1002  0.6328
  687MOL0     H92686   1.442   5.820   3.522 -1.5838 -2.3175 -2.3253
  687MOL0     H92687   1.510   5.875   3.365  1.3909  0.3848  0.1842
  687MOL0     H92688   1.537   6.113   3.463 -1.7117 -0.6644 -0.9979
  687MOL0     H92689   1.486   6.045   3.616 -1.5803  1.4227 -0.0804
  687MOL0     H92690   1.718   5.926   3.476 -0.9114 -0.1372  1.2591
  687MOL0     H92691   1.743   6.087   3.540 -2.7549  2.8032  1.3063
  687MOL0     H92692   1.752   5.835   3.650  1.0172  1.7390 -6.2916
  687MOL0     H92693   1.611   5.893   3.732  0.4147 -1.8049  0.1395
  687MOL0     H92694   1.760   6.094   3.796 -3.7162 -0.7257 -1.7335
  687MOL0     H92695   1.794   5.938   3.877  0.2430  0.7987  0.8826
  687MOL0     H92696   1.986   5.788   3.809 -2.6834  1.0372 -0.4026
  687MOL0     H92697   2.182   5.692   3.617 -2.3861  1.9608 -0.2076
  687MOL0     H92698   2.311   5.821   3.598 -0.2569  1.2247 -0.7509
  687MOL0     H92699   2.355   5.789   3.855 -1.7481  2.1363 -1.2952
  687MOL0     H92700   2.219   5.680   3.846 -1.5973 -1.9651 -2.0253
  687MOL0     H92701   2.324   5.527   3.709  1.3976 -1.6514  0.1965
  687MOL0     H92702   2.459   5.574   3.831 -0.4240  0.0178  0.3756
  687MOL0     H92703   2.424   5.648   3.540  1.3007  2.7553 -1.0082
  687MOL0     H92704   2.544   5.545   3.598 -0.5562 -0.8082 -0.4972
  687MOL0     H92705   2.765   5.879   3.530  0.6314  0.5947  1.0608
  687MOL0     H92706   3.008   5.829   3.554  2.4176 -1.8418  1.6824
  687MOL0     H92707   3.294   5.373   3.709  1.2223 -0.8230  0.3447
  687MOL0     H92708   3.525   5.320   3.741  1.8379  0.2260 -0.0371
  687MOL0     H92709   3.751   5.308   3.812  0.2111 -0.2089 -2.5492
  687MOL0     H92710   3.724   5.407   3.669 -2.7780 -1.7304  1.3043
  687MOL0     H92711   3.941   5.518   3.692  1.3665 -0.9596 -0.6781
  687MOL0     H92712   3.968   5.429   3.842 -0.9154  0.3087  1.1717
  687MOL0     H92713   3.924   5.224   3.669 -5.2757  1.4380 -2.5821
  687MOL0     H92714   3.938   5.355   3.547  0.1961  0.6888  0.2350
  687MOL0     H92715   4.138   5.237   3.552  2.5280  0.3857  0.4222
  687MOL0     H92716   4.167   5.274   3.725 -1.4784  0.6091  1.1529
  687MOL0     H92717   4.179   5.503   3.683 -0.8862 -2.3785  1.9582
  687MOL0     H92718   4.156   5.481   3.511 -0.7325 -0.7165  0.3808
  687MOL0     H92719   4.396   5.339   3.606  0.5968  0.3674  1.1987
  687MOL0     H92720   4.358   5.388   3.448  0.4571  0.2113  0.4546
  687MOL0     H92721   4.468   5.573   3.651 -0.2535  2.0779 -0.1965
  687MOL0     H92722   4.380   5.640   3.521 -0.9472  0.3317  3.6608
  687MOL0     H92723   4.606   5.449   3.490 -2.0747 -1.4764  0.1064
  687MOL0     H92724   4.527   5.513   3.348  0.7141  1.4190  0.0866
  687MOL0     H92725   3.592   5.699   3.936  1.8140 -1.1768  0.4503
  687MOL0     H92726   3.329   5.749   3.900 -3.4412 -2.5107 -0.3324
  687MOL0     H92727   2.926   5.488   3.801 -0.2583 -0.2050  0.3903
  687MOL0     H92728   2.692   5.534   3.768  0.4058  1.6030  1.3076
  687MOL0     H92729   0.995   5.817   3.724  1.0458 -2.2407 -0.8245
  687MOL0     H92730   0.733   5.892   3.710  2.0355  0.3604  0.3848
  687MOL0     H92731   0.531   6.106   3.211 -0.1933  2.6719  0.9424
  687MOL0     H92732   0.327   6.187   3.117  1.3225  1.4833  0.2977
  687MOL0     H92733  -0.039   6.260   3.361  3.5029 -0.4920  1.0139
  687MOL0     H92734  -0.035   6.089   3.357 -0.9855 -0.5785 -0.2808
  687MOL0     H92735  -0.128   6.240   3.111  0.9235 -2.2553 -1.6559
  687MOL0     H92736  -0.250   6.194   3.246  1.5690 -0.0971  2.4919
  687MOL0     H92737  -0.091   5.995   3.100  0.1576 -0.3360 -0.7063
  687MOL0     H92738  -0.257   6.049   3.061  0.7692  1.1588  0.1743
  687MOL0     H92739  -0.183   5.934   3.335 -1.1269  0.7220  2.1924
  687MOL0     H92740  -0.346   5.973   3.259  0.7662  3.4150  0.2559
  687MOL0     H92741  -0.260   5.602   3.080 -0.4904 -1.5268  3.2550
  687MOL0     H92742   0.133   6.082   3.485  1.7317  3.3367  3.1576
  687MOL0     H92743   0.237   5.996   3.659  1.5067  1.1716  1.6567
  687MOL0     H92744   0.306   5.841   3.589  0.6492 -0.7873  2.6546
  687MOL0     H92745   0.408   5.963   3.663 -0.8564  0.5669  1.7763
  688MOL0     O92746   3.619  11.036   2.641  0.4653 -1.3121 -0.0809
  688MOL0     C92747   3.530  10.993   2.709  0.2213 -0.2505  0.2628
  688MOL0     O92748   3.545  10.909   2.815  0.2764 -0.5933  0.3156
  688MOL0     C92749   3.673  10.875   2.844 -0.0122 -0.6655 -0.4588
  688MOL0     C92750   3.768  10.972   2.878  0.2103  0.3099  0.1214
  688MOL0     C92751   3.905  10.934   2.881  0.4144 -0.5877 -0.1028
  688MOL0     C92752   3.938  10.803   2.856  0.2502  0.3918  0.1178
  688MOL0     O92753   4.077  10.779   2.859  0.0673  0.2047 -0.2097
  688MOL0     C92754   4.130  10.654   2.815  0.2139 -0.1548  0.3214
  688MOL0     C92755   4.284  10.654   2.823 -0.2592  0.1107 -0.4568
  688MOL0     C92756   4.352  10.772   2.750 -0.5239 -0.5141 -0.4479
  688MOL0     C92757   4.494  10.757   2.715 -1.5941 -0.8415 -0.3810
  688MOL0     C92758   4.576  10.816   2.828  0.0771  0.3143 -0.3887
  688MOL0     C92759   4.729  10.802   2.809 -0.0802  0.0747 -0.4675
  688MOL0     C92760   4.826  10.881   2.899  0.0798  0.3584 -0.6375
  688MOL0     C92761   4.980  10.877   2.862  0.4134 -0.6190 -0.3451
  688MOL0     N92762   5.017  10.936   2.726  0.2683  0.2741 -0.0795
  688MOL0     C92763   5.023  11.067   2.691  0.1009 -0.1836 -0.5063
  688MOL0     C92764   5.095  11.077   2.573 -0.5386 -0.1196 -0.1547
  688MOL0     C92765   5.141  11.212   2.516  0.4062 -1.1329  0.8662
  688MOL0     C92766   5.125  11.224   2.364 -0.4929 -0.1182  0.0531
  688MOL0     C92767   4.985  11.190   2.310 -0.9438 -0.5007  0.4952
  688MOL0     C92768   4.872  11.295   2.352 -0.3806  0.6617 -0.2451
  688MOL0     O92769   4.759  11.282   2.255  0.5457 -0.0448  0.3360
  688MOL0     C92770   4.656  11.366   2.295 -0.8829 -0.0618  0.6848
  688MOL0     C92771   4.551  11.393   2.208  0.2132 -0.2394  0.4192
  688MOL0     C92772   4.442  11.467   2.235 -0.1824 -0.0337  0.0973
  688MOL0     C92773   4.432  11.525   2.365 -0.0597  0.3162 -0.4322
  688MOL0     C92774   4.313  11.603   2.401  0.0430  0.8405 -0.3033
  688MOL0     O92775   4.324  11.699   2.504 -0.5320  0.0988  0.1629
  688MOL0     C92776   4.218  11.778   2.540  0.5576  0.4203 -0.1646
  688MOL0     C92777   4.100  11.786   2.473 -0.1993 -1.2247  0.2783
  688MOL0     C92778   3.981  11.846   2.529 -0.3295  0.6749  0.0851
  688MOL0     C92779   3.994  11.919   2.644 -0.0776  0.2997 -0.2442
  688MOL0     O92780   3.896  11.994   2.702 -1.4861  0.0288  0.7525
  688MOL0     C92781   3.813  12.068   2.617  0.8762 -0.8493  0.8155
  688MOL0     C92782   3.710  12.131   2.715 -0.2101 -0.3145 -0.0044
  688MOL0     C92783   3.624  12.239   2.660  0.0812 -0.8206  0.7628
  688MOL0     C92784   3.644  12.306   2.527 -0.4925  0.3944 -0.6242
  688MOL0     C92785   3.518  12.370   2.474  0.9090  0.3542 -0.4854
  688MOL0     C92786   3.510  12.383   2.331 -0.3019  0.7687  0.4924
  688MOL0     C92787   3.377  12.354   2.269  0.5742 -0.3659  0.7493
  688MOL0     C92788   3.388  12.400   2.121 -0.0509 -0.3331 -0.0247
  688MOL0    Cl92789   3.375  12.578   2.115 -0.5611 -0.0736 -0.0317
  688MOL0     C92790   4.122  11.919   2.712  0.5187  0.9573 -0.8314
  688MOL0     C92791   4.230  11.838   2.670 -0.8014  0.1013 -0.5433
  688MOL0     O92792   4.207  11.567   2.343 -1.0753 -0.2451 -0.1181
  688MOL0     C92793   4.531  11.499   2.457  0.5907  0.2053 -0.6982
  688MOL0     C92794   4.643  11.421   2.424 -0.0621 -0.8410  0.1827
  688MOL0     N92795   5.121  10.941   2.535 -0.6826 -0.1005 -0.0987
  688MOL0     N92796   5.086  10.865   2.627  0.1813  0.5229 -0.4919
  688MOL0     C92797   3.842  10.710   2.828  0.7242 -0.0393 -0.3630
  688MOL0     C92798   3.709  10.746   2.823  0.4805 -0.4848  1.1639
  688MOL0     C92799   3.389  11.015   2.670 -0.0614  0.2503  0.0106
  688MOL0     C92800   3.299  10.905   2.678 -1.1629  0.9699 -1.0005
  688MOL0     C92801   3.179  10.904   2.610 -0.4648  0.0789  0.0638
  688MOL0     C92802   3.141  11.030   2.539  0.4578  0.4507  0.4273
  688MOL0     O92803   3.021  11.030   2.475  0.0933  0.1685 -0.5502
  688MOL0     C92804   3.004  11.083   2.348  0.1293  0.9261  0.7123
  688MOL0     C92805   2.904  11.201   2.343  0.3508  0.4783  0.3192
  688MOL0     C92806   2.873  11.261   2.202 -0.2482  0.3953 -1.2186
  688MOL0     C92807   2.743  11.339   2.207  0.3153  0.5625 -0.2073
  688MOL0     C92808   2.731  11.406   2.073 -0.0300 -0.1737  0.5842
  688MOL0     C92809   2.725  11.459   1.961  0.5283 -0.1149 -0.2526
  688MOL0     C92810   3.229  11.146   2.540  0.5012  0.5120 -0.2147
  688MOL0     C92811   3.352  11.136   2.610 -0.4315 -0.0363  0.2477
  688MOL0     C92812   3.442  11.262   2.608  1.0431 -0.4244  0.3912
  688MOL0     H92813   3.728  11.072   2.890  1.6470  0.6488  3.0526
  688MOL0     H92814   3.981  11.000   2.921  1.9081  0.5628 -4.2907
  688MOL0     H92815   4.101  10.569   2.879  1.0741  0.6832  1.9009
  688MOL0     H92816   4.097  10.636   2.713 -3.5147 -1.3428  1.5686
  688MOL0     H92817   4.341  10.565   2.794  1.8954  1.3994 -0.4379
  688MOL0     H92818   4.312  10.674   2.927 -0.5027 -2.0495  0.0620
  688MOL0     H92819   4.339  10.870   2.798 -0.3903  0.5978 -2.5512
  688MOL0     H92820   4.309  10.779   2.650  0.7950  0.5793 -0.9695
  688MOL0     H92821   4.525  10.652   2.703  0.4981 -0.2837 -0.1448
  688MOL0     H92822   4.527  10.802   2.621  2.3627 -0.8312  0.8264
  688MOL0     H92823   4.560  10.924   2.825 -0.8950  0.3608  2.7495
  688MOL0     H92824   4.543  10.778   2.925  0.8568 -2.0370 -0.9750
  688MOL0     H92825   4.763  10.698   2.811 -1.3338 -0.3862  2.4037
  688MOL0     H92826   4.749  10.839   2.708 -3.4193 -1.1302 -1.6959
  688MOL0     H92827   4.824  10.842   3.001 -0.6529  0.6201 -0.5427
  688MOL0     H92828   4.794  10.986   2.901  0.2206  0.3867  0.4351
  688MOL0     H92829   5.039  10.934   2.934 -2.0165  1.1781  0.3375
  688MOL0     H92830   5.007  10.771   2.871 -2.8940 -1.5488 -0.2704
  688MOL0     H92831   5.001  11.148   2.760  2.0221  0.5966 -0.7342
  688MOL0     H92832   5.093  11.290   2.576  0.7446 -0.0856 -0.1631
  688MOL0     H92833   5.248  11.216   2.538  1.0406  0.2987 -1.9714
  688MOL0     H92834   5.156  11.323   2.331  1.4320 -0.9461 -0.7803
  688MOL0     H92835   5.199  11.157   2.320 -0.2808 -0.4767  0.9178
  688MOL0     H92836   4.945  11.091   2.332 -3.9291 -0.7033 -4.3554
  688MOL0     H92837   4.994  11.204   2.202  2.3575 -0.0420  0.7365
  688MOL0     H92838   4.910  11.398   2.358 -0.4487  0.8681 -2.5670
  688MOL0     H92839   4.831  11.263   2.448  2.0360 -2.0771  0.0093
  688MOL0     H92840   4.553  11.359   2.105 -3.6669 -0.5677  0.2967
  688MOL0     H92841   4.362  11.492   2.167 -1.7006 -0.3564  1.7093
  688MOL0     H92842   4.091  11.746   2.373 -1.2469 -3.1295  1.0737
  688MOL0     H92843   3.880  11.843   2.490 -2.1257  0.1388  4.1653
  688MOL0     H92844   3.873  12.137   2.557 -0.6121 -0.3731 -0.2112
  688MOL0     H92845   3.755  12.007   2.547  1.6980  0.1774 -0.8246
  688MOL0     H92846   3.643  12.050   2.746  1.1283 -0.6292  2.3258
  688MOL0     H92847   3.757  12.160   2.810  1.7582 -0.8494 -0.7769
  688MOL0     H92848   3.519  12.208   2.662 -0.0045 -0.4912  1.6912
  688MOL0     H92849   3.632  12.318   2.736 -0.4641  1.5360 -1.4724
  688MOL0     H92850   3.677  12.232   2.453 -1.1811 -0.5080 -0.0549
  688MOL0     H92851   3.722  12.381   2.546 -0.7533  0.3902  0.5668
  688MOL0     H92852   3.489  12.465   2.521 -4.4735  0.1864 -2.7205
  688MOL0     H92853   3.434  12.309   2.507  0.9169  2.1081  3.3022
  688MOL0     H92854   3.539  12.486   2.311 -1.1233  1.3006  1.9497
  688MOL0     H92855   3.572  12.299   2.297 -1.9237 -0.1925 -0.2194
  688MOL0     H92856   3.311  12.431   2.309 -0.6505 -1.2722  0.5500
  688MOL0     H92857   3.340  12.252   2.284 -1.5632  0.3097  0.5214
  688MOL0     H92858   3.487  12.384   2.076  1.2270  3.3584  1.0622
  688MOL0     H92859   3.312  12.350   2.061 -2.7980 -0.2940  3.1452
  688MOL0     H92860   4.128  11.973   2.806  1.4633  0.7568 -0.7672
  688MOL0     H92861   4.322  11.826   2.726 -0.4103  0.2505 -1.1543
  688MOL0     H92862   4.521  11.555   2.549 -0.1967  0.6496 -1.0476
  688MOL0     H92863   4.700  11.389   2.510 -0.7480  0.2266  1.0545
  688MOL0     H92864   3.846  10.601   2.830 -1.6118 -0.1878  1.7423
  688MOL0     H92865   3.637  10.667   2.807 -0.6420  0.6295  0.5117
  688MOL0     H92866   3.325  10.808   2.719 -2.0074  0.3220 -1.9652
  688MOL0     H92867   3.117  10.814   2.608  0.9658 -1.0911  2.8337
  688MOL0     H92868   2.961  10.997   2.295  0.7994 -0.4647  2.3220
  688MOL0     H92869   3.097  11.111   2.297 -1.7982  1.4250 -2.8562
  688MOL0     H92870   2.942  11.285   2.401 -0.5216  1.5623 -0.6347
  688MOL0     H92871   2.809  11.161   2.379  0.8757 -0.9818  0.1441
  688MOL0     H92872   2.856  11.177   2.134 -5.3180  0.7270 -0.7653
  688MOL0     H92873   2.952  11.334   2.181 -1.7742  2.3562 -0.4823
  688MOL0     H92874   2.658  11.286   2.251  0.1855  0.3937 -0.6551
  688MOL0     H92875   2.759  11.418   2.282  1.3634 -1.5427  1.9360
  688MOL0     H92876   2.708  11.494   1.861 -0.1358 -1.5132 -0.6598
  688MOL0     H92877   3.199  11.242   2.501  0.1445  1.1039  1.4392
  688MOL0     H92878   3.469  11.271   2.714 -0.9816 -2.3827  1.1635
  688MOL0     H92879   3.532  11.251   2.547  1.2154 -0.3231  0.6238
  688MOL0     H92880   3.393  11.354   2.574 -1.2572 -1.2072  1.3894
  689MOL0     O92881   9.056   7.154   4.780 -0.2493  0.4991 -0.8156
  689MOL0     C92882   8.968   7.136   4.867 -0.1346  0.1455  0.3602
  689MOL0     O92883   8.975   7.057   4.971  0.3341 -0.1235  0.5592
  689MOL0     C92884   9.102   7.001   5.000  1.7948  0.8833 -0.2411
  689MOL0     C92885   9.160   7.029   5.123 -0.0276 -0.1441 -0.2729
  689MOL0     C92886   9.280   6.964   5.167  0.0611 -0.9552 -0.1524
  689MOL0     C92887   9.330   6.864   5.091  0.3273  0.8397  0.6959
  689MOL0     O92888   9.450   6.804   5.125  0.4483  0.1313  0.0252
  689MOL0     C92889   9.485   6.682   5.065 -0.6741 -0.0522  0.4281
  689MOL0     C92890   9.633   6.642   5.124  0.2578 -0.5226 -0.3917
  689MOL0     C92891   9.734   6.743   5.067  0.7702  0.5462  0.0392
  689MOL0     C92892   9.869   6.693   5.118  0.1189  0.0610 -1.0546
  689MOL0     C92893   9.978   6.792   5.069 -0.3116  1.3439 -0.4562
  689MOL0     C92894  10.112   6.725   5.107 -0.3662  0.8090  0.0409
  689MOL0     C92895  10.220   6.823   5.065 -0.2482 -0.0049  0.3371
  689MOL0     C92896  10.354   6.788   5.128 -0.1502 -0.5321  0.0601
  689MOL0     N92897  10.466   6.871   5.071 -0.4303  0.1529 -0.2703
  689MOL0     C92898  10.589   6.895   5.121 -0.5653 -0.1697 -0.7211
  689MOL0     C92899  10.650   6.990   5.046  0.9231  0.5459 -0.0140
  689MOL0     C92900  10.774   7.067   5.084 -0.5808  0.1319  0.2567
  689MOL0     C92901  10.735   7.216   5.097  0.3892 -0.6292  0.2733
  689MOL0     C92902  10.739   7.293   4.963  0.3919  0.7783  0.5155
  689MOL0     C92903  10.692   7.440   4.977  0.0499  1.0059 -0.2234
  689MOL0     O92904  10.691   7.506   4.843  0.5899  0.0392 -0.7260
  689MOL0     C92905  10.807   7.565   4.802  0.0457 -0.2647 -0.2268
  689MOL0     C92906  10.926   7.595   4.871  0.1290  0.5345 -0.5405
  689MOL0     C92907  11.036   7.659   4.816 -0.1917 -0.5297  0.0102
  689MOL0     C92908  11.044   7.698   4.685  0.3956  0.9302 -0.0973
  689MOL0     C92909  11.166   7.768   4.632  0.1555  0.7103 -0.1335
  689MOL0     O92910  11.257   7.820   4.714 -0.3441 -0.3363 -0.0844
  689MOL0     C92911  11.359   7.880   4.645 -0.1386  0.1072  0.1715
  689MOL0     C92912  11.339   8.024   4.618  0.2245  1.1385  0.2856
  689MOL0     C92913  11.443   8.099   4.558  0.0558  0.1387  0.3169
  689MOL0     C92914  11.565   8.040   4.517 -0.6223  0.4547 -0.3654
  689MOL0     O92915  11.662   8.115   4.460 -0.0739  0.5399  1.0052
  689MOL0     C92916  11.797   8.067   4.456  0.5161  0.2598 -0.1446
  689MOL0     C92917  11.884   8.175   4.390 -0.3728  0.8677 -0.0865
  689MOL0     C92918  12.009   8.109   4.320 -0.0781  0.1261 -0.1299
  689MOL0     C92919  12.126   8.212   4.303 -0.3899  0.2820 -0.1599
  689MOL0     C92920  12.100   8.287   4.173 -0.4796 -0.2040 -0.4520
  689MOL0     C92921  12.210   8.395   4.147  0.5619  0.1099 -0.4418
  689MOL0     C92922  12.192   8.467   4.014 -0.2482 -0.0646  0.5654
  689MOL0     C92923  12.319   8.550   3.999 -0.0340 -0.0689 -0.4409
  689MOL0    Cl92924  12.464   8.457   3.951 -0.0807 -0.3706  0.0876
  689MOL0     C92925  11.583   7.903   4.540  0.3037 -0.7480 -0.7246
  689MOL0     C92926  11.483   7.826   4.604  0.7044 -0.8809 -0.2563
  689MOL0     O92927  11.160   7.791   4.512 -0.1312  0.2498  0.0859
  689MOL0     C92928  10.918   7.692   4.610 -0.3993  0.3707  0.1966
  689MOL0     C92929  10.812   7.618   4.670 -0.3575  0.0447  0.2621
  689MOL0     N92930  10.563   7.007   4.935 -0.2544 -0.0988 -0.3109
  689MOL0     N92931  10.462   6.931   4.951 -0.2063  0.0303  0.6695
  689MOL0     C92932   9.281   6.843   4.962 -0.5130  0.0915 -0.8715
  689MOL0     C92933   9.167   6.903   4.918  0.1865 -0.0314 -0.1374
  689MOL0     C92934   8.838   7.213   4.861  0.0632  0.2764  1.5131
  689MOL0     C92935   8.738   7.191   4.952  0.5301  0.2602 -0.7505
  689MOL0     C92936   8.616   7.260   4.945  0.3539  0.1533 -0.2579
  689MOL0     C92937   8.588   7.344   4.849  0.1548 -0.1537 -0.7870
  689MOL0     O92938   8.457   7.396   4.858 -0.1652  0.4628  0.3352
  689MOL0     C92939   8.425   7.505   4.768  0.8545  0.1481 -0.5958
  689MOL0     C92940   8.272   7.527   4.753  0.1503  0.2894  0.6134
  689MOL0     C92941   8.208   7.582   4.874  0.2396 -0.3369  0.2057
  689MOL0     C92942   8.059   7.612   4.830 -0.6356  0.4349  0.3940
  689MOL0     C92943   7.984   7.693   4.930  0.3167  0.6942 -0.2297
  689MOL0     C92944   7.931   7.763   5.013 -0.2779 -0.3633  0.1941
  689MOL0     C92945   8.688   7.379   4.761 -0.3036 -0.3082 -0.0058
  689MOL0     C92946   8.809   7.310   4.760 -0.0084 -0.2736  0.2783
  689MOL0     C92947   8.904   7.365   4.657 -0.4299 -0.6338  0.4230
  689MOL0     H92948   9.110   7.104   5.184 -0.1607  1.4626 -2.2264
  689MOL0     H92949   9.325   7.004   5.257  2.2783  2.2412 -2.4916
  689MOL0     H92950   9.408   6.607   5.088  0.5265 -2.1531 -1.9610
  689MOL0     H92951   9.493   6.690   4.957 -0.8216  1.2536  0.4906
  689MOL0     H92952   9.654   6.541   5.089  0.4935 -1.1905  1.5469
  689MOL0     H92953   9.640   6.650   5.233 -0.6486  2.3324 -0.4520
  689MOL0     H92954   9.714   6.846   5.099  0.4525  1.3119 -2.3845
  689MOL0     H92955   9.726   6.728   4.959 -4.0426 -2.8897  0.5111
  689MOL0     H92956   9.858   6.695   5.227  0.2512 -0.9741 -1.0141
  689MOL0     H92957   9.898   6.592   5.086  1.0066 -1.0484  2.7336
  689MOL0     H92958   9.969   6.795   4.960  1.2519  1.5334 -0.5995
  689MOL0     H92959   9.964   6.890   5.116 -1.6448  1.6148 -1.3345
  689MOL0     H92960  10.111   6.715   5.216 -1.3575 -0.2865 -0.0453
  689MOL0     H92961  10.117   6.623   5.068  2.3807  0.8238  0.1643
  689MOL0     H92962  10.185   6.922   5.095 -0.4256 -1.2465  5.0028
  689MOL0     H92963  10.231   6.819   4.956  0.1208 -1.2261  0.3971
  689MOL0     H92964  10.345   6.801   5.237  2.2023  2.9784 -0.0342
  689MOL0     H92965  10.377   6.681   5.122  0.3415 -0.4644  0.6442
  689MOL0     H92966  10.632   6.855   5.212 -0.0277 -0.6158 -1.1651
  689MOL0     H92967  10.806   7.037   5.184 -0.1620 -1.9006 -0.4445
  689MOL0     H92968  10.855   7.048   5.014 -1.2532  0.1399 -0.5438
  689MOL0     H92969  10.636   7.230   5.142  0.8513 -0.8807  1.4087
  689MOL0     H92970  10.809   7.261   5.164  0.8893 -2.3829  0.9642
  689MOL0     H92971  10.672   7.242   4.893  2.0818  2.2513 -2.3817
  689MOL0     H92972  10.836   7.282   4.912 -1.1065  2.3173 -2.9491
  689MOL0     H92973  10.748   7.489   5.057 -0.8600  1.0050  0.4211
  689MOL0     H92974  10.589   7.437   5.014  1.3491  1.4923  3.9700
  689MOL0     H92975  10.943   7.563   4.973  0.0549 -1.4422 -1.1078
  689MOL0     H92976  11.125   7.660   4.878  0.8388 -3.4287 -1.2187
  689MOL0     H92977  11.245   8.058   4.659  0.6892  0.3150  2.1993
  689MOL0     H92978  11.450   8.204   4.534  2.2865  0.1548  0.8652
  689MOL0     H92979  11.828   8.042   4.557 -2.3579  2.6701  1.5112
  689MOL0     H92980  11.806   7.978   4.393 -2.6642 -1.2160  1.2734
  689MOL0     H92981  11.820   8.218   4.312  0.0281 -0.1971 -1.0319
  689MOL0     H92982  11.915   8.250   4.463  0.7909  0.5194 -0.2092
  689MOL0     H92983  12.040   8.033   4.392  0.0921  0.9507  0.6803
  689MOL0     H92984  11.987   8.056   4.227 -1.8192  1.4577 -0.5248
  689MOL0     H92985  12.223   8.162   4.299 -0.7531 -0.6929  1.8507
  689MOL0     H92986  12.138   8.267   4.397 -1.4542  1.1877 -0.5279
  689MOL0     H92987  12.003   8.337   4.187 -0.4937 -0.3127 -0.1392
  689MOL0     H92988  12.096   8.217   4.089 -2.4711 -2.2331  1.1911
  689MOL0     H92989  12.211   8.468   4.229  1.6610  0.0359 -0.3776
  689MOL0     H92990  12.304   8.340   4.148  0.9298  0.7115 -1.1951
  689MOL0     H92991  12.100   8.526   4.013  0.9071  1.8452 -1.1608
  689MOL0     H92992  12.185   8.396   3.931 -2.1607  0.0705  0.5877
  689MOL0     H92993  12.305   8.629   3.924 -3.5619  1.6054  1.7230
  689MOL0     H92994  12.336   8.601   4.094 -2.4711  1.2833 -0.6460
  689MOL0     H92995  11.672   7.853   4.502  1.1935  0.0098  0.3190
  689MOL0     H92996  11.498   7.719   4.616  0.4809 -0.8717  0.1193
  689MOL0     H92997  10.906   7.729   4.508 -3.1900  0.7266  0.5983
  689MOL0     H92998  10.727   7.592   4.608 -1.4628  0.1505  1.6804
  689MOL0     H92999   9.326   6.782   4.885 -0.4469  1.3844 -1.8895
  689MOL0     H93000   9.124   6.880   4.821 -3.0885  1.0202  0.9364
  689MOL0     H93001   8.766   7.109   5.019  1.0155  0.4644 -0.6988
  689MOL0     H93002   8.534   7.231   5.010 -0.4668  1.8834 -0.4770
  689MOL0     H93003   8.463   7.500   4.665  0.0641  2.7379 -1.1020
  689MOL0     H93004   8.470   7.593   4.815  0.8213  0.1861 -0.6345
  689MOL0     H93005   8.219   7.433   4.733  0.0163  0.0467  1.9675
  689MOL0     H93006   8.254   7.595   4.670 -2.9192 -2.4053 -1.1471
  689MOL0     H93007   8.248   7.682   4.894  1.6477 -0.0925 -3.0883
  689MOL0     H93008   8.206   7.518   4.963  2.0528  1.5739  1.7111
  689MOL0     H93009   8.052   7.663   4.734 -1.4329 -0.7353 -0.1892
  689MOL0     H93010   8.011   7.515   4.815  1.0550 -0.0277 -2.9351
  689MOL0     H93011   7.878   7.818   5.088  0.1627  0.2005  0.0962
  689MOL0     H93012   8.667   7.455   4.686 -1.9119 -1.4369 -0.7734
  689MOL0     H93013   8.917   7.294   4.575 -0.2330  0.4526 -0.5109
  689MOL0     H93014   8.867   7.459   4.615 -0.1390 -0.9030 -0.4614
  689MOL0     H93015   8.999   7.401   4.698 -1.2953 -1.8866  3.9071
  690MOL0     O93016   4.717   7.219   6.148  0.2732 -0.1172 -0.0063
  690MOL0     C93017   4.645   7.235   6.048  0.0397 -0.6566 -0.6495
  690MOL0     O93018   4.684   7.234   5.911 -0.1887 -0.4530  0.2140
  690MOL0     C93019   4.809   7.222   5.855  0.0007 -0.6720  0.4168
  690MOL0     C93020   4.833   7.267   5.722 -0.5267 -0.5557 -0.4169
  690MOL0     C93021   4.949   7.236   5.655  0.1578 -0.1573  0.8470
  690MOL0     C93022   5.054   7.174   5.715  0.0617  1.1542  0.0568
  690MOL0     O93023   5.167   7.169   5.636  0.2165  0.2649  0.6237
  690MOL0     C93024   5.296   7.155   5.702 -0.0731  0.2334  1.4772
  690MOL0     C93025   5.398   7.168   5.596 -0.4073 -0.2095 -0.3214
  690MOL0     C93026   5.401   7.300   5.519 -1.1302 -0.8054  0.9688
  690MOL0     C93027   5.504   7.293   5.404  0.8080  0.0035 -0.6220
  690MOL0     C93028   5.574   7.417   5.354 -0.6700 -0.0850 -0.1376
  690MOL0     C93029   5.681   7.381   5.255  0.5070 -0.9731  0.2215
  690MOL0     C93030   5.765   7.500   5.204  0.1375  0.1835  0.5385
  690MOL0     C93031   5.861   7.449   5.097 -0.5904 -0.0868 -0.0313
  690MOL0     N93032   5.811   7.426   4.965  0.1745 -0.2197 -0.0686
  690MOL0     C93033   5.799   7.511   4.860  0.1709 -0.3044  0.1492
  690MOL0     C93034   5.755   7.435   4.753 -0.0183  0.4339 -0.0737
  690MOL0     C93035   5.730   7.480   4.611 -0.4158  0.0474  0.4066
  690MOL0     C93036   5.621   7.587   4.606 -0.2379  0.2307 -0.2906
  690MOL0     C93037   5.568   7.597   4.458  0.0060 -0.3668 -0.5250
  690MOL0     C93038   5.437   7.680   4.454 -0.0747 -0.1212 -0.0592
  690MOL0     O93039   5.441   7.814   4.506 -0.0315 -0.1152  0.2930
  690MOL0     C93040   5.520   7.911   4.448 -0.3062  0.6475  0.0934
  690MOL0     C93041   5.524   8.040   4.508 -0.3023  0.5283  0.3209
  690MOL0     C93042   5.589   8.145   4.446  0.2707 -0.1711  0.2839
  690MOL0     C93043   5.649   8.131   4.324  0.8524 -0.4255  0.5003
  690MOL0     C93044   5.728   8.245   4.271  0.5224  0.6037 -0.3867
  690MOL0     O93045   5.741   8.359   4.353  0.4263  0.1674  0.5526
  690MOL0     C93046   5.842   8.453   4.329  0.5653 -0.0112 -0.0534
  690MOL0     C93047   5.973   8.406   4.346 -0.0230  0.5872 -0.1500
  690MOL0     C93048   6.078   8.496   4.328  0.3708  1.2737  0.4671
  690MOL0     C93049   6.063   8.629   4.275  0.3373  0.1633  0.3197
  690MOL0     O93050   6.159   8.716   4.247  0.4441 -0.7178 -0.0313
  690MOL0     C93051   6.278   8.652   4.192  0.5624  0.2263 -0.4834
  690MOL0     C93052   6.398   8.697   4.276  0.1444  0.2005 -0.4382
  690MOL0     C93053   6.513   8.595   4.282 -0.4061  0.9205  0.0551
  690MOL0     C93054   6.618   8.598   4.166  1.0336  0.0850  0.2227
  690MOL0     C93055   6.728   8.500   4.188 -1.4311  0.0164  0.0937
  690MOL0     C93056   6.817   8.536   4.300  0.3058  0.2582  0.1175
  690MOL0     C93057   6.942   8.452   4.304 -1.4057 -0.3979 -0.6378
  690MOL0     C93058   6.919   8.308   4.331  0.2757  0.1854 -0.4627
  690MOL0    Cl93059   6.877   8.213   4.179  0.2338  0.3577 -0.2006
  690MOL0     C93060   5.926   8.665   4.254 -0.2520  0.0844  0.3434
  690MOL0     C93061   5.820   8.581   4.292 -0.7899 -1.4289  0.4008
  690MOL0     O93062   5.777   8.236   4.157  0.5437  0.4716  0.2318
  690MOL0     C93063   5.642   8.004   4.262  0.2830 -0.4959 -0.1354
  690MOL0     C93064   5.588   7.891   4.334  0.0887  0.1215 -0.0189
  690MOL0     N93065   5.730   7.307   4.802  0.0061  0.2575  0.3440
  690MOL0     N93066   5.777   7.301   4.926 -0.1797  0.1844  0.6832
  690MOL0     C93067   5.038   7.139   5.846 -0.1373 -0.7262 -1.6116
  690MOL0     C93068   4.918   7.162   5.921 -0.0979  0.5554  0.1055
  690MOL0     C93069   4.493   7.238   6.084  1.0978 -0.8845 -0.0852
  690MOL0     C93070   4.445   7.190   6.207 -1.0141  0.6120 -0.0292
  690MOL0     C93071   4.314   7.214   6.254 -0.5797 -0.5062 -0.9114
  690MOL0     C93072   4.216   7.281   6.172  0.0838 -0.1353 -0.0105
  690MOL0     O93073   4.084   7.295   6.214 -0.9283 -0.6103 -0.0721
  690MOL0     C93074   3.989   7.213   6.140  0.2038 -0.6592  0.0762
  690MOL0     C93075   3.851   7.212   6.199  0.1413  0.5635 -0.4380
  690MOL0     C93076   3.841   7.109   6.317 -0.0394  0.3634  0.6215
  690MOL0     C93077   3.715   7.127   6.396 -0.2271  0.7925 -0.0526
  690MOL0     C93078   3.611   7.065   6.327  0.2159 -0.2798  0.3913
  690MOL0     C93079   3.532   7.003   6.255 -0.5867  0.4449 -0.5487
  690MOL0     C93080   4.266   7.325   6.051 -0.9994 -0.1630  0.2222
  690MOL0     C93081   4.397   7.306   6.009  0.9283 -0.0507  0.0165
  690MOL0     C93082   4.412   7.390   5.885  1.3108  0.3982  1.0166
  690MOL0     H93083   4.761   7.332   5.673 -0.6111  1.3318  2.0255
  690MOL0     H93084   4.965   7.255   5.549  1.6064  1.6805  1.3427
  690MOL0     H93085   5.318   7.242   5.764  3.1705  0.9270 -0.3799
  690MOL0     H93086   5.307   7.058   5.752  0.0788 -1.7758 -2.0888
  690MOL0     H93087   5.390   7.089   5.520  1.4413 -0.9867  0.2117
  690MOL0     H93088   5.498   7.167   5.641  0.5424  2.3571 -2.1624
  690MOL0     H93089   5.412   7.393   5.576  0.4093 -0.6051  0.4001
  690MOL0     H93090   5.300   7.315   5.479 -0.1424 -0.0771 -1.4345
  690MOL0     H93091   5.572   7.209   5.427 -1.2887 -2.1653 -1.9016
  690MOL0     H93092   5.452   7.255   5.316  4.0972 -1.7373 -2.0089
  690MOL0     H93093   5.499   7.484   5.312 -1.2231 -0.1897  0.6541
  690MOL0     H93094   5.631   7.454   5.440  1.1224 -6.0003  1.7360
  690MOL0     H93095   5.741   7.309   5.311 -0.4540  1.2732  4.5631
  690MOL0     H93096   5.638   7.327   5.170  1.3521 -1.4656  0.1028
  690MOL0     H93097   5.826   7.537   5.287 -0.2658  2.0145  0.0803
  690MOL0     H93098   5.719   7.586   5.153  2.2296  0.6306 -0.7312
  690MOL0     H93099   5.942   7.522   5.099 -0.2026 -0.4277 -1.6536
  690MOL0     H93100   5.907   7.355   5.128  2.3847  0.4065 -2.5386
  690MOL0     H93101   5.821   7.617   4.859  1.9230 -0.6200  0.5466
  690MOL0     H93102   5.815   7.507   4.547 -1.4268  0.6621 -0.7145
  690MOL0     H93103   5.701   7.397   4.545 -3.3853  2.0618 -1.0529
  690MOL0     H93104   5.542   7.565   4.679 -0.4115  2.2609  0.2003
  690MOL0     H93105   5.666   7.683   4.636 -0.5855  0.2463  0.2164
  690MOL0     H93106   5.544   7.498   4.418 -1.6234 -0.0817 -0.3458
  690MOL0     H93107   5.642   7.650   4.398  1.0663 -1.5608 -0.3308
  690MOL0     H93108   5.363   7.620   4.509  0.2152 -2.8870 -2.4212
  690MOL0     H93109   5.405   7.680   4.350 -0.7601  0.3669  0.1430
  690MOL0     H93110   5.481   8.062   4.605 -1.8910  0.5487 -0.3522
  690MOL0     H93111   5.590   8.238   4.503  1.3786  0.3517 -0.5608
  690MOL0     H93112   5.980   8.304   4.383  0.3586  0.4003 -0.7128
  690MOL0     H93113   6.179   8.458   4.341  1.0962  2.6026 -0.9737
  690MOL0     H93114   6.268   8.543   4.185 -1.8719  0.4940 -3.9222
  690MOL0     H93115   6.283   8.681   4.086  0.2668 -0.2058 -0.6177
  690MOL0     H93116   6.429   8.801   4.269 -2.0543  0.8044 -2.5454
  690MOL0     H93117   6.350   8.691   4.374 -0.7112  0.4205 -0.8315
  690MOL0     H93118   6.572   8.618   4.371 -1.2516  3.0485  0.1314
  690MOL0     H93119   6.465   8.497   4.296  0.0707  0.6863  0.0823
  690MOL0     H93120   6.666   8.693   4.140 -2.0094  1.5461 -0.5772
  690MOL0     H93121   6.569   8.565   4.073  3.3380 -2.9487 -0.0781
  690MOL0     H93122   6.799   8.491   4.105 -0.7686  2.6664  0.2888
  690MOL0     H93123   6.692   8.398   4.207  0.3901 -0.1295  3.5666
  690MOL0     H93124   6.850   8.640   4.287  0.1688  0.3172  0.2411
  690MOL0     H93125   6.755   8.527   4.390 -3.3249  2.7245 -1.8391
  690MOL0     H93126   6.999   8.485   4.392  0.0367 -1.8750 -0.9829
  690MOL0     H93127   6.995   8.471   4.210 -3.5740  3.4048 -1.3103
  690MOL0     H93128   6.996   8.261   4.393 -0.6580  3.0307  3.1959
  690MOL0     H93129   6.836   8.299   4.402  1.6707 -0.4450  1.1294
  690MOL0     H93130   5.894   8.761   4.216 -2.5837 -1.0761 -0.8235
  690MOL0     H93131   5.716   8.605   4.274  0.0729  2.5923 -0.0211
  690MOL0     H93132   5.695   7.985   4.169  0.2846  0.2048 -0.2852
  690MOL0     H93133   5.592   7.797   4.280 -0.3313  0.3034 -0.3757
  690MOL0     H93134   5.120   7.100   5.906 -0.6955 -1.1356 -1.0928
  690MOL0     H93135   4.921   7.143   6.028  0.7822  0.4570  0.0718
  690MOL0     H93136   4.509   7.131   6.272 -1.8039 -0.1635  0.0610
  690MOL0     H93137   4.298   7.176   6.354  1.2045  0.7851 -0.0747
  690MOL0     H93138   4.030   7.112   6.146 -0.4295 -0.8850  0.6935
  690MOL0     H93139   3.980   7.255   6.039  0.2756  2.1599  1.1423
  690MOL0     H93140   3.785   7.179   6.118  1.8673  0.7006 -1.9750
  690MOL0     H93141   3.818   7.312   6.227  2.2945  1.0050  0.7887
  690MOL0     H93142   3.932   7.120   6.378 -1.1885  0.4976  2.3800
  690MOL0     H93143   3.849   7.010   6.271 -0.1322 -1.2314  3.7227
  690MOL0     H93144   3.722   7.074   6.492 -0.2531  0.0582 -0.4493
  690MOL0     H93145   3.691   7.233   6.386 -1.6688  0.3262 -2.2490
  690MOL0     H93146   3.484   6.937   6.185  2.3172 -4.5607  1.6307
  690MOL0     H93147   4.190   7.364   5.985 -0.3552 -3.7650 -3.0384
  690MOL0     H93148   4.434   7.496   5.903  1.6027  0.3953  0.7051
  690MOL0     H93149   4.486   7.351   5.814 -1.0221 -0.0693 -1.3061
  690MOL0     H93150   4.322   7.387   5.823  0.7517  0.0323  1.8340
  691MOL0     O93151   5.309   4.827   6.972 -0.3011 -0.2558 -0.4647
  691MOL0     C93152   5.270   4.732   6.905  0.1513  0.7092 -0.8632
  691MOL0     O93153   5.360   4.632   6.864  0.2022  0.0149  0.1835
  691MOL0     C93154   5.499   4.652   6.893 -0.4020  0.3032  0.1163
  691MOL0     C93155   5.561   4.750   6.825  0.2670 -0.8804  0.4195
  691MOL0     C93156   5.691   4.786   6.851 -0.1823  0.8355 -0.3771
  691MOL0     C93157   5.764   4.717   6.950 -0.4298  0.0192  0.4952
  691MOL0     O93158   5.885   4.784   6.985 -0.0441  0.0993  0.7158
  691MOL0     C93159   5.997   4.705   7.030  0.4601 -0.6368  0.1133
  691MOL0     C93160   6.114   4.801   7.039  0.0095 -0.0608  0.3444
  691MOL0     C93161   6.242   4.729   7.083  0.7686 -0.2365  0.4910
  691MOL0     C93162   6.358   4.816   7.054  0.4224 -0.1797  0.7460
  691MOL0     C93163   6.480   4.747   7.114 -0.3774  0.5550 -0.0363
  691MOL0     C93164   6.611   4.802   7.064 -0.5789 -0.2445 -0.0330
  691MOL0     C93165   6.660   4.923   7.149  0.0421 -0.4683 -0.2500
  691MOL0     C93166   6.797   4.975   7.127 -0.1827 -0.0684 -0.6139
  691MOL0     N93167   6.823   5.096   7.209  0.5300  0.2228 -0.5807
  691MOL0     C93168   6.756   5.221   7.216 -0.4365  0.2996  0.0979
  691MOL0     C93169   6.837   5.308   7.287 -0.5946  0.7628 -0.1679
  691MOL0     C93170   6.809   5.452   7.314 -0.5446  0.4682 -0.2833
  691MOL0     C93171   6.903   5.543   7.228 -0.0446 -0.4294  0.3241
  691MOL0     C93172   6.850   5.556   7.086  0.2306  0.0624  1.1281
  691MOL0     C93173   6.955   5.546   6.968 -0.0766 -0.1001  0.5022
  691MOL0     O93174   6.892   5.556   6.843 -0.0524  1.0647  0.3818
  691MOL0     C93175   6.790   5.467   6.808 -0.6065 -0.0821 -0.1695
  691MOL0     C93176   6.671   5.516   6.757 -0.2881  0.1557  0.9004
  691MOL0     C93177   6.568   5.429   6.719  0.7102  0.5647 -0.6859
  691MOL0     C93178   6.573   5.293   6.764 -0.3194 -0.0089 -0.0073
  691MOL0     C93179   6.471   5.192   6.733 -0.3801 -0.2648 -0.0363
  691MOL0     O93180   6.376   5.223   6.632 -0.5744  0.3140 -0.1033
  691MOL0     C93181   6.269   5.140   6.607  0.6977  0.2402  0.4647
  691MOL0     C93182   6.233   5.140   6.477 -0.7759  0.0092 -0.1779
  691MOL0     C93183   6.116   5.067   6.434  0.2930 -0.4443 -0.0292
  691MOL0     C93184   6.035   4.997   6.528 -0.6805 -0.3709  0.9112
  691MOL0     O93185   5.922   4.929   6.493 -0.2396  0.0470 -0.0538
  691MOL0     C93186   5.851   4.969   6.372 -0.0718 -0.6387 -0.3954
  691MOL0     C93187   5.709   4.920   6.388 -0.1560 -0.3151  0.0414
  691MOL0     C93188   5.704   4.771   6.387 -0.5865  0.3341  0.5423
  691MOL0     C93189   5.573   4.701   6.449 -0.2640  0.7275  0.6126
  691MOL0     C93190   5.448   4.782   6.437 -0.5281 -0.8450 -0.1850
  691MOL0     C93191   5.334   4.710   6.514 -0.5572  0.0063 -0.2934
  691MOL0     C93192   5.272   4.606   6.423  0.4923 -0.3328 -0.2717
  691MOL0     C93193   5.127   4.594   6.442  0.7746 -0.1354 -0.3594
  691MOL0    Cl93194   5.060   4.484   6.315 -0.3226 -0.4691 -0.3817
  691MOL0     C93195   6.087   4.988   6.657  0.5104  0.6715 -0.5392
  691MOL0     C93196   6.197   5.063   6.699 -0.5065 -0.4965 -0.0208
  691MOL0     O93197   6.472   5.082   6.792  0.7297 -0.0497 -0.4430
  691MOL0     C93198   6.696   5.256   6.828 -0.5707 -0.0098 -0.3810
  691MOL0     C93199   6.804   5.337   6.847 -0.3605 -0.4270  0.1128
  691MOL0     N93200   6.952   5.243   7.319  0.0767 -0.2844  0.3614
  691MOL0     N93201   6.945   5.121   7.269  0.1626  0.3303  0.1626
  691MOL0     C93202   5.709   4.608   7.018 -0.5021  0.2640  0.2022
  691MOL0     C93203   5.580   4.574   6.983  0.4002 -0.1956  0.8808
  691MOL0     C93204   5.131   4.699   6.912  0.3025 -0.6523 -0.3622
  691MOL0     C93205   5.089   4.565   6.934  0.1220  0.2240 -0.1725
  691MOL0     C93206   4.952   4.532   6.941 -0.3468 -0.1259  1.0503
  691MOL0     C93207   4.848   4.621   6.913 -0.3503 -0.3002  0.3223
  691MOL0     O93208   4.718   4.603   6.898 -0.0717  0.1623 -0.3027
  691MOL0     C93209   4.667   4.472   6.935  0.2473  0.4939  1.4383
  691MOL0     C93210   4.524   4.478   6.869 -0.0260  0.4679 -0.4321
  691MOL0     C93211   4.426   4.555   6.962 -0.4497 -0.1169 -0.2100
  691MOL0     C93212   4.286   4.500   6.960 -0.4435 -0.5306 -0.0727
  691MOL0     C93213   4.209   4.512   6.824  0.1568 -0.1631  0.1710
  691MOL0     C93214   4.159   4.502   6.712 -0.4091 -0.5952  0.6656
  691MOL0     C93215   4.889   4.751   6.893  0.4263 -0.1901  0.4435
  691MOL0     C93216   5.024   4.792   6.904  0.0540  0.0626  0.5841
  691MOL0     C93217   5.046   4.946   6.891 -0.2977 -0.6010 -0.8933
  691MOL0     H93218   5.499   4.810   6.758  0.6059  0.2458  1.0961
  691MOL0     H93219   5.742   4.870   6.806 -1.3074  1.6872 -0.1055
  691MOL0     H93220   5.974   4.664   7.129 -1.5681 -1.1253 -0.5116
  691MOL0     H93221   6.001   4.627   6.954 -1.3456 -0.9493  0.2901
  691MOL0     H93222   6.092   4.879   7.112 -2.6227  1.6718 -2.1198
  691MOL0     H93223   6.134   4.857   6.948  2.9618 -1.2625  0.1395
  691MOL0     H93224   6.244   4.632   7.031 -2.7120  0.4594 -1.3029
  691MOL0     H93225   6.237   4.691   7.185 -2.5599 -2.1813 -0.2198
  691MOL0     H93226   6.376   4.836   6.948  1.5238 -3.5743  0.1741
  691MOL0     H93227   6.344   4.915   7.098 -0.3521  0.1254 -0.1628
  691MOL0     H93228   6.477   4.749   7.224  0.4825  1.5195 -0.0162
  691MOL0     H93229   6.475   4.642   7.085  0.7610  0.9199 -1.6601
  691MOL0     H93230   6.683   4.720   7.060 -0.6216 -0.3310  0.7558
  691MOL0     H93231   6.595   4.840   6.963  2.1197 -1.1710 -0.9045
  691MOL0     H93232   6.652   4.894   7.254  1.1511 -0.0834 -0.0482
  691MOL0     H93233   6.597   5.007   7.119  0.9309 -0.0939 -1.0869
  691MOL0     H93234   6.876   4.900   7.138  1.2353  1.6613  1.9165
  691MOL0     H93235   6.810   4.994   7.020  2.4885 -3.0724 -0.9738
  691MOL0     H93236   6.660   5.243   7.169 -0.0353  1.2921 -0.2742
  691MOL0     H93237   6.702   5.470   7.300 -1.9554 -4.6555  1.4886
  691MOL0     H93238   6.840   5.465   7.418  2.7020 -1.2926 -0.9007
  691MOL0     H93239   6.899   5.643   7.272  2.6908 -0.3188  0.5017
  691MOL0     H93240   7.008   5.511   7.228  0.8594  2.2541  1.2444
  691MOL0     H93241   6.789   5.647   7.081 -0.5687 -0.4354  1.7128
  691MOL0     H93242   6.775   5.479   7.068 -0.5344  0.8324  0.9093
  691MOL0     H93243   7.013   5.453   6.970 -0.4588 -0.4210 -1.2683
  691MOL0     H93244   7.020   5.634   6.971 -0.1249 -0.0692  0.6403
  691MOL0     H93245   6.639   5.619   6.746 -2.7243 -0.6787 -0.8637
  691MOL0     H93246   6.477   5.464   6.670  1.8220  1.2889 -2.3086
  691MOL0     H93247   6.293   5.196   6.406 -0.7840  1.0572  0.6225
  691MOL0     H93248   6.086   5.056   6.330  0.2962 -2.4124  0.1422
  691MOL0     H93249   5.842   5.078   6.369 -3.5106 -0.8358 -1.1736
  691MOL0     H93250   5.892   4.934   6.276 -0.1745  2.7941 -1.8404
  691MOL0     H93251   5.663   4.962   6.478 -1.7773  2.1149 -1.7956
  691MOL0     H93252   5.648   4.963   6.308  0.3518  1.0189  0.3429
  691MOL0     H93253   5.711   4.737   6.284  3.3862  0.4662  0.6162
  691MOL0     H93254   5.794   4.737   6.438  0.2958  4.6578  2.3843
  691MOL0     H93255   5.574   4.698   6.558 -4.0246  0.1805  0.7405
  691MOL0     H93256   5.554   4.603   6.404 -0.3360 -0.2160  2.5829
  691MOL0     H93257   5.412   4.809   6.337 -4.3275  0.4360  1.3161
  691MOL0     H93258   5.460   4.873   6.497 -0.0768 -1.3653  0.5283
  691MOL0     H93259   5.376   4.669   6.607 -0.7021 -1.9038 -1.0338
  691MOL0     H93260   5.254   4.777   6.547  0.2834  1.3165 -0.8472
  691MOL0     H93261   5.308   4.509   6.458 -1.2500 -0.3704  1.6219
  691MOL0     H93262   5.287   4.620   6.316 -0.9157  0.3526 -0.3965
  691MOL0     H93263   5.107   4.563   6.545  0.1586  0.6929 -0.2186
  691MOL0     H93264   5.079   4.692   6.438 -0.2193 -0.3271  3.1243
  691MOL0     H93265   6.043   4.919   6.730  2.6081  0.6567  0.7919
  691MOL0     H93266   6.237   5.055   6.799  0.7196 -2.5482 -0.6083
  691MOL0     H93267   6.706   5.150   6.846 -0.2928  0.2323  0.9568
  691MOL0     H93268   6.890   5.301   6.902 -0.1667 -1.0858 -0.5982
  691MOL0     H93269   5.767   4.567   7.100  0.2213  1.4448  0.3009
  691MOL0     H93270   5.531   4.483   7.016 -1.4591  0.2410 -0.5075
  691MOL0     H93271   5.163   4.487   6.951  0.0926 -0.4121 -2.5373
  691MOL0     H93272   4.919   4.428   6.947 -3.0933  0.3374 -2.5945
  691MOL0     H93273   4.666   4.465   7.044  0.3900 -1.4106  1.3452
  691MOL0     H93274   4.719   4.390   6.884 -2.6306 -1.4007  1.3347
  691MOL0     H93275   4.491   4.375   6.849 -1.2239  0.6810  0.3386
  691MOL0     H93276   4.531   4.522   6.769  1.7439 -0.8654 -0.9339
  691MOL0     H93277   4.422   4.662   6.939  2.5637  0.6860  2.3311
  691MOL0     H93278   4.457   4.549   7.066 -2.3192 -2.1217  0.3160
  691MOL0     H93279   4.297   4.395   6.985  2.0592 -0.2175  0.3777
  691MOL0     H93280   4.230   4.539   7.045  0.8732 -0.5161  0.8111
  691MOL0     H93281   4.111   4.480   6.618  0.9203 -0.0853 -0.1712
  691MOL0     H93282   4.804   4.818   6.883  0.6070 -0.0382 -0.1175
  691MOL0     H93283   5.134   4.963   6.829  0.4604 -0.3061  0.2297
  691MOL0     H93284   4.958   4.991   6.845 -1.7679 -5.6574 -3.9067
  691MOL0     H93285   5.064   4.990   6.990  0.5568  0.9677 -1.7166
  692MOL0     O93286   3.810   9.097   8.203  0.1206 -1.3201  0.6012
  692MOL0     C93287   3.744   9.133   8.301  0.1181  0.2371  0.5316
  692MOL0     O93288   3.769   9.249   8.375  0.3605 -0.6690  0.3347
  692MOL0     C93289   3.889   9.308   8.396 -1.2120  0.5699  1.0579
  692MOL0     C93290   3.884   9.443   8.407  0.4572  0.0628 -0.5929
  692MOL0     C93291   4.002   9.520   8.430  1.0380  0.3149 -0.3227
  692MOL0     C93292   4.123   9.453   8.445  0.5789 -0.9073 -0.6232
  692MOL0     O93293   4.228   9.533   8.453  1.0575 -0.0614 -0.0237
  692MOL0     C93294   4.338   9.505   8.361  0.4012  0.0526  0.3779
  692MOL0     C93295   4.439   9.415   8.425 -0.5835  0.2388 -0.2112
  692MOL0     C93296   4.569   9.406   8.341 -0.4374 -0.8920 -0.5352
  692MOL0     C93297   4.668   9.350   8.440 -0.3099  1.5539  0.1152
  692MOL0     C93298   4.806   9.364   8.381 -0.1247 -0.2984 -0.4136
  692MOL0     C93299   4.913   9.330   8.478  0.4103 -1.5770  0.3315
  692MOL0     C93300   5.020   9.234   8.417  0.1625  0.2531 -0.2638
  692MOL0     C93301   5.140   9.198   8.517  0.3091 -0.5017 -0.4037
  692MOL0     N93302   5.197   9.074   8.479  0.4468 -0.0212 -0.9348
  692MOL0     C93303   5.295   9.038   8.388 -0.0275 -0.1997  0.7541
  692MOL0     C93304   5.316   8.913   8.414 -0.3840  0.2365 -0.1300
  692MOL0     C93305   5.433   8.842   8.347  0.1853  0.3049  0.8660
  692MOL0     C93306   5.431   8.831   8.195  0.4636  1.1402 -0.3337
  692MOL0     C93307   5.543   8.734   8.149  1.2887  0.0184 -0.1546
  692MOL0     C93308   5.676   8.779   8.193 -0.4418  0.5986 -0.6513
  692MOL0     O93309   5.764   8.702   8.111 -0.0315  0.4866  0.5114
  692MOL0     C93310   5.892   8.746   8.087 -0.1264 -0.4622  0.2353
  692MOL0     C93311   5.971   8.818   8.177 -0.5048  0.6840 -0.9386
  692MOL0     C93312   6.092   8.879   8.143  0.4670  0.2443 -0.0971
  692MOL0     C93313   6.158   8.841   8.029 -0.4982 -0.5228  0.1424
  692MOL0     C93314   6.282   8.913   7.988  0.7150 -0.3309 -0.2411
  692MOL0     O93315   6.363   8.838   7.909  0.4270 -0.5105  0.3705
  692MOL0     C93316   6.489   8.879   7.872  0.8448  0.1583  0.1658
  692MOL0     C93317   6.588   8.780   7.849  0.6660  0.6630 -0.5576
  692MOL0     C93318   6.710   8.823   7.791  0.4048  0.4931 -0.1650
  692MOL0     C93319   6.735   8.955   7.764  0.9850 -0.2075  0.4363
  692MOL0     O93320   6.856   8.978   7.717 -0.1255 -0.5609  0.2783
  692MOL0     C93321   6.871   9.102   7.643  0.3845 -0.2918 -0.2277
  692MOL0     C93322   7.012   9.113   7.589 -0.0811  0.7181 -0.7713
  692MOL0     C93323   7.085   8.973   7.541  0.2905 -0.0258 -0.2273
  692MOL0     C93324   7.223   8.987   7.469  0.3050 -0.2896 -0.5890
  692MOL0     C93325   7.253   8.858   7.397 -0.2571 -0.6620  0.3047
  692MOL0     C93326   7.396   8.813   7.397  0.7029  0.6366 -0.3747
  692MOL0     C93327   7.483   8.916   7.311  1.6872  0.7171 -0.3065
  692MOL0     C93328   7.627   8.869   7.296 -0.1331 -0.1135  0.4237
  692MOL0    Cl93329   7.723   8.838   7.454 -0.1722  0.2295  0.0935
  692MOL0     C93330   6.634   9.051   7.786 -0.6836 -0.9599  0.5701
  692MOL0     C93331   6.508   9.005   7.832  0.7529  0.3801 -0.1600
  692MOL0     O93332   6.297   9.024   8.037  0.1993  0.4020  0.7074
  692MOL0     C93333   6.098   8.749   7.940  1.0702 -0.7758 -0.0262
  692MOL0     C93334   5.960   8.707   7.970 -0.0730 -0.5792 -0.4282
  692MOL0     N93335   5.226   8.866   8.506  0.5495  0.3272 -1.0341
  692MOL0     N93336   5.155   8.968   8.543 -0.2874  0.3213  0.4462
  692MOL0     C93337   4.128   9.316   8.430  0.3811 -0.2634  0.2505
  692MOL0     C93338   4.014   9.238   8.399 -0.3924 -0.2482 -0.1741
  692MOL0     C93339   3.650   9.031   8.359 -0.8924  0.1925 -1.0609
  692MOL0     C93340   3.670   9.004   8.497  0.1142 -0.3523 -0.1082
  692MOL0     C93341   3.600   8.906   8.568 -0.3014 -0.4965 -0.4353
  692MOL0     C93342   3.506   8.832   8.498  0.2287 -0.6527 -0.4503
  692MOL0     O93343   3.429   8.739   8.561  0.2198  0.2185  0.1108
  692MOL0     C93344   3.336   8.781   8.656  0.1069 -0.4130 -0.0528
  692MOL0     C93345   3.211   8.838   8.575  0.4966  0.0162 -0.5418
  692MOL0     C93346   3.156   8.723   8.494  0.0604 -0.2238 -1.1832
  692MOL0     C93347   3.026   8.768   8.435 -0.3712 -0.4336  0.4149
  692MOL0     C93348   2.992   8.665   8.334  0.1322 -0.3983  0.0945
  692MOL0     C93349   2.966   8.589   8.247  0.1842  0.2885  0.9332
  692MOL0     C93350   3.494   8.844   8.363 -0.9650 -0.5039 -0.3316
  692MOL0     C93351   3.569   8.939   8.288 -0.3087  0.3824 -0.8043
  692MOL0     C93352   3.553   8.935   8.140 -0.5857  0.1125 -0.0639
  692MOL0     H93353   3.786   9.485   8.392 -0.1933 -1.3302 -0.3783
  692MOL0     H93354   4.010   9.628   8.431  1.5672  0.3670  2.9890
  692MOL0     H93355   4.302   9.470   8.263 -4.0536 -0.4266  1.9425
  692MOL0     H93356   4.379   9.603   8.338  4.3447 -1.1814  1.4658
  692MOL0     H93357   4.407   9.311   8.433 -0.7687  0.3198  0.1478
  692MOL0     H93358   4.446   9.460   8.524 -1.6240  0.8333 -0.4019
  692MOL0     H93359   4.593   9.510   8.318  3.4407 -1.0351  1.9303
  692MOL0     H93360   4.563   9.346   8.250 -2.5918 -0.9008 -0.4549
  692MOL0     H93361   4.683   9.407   8.532  2.5548 -1.3404  1.6530
  692MOL0     H93362   4.645   9.246   8.464  2.8105 -0.5939 -4.5864
  692MOL0     H93363   4.799   9.297   8.295 -1.8282  0.9489 -1.2995
  692MOL0     H93364   4.824   9.466   8.348 -1.4125  0.7559  1.8654
  692MOL0     H93365   4.953   9.426   8.512 -0.5388 -1.3375  0.8019
  692MOL0     H93366   4.874   9.282   8.568  0.4717 -0.0749  1.1912
  692MOL0     H93367   5.062   9.272   8.324 -0.7320  0.4138 -0.6104
  692MOL0     H93368   4.970   9.142   8.384  0.1021  0.4606 -0.7639
  692MOL0     H93369   5.200   9.290   8.513  0.8049 -0.8143 -0.2316
  692MOL0     H93370   5.107   9.187   8.621 -4.7074  1.4949 -1.5137
  692MOL0     H93371   5.361   9.102   8.330 -3.6129  2.3706 -0.8886
  692MOL0     H93372   5.516   8.910   8.372 -0.3406  1.3769 -0.1715
  692MOL0     H93373   5.441   8.742   8.391 -1.2550  0.5210  1.6818
  692MOL0     H93374   5.335   8.792   8.160  1.3524 -0.4198 -1.1292
  692MOL0     H93375   5.441   8.928   8.146 -1.5451  0.6033 -1.9398
  692MOL0     H93376   5.533   8.741   8.040  1.0406 -3.1062 -0.4015
  692MOL0     H93377   5.525   8.628   8.165 -0.0635 -0.2407 -2.8269
  692MOL0     H93378   5.681   8.736   8.294 -0.1915  0.0428 -0.8981
  692MOL0     H93379   5.700   8.886   8.194 -0.5057  0.6138 -0.5655
  692MOL0     H93380   5.921   8.851   8.267 -0.2921 -0.5202 -0.3616
  692MOL0     H93381   6.121   8.961   8.208 -0.0959 -0.6861  1.3694
  692MOL0     H93382   6.567   8.676   7.870 -0.8786  1.4974  2.5517
  692MOL0     H93383   6.789   8.750   7.784  2.8272  3.0607 -1.9247
  692MOL0     H93384   6.802   9.100   7.558  2.5224 -3.7362 -2.0976
  692MOL0     H93385   6.862   9.190   7.707  3.6782 -0.3642  0.4849
  692MOL0     H93386   7.024   9.162   7.492  0.1609  1.5647 -0.3254
  692MOL0     H93387   7.074   9.171   7.658  0.7345  0.1491 -1.0009
  692MOL0     H93388   7.076   8.892   7.614 -2.8897 -1.3858 -1.9365
  692MOL0     H93389   7.008   8.945   7.468 -1.1385 -2.2782  1.9883
  692MOL0     H93390   7.294   8.993   7.552 -2.0582  1.1961  1.4675
  692MOL0     H93391   7.228   9.077   7.407 -4.3290 -0.6529 -1.8427
  692MOL0     H93392   7.226   8.877   7.293  0.5083 -1.8463 -0.1329
  692MOL0     H93393   7.200   8.773   7.441 -1.2438  0.6637  1.7304
  692MOL0     H93394   7.422   8.814   7.503 -1.8659  1.1722  0.3352
  692MOL0     H93395   7.390   8.718   7.344 -2.4428  1.5487 -1.9403
  692MOL0     H93396   7.494   9.010   7.367 -2.9300  0.5063  1.3659
  692MOL0     H93397   7.433   8.943   7.218 -0.4282 -1.2450  0.1804
  692MOL0     H93398   7.619   8.779   7.235  1.7097  1.4516 -2.2992
  692MOL0     H93399   7.680   8.934   7.227 -0.2814 -0.6950 -0.2443
  692MOL0     H93400   6.657   9.154   7.760  2.4559 -1.7081 -0.0633
  692MOL0     H93401   6.419   9.067   7.841  0.2876 -0.3285  0.2287
  692MOL0     H93402   6.140   8.718   7.845 -0.4073  0.4393 -1.1188
  692MOL0     H93403   5.912   8.634   7.906 -0.7380 -1.4276  0.9916
  692MOL0     H93404   4.212   9.255   8.462  0.7722 -0.1152 -0.4647
  692MOL0     H93405   4.026   9.133   8.375  0.7498 -0.0212 -0.6810
  692MOL0     H93406   3.742   9.059   8.556  0.5221  0.5708 -1.4183
  692MOL0     H93407   3.618   8.885   8.673 -1.3536 -5.8136 -1.0501
  692MOL0     H93408   3.385   8.863   8.710 -0.5949  1.6528 -2.3617
  692MOL0     H93409   3.305   8.698   8.721  0.9619 -0.0279  0.8869
  692MOL0     H93410   3.246   8.911   8.502 -1.6401 -0.2821 -1.9414
  692MOL0     H93411   3.135   8.882   8.640  2.0442 -1.8631  2.7955
  692MOL0     H93412   3.136   8.636   8.558 -1.5458  0.7569 -0.2975
  692MOL0     H93413   3.227   8.691   8.417  1.3335  0.4231 -0.2993
  692MOL0     H93414   2.943   8.767   8.506  1.5128  1.2252  2.8414
  692MOL0     H93415   3.050   8.867   8.394  0.7742 -0.4634  0.9473
  692MOL0     H93416   2.927   8.524   8.171  3.2662 -1.0481  0.3479
  692MOL0     H93417   3.438   8.763   8.317 -2.1063  0.1682 -0.1750
  692MOL0     H93418   3.654   8.915   8.102  0.7799  3.2965  1.4860
  692MOL0     H93419   3.483   8.856   8.114 -0.4336  0.5451 -1.9330
  692MOL0     H93420   3.519   9.031   8.098  0.1902  1.7043  2.6900
  693MOL0     O93421   9.326   1.088   1.619 -0.6447  0.6335 -0.3029
  693MOL0     C93422   9.246   1.035   1.539  0.2343  0.8307  0.2812
  693MOL0     O93423   9.267   0.912   1.472 -0.1817  0.8870 -0.1694
  693MOL0     C93424   9.388   0.858   1.458 -0.1867  0.1581  0.5919
  693MOL0     C93425   9.485   0.853   1.561  0.4038 -0.2623 -0.8042
  693MOL0     C93426   9.606   0.790   1.540  1.6324  1.2565  0.1964
  693MOL0     C93427   9.630   0.723   1.417 -0.8344  0.4792  0.6678
  693MOL0     O93428   9.742   0.654   1.397 -0.0225  0.2976  0.1139
  693MOL0     C93429   9.857   0.682   1.478  0.6119  0.1313  0.3781
  693MOL0     C93430   9.976   0.623   1.406  0.0803 -0.5001  0.4635
  693MOL0     C93431  10.108   0.651   1.480  0.0129 -0.2619  0.1208
  693MOL0     C93432  10.116   0.646   1.635 -0.3620  0.5498  0.8860
  693MOL0     C93433  10.260   0.663   1.674 -0.1040  0.2048 -0.5734
  693MOL0     C93434  10.283   0.666   1.831  0.2848  1.0957  0.3163
  693MOL0     C93435  10.230   0.794   1.900  0.7193  0.2526 -0.3116
  693MOL0     C93436  10.321   0.919   1.911  0.3290 -0.0692 -0.1555
  693MOL0     N93437  10.451   0.890   1.988  0.1247 -0.1142  0.2838
  693MOL0     C93438  10.476   0.913   2.122  0.9680  0.4902  0.1464
  693MOL0     C93439  10.599   0.855   2.126  0.7341 -0.1305  0.2032
  693MOL0     C93440  10.683   0.868   2.250  0.2503  0.0272 -0.3246
  693MOL0     C93441  10.744   1.007   2.267  0.6211 -0.6034  0.2878
  693MOL0     C93442  10.865   1.008   2.359  0.0579 -0.3498  0.1818
  693MOL0     C93443  10.891   1.156   2.406 -0.0583  0.1947 -0.6414
  693MOL0     O93444  10.895   1.243   2.297  1.1377 -0.4562  0.0023
  693MOL0     C93445  10.921   1.374   2.324 -0.8302 -0.3819 -0.2166
  693MOL0     C93446  10.934   1.432   2.453  0.1066  0.4422  0.2792
  693MOL0     C93447  10.939   1.568   2.467  0.1383 -0.1400 -0.5849
  693MOL0     C93448  10.921   1.651   2.360 -0.0910  0.0996 -0.0665
  693MOL0     C93449  10.928   1.800   2.384 -0.0588  1.1011  0.0259
  693MOL0     O93450  10.869   1.889   2.304 -0.6142 -0.1296  0.4117
  693MOL0     C93451  10.906   2.022   2.326 -0.2549  0.2420  0.6936
  693MOL0     C93452  10.830   2.101   2.415  0.5661  0.1733 -0.2063
  693MOL0     C93453  10.874   2.237   2.433 -0.3587  0.8320 -0.1298
  693MOL0     C93454  10.987   2.289   2.365 -0.2689  0.6655 -0.0868
  693MOL0     O93455  11.023   2.424   2.375 -0.2533  0.7058 -0.0326
  693MOL0     C93456  11.079   2.477   2.497  0.0557  0.3412 -0.0102
  693MOL0     C93457  11.223   2.520   2.464  0.6436  0.0677 -0.6818
  693MOL0     C93458  11.318   2.407   2.416 -0.2620 -0.4122  1.2012
  693MOL0     C93459  11.457   2.457   2.363  0.3237  0.8641  1.0867
  693MOL0     C93460  11.558   2.481   2.475 -0.6820 -0.4620  0.3102
  693MOL0     C93461  11.684   2.537   2.432  0.5475 -0.8632  0.6526
  693MOL0     C93462  11.778   2.545   2.549 -0.2389  0.3176  0.4559
  693MOL0     C93463  11.903   2.620   2.510 -0.3470 -0.8255  0.8060
  693MOL0    Cl93464  11.881   2.801   2.504 -0.2425  0.3009 -0.1476
  693MOL0     C93465  11.045   2.217   2.262 -0.2326  0.0523 -0.5213
  693MOL0     C93466  11.010   2.076   2.246 -0.1997 -0.2434  0.5558
  693MOL0     O93467  11.002   1.827   2.476  0.6162 -0.5807  0.0369
  693MOL0     C93468  10.921   1.598   2.223 -1.0414  0.7683 -0.3461
  693MOL0     C93469  10.917   1.459   2.213  0.6560 -0.4732  0.2674
  693MOL0     N93470  10.643   0.804   2.005  0.4228 -0.1683 -0.1335
  693MOL0     N93471  10.545   0.826   1.922 -0.3178  0.6733  0.0246
  693MOL0     C93472   9.524   0.714   1.323 -1.2255 -0.9816 -0.9976
  693MOL0     C93473   9.401   0.776   1.349  0.4890  0.2294  0.1755
  693MOL0     C93474   9.119   1.102   1.507  0.8384  0.3083  0.4857
  693MOL0     C93475   9.076   1.104   1.378  0.5679 -0.2653 -0.1733
  693MOL0     C93476   8.951   1.161   1.346 -0.3763  0.3016  0.9434
  693MOL0     C93477   8.872   1.220   1.436 -0.6666 -0.1731  0.7037
  693MOL0     O93478   8.754   1.283   1.403 -0.4427 -0.2003 -0.5781
  693MOL0     C93479   8.682   1.258   1.275 -0.9261  0.7981 -0.8761
  693MOL0     C93480   8.560   1.352   1.265 -0.9646 -0.3174 -0.1693
  693MOL0     C93481   8.452   1.332   1.374  0.2614 -0.3071  0.8815
  693MOL0     C93482   8.315   1.388   1.349  0.1425  0.7436 -0.6365
  693MOL0     C93483   8.215   1.356   1.458 -0.3886 -0.2332 -1.0053
  693MOL0     C93484   8.129   1.344   1.532  1.2163 -0.1622 -0.6839
  693MOL0     C93485   8.915   1.213   1.563  0.7264 -0.7004 -1.1482
  693MOL0     C93486   9.028   1.157   1.606 -0.4829  1.7180  0.2085
  693MOL0     C93487   9.053   1.131   1.748 -0.3867 -0.0857  0.3134
  693MOL0     H93488   9.478   0.903   1.656  2.0001 -0.1744 -0.7073
  693MOL0     H93489   9.679   0.775   1.618  0.4048  0.1351  1.1607
  693MOL0     H93490   9.866   0.790   1.496 -2.8138  1.1924 -2.7494
  693MOL0     H93491   9.850   0.633   1.575  1.1316 -2.0658 -0.6268
  693MOL0     H93492   9.977   0.644   1.299 -0.2740 -2.8480 -0.0539
  693MOL0     H93493   9.971   0.514   1.397  1.0121 -0.5940  0.9998
  693MOL0     H93494  10.128   0.757   1.461 -0.9249  0.0245  0.6789
  693MOL0     H93495  10.184   0.590   1.430  2.3728  4.0552 -2.2565
  693MOL0     H93496  10.066   0.730   1.685  2.8542  1.5600  2.6890
  693MOL0     H93497  10.080   0.553   1.678  0.8312  0.7347  2.3430
  693MOL0     H93498  10.315   0.578   1.631  0.0108  1.7931 -3.8619
  693MOL0     H93499  10.301   0.756   1.633 -0.7159  0.8687  0.2994
  693MOL0     H93500  10.228   0.581   1.871 -0.6406  1.1253 -0.8144
  693MOL0     H93501  10.390   0.657   1.848  0.0639 -0.9955  0.7704
  693MOL0     H93502  10.211   0.774   2.005 -0.4376  0.2056 -0.5172
  693MOL0     H93503  10.143   0.828   1.842  1.3356 -1.6199 -2.4836
  693MOL0     H93504  10.353   0.952   1.812 -1.1360  1.2177 -0.2280
  693MOL0     H93505  10.267   1.005   1.951  1.5309  2.3558 -3.3924
  693MOL0     H93506  10.423   0.962   2.203  1.2857 -0.8111  1.1793
  693MOL0     H93507  10.627   0.838   2.339  0.7156 -3.2035 -0.9817
  693MOL0     H93508  10.764   0.795   2.245  2.1329  2.0839 -3.2084
  693MOL0     H93509  10.779   1.046   2.171  2.9491 -2.7249  0.1971
  693MOL0     H93510  10.674   1.081   2.307  0.8281 -1.2173  1.8550
  693MOL0     H93511  10.960   0.975   2.315 -0.3285  0.0536 -0.9976
  693MOL0     H93512  10.845   0.937   2.440  1.9527  1.6220  2.5103
  693MOL0     H93513  10.987   1.150   2.458  0.4346  0.7261 -1.4661
  693MOL0     H93514  10.808   1.178   2.473 -0.2459 -0.0936 -0.7791
  693MOL0     H93515  10.943   1.374   2.545 -1.0162 -1.8546 -0.9545
  693MOL0     H93516  10.962   1.610   2.565  0.9853  0.7236 -1.1427
  693MOL0     H93517  10.744   2.051   2.458  1.2731 -2.5533 -1.6865
  693MOL0     H93518  10.824   2.311   2.494 -1.0903  0.7466 -0.6098
  693MOL0     H93519  11.014   2.559   2.527 -4.1586 -2.8654  0.5590
  693MOL0     H93520  11.083   2.409   2.583 -0.3749  1.5024  0.9435
  693MOL0     H93521  11.232   2.596   2.386  1.7061  1.5628  0.7985
  693MOL0     H93522  11.252   2.571   2.557 -0.7106  1.8282 -1.1639
  693MOL0     H93523  11.343   2.337   2.497 -0.1439 -1.9258 -0.1001
  693MOL0     H93524  11.269   2.347   2.340 -2.2091 -1.2789  3.0175
  693MOL0     H93525  11.441   2.545   2.299 -0.1071 -0.6095 -0.9044
  693MOL0     H93526  11.507   2.389   2.294 -1.4623 -3.1936  3.4922
  693MOL0     H93527  11.582   2.395   2.539 -0.9167 -1.0151 -0.3288
  693MOL0     H93528  11.504   2.554   2.536 -1.4524 -0.0938 -0.7914
  693MOL0     H93529  11.720   2.480   2.346  0.4903  2.8996 -2.1371
  693MOL0     H93530  11.661   2.638   2.395  0.5723 -1.6671 -1.7720
  693MOL0     H93531  11.807   2.444   2.580  1.5352  0.6212 -0.0874
  693MOL0     H93532  11.741   2.589   2.642 -0.4633  4.5257 -1.3929
  693MOL0     H93533  11.991   2.605   2.573  0.6325  2.1054  0.2774
  693MOL0     H93534  11.938   2.584   2.413 -1.5599  0.2356 -0.0642
  693MOL0     H93535  11.118   2.258   2.193  2.8335 -0.6194  2.0726
  693MOL0     H93536  11.061   2.012   2.174 -1.4360 -2.2153  1.3637
  693MOL0     H93537  10.907   1.656   2.133 -1.1682  0.7650 -0.3282
  693MOL0     H93538  10.912   1.420   2.112  0.4521  2.0475 -0.7685
  693MOL0     H93539   9.538   0.648   1.238 -0.1679  0.2162 -1.7917
  693MOL0     H93540   9.319   0.764   1.279 -0.3184 -2.2629  1.4545
  693MOL0     H93541   9.138   1.058   1.303 -1.4265 -1.1103 -1.3917
  693MOL0     H93542   8.916   1.131   1.247  2.1850  2.5117 -0.7943
  693MOL0     H93543   8.651   1.154   1.271 -0.4811  0.6625 -0.8764
  693MOL0     H93544   8.748   1.271   1.189 -1.3464 -0.8463 -1.4830
  693MOL0     H93545   8.517   1.343   1.165  1.2966  1.9490 -1.5042
  693MOL0     H93546   8.600   1.452   1.285 -0.3245 -0.6052  0.0396
  693MOL0     H93547   8.487   1.370   1.471  2.9009 -2.9982  1.1408
  693MOL0     H93548   8.440   1.225   1.393 -2.8058  0.0034  1.1148
  693MOL0     H93549   8.314   1.495   1.325  1.0688  0.6864 -0.9594
  693MOL0     H93550   8.277   1.343   1.257  0.9123  0.8933 -1.0397
  693MOL0     H93551   8.051   1.320   1.601 -0.2319 -2.1581 -2.8390
  693MOL0     H93552   8.845   1.252   1.637  0.5075  0.0577 -1.7427
  693MOL0     H93553   8.959   1.150   1.801 -1.0106 -1.5901 -0.1903
  693MOL0     H93554   9.096   1.031   1.762  2.0931  0.9995  0.9337
  693MOL0     H93555   9.133   1.200   1.776 -0.7030  0.3812  0.0752
  694MOL0     O93556   3.598   3.464   5.810 -0.0305  0.8674 -0.7602
  694MOL0     C93557   3.576   3.365   5.884  0.5781  0.7185 -0.7631
  694MOL0     O93558   3.667   3.302   5.961  0.0239 -0.4595 -0.2075
  694MOL0     C93559   3.790   3.365   5.965  0.1108  0.1298 -0.5100
  694MOL0     C93560   3.817   3.447   6.070 -0.7467 -0.1645 -0.3387
  694MOL0     C93561   3.944   3.509   6.069 -1.1861  0.3152  0.0574
  694MOL0     C93562   4.048   3.470   5.984 -0.0672  0.2858  0.7859
  694MOL0     O93563   4.167   3.536   5.998 -0.5604 -0.5236  1.0132
  694MOL0     C93564   4.260   3.449   6.052  0.2896 -0.0749  0.1432
  694MOL0     C93565   4.358   3.541   6.132  0.3966 -0.9456 -0.1253
  694MOL0     C93566   4.455   3.473   6.234 -0.1609  0.3144  0.0068
  694MOL0     C93567   4.567   3.571   6.271 -0.2200 -1.0025 -0.5821
  694MOL0     C93568   4.671   3.512   6.376 -0.0962  1.1327 -0.3560
  694MOL0     C93569   4.778   3.613   6.399  0.4218 -0.3334 -0.8551
  694MOL0     C93570   4.884   3.571   6.494  0.3587  0.3428  0.5477
  694MOL0     C93571   4.960   3.448   6.440  0.0119  0.3857 -0.3948
  694MOL0     N93572   5.068   3.420   6.529  0.2045  0.7900  0.3131
  694MOL0     C93573   5.056   3.383   6.662 -0.3676  0.0065 -0.2202
  694MOL0     C93574   5.180   3.347   6.695 -0.2218  0.2412 -0.4814
  694MOL0     C93575   5.218   3.315   6.836 -0.3843 -0.8090  0.0863
  694MOL0     C93576   5.315   3.422   6.900 -0.2389 -0.0903 -0.5592
  694MOL0     C93577   5.340   3.406   7.051 -0.1148  0.2786 -0.3574
  694MOL0     C93578   5.450   3.495   7.095  0.4791  0.0943 -0.9681
  694MOL0     O93579   5.473   3.491   7.237 -0.0293 -0.0495  0.2988
  694MOL0     C93580   5.525   3.609   7.293  0.3178  0.2407 -0.5549
  694MOL0     C93581   5.582   3.723   7.240  0.5042 -0.3107  0.8743
  694MOL0     C93582   5.616   3.831   7.323  0.1300  0.3326  0.1943
  694MOL0     C93583   5.615   3.831   7.467 -0.3794  0.3858  0.2327
  694MOL0     C93584   5.658   3.938   7.558 -0.8454  0.0354  0.2575
  694MOL0     O93585   5.680   4.058   7.499  0.5888 -0.3240  0.2087
  694MOL0     C93586   5.768   4.136   7.561  0.2633 -0.5906 -0.0407
  694MOL0     C93587   5.732   4.215   7.671  0.2655  0.4926 -0.6109
  694MOL0     C93588   5.828   4.277   7.747 -0.1722  0.3979  0.1879
  694MOL0     C93589   5.964   4.282   7.708  0.2657  0.0011  0.3512
  694MOL0     O93590   6.060   4.353   7.779  0.3660 -0.3242  0.8704
  694MOL0     C93591   6.193   4.312   7.749 -0.4499  0.7301  0.5269
  694MOL0     C93592   6.281   4.350   7.867 -0.2772  0.3386  0.8245
  694MOL0     C93593   6.423   4.280   7.871 -0.1773  0.2731  0.3641
  694MOL0     C93594   6.499   4.268   7.741  0.0107 -0.1251  1.3697
  694MOL0     C93595   6.645   4.254   7.769 -0.1229  0.0460 -0.3239
  694MOL0     C93596   6.697   4.113   7.795  0.4606  0.0947  0.8259
  694MOL0     C93597   6.841   4.081   7.773  0.0325  0.5846 -0.2155
  694MOL0     C93598   6.863   3.932   7.756 -0.0529  0.7861  0.4755
  694MOL0    Cl93599   6.753   3.827   7.870 -0.2185 -0.6084 -0.3298
  694MOL0     C93600   5.993   4.228   7.580 -0.1551 -0.9402  0.6542
  694MOL0     C93601   5.896   4.153   7.513  0.1527  0.2398 -0.3339
  694MOL0     O93602   5.684   3.905   7.675  0.9467  0.6312 -0.1772
  694MOL0     C93603   5.552   3.709   7.520  0.4083 -0.3667 -1.0662
  694MOL0     C93604   5.510   3.608   7.437 -0.0135 -0.8297  0.5095
  694MOL0     N93605   5.261   3.360   6.588 -0.2223  0.0212  0.0138
  694MOL0     N93606   5.191   3.399   6.486 -0.1826  0.6085 -0.3236
  694MOL0     C93607   4.018   3.377   5.882 -0.8260 -0.4153 -1.3132
  694MOL0     C93608   3.887   3.325   5.874  0.4392 -0.0128  0.4069
  694MOL0     C93609   3.444   3.298   5.866  0.1015 -0.5962  0.1735
  694MOL0     C93610   3.427   3.167   5.910  0.1921 -0.4327 -0.2653
  694MOL0     C93611   3.317   3.090   5.885 -0.9412  0.2936  0.3574
  694MOL0     C93612   3.204   3.145   5.826  1.1187  0.1533 -0.0332
  694MOL0     O93613   3.096   3.064   5.826 -0.6074 -0.5740  0.2576
  694MOL0     C93614   2.971   3.118   5.779 -0.1276 -0.3140  1.0028
  694MOL0     C93615   2.853   3.028   5.803 -0.1970  0.4187 -0.7018
  694MOL0     C93616   2.868   2.905   5.703 -0.8965  0.8448  0.0513
  694MOL0     C93617   2.770   2.797   5.739 -0.5223 -0.0436  0.4396
  694MOL0     C93618   2.637   2.830   5.690 -0.4611 -0.0997  0.9111
  694MOL0     C93619   2.517   2.846   5.659 -1.0688 -1.0973 -0.5112
  694MOL0     C93620   3.218   3.282   5.790  0.2859  0.0827 -0.4107
  694MOL0     C93621   3.332   3.357   5.800 -0.1353 -0.3688 -0.6696
  694MOL0     C93622   3.315   3.504   5.776 -0.8531 -0.2463  0.0306
  694MOL0     H93623   3.747   3.475   6.149  1.4022 -1.9962  2.4032
  694MOL0     H93624   3.960   3.569   6.158 -0.9245  1.2713 -0.6140
  694MOL0     H93625   4.212   3.378   6.120  0.0396  1.4114  1.5968
  694MOL0     H93626   4.300   3.391   5.969 -2.1185  0.8922 -1.7932
  694MOL0     H93627   4.295   3.604   6.196  0.9206 -1.0683  0.5109
  694MOL0     H93628   4.426   3.584   6.057 -0.2588  1.7846  0.7092
  694MOL0     H93629   4.497   3.383   6.187 -0.8732 -0.4221  0.7657
  694MOL0     H93630   4.392   3.452   6.321 -1.5191  0.6955 -0.8515
  694MOL0     H93631   4.620   3.599   6.179  2.5087  0.8025  1.3939
  694MOL0     H93632   4.520   3.663   6.307  0.0457 -1.7203  1.7913
  694MOL0     H93633   4.631   3.485   6.474  0.5712  2.8983  0.4569
  694MOL0     H93634   4.718   3.428   6.326 -2.8433 -0.7268 -0.0570
  694MOL0     H93635   4.831   3.637   6.306  0.2516  1.6661 -0.4859
  694MOL0     H93636   4.743   3.712   6.428  0.0392 -1.2879  2.4210
  694MOL0     H93637   4.838   3.552   6.591  1.0848 -0.8208  0.6865
  694MOL0     H93638   4.953   3.655   6.510  0.5072  1.0861 -3.1515
  694MOL0     H93639   4.893   3.362   6.443 -0.6583  0.8694  3.4385
  694MOL0     H93640   4.994   3.465   6.338  2.0632  2.0660  0.4935
  694MOL0     H93641   4.974   3.394   6.732 -0.0608 -0.1324  0.1616
  694MOL0     H93642   5.130   3.316   6.901 -1.3171  0.7033 -1.1348
  694MOL0     H93643   5.270   3.219   6.847 -0.2751 -0.5615  2.3254
  694MOL0     H93644   5.411   3.421   6.846  0.6512  1.8461  0.8510
  694MOL0     H93645   5.267   3.518   6.878  2.2972  1.3364 -0.3265
  694MOL0     H93646   5.360   3.303   7.083  0.5581  0.5685  0.2072
  694MOL0     H93647   5.253   3.447   7.103 -0.1445 -0.7227  0.4313
  694MOL0     H93648   5.411   3.595   7.073 -1.2564 -0.7635 -2.0294
  694MOL0     H93649   5.538   3.480   7.032 -0.4776  0.0757 -2.3433
  694MOL0     H93650   5.599   3.730   7.133  1.1229  0.4086  1.0081
  694MOL0     H93651   5.657   3.921   7.279 -1.4631 -0.0869 -2.3174
  694MOL0     H93652   5.635   4.190   7.714  1.4725  0.3030  2.2116
  694MOL0     H93653   5.799   4.316   7.844 -0.0032  0.3892  0.2437
  694MOL0     H93654   6.209   4.204   7.739  0.1053  1.0003 -2.4989
  694MOL0     H93655   6.230   4.359   7.658 -1.6893 -1.0078 -0.9595
  694MOL0     H93656   6.286   4.459   7.873 -2.0577  0.4369  1.1146
  694MOL0     H93657   6.226   4.319   7.957 -0.8850  0.0960  0.3758
  694MOL0     H93658   6.489   4.333   7.941  0.9601  1.3195 -1.4310
  694MOL0     H93659   6.407   4.184   7.920 -2.9494  1.2301  1.5449
  694MOL0     H93660   6.480   4.356   7.680 -2.3111  0.6638  3.1085
  694MOL0     H93661   6.462   4.177   7.692  3.2420  0.4224 -2.6628
  694MOL0     H93662   6.689   4.310   7.852  1.6481 -0.0266 -1.1641
  694MOL0     H93663   6.698   4.274   7.675 -2.7197  1.0519 -1.6948
  694MOL0     H93664   6.644   4.079   7.885  0.1465 -0.3697  0.4704
  694MOL0     H93665   6.643   4.054   7.721 -0.1332  2.2508 -0.5604
  694MOL0     H93666   6.895   4.116   7.861 -0.1216 -1.8658  0.9227
  694MOL0     H93667   6.872   4.127   7.679 -2.1642 -0.3915 -1.4984
  694MOL0     H93668   6.844   3.896   7.654 -2.2917 -0.5286  1.2785
  694MOL0     H93669   6.968   3.919   7.783  0.2144  1.4000 -0.2388
  694MOL0     H93670   6.092   4.241   7.537 -0.4316 -0.6585  0.0966
  694MOL0     H93671   5.932   4.105   7.423 -0.9025 -1.5155  0.1347
  694MOL0     H93672   5.538   3.699   7.628 -1.3197  0.6716 -1.1478
  694MOL0     H93673   5.451   3.526   7.478 -0.0811 -0.5433  0.9980
  694MOL0     H93674   4.094   3.352   5.809  0.8398  1.0685 -0.1531
  694MOL0     H93675   3.861   3.253   5.797  0.5717  1.6265 -1.2367
  694MOL0     H93676   3.505   3.115   5.964 -0.2102 -2.1987 -1.3268
  694MOL0     H93677   3.312   2.985   5.912 -1.6784 -0.1496 -1.3884
  694MOL0     H93678   2.974   3.129   5.670 -1.4613 -4.3005  0.4122
  694MOL0     H93679   2.962   3.216   5.826  1.1633  1.1203 -1.4887
  694MOL0     H93680   2.761   3.081   5.778 -0.3476  0.8986  0.7413
  694MOL0     H93681   2.849   2.981   5.902  1.2348  1.2279 -0.2323
  694MOL0     H93682   2.968   2.863   5.716 -1.2602 -0.2990 -0.6801
  694MOL0     H93683   2.856   2.943   5.601 -0.6251  2.0603  0.4586
  694MOL0     H93684   2.794   2.704   5.685 -0.2105  0.0442  0.4250
  694MOL0     H93685   2.761   2.767   5.843 -2.1434 -0.0394  0.3225
  694MOL0     H93686   2.412   2.858   5.640 -1.6465  0.2356  2.7412
  694MOL0     H93687   3.134   3.341   5.754  0.7010 -1.3229 -4.1099
  694MOL0     H93688   3.388   3.537   5.701 -0.5083 -1.8346 -0.3714
  694MOL0     H93689   3.217   3.523   5.732 -1.4918 -0.8884  1.1311
  694MOL0     H93690   3.316   3.568   5.865 -2.9875  1.5023 -1.0925
  695MOL0     O93691   7.382   3.621   0.743 -0.7847 -0.4833  0.2164
  695MOL0     C93692   7.318   3.526   0.698 -0.3371 -0.2990  0.1025
  695MOL0     O93693   7.324   3.396   0.744 -0.5667  0.1709 -0.2533
  695MOL0     C93694   7.424   3.370   0.836 -0.4827  0.1852  0.4792
  695MOL0     C93695   7.558   3.367   0.804 -0.5093 -0.9340  0.0445
  695MOL0     C93696   7.660   3.342   0.896 -0.6029  0.6065  0.1985
  695MOL0     C93697   7.618   3.296   1.025  0.2516  0.1195  0.0620
  695MOL0     O93698   7.704   3.263   1.129  0.0667  0.3218  0.1578
  695MOL0     C93699   7.846   3.289   1.114 -0.1690 -0.7266 -0.4423
  695MOL0     C93700   7.911   3.211   1.227  0.5788 -0.1155 -0.6782
  695MOL0     C93701   8.060   3.263   1.241 -0.0103 -0.4535 -0.2487
  695MOL0     C93702   8.144   3.214   1.361  0.3656 -0.4543 -0.0618
  695MOL0     C93703   8.294   3.225   1.345 -0.5146 -0.3804 -0.1559
  695MOL0     C93704   8.350   3.204   1.487 -0.1970  0.0404 -0.7608
  695MOL0     C93705   8.506   3.231   1.497 -0.5695  0.6934  0.1476
  695MOL0     C93706   8.565   3.151   1.608 -0.3919 -0.8870  0.1350
  695MOL0     N93707   8.575   3.012   1.576 -0.5400  0.4976  0.5451
  695MOL0     C93708   8.674   2.947   1.501  1.3932 -0.4868  0.6444
  695MOL0     C93709   8.654   2.810   1.529  0.2986  0.8859  0.6264
  695MOL0     C93710   8.731   2.689   1.480 -0.7641  0.0570  0.2030
  695MOL0     C93711   8.875   2.693   1.524 -0.7173  0.3317  0.9522
  695MOL0     C93712   8.925   2.547   1.515 -0.4512  0.5290  0.0672
  695MOL0     C93713   9.073   2.542   1.509 -0.4154 -0.5815 -0.7126
  695MOL0     O93714   9.127   2.592   1.636 -0.2674  1.0380  0.3666
  695MOL0     C93715   9.262   2.608   1.657  0.2771 -0.1077  0.0138
  695MOL0     C93716   9.306   2.604   1.790 -0.5022  0.1678 -0.2181
  695MOL0     C93717   9.448   2.604   1.818  0.7840  0.5422  0.0072
  695MOL0     C93718   9.541   2.608   1.710 -0.9970 -0.4192 -0.4683
  695MOL0     C93719   9.685   2.617   1.734 -0.1712 -0.8573 -0.2167
  695MOL0     O93720   9.720   2.656   1.863 -0.3175 -0.0064 -0.2211
  695MOL0     C93721   9.856   2.657   1.899  0.5551  0.4362  0.7131
  695MOL0     C93722   9.938   2.537   1.888  1.2900 -0.4452 -0.6085
  695MOL0     C93723  10.070   2.550   1.925 -0.4283  0.9543 -1.3723
  695MOL0     C93724  10.128   2.663   1.983  0.0807  0.5925  0.2063
  695MOL0     O93725  10.252   2.659   2.039  0.0639 -0.5923 -0.0971
  695MOL0     C93726  10.363   2.592   1.977  0.3048 -0.1496  0.0849
  695MOL0     C93727  10.485   2.617   2.049 -0.6835 -0.8739  0.1631
  695MOL0     C93728  10.513   2.767   2.063 -0.2667 -0.1174 -0.4146
  695MOL0     C93729  10.655   2.809   2.038  0.4367 -0.5149  0.0480
  695MOL0     C93730  10.680   2.836   1.892  0.4519 -0.1213  0.2721
  695MOL0     C93731  10.829   2.841   1.861  0.0636  0.0280 -0.1458
  695MOL0     C93732  10.898   2.959   1.938 -0.2142 -0.8498 -0.4123
  695MOL0     C93733  11.033   2.970   1.867  0.6330  0.4918 -0.4461
  695MOL0    Cl93734  11.045   3.096   1.740  0.4625  0.3255  0.2606
  695MOL0     C93735  10.050   2.781   1.986 -0.1174  0.2783 -0.6878
  695MOL0     C93736   9.917   2.780   1.946 -0.9053 -0.5426 -0.3268
  695MOL0     O93737   9.764   2.587   1.650 -0.7701 -0.4405  0.0287
  695MOL0     C93738   9.495   2.617   1.584 -0.3493  0.1880 -0.5615
  695MOL0     C93739   9.355   2.616   1.555  0.7366 -0.1814  0.4034
  695MOL0     N93740   8.550   2.805   1.612  0.5177  0.2481  0.6427
  695MOL0     N93741   8.494   2.915   1.631  0.0578  0.1251  0.5297
  695MOL0     C93742   7.490   3.297   1.066 -0.1719 -0.3110 -0.3100
  695MOL0     C93743   7.391   3.338   0.976  0.2406 -0.0444 -0.8313
  695MOL0     C93744   7.238   3.551   0.573 -0.1659 -0.6863  0.0847
  695MOL0     C93745   7.176   3.431   0.517  0.0232 -0.1093 -1.0093
  695MOL0     C93746   7.093   3.448   0.410  0.1662  0.6385  0.0815
  695MOL0     C93747   7.075   3.570   0.358  0.1661  0.1879  0.3244
  695MOL0     O93748   6.995   3.578   0.247 -0.2481  0.8101 -0.0882
  695MOL0     C93749   7.051   3.631   0.122 -0.5181  0.8476  0.7036
  695MOL0     C93750   7.143   3.522   0.058 -0.0526  0.4303  0.3605
  695MOL0     C93751   7.061   3.403   0.000  0.2768 -0.2935  0.4853
  695MOL0     C93752   6.987   3.438  -0.135  0.0992  0.0450  0.0153
  695MOL0     C93753   7.078   3.479  -0.239 -0.0259  0.2804 -0.5577
  695MOL0     C93754   7.159   3.504  -0.326 -0.2597  1.0120  0.1466
  695MOL0     C93755   7.142   3.682   0.404  0.1736 -0.2782  0.7688
  695MOL0     C93756   7.226   3.672   0.508 -0.0767 -0.7124 -0.4143
  695MOL0     C93757   7.301   3.796   0.555  0.0462  0.6815  0.4065
  695MOL0     H93758   7.591   3.388   0.703  0.0365  2.2642  0.7661
  695MOL0     H93759   7.765   3.352   0.871 -0.0217 -4.3300 -0.2190
  695MOL0     H93760   7.887   3.261   1.017  1.2758  0.2797 -0.1541
  695MOL0     H93761   7.857   3.397   1.132  3.8122 -0.8201 -1.3846
  695MOL0     H93762   7.901   3.102   1.229  0.5708 -0.1082  0.8157
  695MOL0     H93763   7.860   3.246   1.318  0.7296 -1.1776 -0.1725
  695MOL0     H93764   8.052   3.372   1.235 -3.3923 -0.5991 -0.2463
  695MOL0     H93765   8.123   3.220   1.163 -0.8391  0.8969 -1.7234
  695MOL0     H93766   8.124   3.289   1.438  3.7891 -1.6162  2.1792
  695MOL0     H93767   8.109   3.116   1.395  1.0391 -0.6778 -0.0158
  695MOL0     H93768   8.334   3.153   1.272  1.9006 -1.2175  1.8399
  695MOL0     H93769   8.319   3.327   1.315 -0.9755  0.3162  1.7157
  695MOL0     H93770   8.307   3.272   1.562  0.2567 -2.2263  1.7289
  695MOL0     H93771   8.322   3.108   1.531 -2.7892  1.0632  0.0120
  695MOL0     H93772   8.522   3.337   1.515 -0.0894  0.3942  1.7185
  695MOL0     H93773   8.557   3.208   1.404  0.2136  1.5792  0.3494
  695MOL0     H93774   8.664   3.190   1.630 -1.3315  0.4826  2.2271
  695MOL0     H93775   8.504   3.152   1.699 -1.7916  1.2480 -0.7390
  695MOL0     H93776   8.741   2.976   1.420 -1.2495 -1.6687 -2.2143
  695MOL0     H93777   8.687   2.602   1.528  2.0329 -1.9266 -0.5578
  695MOL0     H93778   8.729   2.685   1.370 -0.8917  1.7246  0.1076
  695MOL0     H93779   8.926   2.754   1.448 -0.6862 -1.0231 -0.1585
  695MOL0     H93780   8.892   2.724   1.627 -3.2688 -0.2450  1.6096
  695MOL0     H93781   8.882   2.508   1.422 -2.6856 -0.6237  1.5020
  695MOL0     H93782   8.896   2.482   1.598 -0.9744  3.9546  2.8098
  695MOL0     H93783   9.108   2.616   1.437  1.0508 -1.6949 -1.1892
  695MOL0     H93784   9.102   2.440   1.482  0.6442 -0.6285  0.5208
  695MOL0     H93785   9.238   2.601   1.875  0.8462 -1.0386  0.8846
  695MOL0     H93786   9.485   2.587   1.918 -0.7953 -2.4381  0.2162
  695MOL0     H93787   9.886   2.447   1.856 -1.0054 -0.1233  1.8591
  695MOL0     H93788  10.139   2.466   1.920 -0.7425  0.7584 -3.4631
  695MOL0     H93789  10.340   2.485   1.979 -2.3227  0.3718  1.8818
  695MOL0     H93790  10.372   2.621   1.872  0.9487  0.7238  0.3673
  695MOL0     H93791  10.490   2.561   2.143  1.0401 -1.4132 -0.2146
  695MOL0     H93792  10.561   2.566   1.989  0.6005  1.2989 -0.1503
  695MOL0     H93793  10.437   2.821   2.005  0.5253 -0.0940 -1.4673
  695MOL0     H93794  10.510   2.782   2.171  0.6785 -1.2783 -0.2104
  695MOL0     H93795  10.729   2.739   2.079  2.9995  0.7749 -2.0490
  695MOL0     H93796  10.671   2.898   2.100  0.9352  1.0518 -2.2093
  695MOL0     H93797  10.640   2.934   1.864  2.5843  0.0247 -2.7395
  695MOL0     H93798  10.624   2.772   1.823 -2.7126  1.7412  0.8888
  695MOL0     H93799  10.871   2.742   1.883 -2.4691 -0.4127  3.7363
  695MOL0     H93800  10.835   2.841   1.752  2.0628 -2.2572 -0.1174
  695MOL0     H93801  10.900   2.947   2.047 -2.1336  2.9367  0.2129
  695MOL0     H93802  10.840   3.050   1.921  0.9512 -0.4768 -2.7711
  695MOL0     H93803  11.104   2.993   1.946 -0.8898  2.0394  0.5513
  695MOL0     H93804  11.056   2.874   1.820 -0.0484  0.5787 -0.9813
  695MOL0     H93805  10.090   2.872   2.029 -0.5134  0.3864 -0.5441
  695MOL0     H93806   9.876   2.881   1.954 -0.1813 -0.1363 -1.5201
  695MOL0     H93807   9.565   2.622   1.502 -0.3278  1.2701 -0.4895
  695MOL0     H93808   9.338   2.608   1.448  1.8077 -1.0472  0.2815
  695MOL0     H93809   7.471   3.290   1.173 -0.5846  0.5185 -0.3179
  695MOL0     H93810   7.285   3.333   0.999  0.7557 -2.6936  1.4723
  695MOL0     H93811   7.200   3.335   0.562  0.3677  0.9834  1.3277
  695MOL0     H93812   7.044   3.356   0.380  2.1443 -1.0278  1.6687
  695MOL0     H93813   7.108   3.722   0.138  0.6580 -0.1114  2.2920
  695MOL0     H93814   6.966   3.650   0.056  2.0579 -0.4243 -3.3267
  695MOL0     H93815   7.213   3.483   0.132 -2.4365 -0.3849  2.3069
  695MOL0     H93816   7.204   3.568  -0.020  3.5403  0.0407  2.7190
  695MOL0     H93817   6.987   3.367   0.072 -1.2228  2.9665  0.7398
  695MOL0     H93818   7.133   3.324  -0.025  1.8913  1.1572  0.4145
  695MOL0     H93819   6.933   3.346  -0.160 -1.4695 -0.0747  3.3207
  695MOL0     H93820   6.905   3.509  -0.119 -1.2208 -1.9810  3.2903
  695MOL0     H93821   7.225   3.506  -0.411  0.7238 -0.7428  0.8234
  695MOL0     H93822   7.133   3.777   0.353 -1.7860 -0.7491  0.1670
  695MOL0     H93823   7.276   3.877   0.486  3.5196  1.1024 -0.5082
  695MOL0     H93824   7.271   3.821   0.657 -0.0117 -2.7421  1.3747
  695MOL0     H93825   7.409   3.781   0.546 -0.2953 -1.9508 -0.4860
  696MOL0     O93826   9.593   8.817   6.401 -1.2004  0.2388 -0.3656
  696MOL0     C93827   9.589   8.935   6.428  1.1708 -0.0221  0.4397
  696MOL0     O93828   9.690   9.009   6.480 -0.3842  0.5043 -0.0573
  696MOL0     C93829   9.814   8.951   6.500 -0.4226 -0.1688  0.0425
  696MOL0     C93830   9.888   8.877   6.404  0.6298  0.3205  0.2209
  696MOL0     C93831  10.017   8.839   6.436 -0.3518 -0.0239 -0.0520
  696MOL0     C93832  10.069   8.853   6.564  0.5684  0.3529  0.2071
  696MOL0     O93833  10.177   8.787   6.606  0.2392  0.2324  0.0969
  696MOL0     C93834  10.285   8.811   6.527 -1.2007 -1.0281  1.9507
  696MOL0     C93835  10.411   8.761   6.596  0.3912 -0.3370 -0.2110
  696MOL0     C93836  10.528   8.757   6.502 -0.6443 -0.1463 -0.3293
  696MOL0     C93837  10.557   8.878   6.419 -0.3395 -0.5967 -0.6465
  696MOL0     C93838  10.584   8.996   6.503  0.0984 -1.0582  0.6847
  696MOL0     C93839  10.663   9.101   6.418  0.1327 -0.0065  1.1554
  696MOL0     C93840  10.680   9.239   6.477 -0.4249  0.1980  0.0455
  696MOL0     C93841  10.781   9.321   6.392  0.0224 -0.5243 -0.2629
  696MOL0     N93842  10.907   9.251   6.356  0.8556  0.2953 -0.1875
  696MOL0     C93843  11.007   9.213   6.445 -0.5974 -0.8630 -0.1724
  696MOL0     C93844  11.104   9.186   6.361 -1.4580 -0.0085  0.4320
  696MOL0     C93845  11.248   9.154   6.389  0.3387 -0.4757  0.5813
  696MOL0     C93846  11.311   9.236   6.504  0.2117 -0.1031 -0.1244
  696MOL0     C93847  11.458   9.211   6.518  1.0783 -0.8660  0.0371
  696MOL0     C93848  11.522   9.294   6.622  0.4828 -0.3700  0.8643
  696MOL0     O93849  11.650   9.239   6.626 -0.1905 -0.6995  0.7800
  696MOL0     C93850  11.765   9.298   6.658 -0.5995 -0.4458  0.1156
  696MOL0     C93851  11.885   9.222   6.679  0.7124 -1.2388 -0.2829
  696MOL0     C93852  12.001   9.285   6.723  0.3186 -0.4317  0.2457
  696MOL0     C93853  12.009   9.426   6.747  0.0395  1.0136 -0.2599
  696MOL0     C93854  12.138   9.484   6.799  0.0324  0.4705  0.1543
  696MOL0     O93855  12.234   9.393   6.826 -0.1834 -0.7179 -0.7635
  696MOL0     C93856  12.338   9.420   6.909 -0.0406  0.6015  0.4628
  696MOL0     C93857  12.385   9.312   6.977  0.4145  0.0004 -0.2413
  696MOL0     C93858  12.505   9.306   7.047 -0.5388 -0.6099 -0.1154
  696MOL0     C93859  12.575   9.425   7.062  0.0472 -0.0671 -0.6805
  696MOL0     O93860  12.692   9.440   7.129  0.5693 -1.1395 -0.4340
  696MOL0     C93861  12.788   9.334   7.151 -0.3484 -0.6190  0.5316
  696MOL0     C93862  12.763   9.274   7.288 -0.2692 -0.1574  0.1669
  696MOL0     C93863  12.800   9.366   7.400 -0.9270 -0.2830 -0.6568
  696MOL0     C93864  12.941   9.342   7.452  0.6331  0.2802 -0.6288
  696MOL0     C93865  12.987   9.452   7.552  0.9861 -0.1768 -0.6928
  696MOL0     C93866  13.120   9.406   7.620  0.8529 -0.3574 -0.5273
  696MOL0     C93867  13.142   9.489   7.754 -0.0983 -0.7141  0.4567
  696MOL0     C93868  13.168   9.630   7.730 -0.5519 -0.7116  0.0438
  696MOL0    Cl93869  13.327   9.653   7.654 -0.5746  0.5223  0.2831
  696MOL0     C93870  12.521   9.547   7.009  0.2077  0.4887 -1.4324
  696MOL0     C93871  12.409   9.541   6.928 -0.1926 -0.3726 -0.2830
  696MOL0     O93872  12.143   9.607   6.823  0.2345  0.0711 -0.1435
  696MOL0     C93873  11.894   9.501   6.712 -0.0703 -0.1953 -0.3259
  696MOL0     C93874  11.779   9.441   6.663  0.0614  0.0473  1.0816
  696MOL0     N93875  11.059   9.184   6.230  0.5987 -0.4547  0.3625
  696MOL0     N93876  10.938   9.230   6.230 -1.0344 -0.3915  0.8982
  696MOL0     C93877   9.990   8.918   6.662  0.1656  0.5600 -0.5945
  696MOL0     C93878   9.868   8.974   6.624 -0.2898 -0.3139  0.8931
  696MOL0     C93879   9.455   8.997   6.407 -0.5155  0.4488 -0.2218
  696MOL0     C93880   9.373   8.981   6.289 -0.5824  0.4960  0.0405
  696MOL0     C93881   9.256   9.054   6.275  0.2815 -0.3915 -0.2832
  696MOL0     C93882   9.210   9.132   6.380  0.0264 -0.3986 -0.5664
  696MOL0     O93883   9.098   9.202   6.346 -0.5825 -0.5507  0.4435
  696MOL0     C93884   9.007   9.240   6.445  0.3319  0.6240 -0.1747
  696MOL0     C93885   8.888   9.321   6.392 -0.8294  0.8360  0.7881
  696MOL0     C93886   8.789   9.239   6.308  0.3277 -0.0184 -0.0552
  696MOL0     C93887   8.667   9.321   6.261 -1.3912 -0.4675  0.5250
  696MOL0     C93888   8.556   9.237   6.224 -0.3199 -1.0784  0.9744
  696MOL0     C93889   8.458   9.172   6.204 -0.2271  0.0181  0.2479
  696MOL0     C93890   9.275   9.130   6.506 -0.5236 -0.2086  0.3559
  696MOL0     C93891   9.397   9.070   6.513  0.5530 -0.2793 -0.2580
  696MOL0     C93892   9.476   9.085   6.649  0.5751 -0.3141  1.0273
  696MOL0     H93893   9.851   8.847   6.305  1.5397  0.3659 -0.1382
  696MOL0     H93894  10.078   8.783   6.365 -0.1439  1.3939 -1.0372
  696MOL0     H93895  10.281   8.769   6.426  0.7859  0.7509  1.0685
  696MOL0     H93896  10.295   8.920   6.524  2.3615 -1.2498  1.6716
  696MOL0     H93897  10.411   8.667   6.652 -1.6232 -1.0228 -1.2616
  696MOL0     H93898  10.428   8.819   6.688  1.4238 -1.9093  0.6411
  696MOL0     H93899  10.514   8.663   6.447 -0.5737 -1.7451  2.2612
  696MOL0     H93900  10.617   8.731   6.560  1.6931 -2.2248 -4.3358
  696MOL0     H93901  10.641   8.860   6.351  1.8865  4.6398  0.1920
  696MOL0     H93902  10.464   8.891   6.362 -1.4066 -1.6892  0.7853
  696MOL0     H93903  10.502   9.038   6.562  0.7467  2.0030 -0.4048
  696MOL0     H93904  10.661   8.970   6.577  2.4347  2.7866 -0.0822
  696MOL0     H93905  10.759   9.053   6.398  1.2474  2.1776  0.9499
  696MOL0     H93906  10.605   9.105   6.325 -0.0863  0.1058  1.2969
  696MOL0     H93907  10.718   9.223   6.578 -0.4132 -1.8733 -0.2550
  696MOL0     H93908  10.583   9.290   6.482  0.7257  2.3817  3.1087
  696MOL0     H93909  10.719   9.362   6.312 -1.1571 -0.6149  0.5756
  696MOL0     H93910  10.808   9.409   6.451 -0.1316 -0.6776  0.0380
  696MOL0     H93911  11.026   9.226   6.551  0.9856 -5.3856  0.3113
  696MOL0     H93912  11.256   9.048   6.417  1.1420 -1.0497 -1.6010
  696MOL0     H93913  11.305   9.158   6.295  1.0307 -1.0167  0.9652
  696MOL0     H93914  11.292   9.340   6.476 -1.1530 -0.9806 -2.7762
  696MOL0     H93915  11.256   9.224   6.598 -1.0534  0.6629 -0.7409
  696MOL0     H93916  11.500   9.233   6.419  2.9523 -2.1406  0.5041
  696MOL0     H93917  11.453   9.103   6.533 -1.7320 -1.1804 -2.0776
  696MOL0     H93918  11.489   9.280   6.726  0.1863 -1.9882  0.5891
  696MOL0     H93919  11.519   9.400   6.599 -1.6563  0.2073  3.2821
  696MOL0     H93920  11.880   9.114   6.690  0.7941 -1.3706 -1.3956
  696MOL0     H93921  12.080   9.216   6.750 -1.3202 -2.5297 -0.0761
  696MOL0     H93922  12.325   9.223   6.961  0.9422 -0.3219 -0.4521
  696MOL0     H93923  12.537   9.213   7.093 -1.6889 -0.5338  0.8915
  696MOL0     H93924  12.788   9.252   7.078  2.5541 -2.7055  2.6603
  696MOL0     H93925  12.891   9.372   7.147 -1.0962  1.5104 -1.6958
  696MOL0     H93926  12.655   9.266   7.302 -0.2394 -0.3538  0.2888
  696MOL0     H93927  12.808   9.175   7.300 -0.7844 -0.3634  0.4328
  696MOL0     H93928  12.773   9.468   7.373 -2.1273 -0.0021  1.3602
  696MOL0     H93929  12.732   9.361   7.486  0.0066 -0.1393  0.1141
  696MOL0     H93930  13.008   9.332   7.365  1.4195  1.7754 -0.2320
  696MOL0     H93931  12.937   9.244   7.501 -2.6272  0.3047 -0.6758
  696MOL0     H93932  12.909   9.478   7.625  2.0567  0.0283  0.4036
  696MOL0     H93933  13.011   9.544   7.500 -2.8227  1.3086 -0.1960
  696MOL0     H93934  13.124   9.298   7.635  0.5062 -0.2088  0.8130
  696MOL0     H93935  13.200   9.442   7.556  0.1136  4.1795  0.7196
  696MOL0     H93936  13.239   9.449   7.787  0.6694 -1.0700 -2.0647
  696MOL0     H93937  13.065   9.468   7.829 -1.1823 -0.0704 -0.4488
  696MOL0     H93938  13.103   9.686   7.662  1.2816  1.9019  0.2904
  696MOL0     H93939  13.174   9.678   7.828  2.4345 -1.7719  0.4884
  696MOL0     H93940  12.573   9.640   7.032  2.2373 -1.1419  1.1182
  696MOL0     H93941  12.366   9.632   6.886  2.2479  0.1576 -1.8492
  696MOL0     H93942  11.901   9.608   6.726 -1.5747 -0.4895  3.9267
  696MOL0     H93943  11.695   9.509   6.654  1.3864  1.4694 -1.9723
  696MOL0     H93944  10.028   8.933   6.763 -2.4000  0.2311  0.5093
  696MOL0     H93945   9.802   9.027   6.692 -1.8551  1.2300 -1.6686
  696MOL0     H93946   9.398   8.913   6.208  1.0387  0.2147  0.7510
  696MOL0     H93947   9.191   9.062   6.189 -0.1405  1.0114  0.1381
  696MOL0     H93948   9.042   9.296   6.532  0.5750  1.2609 -0.6738
  696MOL0     H93949   8.974   9.146   6.491  1.1799  0.4648  0.1182
  696MOL0     H93950   8.934   9.397   6.328  0.3963 -0.8101 -0.3848
  696MOL0     H93951   8.839   9.354   6.484 -1.7056 -0.8360  0.9708
  696MOL0     H93952   8.747   9.156   6.366 -2.1507  1.3704  0.2821
  696MOL0     H93953   8.831   9.197   6.217  0.2775  2.3952 -1.2824
  696MOL0     H93954   8.641   9.394   6.338 -1.1442  0.4786 -0.2556
  696MOL0     H93955   8.700   9.382   6.176  2.0919 -3.2138 -0.3247
  696MOL0     H93956   8.360   9.132   6.191 -0.4812  0.3047  1.1890
  696MOL0     H93957   9.237   9.192   6.587 -0.0683 -2.3912  2.3297
  696MOL0     H93958   9.405   9.129   6.720 -0.5686 -0.7425  0.1722
  696MOL0     H93959   9.512   8.986   6.678  2.0205 -3.0203 -7.3173
  696MOL0     H93960   9.556   9.153   6.618 -1.4427 -0.2994 -5.9577
  697MOL0     O93961   0.273   1.319   0.482  0.2692 -0.1810 -0.2623
  697MOL0     C93962   0.174   1.366   0.541  0.3168  0.8404 -1.2139
  697MOL0     O93963   0.186   1.409   0.674 -0.0222 -0.0135 -0.1813
  697MOL0     C93964   0.305   1.455   0.724 -1.1468  0.9413  0.4369
  697MOL0     C93965   0.308   1.569   0.808  0.1598  0.2604 -1.1832
  697MOL0     C93966   0.432   1.606   0.872  0.5201  0.3912 -0.4205
  697MOL0     C93967   0.548   1.535   0.874 -0.2984  0.3862 -0.7691
  697MOL0     O93968   0.653   1.575   0.956 -0.3168  0.4605 -0.1084
  697MOL0     C93969   0.788   1.535   0.930  0.5335 -0.2155 -0.1323
  697MOL0     C93970   0.870   1.626   1.030  0.5783  0.4008 -0.5965
  697MOL0     C93971   1.009   1.564   1.071  0.0915 -0.0640 -1.2601
  697MOL0     C93972   0.988   1.455   1.192 -0.1693  0.1412 -0.6069
  697MOL0     C93973   1.120   1.404   1.233 -0.6209  0.6784 -0.6915
  697MOL0     C93974   1.158   1.455   1.373  0.5345  0.2655  0.2949
  697MOL0     C93975   1.300   1.395   1.414  0.0578 -0.0603 -0.2836
  697MOL0     C93976   1.407   1.493   1.365  0.5450  0.3551  0.7190
  697MOL0     N93977   1.431   1.499   1.222  0.4632 -0.2568 -0.1907
  697MOL0     C93978   1.403   1.612   1.149 -0.0071  0.1918  0.2780
  697MOL0     C93979   1.436   1.576   1.026 -0.7145  0.2263  0.5955
  697MOL0     C93980   1.456   1.678   0.921 -0.4995 -0.3640  0.0312
  697MOL0     C93981   1.600   1.725   0.889  0.7790 -0.1621  0.2193
  697MOL0     C93982   1.581   1.863   0.814  0.3554 -0.2892 -0.2102
  697MOL0     C93983   1.719   1.913   0.764 -0.1972 -1.0066 -0.1677
  697MOL0     O93984   1.815   1.945   0.862  0.1542  0.1257 -0.3268
  697MOL0     C93985   1.938   1.982   0.822 -0.8703  0.2594 -0.7816
  697MOL0     C93986   2.048   1.951   0.904 -0.2026 -0.1047  0.0958
  697MOL0     C93987   2.178   1.982   0.874 -0.2661 -0.4934  0.2257
  697MOL0     C93988   2.206   2.072   0.765  0.0953  0.3933  0.2723
  697MOL0     C93989   2.341   2.102   0.732  0.3047 -0.1025 -0.1840
  697MOL0     O93990   2.351   2.165   0.610  0.6016 -0.3215 -0.1904
  697MOL0     C93991   2.475   2.185   0.566  0.6532 -0.4197  0.1479
  697MOL0     C93992   2.537   2.122   0.457  0.8247 -0.2181 -0.8151
  697MOL0     C93993   2.665   2.158   0.420 -0.1313 -1.3536 -0.8169
  697MOL0     C93994   2.729   2.260   0.484 -0.4439 -0.2704 -0.1119
  697MOL0     O93995   2.853   2.310   0.442 -0.4149 -0.4969 -0.8256
  697MOL0     C93996   2.924   2.213   0.354  0.2096  0.5115 -0.7796
  697MOL0     C93997   3.076   2.251   0.342 -0.2803 -0.5730  0.9841
  697MOL0     C93998   3.101   2.379   0.260  0.3092 -0.0177 -0.1057
  697MOL0     C93999   3.231   2.379   0.184 -0.3565  0.0738  0.3873
  697MOL0     C94000   3.352   2.389   0.281 -0.5321  0.7598  0.3826
  697MOL0     C94001   3.355   2.523   0.348  0.8806 -1.0644 -0.4363
  697MOL0     C94002   3.494   2.579   0.397  1.0727  1.5092 -0.4835
  697MOL0     C94003   3.469   2.711   0.465 -0.3024 -1.1620 -0.4179
  697MOL0    Cl94004   3.354   2.813   0.377 -0.0626  0.5252 -0.1123
  697MOL0     C94005   2.672   2.324   0.590  0.3176  0.0891  1.2172
  697MOL0     C94006   2.540   2.288   0.630  0.8501  0.6364 -0.6275
  697MOL0     O94007   2.424   2.097   0.814 -0.5063  0.4423 -0.0712
  697MOL0     C94008   2.096   2.096   0.677 -0.9538 -0.3502  1.3163
  697MOL0     C94009   1.972   2.055   0.702  0.1873 -0.1435 -0.2496
  697MOL0     N94010   1.470   1.443   1.022  1.0566  0.0325  0.0577
  697MOL0     N94011   1.460   1.397   1.142  0.4001  0.0380  0.0091
  697MOL0     C94012   0.548   1.416   0.796  0.3365  0.2062 -0.3369
  697MOL0     C94013   0.428   1.383   0.717  0.1213  0.7821  0.5369
  697MOL0     C94014   0.036   1.381   0.473  0.5639 -0.6349 -0.9914
  697MOL0     C94015  -0.076   1.397   0.555  0.5847 -0.0486  0.3415
  697MOL0     C94016  -0.202   1.386   0.499  0.4457 -0.9711 -0.7494
  697MOL0     C94017  -0.222   1.379   0.363 -0.5099  0.4459  0.7893
  697MOL0     O94018  -0.345   1.377   0.294 -0.2974  0.3120 -0.4737
  697MOL0     C94019  -0.465   1.327   0.367  0.7695  0.4742  0.7699
  697MOL0     C94020  -0.588   1.320   0.269  0.6827 -0.2428 -0.7659
  697MOL0     C94021  -0.619   1.457   0.200 -0.1426 -0.0620 -0.3414
  697MOL0     C94022  -0.730   1.436   0.096 -0.3753  0.1652 -0.0524
  697MOL0     C94023  -0.802   1.555   0.068  0.3244 -0.4392  0.0592
  697MOL0     C94024  -0.857   1.667   0.050  1.0135  0.2587  0.6644
  697MOL0     C94025  -0.107   1.381   0.281  0.1847 -0.5224 -0.3316
  697MOL0     C94026   0.027   1.377   0.335 -0.3264  0.1569 -0.0523
  697MOL0     C94027   0.134   1.414   0.240 -0.4952 -0.4607 -0.3414
  697MOL0     H94028   0.218   1.622   0.837  1.0076 -0.7771  4.4184
  697MOL0     H94029   0.416   1.693   0.935  0.4397 -0.1936  0.3720
  697MOL0     H94030   0.797   1.432   0.966 -1.0889  0.2755  1.8973
  697MOL0     H94031   0.818   1.546   0.826 -0.9687  1.4915 -0.4414
  697MOL0     H94032   0.816   1.660   1.119 -0.5831  4.3502 -2.5863
  697MOL0     H94033   0.877   1.722   0.978 -2.3853 -0.3297 -2.6304
  697MOL0     H94034   1.072   1.648   1.102  0.1827 -0.8683  0.8965
  697MOL0     H94035   1.057   1.524   0.981  0.9276  1.1943 -1.4173
  697MOL0     H94036   0.941   1.503   1.278  1.9332  0.1608  0.6048
  697MOL0     H94037   0.924   1.376   1.152 -0.9780 -0.0863  1.0409
  697MOL0     H94038   1.125   1.295   1.240  1.6454  0.4987 -3.5184
  697MOL0     H94039   1.197   1.438   1.162  0.4207  1.9185  0.9436
  697MOL0     H94040   1.162   1.562   1.393  3.3570 -0.1657  2.8480
  697MOL0     H94041   1.087   1.409   1.443  1.7970 -0.0219  1.4423
  697MOL0     H94042   1.326   1.294   1.380 -0.1297  0.3608 -1.7338
  697MOL0     H94043   1.298   1.387   1.523 -4.0829  0.9333 -0.1053
  697MOL0     H94044   1.389   1.596   1.398  0.6044  0.0493  1.7576
  697MOL0     H94045   1.491   1.446   1.417  2.7657 -1.0394 -3.6344
  697MOL0     H94046   1.375   1.704   1.198  2.9180  1.2783  0.0921
  697MOL0     H94047   1.422   1.646   0.822 -1.5498  3.3256 -0.9655
  697MOL0     H94048   1.399   1.767   0.950  0.6922  1.3109 -2.3857
  697MOL0     H94049   1.659   1.733   0.981  3.6822 -3.1893 -1.1944
  697MOL0     H94050   1.634   1.643   0.825  0.7251  1.0879 -1.4972
  697MOL0     H94051   1.542   1.929   0.891  1.0745  1.5281 -1.3426
  697MOL0     H94052   1.507   1.867   0.733 -1.3196 -1.0720  1.2276
  697MOL0     H94053   1.717   2.002   0.700  0.5062 -2.5212 -2.4642
  697MOL0     H94054   1.748   1.837   0.690  0.6415  0.2318 -1.1585
  697MOL0     H94055   2.044   1.884   0.989  1.6767 -2.3429 -1.4152
  697MOL0     H94056   2.261   1.959   0.940  0.2458 -0.6881 -0.4757
  697MOL0     H94057   2.482   2.038   0.415  0.0516 -1.0959  1.7534
  697MOL0     H94058   2.710   2.097   0.343  1.5563  0.7660 -1.6188
  697MOL0     H94059   2.935   2.113   0.395  1.1400 -0.5250 -3.3409
  697MOL0     H94060   2.875   2.202   0.256 -2.6729 -0.2961  0.6521
  697MOL0     H94061   3.117   2.263   0.443 -0.9489 -0.0521  1.1985
  697MOL0     H94062   3.137   2.168   0.304  0.6781  0.1837  0.8629
  697MOL0     H94063   3.030   2.394   0.178  2.2745 -1.3275 -2.1754
  697MOL0     H94064   3.104   2.465   0.327  1.7215  0.8655 -1.2613
  697MOL0     H94065   3.234   2.460   0.111 -0.7678  1.0334  1.4008
  697MOL0     H94066   3.240   2.293   0.117 -0.2950  2.9547 -3.6217
  697MOL0     H94067   3.446   2.377   0.226 -0.6059  0.8377  0.2357
  697MOL0     H94068   3.347   2.301   0.345 -1.4454  0.2027 -0.4266
  697MOL0     H94069   3.309   2.595   0.280 -1.9548 -1.1416  1.2497
  697MOL0     H94070   3.282   2.526   0.430  1.4070 -2.2436  0.1124
  697MOL0     H94071   3.567   2.601   0.318  2.0947  1.0703  0.3093
  697MOL0     H94072   3.537   2.509   0.469 -1.2263 -0.7678 -1.1713
  697MOL0     H94073   3.421   2.688   0.561  1.4805 -0.6055  0.6386
  697MOL0     H94074   3.561   2.762   0.492  0.8802 -3.7157  0.6658
  697MOL0     H94075   2.707   2.415   0.637 -1.5276  2.4602 -1.5917
  697MOL0     H94076   2.493   2.337   0.715 -1.3595 -0.8354 -0.8924
  697MOL0     H94077   2.105   2.151   0.584  2.0490 -0.0381  1.6854
  697MOL0     H94078   1.885   2.084   0.644 -1.3134  1.9587  2.7836
  697MOL0     H94079   0.638   1.357   0.790  1.2607  1.6006 -0.6354
  697MOL0     H94080   0.432   1.287   0.666  0.5513  0.2275  1.5719
  697MOL0     H94081  -0.058   1.394   0.662  1.2776  1.4286  0.2906
  697MOL0     H94082  -0.290   1.388   0.563 -0.3138  3.3973 -1.6757
  697MOL0     H94083  -0.486   1.391   0.453 -2.2925 -0.6908  1.0325
  697MOL0     H94084  -0.443   1.223   0.392 -1.5591 -0.7649 -1.7253
  697MOL0     H94085  -0.672   1.282   0.328 -0.6817  0.3586 -2.2622
  697MOL0     H94086  -0.570   1.238   0.199 -2.0236 -1.6242  0.0380
  697MOL0     H94087  -0.525   1.497   0.161  1.0757 -1.9991  0.4490
  697MOL0     H94088  -0.650   1.521   0.283 -0.2274 -3.3742  2.4147
  697MOL0     H94089  -0.683   1.396   0.006 -1.0259  0.1701 -0.3995
  697MOL0     H94090  -0.798   1.362   0.139 -1.3675 -0.0498 -1.8656
  697MOL0     H94091  -0.910   1.757   0.025 -0.3690 -0.4637  0.8803
  697MOL0     H94092  -0.116   1.379   0.172 -1.2747 -1.3100 -0.2241
  697MOL0     H94093   0.107   1.476   0.154  1.4966  2.6743  1.0934
  697MOL0     H94094   0.206   1.473   0.298 -4.0533  2.3951  1.6344
  697MOL0     H94095   0.164   1.317   0.201 -1.5504  0.2377 -3.1580
  698MOL0     O94096   2.103   0.439   5.426 -0.0377 -0.5791 -0.1507
  698MOL0     C94097   2.141   0.365   5.337 -0.0155  0.2093  0.1171
  698MOL0     O94098   2.083   0.345   5.221 -0.3307 -0.3667  0.4514
  698MOL0     C94099   1.950   0.380   5.200  0.3291 -0.3008  0.5004
  698MOL0     C94100   1.906   0.361   5.073  0.6390 -0.7656 -0.2692
  698MOL0     C94101   1.764   0.382   5.041 -0.4343 -0.6340  0.2836
  698MOL0     C94102   1.670   0.420   5.143 -0.3092  0.7356 -0.0455
  698MOL0     O94103   1.540   0.442   5.099  0.3145  0.5507  0.6912
  698MOL0     C94104   1.462   0.544   5.156 -0.0923 -1.3382 -0.6942
  698MOL0     C94105   1.310   0.529   5.123 -0.0997 -0.8483  0.0510
  698MOL0     C94106   1.231   0.634   5.207 -0.1667  0.3889 -0.0008
  698MOL0     C94107   1.086   0.607   5.176 -0.1890 -0.2805  0.0156
  698MOL0     C94108   0.979   0.703   5.232 -0.2201  0.3217  0.8672
  698MOL0     C94109   0.847   0.694   5.163 -0.0519 -0.2763 -0.1091
  698MOL0     C94110   0.753   0.801   5.234 -0.0698  0.2708  0.4193
  698MOL0     C94111   0.602   0.770   5.202 -0.6389  0.0464  0.1145
  698MOL0     N94112   0.587   0.752   5.061  0.3771 -1.1506  0.0198
  698MOL0     C94113   0.624   0.837   4.959 -0.0228  0.0219 -0.5439
  698MOL0     C94114   0.607   0.762   4.849 -0.3662 -0.1033  0.1639
  698MOL0     C94115   0.626   0.813   4.709 -0.7273  0.8951 -0.2699
  698MOL0     C94116   0.778   0.805   4.668  0.4984  1.3582 -0.4721
  698MOL0     C94117   0.857   0.669   4.711  0.5407  0.0794 -0.7143
  698MOL0     C94118   0.989   0.660   4.639 -0.5072  0.5937  0.2015
  698MOL0     O94119   1.048   0.549   4.708 -0.2113 -0.3461 -0.0202
  698MOL0     C94120   1.114   0.453   4.628  0.8517  0.7030 -0.6464
  698MOL0     C94121   1.199   0.370   4.706  0.6447 -0.0774 -0.5210
  698MOL0     C94122   1.270   0.268   4.651  0.3572  0.4779  0.6106
  698MOL0     C94123   1.258   0.238   4.514  0.7102 -0.8818  0.2650
  698MOL0     C94124   1.338   0.120   4.457 -0.8077 -0.6925 -0.3418
  698MOL0     O94125   1.336   0.102   4.321  0.5141  0.4713 -0.4241
  698MOL0     C94126   1.405  -0.003   4.272  0.1211 -0.0568  0.8499
  698MOL0     C94127   1.333  -0.120   4.228  0.0183  1.2520  0.1548
  698MOL0     C94128   1.403  -0.231   4.182  0.5001  0.2767  0.3696
  698MOL0     C94129   1.542  -0.243   4.201 -0.1171 -0.5654 -0.2243
  698MOL0     O94130   1.615  -0.351   4.163 -0.0516 -0.5320 -0.4341
  698MOL0     C94131   1.554  -0.478   4.173  0.0362 -0.7137 -0.2607
  698MOL0     C94132   1.659  -0.581   4.160  0.5363  0.0950 -0.3592
  698MOL0     C94133   1.615  -0.725   4.155 -0.5825  0.1661 -0.5772
  698MOL0     C94134   1.734  -0.815   4.162 -0.5892 -0.2193  0.0354
  698MOL0     C94135   1.702  -0.966   4.163  0.0338 -0.0022 -0.2293
  698MOL0     C94136   1.816  -1.061   4.124  0.5854  0.7358  0.3029
  698MOL0     C94137   1.892  -1.010   4.002  0.4765  0.8357 -0.6265
  698MOL0     C94138   2.008  -1.106   3.961 -0.1421  0.5876 -0.2493
  698MOL0    Cl94139   1.943  -1.271   3.907 -0.2072  0.3775 -0.1577
  698MOL0     C94140   1.612  -0.124   4.229 -0.1976  0.8417 -0.0290
  698MOL0     C94141   1.544  -0.005   4.272 -0.1946 -0.3058 -0.1458
  698MOL0     O94142   1.404   0.058   4.535 -0.1210  0.4635 -0.5851
  698MOL0     C94143   1.166   0.317   4.435 -0.3843 -0.2784 -0.1176
  698MOL0     C94144   1.094   0.423   4.490 -0.0404  1.0030 -0.8830
  698MOL0     N94145   0.570   0.631   4.880 -0.1408 -0.2626  0.0775
  698MOL0     N94146   0.555   0.631   5.003 -0.1284 -0.5278 -0.2209
  698MOL0     C94147   1.718   0.420   5.274  0.5710  0.0966 -0.6962
  698MOL0     C94148   1.855   0.402   5.303 -0.1169 -1.0841 -0.1672
  698MOL0     C94149   2.278   0.309   5.344  0.5443 -0.2609 -0.9439
  698MOL0     C94150   2.318   0.196   5.268 -0.0532 -0.0989  0.0520
  698MOL0     C94151   2.433   0.130   5.290  0.6722 -0.0322  0.7319
  698MOL0     C94152   2.519   0.171   5.391 -0.8456  0.0413  0.6328
  698MOL0     O94153   2.626   0.093   5.427  0.1310  0.6391 -0.3653
  698MOL0     C94154   2.726   0.058   5.329 -0.1883 -0.0714  0.2028
  698MOL0     C94155   2.826   0.175   5.295  1.1841 -0.3657  0.1887
  698MOL0     C94156   2.943   0.164   5.400  0.9340 -0.3897  0.4378
  698MOL0     C94157   3.049   0.269   5.379 -0.1117 -0.0578 -0.7413
  698MOL0     C94158   3.127   0.241   5.261 -0.5605 -0.1033  0.2380
  698MOL0     C94159   3.180   0.199   5.158  0.6254  0.0921 -0.1774
  698MOL0     C94160   2.492   0.287   5.463 -0.0918  0.2035 -0.3060
  698MOL0     C94161   2.376   0.360   5.435  0.0165  0.4812  0.2866
  698MOL0     C94162   2.358   0.491   5.504  0.0777 -0.0784  0.0701
  698MOL0     H94163   1.983   0.344   4.999  1.8133 -0.9452  0.9491
  698MOL0     H94164   1.724   0.378   4.940  0.3712  0.8543 -0.1277
  698MOL0     H94165   1.473   0.531   5.264  1.7045 -1.2736 -0.8377
  698MOL0     H94166   1.496   0.645   5.132 -1.2654 -0.6103  0.5719
  698MOL0     H94167   1.271   0.433   5.157 -1.6895 -0.4434 -0.5706
  698MOL0     H94168   1.300   0.544   5.016 -1.0265  2.2088  0.4859
  698MOL0     H94169   1.261   0.735   5.177  1.1637  0.2131  0.6843
  698MOL0     H94170   1.247   0.621   5.315 -0.3263 -1.7274 -0.1843
  698MOL0     H94171   1.069   0.612   5.068 -0.5860  0.3379  0.1002
  698MOL0     H94172   1.058   0.505   5.204  2.0150 -0.2416  2.7846
  698MOL0     H94173   0.980   0.678   5.339  2.7291 -2.6508  0.3004
  698MOL0     H94174   1.011   0.807   5.239 -1.7053  0.9051 -0.4587
  698MOL0     H94175   0.855   0.715   5.056  4.3155  1.9265  0.4656
  698MOL0     H94176   0.808   0.594   5.185 -5.2919  2.0741  3.3899
  698MOL0     H94177   0.774   0.904   5.204 -0.3416  0.5413  1.1242
  698MOL0     H94178   0.773   0.795   5.342 -2.2028  0.0871  0.8524
  698MOL0     H94179   0.566   0.680   5.252  0.6365  0.1239  1.2152
  698MOL0     H94180   0.544   0.858   5.231  1.2598 -0.2516  6.2162
  698MOL0     H94181   0.654   0.941   4.953 -2.1047  0.6608 -0.9404
  698MOL0     H94182   0.567   0.752   4.639 -2.4941  2.0205  0.1711
  698MOL0     H94183   0.592   0.916   4.696  0.3007  1.1312 -1.2373
  698MOL0     H94184   0.778   0.821   4.560 -1.1214  1.6308 -0.4603
  698MOL0     H94185   0.826   0.891   4.718 -4.2020  2.7447  2.2600
  698MOL0     H94186   0.792   0.584   4.689 -0.0662  0.6625 -1.2371
  698MOL0     H94187   0.876   0.671   4.818  0.0104  0.4520 -0.6262
  698MOL0     H94188   1.049   0.751   4.652  1.0169 -0.6201  2.3073
  698MOL0     H94189   0.969   0.640   4.533 -3.2312 -0.6360  0.8614
  698MOL0     H94190   1.216   0.388   4.811 -2.7798  0.2543  0.1107
  698MOL0     H94191   1.334   0.208   4.715 -1.9008 -3.0012 -0.0665
  698MOL0     H94192   1.225  -0.109   4.231  0.0392  1.3423  0.5982
  698MOL0     H94193   1.341  -0.313   4.145 -0.5756  1.5502 -0.7684
  698MOL0     H94194   1.517  -0.484   4.275  0.3024 -1.3744 -0.2031
  698MOL0     H94195   1.478  -0.487   4.094 -0.0379  1.7224 -0.5526
  698MOL0     H94196   1.714  -0.562   4.067 -1.3586  1.7037 -1.2418
  698MOL0     H94197   1.727  -0.570   4.244  2.4275  0.7123 -1.8941
  698MOL0     H94198   1.550  -0.757   4.237  1.5619  1.0827  1.5989
  698MOL0     H94199   1.562  -0.738   4.060 -0.8277  1.0735 -0.5676
  698MOL0     H94200   1.793  -0.782   4.248 -0.0573  2.2469 -1.1833
  698MOL0     H94201   1.797  -0.786   4.078 -0.2053  1.8001  0.9588
  698MOL0     H94202   1.612  -0.980   4.102 -0.5189  3.8514 -0.5403
  698MOL0     H94203   1.671  -0.986   4.266 -1.5790 -2.8037 -1.1553
  698MOL0     H94204   1.880  -1.080   4.211  3.4640  1.6869 -1.4797
  698MOL0     H94205   1.772  -1.159   4.103 -1.6022  1.5390  0.8912
  698MOL0     H94206   1.948  -0.920   4.031 -2.1636  1.9579  1.4012
  698MOL0     H94207   1.827  -0.995   3.916  0.1102  0.9544 -0.3309
  698MOL0     H94208   2.048  -1.064   3.868  0.2719 -1.1562 -0.8951
  698MOL0     H94209   2.090  -1.120   4.032  0.2885  1.1326 -0.6282
  698MOL0     H94210   1.719  -0.117   4.219 -0.2957 -0.1997 -2.5692
  698MOL0     H94211   1.601   0.087   4.270 -2.2097  0.9981 -0.1122
  698MOL0     H94212   1.156   0.303   4.328  5.4198 -2.0642 -0.8038
  698MOL0     H94213   1.021   0.481   4.434  1.4179 -0.1445 -4.2888
  698MOL0     H94214   1.637   0.420   5.346  0.5102 -1.7877 -0.7329
  698MOL0     H94215   1.882   0.410   5.408  1.6578 -1.1763 -0.5830
  698MOL0     H94216   2.239   0.144   5.215 -1.1536  1.9841 -0.4928
  698MOL0     H94217   2.445   0.042   5.228 -1.6497 -0.1147  0.2829
  698MOL0     H94218   2.681   0.016   5.239  0.7903  1.2816 -0.9602
  698MOL0     H94219   2.788  -0.015   5.382  1.1605 -1.5643 -3.1481
  698MOL0     H94220   2.773   0.268   5.317 -2.4923 -2.4936  1.2167
  698MOL0     H94221   2.849   0.165   5.188 -2.8060  0.9542 -0.9801
  698MOL0     H94222   3.000   0.070   5.402  2.3213  0.4389  1.9943
  698MOL0     H94223   2.904   0.185   5.501  0.9948  0.0063  0.3775
  698MOL0     H94224   3.002   0.366   5.362  1.4998  0.6124 -1.6510
  698MOL0     H94225   3.115   0.275   5.466 -0.3154  0.1151 -0.5971
  698MOL0     H94226   3.219   0.160   5.065 -0.1706 -1.3679  0.0717
  698MOL0     H94227   2.554   0.316   5.547 -1.3217  0.9738  0.3847
  698MOL0     H94228   2.308   0.568   5.445 -1.5471 -1.5874 -0.6371
  698MOL0     H94229   2.291   0.481   5.590  1.5834 -0.5920  1.2222
  698MOL0     H94230   2.450   0.530   5.546  1.9692 -1.2466 -2.6813
  699MOL0     O94231   8.393   0.925  11.234 -0.4675 -0.2071  0.2775
  699MOL0     C94232   8.372   0.957  11.116 -0.0655 -0.2773 -0.0941
  699MOL0     O94233   8.461   1.031  11.033  0.2244 -0.1581  0.5523
  699MOL0     C94234   8.582   1.052  11.086 -0.0209  0.4646 -0.3658
  699MOL0     C94235   8.608   1.132  11.197  0.7238 -0.1076 -0.4455
  699MOL0     C94236   8.743   1.137  11.242 -0.4292 -0.3202  0.4645
  699MOL0     C94237   8.849   1.084  11.167 -0.2096  0.0353  0.3849
  699MOL0     O94238   8.978   1.089  11.194  0.3536  0.1734 -0.2000
  699MOL0     C94239   9.032   1.196  11.269 -0.0866  0.4812 -0.2372
  699MOL0     C94240   9.181   1.212  11.247  0.1475 -0.0066  0.3258
  699MOL0     C94241   9.220   1.232  11.099  0.9252  0.2019  0.3180
  699MOL0     C94242   9.196   1.376  11.047  0.0954 -0.5251  0.1524
  699MOL0     C94243   9.271   1.385  10.908  0.2281  0.1106  0.0475
  699MOL0     C94244   9.288   1.532  10.865 -0.0872  1.0655 -0.1350
  699MOL0     C94245   9.340   1.527  10.720 -0.4612  0.2712  0.2144
  699MOL0     C94246   9.230   1.514  10.616 -0.4979 -0.1743  1.1419
  699MOL0     N94247   9.133   1.623  10.623 -0.3749 -0.1445  0.0030
  699MOL0     C94248   9.152   1.758  10.595 -0.7086  0.3804  0.0339
  699MOL0     C94249   9.035   1.817  10.583  0.0465 -0.0306  0.4974
  699MOL0     C94250   8.987   1.961  10.526  0.8471 -0.3650  0.0357
  699MOL0     C94251   9.096   2.077  10.526 -0.2676 -0.1651  0.5466
  699MOL0     C94252   9.071   2.177  10.642 -0.2682  1.1519 -0.3201
  699MOL0     C94253   9.196   2.261  10.677 -0.9157  0.4626  0.5362
  699MOL0     O94254   9.246   2.341  10.568 -0.2879 -0.4334 -0.5512
  699MOL0     C94255   9.367   2.411  10.568  0.6402  0.2229  0.3832
  699MOL0     C94256   9.463   2.386  10.668 -0.6798  0.4871  0.5633
  699MOL0     C94257   9.593   2.443  10.660  0.5663 -0.0255  0.2049
  699MOL0     C94258   9.626   2.527  10.554  0.9896 -0.6620  0.2446
  699MOL0     C94259   9.759   2.589  10.544 -0.0139  0.3173  0.3150
  699MOL0     O94260   9.842   2.562  10.651  0.7077 -0.3830  0.0779
  699MOL0     C94261   9.960   2.620  10.644 -0.2956 -0.7438 -1.1322
  699MOL0     C94262  10.057   2.614  10.547 -0.2884 -0.0633  0.4503
  699MOL0     C94263  10.179   2.680  10.561 -0.4723  0.1730 -0.6146
  699MOL0     C94264  10.220   2.743  10.681 -0.0027  0.3116  0.0515
  699MOL0     O94265  10.335   2.814  10.691 -0.0685 -0.6809 -0.0197
  699MOL0     C94266  10.447   2.735  10.739  0.1069  0.4157 -0.1009
  699MOL0     C94267  10.493   2.789  10.878 -0.7044  0.0108 -1.3157
  699MOL0     C94268  10.640   2.733  10.902  0.4718 -0.2467  0.3673
  699MOL0     C94269  10.707   2.800  11.029  0.0565 -0.3162  0.9160
  699MOL0     C94270  10.853   2.763  11.044  0.6737  0.8085 -0.8460
  699MOL0     C94271  10.902   2.824  11.177  0.2311 -0.4664  1.1196
  699MOL0     C94272  11.047   2.789  11.216  0.6287  0.3698  0.1151
  699MOL0     C94273  11.154   2.839  11.125  0.2345 -0.1441 -0.2946
  699MOL0    Cl94274  11.299   2.785  11.221 -0.1617  0.2944 -0.2097
  699MOL0     C94275  10.123   2.764  10.778  1.3762 -1.0241  1.4962
  699MOL0     C94276  10.001   2.690  10.762  0.3588  0.0053 -0.7303
  699MOL0     O94277   9.782   2.659  10.448  0.0597  0.1327  0.7882
  699MOL0     C94278   9.525   2.552  10.453  0.6472 -0.4274 -0.4804
  699MOL0     C94279   9.401   2.488  10.461 -0.0868 -0.7457  0.4449
  699MOL0     N94280   8.934   1.726  10.609  0.5158 -0.0853 -0.1756
  699MOL0     N94281   8.998   1.610  10.628  0.2365 -0.4613  0.0989
  699MOL0     C94282   8.810   1.016  11.045 -0.7534 -0.1409  1.0747
  699MOL0     C94283   8.684   1.002  11.004  0.1538 -0.3465 -0.5746
  699MOL0     C94284   8.232   0.937  11.065 -0.1925 -0.1363 -0.0970
  699MOL0     C94285   8.125   0.971  11.151 -0.7198 -0.3856 -0.9392
  699MOL0     C94286   7.988   0.963  11.116 -0.0817 -0.6634  0.5356
  699MOL0     C94287   7.955   0.920  10.988 -0.6306 -0.1926 -0.2577
  699MOL0     O94288   7.827   0.910  10.940  0.3693  0.0955 -0.3569
  699MOL0     C94289   7.741   1.018  10.937  0.2099  0.0614 -0.1123
  699MOL0     C94290   7.611   0.991  10.863  0.4213 -0.3077 -0.0443
  699MOL0     C94291   7.523   0.900  10.947  0.1478 -0.1402 -0.1391
  699MOL0     C94292   7.467   0.948  11.075  0.0576  0.0853  0.2496
  699MOL0     C94293   7.392   1.071  11.062 -0.3257 -0.6937 -0.5299
  699MOL0     C94294   7.337   1.180  11.056 -0.6248  0.1483  0.0530
  699MOL0     C94295   8.059   0.881  10.901  0.3216  0.8982 -0.1746
  699MOL0     C94296   8.202   0.886  10.936 -0.1569 -0.0774 -0.6537
  699MOL0     C94297   8.310   0.841  10.838  0.5316  1.4834 -0.3762
  699MOL0     H94298   8.519   1.171  11.244 -0.8739 -3.8997  0.1041
  699MOL0     H94299   8.765   1.200  11.328 -0.7392 -0.8104  0.9135
  699MOL0     H94300   8.980   1.286  11.236 -1.4833 -0.1418  0.2092
  699MOL0     H94301   9.023   1.180  11.377  2.2014 -1.3601 -0.2275
  699MOL0     H94302   9.243   1.132  11.289  1.3449  0.7102 -0.0066
  699MOL0     H94303   9.207   1.302  11.303  0.1134  1.1725 -1.4604
  699MOL0     H94304   9.172   1.153  11.039 -0.1711  0.4811  0.8089
  699MOL0     H94305   9.327   1.208  11.097  0.9543  0.0955 -3.0772
  699MOL0     H94306   9.088   1.391  11.041  0.0391 -1.4280 -2.2949
  699MOL0     H94307   9.249   1.440  11.118 -0.9358 -0.0283  0.4935
  699MOL0     H94308   9.374   1.349  10.917 -0.2216 -1.9950 -2.1321
  699MOL0     H94309   9.226   1.320  10.832  0.7619  0.5418 -0.6493
  699MOL0     H94310   9.196   1.590  10.878  0.7948  2.1938  1.3211
  699MOL0     H94311   9.360   1.582  10.929  1.5957 -1.1469 -0.1711
  699MOL0     H94312   9.416   1.451  10.702  0.8937  1.8073 -0.8419
  699MOL0     H94313   9.397   1.620  10.713 -2.7796  1.7008 -1.5744
  699MOL0     H94314   9.278   1.522  10.518 -0.1488  2.5163  1.4409
  699MOL0     H94315   9.179   1.418  10.621 -1.4699 -0.1460 -3.4028
  699MOL0     H94316   9.252   1.801  10.587 -0.7408  0.6466  0.9681
  699MOL0     H94317   8.943   1.944  10.427  1.1706 -0.4082 -0.1017
  699MOL0     H94318   8.907   1.996  10.591  2.8840  1.2557  1.8145
  699MOL0     H94319   9.190   2.024  10.540  0.0238 -0.1881 -1.2791
  699MOL0     H94320   9.091   2.127  10.428  0.1567 -0.4496  0.3816
  699MOL0     H94321   9.037   2.121  10.730 -0.9946  0.6836 -0.8834
  699MOL0     H94322   8.990   2.242  10.610 -0.7409  1.9032  2.1811
  699MOL0     H94323   9.283   2.199  10.699  0.5277  1.7447 -1.2001
  699MOL0     H94324   9.162   2.318  10.764  1.4481 -0.0123  1.8583
  699MOL0     H94325   9.444   2.337  10.763  0.2430  0.9366  0.9915
  699MOL0     H94326   9.665   2.426  10.740 -0.1604  0.1979  0.9180
  699MOL0     H94327  10.042   2.557  10.456  0.1747  1.1606 -0.4156
  699MOL0     H94328  10.260   2.678  10.489  1.4047 -4.0042  1.2608
  699MOL0     H94329  10.416   2.631  10.743 -0.1245  0.5073  0.6848
  699MOL0     H94330  10.529   2.751  10.668  0.8772 -0.2366  0.6239
  699MOL0     H94331  10.493   2.898  10.882  0.1375 -0.0157  0.7360
  699MOL0     H94332  10.437   2.752  10.964  0.5873  1.8515  0.4218
  699MOL0     H94333  10.629   2.624  10.907 -2.8232 -0.2726 -2.9401
  699MOL0     H94334  10.692   2.766  10.811 -1.9678 -1.6015 -1.6514
  699MOL0     H94335  10.655   2.767  11.120 -0.1497 -2.5298  0.0726
  699MOL0     H94336  10.712   2.908  11.013  3.0760 -0.8959 -4.4153
  699MOL0     H94337  10.920   2.798  10.966  0.0633  1.4590 -1.0915
  699MOL0     H94338  10.856   2.654  11.057 -1.4087  0.8711  0.8192
  699MOL0     H94339  10.889   2.932  11.162 -1.3894 -0.6609  0.9841
  699MOL0     H94340  10.837   2.792  11.259 -1.7851  0.1582 -0.1538
  699MOL0     H94341  11.059   2.682  11.236  0.4242  0.9181  3.7540
  699MOL0     H94342  11.059   2.826  11.318 -0.6645  0.9607  0.0636
  699MOL0     H94343  11.158   2.782  11.032  0.8723 -1.2283  0.3798
  699MOL0     H94344  11.149   2.948  11.111 -2.6322 -0.4287 -2.5140
  699MOL0     H94345  10.129   2.822  10.869 -0.9501  2.5516 -0.4124
  699MOL0     H94346   9.934   2.696  10.847  0.9902 -1.5462 -0.0752
  699MOL0     H94347   9.561   2.612  10.371  2.5922 -0.6873  0.1333
  699MOL0     H94348   9.327   2.510  10.385 -1.6504  2.6273  2.6766
  699MOL0     H94349   8.891   0.987  10.979 -1.0742  1.1486  0.0870
  699MOL0     H94350   8.665   0.945  10.913 -0.4182 -2.0990  0.5774
  699MOL0     H94351   8.149   1.026  11.242 -0.2077  0.6817 -1.6877
  699MOL0     H94352   7.908   0.984  11.186 -1.4063 -0.2938 -1.0407
  699MOL0     H94353   7.792   1.094  10.877  2.3134 -2.1670 -1.3430
  699MOL0     H94354   7.736   1.068  11.035  3.2373 -0.7941  0.5905
  699MOL0     H94355   7.622   0.943  10.765 -2.7941 -0.1105 -0.5904
  699MOL0     H94356   7.574   1.092  10.840  0.9338 -0.1191 -0.0763
  699MOL0     H94357   7.589   0.816  10.971  0.8641  0.5629  0.3797
  699MOL0     H94358   7.440   0.863  10.886  3.6867 -3.6960 -3.4329
  699MOL0     H94359   7.405   0.870  11.121 -2.1452  2.2509  1.1383
  699MOL0     H94360   7.551   0.976  11.139  1.1463  0.0899 -1.1201
  699MOL0     H94361   7.296   1.279  11.048 -0.7778  0.0670 -0.1749
  699MOL0     H94362   8.044   0.842  10.800  1.7802  2.0519 -0.8746
  699MOL0     H94363   8.346   0.740  10.861 -0.9789  1.3947  2.0034
  699MOL0     H94364   8.267   0.838  10.737 -2.0267  1.3505  0.6367
  699MOL0     H94365   8.390   0.914  10.824  0.7300  1.5816  1.1387
  700MOL0     O94366   5.654  10.989   1.918 -0.3785 -0.2271  0.2736
  700MOL0     C94367   5.627  10.959   1.807 -0.6882  0.9891  0.1993
  700MOL0     O94368   5.714  10.890   1.716  0.2228  0.1408  0.2060
  700MOL0     C94369   5.843  10.863   1.760 -0.1836 -0.1679 -0.7023
  700MOL0     C94370   5.962  10.914   1.697  0.3643 -0.2993  0.1278
  700MOL0     C94371   6.089  10.904   1.747 -0.8481  0.5459 -0.3076
  700MOL0     C94372   6.119  10.837   1.865  0.9550 -0.1697 -0.2464
  700MOL0     O94373   6.249  10.814   1.914  0.3654 -0.3818 -0.8696
  700MOL0     C94374   6.336  10.927   1.898 -0.6055  0.7213  0.5288
  700MOL0     C94375   6.462  10.871   1.829 -0.1919 -0.2429  0.8662
  700MOL0     C94376   6.567  10.989   1.815 -0.1415 -0.1076  0.4247
  700MOL0     C94377   6.531  11.110   1.719 -0.1506  0.2965  0.0464
  700MOL0     C94378   6.641  11.214   1.714  0.7289 -0.6953  0.7486
  700MOL0     C94379   6.607  11.310   1.605 -0.3918  0.0594  0.1761
  700MOL0     C94380   6.704  11.429   1.610 -0.1633 -0.2233  0.1746
  700MOL0     C94381   6.686  11.504   1.478  0.1068  1.2710 -1.0976
  700MOL0     N94382   6.771  11.621   1.460  0.0204 -1.1165 -0.5882
  700MOL0     C94383   6.908  11.629   1.483  0.6815 -0.4368 -0.0128
  700MOL0     C94384   6.940  11.757   1.438  0.5239  0.0601 -0.4771
  700MOL0     C94385   7.070  11.825   1.469  0.2555 -0.1930  0.5326
  700MOL0     C94386   7.172  11.807   1.354  0.6736  0.0772  0.3497
  700MOL0     C94387   7.297  11.889   1.388  0.4923  0.5681 -0.1349
  700MOL0     C94388   7.368  11.922   1.258 -0.2649  0.1451  0.2746
  700MOL0     O94389   7.453  11.803   1.233  1.1558 -0.1392 -0.6774
  700MOL0     C94390   7.518  11.807   1.119 -0.2785  0.0799 -0.9402
  700MOL0     C94391   7.447  11.792   1.002 -0.6491 -0.1811 -0.5134
  700MOL0     C94392   7.524  11.772   0.889 -0.6299 -0.9699  0.5715
  700MOL0     C94393   7.665  11.789   0.883 -0.0864 -0.3310 -0.1311
  700MOL0     C94394   7.739  11.769   0.758  0.6914  0.1800 -0.4993
  700MOL0     O94395   7.874  11.761   0.767 -0.2681  0.1060  0.0506
  700MOL0     C94396   7.950  11.766   0.659  0.4101  0.9770 -0.4843
  700MOL0     C94397   7.927  11.835   0.537  0.2508 -0.0187  0.1015
  700MOL0     C94398   8.022  11.830   0.433 -0.1073 -0.5894  0.3898
  700MOL0     C94399   8.134  11.756   0.444 -0.1577 -0.0797 -0.2908
  700MOL0     O94400   8.220  11.754   0.339  0.1635 -0.5494 -0.2816
  700MOL0     C94401   8.360  11.702   0.340  0.2258 -0.1016 -0.0294
  700MOL0     C94402   8.439  11.801   0.237  0.2165  1.0216 -0.5604
  700MOL0     C94403   8.594  11.803   0.274  0.4233 -1.0393 -1.0844
  700MOL0     C94404   8.663  11.678   0.222 -0.4223 -0.3332 -0.4140
  700MOL0     C94405   8.811  11.688   0.258  0.2024 -0.8803 -0.2429
  700MOL0     C94406   8.888  11.569   0.221 -0.5205  0.0403 -0.4786
  700MOL0     C94407   9.033  11.592   0.273  0.2496  0.0905  0.2681
  700MOL0     C94408   9.116  11.688   0.183  0.1112  0.0761  0.9646
  700MOL0    Cl94409   9.260  11.734   0.266 -0.0076 -0.2987 -0.1366
  700MOL0     C94410   8.164  11.689   0.560 -0.0774  0.2359 -0.4371
  700MOL0     C94411   8.070  11.693   0.666  0.1462  0.4743 -0.0953
  700MOL0     O94412   7.674  11.745   0.651  0.0779  0.5019 -0.4831
  700MOL0     C94413   7.731  11.812   1.006 -0.8136 -0.0797  0.8932
  700MOL0     C94414   7.656  11.826   1.123 -0.9279 -0.0371  0.2299
  700MOL0     N94415   6.828  11.812   1.391  0.0920 -0.2219 -0.2878
  700MOL0     N94416   6.734  11.730   1.404  0.1869  0.5883  0.3203
  700MOL0     C94417   6.004  10.774   1.932 -0.2442  0.5940  0.1146
  700MOL0     C94418   5.872  10.799   1.885 -0.1606  0.9025  0.6135
  700MOL0     C94419   5.490  10.986   1.755  0.3194 -0.4148  0.7243
  700MOL0     C94420   5.470  10.975   1.617 -0.1147 -0.4369 -0.3023
  700MOL0     C94421   5.342  11.009   1.568 -1.1124  0.1392 -0.0857
  700MOL0     C94422   5.234  11.028   1.646 -0.0239  0.1823 -0.2620
  700MOL0     O94423   5.105  11.056   1.609  0.1297  0.3747 -0.1371
  700MOL0     C94424   5.064  11.007   1.482 -0.3482  0.4598  0.7023
  700MOL0     C94425   4.916  10.992   1.478  0.6299  0.4156 -0.8484
  700MOL0     C94426   4.861  11.008   1.330  0.8253 -0.6113 -0.6351
  700MOL0     C94427   4.853  11.146   1.264 -0.3923  0.4620 -0.4238
  700MOL0     C94428   4.777  11.242   1.339  0.6405 -0.0695 -1.0813
  700MOL0     C94429   4.697  11.314   1.400  0.4672 -0.0806  0.7827
  700MOL0     C94430   5.254  11.037   1.783  0.9745 -0.3132  1.7269
  700MOL0     C94431   5.378  11.025   1.840  0.0732 -0.6502 -0.0451
  700MOL0     C94432   5.383  11.038   1.992  0.0689  0.2800 -0.1082
  700MOL0     H94433   5.939  10.963   1.603 -0.1046 -1.0436 -0.1604
  700MOL0     H94434   6.164  10.957   1.688 -0.3428  1.5805  1.2049
  700MOL0     H94435   6.301  11.004   1.829  2.1809  0.5490 -1.2528
  700MOL0     H94436   6.353  10.979   1.993 -3.5758  1.0409  0.9780
  700MOL0     H94437   6.437  10.826   1.733  0.8938  1.3164 -0.1955
  700MOL0     H94438   6.508  10.794   1.892  0.7029  0.0541  0.5910
  700MOL0     H94439   6.660  10.941   1.784  0.3847  2.4159 -2.3351
  700MOL0     H94440   6.590  11.028   1.914 -4.0170  1.0088  1.0708
  700MOL0     H94441   6.526  11.069   1.617  0.2536  0.8111 -0.1824
  700MOL0     H94442   6.438  11.160   1.746 -0.0065  0.8684 -0.4962
  700MOL0     H94443   6.644  11.274   1.806  0.4783  0.4731  0.0138
  700MOL0     H94444   6.736  11.167   1.689  0.1163 -2.1376  1.0290
  700MOL0     H94445   6.609  11.250   1.513 -0.3136 -1.0153  0.8677
  700MOL0     H94446   6.505  11.343   1.625  0.2098  1.4415  1.1195
  700MOL0     H94447   6.808  11.394   1.615  0.2330  0.8990  0.2136
  700MOL0     H94448   6.687  11.500   1.691 -2.1048 -2.8956  2.2903
  700MOL0     H94449   6.699  11.436   1.393  1.7440  0.6320 -0.3731
  700MOL0     H94450   6.580  11.527   1.470 -0.1370 -0.1937 -2.4724
  700MOL0     H94451   6.976  11.558   1.530  0.6113 -0.0614  0.6727
  700MOL0     H94452   7.049  11.932   1.477  2.3975  0.2754  0.4765
  700MOL0     H94453   7.117  11.786   1.559 -0.1998 -1.1581  0.3635
  700MOL0     H94454   7.203  11.703   1.339 -2.3725 -1.0222  0.9701
  700MOL0     H94455   7.125  11.833   1.258  0.1761  2.7218  1.2190
  700MOL0     H94456   7.355  11.832   1.461 -1.9852 -1.6476  0.2905
  700MOL0     H94457   7.260  11.977   1.443  0.9333  1.1425 -0.7520
  700MOL0     H94458   7.438  12.005   1.265  2.4251 -2.0799  2.6942
  700MOL0     H94459   7.305  11.950   1.174  2.7114 -1.2480 -2.6611
  700MOL0     H94460   7.339  11.789   0.997 -0.7400 -1.7219  1.0975
  700MOL0     H94461   7.473  11.748   0.796  2.5113 -0.5282 -1.4194
  700MOL0     H94462   7.840  11.899   0.539  1.7312  2.2223  3.8142
  700MOL0     H94463   7.993  11.875   0.338 -1.0654 -0.7433  0.6078
  700MOL0     H94464   8.390  11.713   0.445 -1.7576  0.1291  0.5656
  700MOL0     H94465   8.364  11.598   0.307  3.3087  0.1225 -0.6518
  700MOL0     H94466   8.423  11.784   0.130  1.4247 -2.2642 -0.3396
  700MOL0     H94467   8.410  11.905   0.256  0.6155  1.1017 -0.3775
  700MOL0     H94468   8.646  11.887   0.228 -0.7616 -0.1650 -0.8881
  700MOL0     H94469   8.623  11.815   0.379  1.7448 -0.1061 -1.5295
  700MOL0     H94470   8.641  11.670   0.115  2.2549 -2.9981 -0.8956
  700MOL0     H94471   8.615  11.598   0.279 -0.9261  0.7669  0.7480
  700MOL0     H94472   8.819  11.716   0.363  0.7695  1.3252 -0.8225
  700MOL0     H94473   8.842  11.777   0.203 -0.7077 -0.0083  0.6197
  700MOL0     H94474   8.832  11.481   0.256  0.0532  1.0970  3.5865
  700MOL0     H94475   8.889  11.569   0.112 -0.9971 -0.4564 -0.4889
  700MOL0     H94476   9.093  11.500   0.267  2.9949  1.7458  0.8787
  700MOL0     H94477   9.030  11.622   0.378 -1.6888  0.7595  0.0675
  700MOL0     H94478   9.141  11.648   0.085 -1.7722 -0.0136  0.4833
  700MOL0     H94479   9.057  11.776   0.156  0.1318 -0.8702 -2.6361
  700MOL0     H94480   8.247  11.620   0.574 -0.0982  0.6891  2.8514
  700MOL0     H94481   8.087  11.632   0.755 -0.2559 -0.3717 -0.5830
  700MOL0     H94482   7.838  11.830   1.014 -0.4936 -1.8784  1.0569
  700MOL0     H94483   7.711  11.825   1.216  2.1047 -0.9049 -1.4385
  700MOL0     H94484   6.018  10.720   2.025 -3.1263  0.7080  0.6978
  700MOL0     H94485   5.790  10.764   1.947  1.5746 -0.7860  2.0843
  700MOL0     H94486   5.543  10.942   1.545 -0.7534 -0.0080 -1.1627
  700MOL0     H94487   5.322  10.998   1.462  0.9755  1.7296 -0.6998
  700MOL0     H94488   5.096  10.903   1.477 -2.1728 -0.2801  2.8236
  700MOL0     H94489   5.092  11.062   1.391 -0.9296 -1.0237 -0.4202
  700MOL0     H94490   4.864  11.058   1.548  0.2217 -3.0039  2.3716
  700MOL0     H94491   4.892  10.888   1.504 -0.2524 -0.0467 -3.2215
  700MOL0     H94492   4.760  10.966   1.331  1.9488 -3.6400 -1.5677
  700MOL0     H94493   4.922  10.942   1.267  0.8909  0.9314 -2.2491
  700MOL0     H94494   4.950  11.188   1.238 -0.1290  0.2477  0.2066
  700MOL0     H94495   4.806  11.132   1.166  1.3356 -1.1308 -1.0808
  700MOL0     H94496   4.621  11.373   1.447  0.8701  1.6239 -0.6195
  700MOL0     H94497   5.174  11.070   1.848  0.8084 -0.7230  1.7361
  700MOL0     H94498   5.284  11.062   2.033 -0.1902  0.0292 -0.5860
  700MOL0     H94499   5.426  10.949   2.038  2.4625  1.2490 -0.3267
  700MOL0     H94500   5.442  11.126   2.019 -0.3822  0.6101 -0.1858
  701MOL0     O94501   3.606   6.988   1.179  0.4851 -0.8469  0.4142
  701MOL0     C94502   3.488   6.957   1.153 -0.0853  0.4070 -0.7315
  701MOL0     O94503   3.453   6.836   1.118 -0.0450 -0.0008  0.2609
  701MOL0     C94504   3.557   6.743   1.130  0.0654 -0.3612  0.9824
  701MOL0     C94505   3.631   6.704   1.011 -0.3965 -0.1819 -0.5961
  701MOL0     C94506   3.734   6.609   1.026 -0.2318 -0.7690  0.0607
  701MOL0     C94507   3.760   6.545   1.150  0.4506 -0.2843 -0.1032
  701MOL0     O94508   3.855   6.448   1.155  0.3747 -0.7231 -0.1281
  701MOL0     C94509   3.860   6.358   1.262 -0.7616  0.4848 -0.1960
  701MOL0     C94510   3.984   6.273   1.261  1.2392  0.1342 -0.1023
  701MOL0     C94511   4.112   6.358   1.267  0.4402  0.1339 -0.8069
  701MOL0     C94512   4.231   6.285   1.200  0.8132 -0.2203  0.1990
  701MOL0     C94513   4.326   6.386   1.146  0.4195  1.0125 -0.7314
  701MOL0     C94514   4.283   6.457   1.018 -0.0163 -0.3886  0.2290
  701MOL0     C94515   4.390   6.555   0.982 -0.2590 -0.1388  0.1656
  701MOL0     C94516   4.358   6.605   0.847 -0.1583 -0.9496  0.0916
  701MOL0     N94517   4.469   6.682   0.776 -0.1564  0.8067  0.1029
  701MOL0     C94518   4.456   6.800   0.711  0.7575  0.5665 -0.5842
  701MOL0     C94519   4.570   6.822   0.652 -0.7081 -0.0609  0.7845
  701MOL0     C94520   4.612   6.937   0.563 -0.6209 -0.0441  0.1852
  701MOL0     C94521   4.715   7.024   0.645  0.2305 -0.2096  0.3781
  701MOL0     C94522   4.765   7.130   0.545  0.6708  0.9619  0.5109
  701MOL0     C94523   4.865   7.225   0.615 -0.3197  0.0909  0.1854
  701MOL0     O94524   4.998   7.160   0.613  0.2847  0.1099 -0.0958
  701MOL0     C94525   5.098   7.219   0.545 -0.2803  1.3356  1.5034
  701MOL0     C94526   5.083   7.293   0.425  0.2047  0.5581  0.8447
  701MOL0     C94527   5.198   7.347   0.366 -0.0887  0.9919 -0.0365
  701MOL0     C94528   5.332   7.319   0.417 -0.9420  0.0444 -0.0801
  701MOL0     C94529   5.449   7.387   0.350  0.5001  0.0201 -1.1657
  701MOL0     O94530   5.439   7.425   0.226 -0.1930  0.9504 -0.0377
  701MOL0     C94531   5.533   7.518   0.184  0.1771 -0.8031  0.5036
  701MOL0     C94532   5.656   7.481   0.133  0.2468 -0.4641 -0.6393
  701MOL0     C94533   5.739   7.582   0.085 -0.9538  0.3556 -0.5825
  701MOL0     C94534   5.717   7.719   0.093  1.0570 -0.8226 -0.1763
  701MOL0     O94535   5.794   7.816   0.057  0.1425 -0.1298  0.1977
  701MOL0     C94536   5.881   7.784  -0.051  1.4226  0.2765 -0.1481
  701MOL0     C94537   5.957   7.921  -0.077  0.5032 -0.4854 -0.3363
  701MOL0     C94538   6.067   7.900  -0.177  0.2334 -0.8087  0.4512
  701MOL0     C94539   6.167   8.019  -0.181  0.2626  0.6653  0.1322
  701MOL0     C94540   6.276   7.997  -0.284 -0.1366  0.9698 -0.5837
  701MOL0     C94541   6.363   8.121  -0.259  0.9157  0.2056  0.1038
  701MOL0     C94542   6.470   8.128  -0.370  0.4454  0.1656  0.8672
  701MOL0     C94543   6.557   8.246  -0.349 -0.3925 -0.3803 -0.3183
  701MOL0    Cl94544   6.480   8.406  -0.392 -0.0324 -0.2673  0.5180
  701MOL0     C94545   5.598   7.747   0.170  0.7289 -0.2931 -0.9435
  701MOL0     C94546   5.498   7.654   0.206 -0.3428  0.3240  0.1645
  701MOL0     O94547   5.548   7.413   0.427  0.1809  0.2249  0.2275
  701MOL0     C94548   5.349   7.239   0.529  0.5393  0.0975  0.6441
  701MOL0     C94549   5.229   7.193   0.594 -0.0854 -0.3241  0.1874
  701MOL0     N94550   4.655   6.717   0.680  0.3349  0.3528  0.1483
  701MOL0     N94551   4.587   6.625   0.752 -0.9039 -0.5892  1.2372
  701MOL0     C94552   3.663   6.567   1.256 -0.0285 -0.3173 -0.1587
  701MOL0     C94553   3.563   6.665   1.247  0.1989 -0.0803 -0.5202
  701MOL0     C94554   3.389   7.061   1.163  0.3886 -0.1044 -0.4393
  701MOL0     C94555   3.247   7.022   1.171 -0.1731 -0.1934 -0.3401
  701MOL0     C94556   3.137   7.108   1.176  0.0688  0.2459  0.1351
  701MOL0     C94557   3.170   7.244   1.168 -0.8144  0.0855  0.5808
  701MOL0     O94558   3.067   7.330   1.149 -0.5210 -0.4930  0.4782
  701MOL0     C94559   3.034   7.417   1.259 -0.3020  0.3942  0.1096
  701MOL0     C94560   2.940   7.351   1.356 -0.2249 -0.1043  0.5631
  701MOL0     C94561   2.807   7.296   1.297  0.5125 -0.2846 -0.2359
  701MOL0     C94562   2.709   7.402   1.242  0.3610 -0.1793 -0.3625
  701MOL0     C94563   2.659   7.499   1.344 -0.5550 -0.6542  0.9460
  701MOL0     C94564   2.607   7.578   1.418 -0.2222 -0.4735 -0.6098
  701MOL0     C94565   3.308   7.288   1.165  0.1934  0.2702 -0.3915
  701MOL0     C94566   3.420   7.201   1.160  0.3285  0.9272 -0.2521
  701MOL0     C94567   3.561   7.263   1.156 -0.3369  0.1863  0.1754
  701MOL0     H94568   3.605   6.758   0.920 -1.4133  3.2155  1.4998
  701MOL0     H94569   3.806   6.592   0.947  0.0889  0.0123  0.1785
  701MOL0     H94570   3.857   6.415   1.356 -0.0036 -0.6391  0.5326
  701MOL0     H94571   3.768   6.300   1.253 -1.4755  1.8553 -2.8007
  701MOL0     H94572   3.986   6.217   1.167 -0.5877  0.6286 -0.4824
  701MOL0     H94573   3.975   6.198   1.340  0.4111  1.7900  1.4470
  701MOL0     H94574   4.136   6.364   1.374  1.6138 -4.7795 -0.5510
  701MOL0     H94575   4.100   6.455   1.219  0.8054  0.8475  0.4944
  701MOL0     H94576   4.281   6.215   1.268  0.7485  0.6360  1.1579
  701MOL0     H94577   4.192   6.226   1.117 -1.9719  1.5409  0.1575
  701MOL0     H94578   4.343   6.463   1.222  1.1960  0.4996 -0.3729
  701MOL0     H94579   4.423   6.341   1.124  0.7981  0.4984  1.7327
  701MOL0     H94580   4.254   6.390   0.936 -0.4356  2.1578 -1.8348
  701MOL0     H94581   4.195   6.515   1.045  0.8288 -0.7098  4.2588
  701MOL0     H94582   4.494   6.523   0.974 -0.3428 -0.0677 -1.7548
  701MOL0     H94583   4.402   6.632   1.058  3.5428 -1.9160  1.5864
  701MOL0     H94584   4.326   6.527   0.777  1.6282 -0.2421 -1.5938
  701MOL0     H94585   4.274   6.673   0.865 -0.0489 -1.3598  2.4041
  701MOL0     H94586   4.367   6.858   0.690 -0.2929 -1.4805 -2.1098
  701MOL0     H94587   4.633   6.904   0.460 -0.5072  0.1925  0.1327
  701MOL0     H94588   4.529   7.006   0.550 -0.1932  0.2762 -1.0519
  701MOL0     H94589   4.664   7.067   0.732  1.5464 -0.6404  1.3950
  701MOL0     H94590   4.801   6.962   0.674 -1.1018 -3.5249 -2.1542
  701MOL0     H94591   4.677   7.179   0.502  0.6671  0.4481 -0.0753
  701MOL0     H94592   4.810   7.088   0.455 -0.5981  0.6141  0.0319
  701MOL0     H94593   4.835   7.245   0.718 -0.5394 -1.5258  0.4652
  701MOL0     H94594   4.872   7.318   0.559 -0.4004  0.4579  0.7788
  701MOL0     H94595   4.980   7.301   0.395  0.6623 -1.1516 -1.4068
  701MOL0     H94596   5.183   7.407   0.277 -0.9812 -0.2715 -0.7807
  701MOL0     H94597   5.674   7.374   0.134  2.7240 -0.2033  3.8101
  701MOL0     H94598   5.827   7.533   0.046 -3.5557 -4.8749 -0.6976
  701MOL0     H94599   5.947   7.697  -0.037 -0.6742 -1.3003  0.3504
  701MOL0     H94600   5.828   7.764  -0.144 -1.7564 -0.9655  1.7568
  701MOL0     H94601   5.886   7.998  -0.108  0.1678  0.4317  2.4570
  701MOL0     H94602   6.004   7.958   0.015  0.8520 -1.5405 -0.0793
  701MOL0     H94603   6.121   7.817  -0.130 -0.4544 -0.1088  2.6164
  701MOL0     H94604   6.036   7.869  -0.277  0.8903  0.6939 -0.2530
  701MOL0     H94605   6.211   8.035  -0.082 -0.5311 -1.2892  0.8625
  701MOL0     H94606   6.104   8.104  -0.210  0.0528  0.0504 -1.3008
  701MOL0     H94607   6.232   7.989  -0.384  0.2891 -2.4193 -0.6291
  701MOL0     H94608   6.317   7.896  -0.275 -1.7079  0.2167 -1.4632
  701MOL0     H94609   6.303   8.212  -0.268 -0.0969 -0.5226 -0.7336
  701MOL0     H94610   6.401   8.105  -0.158 -1.8528  0.6914  1.3144
  701MOL0     H94611   6.422   8.126  -0.468 -0.5678 -0.2329  1.3554
  701MOL0     H94612   6.535   8.040  -0.362 -0.0938 -0.5639 -1.8657
  701MOL0     H94613   6.587   8.254  -0.244 -0.8748 -1.1928 -0.1109
  701MOL0     H94614   6.649   8.221  -0.403 -0.2026 -0.2913 -0.0428
  701MOL0     H94615   5.566   7.851   0.177 -0.4429 -0.5861 -1.5533
  701MOL0     H94616   5.405   7.683   0.254  0.0647 -1.8844  2.4614
  701MOL0     H94617   5.444   7.207   0.570  0.7834 -1.5054 -1.0560
  701MOL0     H94618   5.229   7.129   0.682 -1.4056  1.0686  1.2522
  701MOL0     H94619   3.663   6.508   1.348 -1.2062  1.5103  1.0954
  701MOL0     H94620   3.503   6.675   1.337  0.0357 -2.3412 -0.3257
  701MOL0     H94621   3.220   6.917   1.159  1.8806 -0.6630 -1.2529
  701MOL0     H94622   3.031   7.088   1.188 -0.9942  3.5357 -2.1770
  701MOL0     H94623   2.998   7.516   1.228 -1.5250  0.0473  0.3506
  701MOL0     H94624   3.126   7.432   1.315 -1.1252  0.5915  1.4478
  701MOL0     H94625   2.910   7.421   1.435  1.1743  2.9320 -1.3910
  701MOL0     H94626   3.004   7.275   1.402  2.0045  1.4929  0.2611
  701MOL0     H94627   2.763   7.237   1.377  1.4265 -1.8658 -0.8598
  701MOL0     H94628   2.827   7.229   1.213 -1.9429  1.2389 -2.1838
  701MOL0     H94629   2.763   7.449   1.160  0.1166 -1.2109 -1.1379
  701MOL0     H94630   2.633   7.342   1.191  1.7995  1.3135 -4.7011
  701MOL0     H94631   2.571   7.643   1.495  1.4144  0.4373 -0.5739
  701MOL0     H94632   3.335   7.393   1.159  2.8161 -0.3309 -6.0111
  701MOL0     H94633   3.612   7.252   1.252 -0.2547 -0.3886  0.0655
  701MOL0     H94634   3.626   7.229   1.076  1.0241  0.9816  0.9098
  701MOL0     H94635   3.547   7.372   1.157  0.3690  0.2765  0.9425
  702MOL0     O94636   7.830   4.172  11.276 -0.0676  0.0573  0.3661
  702MOL0     C94637   7.748   4.244  11.344 -1.3888  0.1656  1.0040
  702MOL0     O94638   7.746   4.262  11.478 -0.5974  0.8941 -0.3067
  702MOL0     C94639   7.824   4.175  11.563 -0.1724  0.0450  0.3270
  702MOL0     C94640   7.869   4.045  11.532 -1.3191 -0.4103 -0.0425
  702MOL0     C94641   7.943   3.970  11.629  0.3515 -0.6157 -0.7944
  702MOL0     C94642   7.974   4.023  11.754  0.1085  0.0126  0.2695
  702MOL0     O94643   8.043   3.935  11.837 -0.1229  0.7780 -0.3113
  702MOL0     C94644   8.111   3.996  11.955 -0.0743  0.2362  0.8758
  702MOL0     C94645   8.197   3.879  12.015 -0.2779 -0.1197  1.1640
  702MOL0     C94646   8.338   3.916  11.985 -0.3110  0.5061 -0.2410
  702MOL0     C94647   8.426   3.810  12.052  0.1177  0.0499 -0.4298
  702MOL0     C94648   8.573   3.852  12.044 -0.0572 -0.1839  0.7844
  702MOL0     C94649   8.663   3.753  12.115 -0.5825 -0.0333  0.1389
  702MOL0     C94650   8.798   3.818  12.117  0.4694  0.7209  0.1530
  702MOL0     C94651   8.891   3.742  12.214  0.6093 -0.6343 -0.5432
  702MOL0     N94652   9.030   3.801  12.217  0.8971  0.1228 -0.3355
  702MOL0     C94653   9.121   3.789  12.114 -1.0964  1.2906 -0.0590
  702MOL0     C94654   9.237   3.818  12.172 -0.2408  0.9222 -0.1554
  702MOL0     C94655   9.372   3.818  12.104  0.2169  0.6527 -0.4766
  702MOL0     C94656   9.494   3.873  12.191  0.0282  0.1089 -0.5410
  702MOL0     C94657   9.547   3.759  12.289 -0.7511 -0.1392 -0.4098
  702MOL0     C94658   9.674   3.683  12.259 -0.0649  0.6335 -0.0477
  702MOL0     O94659   9.780   3.776  12.213 -0.6785 -0.1167 -0.7657
  702MOL0     C94660   9.906   3.721  12.205 -0.2160  0.1599  0.1026
  702MOL0     C94661  10.010   3.813  12.210 -0.4639 -0.1839  0.3338
  702MOL0     C94662  10.141   3.764  12.210 -0.0982  0.4029 -0.1311
  702MOL0     C94663  10.181   3.640  12.209  0.6956  0.0257 -0.0671
  702MOL0     C94664  10.329   3.600  12.207  0.5649  0.7469 -0.4547
  702MOL0     O94665  10.420   3.706  12.184  0.1220 -0.2391  0.2060
  702MOL0     C94666  10.553   3.667  12.163 -0.4850 -0.2149  0.3496
  702MOL0     C94667  10.604   3.686  12.035 -0.5025 -0.3023  0.9778
  702MOL0     C94668  10.739   3.644  12.009  0.2028  0.0901  0.0912
  702MOL0     C94669  10.812   3.577  12.100  0.5924 -0.4311 -0.3402
  702MOL0     O94670  10.938   3.546  12.079 -0.7434  0.1369  0.2079
  702MOL0     C94671  11.007   3.639  11.988 -1.2510  1.0331 -0.2384
  702MOL0     C94672  11.159   3.600  11.983 -0.3469  0.1526  0.5383
  702MOL0     C94673  11.244   3.723  11.944  0.5378 -0.3259 -0.4071
  702MOL0     C94674  11.371   3.670  11.868 -0.3381 -0.6432 -0.4911
  702MOL0     C94675  11.469   3.787  11.835 -0.5738 -0.3599  0.2577
  702MOL0     C94676  11.606   3.741  11.773 -0.0550  0.3293  0.4128
  702MOL0     C94677  11.705   3.853  11.739 -0.2860 -0.1461 -0.0523
  702MOL0     C94678  11.838   3.803  11.681  0.1356  0.1995  0.4851
  702MOL0    Cl94679  11.921   3.938  11.626 -0.4071  0.2623 -0.2736
  702MOL0     C94680  10.769   3.563  12.229  0.2846  0.6034  0.4673
  702MOL0     C94681  10.644   3.609  12.265  1.2907  0.6215  0.2824
  702MOL0     O94682  10.357   3.480  12.219  0.5303  0.2723  0.4199
  702MOL0     C94683  10.070   3.547  12.197 -0.4231 -0.0603 -0.9307
  702MOL0     C94684   9.938   3.589  12.194  0.2322 -0.2203 -0.2151
  702MOL0     N94685   9.215   3.852  12.310  0.1061  0.6059 -0.1965
  702MOL0     N94686   9.084   3.844  12.335  0.7309  0.4147  0.1262
  702MOL0     C94687   7.929   4.154  11.784  0.8850  0.3325 -0.7176
  702MOL0     C94688   7.860   4.226  11.682  0.5377  0.6179 -0.8209
  702MOL0     C94689   7.641   4.331  11.275 -0.1466  0.0542 -0.0553
  702MOL0     C94690   7.545   4.406  11.346 -0.5907  0.0065 -0.3137
  702MOL0     C94691   7.452   4.485  11.281 -0.1288 -0.2462 -0.1372
  702MOL0     C94692   7.438   4.492  11.140 -0.6589  0.1218  0.2637
  702MOL0     O94693   7.365   4.577  11.065 -0.8096  0.4210 -0.4879
  702MOL0     C94694   7.329   4.701  11.134 -0.2824  0.0795  0.2112
  702MOL0     C94695   7.274   4.793  11.028  0.4680 -1.0027  0.5313
  702MOL0     C94696   7.385   4.821  10.913 -0.6592 -0.1233  0.4228
  702MOL0     C94697   7.334   4.913  10.796  0.6972 -0.5269  0.1327
  702MOL0     C94698   7.416   4.900  10.671 -0.2384  0.2132 -0.3595
  702MOL0     C94699   7.481   4.887  10.570 -0.0514 -0.1607 -0.2659
  702MOL0     C94700   7.524   4.420  11.069 -0.1650  0.3325  0.9780
  702MOL0     C94701   7.623   4.340  11.130 -0.6500  0.5519  0.3207
  702MOL0     C94702   7.708   4.262  11.036 -0.1078 -0.8293 -0.5906
  702MOL0     H94703   7.838   3.994  11.442 -2.1173  0.4264 -0.2467
  702MOL0     H94704   7.963   3.867  11.600 -3.2804 -1.4129 -0.9568
  702MOL0     H94705   8.173   4.074  11.911  1.8586 -3.0295 -2.8840
  702MOL0     H94706   8.041   4.037  12.028 -2.3672  2.4453 -2.2695
  702MOL0     H94707   8.174   3.780  11.975 -0.3550  0.3588  0.0109
  702MOL0     H94708   8.182   3.886  12.124  0.7922 -0.4785  1.3512
  702MOL0     H94709   8.361   4.016  12.022 -0.4125  1.0065 -1.4826
  702MOL0     H94710   8.353   3.918  11.877 -0.3451  0.3895 -0.2476
  702MOL0     H94711   8.405   3.798  12.158 -1.5764  1.4485 -0.5634
  702MOL0     H94712   8.420   3.710  12.008 -0.6638 -0.0381 -0.1285
  702MOL0     H94713   8.610   3.857  11.941  0.9808  2.4965  1.2003
  702MOL0     H94714   8.582   3.949  12.095  1.8057 -0.8235  1.7603
  702MOL0     H94715   8.631   3.730  12.218 -3.0152  0.2149 -0.5018
  702MOL0     H94716   8.672   3.659  12.061 -0.0457  0.8042 -1.2623
  702MOL0     H94717   8.791   3.925  12.139 -1.9716  0.7251 -0.3168
  702MOL0     H94718   8.841   3.809  12.017  0.3169 -1.3261  0.2154
  702MOL0     H94719   8.853   3.744  12.316  0.4069 -0.9515 -0.6108
  702MOL0     H94720   8.902   3.639  12.180 -1.7895 -1.0986 -0.1082
  702MOL0     H94721   9.099   3.750  12.015 -0.4307 -1.9997  0.9591
  702MOL0     H94722   9.397   3.723  12.055 -0.0407 -0.2095  1.0074
  702MOL0     H94723   9.363   3.891  12.024  0.7569  2.9132  1.4207
  702MOL0     H94724   9.573   3.899  12.121 -1.2700 -0.7548 -2.4024
  702MOL0     H94725   9.466   3.962  12.248 -0.0390  1.1851 -2.2202
  702MOL0     H94726   9.476   3.676  12.290  0.9937 -1.7154 -0.9632
  702MOL0     H94727   9.551   3.795  12.393 -2.0194  0.8967 -0.7084
  702MOL0     H94728   9.654   3.603  12.188 -3.1786  0.8610  0.4563
  702MOL0     H94729   9.712   3.618  12.338  1.1572 -0.0092 -1.1228
  702MOL0     H94730   9.976   3.917  12.209  0.0569 -0.0089  0.4191
  702MOL0     H94731  10.222   3.836  12.208  1.0389 -0.8530 -1.3119
  702MOL0     H94732  10.535   3.731  11.964  2.0680 -0.9886 -2.1665
  702MOL0     H94733  10.780   3.660  11.910  2.0325 -0.8350  0.6558
  702MOL0     H94734  10.970   3.632  11.885 -1.6071 -1.6961 -0.0048
  702MOL0     H94735  10.990   3.745  12.010 -1.7496  1.1088 -0.9617
  702MOL0     H94736  11.184   3.565  12.084 -1.2558  1.4360  1.2426
  702MOL0     H94737  11.180   3.518  11.914 -0.1354  0.3544  0.3621
  702MOL0     H94738  11.198   3.802  11.884  2.0125  2.1074  1.4850
  702MOL0     H94739  11.276   3.778  12.033 -4.5634  5.0825 -1.2506
  702MOL0     H94740  11.341   3.613  11.780 -1.7219 -1.5992  0.5723
  702MOL0     H94741  11.425   3.605  11.937  3.7753  0.9011 -1.9525
  702MOL0     H94742  11.494   3.836  11.930  0.6588 -2.1174  0.8993
  702MOL0     H94743  11.429   3.863  11.767 -1.0275  2.2832  3.2542
  702MOL0     H94744  11.654   3.662  11.832  0.3589  0.4878  0.2912
  702MOL0     H94745  11.590   3.692  11.676 -3.2406 -1.4415  1.6838
  702MOL0     H94746  11.725   3.913  11.828  1.9186  3.0433 -2.4539
  702MOL0     H94747  11.669   3.923  11.663  2.3339 -0.0635 -1.3366
  702MOL0     H94748  11.892   3.745  11.757  2.7121  1.3161 -0.3885
  702MOL0     H94749  11.818   3.729  11.603 -2.0923  1.1521  0.0586
  702MOL0     H94750  10.827   3.502  12.298  0.5040  1.8045  1.3816
  702MOL0     H94751  10.610   3.601  12.367  0.7446 -2.5092 -0.0411
  702MOL0     H94752  10.092   3.441  12.197  0.2053  0.0232  1.4123
  702MOL0     H94753   9.858   3.519  12.175 -0.6234  0.7872 -0.4707
  702MOL0     H94754   7.951   4.200  11.880 -0.5358  0.0713 -0.2270
  702MOL0     H94755   7.817   4.324  11.701 -3.2974 -1.1612  0.9465
  702MOL0     H94756   7.542   4.411  11.455  1.3391 -1.6255 -0.1233
  702MOL0     H94757   7.400   4.568  11.328 -1.0189 -2.6100  3.3741
  702MOL0     H94758   7.413   4.747  11.188 -0.4991  0.1967  0.4490
  702MOL0     H94759   7.252   4.691  11.211 -1.2511  1.4389 -0.5645
  702MOL0     H94760   7.235   4.886  11.070 -1.0484 -1.5836  0.4772
  702MOL0     H94761   7.190   4.743  10.979 -0.1007 -1.5563  2.0117
  702MOL0     H94762   7.419   4.727  10.870  0.0400 -0.0991  0.9102
  702MOL0     H94763   7.469   4.875  10.956  0.4365 -2.0196  0.7485
  702MOL0     H94764   7.232   4.887  10.767  1.3972 -1.3386 -1.7169
  702MOL0     H94765   7.343   5.020  10.817  2.0677 -0.3462 -1.1946
  702MOL0     H94766   7.540   4.886  10.481 -0.7797 -0.8091 -0.7578
  702MOL0     H94767   7.516   4.423  10.961 -2.7310 -3.1211  0.8947
  702MOL0     H94768   7.817   4.273  11.046  0.0718 -0.2460 -2.6885
  702MOL0     H94769   7.678   4.158  11.044  1.1774 -1.0408  3.1427
  702MOL0     H94770   7.689   4.296  10.933  0.8925  0.5121 -0.3622
  703MOL0     O94771   7.851   7.202   4.844 -0.1841 -0.2104 -0.3070
  703MOL0     C94772   7.750   7.218   4.772 -1.0324  0.6983  0.3840
  703MOL0     O94773   7.734   7.168   4.646  0.6953 -0.7091 -0.6757
  703MOL0     C94774   7.852   7.159   4.575 -0.3922  0.7915 -0.1165
  703MOL0     C94775   7.870   7.039   4.506  0.1143  0.1409 -0.2718
  703MOL0     C94776   7.977   7.009   4.417 -0.0602 -0.3153 -0.5678
  703MOL0     C94777   8.066   7.118   4.400  0.3102  0.1176 -0.1749
  703MOL0     O94778   8.164   7.100   4.310  0.2602  0.0556 -0.8321
  703MOL0     C94779   8.259   7.004   4.337 -0.0151  0.0926 -0.0955
  703MOL0     C94780   8.368   7.068   4.418 -0.0283  0.8808 -0.3261
  703MOL0     C94781   8.474   6.959   4.446 -0.0496 -0.3432 -0.1503
  703MOL0     C94782   8.552   6.996   4.576  0.4359 -0.2861 -0.5085
  703MOL0     C94783   8.669   6.908   4.615  0.6463  0.0628 -0.0173
  703MOL0     C94784   8.788   6.938   4.524  0.1701  1.2628  0.2300
  703MOL0     C94785   8.920   6.877   4.581 -0.7840 -0.4024 -0.4773
  703MOL0     C94786   9.031   6.868   4.474 -0.1992  0.1938 -0.7239
  703MOL0     N94787   9.161   6.856   4.532 -0.6469  0.1779 -0.3862
  703MOL0     C94788   9.237   6.965   4.574  0.0587  0.7865 -0.3964
  703MOL0     C94789   9.352   6.915   4.624 -0.0581 -0.5924 -1.0445
  703MOL0     C94790   9.472   6.992   4.673 -0.4707  0.4870 -0.1077
  703MOL0     C94791   9.602   6.956   4.608  0.2432  0.4824  1.3382
  703MOL0     C94792   9.720   7.001   4.690 -0.5265  0.7333 -0.6111
  703MOL0     C94793   9.854   7.008   4.613  0.2684 -0.1342 -0.5295
  703MOL0     O94794   9.966   7.055   4.687 -0.0329 -0.4735  0.1835
  703MOL0     C94795  10.093   7.041   4.631  0.3418 -0.7849 -0.1769
  703MOL0     C94796  10.131   6.978   4.506 -0.0467  0.4683 -0.3662
  703MOL0     C94797  10.268   6.974   4.471  0.1868 -0.0108 -0.1779
  703MOL0     C94798  10.363   7.025   4.562 -0.3543  0.8662 -0.4231
  703MOL0     C94799  10.503   7.026   4.514  0.3166  0.5736 -0.1951
  703MOL0     O94800  10.596   7.067   4.596 -0.3586  0.1426  0.6058
  703MOL0     C94801  10.719   7.084   4.550  0.3205  0.2775  0.3104
  703MOL0     C94802  10.790   7.190   4.597  0.2372 -1.1899 -0.2508
  703MOL0     C94803  10.923   7.195   4.583  0.3031 -0.4869  0.6939
  703MOL0     C94804  10.992   7.093   4.514 -0.2950  0.1641  0.8293
  703MOL0     O94805  11.129   7.123   4.496 -0.2552 -0.7358 -0.5895
  703MOL0     C94806  11.183   7.086   4.361 -0.2523  0.6743 -0.8817
  703MOL0     C94807  11.333   7.122   4.352  0.2374 -0.1860  0.6204
  703MOL0     C94808  11.382   7.118   4.206 -0.7170 -0.1202  1.2100
  703MOL0     C94809  11.519   7.194   4.195 -0.9924  0.4962 -1.1746
  703MOL0     C94810  11.545   7.243   4.062  0.1075  0.0971  0.3083
  703MOL0     C94811  11.694   7.294   4.054 -0.4926  0.1135  0.7027
  703MOL0     C94812  11.725   7.414   4.140 -0.8230 -1.1596 -0.6877
  703MOL0     C94813  11.846   7.481   4.087 -0.4795 -0.4053 -0.1660
  703MOL0    Cl94814  11.821   7.543   3.915  0.1082 -0.4745 -0.1183
  703MOL0     C94815  10.920   6.980   4.470  0.0103  0.0454  0.3671
  703MOL0     C94816  10.781   6.973   4.498 -0.5455  0.0560  0.9544
  703MOL0     O94817  10.523   6.983   4.402 -0.4427 -0.0529  0.3350
  703MOL0     C94818  10.326   7.089   4.681  0.0422  0.6927 -0.9609
  703MOL0     C94819  10.189   7.100   4.716 -0.5120 -0.1280  0.4577
  703MOL0     N94820   9.336   6.774   4.624 -0.4409 -1.0049  0.0667
  703MOL0     N94821   9.231   6.734   4.552  0.7278 -0.5849  0.0362
  703MOL0     C94822   8.057   7.241   4.477  0.2731 -0.3964  0.6977
  703MOL0     C94823   7.951   7.260   4.562  0.5366  0.5179 -0.6108
  703MOL0     C94824   7.627   7.283   4.824  0.7550  0.0629  0.4402
  703MOL0     C94825   7.519   7.199   4.815  0.6930  0.9384 -0.6360
  703MOL0     C94826   7.391   7.248   4.841  0.8817  0.1865  0.3206
  703MOL0     C94827   7.364   7.370   4.895 -0.5880  0.0534 -0.2420
  703MOL0     O94828   7.234   7.401   4.936 -0.3604  0.4003  0.2323
  703MOL0     C94829   7.214   7.499   5.038  0.1303  0.2407 -0.2580
  703MOL0     C94830   7.100   7.454   5.124  0.1984 -0.3302  0.7459
  703MOL0     C94831   7.119   7.320   5.191 -0.0167  0.9841 -0.1729
  703MOL0     C94832   6.993   7.263   5.255 -0.3752  0.5316  0.6608
  703MOL0     C94833   6.944   7.334   5.376  0.0807 -0.1538  0.5350
  703MOL0     C94834   6.887   7.396   5.464 -0.0019 -0.1782  0.7646
  703MOL0     C94835   7.474   7.450   4.906 -0.1317 -0.0277  1.3833
  703MOL0     C94836   7.610   7.414   4.874 -0.5413 -0.7128 -0.2270
  703MOL0     C94837   7.719   7.522   4.873  0.1077 -0.4638 -0.6610
  703MOL0     H94838   7.813   6.952   4.537 -0.3246  1.1038  1.8630
  703MOL0     H94839   7.990   6.912   4.368 -0.9795  0.7696 -3.1201
  703MOL0     H94840   8.222   6.918   4.393  1.1445 -0.0873  0.4406
  703MOL0     H94841   8.301   6.971   4.242 -3.3475  0.0907 -1.6933
  703MOL0     H94842   8.332   7.102   4.515 -0.3094 -1.6291  0.5110
  703MOL0     H94843   8.409   7.146   4.353  1.1212  0.7090  0.1698
  703MOL0     H94844   8.540   6.954   4.360  0.0411 -0.4758 -0.0723
  703MOL0     H94845   8.433   6.860   4.470  0.3149 -0.0873  1.7031
  703MOL0     H94846   8.565   7.104   4.564 -2.4181 -0.0639 -2.5326
  703MOL0     H94847   8.487   6.980   4.662  0.5048 -0.7430 -0.5395
  703MOL0     H94848   8.697   6.926   4.719  1.6243  1.3849 -0.4853
  703MOL0     H94849   8.636   6.804   4.627  1.1163 -0.2295 -1.1260
  703MOL0     H94850   8.769   6.897   4.424 -1.3068  1.5070  0.3836
  703MOL0     H94851   8.800   7.046   4.511  0.4360  1.3367  1.0340
  703MOL0     H94852   8.894   6.780   4.624 -1.2716  0.3206  0.9143
  703MOL0     H94853   8.949   6.941   4.665  0.2425 -1.4919  0.0361
  703MOL0     H94854   8.997   6.780   4.418  1.4173 -1.1281  0.2633
  703MOL0     H94855   9.024   6.956   4.410  1.6770 -1.2162 -3.0473
  703MOL0     H94856   9.222   7.073   4.572  1.2700  0.9651 -0.6256
  703MOL0     H94857   9.451   7.100   4.674 -0.1588  0.5620 -0.7247
  703MOL0     H94858   9.498   6.969   4.776  3.8938 -0.3766 -1.1731
  703MOL0     H94859   9.603   6.848   4.590  0.4639  1.0925 -3.7381
  703MOL0     H94860   9.596   7.008   4.512 -2.1766 -0.4040  0.9369
  703MOL0     H94861   9.739   6.937   4.777  1.5787  0.6226 -1.1026
  703MOL0     H94862   9.704   7.102   4.729 -0.8154 -0.4959  2.7787
  703MOL0     H94863   9.828   7.081   4.536 -1.1227  1.5395  1.3872
  703MOL0     H94864   9.871   6.904   4.584 -0.0163 -0.2033 -0.4445
  703MOL0     H94865  10.063   6.954   4.425 -3.2516  1.5569  1.8178
  703MOL0     H94866  10.287   6.923   4.377  0.3170 -0.9389  0.3391
  703MOL0     H94867  10.734   7.270   4.645  2.4526  0.4614 -0.2592
  703MOL0     H94868  10.982   7.282   4.611 -1.4141  0.3780  1.7674
  703MOL0     H94869  11.177   6.978   4.343  2.5880  0.1482  0.8285
  703MOL0     H94870  11.142   7.154   4.285  2.2081  0.9827 -2.0452
  703MOL0     H94871  11.347   7.222   4.394  1.0945 -0.6668  1.5442
  703MOL0     H94872  11.400   7.050   4.402  1.6762  2.2767  2.4698
  703MOL0     H94873  11.388   7.012   4.180 -0.3501  0.7091 -2.7893
  703MOL0     H94874  11.306   7.162   4.140  0.0462  1.0838  1.0947
  703MOL0     H94875  11.599   7.126   4.226 -0.6145  0.7538 -1.5529
  703MOL0     H94876  11.517   7.282   4.259  1.8370  0.9458 -1.5581
  703MOL0     H94877  11.479   7.327   4.040  2.8836  2.6554  1.0818
  703MOL0     H94878  11.534   7.161   3.990  1.0742 -0.6775  1.0136
  703MOL0     H94879  11.765   7.220   4.091  0.0044  1.1132  1.8372
  703MOL0     H94880  11.729   7.288   3.950  1.0249 -3.0938  1.2979
  703MOL0     H94881  11.750   7.394   4.245 -1.7093 -0.0448 -0.2388
  703MOL0     H94882  11.646   7.490   4.140 -0.7019 -1.0027  0.6005
  703MOL0     H94883  11.883   7.556   4.158 -0.4769 -0.6177  0.0607
  703MOL0     H94884  11.922   7.402   4.084  0.6429  0.5819  0.9779
  703MOL0     H94885  10.965   6.902   4.411  2.7416  1.0831  0.9489
  703MOL0     H94886  10.726   6.890   4.454 -0.7620  0.7115 -0.0356
  703MOL0     H94887  10.407   7.133   4.739  1.7532 -2.6072 -0.6057
  703MOL0     H94888  10.152   7.145   4.808  0.7193  1.6498  0.1362
  703MOL0     H94889   8.122   7.328   4.468 -1.1365  0.7316  1.1552
  703MOL0     H94890   7.955   7.352   4.619 -1.8538  0.8006 -0.8340
  703MOL0     H94891   7.548   7.099   4.785  0.4803  0.8839 -0.6618
  703MOL0     H94892   7.312   7.174   4.833  1.5281 -0.6903  1.8043
  703MOL0     H94893   7.201   7.598   4.993  1.2071  0.7183  0.4189
  703MOL0     H94894   7.303   7.503   5.103 -0.3826  0.0775  0.4685
  703MOL0     H94895   7.023   7.433   5.050  1.5195  0.0076 -0.7808
  703MOL0     H94896   7.077   7.524   5.205 -1.1140 -1.9982  1.8716
  703MOL0     H94897   7.191   7.318   5.273 -1.7142  1.4336  1.4094
  703MOL0     H94898   7.150   7.250   5.113 -1.8836 -0.0650 -0.0500
  703MOL0     H94899   6.928   7.270   5.168  2.0853  0.6083 -1.2813
  703MOL0     H94900   7.002   7.157   5.279 -2.0732  0.7646  2.6534
  703MOL0     H94901   6.835   7.461   5.531 -1.0723  1.4416 -1.5252
  703MOL0     H94902   7.454   7.552   4.938  2.0478  0.6811  0.7080
  703MOL0     H94903   7.783   7.507   4.960  0.4453 -2.2360 -1.1607
  703MOL0     H94904   7.771   7.512   4.777 -0.5280 -2.2782 -0.8505
  703MOL0     H94905   7.676   7.622   4.877 -0.5499 -0.7676  0.3207
  704MOL0     O94906   7.318   1.979   9.431 -0.6803  0.1792  0.6368
  704MOL0     C94907   7.310   1.889   9.344 -0.6144 -0.8247 -0.6061
  704MOL0     O94908   7.407   1.845   9.257  0.1003  0.7404 -1.0063
  704MOL0     C94909   7.526   1.910   9.235  0.8344 -0.1366 -0.2566
  704MOL0     C94910   7.595   1.866   9.126  0.4006  0.1106  0.3706
  704MOL0     C94911   7.719   1.921   9.094 -0.3550 -0.0643  0.3204
  704MOL0     C94912   7.777   2.011   9.181 -0.8648  0.9861 -0.0997
  704MOL0     O94913   7.890   2.078   9.145 -0.2506 -0.0639  0.4127
  704MOL0     C94914   8.004   2.054   9.241  0.1788  0.9572 -0.0137
  704MOL0     C94915   8.140   2.079   9.168  0.2599 -0.8276  0.0670
  704MOL0     C94916   8.259   2.039   9.248 -0.7134  0.1439  0.1872
  704MOL0     C94917   8.349   2.163   9.278  0.4187  0.7227  0.3133
  704MOL0     C94918   8.475   2.146   9.363  0.5735 -0.2308  0.2991
  704MOL0     C94919   8.518   2.285   9.407  1.1034  1.2420 -1.1218
  704MOL0     C94920   8.656   2.271   9.462  0.8105  0.1126  0.4908
  704MOL0     C94921   8.689   2.375   9.571  0.3681  0.7589  1.4739
  704MOL0     N94922   8.830   2.388   9.585  0.3511 -0.0504 -0.1665
  704MOL0     C94923   8.921   2.409   9.489  0.6876 -1.2589 -0.0630
  704MOL0     C94924   9.031   2.441   9.553 -0.3011 -0.2989  0.2493
  704MOL0     C94925   9.168   2.477   9.495 -1.4295 -0.0090  0.5139
  704MOL0     C94926   9.274   2.365   9.496 -0.0625  0.1740  0.0547
  704MOL0     C94927   9.408   2.393   9.410 -0.4198  0.1596 -0.2284
  704MOL0     C94928   9.507   2.497   9.473 -0.8095 -0.0767 -0.3189
  704MOL0     O94929   9.550   2.452   9.607 -0.4278 -0.7604  0.2801
  704MOL0     C94930   9.688   2.471   9.630 -0.1790  0.6459  0.5875
  704MOL0     C94931   9.751   2.590   9.660  0.7858 -0.0171 -0.6979
  704MOL0     C94932   9.890   2.596   9.675  0.9731 -0.7602  0.1577
  704MOL0     C94933   9.977   2.480   9.669  0.5640 -0.6348 -0.0041
  704MOL0     C94934  10.119   2.494   9.687 -0.5629 -0.9633 -0.6491
  704MOL0     O94935  10.158   2.623   9.716  0.2143  0.1618  0.5320
  704MOL0     C94936  10.294   2.662   9.740  0.1572  0.8829  0.0578
  704MOL0     C94937  10.395   2.598   9.676  0.2874  0.0005  0.7940
  704MOL0     C94938  10.535   2.629   9.688  0.3894  0.1448 -0.6466
  704MOL0     C94939  10.571   2.741   9.769 -0.3776  0.2733 -0.1524
  704MOL0     O94940  10.694   2.792   9.760  0.0643  0.0838 -0.2175
  704MOL0     C94941  10.735   2.921   9.794 -0.4597  0.1912  0.1717
  704MOL0     C94942  10.887   2.956   9.768 -0.0959  0.1834  0.4202
  704MOL0     C94943  10.919   3.103   9.763 -0.0456  0.5105  0.7865
  704MOL0     C94944  11.075   3.124   9.761  0.0838 -0.8958 -0.3976
  704MOL0     C94945  11.132   3.268   9.735 -0.0737  0.3788  0.9173
  704MOL0     C94946  11.158   3.298   9.583 -0.3520 -0.2739 -0.8157
  704MOL0     C94947  11.182   3.447   9.551 -0.6655 -0.7543  0.2980
  704MOL0     C94948  11.138   3.473   9.408 -0.4941 -0.1429  0.4868
  704MOL0    Cl94949  11.193   3.650   9.365  0.1726 -0.1852  0.0741
  704MOL0     C94950  10.470   2.805   9.841  0.6399  0.5015  0.0721
  704MOL0     C94951  10.330   2.767   9.823  0.0673  0.1975  0.8695
  704MOL0     O94952  10.189   2.392   9.686 -0.1631 -0.4159  0.3668
  704MOL0     C94953   9.909   2.355   9.643 -0.8299 -0.4064 -0.7641
  704MOL0     C94954   9.775   2.356   9.624  0.5800  0.4445 -0.0714
  704MOL0     N94955   9.011   2.438   9.693  0.4343  0.3886 -0.1543
  704MOL0     N94956   8.884   2.410   9.710 -0.2431 -0.0347 -0.7636
  704MOL0     C94957   7.713   2.052   9.293  0.6322 -0.5143 -0.3716
  704MOL0     C94958   7.588   2.003   9.324 -0.4191  0.6375  0.2637
  704MOL0     C94959   7.171   1.831   9.343 -0.2941  0.3419 -0.7891
  704MOL0     C94960   7.148   1.712   9.271 -0.0001  0.1528  0.5581
  704MOL0     C94961   7.023   1.651   9.257 -0.0363  0.3124 -0.3942
  704MOL0     C94962   6.914   1.696   9.331 -0.7018  0.4948  0.4503
  704MOL0     O94963   6.792   1.633   9.333  0.0272  0.6458 -0.4881
  704MOL0     C94964   6.778   1.515   9.252 -0.6299  0.2066  0.0048
  704MOL0     C94965   6.644   1.450   9.288 -0.3853  0.4848 -0.0145
  704MOL0     C94966   6.593   1.359   9.179  0.3639  0.3194 -0.3904
  704MOL0     C94967   6.699   1.253   9.142 -0.7152 -0.1549 -0.0168
  704MOL0     C94968   6.634   1.151   9.051 -0.2390 -0.0670 -0.6565
  704MOL0     C94969   6.585   1.065   8.976  0.1525 -0.3102 -0.1643
  704MOL0     C94970   6.937   1.810   9.415 -0.0155 -0.3271  0.2389
  704MOL0     C94971   7.057   1.877   9.421 -1.0100 -0.7926  0.5309
  704MOL0     C94972   7.049   1.992   9.519  0.2782 -0.6624  0.3443
  704MOL0     H94973   7.553   1.792   9.059 -3.3643  0.6604  1.8893
  704MOL0     H94974   7.772   1.887   9.006 -1.7184 -2.2470  0.2653
  704MOL0     H94975   7.987   2.119   9.327  0.7442 -2.9993  3.3611
  704MOL0     H94976   7.999   1.958   9.294 -1.0709  1.1474  0.2552
  704MOL0     H94977   8.147   2.183   9.133  0.3139 -1.5736 -2.2928
  704MOL0     H94978   8.141   2.014   9.080  0.3643  1.1797 -1.4915
  704MOL0     H94979   8.327   1.970   9.197 -1.2646  1.7799 -3.0209
  704MOL0     H94980   8.225   1.997   9.343  0.4298  2.1148  1.5330
  704MOL0     H94981   8.380   2.204   9.182 -0.4201  1.5312  0.3763
  704MOL0     H94982   8.277   2.235   9.318 -0.9023  0.3524 -1.2844
  704MOL0     H94983   8.448   2.080   9.446  0.7867 -1.6897 -0.7364
  704MOL0     H94984   8.551   2.099   9.299 -2.3558 -0.5571 -3.2885
  704MOL0     H94985   8.517   2.357   9.325  2.1151  1.8649 -0.6072
  704MOL0     H94986   8.455   2.308   9.493 -0.6848 -3.5376 -0.8419
  704MOL0     H94987   8.722   2.275   9.375 -2.9711 -0.6069 -2.7022
  704MOL0     H94988   8.671   2.169   9.499  2.9923  0.2804  0.1499
  704MOL0     H94989   8.644   2.469   9.538 -0.6365 -0.8548 -2.3188
  704MOL0     H94990   8.645   2.350   9.668 -0.0525 -0.3298  1.0209
  704MOL0     H94991   8.914   2.409   9.380  1.4134 -0.2930 -0.1331
  704MOL0     H94992   9.155   2.490   9.387  3.6846 -1.8166 -0.5845
  704MOL0     H94993   9.210   2.567   9.541 -1.6276 -0.1819  1.0369
  704MOL0     H94994   9.322   2.339   9.591 -0.7920 -2.7011 -0.2729
  704MOL0     H94995   9.220   2.280   9.455 -1.8442  0.7841  1.0268
  704MOL0     H94996   9.388   2.436   9.311  5.3091  0.9967 -1.3894
  704MOL0     H94997   9.455   2.297   9.385 -2.3405 -0.5375 -1.4037
  704MOL0     H94998   9.450   2.589   9.479 -2.3719 -0.8923 -1.9114
  704MOL0     H94999   9.584   2.516   9.398 -0.7627 -0.0966 -0.2776
  704MOL0     H95000   9.690   2.680   9.652  0.5676 -0.1523 -0.5881
  704MOL0     H95001   9.941   2.692   9.675 -0.4566  0.0624  1.9366
  704MOL0     H95002  10.370   2.516   9.609  0.9009 -2.6705  3.6001
  704MOL0     H95003  10.609   2.577   9.629 -0.5997  1.1656 -2.9221
  704MOL0     H95004  10.670   2.996   9.749 -2.5020 -0.7839  1.3870
  704MOL0     H95005  10.730   2.924   9.903 -3.1551  1.2136  0.0856
  704MOL0     H95006  10.949   2.930   9.854  1.2477  1.4676 -0.1034
  704MOL0     H95007  10.922   2.900   9.681 -1.8032 -1.1633  0.5600
  704MOL0     H95008  10.871   3.150   9.677  0.9740 -1.7003 -1.1056
  704MOL0     H95009  10.888   3.151   9.856  0.5931 -2.7102  2.8328
  704MOL0     H95010  11.114   3.052   9.688 -0.6406 -2.0949  0.3621
  704MOL0     H95011  11.112   3.093   9.859 -0.4142  1.3017  0.5491
  704MOL0     H95012  11.221   3.283   9.797  1.0303 -1.2647 -0.1797
  704MOL0     H95013  11.058   3.335   9.780  0.4477  0.3503  1.8344
  704MOL0     H95014  11.234   3.236   9.534 -2.1325 -4.8634  1.6415
  704MOL0     H95015  11.068   3.266   9.529 -1.5006 -0.1559  0.9558
  704MOL0     H95016  11.287   3.470   9.568 -0.8715  0.2195  0.3339
  704MOL0     H95017  11.125   3.513   9.616 -0.2237  0.6455 -0.6877
  704MOL0     H95018  11.186   3.405   9.336  2.5027  0.0912  2.1079
  704MOL0     H95019  11.032   3.446   9.400 -0.4396 -0.0469 -0.8385
  704MOL0     H95020  10.484   2.896   9.899 -1.9378 -0.0216  1.6658
  704MOL0     H95021  10.244   2.814   9.868 -2.1499 -0.0693 -2.6869
  704MOL0     H95022   9.964   2.264   9.621 -0.2735 -0.1832 -0.3108
  704MOL0     H95023   9.730   2.261   9.597 -1.4053  1.7925 -1.9717
  704MOL0     H95024   7.763   2.112   9.369  0.4624  2.4027 -2.4151
  704MOL0     H95025   7.536   2.015   9.418 -3.2791  0.1750 -1.1661
  704MOL0     H95026   7.226   1.672   9.208 -1.3205  0.3786 -1.2837
  704MOL0     H95027   7.025   1.558   9.202  0.3416  0.1613 -0.1280
  704MOL0     H95028   6.849   1.437   9.280 -0.3733  1.4169  3.1290
  704MOL0     H95029   6.784   1.528   9.144 -2.1188 -3.4794 -0.6897
  704MOL0     H95030   6.565   1.513   9.329 -1.2431  0.4155 -1.4787
  704MOL0     H95031   6.670   1.381   9.369 -1.3486  0.8778  0.6619
  704MOL0     H95032   6.572   1.425   9.094  1.2101  0.3895 -0.5590
  704MOL0     H95033   6.504   1.308   9.217  3.4809 -3.6703  2.4876
  704MOL0     H95034   6.786   1.294   9.088 -0.9901 -2.0395 -2.0483
  704MOL0     H95035   6.735   1.205   9.233 -1.1165  1.2358  0.9116
  704MOL0     H95036   6.542   0.990   8.913 -0.0156  0.1217 -0.5766
  704MOL0     H95037   6.847   1.842   9.466  0.7502  0.0527  1.4001
  704MOL0     H95038   6.948   2.012   9.556  0.2986  0.6967 -0.2970
  704MOL0     H95039   7.122   1.981   9.600  0.6083  1.7642  0.4468
  704MOL0     H95040   7.074   2.086   9.469 -0.1209  0.9649  2.9637
  705MOL0     O95041   2.249   5.104   8.867  0.7011  0.7060  0.8143
  705MOL0     C95042   2.225   4.981   8.887  0.7529  0.1107 -0.7524
  705MOL0     O95043   2.304   4.878   8.845  0.0166 -0.3072 -0.5345
  705MOL0     C95044   2.431   4.906   8.800 -0.3286  0.0219  0.5588
  705MOL0     C95045   2.478   4.849   8.680 -0.7223 -0.0240 -0.0004
  705MOL0     C95046   2.607   4.870   8.636  0.8488  0.0464 -0.1389
  705MOL0     C95047   2.691   4.951   8.712 -0.8718  0.3675 -0.4305
  705MOL0     O95048   2.821   4.988   8.671  0.0289 -0.2065 -0.5819
  705MOL0     C95049   2.833   5.017   8.529 -0.6618 -0.8247 -0.9724
  705MOL0     C95050   2.984   4.979   8.521  0.0228 -0.4634 -0.3122
  705MOL0     C95051   3.078   5.083   8.581  0.2981  0.7281 -0.5768
  705MOL0     C95052   3.229   5.070   8.557  1.0076 -0.0709 -0.2849
  705MOL0     C95053   3.277   5.125   8.431 -1.0114  0.4207  0.4072
  705MOL0     C95054   3.422   5.089   8.392  0.1761  0.2654 -0.2651
  705MOL0     C95055   3.450   5.109   8.247  0.2122 -0.8518 -0.3294
  705MOL0     C95056   3.397   4.994   8.159 -1.7294 -0.1662 -0.0005
  705MOL0     N95057   3.479   5.014   8.031  0.3676 -0.2653  1.0665
  705MOL0     C95058   3.493   5.133   7.965 -0.2450  0.1118 -0.1026
  705MOL0     C95059   3.579   5.100   7.861 -0.1984 -0.6550  0.4569
  705MOL0     C95060   3.606   5.202   7.752  0.3595 -0.0848 -0.7402
  705MOL0     C95061   3.718   5.299   7.794  0.6962  0.1427  0.2859
  705MOL0     C95062   3.781   5.362   7.665 -0.1374  0.3861  0.3723
  705MOL0     C95063   3.925   5.414   7.688  0.0515  0.6418 -0.1123
  705MOL0     O95064   4.005   5.311   7.741 -0.3347  0.0373 -0.3991
  705MOL0     C95065   4.145   5.337   7.749  0.5929 -0.3502 -0.7648
  705MOL0     C95066   4.234   5.228   7.761  0.4492  0.0193  0.5772
  705MOL0     C95067   4.371   5.246   7.778  0.8891 -0.0644  1.6241
  705MOL0     C95068   4.430   5.370   7.778 -0.0859  0.0022 -0.0253
  705MOL0     C95069   4.575   5.386   7.801  0.3981 -0.5893 -0.2158
  705MOL0     O95070   4.650   5.264   7.803  0.0954 -0.9662 -0.3596
  705MOL0     C95071   4.785   5.262   7.801  0.5627 -0.8217 -0.4623
  705MOL0     C95072   4.850   5.177   7.893  0.2035 -0.3468 -0.5538
  705MOL0     C95073   4.988   5.156   7.888 -0.2018 -0.8968 -1.1111
  705MOL0     C95074   5.069   5.217   7.790 -0.1044  0.0999  0.2485
  705MOL0     O95075   5.202   5.189   7.809  0.3086  0.0770  0.0310
  705MOL0     C95076   5.295   5.263   7.728 -0.5356  0.4994 -1.0519
  705MOL0     C95077   5.444   5.243   7.769 -0.0292 -0.2440  0.0577
  705MOL0     C95078   5.526   5.335   7.682 -0.1182  0.3551  0.3893
  705MOL0     C95079   5.668   5.345   7.726 -0.1149  0.1417 -0.6485
  705MOL0     C95080   5.755   5.414   7.620  1.0032 -0.3394 -0.7233
  705MOL0     C95081   5.880   5.466   7.680  0.3069  0.6388  0.6100
  705MOL0     C95082   5.855   5.590   7.764 -0.3066  0.3022 -0.2052
  705MOL0     C95083   5.972   5.686   7.772  0.0274  0.0929  0.5810
  705MOL0    Cl95084   6.099   5.604   7.840  0.2404 -0.0268  0.2026
  705MOL0     C95085   5.003   5.299   7.689  0.6855  0.4117 -0.4617
  705MOL0     C95086   4.865   5.331   7.707 -0.4678 -0.4341  0.9894
  705MOL0     O95087   4.623   5.500   7.802  0.3498 -0.1540 -0.1789
  705MOL0     C95088   4.341   5.484   7.762 -0.3559  0.2240  0.0309
  705MOL0     C95089   4.204   5.466   7.755 -0.4850 -0.1838 -0.8111
  705MOL0     N95090   3.630   4.975   7.887  0.9518 -0.5771 -1.1174
  705MOL0     N95091   3.559   4.919   7.980  0.1987 -0.6857  0.3249
  705MOL0     C95092   2.652   4.998   8.835  0.1444 -0.2196 -0.4870
  705MOL0     C95093   2.526   4.965   8.880  0.4974  0.0257 -0.0818
  705MOL0     C95094   2.086   4.948   8.942 -0.3101 -0.2921  0.0397
  705MOL0     C95095   2.040   4.812   8.911 -0.7557  0.7431 -0.4430
  705MOL0     C95096   1.902   4.784   8.922 -0.2760  0.3557 -0.7550
  705MOL0     C95097   1.819   4.880   8.982  0.9563  0.3064  0.7707
  705MOL0     O95098   1.690   4.848   9.017  0.8079  0.2802 -0.7171
  705MOL0     C95099   1.637   4.724   9.012 -1.1248  0.7828 -0.1703
  705MOL0     C95100   1.502   4.707   9.077  0.0432 -0.7262 -0.3621
  705MOL0     C95101   1.397   4.753   8.976 -0.4638 -0.4060  1.3436
  705MOL0     C95102   1.261   4.741   9.028 -0.1240 -0.5137 -0.5402
  705MOL0     C95103   1.153   4.754   8.927  0.4759 -0.4986  0.0587
  705MOL0     C95104   1.084   4.763   8.834  0.7204 -0.2127 -0.8817
  705MOL0     C95105   1.861   5.011   9.003 -0.8381 -0.3983 -0.3960
  705MOL0     C95106   1.999   5.049   8.984 -0.6877 -0.2322 -0.7495
  705MOL0     C95107   2.026   5.194   8.992  0.5644  0.0369 -0.4686
  705MOL0     H95108   2.411   4.798   8.613 -0.7230 -0.2625  0.1806
  705MOL0     H95109   2.634   4.821   8.543 -1.9434  2.3472 -2.3253
  705MOL0     H95110   2.781   4.953   8.456 -1.6650  0.7279 -1.6761
  705MOL0     H95111   2.818   5.121   8.500  3.0406 -0.1732 -1.0117
  705MOL0     H95112   3.007   4.973   8.414  3.0612 -0.2852  0.2417
  705MOL0     H95113   3.002   4.878   8.560  0.0042 -0.3254  0.0603
  705MOL0     H95114   3.062   5.073   8.689 -1.2103  2.9337 -0.5255
  705MOL0     H95115   3.033   5.178   8.549  0.1275 -0.0884 -2.9524
  705MOL0     H95116   3.283   5.120   8.638  1.5685  2.0814 -1.9185
  705MOL0     H95117   3.265   4.967   8.563  0.2762 -0.2332  3.1853
  705MOL0     H95118   3.213   5.097   8.347  1.3910 -0.7145 -1.1316
  705MOL0     H95119   3.282   5.235   8.433 -3.4036  0.5904 -0.0016
  705MOL0     H95120   3.487   5.150   8.455  0.5839 -1.1357  0.7044
  705MOL0     H95121   3.454   4.988   8.420  0.9308 -0.2307 -2.6806
  705MOL0     H95122   3.557   5.117   8.227 -0.3850 -1.9898 -4.9793
  705MOL0     H95123   3.411   5.205   8.212 -0.1326 -1.2098 -0.9254
  705MOL0     H95124   3.422   4.891   8.185  2.2123  0.2704 -1.4224
  705MOL0     H95125   3.290   5.007   8.142 -1.7208 -0.9907 -0.7789
  705MOL0     H95126   3.435   5.221   7.992  0.3327  0.4018  0.2221
  705MOL0     H95127   3.627   5.152   7.656  0.6792 -0.3453 -0.5383
  705MOL0     H95128   3.527   5.274   7.730  0.9490  0.8712  0.1965
  705MOL0     H95129   3.690   5.382   7.859  0.4187 -1.1447  1.8899
  705MOL0     H95130   3.788   5.236   7.851 -0.3755 -1.1093  0.2891
  705MOL0     H95131   3.727   5.451   7.632 -3.4813 -0.8984  1.8873
  705MOL0     H95132   3.778   5.286   7.587 -1.3673  0.7474  0.0443
  705MOL0     H95133   3.912   5.492   7.763  1.8960 -0.4171  1.3926
  705MOL0     H95134   3.976   5.453   7.599  1.2683  0.5213  0.5013
  705MOL0     H95135   4.196   5.127   7.768 -1.8100  0.8048  0.7567
  705MOL0     H95136   4.430   5.160   7.809  1.0364 -0.5689  0.0421
  705MOL0     H95137   4.780   5.132   7.962 -0.3208  0.8809 -0.2642
  705MOL0     H95138   5.034   5.096   7.966 -0.3687 -0.0820 -0.3723
  705MOL0     H95139   5.291   5.231   7.623  0.8921 -0.1380 -0.9338
  705MOL0     H95140   5.275   5.370   7.734  1.7824  0.9494 -0.4053
  705MOL0     H95141   5.456   5.269   7.875  1.3331  0.7099 -0.2989
  705MOL0     H95142   5.473   5.139   7.756 -1.1723 -0.9295  2.4301
  705MOL0     H95143   5.523   5.302   7.577  1.7076  1.2139  0.0372
  705MOL0     H95144   5.485   5.435   7.693  0.3363  0.4792  0.9707
  705MOL0     H95145   5.716   5.250   7.750 -1.7606 -1.4078 -3.0792
  705MOL0     H95146   5.670   5.400   7.821 -2.7725 -2.6653  1.1937
  705MOL0     H95147   5.703   5.497   7.570  1.5051 -0.0180 -0.7137
  705MOL0     H95148   5.772   5.341   7.541 -1.1226 -1.0745 -0.5658
  705MOL0     H95149   5.941   5.389   7.730  1.5348 -0.5886 -2.5192
  705MOL0     H95150   5.940   5.496   7.594  1.9868 -1.3811  0.9974
  705MOL0     H95151   5.839   5.560   7.868  0.7039  0.5471  0.0343
  705MOL0     H95152   5.762   5.638   7.733  0.5085  2.0383 -0.1502
  705MOL0     H95153   6.010   5.725   7.677 -0.6056 -0.7094 -0.0114
  705MOL0     H95154   5.955   5.776   7.833  2.6685 -0.1827  1.8800
  705MOL0     H95155   5.058   5.347   7.609  2.3472 -1.0247 -0.2479
  705MOL0     H95156   4.817   5.397   7.637  2.7361  2.9358  1.6256
  705MOL0     H95157   4.383   5.583   7.768  0.8681 -0.3394  1.7824
  705MOL0     H95158   4.148   5.559   7.742  1.1810  0.6997 -2.0383
  705MOL0     H95159   2.718   5.060   8.894  1.7159 -1.3640 -0.9819
  705MOL0     H95160   2.488   5.017   8.968 -0.3458 -0.0498 -0.3966
  705MOL0     H95161   2.094   4.726   8.873  0.5379 -0.5311  3.7375
  705MOL0     H95162   1.879   4.682   8.893 -1.4564  0.2789  0.3971
  705MOL0     H95163   1.701   4.650   9.061 -2.5627 -0.6522 -0.3878
  705MOL0     H95164   1.643   4.691   8.908  4.4525  1.3190 -0.2988
  705MOL0     H95165   1.492   4.769   9.166  0.0253  0.5115 -1.2057
  705MOL0     H95166   1.482   4.605   9.110 -2.5354  0.3456  1.7096
  705MOL0     H95167   1.401   4.686   8.889 -0.6882  0.6574  0.4930
  705MOL0     H95168   1.417   4.860   8.963 -0.8559 -0.3812  0.9040
  705MOL0     H95169   1.246   4.641   9.070 -0.1495  0.0636  0.8942
  705MOL0     H95170   1.245   4.814   9.108 -2.1187  1.4570 -2.5892
  705MOL0     H95171   1.016   4.771   8.751 -0.6206  2.0471  0.3412
  705MOL0     H95172   1.794   5.090   9.034  0.1045 -0.5514  2.2800
  705MOL0     H95173   2.050   5.230   8.891 -0.7499  0.7548 -0.5433
  705MOL0     H95174   1.935   5.247   9.018  0.6709  1.3465 -2.5136
  705MOL0     H95175   2.105   5.213   9.065  0.9365 -0.8199 -0.6315
  706MOL0     O95176   3.113   2.633   4.713  0.3573 -0.0115 -0.0486
  706MOL0     C95177   3.079   2.565   4.620  0.4719  0.5054 -0.0256
  706MOL0     O95178   3.157   2.533   4.518 -0.3834 -0.5928 -0.2008
  706MOL0     C95179   3.268   2.615   4.492  1.1527 -0.5247  0.2593
  706MOL0     C95180   3.393   2.554   4.481  0.2597 -0.1106 -0.2355
  706MOL0     C95181   3.501   2.638   4.485  0.1333  0.4220  0.3197
  706MOL0     C95182   3.502   2.774   4.469 -0.2651  0.7777  0.1455
  706MOL0     O95183   3.619   2.848   4.464  0.1840 -0.4474  0.0483
  706MOL0     C95184   3.732   2.796   4.399 -0.3308  0.1308 -0.0993
  706MOL0     C95185   3.838   2.907   4.408  0.3645  1.4454 -0.3598
  706MOL0     C95186   3.964   2.851   4.345  0.0315 -0.7595 -0.6805
  706MOL0     C95187   4.080   2.949   4.349  0.0229  0.1707  0.3908
  706MOL0     C95188   4.067   3.071   4.261 -0.4914 -0.3086 -0.8517
  706MOL0     C95189   4.192   3.167   4.268 -0.2521 -0.3968  0.0629
  706MOL0     C95190   4.222   3.216   4.412 -0.2659 -0.0889  0.2975
  706MOL0     C95191   4.337   3.317   4.408  0.7722  1.1378  0.4266
  706MOL0     N95192   4.463   3.276   4.340  0.5475 -0.4661 -0.0846
  706MOL0     C95193   4.540   3.171   4.376 -0.1811 -0.4143 -0.0347
  706MOL0     C95194   4.609   3.146   4.263 -0.3902  0.3763  0.8365
  706MOL0     C95195   4.691   3.023   4.227 -0.3115 -0.0427 -0.0275
  706MOL0     C95196   4.600   2.907   4.175  0.0407  0.3097 -0.9745
  706MOL0     C95197   4.506   2.867   4.286 -0.0843 -0.1909 -0.4798
  706MOL0     C95198   4.457   2.727   4.266  0.9378 -0.4530  0.2700
  706MOL0     O95199   4.364   2.690   4.370 -0.2230 -0.2792  0.6129
  706MOL0     C95200   4.318   2.563   4.385 -1.1718  0.1173  0.6380
  706MOL0     C95201   4.367   2.463   4.301  1.0469  0.8221  0.5726
  706MOL0     C95202   4.318   2.336   4.314  0.5259 -0.4737 -0.6022
  706MOL0     C95203   4.216   2.302   4.407 -0.6360 -0.4271  0.0023
  706MOL0     C95204   4.144   2.176   4.405  0.7113  0.7386 -0.2874
  706MOL0     O95205   4.184   2.077   4.323  0.5440  0.1104  0.2708
  706MOL0     C95206   4.115   1.957   4.306  0.9761 -0.5527  0.1940
  706MOL0     C95207   4.082   1.874   4.413  0.3243 -0.1079  0.8770
  706MOL0     C95208   4.012   1.759   4.392 -0.3896 -0.4756  0.6034
  706MOL0     C95209   3.977   1.722   4.266  0.5887 -0.7392  0.4187
  706MOL0     O95210   3.905   1.611   4.236  0.6079 -0.3013 -1.3001
  706MOL0     C95211   3.800   1.560   4.324  0.0510 -0.5072  0.1408
  706MOL0     C95212   3.787   1.413   4.287  0.1691  0.1718  0.1941
  706MOL0     C95213   3.677   1.338   4.368 -0.0165  0.5081  0.4008
  706MOL0     C95214   3.725   1.266   4.491  0.5594 -0.1702 -0.0383
  706MOL0     C95215   3.850   1.177   4.476  0.8007 -0.3649  0.3144
  706MOL0     C95216   3.850   1.070   4.361  0.7528  0.3824  0.6143
  706MOL0     C95217   3.992   1.046   4.319  0.3832 -0.1897 -0.7116
  706MOL0     C95218   4.001   0.947   4.213  0.1037  0.3289 -0.1557
  706MOL0    Cl95219   3.943   0.786   4.277 -0.2212  0.2264  0.5394
  706MOL0     C95220   4.013   1.799   4.151 -0.2514 -0.9519  0.9141
  706MOL0     C95221   4.069   1.926   4.181 -0.1339 -0.5302  0.5015
  706MOL0     O95222   4.038   2.177   4.469  0.0890  0.7067 -1.2021
  706MOL0     C95223   4.173   2.405   4.496 -0.3576 -0.1499  0.3291
  706MOL0     C95224   4.218   2.531   4.482 -0.5171 -0.0184 -0.0358
  706MOL0     N95225   4.578   3.241   4.165 -0.1803 -0.0573  0.8727
  706MOL0     N95226   4.491   3.314   4.208  0.0648  0.1389  0.2620
  706MOL0     C95227   3.380   2.836   4.483  0.4176 -0.4401  0.0999
  706MOL0     C95228   3.264   2.755   4.491  0.7230  0.2292  0.0833
  706MOL0     C95229   2.947   2.491   4.627 -0.3844 -0.1453  0.1217
  706MOL0     C95230   2.947   2.354   4.595 -0.2295  0.0962 -0.7126
  706MOL0     C95231   2.834   2.288   4.582 -0.3793  1.1650 -0.9576
  706MOL0     C95232   2.711   2.344   4.606 -0.2780 -0.2007 -0.0321
  706MOL0     O95233   2.599   2.271   4.569 -1.2485  0.1994  0.3149
  706MOL0     C95234   2.469   2.325   4.604  0.0357  0.0403 -0.2928
  706MOL0     C95235   2.351   2.242   4.562  0.4274  0.2416  0.1712
  706MOL0     C95236   2.339   2.111   4.627 -0.1272 -0.1915  0.5690
  706MOL0     C95237   2.192   2.060   4.616 -0.3402  0.0099 -0.0837
  706MOL0     C95238   2.188   1.916   4.656  0.1500 -0.1015  0.7496
  706MOL0     C95239   2.201   1.801   4.671 -0.0921  0.6925 -0.2442
  706MOL0     C95240   2.709   2.475   4.661  0.1986 -0.3496  0.1625
  706MOL0     C95241   2.824   2.550   4.662  0.3451  0.0294 -0.0226
  706MOL0     C95242   2.804   2.694   4.713  0.0656 -0.1473 -0.0196
  706MOL0     H95243   3.394   2.447   4.501  0.0706 -0.3066 -1.2125
  706MOL0     H95244   3.597   2.587   4.490  0.0195 -0.0700 -1.6728
  706MOL0     H95245   3.767   2.709   4.455 -1.4793 -0.5112 -0.3365
  706MOL0     H95246   3.711   2.780   4.293 -2.6944 -0.2774  0.3608
  706MOL0     H95247   3.846   2.928   4.515  2.3127 -0.2546 -0.1080
  706MOL0     H95248   3.801   2.992   4.350 -1.4335  0.5482 -0.5852
  706MOL0     H95249   3.946   2.823   4.240  0.1689 -3.0435 -0.1441
  706MOL0     H95250   3.989   2.757   4.395  1.4191 -0.1449 -0.1578
  706MOL0     H95251   4.087   2.985   4.452 -0.2392  0.7730  0.2020
  706MOL0     H95252   4.175   2.898   4.332 -0.4770 -0.8377  0.5201
  706MOL0     H95253   4.040   3.026   4.165  1.8681 -1.0958 -1.2087
  706MOL0     H95254   3.988   3.144   4.285  0.6374  1.3776 -1.9870
  706MOL0     H95255   4.275   3.115   4.220 -1.3877 -2.3113  0.0795
  706MOL0     H95256   4.159   3.257   4.215  2.0155  0.4753  0.0284
  706MOL0     H95257   4.233   3.124   4.470 -1.1883 -0.3731  0.0303
  706MOL0     H95258   4.129   3.264   4.444  0.0313  0.6923  0.0156
  706MOL0     H95259   4.297   3.397   4.344 -3.8268 -1.2173 -0.0269
  706MOL0     H95260   4.351   3.366   4.504 -0.0949  0.6890  0.7922
  706MOL0     H95261   4.521   3.097   4.453 -3.4530 -0.0994 -0.3937
  706MOL0     H95262   4.759   3.045   4.143  0.6705  1.2858  1.0710
  706MOL0     H95263   4.751   2.995   4.314 -2.4592 -0.8927  1.2283
  706MOL0     H95264   4.554   2.944   4.083 -0.7178  3.2046  0.4334
  706MOL0     H95265   4.674   2.834   4.140 -0.0390  0.7988 -2.2080
  706MOL0     H95266   4.429   2.944   4.289  0.8719  0.8488 -1.4773
  706MOL0     H95267   4.551   2.878   4.386 -0.3452  2.3513 -0.5890
  706MOL0     H95268   4.547   2.667   4.256  1.4714  0.5444 -1.3044
  706MOL0     H95269   4.400   2.724   4.172  1.1852  0.4954  0.0838
  706MOL0     H95270   4.454   2.464   4.237  1.5534 -3.9376  0.7707
  706MOL0     H95271   4.355   2.255   4.251  2.4071  0.1298 -0.3387
  706MOL0     H95272   4.103   1.891   4.518  2.3383  1.3495  0.3136
  706MOL0     H95273   3.971   1.715   4.482 -2.3591  0.6654  0.3380
  706MOL0     H95274   3.821   1.583   4.429  1.9134 -1.0904 -0.0674
  706MOL0     H95275   3.707   1.616   4.304 -0.3093 -0.2619  2.3019
  706MOL0     H95276   3.766   1.399   4.180 -3.4839 -2.9694  1.1122
  706MOL0     H95277   3.888   1.373   4.296  0.0549  0.0101  0.7859
  706MOL0     H95278   3.605   1.415   4.398 -0.6403  0.2130 -0.2975
  706MOL0     H95279   3.606   1.272   4.316  0.6760 -1.8837  2.3410
  706MOL0     H95280   3.643   1.205   4.530  0.2045 -0.8886 -1.8344
  706MOL0     H95281   3.745   1.341   4.568 -2.8352  1.0050 -0.1371
  706MOL0     H95282   3.865   1.125   4.571  0.9763 -1.6002 -0.3631
  706MOL0     H95283   3.925   1.255   4.459 -0.6745  1.5652  2.1634
  706MOL0     H95284   3.801   0.982   4.405  1.5868 -0.2679  0.2707
  706MOL0     H95285   3.794   1.113   4.277 -0.2138 -0.0342  1.0251
  706MOL0     H95286   4.056   1.017   4.403  0.7421  2.2325 -0.0935
  706MOL0     H95287   4.047   1.133   4.283  5.6962 -3.6954 -2.2176
  706MOL0     H95288   3.939   0.986   4.132  0.0553 -2.1224 -1.3955
  706MOL0     H95289   4.106   0.940   4.182  0.5638  2.0087  0.9204
  706MOL0     H95290   3.992   1.771   4.048 -2.7237  4.1966 -0.2752
  706MOL0     H95291   4.102   1.994   4.104 -0.1302  0.3997  1.3008
  706MOL0     H95292   4.110   2.386   4.583 -0.4802 -1.1210  0.0409
  706MOL0     H95293   4.181   2.606   4.551 -1.6378 -0.5510 -0.0289
  706MOL0     H95294   3.378   2.944   4.483 -3.3974 -0.3489  1.6104
  706MOL0     H95295   3.167   2.805   4.490  1.3971  1.5621 -0.2905
  706MOL0     H95296   3.038   2.300   4.569 -1.8431 -2.4189 -1.5020
  706MOL0     H95297   2.845   2.186   4.546 -0.2026  0.5241  0.8186
  706MOL0     H95298   2.463   2.419   4.549 -1.2920 -1.6434 -3.2567
  706MOL0     H95299   2.465   2.334   4.713  1.0750  0.6846 -0.2976
  706MOL0     H95300   2.349   2.229   4.453 -1.6709 -0.0931  0.2070
  706MOL0     H95301   2.266   2.307   4.585  0.6570  0.7329 -0.3231
  706MOL0     H95302   2.377   2.117   4.730  0.8930 -2.1937  0.3546
  706MOL0     H95303   2.402   2.046   4.566  0.0408  1.6120 -1.2926
  706MOL0     H95304   2.125   2.109   4.688 -0.9163 -0.7184 -0.1102
  706MOL0     H95305   2.142   2.078   4.520 -0.8128  1.1302  0.3490
  706MOL0     H95306   2.208   1.694   4.670 -1.2388  0.6093 -1.5534
  706MOL0     H95307   2.615   2.521   4.689 -0.2643 -1.2777  0.1802
  706MOL0     H95308   2.895   2.742   4.675  2.1956 -4.3570 -0.7678
  706MOL0     H95309   2.711   2.739   4.677 -0.8711 -0.1359  2.2747
  706MOL0     H95310   2.790   2.692   4.821 -4.1587  1.0255 -0.3872
  707MOL0     O95311   6.032   3.431   5.053 -0.0514  0.3910  0.4743
  707MOL0     C95312   5.937   3.442   5.127  0.4495  0.1582  1.0077
  707MOL0     O95313   5.947   3.463   5.256 -0.2020 -0.0037 -0.2700
  707MOL0     C95314   6.079   3.458   5.305  0.5251  0.1100 -0.0727
  707MOL0     C95315   6.144   3.580   5.342  0.4563  0.7891  0.2723
  707MOL0     C95316   6.266   3.575   5.416  0.3193  0.1249  1.1643
  707MOL0     C95317   6.332   3.453   5.448 -0.0000  1.0141  0.5170
  707MOL0     O95318   6.445   3.445   5.530 -0.1431 -0.5935 -0.4954
  707MOL0     C95319   6.491   3.556   5.610 -0.9383 -0.3537  0.3851
  707MOL0     C95320   6.616   3.617   5.532  0.1315  0.3249  0.3861
  707MOL0     C95321   6.664   3.738   5.606  1.1192  0.3190 -0.1039
  707MOL0     C95322   6.772   3.817   5.525  0.6325 -0.0548  0.2800
  707MOL0     C95323   6.865   3.732   5.446  0.2707 -1.0214 -0.0462
  707MOL0     C95324   6.967   3.650   5.528 -0.1563  0.5190 -0.0165
  707MOL0     C95325   7.075   3.581   5.439 -0.5463 -0.1888 -0.3218
  707MOL0     C95326   7.176   3.500   5.517 -1.0370 -0.5204  0.0845
  707MOL0     N95327   7.303   3.573   5.530  0.7309 -0.7685 -0.1974
  707MOL0     C95328   7.367   3.621   5.638 -0.1107 -0.2544 -1.2851
  707MOL0     C95329   7.485   3.672   5.600 -0.0963 -0.3615  0.2058
  707MOL0     C95330   7.595   3.735   5.687  0.7709 -0.0895 -0.3865
  707MOL0     C95331   7.713   3.776   5.607  0.5591  0.4311  0.1133
  707MOL0     C95332   7.828   3.851   5.686 -0.6701  0.0931  0.7527
  707MOL0     C95333   7.961   3.864   5.611  0.5141 -1.0217 -0.8872
  707MOL0     O95334   8.063   3.909   5.704 -0.3358  0.0187 -0.1169
  707MOL0     C95335   8.193   3.908   5.665  0.3235  0.1456  0.9838
  707MOL0     C95336   8.281   3.928   5.768 -0.0146  0.3220  1.1955
  707MOL0     C95337   8.414   3.920   5.727 -0.2413  0.1872  0.3470
  707MOL0     C95338   8.461   3.893   5.602  0.1209  0.0302  0.4652
  707MOL0     C95339   8.601   3.883   5.586 -0.5425 -0.5329  0.0509
  707MOL0     O95340   8.636   3.859   5.458  0.4972  0.8161 -0.1943
  707MOL0     C95341   8.735   3.922   5.393 -0.0875  0.3422 -0.5773
  707MOL0     C95342   8.830   4.011   5.443  0.8185  0.3421 -0.3795
  707MOL0     C95343   8.922   4.075   5.365  0.2874 -0.0650 -0.0691
  707MOL0     C95344   8.902   4.069   5.230 -0.2733 -0.0615 -0.1034
  707MOL0     O95345   8.995   4.141   5.163  0.4938  0.3233 -1.0249
  707MOL0     C95346   9.054   4.081   5.040 -0.1475 -0.1918  0.3297
  707MOL0     C95347   9.130   3.957   5.084  0.2145  0.7060  0.3461
  707MOL0     C95348   9.259   3.995   5.162  0.1879  0.0768 -0.4909
  707MOL0     C95349   9.320   3.869   5.229 -0.2382  0.1458 -0.2727
  707MOL0     C95350   9.411   3.896   5.351 -0.4517  0.0437  0.2160
  707MOL0     C95351   9.320   3.935   5.471  0.1364  0.2817  0.3527
  707MOL0     C95352   9.395   3.968   5.604  0.4704  0.4868 -0.4012
  707MOL0     C95353   9.308   4.047   5.707 -0.0876 -0.4844  0.2797
  707MOL0    Cl95354   9.249   4.200   5.622  0.0658  0.3815  0.1074
  707MOL0     C95355   8.807   3.990   5.172  0.0329 -0.6553 -0.4667
  707MOL0     C95356   8.733   3.913   5.255  0.5824  0.5607 -0.0082
  707MOL0     O95357   8.679   3.905   5.679 -0.5540 -0.6605 -0.3643
  707MOL0     C95358   8.376   3.877   5.492  0.5699 -0.0979  0.2091
  707MOL0     C95359   8.238   3.871   5.532  0.3908  0.0543  0.6757
  707MOL0     N95360   7.490   3.667   5.462  0.7783 -0.0974 -0.3847
  707MOL0     N95361   7.382   3.609   5.420 -0.2286  0.2083 -0.2387
  707MOL0     C95362   6.265   3.333   5.407  1.1357  0.3419  0.2369
  707MOL0     C95363   6.144   3.338   5.328  0.4838  0.4259  0.4105
  707MOL0     C95364   5.805   3.448   5.046  0.8442 -0.4750  0.4099
  707MOL0     C95365   5.811   3.450   4.907  0.4368 -0.2173 -0.2284
  707MOL0     C95366   5.694   3.465   4.832  0.0956 -0.3304 -0.2390
  707MOL0     C95367   5.565   3.458   4.886 -0.6987 -0.7671  0.1227
  707MOL0     O95368   5.449   3.471   4.808 -0.1971 -0.3808 -0.0970
  707MOL0     C95369   5.463   3.496   4.668  0.8494  0.9511  0.2891
  707MOL0     C95370   5.316   3.546   4.623 -0.4254  0.3239  0.6343
  707MOL0     C95371   5.320   3.598   4.477  0.0433 -0.0931  0.1057
  707MOL0     C95372   5.198   3.693   4.442 -0.1807  0.4706  0.7579
  707MOL0     C95373   5.214   3.737   4.302 -0.5358  0.7944  0.5728
  707MOL0     C95374   5.213   3.786   4.187 -0.5403  0.1892 -0.3563
  707MOL0     C95375   5.556   3.443   5.018  0.3911 -0.5152  0.9157
  707MOL0     C95376   5.667   3.439   5.104  0.0156 -1.1306 -0.4200
  707MOL0     C95377   5.650   3.411   5.249 -0.6754 -0.6061  0.2605
  707MOL0     H95378   6.096   3.670   5.306  0.1219 -0.7908 -3.8444
  707MOL0     H95379   6.316   3.668   5.441  1.8900 -1.1162  2.9327
  707MOL0     H95380   6.414   3.633   5.615  1.2188  1.8799  1.2591
  707MOL0     H95381   6.515   3.530   5.714  0.7778 -1.1053 -0.1637
  707MOL0     H95382   6.590   3.648   5.431  3.9792  1.5963 -0.3763
  707MOL0     H95383   6.696   3.544   5.516 -0.0694 -0.2998  1.9798
  707MOL0     H95384   6.716   3.701   5.694 -1.5157 -3.1024  0.1856
  707MOL0     H95385   6.587   3.807   5.640  1.0097  0.3464 -0.4041
  707MOL0     H95386   6.724   3.889   5.458  2.0625  2.2506  1.5804
  707MOL0     H95387   6.828   3.881   5.594 -0.5737  2.1882 -0.7273
  707MOL0     H95388   6.812   3.658   5.386 -1.5423 -0.9886  1.4357
  707MOL0     H95389   6.906   3.809   5.380 -0.4449  1.4698  2.2207
  707MOL0     H95390   7.024   3.708   5.602  0.3149 -0.4213  0.3786
  707MOL0     H95391   6.905   3.573   5.573 -1.5272  1.0868 -0.8719
  707MOL0     H95392   7.122   3.663   5.384 -2.3567 -0.5376 -2.5757
  707MOL0     H95393   7.027   3.506   5.376 -0.2676 -2.8155  2.4020
  707MOL0     H95394   7.139   3.466   5.615 -2.3170 -2.1126 -0.9067
  707MOL0     H95395   7.208   3.419   5.451  1.5578  0.4123  0.0717
  707MOL0     H95396   7.338   3.599   5.740 -0.4118 -0.9229 -1.5042
  707MOL0     H95397   7.562   3.820   5.747  0.8355 -0.5738  0.3481
  707MOL0     H95398   7.622   3.656   5.757 -0.8357  0.7977  1.3155
  707MOL0     H95399   7.746   3.689   5.549 -0.1011 -2.1954  3.3989
  707MOL0     H95400   7.680   3.859   5.543 -0.1950  1.5516  1.8695
  707MOL0     H95401   7.843   3.803   5.783  0.7578 -2.0942 -0.4637
  707MOL0     H95402   7.791   3.952   5.707 -1.6960 -0.2447  0.6023
  707MOL0     H95403   7.960   3.932   5.525 -3.3395  0.9099  0.4753
  707MOL0     H95404   7.979   3.760   5.581 -4.1482 -2.1582 -0.5008
  707MOL0     H95405   8.268   3.951   5.873  0.4029  0.6858  1.1734
  707MOL0     H95406   8.481   3.936   5.812 -1.9240  3.2344  1.2464
  707MOL0     H95407   8.834   4.030   5.550  0.2014 -2.1103  0.1427
  707MOL0     H95408   9.001   4.136   5.409  0.2821 -1.1694  1.5618
  707MOL0     H95409   8.977   4.056   4.966  0.5528 -0.3517 -0.3576
  707MOL0     H95410   9.117   4.156   4.991 -0.1581  0.3415  1.1262
  707MOL0     H95411   9.073   3.892   5.151  1.4653  0.3228  1.0587
  707MOL0     H95412   9.151   3.900   4.992 -2.2727  1.7801 -0.9850
  707MOL0     H95413   9.340   4.048   5.112  2.1465  0.4844  2.7876
  707MOL0     H95414   9.228   4.068   5.238  0.2933  0.8920 -1.2146
  707MOL0     H95415   9.387   3.824   5.155 -1.0507 -2.1239  0.2983
  707MOL0     H95416   9.240   3.801   5.259 -1.0744  2.2180  2.7261
  707MOL0     H95417   9.480   3.980   5.339 -0.3459  0.2641  2.0736
  707MOL0     H95418   9.465   3.805   5.378 -2.9336 -0.9157  2.3564
  707MOL0     H95419   9.259   4.021   5.442 -0.7029  0.1153  1.5690
  707MOL0     H95420   9.246   3.860   5.500 -0.9440  1.9144  2.0906
  707MOL0     H95421   9.488   4.020   5.579  0.0081  0.4905 -2.2746
  707MOL0     H95422   9.436   3.882   5.658  1.3742  1.2611  0.1916
  707MOL0     H95423   9.228   3.975   5.729 -1.0321  0.6978  0.8424
  707MOL0     H95424   9.374   4.074   5.790 -0.2600  0.1612  0.2144
  707MOL0     H95425   8.816   3.986   5.064 -1.3918 -1.3968 -0.5752
  707MOL0     H95426   8.681   3.825   5.217  0.9569  0.8981 -1.3482
  707MOL0     H95427   8.402   3.875   5.387 -1.6896  2.6253 -0.5250
  707MOL0     H95428   8.165   3.864   5.452 -2.8178 -0.0639  3.4142
  707MOL0     H95429   6.309   3.238   5.434  1.7909  0.5735 -0.0109
  707MOL0     H95430   6.097   3.246   5.296 -1.6937  2.1174 -1.6374
  707MOL0     H95431   5.899   3.451   4.844 -2.0975 -2.6675 -4.3214
  707MOL0     H95432   5.716   3.456   4.726  0.6517 -0.7206 -0.0977
  707MOL0     H95433   5.494   3.408   4.611  1.4464  2.0182 -1.0988
  707MOL0     H95434   5.538   3.572   4.646 -0.1556  1.0949 -3.3443
  707MOL0     H95435   5.279   3.622   4.693 -1.3408 -2.1604  3.0218
  707MOL0     H95436   5.239   3.469   4.630 -1.4325  1.1234 -1.1644
  707MOL0     H95437   5.314   3.509   4.413 -1.3443  0.6810 -0.9025
  707MOL0     H95438   5.419   3.638   4.452  0.1586 -1.0924 -1.1469
  707MOL0     H95439   5.100   3.645   4.445 -2.0529  3.5831 -2.4369
  707MOL0     H95440   5.201   3.779   4.511 -1.0387  1.5023 -0.4532
  707MOL0     H95441   5.217   3.834   4.091  2.1072  0.3731 -0.2316
  707MOL0     H95442   5.461   3.437   5.069  1.0192 -0.5411  2.1014
  707MOL0     H95443   5.672   3.504   5.302  1.3509  0.4845 -2.3270
  707MOL0     H95444   5.555   3.368   5.281  0.0703 -3.2559 -0.8007
  707MOL0     H95445   5.722   3.335   5.281 -0.4557 -0.0020  1.2392
  708MOL0     O95446   9.369   3.492   0.514  0.5998 -0.1959 -0.1190
  708MOL0     C95447   9.334   3.430   0.606 -0.1994 -1.2800  0.6159
  708MOL0     O95448   9.211   3.373   0.622 -0.2786 -1.0525  0.1303
  708MOL0     C95449   9.106   3.427   0.558  0.1480  0.5123  0.6533
  708MOL0     C95450   9.089   3.504   0.441 -0.3979 -0.2777 -0.3613
  708MOL0     C95451   8.965   3.575   0.412  0.3992  0.8842 -0.5898
  708MOL0     C95452   8.855   3.562   0.494  0.2877  0.1475  0.3102
  708MOL0     O95453   8.722   3.597   0.474  0.1810 -0.3801 -0.1296
  708MOL0     C95454   8.688   3.647   0.347  0.0382 -0.1997  0.0821
  708MOL0     C95455   8.535   3.669   0.341 -0.6867 -0.6561 -0.3536
  708MOL0     C95456   8.480   3.752   0.224  0.0310 -0.4018 -0.6896
  708MOL0     C95457   8.324   3.770   0.221  0.0675  0.5669 -0.2734
  708MOL0     C95458   8.291   3.885   0.126 -0.1645  0.5662  0.3719
  708MOL0     C95459   8.311   4.017   0.191 -0.0126  0.8172 -0.8776
  708MOL0     C95460   8.296   4.130   0.080  0.2396  0.2984 -0.1676
  708MOL0     C95461   8.410   4.143  -0.021 -0.1499 -0.5291  0.3560
  708MOL0     N95462   8.544   4.173   0.035 -0.3895  0.6975 -1.0509
  708MOL0     C95463   8.587   4.291   0.086 -0.5334 -0.0339  0.5025
  708MOL0     C95464   8.709   4.273   0.121  0.0597  0.3324 -0.7754
  708MOL0     C95465   8.789   4.378   0.196  0.5356 -0.6012  0.5484
  708MOL0     C95466   8.921   4.399   0.123 -0.9789  0.2677  0.4342
  708MOL0     C95467   8.993   4.503   0.208  0.1845  0.8397 -0.2052
  708MOL0     C95468   9.114   4.557   0.132 -0.5487  0.2844 -0.5214
  708MOL0     O95469   9.165   4.672   0.210  0.0340  0.7858 -0.3122
  708MOL0     C95470   9.275   4.658   0.285  0.0207  1.6484  0.1247
  708MOL0     C95471   9.357   4.536   0.293  0.3293  0.8722 -0.0498
  708MOL0     C95472   9.471   4.536   0.375  0.3410 -0.8550  0.5490
  708MOL0     C95473   9.504   4.664   0.445 -0.5271  0.0750 -0.8508
  708MOL0     C95474   9.636   4.684   0.516 -0.5606 -0.2242 -0.5572
  708MOL0     O95475   9.725   4.571   0.492 -0.6799  0.0063 -0.0642
  708MOL0     C95476   9.853   4.582   0.541  0.0424 -0.2659  0.3886
  708MOL0     C95477   9.927   4.702   0.513  0.1380 -0.7243  0.2749
  708MOL0     C95478  10.053   4.713   0.560 -0.1289 -0.4287 -0.0044
  708MOL0     C95479  10.114   4.619   0.637 -0.8174  0.0679 -0.4268
  708MOL0     O95480  10.239   4.650   0.687  0.5980 -0.0598  0.7711
  708MOL0     C95481  10.321   4.557   0.755  0.2535  0.3521 -0.1471
  708MOL0     C95482  10.465   4.611   0.771 -1.0523  0.4390  0.4581
  708MOL0     C95483  10.473   4.752   0.835  0.3277 -0.0973  0.1497
  708MOL0     C95484  10.614   4.804   0.870 -0.5900  0.2428 -0.2684
  708MOL0     C95485  10.615   4.925   0.956  0.1496 -0.6223  0.0147
  708MOL0     C95486  10.759   4.993   0.956 -0.2057  0.1700  1.1413
  708MOL0     C95487  10.749   5.119   1.040  1.2577 -0.4813 -0.1990
  708MOL0     C95488  10.885   5.182   1.072  0.7018 -0.2479 -0.3271
  708MOL0    Cl95489  10.955   5.257   0.926 -0.2207  0.2093  0.1296
  708MOL0     C95490  10.050   4.495   0.667  0.5936 -0.1373  0.4334
  708MOL0     C95491   9.915   4.482   0.617  0.8988 -0.1478 -0.5254
  708MOL0     O95492   9.656   4.791   0.581 -0.2168  0.8025 -0.3548
  708MOL0     C95493   9.422   4.778   0.430 -0.3487 -0.3502 -0.1154
  708MOL0     C95494   9.303   4.778   0.359 -0.2842  1.2995  0.1549
  708MOL0     N95495   8.747   4.135   0.108 -0.4699 -0.4462 -0.1457
  708MOL0     N95496   8.642   4.074   0.051 -0.0648 -0.8469 -1.0994
  708MOL0     C95497   8.871   3.480   0.603  0.0264  0.8773  0.3544
  708MOL0     C95498   8.984   3.405   0.629 -0.3406 -0.4750  0.2137
  708MOL0     C95499   9.438   3.393   0.704 -0.1206  0.1441 -0.1388
  708MOL0     C95500   9.569   3.364   0.656 -0.9078  0.4046  0.6271
  708MOL0     C95501   9.660   3.301   0.737  0.4923 -0.2381 -0.0517
  708MOL0     C95502   9.633   3.285   0.880 -0.1849 -0.1746  0.5277
  708MOL0     O95503   9.725   3.218   0.951  0.2598  0.0330  0.0590
  708MOL0     C95504   9.695   3.178   1.083 -0.3917  0.3379  0.1383
  708MOL0     C95505   9.720   3.283   1.191  0.0989  0.4530  0.0401
  708MOL0     C95506   9.846   3.372   1.180  0.5126  0.2937  0.1271
  708MOL0     C95507   9.961   3.275   1.214  0.3232 -0.1640  0.4120
  708MOL0     C95508  10.090   3.343   1.193  0.5656  0.0526 -0.2541
  708MOL0     C95509  10.191   3.407   1.169  0.3457  0.6120  0.0165
  708MOL0     C95510   9.508   3.332   0.925 -0.9596  0.6821 -0.2689
  708MOL0     C95511   9.412   3.375   0.837 -0.3327 -0.1836 -0.7328
  708MOL0     C95512   9.276   3.410   0.904 -0.4005  0.3926 -1.1202
  708MOL0     H95513   9.171   3.525   0.373  0.1525 -0.7970  0.1219
  708MOL0     H95514   8.957   3.633   0.321 -4.5936  0.7379 -0.5302
  708MOL0     H95515   8.733   3.745   0.335 -0.0990  0.2299  2.5904
  708MOL0     H95516   8.713   3.584   0.260 -1.8087 -0.6509 -0.1753
  708MOL0     H95517   8.498   3.720   0.430 -0.1038  0.9214 -0.9623
  708MOL0     H95518   8.491   3.570   0.325  0.3448 -0.8739 -2.1569
  708MOL0     H95519   8.516   3.709   0.130  2.1935  0.7057 -0.4315
  708MOL0     H95520   8.522   3.851   0.245  0.1663 -0.4787 -0.5957
  708MOL0     H95521   8.282   3.676   0.182  2.9520 -1.3100  0.7913
  708MOL0     H95522   8.285   3.788   0.321  0.5779 -0.3594  0.1059
  708MOL0     H95523   8.337   3.869   0.028  0.2954 -2.7680  1.0289
  708MOL0     H95524   8.183   3.881   0.105 -0.0454 -0.2223 -0.1301
  708MOL0     H95525   8.232   4.023   0.267  1.3262  0.7259  0.5569
  708MOL0     H95526   8.405   4.023   0.245  0.0041  3.5968 -1.1090
  708MOL0     H95527   8.275   4.229   0.122  2.0216  1.0816 -1.0117
  708MOL0     H95528   8.201   4.109   0.030 -0.4958  2.3825  0.2780
  708MOL0     H95529   8.419   4.050  -0.078  3.2700  0.6183 -1.2172
  708MOL0     H95530   8.374   4.220  -0.089 -1.8711  0.2293  2.0291
  708MOL0     H95531   8.525   4.379   0.106  0.5655  0.6648  0.9740
  708MOL0     H95532   8.737   4.474   0.205 -0.7859 -1.4400  2.5354
  708MOL0     H95533   8.800   4.360   0.303 -0.6981 -0.9796  0.6294
  708MOL0     H95534   8.989   4.313   0.113 -1.3724  0.1433 -1.8314
  708MOL0     H95535   8.912   4.453   0.028  1.7788 -1.6494 -1.0431
  708MOL0     H95536   9.024   4.451   0.299 -0.3255 -1.8881 -1.4666
  708MOL0     H95537   8.929   4.588   0.234  0.1459  0.0331  2.6464
  708MOL0     H95538   9.069   4.606   0.045  0.3325  1.7464 -0.1980
  708MOL0     H95539   9.192   4.488   0.100 -2.1392 -0.7601 -2.3486
  708MOL0     H95540   9.327   4.446   0.242  1.8539 -0.6216  1.5709
  708MOL0     H95541   9.535   4.450   0.387  0.8645 -0.4582  0.6315
  708MOL0     H95542   9.879   4.786   0.464 -0.7589 -0.7287  1.1141
  708MOL0     H95543  10.090   4.812   0.535 -1.1962  0.5180  1.8796
  708MOL0     H95544  10.270   4.541   0.850  2.0085 -0.7144  0.6726
  708MOL0     H95545  10.327   4.462   0.700  2.1418 -0.5315  1.4574
  708MOL0     H95546  10.529   4.541   0.824 -0.3753 -1.4579 -2.6277
  708MOL0     H95547  10.491   4.626   0.665  0.3206 -1.5581  0.4706
  708MOL0     H95548  10.422   4.818   0.765 -1.7754 -2.4986 -0.7544
  708MOL0     H95549  10.409   4.750   0.924 -0.5094  0.1501 -0.4425
  708MOL0     H95550  10.652   4.838   0.773 -0.4366  1.4481  0.2008
  708MOL0     H95551  10.672   4.723   0.914 -1.4492 -0.4778 -0.4361
  708MOL0     H95552  10.594   4.901   1.061  0.8659  1.4629  0.6843
  708MOL0     H95553  10.534   4.991   0.925 -2.0011 -1.5002  3.1933
  708MOL0     H95554  10.818   4.910   0.997 -0.2137 -0.9250 -0.9223
  708MOL0     H95555  10.787   5.017   0.853 -2.3755  2.7435  1.0513
  708MOL0     H95556  10.705   5.097   1.138 -0.7957 -0.4102 -1.0579
  708MOL0     H95557  10.681   5.194   1.000 -0.5710 -0.4532  2.6735
  708MOL0     H95558  10.876   5.249   1.159  0.4436  1.1820 -1.4204
  708MOL0     H95559  10.949   5.103   1.114 -1.8249 -0.9300  2.6453
  708MOL0     H95560  10.098   4.413   0.719 -1.0573 -0.1135  2.0949
  708MOL0     H95561   9.852   4.395   0.635  2.0209 -0.8999 -0.1296
  708MOL0     H95562   9.447   4.862   0.495 -0.3024 -1.2231  1.0382
  708MOL0     H95563   9.236   4.862   0.346  1.6905  2.9997  0.4434
  708MOL0     H95564   8.784   3.465   0.665  1.2072  0.7626  2.0495
  708MOL0     H95565   9.004   3.331   0.705  3.4284 -1.4418 -1.4634
  708MOL0     H95566   9.600   3.394   0.556  1.7101  1.0444  1.5546
  708MOL0     H95567   9.751   3.264   0.691  0.5749  0.0017 -0.0827
  708MOL0     H95568   9.762   3.092   1.092 -2.1970 -1.1640 -0.1110
  708MOL0     H95569   9.594   3.138   1.092  0.0182 -0.6878  0.3699
  708MOL0     H95570   9.723   3.229   1.286 -2.8793  0.7627  0.4208
  708MOL0     H95571   9.631   3.346   1.204 -0.7175 -0.8489  1.1103
  708MOL0     H95572   9.848   3.453   1.253  0.3248  1.7144 -1.3834
  708MOL0     H95573   9.858   3.400   1.075  1.7752 -1.8683 -0.3738
  708MOL0     H95574   9.958   3.232   1.314 -0.7421  3.1148  1.9388
  708MOL0     H95575   9.953   3.190   1.145 -0.6428 -1.7930  2.4390
  708MOL0     H95576  10.281   3.460   1.145  2.0270 -0.8620  2.5748
  708MOL0     H95577   9.473   3.312   1.026 -0.0248 -1.4028 -0.3108
  708MOL0     H95578   9.288   3.444   1.007 -0.1068  3.2426 -2.0054
  708MOL0     H95579   9.227   3.496   0.857  0.2659  1.3268 -0.1199
  708MOL0     H95580   9.213   3.321   0.919  2.3819 -1.3355  1.4078
  709MOL0     O95581   2.262   8.227   3.843  0.4471 -0.6293  0.2555
  709MOL0     C95582   2.191   8.285   3.760 -0.0188  0.0316  0.4550
  709MOL0     O95583   2.100   8.382   3.784 -0.0333 -0.4424 -0.3286
  709MOL0     C95584   2.082   8.452   3.899  0.1161  1.3196  0.1572
  709MOL0     C95585   2.156   8.449   4.019 -0.3564 -0.5387  0.1517
  709MOL0     C95586   2.109   8.513   4.135  0.4791 -0.3844  0.4703
  709MOL0     C95587   1.995   8.593   4.132 -0.6209  0.7439 -0.2881
  709MOL0     O95588   1.922   8.638   4.240  0.0866 -0.4115 -0.0316
  709MOL0     C95589   1.978   8.607   4.380  0.0313  0.0865  0.1482
  709MOL0     C95590   1.920   8.705   4.482 -0.0420  0.0389  0.6159
  709MOL0     C95591   1.949   8.849   4.440  0.0907  0.2775  0.1984
  709MOL0     C95592   1.904   8.946   4.556 -0.2817  0.0257  0.6821
  709MOL0     C95593   1.964   9.088   4.545 -0.3797  0.0369  0.2815
  709MOL0     C95594   2.109   9.117   4.569 -0.9561 -1.1048  0.3051
  709MOL0     C95595   2.129   9.259   4.623 -0.1301 -0.6184  0.6575
  709MOL0     C95596   2.084   9.371   4.525 -0.3733 -0.9873  0.2949
  709MOL0     N95597   2.177   9.387   4.405  0.3395  0.6320  0.0555
  709MOL0     C95598   2.178   9.310   4.295 -0.3650 -0.5783  0.4116
  709MOL0     C95599   2.266   9.366   4.202 -0.3272 -0.0779 -0.2694
  709MOL0     C95600   2.324   9.318   4.073 -0.2850 -0.0275 -0.0494
  709MOL0     C95601   2.384   9.429   3.984  0.3805  0.6371 -0.2793
  709MOL0     C95602   2.409   9.376   3.835 -0.9234 -0.0170  0.2472
  709MOL0     C95603   2.493   9.465   3.754  0.5132 -0.8721  0.0016
  709MOL0     O95604   2.627   9.458   3.809  0.4695  0.2093 -0.6620
  709MOL0     C95605   2.712   9.366   3.759 -0.3918 -0.7321  1.3927
  709MOL0     C95606   2.849   9.381   3.788 -0.5097 -0.5130 -0.7172
  709MOL0     C95607   2.957   9.309   3.723  0.0877  0.0131  0.5186
  709MOL0     C95608   2.923   9.202   3.639 -0.3833  0.4974  0.3363
  709MOL0     C95609   3.023   9.132   3.546 -0.7066 -0.4647  0.1263
  709MOL0     O95610   2.971   9.037   3.467 -0.0392 -0.1115 -0.4529
  709MOL0     C95611   3.048   8.967   3.375 -1.1542  0.9836  0.0260
  709MOL0     C95612   2.982   8.925   3.262 -0.3692 -0.0873  0.8390
  709MOL0     C95613   3.065   8.850   3.166 -0.1043 -0.0024 -0.0649
  709MOL0     C95614   3.205   8.831   3.185 -0.0754 -0.1694  0.3654
  709MOL0     O95615   3.264   8.749   3.089  0.2372 -0.0429  0.6911
  709MOL0     C95616   3.403   8.720   3.085 -0.4459 -0.0629 -0.2290
  709MOL0     C95617   3.427   8.669   2.941 -0.3629  1.1830 -0.1417
  709MOL0     C95618   3.570   8.666   2.904 -0.6425 -0.6581 -0.1220
  709MOL0     C95619   3.589   8.611   2.767 -0.4024  0.6422 -0.4454
  709MOL0     C95620   3.730   8.547   2.746 -0.3611  0.8027  0.0816
  709MOL0     C95621   3.840   8.660   2.736  0.5661 -0.2643 -0.4765
  709MOL0     C95622   3.979   8.603   2.689  0.1624 -0.1062  0.6780
  709MOL0     C95623   3.983   8.588   2.537  0.0068 -0.0941  0.3362
  709MOL0    Cl95624   4.156   8.555   2.486 -0.1179  0.2558 -0.0710
  709MOL0     C95625   3.255   8.866   3.304  0.1667  0.9738  0.0855
  709MOL0     C95626   3.181   8.941   3.394 -0.3218 -0.1125 -1.2372
  709MOL0     O95627   3.137   9.168   3.548  0.4497 -0.2202  0.4343
  709MOL0     C95628   2.789   9.186   3.615  0.2644  0.2620  0.7237
  709MOL0     C95629   2.686   9.269   3.665  0.0540  1.0632 -0.0390
  709MOL0     N95630   2.308   9.484   4.255 -0.1560  0.1570  0.0324
  709MOL0     N95631   2.256   9.497   4.375 -0.4884 -0.0819  0.9449
  709MOL0     C95632   1.943   8.620   4.007 -0.5549  0.2982  1.1116
  709MOL0     C95633   1.981   8.547   3.891 -0.2397  0.9847  0.0897
  709MOL0     C95634   2.206   8.242   3.617  0.2963 -0.1599 -0.0372
  709MOL0     C95635   2.151   8.331   3.515 -0.2136 -0.0831  0.1357
  709MOL0     C95636   2.155   8.295   3.384 -0.5050 -0.5492 -0.2997
  709MOL0     C95637   2.218   8.177   3.343 -0.3486 -0.2293 -0.8048
  709MOL0     O95638   2.206   8.134   3.217 -0.2464  0.2909  0.8459
  709MOL0     C95639   2.290   8.030   3.158  0.5107  0.0937 -0.5329
  709MOL0     C95640   2.436   8.080   3.148 -0.3243  0.4618  0.1161
  709MOL0     C95641   2.431   8.216   3.084  1.3352  0.4234 -0.1608
  709MOL0     C95642   2.565   8.237   3.012  1.6311 -0.0720  0.7948
  709MOL0     C95643   2.673   8.252   3.104  0.1422  0.0199  1.2529
  709MOL0     C95644   2.775   8.262   3.175  0.0026  0.0408  0.6526
  709MOL0     C95645   2.266   8.091   3.444  0.4720 -0.0737  0.2004
  709MOL0     C95646   2.277   8.123   3.577  0.6594 -0.0289  1.0536
  709MOL0     C95647   2.341   8.021   3.670  0.0033  0.0534 -0.6089
  709MOL0     H95648   2.234   8.377   4.039  0.9198  1.1236  1.4881
  709MOL0     H95649   2.153   8.471   4.225 -1.2543 -3.1297  0.1365
  709MOL0     H95650   1.956   8.509   4.422 -1.1217  0.9110  1.5507
  709MOL0     H95651   2.084   8.635   4.384  0.4982 -1.3183 -1.2211
  709MOL0     H95652   1.968   8.691   4.579  1.2928 -0.2349 -0.0488
  709MOL0     H95653   1.814   8.684   4.498  0.6615 -1.2589  4.5167
  709MOL0     H95654   1.898   8.875   4.347  0.8053  1.6465  0.1624
  709MOL0     H95655   2.055   8.865   4.422 -0.0379 -0.4589 -1.4180
  709MOL0     H95656   1.798   8.966   4.540  0.2634  1.7313 -1.2167
  709MOL0     H95657   1.919   8.909   4.658 -0.9791  1.6417  1.4053
  709MOL0     H95658   1.938   9.114   4.442  0.5866  0.0284  0.0330
  709MOL0     H95659   1.909   9.150   4.617 -2.4641  0.3950 -1.5150
  709MOL0     H95660   2.147   9.051   4.649 -3.4901 -1.0311  1.6579
  709MOL0     H95661   2.173   9.110   4.480 -0.4146  1.3366  0.4483
  709MOL0     H95662   2.230   9.275   4.663 -0.6922  1.7585  1.2544
  709MOL0     H95663   2.077   9.280   4.716  1.5961 -1.3877  1.8504
  709MOL0     H95664   1.995   9.339   4.471  1.3877 -2.6575 -1.8171
  709MOL0     H95665   2.067   9.468   4.574 -1.7246 -0.7569 -0.5952
  709MOL0     H95666   2.143   9.208   4.283 -1.3105 -0.1286 -0.8590
  709MOL0     H95667   2.402   9.243   4.090 -1.1666 -0.7358  1.0090
  709MOL0     H95668   2.243   9.278   4.013 -2.0738  1.4147  1.2700
  709MOL0     H95669   2.310   9.509   3.975 -0.0259  0.3985  0.8564
  709MOL0     H95670   2.484   9.456   4.020  0.6083  1.7826 -1.6568
  709MOL0     H95671   2.312   9.370   3.787  1.3455 -1.0360 -4.8511
  709MOL0     H95672   2.452   9.275   3.827 -2.0248 -0.5178  0.4791
  709MOL0     H95673   2.460   9.569   3.756  0.7615 -0.8022  1.0445
  709MOL0     H95674   2.502   9.435   3.649 -1.6562 -1.0322 -0.1789
  709MOL0     H95675   2.869   9.461   3.858 -1.6465 -0.4084 -0.4877
  709MOL0     H95676   3.060   9.335   3.744  0.2230 -0.7541  0.8269
  709MOL0     H95677   2.877   8.940   3.239 -0.1676 -0.3145 -0.2511
  709MOL0     H95678   3.019   8.821   3.072 -1.9022 -1.2651  1.1409
  709MOL0     H95679   3.461   8.813   3.090  1.2515 -0.9226 -2.2007
  709MOL0     H95680   3.434   8.651   3.164 -0.5978 -1.0758 -1.0318
  709MOL0     H95681   3.387   8.567   2.939  0.0472  1.0074  0.4055
  709MOL0     H95682   3.371   8.721   2.862 -1.0836  0.0177 -0.4186
  709MOL0     H95683   3.612   8.765   2.925 -2.0470 -0.1860  0.6158
  709MOL0     H95684   3.611   8.601   2.982 -1.3774 -1.2138 -0.1787
  709MOL0     H95685   3.567   8.689   2.694  1.1690  1.6913  0.1412
  709MOL0     H95686   3.506   8.543   2.748 -0.6177  1.6783 -3.8925
  709MOL0     H95687   3.723   8.492   2.652  3.2943  2.1810 -1.1712
  709MOL0     H95688   3.765   8.484   2.828  1.5919  0.5266 -0.9097
  709MOL0     H95689   3.816   8.740   2.666  3.2138  1.0109 -0.0350
  709MOL0     H95690   3.856   8.700   2.836 -0.1313 -3.4007  1.0364
  709MOL0     H95691   3.988   8.507   2.741 -1.1308  0.6579  2.4139
  709MOL0     H95692   4.062   8.663   2.728  0.9412 -0.5953 -0.1924
  709MOL0     H95693   3.914   8.508   2.508 -0.6077 -0.0796  1.6615
  709MOL0     H95694   3.943   8.679   2.492  0.8187 -0.1945 -0.6223
  709MOL0     H95695   3.362   8.855   3.321  0.4011  4.5080  1.7928
  709MOL0     H95696   3.213   8.959   3.496 -0.8307 -2.1160 -0.6662
  709MOL0     H95697   2.760   9.102   3.552 -1.4977  1.2074  0.1986
  709MOL0     H95698   2.591   9.239   3.622  0.5349 -0.9143  0.1805
  709MOL0     H95699   1.858   8.689   4.007 -2.5161 -1.8740 -1.7295
  709MOL0     H95700   1.925   8.547   3.798  3.7835 -1.6160 -2.7018
  709MOL0     H95701   2.109   8.424   3.551  0.8875 -0.3989  2.4414
  709MOL0     H95702   2.114   8.365   3.312  3.0131  2.8796  0.7016
  709MOL0     H95703   2.251   7.990   3.064  0.7609  1.6926 -1.3507
  709MOL0     H95704   2.283   7.942   3.223  1.9827  0.7459  0.5661
  709MOL0     H95705   2.498   8.013   3.088 -1.5341 -0.1287 -0.4946
  709MOL0     H95706   2.479   8.098   3.247 -0.8294  2.2693  0.0456
  709MOL0     H95707   2.413   8.299   3.153 -1.0215 -0.8956  0.9424
  709MOL0     H95708   2.356   8.210   3.005  1.3855  0.3100 -0.1988
  709MOL0     H95709   2.580   8.161   2.934  2.0483  1.9429 -1.1837
  709MOL0     H95710   2.561   8.332   2.959  1.8522 -0.2779  0.3993
  709MOL0     H95711   2.865   8.285   3.229  0.5560  1.1468 -0.6639
  709MOL0     H95712   2.311   7.994   3.426  1.5872 -0.3144  3.5836
  709MOL0     H95713   2.401   8.069   3.748 -1.5941  0.5507  0.3746
  709MOL0     H95714   2.266   7.964   3.726  1.8521 -0.7475  1.1839
  709MOL0     H95715   2.391   7.940   3.618 -1.8713 -0.9473 -0.9613
  710MOL0     O95716   6.882   9.178   3.254  0.3298 -0.3143 -0.4379
  710MOL0     C95717   6.799   9.098   3.305 -0.7188 -0.8037  0.9272
  710MOL0     O95718   6.804   9.039   3.428 -0.7435  0.0416  0.4938
  710MOL0     C95719   6.927   9.027   3.496  0.5567  0.5367 -0.3418
  710MOL0     C95720   7.007   9.141   3.535  0.9062  0.2222  0.7418
  710MOL0     C95721   7.135   9.131   3.588  0.9002  0.6340  0.0563
  710MOL0     C95722   7.191   9.003   3.616  0.0890 -0.4484 -0.0068
  710MOL0     O95723   7.324   8.987   3.658  0.6292  0.4644  0.3282
  710MOL0     C95724   7.327   8.949   3.802  0.3391  0.3099  0.1779
  710MOL0     C95725   7.448   8.983   3.880  0.6210 -0.2413  0.1761
  710MOL0     C95726   7.581   8.949   3.829 -0.5019 -0.0624 -0.0365
  710MOL0     C95727   7.627   8.811   3.870 -0.3264  0.5143  0.3359
  710MOL0     C95728   7.740   8.770   3.774 -0.5225 -0.1485 -0.3200
  710MOL0     C95729   7.780   8.625   3.811 -0.3465  1.5257 -0.0309
  710MOL0     C95730   7.921   8.599   3.757 -1.3912  0.2632 -0.5491
  710MOL0     C95731   8.029   8.706   3.771 -1.0712 -0.6723  0.2783
  710MOL0     N95732   8.168   8.653   3.767 -0.0567  0.4355  0.4161
  710MOL0     C95733   8.230   8.622   3.885  0.0399  1.2558  0.1856
  710MOL0     C95734   8.358   8.627   3.845 -0.1784  0.4934 -0.3916
  710MOL0     C95735   8.473   8.591   3.937 -0.0885 -0.8248 -0.4720
  710MOL0     C95736   8.458   8.615   4.089  0.4144 -0.8499  0.6430
  710MOL0     C95737   8.597   8.586   4.144 -0.2882  0.0732  0.2007
  710MOL0     C95738   8.599   8.623   4.293  0.1651  0.2089 -0.0646
  710MOL0     O95739   8.536   8.524   4.379 -0.1458 -0.2947 -0.4110
  710MOL0     C95740   8.600   8.421   4.439  0.5642 -0.4750 -0.3513
  710MOL0     C95741   8.738   8.392   4.416 -0.1484 -0.1774  0.3267
  710MOL0     C95742   8.815   8.291   4.482 -0.7042 -0.2030 -0.1347
  710MOL0     C95743   8.737   8.197   4.558 -0.1423 -0.9034  0.6921
  710MOL0     C95744   8.797   8.079   4.625  0.5734  0.1176 -0.6715
  710MOL0     O95745   8.936   8.072   4.619 -0.2812  0.2261 -0.6938
  710MOL0     C95746   9.003   7.956   4.662 -0.6771 -0.3522  0.6134
  710MOL0     C95747   8.978   7.826   4.623 -0.7487 -0.5188 -1.2181
  710MOL0     C95748   9.056   7.721   4.671 -0.1348  1.1400  0.1169
  710MOL0     C95749   9.180   7.756   4.736  0.2585  0.2316  0.0493
  710MOL0     O95750   9.277   7.665   4.763  0.5020 -0.5783 -0.4280
  710MOL0     C95751   9.258   7.528   4.724 -0.0895 -1.2203 -0.3768
  710MOL0     C95752   9.395   7.451   4.747 -0.0547 -0.1906  0.1691
  710MOL0     C95753   9.392   7.364   4.866  0.9640 -0.4082 -0.2493
  710MOL0     C95754   9.525   7.318   4.899 -0.1694 -0.7543 -0.6923
  710MOL0     C95755   9.528   7.214   5.016  0.0521  0.3648 -0.6624
  710MOL0     C95756   9.660   7.156   5.063 -0.8273  1.0071 -0.3095
  710MOL0     C95757   9.779   7.250   5.053 -0.5829 -1.0305  0.0764
  710MOL0     C95758   9.915   7.171   5.069  0.4047  0.2115 -0.1619
  710MOL0    Cl95759   9.943   7.127   5.233  0.2843 -0.6364  0.2851
  710MOL0     C95760   9.211   7.892   4.767 -1.2228  0.2070  0.7055
  710MOL0     C95761   9.115   7.985   4.742 -0.2710  0.7242  0.5156
  710MOL0     O95762   8.729   8.008   4.697  0.1603  0.1002  0.8603
  710MOL0     C95763   8.597   8.228   4.576 -0.2259  0.3009 -0.7492
  710MOL0     C95764   8.532   8.327   4.517  0.4111  0.1251 -0.5311
  710MOL0     N95765   8.376   8.654   3.712 -0.3006 -0.1840  0.1424
  710MOL0     N95766   8.258   8.669   3.662 -0.8148  0.3586 -0.0843
  710MOL0     C95767   7.109   8.896   3.594  0.2364  0.3039  0.3664
  710MOL0     C95768   6.988   8.903   3.527  0.3747  0.1297 -0.5591
  710MOL0     C95769   6.667   9.065   3.235 -0.3291  1.2441 -0.5600
  710MOL0     C95770   6.566   8.992   3.309 -0.0727  1.0759  0.8322
  710MOL0     C95771   6.446   8.952   3.247  0.4457  0.2022  0.2652
  710MOL0     C95772   6.408   8.988   3.121  0.3136  0.5826  0.5997
  710MOL0     O95773   6.288   8.950   3.073 -0.0178 -0.0340  0.5248
  710MOL0     C95774   6.246   9.006   2.952 -0.2262  0.7955 -0.6087
  710MOL0     C95775   6.097   8.975   2.935  0.0142 -0.1361  0.9149
  710MOL0     C95776   6.004   9.037   3.028  0.3059 -1.1651 -0.1589
  710MOL0     C95777   6.002   9.189   3.048 -0.2395  0.0931  0.0435
  710MOL0     C95778   5.949   9.257   2.936  0.8390  0.3328 -0.6148
  710MOL0     C95779   5.896   9.292   2.833  0.2304 -0.1222 -0.1139
  710MOL0     C95780   6.508   9.061   3.042 -0.2803  0.3637  0.2564
  710MOL0     C95781   6.638   9.093   3.099  0.5458 -0.0134  0.0813
  710MOL0     C95782   6.743   9.158   3.019 -0.7134 -0.3202 -0.9130
  710MOL0     H95783   6.968   9.241   3.517  2.8617  1.1702  1.5185
  710MOL0     H95784   7.179   9.229   3.597 -0.3810  1.3970 -1.4801
  710MOL0     H95785   7.246   8.990   3.862  1.5167  0.4870  1.7103
  710MOL0     H95786   7.319   8.840   3.816 -0.5128  0.0444 -2.0407
  710MOL0     H95787   7.429   8.935   3.976  0.4537  0.9301  0.7454
  710MOL0     H95788   7.433   9.089   3.902 -1.1386 -0.6101  0.9401
  710MOL0     H95789   7.651   9.023   3.869 -2.5569  1.8699  0.1712
  710MOL0     H95790   7.571   8.956   3.721 -1.3395  1.6370  0.1152
  710MOL0     H95791   7.661   8.815   3.973  0.7679  1.8099 -0.0359
  710MOL0     H95792   7.545   8.739   3.862  2.1364 -3.2813  4.5322
  710MOL0     H95793   7.719   8.788   3.669 -3.3649  0.5414  0.2982
  710MOL0     H95794   7.825   8.834   3.800 -0.7333  0.2956 -0.7118
  710MOL0     H95795   7.780   8.604   3.919  1.3514 -0.1531 -0.2977
  710MOL0     H95796   7.707   8.564   3.759 -0.9801  2.8407 -0.7284
  710MOL0     H95797   7.917   8.588   3.649 -2.3112 -0.2546 -0.4660
  710MOL0     H95798   7.963   8.504   3.791 -3.4949 -1.4645 -2.4502
  710MOL0     H95799   8.006   8.767   3.683 -1.1797 -1.2633 -0.1105
  710MOL0     H95800   8.028   8.767   3.861  3.0287  0.1697 -0.0681
  710MOL0     H95801   8.193   8.605   3.986  1.1870  0.6279  0.5219
  710MOL0     H95802   8.502   8.490   3.907  1.7901 -0.9106  1.3888
  710MOL0     H95803   8.550   8.661   3.902 -0.1213  1.2897  3.1731
  710MOL0     H95804   8.437   8.717   4.122 -1.7201 -0.1458 -2.4210
  710MOL0     H95805   8.391   8.538   4.129  0.6167 -0.9319  0.8274
  710MOL0     H95806   8.670   8.652   4.096 -0.3490  0.8678  1.1777
  710MOL0     H95807   8.619   8.481   4.122 -1.1748 -0.2028  0.5687
  710MOL0     H95808   8.548   8.719   4.298 -0.4280  0.2029 -3.7603
  710MOL0     H95809   8.702   8.627   4.331  0.6727 -1.4444 -1.1395
  710MOL0     H95810   8.784   8.448   4.335 -2.5690 -3.0337 -3.3725
  710MOL0     H95811   8.915   8.264   4.452 -1.2213  0.9093 -3.2370
  710MOL0     H95812   8.890   7.815   4.560 -4.4359  2.6601  2.7556
  710MOL0     H95813   9.045   7.620   4.633  2.7102  0.1922  1.4959
  710MOL0     H95814   9.177   7.485   4.784 -0.4710 -0.0235 -0.0076
  710MOL0     H95815   9.230   7.528   4.618  0.8609  3.8880 -0.8653
  710MOL0     H95816   9.428   7.395   4.660  3.3272  0.3069  0.9939
  710MOL0     H95817   9.476   7.523   4.762 -1.9631  1.5252  3.5921
  710MOL0     H95818   9.351   7.418   4.952  0.8485 -0.5083 -0.2407
  710MOL0     H95819   9.312   7.295   4.838  0.1720 -0.7819  2.6549
  710MOL0     H95820   9.586   7.405   4.925 -0.5002 -0.9205  0.7243
  710MOL0     H95821   9.559   7.256   4.816  0.4505 -3.4440  1.4345
  710MOL0     H95822   9.450   7.141   4.998 -0.5658  0.4183  1.5041
  710MOL0     H95823   9.490   7.262   5.107  0.7973 -2.3854  1.2048
  710MOL0     H95824   9.643   7.127   5.167 -2.2897  4.2036  0.4630
  710MOL0     H95825   9.683   7.063   5.011  0.6524  0.7594  0.7062
  710MOL0     H95826   9.767   7.332   5.125  0.2064 -0.6879 -0.1786
  710MOL0     H95827   9.772   7.309   4.961 -2.9618 -1.9867 -0.4366
  710MOL0     H95828   9.909   7.081   5.006 -0.9714  0.2128 -0.0792
  710MOL0     H95829   9.996   7.233   5.030  1.5801 -2.9629 -3.4055
  710MOL0     H95830   9.302   7.906   4.824  1.4029  0.6079 -3.2397
  710MOL0     H95831   9.130   8.086   4.780  1.2161  0.2947  1.1459
  710MOL0     H95832   8.534   8.165   4.640 -3.0356  3.9634  0.4365
  710MOL0     H95833   8.426   8.342   4.539  1.0702  0.7792  2.8536
  710MOL0     H95834   7.166   8.803   3.591 -0.9759 -0.4610  0.4825
  710MOL0     H95835   6.929   8.816   3.500  2.0663 -0.8044 -1.3810
  710MOL0     H95836   6.575   8.953   3.409 -1.9709 -0.0263  0.6270
  710MOL0     H95837   6.376   8.881   3.292 -0.7649 -0.2705 -2.2213
  710MOL0     H95838   6.295   8.966   2.863  0.4232 -0.0269  0.0991
  710MOL0     H95839   6.244   9.115   2.959 -1.5602  0.8955 -2.0958
  710MOL0     H95840   6.086   8.866   2.940  1.1172 -0.3093  0.1190
  710MOL0     H95841   6.078   9.012   2.835  1.9541  1.0439  0.9290
  710MOL0     H95842   6.017   8.992   3.127 -1.9460  0.9168  1.1939
  710MOL0     H95843   5.901   9.012   3.002 -0.1127 -2.1681  2.1779
  710MOL0     H95844   5.949   9.213   3.141 -0.3696  2.4125 -0.5752
  710MOL0     H95845   6.106   9.221   3.061  0.3249 -1.8832  0.8119
  710MOL0     H95846   5.848   9.311   2.739  1.8156 -0.0491 -0.9368
  710MOL0     H95847   6.487   9.090   2.940  0.5000  4.2990  1.0482
  710MOL0     H95848   6.839   9.106   3.021 -0.7817 -0.4355 -0.5457
  710MOL0     H95849   6.735   9.175   2.912  3.5847  0.4000 -1.3075
  710MOL0     H95850   6.761   9.254   3.067  0.9664 -0.5955 -0.9497
  711MOL0     O95851   3.122   4.330   7.027  0.7129  0.4653 -0.2187
  711MOL0     C95852   3.043   4.415   7.072  0.4238 -0.1506  0.9801
  711MOL0     O95853   3.067   4.548   7.088  0.5065 -0.3409 -0.5686
  711MOL0     C95854   3.195   4.591   7.085 -0.4599  0.3653 -0.1391
  711MOL0     C95855   3.224   4.713   7.017 -0.1836 -1.6464 -0.6643
  711MOL0     C95856   3.354   4.768   7.020 -0.1049 -0.6976  0.3267
  711MOL0     C95857   3.456   4.689   7.076  0.8565 -0.5532  1.0285
  711MOL0     O95858   3.588   4.721   7.061 -0.1751  0.0410  0.7025
  711MOL0     C95859   3.637   4.810   6.956 -0.1555 -0.5844  0.0644
  711MOL0     C95860   3.782   4.803   6.954 -0.2707  0.9430 -0.6860
  711MOL0     C95861   3.854   4.883   6.842  0.3132  0.2577  0.3714
  711MOL0     C95862   4.005   4.852   6.844  0.7623 -0.4987  0.9693
  711MOL0     C95863   4.079   4.940   6.743 -0.4037 -1.0544 -0.1344
  711MOL0     C95864   4.230   4.895   6.742 -0.1103 -0.3657  0.6665
  711MOL0     C95865   4.332   4.918   6.862  0.8054  0.8029  1.1684
  711MOL0     C95866   4.344   5.069   6.899  0.6947  0.4141 -0.2856
  711MOL0     N95867   4.485   5.086   6.949  0.5258  0.1407 -0.0217
  711MOL0     C95868   4.518   5.108   7.080  0.3706  0.5831 -0.3469
  711MOL0     C95869   4.646   5.115   7.070 -0.2969 -0.5196 -0.5637
  711MOL0     C95870   4.724   5.122   7.194 -0.4232 -0.4222  0.0361
  711MOL0     C95871   4.728   4.986   7.260 -0.1479  0.8396  1.0888
  711MOL0     C95872   4.828   4.893   7.174 -0.6797  0.4559  0.4433
  711MOL0     C95873   4.868   4.767   7.251 -0.2063  0.8100  0.1217
  711MOL0     O95874   4.932   4.812   7.376  0.3466 -0.8693 -0.1221
  711MOL0     C95875   5.064   4.829   7.383  0.2760  0.0239 -0.6248
  711MOL0     C95876   5.123   4.830   7.515 -0.5007 -0.5833  0.5077
  711MOL0     C95877   5.266   4.846   7.535  0.5614 -0.8208 -0.9417
  711MOL0     C95878   5.355   4.877   7.433 -0.2599  0.3435 -0.0957
  711MOL0     C95879   5.499   4.900   7.459  0.0506 -0.4301  0.1748
  711MOL0     O95880   5.574   4.913   7.352 -0.2894  0.4397  0.0915
  711MOL0     C95881   5.704   4.971   7.366  0.2685 -0.4287  0.0769
  711MOL0     C95882   5.771   4.968   7.236  0.9569 -0.2701 -0.2338
  711MOL0     C95883   5.890   5.025   7.222 -0.2640  0.0858  0.1163
  711MOL0     C95884   5.942   5.115   7.325 -0.5251  0.5481  0.4864
  711MOL0     O95885   6.064   5.178   7.314 -0.1400 -0.1990  0.2427
  711MOL0     C95886   6.180   5.107   7.273  1.0084 -0.7492 -0.8997
  711MOL0     C95887   6.302   5.192   7.289 -0.6838 -0.2615  0.7704
  711MOL0     C95888   6.309   5.267   7.420  0.5835  0.4659  0.5818
  711MOL0     C95889   6.451   5.296   7.457  0.5639  0.9138  0.2554
  711MOL0     C95890   6.474   5.377   7.579  0.5151  0.0716  0.0508
  711MOL0     C95891   6.624   5.402   7.623  0.0461  0.4027  0.5965
  711MOL0     C95892   6.645   5.448   7.773 -0.0257  0.5254  0.1674
  711MOL0     C95893   6.779   5.406   7.838 -0.4298 -1.4912 -0.2478
  711MOL0    Cl95894   6.914   5.482   7.735  0.0328  0.0651 -0.3544
  711MOL0     C95895   5.884   5.107   7.452  0.7033 -0.1804 -0.0880
  711MOL0     C95896   5.761   5.040   7.469  0.7736 -0.3630  0.6617
  711MOL0     O95897   5.535   4.905   7.580 -0.8612  0.3297 -0.1964
  711MOL0     C95898   5.294   4.888   7.300  0.0355 -0.1521  0.3195
  711MOL0     C95899   5.155   4.862   7.280  0.5570  0.0757 -1.0498
  711MOL0     N95900   4.690   5.079   6.944 -0.3269  0.3133 -0.0907
  711MOL0     N95901   4.592   5.064   6.877 -0.0109  0.0247 -0.0342
  711MOL0     C95902   3.428   4.570   7.139  0.4945  1.7221  0.1954
  711MOL0     C95903   3.303   4.525   7.151  0.9852  0.9612  0.3585
  711MOL0     C95904   2.906   4.371   7.118  0.7819  0.2140  0.4472
  711MOL0     C95905   2.848   4.451   7.215  1.3497 -0.2206 -0.5250
  711MOL0     C95906   2.729   4.415   7.276  0.1630  0.3815  1.2093
  711MOL0     C95907   2.661   4.292   7.244 -0.8536  0.0382  0.9757
  711MOL0     O95908   2.542   4.261   7.305 -0.2301 -0.1083  0.5971
  711MOL0     C95909   2.514   4.299   7.434 -0.7991  0.0731 -0.8068
  711MOL0     C95910   2.381   4.227   7.471  0.3336 -0.3812  0.0311
  711MOL0     C95911   2.326   4.275   7.610 -0.0009 -0.5757 -0.1963
  711MOL0     C95912   2.196   4.211   7.649 -0.4091  0.0924  0.3273
  711MOL0     C95913   2.204   4.068   7.697  0.5440  0.3223  0.2057
  711MOL0     C95914   2.187   3.962   7.752 -0.7915 -0.1602 -0.6877
  711MOL0     C95915   2.707   4.228   7.134  0.0372  0.9539 -0.2958
  711MOL0     C95916   2.824   4.267   7.064 -0.2283 -1.0658 -0.5105
  711MOL0     C95917   2.844   4.189   6.939  0.6508  0.4586 -0.0947
  711MOL0     H95918   3.143   4.764   6.966  1.5893  3.0443  0.7692
  711MOL0     H95919   3.392   4.857   6.972 -0.0929 -0.5758  0.5607
  711MOL0     H95920   3.600   4.793   6.855 -2.0827  0.1868  0.5994
  711MOL0     H95921   3.615   4.910   6.995  1.1122  0.3025 -1.3564
  711MOL0     H95922   3.795   4.696   6.937 -3.7477  0.4580 -1.0574
  711MOL0     H95923   3.815   4.840   7.052  0.8392 -1.6848 -0.0029
  711MOL0     H95924   3.836   4.985   6.876 -0.1390  0.1097  0.5850
  711MOL0     H95925   3.813   4.864   6.742  0.6280 -0.5294  0.3853
  711MOL0     H95926   4.058   4.857   6.939  2.4604  1.0343 -0.0124
  711MOL0     H95927   4.018   4.747   6.813  0.1562 -0.0709 -0.9014
  711MOL0     H95928   4.036   4.917   6.645 -1.3477 -1.9227  0.4590
  711MOL0     H95929   4.070   5.047   6.762  0.9156 -1.0602  0.6616
  711MOL0     H95930   4.233   4.788   6.717 -2.0185 -0.6879  1.6278
  711MOL0     H95931   4.279   4.946   6.659  1.0836 -1.0989  0.8861
  711MOL0     H95932   4.428   4.878   6.827  1.4359  1.7216  1.8019
  711MOL0     H95933   4.312   4.851   6.946 -0.7695  0.3213  0.4533
  711MOL0     H95934   4.326   5.125   6.807 -0.1560  1.8255  0.7024
  711MOL0     H95935   4.276   5.104   6.977 -2.7266  0.0856 -2.8322
  711MOL0     H95936   4.456   5.121   7.167  3.1884 -1.6554  2.2096
  711MOL0     H95937   4.829   5.151   7.181  0.3803 -2.8909  0.4914
  711MOL0     H95938   4.671   5.196   7.255  1.5234  0.0439  1.2395
  711MOL0     H95939   4.762   4.991   7.364 -0.3081 -1.7779  1.3371
  711MOL0     H95940   4.631   4.937   7.274  0.2961 -0.9367 -1.3712
  711MOL0     H95941   4.924   4.946   7.170  0.5827 -1.7030  0.9454
  711MOL0     H95942   4.780   4.867   7.079  0.6741  0.9280 -0.3965
  711MOL0     H95943   4.939   4.709   7.191 -0.1063  0.7645  0.2834
  711MOL0     H95944   4.780   4.702   7.250  0.5496 -0.2613 -0.9660
  711MOL0     H95945   5.058   4.819   7.601  0.9952 -0.5978  1.6746
  711MOL0     H95946   5.299   4.835   7.638 -0.5064  0.8304 -0.3703
  711MOL0     H95947   5.735   4.924   7.144  1.7946  0.7391 -1.0799
  711MOL0     H95948   5.942   5.033   7.127 -0.3239  0.5592  0.1181
  711MOL0     H95949   6.174   5.017   7.334 -2.3994  0.7154  1.2561
  711MOL0     H95950   6.164   5.097   7.165 -2.9040 -0.2172 -0.5434
  711MOL0     H95951   6.387   5.126   7.276 -0.9688 -1.1758  3.0896
  711MOL0     H95952   6.298   5.273   7.216  1.4013  0.6654  1.5914
  711MOL0     H95953   6.260   5.364   7.406 -1.0161 -0.3035  0.5708
  711MOL0     H95954   6.262   5.216   7.505 -0.6282 -0.7365 -0.7559
  711MOL0     H95955   6.508   5.330   7.370 -0.6769  1.4578 -0.3649
  711MOL0     H95956   6.489   5.195   7.479 -1.1587  0.5708  1.8704
  711MOL0     H95957   6.421   5.336   7.665  0.0164 -0.0798 -0.3263
  711MOL0     H95958   6.430   5.475   7.557  2.9425  1.8388  2.4482
  711MOL0     H95959   6.683   5.315   7.592 -0.6981  0.4268 -0.9922
  711MOL0     H95960   6.652   5.488   7.563 -0.9695  1.0621  1.0297
  711MOL0     H95961   6.566   5.396   7.828 -0.9923  1.1202 -0.6373
  711MOL0     H95962   6.638   5.557   7.770  0.5303  0.5494 -1.8813
  711MOL0     H95963   6.772   5.459   7.933  0.3730  1.0788 -1.5309
  711MOL0     H95964   6.796   5.299   7.853 -1.5452 -1.7167 -0.4429
  711MOL0     H95965   5.931   5.166   7.530 -1.0389 -0.5722  1.3266
  711MOL0     H95966   5.699   5.050   7.557  0.0447 -1.4140  0.2872
  711MOL0     H95967   5.368   4.888   7.220 -1.8837  2.5047 -1.5924
  711MOL0     H95968   5.133   4.855   7.174 -1.2616 -0.1592 -0.6931
  711MOL0     H95969   3.515   4.520   7.178  1.1233  1.1696 -1.7909
  711MOL0     H95970   3.276   4.433   7.202  0.5567  1.1732  0.5165
  711MOL0     H95971   2.879   4.550   7.247 -3.1750  2.1575 -2.5657
  711MOL0     H95972   2.697   4.472   7.363 -0.3142 -1.0110  1.9747
  711MOL0     H95973   2.497   4.407   7.439 -1.0766  0.0569 -1.3568
  711MOL0     H95974   2.589   4.269   7.508 -0.1378  0.2677 -1.3893
  711MOL0     H95975   2.383   4.118   7.471 -1.0538 -0.4309 -0.8519
  711MOL0     H95976   2.304   4.254   7.398  1.3889  2.3873 -0.1667
  711MOL0     H95977   2.317   4.383   7.597  0.8259 -0.7033 -2.0924
  711MOL0     H95978   2.398   4.256   7.690 -0.8367  0.4000  0.8308
  711MOL0     H95979   2.158   4.270   7.733 -2.3961 -0.6040 -0.0222
  711MOL0     H95980   2.129   4.219   7.563  0.8823  0.3153 -0.6854
  711MOL0     H95981   2.193   3.863   7.794  1.6832 -0.2898 -1.1968
  711MOL0     H95982   2.644   4.155   7.085  0.6700  1.5900 -2.1398
  711MOL0     H95983   2.937   4.212   6.886  2.3184  0.8982  2.8206
  711MOL0     H95984   2.836   4.085   6.970 -2.1239  0.5849 -0.1279
  711MOL0     H95985   2.771   4.221   6.864 -0.0222  2.8673  1.4689
  712MOL0     O95986   7.369   4.963   6.605  0.3863  0.7210  0.1270
  712MOL0     C95987   7.430   5.066   6.570  0.6860  0.8535 -0.1684
  712MOL0     O95988   7.557   5.066   6.537  0.7747  0.1337  0.2556
  712MOL0     C95989   7.649   4.970   6.584 -0.0225 -0.7262 -0.6594
  712MOL0     C95990   7.629   4.891   6.696  0.5308  0.0783 -0.2025
  712MOL0     C95991   7.721   4.786   6.736  1.0515 -0.9794 -0.0453
  712MOL0     C95992   7.826   4.757   6.660  1.0342  0.5119 -0.0775
  712MOL0     O95993   7.883   4.634   6.676 -0.5247 -0.1326 -0.2405
  712MOL0     C95994   7.956   4.583   6.569  0.4756  0.2978 -0.0833
  712MOL0     C95995   8.011   4.446   6.593  0.4050 -0.3432  0.1320
  712MOL0     C95996   8.101   4.452   6.718 -0.5403  0.0611 -0.5522
  712MOL0     C95997   8.171   4.309   6.737  0.1421  0.2300 -0.7851
  712MOL0     C95998   8.271   4.314   6.856 -0.4091 -0.7402  0.6379
  712MOL0     C95999   8.357   4.189   6.880 -0.4642 -0.9004  0.0162
  712MOL0     C96000   8.266   4.072   6.925 -0.5666  0.3254  0.1580
  712MOL0     C96001   8.311   4.018   7.064 -0.6292 -0.7237 -0.1083
  712MOL0     N96002   8.414   3.911   7.054 -0.2085 -0.4040 -0.3807
  712MOL0     C96003   8.516   3.910   6.960 -0.3196 -0.1631  0.1084
  712MOL0     C96004   8.590   3.797   6.989 -0.2631 -0.4699 -0.0061
  712MOL0     C96005   8.700   3.749   6.898  1.3256  0.2490  0.0750
  712MOL0     C96006   8.832   3.827   6.895 -0.1544 -0.6900  0.4248
  712MOL0     C96007   8.890   3.847   7.039 -0.0712  0.2313  0.6552
  712MOL0     C96008   9.032   3.890   7.044 -0.1604  0.6896 -0.0669
  712MOL0     O96009   9.127   3.792   7.001  0.0588  0.5641 -0.6606
  712MOL0     C96010   9.263   3.816   7.019 -1.0126  0.1442  0.3949
  712MOL0     C96011   9.325   3.914   7.093  0.8349 -0.7633  0.2879
  712MOL0     C96012   9.465   3.927   7.102 -0.0587 -0.6783  1.2266
  712MOL0     C96013   9.546   3.824   7.046 -0.0492 -1.4292  0.2530
  712MOL0     C96014   9.693   3.843   7.053 -0.6222  0.1461 -0.3665
  712MOL0     O96015   9.743   3.967   7.103  0.1322  0.8351 -0.1804
  712MOL0     C96016   9.874   3.994   7.106 -0.7049  0.4780 -0.1599
  712MOL0     C96017   9.946   3.995   7.228  0.0336  0.4148 -0.4756
  712MOL0     C96018  10.080   4.031   7.230  0.4278 -0.1379  0.9844
  712MOL0     C96019  10.145   4.071   7.109  0.3504  0.1174  0.2151
  712MOL0     O96020  10.278   4.098   7.104  0.0534 -0.1775  0.3438
  712MOL0     C96021  10.351   4.029   7.204  0.1162  0.3263  0.3822
  712MOL0     C96022  10.495   4.019   7.142  0.0857  0.4647  0.3149
  712MOL0     C96023  10.508   3.933   7.017 -0.1551  0.1560 -1.1274
  712MOL0     C96024  10.640   3.978   6.938 -0.1120 -0.0287  0.3611
  712MOL0     C96025  10.761   3.901   7.014  0.0095 -0.8215  0.6585
  712MOL0     C96026  10.894   3.907   6.938 -0.5244 -0.3625  0.2522
  712MOL0     C96027  10.998   3.836   7.025  0.0910  0.2496  0.1678
  712MOL0     C96028  11.139   3.844   6.967  0.2992 -0.8760 -0.2605
  712MOL0    Cl96029  11.153   3.762   6.802  0.0583  0.5149  0.2323
  712MOL0     C96030  10.079   4.058   6.991  0.8587 -0.9068 -0.6525
  712MOL0     C96031   9.944   4.017   6.986 -0.1320 -0.2965  0.2613
  712MOL0     O96032   9.763   3.742   7.027 -0.1106 -0.3008 -0.1359
  712MOL0     C96033   9.485   3.729   6.970  0.0255 -0.3567 -0.2820
  712MOL0     C96034   9.345   3.720   6.962 -0.1600  0.7682 -0.8326
  712MOL0     N96035   8.541   3.743   7.105 -0.0948  0.1597 -0.3750
  712MOL0     N96036   8.446   3.816   7.151 -1.1202 -0.4679  0.0262
  712MOL0     C96037   7.859   4.850   6.557 -0.2285  0.3569 -0.7065
  712MOL0     C96038   7.772   4.955   6.518 -0.0660  0.5759  0.2614
  712MOL0     C96039   7.357   5.192   6.538 -0.8797  0.1383  0.3470
  712MOL0     C96040   7.395   5.276   6.425  0.1022 -0.3566 -0.7016
  712MOL0     C96041   7.311   5.378   6.381 -0.3283  0.0053  0.0188
  712MOL0     C96042   7.193   5.409   6.453 -0.5452  0.4030 -0.8415
  712MOL0     O96043   7.093   5.494   6.407 -0.8149 -0.2777  0.1577
  712MOL0     C96044   7.127   5.571   6.294  0.3013  0.3677 -0.3210
  712MOL0     C96045   7.015   5.668   6.271 -0.4582 -0.7411 -0.5633
  712MOL0     C96046   7.024   5.792   6.360  1.1032  0.3167  0.5788
  712MOL0     C96047   7.138   5.883   6.328 -0.3786  0.3775  0.0346
  712MOL0     C96048   7.133   5.999   6.413  0.0531 -0.2805 -0.0702
  712MOL0     C96049   7.152   6.086   6.491  0.3631 -0.1585  0.6981
  712MOL0     C96050   7.168   5.336   6.573  0.6511 -0.0758  0.3351
  712MOL0     C96051   7.244   5.228   6.615  0.2043 -0.4562  1.0792
  712MOL0     C96052   7.193   5.165   6.745 -0.8361 -0.3951  0.3245
  712MOL0     H96053   7.545   4.911   6.762  0.5552  1.5189 -0.5802
  712MOL0     H96054   7.702   4.732   6.829 -3.0537 -0.6057 -0.4627
  712MOL0     H96055   7.895   4.584   6.478 -2.9961  2.4766  2.0885
  712MOL0     H96056   8.050   4.636   6.549 -0.2642  1.2133 -1.3092
  712MOL0     H96057   8.069   4.412   6.507  2.9043  0.3692  1.4287
  712MOL0     H96058   7.936   4.367   6.601  2.3323 -2.1399  1.5179
  712MOL0     H96059   8.034   4.477   6.801 -0.8226  0.4419 -0.8921
  712MOL0     H96060   8.167   4.538   6.710 -0.4877  0.2646  1.4765
  712MOL0     H96061   8.089   4.237   6.750 -0.4231  0.6697 -1.8242
  712MOL0     H96062   8.229   4.273   6.651  0.2769 -0.4337 -0.4228
  712MOL0     H96063   8.337   4.401   6.843 -0.5383 -0.5793  1.0488
  712MOL0     H96064   8.215   4.333   6.948  1.8550 -1.1154  2.1688
  712MOL0     H96065   8.421   4.167   6.794 -0.8545  3.1574 -1.5459
  712MOL0     H96066   8.431   4.208   6.958  1.2223  1.6140 -2.0455
  712MOL0     H96067   8.257   3.989   6.855  1.3941 -1.5037  1.9201
  712MOL0     H96068   8.161   4.105   6.931 -0.8685 -0.3871 -1.0013
  712MOL0     H96069   8.349   4.088   7.138  1.0222 -2.2189  0.5375
  712MOL0     H96070   8.229   3.963   7.111 -1.0702 -1.8566 -2.0661
  712MOL0     H96071   8.530   3.979   6.878 -1.5711 -0.5902 -0.4858
  712MOL0     H96072   8.719   3.644   6.922  3.0434  0.8156  1.3394
  712MOL0     H96073   8.666   3.757   6.794  2.8584 -2.5301 -0.7604
  712MOL0     H96074   8.905   3.781   6.827  0.1424 -0.3960  0.5398
  712MOL0     H96075   8.801   3.926   6.860  0.6869 -0.7764 -0.6359
  712MOL0     H96076   8.887   3.750   7.090  0.8647 -1.8719 -2.9494
  712MOL0     H96077   8.833   3.918   7.099 -0.3020 -2.0532  3.3188
  712MOL0     H96078   9.045   3.922   7.147 -2.5099 -1.0144  0.8429
  712MOL0     H96079   9.040   3.989   6.998  0.4073  1.6559  2.0048
  712MOL0     H96080   9.262   3.986   7.146 -0.9556 -2.7959  1.0789
  712MOL0     H96081   9.508   4.014   7.150 -0.9403  1.7741 -2.0247
  712MOL0     H96082   9.882   3.976   7.313  0.3738 -0.2279 -0.3582
  712MOL0     H96083  10.125   4.044   7.327  0.3046 -0.4767  1.0914
  712MOL0     H96084  10.344   4.080   7.301  0.2890 -0.5602  0.8745
  712MOL0     H96085  10.316   3.925   7.212  1.0672 -0.4877 -3.7497
  712MOL0     H96086  10.547   4.115   7.138  0.9370 -0.0189 -1.0571
  712MOL0     H96087  10.557   3.957   7.207 -0.0034 -0.8374 -0.7937
  712MOL0     H96088  10.503   3.824   7.015 -1.9314  0.2008 -2.6127
  712MOL0     H96089  10.431   3.970   6.949 -1.2248  2.5426  1.2021
  712MOL0     H96090  10.658   4.086   6.940  0.5563 -0.0877 -1.1682
  712MOL0     H96091  10.632   3.943   6.835  1.9076 -0.2941  0.2525
  712MOL0     H96092  10.736   3.797   7.034 -0.3920 -0.9298 -0.3467
  712MOL0     H96093  10.770   3.963   7.104  1.6736 -0.9232  0.6032
  712MOL0     H96094  10.865   3.866   6.841 -3.8161  1.5516  0.2889
  712MOL0     H96095  10.921   4.012   6.930  0.6983 -0.3662  3.0397
  712MOL0     H96096  10.970   3.730   7.023  1.9191 -0.2519 -0.5600
  712MOL0     H96097  11.005   3.877   7.126 -0.0987  4.2152 -1.2364
  712MOL0     H96098  11.168   3.949   6.956 -2.0767 -0.2888 -1.7508
  712MOL0     H96099  11.211   3.804   7.038  0.2769  2.9424  2.1670
  712MOL0     H96100  10.110   4.061   6.888 -2.3355 -2.1026 -1.7653
  712MOL0     H96101   9.895   4.006   6.890  0.7937 -0.0532 -0.2501
  712MOL0     H96102   9.551   3.663   6.914  0.6116  1.7906 -2.2588
  712MOL0     H96103   9.305   3.639   6.902  1.3364 -0.0476 -0.7857
  712MOL0     H96104   7.947   4.832   6.497 -0.2286 -0.7807 -0.3869
  712MOL0     H96105   7.814   5.009   6.434 -1.2432  0.6899 -0.2656
  712MOL0     H96106   7.484   5.240   6.376  0.7337 -1.0440  0.8706
  712MOL0     H96107   7.344   5.434   6.294  0.5048 -2.5017 -1.3522
  712MOL0     H96108   7.133   5.506   6.206 -1.1314  0.4404 -0.5013
  712MOL0     H96109   7.223   5.621   6.311  0.3696 -0.1754  1.0782
  712MOL0     H96110   6.915   5.624   6.277 -0.9835 -0.0873 -3.1229
  712MOL0     H96111   7.010   5.699   6.166 -0.4280 -0.7926 -0.5807
  712MOL0     H96112   7.027   5.760   6.464  0.9488 -2.0288 -0.0717
  712MOL0     H96113   6.928   5.843   6.351  1.0318  0.2154  0.7600
  712MOL0     H96114   7.233   5.833   6.350 -0.7456  0.4768  2.1017
  712MOL0     H96115   7.131   5.915   6.224  3.0503 -0.9652 -0.7513
  712MOL0     H96116   7.177   6.159   6.566  0.6105 -0.2540  0.7101
  712MOL0     H96117   7.075   5.359   6.623  0.8785 -2.5568  2.0251
  712MOL0     H96118   7.248   5.212   6.827 -1.3194 -2.1170  1.7044
  712MOL0     H96119   7.096   5.212   6.764  0.5336  3.2951 -0.9172
  712MOL0     H96120   7.183   5.056   6.751 -1.4858 -0.2870  2.0597
  713MOL0     O96121   2.345   0.017   3.179  0.1456 -0.4221 -0.2547
  713MOL0     C96122   2.439  -0.007   3.105  0.5408 -0.3548  0.3433
  713MOL0     O96123   2.560  -0.063   3.133 -0.6050 -1.0600  0.1351
  713MOL0     C96124   2.590  -0.130   3.251  0.3204  0.5403 -1.1112
  713MOL0     C96125   2.488  -0.198   3.321 -1.0577  0.0706  0.3887
  713MOL0     C96126   2.512  -0.252   3.446  0.2371 -0.3548 -0.0677
  713MOL0     C96127   2.645  -0.257   3.498 -0.3973 -0.4741  0.1218
  713MOL0     O96128   2.670  -0.298   3.621 -0.3169 -0.3709 -0.3763
  713MOL0     C96129   2.711  -0.436   3.622  0.3953  0.4613 -0.2562
  713MOL0     C96130   2.784  -0.487   3.745  0.6255  0.7401  0.0452
  713MOL0     C96131   2.907  -0.419   3.788 -0.1213  0.5814  0.1190
  713MOL0     C96132   2.881  -0.289   3.858 -0.5354 -0.2959  0.4456
  713MOL0     C96133   3.019  -0.220   3.877  0.0122 -0.3208  0.6149
  713MOL0     C96134   3.015  -0.090   3.955  0.3285  0.4796  0.2879
  713MOL0     C96135   3.159  -0.040   3.967  0.2671 -0.5954 -0.4554
  713MOL0     C96136   3.165   0.083   4.057 -0.5209 -0.0237 -0.4413
  713MOL0     N96137   3.294   0.149   4.070  0.0844 -0.5631 -0.4100
  713MOL0     C96138   3.419   0.103   4.121  0.4650 -0.7577 -1.1304
  713MOL0     C96139   3.502   0.215   4.108  0.3174 -0.4729 -0.6738
  713MOL0     C96140   3.650   0.236   4.135  0.2609 -0.4010 -0.0061
  713MOL0     C96141   3.674   0.352   4.232  0.1122 -0.4344  0.1100
  713MOL0     C96142   3.815   0.393   4.275 -0.7727 -0.3612  0.6720
  713MOL0     C96143   3.930   0.366   4.168  0.2500 -0.5669 -0.6053
  713MOL0     O96144   3.951   0.222   4.167 -0.1347  0.2391  0.1765
  713MOL0     C96145   4.081   0.174   4.140 -0.4836 -0.0705  0.6663
  713MOL0     C96146   4.203   0.240   4.176  0.7482  0.0768 -0.3678
  713MOL0     C96147   4.331   0.182   4.158  0.9339 -0.4681 -0.0164
  713MOL0     C96148   4.337   0.051   4.101 -1.8077 -0.2617 -0.2749
  713MOL0     C96149   4.465  -0.017   4.070 -0.4803 -0.0938 -0.0244
  713MOL0     O96150   4.573   0.041   4.126 -0.1440  0.0913 -0.4172
  713MOL0     C96151   4.698   0.005   4.092 -1.1001 -0.9007  0.1909
  713MOL0     C96152   4.752  -0.003   3.959  0.0002 -0.2795  0.3115
  713MOL0     C96153   4.895  -0.027   3.950  0.5338 -0.7202 -0.6587
  713MOL0     C96154   4.978  -0.060   4.063 -0.6897 -0.7078  0.2671
  713MOL0     O96155   5.110  -0.094   4.057 -0.7585  0.2634 -0.0022
  713MOL0     C96156   5.192  -0.019   3.972 -0.5651  0.2712 -0.4919
  713MOL0     C96157   5.344  -0.036   3.988  1.3893 -0.9659  0.6472
  713MOL0     C96158   5.416  -0.018   3.850  0.3748 -0.2889  0.0510
  713MOL0     C96159   5.566  -0.025   3.849  0.5513  0.4216 -0.2887
  713MOL0     C96160   5.621   0.023   3.713 -0.0090  0.4272  0.2384
  713MOL0     C96161   5.776  -0.001   3.697  0.0796 -0.6753  0.3552
  713MOL0     C96162   5.825   0.004   3.553 -0.3868  0.2548 -0.1392
  713MOL0     C96163   5.977   0.022   3.546 -0.0343 -0.1201 -0.7094
  713MOL0    Cl96164   6.054   0.157   3.627 -0.1015 -0.1729 -0.0629
  713MOL0     C96165   4.919  -0.060   4.183 -0.7712 -0.2341  0.3511
  713MOL0     C96166   4.781  -0.033   4.199  0.3185 -0.4335  0.2372
  713MOL0     O96167   4.470  -0.115   4.003  0.2046 -0.4211 -0.2288
  713MOL0     C96168   4.221  -0.009   4.061  0.0115 -0.0741  0.1884
  713MOL0     C96169   4.096   0.049   4.087 -0.4945 -0.1711 -0.1488
  713MOL0     N96170   3.427   0.319   4.056  0.5425 -0.6002  0.1996
  713MOL0     N96171   3.310   0.282   4.035 -0.9291  0.2269 -0.0036
  713MOL0     C96172   2.747  -0.196   3.424 -0.5839  0.1537  0.6531
  713MOL0     C96173   2.721  -0.134   3.303  0.0205 -0.4589 -0.1798
  713MOL0     C96174   2.411   0.031   2.962 -0.8035  0.2136 -0.2056
  713MOL0     C96175   2.329   0.141   2.928  0.6918  0.0922 -0.4911
  713MOL0     C96176   2.300   0.165   2.798  0.3377  1.1761 -0.1501
  713MOL0     C96177   2.372   0.107   2.699  0.2307  0.5802  0.4833
  713MOL0     O96178   2.339   0.149   2.572 -0.4232  0.7483 -0.0541
  713MOL0     C96179   2.458   0.165   2.486 -0.5607  0.1278 -0.5757
  713MOL0     C96180   2.433   0.269   2.373  0.1010  0.7011 -0.2153
  713MOL0     C96181   2.554   0.305   2.291 -0.6736  0.4424 -0.0088
  713MOL0     C96182   2.543   0.433   2.201 -0.2274  0.0975 -0.6407
  713MOL0     C96183   2.457   0.540   2.251 -0.8507  0.1421  0.7595
  713MOL0     C96184   2.393   0.640   2.293 -0.0344 -0.5771  0.4302
  713MOL0     C96185   2.460  -0.000   2.721  0.3562  0.2160  0.3280
  713MOL0     C96186   2.477  -0.036   2.856 -0.9324  0.5180  0.0046
  713MOL0     C96187   2.550  -0.161   2.873 -0.3340  0.1137 -1.0120
  713MOL0     H96188   2.391  -0.211   3.274  0.7015 -1.3923 -3.1125
  713MOL0     H96189   2.437  -0.294   3.512  0.2909  2.1243  1.7584
  713MOL0     H96190   2.621  -0.496   3.607  0.0053  0.9371  0.1461
  713MOL0     H96191   2.784  -0.448   3.542  2.5815  5.9905  0.4686
  713MOL0     H96192   2.814  -0.588   3.715 -2.1914  0.2979 -1.6911
  713MOL0     H96193   2.707  -0.496   3.823 -0.3507  1.4578 -0.8093
  713MOL0     H96194   2.972  -0.402   3.702  0.9321 -1.3534  0.4802
  713MOL0     H96195   2.965  -0.483   3.854  0.8400 -0.3193 -1.5303
  713MOL0     H96196   2.822  -0.219   3.798 -1.5161  0.6178  2.3874
  713MOL0     H96197   2.820  -0.302   3.948 -3.2906 -1.3826 -1.4530
  713MOL0     H96198   3.082  -0.291   3.932 -1.3844 -1.9330  0.2053
  713MOL0     H96199   3.070  -0.205   3.781 -0.1683 -1.4618  0.3319
  713MOL0     H96200   2.955  -0.023   3.893  0.4663  1.9661  1.6857
  713MOL0     H96201   2.969  -0.111   4.052  0.2865  0.2961  0.2298
  713MOL0     H96202   3.201  -0.023   3.867  1.5316 -1.0206 -0.0166
  713MOL0     H96203   3.230  -0.111   4.010 -0.7712 -2.1125 -1.1796
  713MOL0     H96204   3.100   0.157   4.009  0.4575  0.3477 -1.2352
  713MOL0     H96205   3.125   0.068   4.157 -3.3971  1.2168 -1.3059
  713MOL0     H96206   3.439   0.000   4.149  1.5948 -1.0378 -2.7514
  713MOL0     H96207   3.681   0.139   4.178 -2.8660 -0.6036  2.1209
  713MOL0     H96208   3.707   0.263   4.046  0.6488  2.9183  1.1161
  713MOL0     H96209   3.626   0.439   4.185  0.6465 -1.6690 -2.9656
  713MOL0     H96210   3.619   0.317   4.320 -2.0862  2.6437  0.1247
  713MOL0     H96211   3.843   0.338   4.366  2.2622  0.1134  0.1363
  713MOL0     H96212   3.821   0.502   4.285  0.8371 -0.4243  0.6002
  713MOL0     H96213   4.019   0.416   4.206  0.5536 -1.6709  0.1553
  713MOL0     H96214   3.897   0.407   4.072 -1.1089  1.5486  0.6779
  713MOL0     H96215   4.198   0.338   4.221  2.8684 -0.7094  1.7741
  713MOL0     H96216   4.422   0.227   4.196 -0.4342  1.6563  0.9320
  713MOL0     H96217   4.691   0.009   3.870 -0.4483 -0.8950  0.5267
  713MOL0     H96218   4.952  -0.027   3.857  2.7465  0.8093  0.6022
  713MOL0     H96219   5.164  -0.047   3.870 -1.3031 -2.9147  0.4743
  713MOL0     H96220   5.159   0.085   3.985  0.4099  0.4689  0.5440
  713MOL0     H96221   5.379   0.041   4.057  1.2142  1.8689 -2.1658
  713MOL0     H96222   5.360  -0.138   4.024 -2.7490 -2.9236 -2.2052
  713MOL0     H96223   5.381  -0.095   3.781  1.2489 -0.3629 -0.3223
  713MOL0     H96224   5.379   0.074   3.803 -3.3522 -2.0158 -0.7933
  713MOL0     H96225   5.588  -0.132   3.853 -0.7736  0.0888 -1.1695
  713MOL0     H96226   5.610   0.022   3.937  2.2105 -0.5848 -0.5364
  713MOL0     H96227   5.599   0.128   3.695 -2.9358  0.2414  2.0507
  713MOL0     H96228   5.587  -0.037   3.628  2.6457  0.6562 -1.0926
  713MOL0     H96229   5.827   0.071   3.761 -0.2301  0.9574 -1.1712
  713MOL0     H96230   5.794  -0.101   3.739 -0.5124 -0.9768 -0.0954
  713MOL0     H96231   5.774   0.077   3.491  0.6948  1.0455 -0.1238
  713MOL0     H96232   5.808  -0.096   3.512  1.6005 -1.1633  2.1728
  713MOL0     H96233   6.008  -0.078   3.581 -2.5869 -1.8008 -2.8800
  713MOL0     H96234   6.005   0.027   3.440 -0.7427  1.4103 -0.8372
  713MOL0     H96235   4.978  -0.090   4.269  1.4019  0.5066 -0.8246
  713MOL0     H96236   4.743  -0.026   4.300 -2.5882  0.4305 -0.8022
  713MOL0     H96237   4.227  -0.111   4.024 -0.0130 -0.7657  1.9781
  713MOL0     H96238   4.017  -0.018   4.056 -0.0056  0.1619 -2.2721
  713MOL0     H96239   2.841  -0.197   3.477 -0.6016 -0.9523  0.6999
  713MOL0     H96240   2.797  -0.080   3.247 -0.6589  1.0986  0.3477
  713MOL0     H96241   2.280   0.187   3.013  0.0951 -4.1334  1.7603
  713MOL0     H96242   2.236   0.250   2.777  2.0593  2.6293  0.2241
  713MOL0     H96243   2.471   0.064   2.444 -3.1777 -0.4300 -0.2444
  713MOL0     H96244   2.546   0.197   2.542 -1.6775  3.2745 -0.4552
  713MOL0     H96245   2.387   0.352   2.427 -2.0556  0.0524 -0.9544
  713MOL0     H96246   2.351   0.235   2.310 -1.0778 -0.1049  1.6473
  713MOL0     H96247   2.583   0.224   2.223  1.5536  1.5052 -0.3943
  713MOL0     H96248   2.638   0.327   2.358 -1.7595  1.3689  1.0793
  713MOL0     H96249   2.647   0.465   2.200  0.0816 -0.8724 -0.6990
  713MOL0     H96250   2.522   0.402   2.098  0.6255 -2.5676 -0.0998
  713MOL0     H96251   2.357   0.731   2.337  0.5561  1.9301 -3.7066
  713MOL0     H96252   2.506  -0.057   2.641 -1.7301  0.4436 -1.1005
  713MOL0     H96253   2.505  -0.214   2.957 -0.1723  0.1805 -0.8816
  713MOL0     H96254   2.550  -0.231   2.788  2.5998  0.9707 -1.8458
  713MOL0     H96255   2.656  -0.134   2.886 -0.2316 -0.3527 -0.8700
  714MOL0     O96256   2.617   7.505   5.201  0.5307  0.3878  0.1445
  714MOL0     C96257   2.629   7.455   5.090  0.2339  0.7301  0.3405
  714MOL0     O96258   2.725   7.492   5.002  0.4016 -0.4767 -0.2693
  714MOL0     C96259   2.845   7.538   5.042 -0.1173 -0.0949  0.3675
  714MOL0     C96260   2.913   7.506   5.164  0.1827 -0.3625  0.1254
  714MOL0     C96261   3.036   7.559   5.187  0.5933 -0.7838 -0.7292
  714MOL0     C96262   3.083   7.664   5.114 -0.2737 -0.4464  0.0330
  714MOL0     O96263   3.200   7.727   5.138 -0.3951  0.2770 -0.1587
  714MOL0     C96264   3.250   7.730   5.267 -0.3399  0.0842  0.2416
  714MOL0     C96265   3.365   7.832   5.269 -0.2389  0.0410 -0.3773
  714MOL0     C96266   3.464   7.830   5.157 -0.6900  0.4073  0.2524
  714MOL0     C96267   3.552   7.708   5.178  0.0554  0.0014 -0.6368
  714MOL0     C96268   3.667   7.712   5.075  0.1739  0.6408 -0.0533
  714MOL0     C96269   3.614   7.714   4.920 -0.7018  0.2889  0.2347
  714MOL0     C96270   3.713   7.662   4.814  0.4474  0.4341  0.4431
  714MOL0     C96271   3.654   7.655   4.681 -0.5359 -0.0545  0.3031
  714MOL0     N96272   3.762   7.616   4.587  0.3791  1.0561  0.2353
  714MOL0     C96273   3.801   7.708   4.488  0.4111 -0.0687  0.6056
  714MOL0     C96274   3.862   7.637   4.389  0.6237  0.9890  0.0106
  714MOL0     C96275   3.929   7.683   4.257 -0.5105  0.3842 -0.3114
  714MOL0     C96276   4.022   7.807   4.271  0.9162 -0.7977  0.7877
  714MOL0     C96277   4.044   7.862   4.125  0.1126  0.2277  0.0163
  714MOL0     C96278   4.111   7.996   4.120 -0.1255 -0.2819  0.9879
  714MOL0     O96279   4.129   8.048   3.986  0.1173  0.0900 -0.6668
  714MOL0     C96280   4.234   8.010   3.907 -0.1159 -0.3559  0.0445
  714MOL0     C96281   4.360   7.953   3.939  0.1596 -0.7386  0.5202
  714MOL0     C96282   4.446   7.902   3.839 -0.0616 -0.9230  0.6713
  714MOL0     C96283   4.417   7.948   3.709 -0.4888  0.0621  0.6190
  714MOL0     C96284   4.520   7.940   3.607  0.2546 -0.4165  1.1277
  714MOL0     O96285   4.488   8.011   3.489 -0.3247 -0.0867 -0.3849
  714MOL0     C96286   4.583   8.037   3.394  0.6606  0.6021 -0.1699
  714MOL0     C96287   4.650   7.933   3.329  0.2421 -0.3500 -0.9995
  714MOL0     C96288   4.743   7.957   3.229  0.6661 -0.5179 -0.0735
  714MOL0     C96289   4.754   8.084   3.172 -0.1585  0.0999 -0.0939
  714MOL0     O96290   4.830   8.120   3.069 -0.6431  0.0248  0.3540
  714MOL0     C96291   4.970   8.071   3.070  0.8137 -0.3467  1.4699
  714MOL0     C96292   5.048   8.098   2.938  0.1040  0.3892 -1.1790
  714MOL0     C96293   5.186   8.031   2.923 -0.2727  0.0686  0.2771
  714MOL0     C96294   5.224   8.073   2.781 -1.0113  0.5634 -0.3925
  714MOL0     C96295   5.380   8.068   2.758  0.5386  0.2166 -0.0541
  714MOL0     C96296   5.462   8.174   2.839 -0.3337  0.1762  0.2985
  714MOL0     C96297   5.590   8.222   2.771 -0.0252 -0.0551  0.3319
  714MOL0     C96298   5.710   8.122   2.797 -0.0437  0.2531 -0.0974
  714MOL0    Cl96299   5.847   8.170   2.707  0.2077  0.7727  0.0405
  714MOL0     C96300   4.675   8.187   3.232  0.2053  0.0937  0.7960
  714MOL0     C96301   4.590   8.161   3.339 -0.3167  0.3904 -0.5702
  714MOL0     O96302   4.629   7.897   3.635 -0.2482  0.4822  0.1148
  714MOL0     C96303   4.303   8.021   3.676 -0.0898  0.1967  0.0758
  714MOL0     C96304   4.202   8.039   3.775 -0.3779  0.3211  0.4100
  714MOL0     N96305   3.861   7.503   4.434  0.0834  0.3629 -0.5602
  714MOL0     N96306   3.785   7.495   4.539 -0.6479 -0.1041  0.4858
  714MOL0     C96307   3.015   7.708   4.997 -0.7823  0.2512  0.1936
  714MOL0     C96308   2.901   7.633   4.958 -0.3630  0.6095 -0.1625
  714MOL0     C96309   2.531   7.357   5.038  0.8519 -0.2150  0.4810
  714MOL0     C96310   2.573   7.249   4.947  0.4253  0.2992  0.1078
  714MOL0     C96311   2.490   7.146   4.909 -0.4769 -0.0956 -0.1763
  714MOL0     C96312   2.360   7.129   4.967 -0.2101  0.3571  0.2746
  714MOL0     O96313   2.269   7.039   4.930  0.5011  0.2291 -0.3862
  714MOL0     C96314   2.303   6.907   4.869 -0.5849 -0.9963 -1.2249
  714MOL0     C96315   2.219   6.809   4.953  0.5513 -0.2464 -0.0951
  714MOL0     C96316   2.084   6.797   4.905  0.2676  0.2459 -0.6199
  714MOL0     C96317   1.999   6.692   4.988 -0.2949 -0.2666 -0.1957
  714MOL0     C96318   1.969   6.745   5.119 -0.3446 -0.2948 -0.2645
  714MOL0     C96319   1.935   6.805   5.221  0.3788 -0.4984  0.1633
  714MOL0     C96320   2.319   7.226   5.056  0.1460 -0.2946 -0.4284
  714MOL0     C96321   2.403   7.336   5.091  0.7923  0.1104 -0.3839
  714MOL0     C96322   2.340   7.439   5.187 -1.1170 -0.7310 -0.9530
  714MOL0     H96323   2.869   7.433   5.231 -0.8716 -0.6410 -0.8522
  714MOL0     H96324   3.084   7.522   5.277 -0.5519 -2.1652 -0.6555
  714MOL0     H96325   3.177   7.766   5.340  0.7209 -1.8271  2.3769
  714MOL0     H96326   3.272   7.625   5.291  1.4199 -0.4674 -3.1339
  714MOL0     H96327   3.416   7.827   5.366 -0.8607 -0.8933 -0.0810
  714MOL0     H96328   3.321   7.932   5.262 -0.6381 -0.0591  0.5657
  714MOL0     H96329   3.523   7.920   5.175  1.8371 -1.0474 -0.2320
  714MOL0     H96330   3.416   7.822   5.058 -0.7114  0.4398  0.2605
  714MOL0     H96331   3.585   7.703   5.282 -1.0006 -1.7009 -0.3417
  714MOL0     H96332   3.492   7.618   5.161  1.0978 -1.2000  1.5958
  714MOL0     H96333   3.737   7.793   5.093 -0.0840  0.6238  1.0960
  714MOL0     H96334   3.722   7.619   5.091 -1.4116 -0.0956  1.4221
  714MOL0     H96335   3.521   7.657   4.923 -1.4677  1.4557 -0.6254
  714MOL0     H96336   3.583   7.813   4.887  0.4604 -0.1529 -2.4671
  714MOL0     H96337   3.747   7.561   4.839  1.8650  1.1423  1.4767
  714MOL0     H96338   3.803   7.724   4.815 -0.2532  1.4666  1.1556
  714MOL0     H96339   3.578   7.575   4.678 -0.1372 -0.4905  1.3543
  714MOL0     H96340   3.611   7.746   4.639  0.2677 -0.5053 -1.6128
  714MOL0     H96341   3.791   7.815   4.499  3.7540  0.1917  2.4512
  714MOL0     H96342   3.989   7.612   4.200  0.7478  0.8871  0.3451
  714MOL0     H96343   3.845   7.708   4.192  0.6176  1.4483 -1.4211
  714MOL0     H96344   3.962   7.886   4.316 -0.1605 -0.4811 -1.1003
  714MOL0     H96345   4.113   7.793   4.331  0.4290 -1.6718  1.3375
  714MOL0     H96346   3.943   7.874   4.085 -0.6710 -0.5236  1.6537
  714MOL0     H96347   4.111   7.794   4.072  0.0787 -0.2719  0.6032
  714MOL0     H96348   4.215   7.990   4.155  0.6509  2.1273 -0.6554
  714MOL0     H96349   4.055   8.063   4.185 -0.4617 -1.7413  2.2648
  714MOL0     H96350   4.392   7.934   4.041  1.8555  2.3283  0.6832
  714MOL0     H96351   4.541   7.851   3.857  0.9359  0.1748 -1.1408
  714MOL0     H96352   4.633   7.832   3.365 -0.2090 -0.1756 -0.7130
  714MOL0     H96353   4.804   7.873   3.195 -1.2773 -1.8336 -0.5006
  714MOL0     H96354   5.025   8.120   3.151  0.5674 -1.1819  2.1588
  714MOL0     H96355   4.979   7.964   3.094  0.9603 -0.3470  1.4118
  714MOL0     H96356   4.981   8.072   2.856  1.7674 -2.3903 -1.7501
  714MOL0     H96357   5.055   8.208   2.935 -1.5338  0.5254 -1.0879
  714MOL0     H96358   5.240   8.065   3.012 -0.0078 -2.1056  1.0076
  714MOL0     H96359   5.188   7.922   2.920  0.1271  0.0494  0.9460
  714MOL0     H96360   5.187   8.175   2.770 -2.4549  0.1709  0.5418
  714MOL0     H96361   5.172   8.006   2.711 -4.4217  2.2574  0.2980
  714MOL0     H96362   5.397   8.081   2.651 -0.6016  2.6419 -0.0259
  714MOL0     H96363   5.412   7.969   2.792 -0.3476 -0.6096 -1.5381
  714MOL0     H96364   5.399   8.264   2.842 -0.9095  0.0223 -3.3389
  714MOL0     H96365   5.482   8.124   2.934  2.5463  0.2512 -0.2032
  714MOL0     H96366   5.613   8.322   2.808  3.0561 -0.6370  0.1956
  714MOL0     H96367   5.576   8.239   2.663 -1.9076  1.4892  0.7749
  714MOL0     H96368   5.739   8.125   2.902 -1.0595 -0.6687  0.2318
  714MOL0     H96369   5.675   8.022   2.768  1.9733 -0.6227  0.3389
  714MOL0     H96370   4.671   8.289   3.196 -1.6250  0.5954  2.1987
  714MOL0     H96371   4.525   8.242   3.373  1.0657  1.8987 -1.3981
  714MOL0     H96372   4.275   8.059   3.578  2.8120  5.8497  1.0182
  714MOL0     H96373   4.105   8.081   3.748  0.5534  1.0308 -2.0121
  714MOL0     H96374   3.057   7.783   4.931 -0.1320 -1.7303 -1.7580
  714MOL0     H96375   2.854   7.651   4.861 -1.5690  1.4216  0.5334
  714MOL0     H96376   2.677   7.248   4.916  0.1126  0.1025 -0.9789
  714MOL0     H96377   2.542   7.070   4.852 -0.1093 -2.8899  3.5272
  714MOL0     H96378   2.410   6.886   4.873 -0.2371  0.8128  1.7848
  714MOL0     H96379   2.274   6.916   4.764  3.4786 -1.4738 -2.5832
  714MOL0     H96380   2.225   6.826   5.061  0.5557  1.9794 -0.4020
  714MOL0     H96381   2.263   6.713   4.924 -3.1440 -2.6510  1.5195
  714MOL0     H96382   2.081   6.757   4.803 -0.2632  2.0483 -1.3682
  714MOL0     H96383   2.032   6.894   4.901 -0.5644 -0.1608  0.1845
  714MOL0     H96384   1.904   6.670   4.938 -2.2220  4.8218  0.7025
  714MOL0     H96385   2.059   6.601   4.987  2.0950  1.2310 -1.2394
  714MOL0     H96386   1.903   6.861   5.307  2.3520  1.1839 -0.1116
  714MOL0     H96387   2.221   7.202   5.097  0.6653  1.3402  1.9929
  714MOL0     H96388   2.368   7.533   5.139  0.1954 -0.9244 -0.6262
  714MOL0     H96389   2.231   7.436   5.194 -1.0980 -0.5681 -0.5553
  714MOL0     H96390   2.386   7.441   5.286 -1.8126 -0.2182 -0.6357
  715MOL0     O96391   7.597   7.871  10.193  0.0118 -0.8755  0.0392
  715MOL0     C96392   7.600   7.947  10.293 -0.0364  0.3610  0.0655
  715MOL0     O96393   7.709   8.010  10.346 -0.0089 -0.0829  0.0646
  715MOL0     C96394   7.827   7.990  10.289 -0.5631 -0.0623 -0.6884
  715MOL0     C96395   7.890   8.095  10.210  0.4032 -0.3565  0.6115
  715MOL0     C96396   8.028   8.089  10.179 -0.2683  0.2963  0.4800
  715MOL0     C96397   8.104   7.977  10.220  0.0923  0.0796  0.2772
  715MOL0     O96398   8.236   7.985  10.198  0.9362  0.3068  0.0006
  715MOL0     C96399   8.302   8.080  10.280  0.5049  0.1565 -0.4015
  715MOL0     C96400   8.453   8.072  10.263  1.1100 -0.3388 -0.4516
  715MOL0     C96401   8.529   8.021  10.387 -0.1630  0.1375  0.1370
  715MOL0     C96402   8.672   8.022  10.340  0.7968  1.0983 -0.7840
  715MOL0     C96403   8.759   8.028  10.464 -0.5110  0.3232  0.0529
  715MOL0     C96404   8.901   8.068  10.420  0.1642  0.5724  0.1139
  715MOL0     C96405   9.009   8.025  10.528 -0.4650 -0.2703 -1.4337
  715MOL0     C96406   9.149   8.077  10.495  0.6004  1.0882 -0.2105
  715MOL0     N96407   9.263   8.061  10.587 -0.1584  0.2120  0.8950
  715MOL0     C96408   9.274   7.973  10.687  0.4003 -0.1203 -0.2003
  715MOL0     C96409   9.396   7.996  10.739  1.0187  0.6135  0.1800
  715MOL0     C96410   9.433   7.957  10.879  0.0253 -0.7842 -0.8419
  715MOL0     C96411   9.349   8.036  10.988 -0.8077 -0.2747  0.4386
  715MOL0     C96412   9.381   8.188  10.984  0.7449  0.4349 -0.1974
  715MOL0     C96413   9.267   8.272  11.061 -0.5737  0.1040  0.3707
  715MOL0     O96414   9.227   8.198  11.182 -0.2732  0.5277  0.0817
  715MOL0     C96415   9.309   8.196  11.294  0.6677 -0.6246  0.2160
  715MOL0     C96416   9.404   8.289  11.336  0.4673  0.1357  0.9233
  715MOL0     C96417   9.475   8.269  11.453 -0.0077 -0.1755 -0.6289
  715MOL0     C96418   9.444   8.160  11.538  0.1091 -0.2429  0.7203
  715MOL0     C96419   9.521   8.142  11.660 -0.5316  0.2862  0.3337
  715MOL0     O96420   9.600   8.243  11.701 -0.0092  0.1850  0.0925
  715MOL0     C96421   9.710   8.213  11.782 -0.3287  0.1226  0.4224
  715MOL0     C96422   9.773   8.334  11.813 -0.4352 -0.1597 -1.1528
  715MOL0     C96423   9.892   8.328  11.883  0.8781  0.3086 -0.8800
  715MOL0     C96424   9.959   8.208  11.915 -0.3180 -0.3992 -0.6147
  715MOL0     O96425  10.078   8.209  11.987 -0.5499  0.8354 -0.7087
  715MOL0     C96426  10.134   8.090  12.040 -0.2083  1.0724 -0.3583
  715MOL0     C96427  10.221   8.131  12.160 -0.3256 -0.6753  0.5011
  715MOL0     C96428  10.252   8.013  12.245  0.7485  0.5935  0.0339
  715MOL0     C96429  10.387   8.027  12.317 -0.1891  0.2201  0.6319
  715MOL0     C96430  10.426   7.909  12.407  0.4053  0.0107  1.1197
  715MOL0     C96431  10.341   7.916  12.533  0.1306 -0.7280  0.1364
  715MOL0     C96432  10.367   7.797  12.630  0.0810 -0.7901 -0.2712
  715MOL0     C96433  10.326   7.829  12.776  0.7100  0.2257 -0.6517
  715MOL0    Cl96434  10.450   7.928  12.852 -0.2308  0.6850  0.0465
  715MOL0     C96435   9.905   8.090  11.866 -0.3037 -0.1474  0.1660
  715MOL0     C96436   9.781   8.086  11.802 -0.2561  0.3417 -0.0311
  715MOL0     O96437   9.507   8.038  11.720 -0.8840  0.1536 -0.1233
  715MOL0     C96438   9.354   8.065  11.484  0.2246  0.1700 -0.3859
  715MOL0     C96439   9.287   8.081  11.369 -0.3392 -0.2463  0.0166
  715MOL0     N96440   9.462   8.086  10.658 -0.6304  0.6556 -0.0520
  715MOL0     N96441   9.381   8.124  10.565  0.0943  0.8526 -0.1385
  715MOL0     C96442   8.050   7.881  10.312 -0.1563 -0.5378  0.7317
  715MOL0     C96443   7.909   7.883  10.337 -0.3514 -0.4633 -0.4475
  715MOL0     C96444   7.471   7.943  10.365 -0.5415  0.3534 -0.5884
  715MOL0     C96445   7.371   7.846  10.338  0.1728 -0.4813  0.8570
  715MOL0     C96446   7.260   7.825  10.421 -0.0973  0.2994 -0.8652
  715MOL0     C96447   7.242   7.915  10.529  0.4882 -0.3527 -0.0832
  715MOL0     O96448   7.138   7.898  10.617  0.4933 -0.0608  0.0120
  715MOL0     C96449   7.011   7.862  10.560 -0.3297 -0.6565 -0.3667
  715MOL0     C96450   6.911   7.890  10.674  0.0681 -0.1572 -0.0668
  715MOL0     C96451   6.766   7.890  10.626  0.3256 -0.1812 -0.1047
  715MOL0     C96452   6.665   7.904  10.737  0.3114 -0.0877  0.3738
  715MOL0     C96453   6.529   7.911  10.682  0.0614 -0.2632  0.3270
  715MOL0     C96454   6.416   7.906  10.634 -0.3443  0.3462 -0.0661
  715MOL0     C96455   7.342   8.012  10.561  0.4689  0.6669  0.2860
  715MOL0     C96456   7.450   8.028  10.477  0.0352 -0.9183 -0.2774
  715MOL0     C96457   7.535   8.143  10.520 -0.2305 -0.3002  0.1487
  715MOL0     H96458   7.839   8.185  10.177 -0.7856 -0.6708  1.5223
  715MOL0     H96459   8.068   8.162  10.109 -1.3834 -0.0826 -0.5922
  715MOL0     H96460   8.269   8.181  10.256 -1.6930 -0.3729  0.2254
  715MOL0     H96461   8.290   8.056  10.386  2.9426 -0.6732 -0.2366
  715MOL0     H96462   8.478   8.177  10.243  3.9473 -1.1124 -1.3706
  715MOL0     H96463   8.490   8.007  10.183  6.3956  0.8195  0.6867
  715MOL0     H96464   8.494   7.919  10.410 -0.4765  0.7609  2.7548
  715MOL0     H96465   8.508   8.091  10.469  0.5261  1.7556 -1.0239
  715MOL0     H96466   8.690   7.934  10.278 -1.2744 -1.4959  1.9442
  715MOL0     H96467   8.700   8.109  10.280  1.2290  2.7943  1.7291
  715MOL0     H96468   8.719   8.094  10.542  0.3956  1.4423 -0.4098
  715MOL0     H96469   8.765   7.925  10.501  0.6359  1.1229  2.2658
  715MOL0     H96470   8.936   8.017  10.330  1.7891 -0.5805  1.3407
  715MOL0     H96471   8.904   8.175  10.399 -2.7187  0.6606 -0.1956
  715MOL0     H96472   9.008   7.916  10.535  0.3378 -0.2550 -0.9565
  715MOL0     H96473   8.975   8.063  10.625 -2.7349 -0.4689 -2.0748
  715MOL0     H96474   9.175   8.042  10.395 -2.1199  2.0769 -1.3477
  715MOL0     H96475   9.144   8.185  10.477  1.0690  1.7801  3.0448
  715MOL0     H96476   9.194   7.909  10.723 -1.7494  2.0655 -0.8714
  715MOL0     H96477   9.409   7.851  10.879 -2.3597 -0.2985 -0.0365
  715MOL0     H96478   9.539   7.983  10.878 -0.5732  1.9638 -1.4572
  715MOL0     H96479   9.243   8.010  10.978 -0.7693 -0.0480 -0.7618
  715MOL0     H96480   9.383   8.001  11.085  1.4678  0.9780  0.1733
  715MOL0     H96481   9.383   8.218  10.879 -0.7160  0.9187 -0.0998
  715MOL0     H96482   9.478   8.211  11.029  1.4747 -1.1919 -0.8457
  715MOL0     H96483   9.183   8.289  10.994  1.0619  3.8178 -0.9931
  715MOL0     H96484   9.295   8.374  11.086 -0.4595  0.3305 -0.6360
  715MOL0     H96485   9.417   8.378  11.274 -1.1354 -1.1199 -1.3877
  715MOL0     H96486   9.564   8.323  11.485  1.0139 -3.2914  2.4092
  715MOL0     H96487   9.727   8.430  11.796  1.9598  1.4541  0.7688
  715MOL0     H96488   9.955   8.412  11.912  3.8105 -1.9743 -0.1329
  715MOL0     H96489  10.050   8.030  12.076  0.2875  2.1186  2.8471
  715MOL0     H96490  10.192   8.048  11.956  0.4001  0.8265  0.1720
  715MOL0     H96491  10.315   8.168  12.119 -0.1195 -0.5268  1.0973
  715MOL0     H96492  10.161   8.204  12.215 -0.7126 -1.4889  1.1860
  715MOL0     H96493  10.173   7.980  12.313  1.2626 -0.2743  0.2264
  715MOL0     H96494  10.264   7.925  12.181  2.3409  0.7932  0.0363
  715MOL0     H96495  10.371   8.119  12.375 -2.6748  0.8481 -0.8857
  715MOL0     H96496  10.468   8.032  12.244 -1.1266 -0.9352 -0.5141
  715MOL0     H96497  10.532   7.930  12.426  0.5970  1.1247 -0.9153
  715MOL0     H96498  10.417   7.807  12.370  1.4112  0.7552 -1.3788
  715MOL0     H96499  10.353   8.016  12.578  0.0800 -0.1638 -1.0758
  715MOL0     H96500  10.234   7.913  12.514  0.2491 -1.6589 -0.3977
  715MOL0     H96501  10.475   7.781  12.633  0.2839  0.5466  0.2607
  715MOL0     H96502  10.309   7.713  12.591 -0.8220 -0.2721 -0.0580
  715MOL0     H96503  10.236   7.891  12.774  2.1336  2.4536 -3.7693
  715MOL0     H96504  10.321   7.739  12.838  0.6143 -0.9277 -2.2699
  715MOL0     H96505   9.958   7.997  11.881 -0.9918 -0.3680  1.3034
  715MOL0     H96506   9.758   7.992  11.754  1.0270  1.5492 -3.3851
  715MOL0     H96507   9.325   7.974  11.536 -1.5848 -0.3904 -2.2382
  715MOL0     H96508   9.212   8.025  11.315  0.7102  1.4760 -3.6204
  715MOL0     H96509   8.108   7.799  10.353  1.1869  1.2516  2.6025
  715MOL0     H96510   7.872   7.815  10.412  0.2325  0.6497  0.9034
  715MOL0     H96511   7.393   7.773  10.261  1.7835 -1.0018  1.7568
  715MOL0     H96512   7.194   7.739  10.411 -0.0898  0.1489  0.2966
  715MOL0     H96513   7.009   7.757  10.529  1.5298 -0.5471 -1.0200
  715MOL0     H96514   6.983   7.923  10.473 -2.1068 -0.5792  0.2402
  715MOL0     H96515   6.951   7.976  10.727  1.7109 -1.3763  0.7532
  715MOL0     H96516   6.916   7.805  10.743 -1.2528 -0.4569 -0.2963
  715MOL0     H96517   6.742   7.794  10.580 -1.2244 -0.0624  0.3997
  715MOL0     H96518   6.762   7.969  10.551  0.7459 -0.0068  0.0470
  715MOL0     H96519   6.678   7.823  10.809 -0.6088  0.7139  1.4760
  715MOL0     H96520   6.681   8.001  10.785 -4.7159  2.0013 -1.4464
  715MOL0     H96521   6.314   7.902  10.601 -0.3214  1.8540 -0.3663
  715MOL0     H96522   7.305   8.077  10.639 -3.2897  0.2883 -0.9533
  715MOL0     H96523   7.624   8.124  10.581 -0.2510 -2.0580 -0.3233
  715MOL0     H96524   7.573   8.192  10.430  2.4193 -2.6509 -0.1736
  715MOL0     H96525   7.473   8.212  10.578 -2.2542 -1.9276  0.0387
  716MOL0     O96526   6.145   3.617   2.177 -0.6807 -0.3213 -0.1272
  716MOL0     C96527   6.102   3.652   2.287  0.9474 -0.0619 -0.0042
  716MOL0     O96528   6.155   3.748   2.364  0.0928 -0.0018 -0.1812
  716MOL0     C96529   6.279   3.798   2.329  0.5592 -0.0406 -0.2166
  716MOL0     C96530   6.390   3.740   2.396  0.7677 -0.5554  0.5343
  716MOL0     C96531   6.520   3.780   2.370 -0.8955  0.0454 -0.3797
  716MOL0     C96532   6.538   3.878   2.273 -0.2024 -0.4305 -0.5202
  716MOL0     O96533   6.669   3.881   2.230 -0.3041 -0.9968 -0.2427
  716MOL0     C96534   6.727   3.991   2.165  1.0840 -0.9969  0.4251
  716MOL0     C96535   6.882   4.004   2.180 -0.1412 -0.3619 -0.3450
  716MOL0     C96536   6.926   4.134   2.100  0.0832  1.1654  1.2742
  716MOL0     C96537   6.906   4.117   1.937 -0.5041  0.1935  0.4207
  716MOL0     C96538   7.006   4.204   1.854 -0.9310  0.0258  0.1227
  716MOL0     C96539   6.978   4.356   1.882 -0.2997 -0.0299  0.2160
  716MOL0     C96540   7.061   4.441   1.781 -0.1489  0.0823  0.2218
  716MOL0     C96541   7.196   4.474   1.825 -0.0540 -0.4569 -0.5047
  716MOL0     N96542   7.261   4.556   1.724 -0.8276 -0.1442  0.8569
  716MOL0     C96543   7.247   4.692   1.697  0.5463  0.1251 -0.1853
  716MOL0     C96544   7.327   4.720   1.598  0.3338  0.3288  0.2004
  716MOL0     C96545   7.350   4.853   1.535  0.4873  0.3096 -0.5026
  716MOL0     C96546   7.491   4.895   1.559 -0.1158 -0.7535 -0.0547
  716MOL0     C96547   7.558   4.849   1.695  0.1915 -0.6248 -0.5165
  716MOL0     C96548   7.687   4.916   1.711 -1.0358  0.1690  0.3328
  716MOL0     O96549   7.771   4.888   1.596 -0.0154  0.4277 -0.0475
  716MOL0     C96550   7.905   4.930   1.597  0.1716  0.3644 -0.1294
  716MOL0     C96551   7.957   5.006   1.698 -0.0024 -0.8983 -1.0813
  716MOL0     C96552   8.090   5.035   1.700 -0.3452 -0.4903 -0.2101
  716MOL0     C96553   8.175   4.993   1.600 -1.1046  0.1191 -0.3735
  716MOL0     C96554   8.317   4.999   1.610 -1.1521  0.3649  0.1224
  716MOL0     O96555   8.389   4.956   1.501 -0.2317  0.0228 -0.3111
  716MOL0     C96556   8.527   4.966   1.514 -0.8669 -0.2014 -0.0454
  716MOL0     C96557   8.608   4.936   1.626 -0.3959 -0.3674 -0.5154
  716MOL0     C96558   8.734   4.990   1.636  0.1392  0.5710  0.0036
  716MOL0     C96559   8.789   5.054   1.532 -0.4000 -0.8025  0.1313
  716MOL0     O96560   8.921   5.101   1.548  0.5483 -0.8197  0.1801
  716MOL0     C96561   8.994   5.136   1.428 -0.4970  0.4700  0.1410
  716MOL0     C96562   9.144   5.142   1.450 -0.0140 -0.3992  0.1954
  716MOL0     C96563   9.214   5.010   1.470  1.2364 -0.1041 -0.1381
  716MOL0     C96564   9.363   5.044   1.448 -0.5126 -0.0793  0.0912
  716MOL0     C96565   9.444   4.912   1.438  0.1343 -0.4945 -0.1418
  716MOL0     C96566   9.595   4.915   1.449  0.2936 -0.5749  0.1397
  716MOL0     C96567   9.669   4.980   1.327 -0.9823 -0.8926 -0.0887
  716MOL0     C96568   9.792   5.050   1.373  0.3067  0.2129  0.5675
  716MOL0    Cl96569   9.847   5.161   1.236 -0.1004  0.4289  0.1664
  716MOL0     C96570   8.709   5.087   1.422  0.3167  0.5478 -0.1621
  716MOL0     C96571   8.582   5.040   1.416  0.0993 -0.5464 -0.2073
  716MOL0     O96572   8.367   5.042   1.718  0.6454  0.2257 -0.0326
  716MOL0     C96573   8.127   4.910   1.495  0.3944  0.8906 -0.2977
  716MOL0     C96574   7.993   4.878   1.500  0.8534 -0.3250  0.1585
  716MOL0     N96575   7.389   4.600   1.560  0.6310 -0.6230  0.4028
  716MOL0     N96576   7.360   4.507   1.638 -0.0972 -0.1943 -0.3737
  716MOL0     C96577   6.427   3.943   2.211  0.1429  0.1651 -0.3172
  716MOL0     C96578   6.293   3.898   2.236  0.1404 -0.1363 -0.0973
  716MOL0     C96579   5.985   3.596   2.342 -0.1721 -0.4078  0.0220
  716MOL0     C96580   5.935   3.650   2.460  0.3505  0.5306 -0.9538
  716MOL0     C96581   5.828   3.592   2.526 -0.8191 -0.0242 -0.3230
  716MOL0     C96582   5.757   3.495   2.469 -0.4882 -0.0992 -0.7983
  716MOL0     O96583   5.653   3.426   2.530  0.5543  0.2116 -0.1926
  716MOL0     C96584   5.636   3.445   2.670 -0.3713 -0.4228  0.1042
  716MOL0     C96585   5.507   3.364   2.702 -0.4160  0.2379 -0.4052
  716MOL0     C96586   5.377   3.427   2.663 -0.8050  0.6382 -0.6636
  716MOL0     C96587   5.267   3.357   2.748  0.2224  0.2824 -0.0943
  716MOL0     C96588   5.232   3.217   2.703 -1.3048 -0.8580  0.2648
  716MOL0     C96589   5.208   3.102   2.674  0.4291 -0.0897  0.3791
  716MOL0     C96590   5.808   3.440   2.356 -0.2766 -0.3526  0.2192
  716MOL0     C96591   5.920   3.482   2.284 -0.3599  0.0382 -0.4580
  716MOL0     C96592   5.966   3.408   2.162 -0.3505  0.4299  0.6373
  716MOL0     H96593   6.375   3.678   2.484  1.9156 -1.2560  0.2677
  716MOL0     H96594   6.610   3.745   2.421  0.0408  2.7692  0.0267
  716MOL0     H96595   6.696   3.983   2.061  2.5727  2.5426 -0.4452
  716MOL0     H96596   6.673   4.082   2.193  1.9812 -0.4366  0.3692
  716MOL0     H96597   6.922   3.909   2.143 -1.7177 -0.8708 -0.8270
  716MOL0     H96598   6.895   4.011   2.288 -0.9450  2.4220 -0.3636
  716MOL0     H96599   7.032   4.141   2.127  0.0511  1.7253  1.2642
  716MOL0     H96600   6.869   4.220   2.134  0.3861  1.4977  0.9456
  716MOL0     H96601   6.945   4.015   1.923  1.2647  0.7054  1.3565
  716MOL0     H96602   6.804   4.124   1.900 -0.7672 -2.5845  0.4100
  716MOL0     H96603   7.110   4.180   1.878 -1.3731 -3.3294 -0.7873
  716MOL0     H96604   7.011   4.191   1.745  4.7342 -0.1274  0.0876
  716MOL0     H96605   6.876   4.379   1.849 -0.5855 -0.5167  0.7385
  716MOL0     H96606   7.006   4.391   1.982  1.4064  0.2267 -0.3181
  716MOL0     H96607   6.999   4.530   1.763  0.8586  0.9874  1.1422
  716MOL0     H96608   7.069   4.388   1.685  0.3118 -0.0103  0.3104
  716MOL0     H96609   7.187   4.542   1.910 -1.0474  0.9414 -1.6799
  716MOL0     H96610   7.258   4.385   1.841 -1.0940 -1.5052 -1.9602
  716MOL0     H96611   7.186   4.765   1.750  2.3776  2.5599 -1.2654
  716MOL0     H96612   7.319   4.853   1.430  1.9962  0.7257 -0.9725
  716MOL0     H96613   7.285   4.931   1.578  1.4016  1.2578 -0.7877
  716MOL0     H96614   7.537   4.850   1.471 -4.5016 -2.9085 -1.5734
  716MOL0     H96615   7.503   5.002   1.543  1.7158 -1.0041 -0.5172
  716MOL0     H96616   7.574   4.741   1.695  3.0404 -0.2962  0.4114
  716MOL0     H96617   7.510   4.889   1.785  1.3471 -1.0292  0.3185
  716MOL0     H96618   7.722   4.866   1.802 -0.6646 -2.5554 -1.1967
  716MOL0     H96619   7.687   5.024   1.731 -1.0122 -0.1372  2.0772
  716MOL0     H96620   7.907   5.041   1.788  1.1921 -0.8633 -0.4043
  716MOL0     H96621   8.131   5.095   1.780  0.2550 -0.8623 -0.2234
  716MOL0     H96622   8.578   4.889   1.719 -0.5917 -2.7674 -1.7269
  716MOL0     H96623   8.795   4.979   1.725 -0.3848  0.2960  0.3356
  716MOL0     H96624   8.970   5.059   1.353 -1.9761 -0.1813  1.2229
  716MOL0     H96625   8.966   5.238   1.401 -1.1942  0.9322  2.4282
  716MOL0     H96626   9.177   5.208   1.370  0.8358  1.9726  2.3564
  716MOL0     H96627   9.165   5.189   1.547 -1.4614 -0.5206  0.5879
  716MOL0     H96628   9.191   4.971   1.569  0.5299 -0.5048 -0.4475
  716MOL0     H96629   9.181   4.937   1.394 -0.4105 -1.2948  1.6323
  716MOL0     H96630   9.399   5.111   1.527 -1.7304  0.1504  0.4767
  716MOL0     H96631   9.387   5.103   1.360  2.0457  0.4752  1.0581
  716MOL0     H96632   9.433   4.862   1.341 -0.2099  2.2144 -1.5926
  716MOL0     H96633   9.393   4.851   1.513 -2.5916  1.5100 -0.2043
  716MOL0     H96634   9.604   4.992   1.526 -0.9937  1.7671 -1.9394
  716MOL0     H96635   9.634   4.814   1.469 -0.6707 -0.7632  1.1908
  716MOL0     H96636   9.607   5.051   1.271  1.4434  3.3390  2.1152
  716MOL0     H96637   9.698   4.894   1.266 -2.7600 -0.2866 -1.8994
  716MOL0     H96638   9.782   5.105   1.467  0.1159  2.1633 -0.5506
  716MOL0     H96639   9.868   4.973   1.393  0.7968 -0.2909 -2.6661
  716MOL0     H96640   8.739   5.147   1.336 -0.9392 -1.2091 -1.9212
  716MOL0     H96641   8.536   5.069   1.321 -1.9462  1.9462  1.4133
  716MOL0     H96642   8.181   4.869   1.411 -1.2292  0.4690 -1.1670
  716MOL0     H96643   7.940   4.818   1.427  0.2389 -0.1635  0.4626
  716MOL0     H96644   6.444   4.012   2.129  0.8916 -1.0442 -1.2024
  716MOL0     H96645   6.204   3.934   2.184  0.1519  0.1024  0.0455
  716MOL0     H96646   5.981   3.732   2.515 -0.2480 -1.3112  2.6520
  716MOL0     H96647   5.798   3.632   2.622 -2.0883 -4.4504  1.3663
  716MOL0     H96648   5.615   3.549   2.698  0.6934  0.1623 -1.1395
  716MOL0     H96649   5.728   3.424   2.725  0.1350  1.5717  0.1287
  716MOL0     H96650   5.511   3.345   2.810 -0.2263  0.7087 -0.3262
  716MOL0     H96651   5.519   3.266   2.656 -1.1567 -0.6300  1.1531
  716MOL0     H96652   5.366   3.414   2.554 -0.4216 -1.5852 -0.4871
  716MOL0     H96653   5.380   3.532   2.691  0.9559  0.4593 -0.0610
  716MOL0     H96654   5.307   3.351   2.850 -1.2377 -1.7705  0.4270
  716MOL0     H96655   5.177   3.419   2.748 -2.0544 -2.7732  1.1741
  716MOL0     H96656   5.189   2.997   2.664 -0.1797  0.0244  0.3570
  716MOL0     H96657   5.758   3.358   2.307 -0.4570  0.7903 -1.6124
  716MOL0     H96658   5.894   3.336   2.122  0.4054  0.8190 -1.5605
  716MOL0     H96659   5.974   3.475   2.076  2.4278 -2.8337 -1.9432
  716MOL0     H96660   6.067   3.373   2.183  0.0837 -0.1217 -1.9794
  717MOL0     O96661  10.161   6.324   5.123  0.3652 -0.0219 -0.2865
  717MOL0     C96662  10.225   6.228   5.176  0.3333 -0.2253  0.1155
  717MOL0     O96663  10.358   6.228   5.217 -1.1398  0.1913  0.0178
  717MOL0     C96664  10.421   6.342   5.261  0.0652 -0.5525 -0.6179
  717MOL0     C96665  10.353   6.449   5.330  0.4560 -0.1204  0.0909
  717MOL0     C96666  10.411   6.566   5.371  0.2885 -0.1518  0.2977
  717MOL0     C96667  10.553   6.571   5.366 -0.2076  0.0431  0.4810
  717MOL0     O96668  10.610   6.690   5.405  0.3995 -0.1680 -0.2648
  717MOL0     C96669  10.748   6.731   5.381 -1.0240  0.7873  0.3535
  717MOL0     C96670  10.824   6.669   5.497 -0.6768  1.8550  0.5648
  717MOL0     C96671  10.979   6.680   5.492  0.1278 -0.0148  0.3743
  717MOL0     C96672  11.050   6.617   5.364  0.3803  0.4784 -0.0670
  717MOL0     C96673  11.200   6.628   5.380 -0.8808  0.2330 -0.4457
  717MOL0     C96674  11.252   6.763   5.325 -0.5522  0.7941 -0.4346
  717MOL0     C96675  11.404   6.774   5.344  0.0985  0.9230  0.5832
  717MOL0     C96676  11.448   6.903   5.291  0.6415 -0.2602 -0.3587
  717MOL0     N96677  11.590   6.918   5.277  0.5365 -0.9112 -0.0171
  717MOL0     C96678  11.685   6.821   5.263  0.3858 -0.3161 -0.0744
  717MOL0     C96679  11.812   6.867   5.236 -0.6352  0.4901 -0.3992
  717MOL0     C96680  11.955   6.802   5.233 -0.1019  0.2489 -0.8491
  717MOL0     C96681  12.058   6.883   5.151 -0.6370  0.5099  0.9477
  717MOL0     C96682  12.197   6.833   5.169  0.0146  0.5625  0.1575
  717MOL0     C96683  12.292   6.889   5.063 -0.0639 -0.3189 -0.1940
  717MOL0     O96684  12.315   7.028   5.103  0.0109  0.8581  0.6539
  717MOL0     C96685  12.426   7.100   5.064  0.0430 -0.5129  0.3336
  717MOL0     C96686  12.517   7.070   4.969 -0.0992 -0.1018 -0.3351
  717MOL0     C96687  12.619   7.152   4.932 -0.6905 -0.2281  0.2981
  717MOL0     C96688  12.631   7.281   4.985 -0.0821  0.1361 -0.4868
  717MOL0     C96689  12.728   7.386   4.937  0.1488  0.4803 -0.4383
  717MOL0     O96690  12.758   7.378   4.805 -0.1883 -0.4566  0.7900
  717MOL0     C96691  12.848   7.468   4.752 -0.0672  0.3104  0.0551
  717MOL0     C96692  12.797   7.589   4.689  0.3621  0.4591 -0.0295
  717MOL0     C96693  12.889   7.662   4.607 -0.5915  0.3257 -0.5781
  717MOL0     C96694  13.024   7.634   4.597  0.7713  1.0234 -0.2519
  717MOL0     O96695  13.111   7.722   4.525 -0.1454  0.4615  0.8370
  717MOL0     C96696  13.252   7.688   4.512 -0.2732  0.2475 -0.2750
  717MOL0     C96697  13.315   7.813   4.437 -0.9295  0.3363  0.3307
  717MOL0     C96698  13.472   7.811   4.435 -0.0780  0.5667 -0.4119
  717MOL0     C96699  13.537   7.903   4.531  0.0072  0.2149 -0.0702
  717MOL0     C96700  13.684   7.921   4.494 -0.6964  0.1921  0.7819
  717MOL0     C96701  13.754   8.032   4.577  0.3628  0.4129 -0.2844
  717MOL0     C96702  13.690   8.165   4.556  0.7213  0.6621 -0.1023
  717MOL0     C96703  13.707   8.208   4.410  0.0387 -0.0618  0.5775
  717MOL0    Cl96704  13.698   8.383   4.383 -0.1046  0.1640  0.2174
  717MOL0     C96705  13.068   7.516   4.663 -0.6021 -0.0136  0.9005
  717MOL0     C96706  12.979   7.434   4.735  0.6120  0.8593 -0.3441
  717MOL0     O96707  12.778   7.451   5.027 -0.4530  0.3057 -0.2811
  717MOL0     C96708  12.541   7.317   5.089 -0.0242  0.8453  0.6623
  717MOL0     C96709  12.447   7.224   5.136 -0.1414  0.0267  0.0696
  717MOL0     N96710  11.783   7.001   5.223 -0.7044  0.2318 -0.1420
  717MOL0     N96711  11.657   7.031   5.232  0.3053  0.2708  0.2522
  717MOL0     C96712  10.622   6.468   5.314 -0.1378 -0.1281  0.4145
  717MOL0     C96713  10.563   6.359   5.249 -0.5433 -0.0274  0.4665
  717MOL0     C96714  10.137   6.115   5.201  0.1460 -0.2157  0.2863
  717MOL0     C96715  10.153   6.035   5.320 -0.5945 -0.0916  0.0421
  717MOL0     C96716  10.062   5.933   5.356  0.1592 -0.7690 -1.4922
  717MOL0     C96717   9.962   5.903   5.270  0.0483 -0.2919 -0.3530
  717MOL0     O96718   9.871   5.800   5.288  0.7850  0.7696 -0.1568
  717MOL0     C96719   9.860   5.723   5.413 -0.6599  0.1921  0.5790
  717MOL0     C96720   9.781   5.813   5.520  0.4549  0.3416 -0.4271
  717MOL0     C96721   9.643   5.862   5.471 -0.0507  0.2080  0.2827
  717MOL0     C96722   9.568   5.917   5.587  0.1590 -0.2230 -1.1924
  717MOL0     C96723   9.615   6.037   5.656 -0.0645  0.1056  0.4181
  717MOL0     C96724   9.660   6.141   5.709 -0.0341  0.2315 -0.0178
  717MOL0     C96725   9.947   5.968   5.150  0.0702 -0.0765 -0.4698
  717MOL0     C96726  10.031   6.080   5.118 -0.8562  0.7274 -0.5906
  717MOL0     C96727   9.998   6.131   4.983 -0.2561  0.3337 -0.0940
  717MOL0     H96728  10.246   6.438   5.346  0.4814 -0.8024 -0.1858
  717MOL0     H96729  10.362   6.650   5.419  0.6682 -0.4385  1.1986
  717MOL0     H96730  10.789   6.699   5.285  2.3155  0.5485  1.7159
  717MOL0     H96731  10.762   6.839   5.383  3.9049  0.4007 -0.6292
  717MOL0     H96732  10.803   6.562   5.501 -0.7903  1.8654  0.2218
  717MOL0     H96733  10.791   6.711   5.593 -3.8265 -1.6198  1.2493
  717MOL0     H96734  11.020   6.636   5.583 -1.9907  0.6800  1.7185
  717MOL0     H96735  10.998   6.787   5.489 -0.6870  0.1803  1.6802
  717MOL0     H96736  11.018   6.512   5.360 -0.7286  0.7185  1.5829
  717MOL0     H96737  11.006   6.658   5.272 -3.3496  1.4305  1.9474
  717MOL0     H96738  11.232   6.612   5.484 -0.6436  0.3785 -0.4958
  717MOL0     H96739  11.262   6.559   5.323  4.0453  2.8584  1.1024
  717MOL0     H96740  11.215   6.773   5.223 -0.0236 -0.3642 -0.7642
  717MOL0     H96741  11.207   6.839   5.389 -0.5102  1.0391 -0.6987
  717MOL0     H96742  11.455   6.697   5.285 -2.7579 -0.3508 -0.4253
  717MOL0     H96743  11.433   6.764   5.449  3.9984 -0.5537 -0.4530
  717MOL0     H96744  11.405   6.929   5.194 -1.2017  1.0211  0.7354
  717MOL0     H96745  11.399   6.982   5.349  0.3374 -0.4800 -0.3155
  717MOL0     H96746  11.672   6.718   5.293 -1.2619 -0.6330 -1.7385
  717MOL0     H96747  11.997   6.805   5.333 -3.1493  1.5784  0.5126
  717MOL0     H96748  11.951   6.699   5.196 -0.9812  0.6508 -1.9561
  717MOL0     H96749  12.038   6.877   5.044  3.9331  0.7881 -0.1518
  717MOL0     H96750  12.056   6.989   5.178  0.5444  0.7819  0.0517
  717MOL0     H96751  12.194   6.724   5.159  2.1097  0.4175  0.7100
  717MOL0     H96752  12.232   6.863   5.268  1.8005 -1.1834  0.1080
  717MOL0     H96753  12.258   6.891   4.959 -1.7254 -2.4541  0.2166
  717MOL0     H96754  12.389   6.839   5.053  1.6566  2.7420  0.0598
  717MOL0     H96755  12.519   6.972   4.923  2.3949  0.5124 -1.7187
  717MOL0     H96756  12.692   7.126   4.855  0.4708  0.3815  1.1635
  717MOL0     H96757  12.693   7.622   4.689  0.8052  1.9415  0.3209
  717MOL0     H96758  12.851   7.753   4.561  0.2490  1.3621  0.6951
  717MOL0     H96759  13.305   7.661   4.603  0.2036 -0.2517 -0.6942
  717MOL0     H96760  13.261   7.606   4.440  0.2526  0.6079 -0.6270
  717MOL0     H96761  13.281   7.819   4.334  1.3285  0.7967 -0.4458
  717MOL0     H96762  13.279   7.909   4.476 -2.4834  0.4933 -1.3821
  717MOL0     H96763  13.504   7.707   4.434  1.0959  0.9144 -1.3782
  717MOL0     H96764  13.510   7.845   4.338  2.4163 -3.3205 -1.0099
  717MOL0     H96765  13.534   7.873   4.636 -0.8893 -0.2420 -0.2250
  717MOL0     H96766  13.491   8.001   4.512 -1.7821  0.0270  2.8080
  717MOL0     H96767  13.691   7.947   4.388  1.7338 -3.3636 -0.1093
  717MOL0     H96768  13.736   7.825   4.497 -0.9722  0.0048 -0.0610
  717MOL0     H96769  13.747   7.996   4.680  1.3214  1.0195  0.0064
  717MOL0     H96770  13.861   8.026   4.552  0.8791 -2.1667  2.0049
  717MOL0     H96771  13.748   8.230   4.622  0.9876 -0.9648  1.3349
  717MOL0     H96772  13.583   8.158   4.581  0.3413 -0.1393 -1.7931
  717MOL0     H96773  13.803   8.175   4.371 -0.0612  0.2877  0.0248
  717MOL0     H96774  13.619   8.166   4.359 -0.9577  2.6888 -0.1486
  717MOL0     H96775  13.170   7.478   4.665 -0.0167  1.2936 -1.0483
  717MOL0     H96776  13.012   7.357   4.804  2.2895  2.1086  0.2974
  717MOL0     H96777  12.555   7.412   5.139 -2.0176  2.6226 -1.8837
  717MOL0     H96778  12.370   7.256   5.205 -0.4032  0.8564 -0.5880
  717MOL0     H96779  10.728   6.477   5.295 -0.1102 -0.2759  0.4951
  717MOL0     H96780  10.617   6.280   5.197 -1.7108 -0.5783  0.0465
  717MOL0     H96781  10.235   6.076   5.379  0.0045 -0.2622 -0.6470
  717MOL0     H96782  10.080   5.870   5.442 -0.3956  0.5961 -0.3414
  717MOL0     H96783   9.957   5.690   5.452 -0.3608  0.6515  0.2355
  717MOL0     H96784   9.802   5.634   5.387 -1.0260  1.2748 -2.6645
  717MOL0     H96785   9.854   5.890   5.548  1.3210  0.0144 -1.7030
  717MOL0     H96786   9.756   5.744   5.601  2.1733  0.7242  0.4740
  717MOL0     H96787   9.583   5.779   5.434  1.6061 -0.7399 -0.3909
  717MOL0     H96788   9.654   5.929   5.386 -0.6927 -3.5532 -3.0644
  717MOL0     H96789   9.469   5.945   5.552  0.8508  0.9556 -2.2979
  717MOL0     H96790   9.553   5.849   5.672 -2.1527 -1.2460 -2.3393
  717MOL0     H96791   9.681   6.239   5.747 -0.1580  0.2903 -0.0984
  717MOL0     H96792   9.871   5.928   5.084  1.5637 -1.0270 -1.6685
  717MOL0     H96793  10.022   6.236   4.962 -0.3366  0.8068  1.9559
  717MOL0     H96794  10.065   6.074   4.918  0.2041  0.5288  0.2034
  717MOL0     H96795   9.893   6.116   4.954 -0.7181 -2.1371  2.4661
  718MOL0     O96796   7.530   8.398   0.600  0.9207  0.2381  0.7710
  718MOL0     C96797   7.541   8.513   0.560  0.4130  0.6105 -1.3061
  718MOL0     O96798   7.629   8.600   0.604 -0.2162 -0.2210 -0.2181
  718MOL0     C96799   7.701   8.562   0.710  0.1969 -0.6417  0.1374
  718MOL0     C96800   7.825   8.504   0.696  0.4071  0.4381  0.2020
  718MOL0     C96801   7.895   8.454   0.805  0.0103  0.4700  1.2858
  718MOL0     C96802   7.836   8.468   0.933 -0.2431 -0.1586 -0.7616
  718MOL0     O96803   7.905   8.414   1.041  0.1380 -0.2094  0.0370
  718MOL0     C96804   7.833   8.416   1.165  0.0339 -0.1605  0.2848
  718MOL0     C96805   7.905   8.333   1.277  0.0156 -0.0747 -0.6574
  718MOL0     C96806   7.818   8.307   1.400 -0.0338  0.1327  0.9464
  718MOL0     C96807   7.701   8.219   1.374  0.3956  0.1088  0.2979
  718MOL0     C96808   7.630   8.162   1.496  0.6558 -0.0617 -0.3815
  718MOL0     C96809   7.557   8.266   1.577 -0.1181  0.3370  0.5281
  718MOL0     C96810   7.483   8.194   1.689  0.4793  0.4333  0.3852
  718MOL0     C96811   7.396   8.286   1.774 -0.7009 -0.4837 -0.2870
  718MOL0     N96812   7.270   8.328   1.704 -0.5353  0.0193 -0.5223
  718MOL0     C96813   7.248   8.434   1.615 -0.4811 -0.9634  0.0933
  718MOL0     C96814   7.116   8.414   1.573  0.7686  1.1154  0.2637
  718MOL0     C96815   7.061   8.489   1.453 -0.2817 -0.0549 -0.4671
  718MOL0     C96816   6.906   8.518   1.474  0.4907 -1.0039 -0.0519
  718MOL0     C96817   6.879   8.653   1.545 -0.7351  0.1188 -1.1129
  718MOL0     C96818   6.856   8.628   1.698 -0.4097  0.0060 -0.2400
  718MOL0     O96819   6.988   8.616   1.767 -0.1996 -0.0242  0.2117
  718MOL0     C96820   7.066   8.727   1.789  0.3093 -0.2485 -0.4974
  718MOL0     C96821   7.184   8.713   1.857 -0.0119  0.1616  0.5233
  718MOL0     C96822   7.264   8.822   1.898 -1.6310 -0.3097  0.3851
  718MOL0     C96823   7.223   8.949   1.856 -0.3076  0.3319 -0.5498
  718MOL0     C96824   7.317   9.061   1.874  0.1645  0.3282 -0.1763
  718MOL0     O96825   7.304   9.175   1.803  0.1520  0.1460  0.5648
  718MOL0     C96826   7.391   9.281   1.819 -0.2668  0.4486  0.0418
  718MOL0     C96827   7.533   9.263   1.808 -0.3707  0.2789  0.4345
  718MOL0     C96828   7.607   9.382   1.804 -0.1569 -0.2359  0.5038
  718MOL0     C96829   7.552   9.503   1.831  0.3951 -0.1574 -0.1735
  718MOL0     O96830   7.650   9.600   1.824 -0.2888 -0.0540  0.5655
  718MOL0     C96831   7.642   9.713   1.909 -0.4200  0.2812 -0.4391
  718MOL0     C96832   7.789   9.732   1.962  0.8949  0.9713  0.5628
  718MOL0     C96833   7.784   9.812   2.101  0.0773  1.3280  1.0052
  718MOL0     C96834   7.900   9.790   2.198  0.3364 -0.7662 -0.3787
  718MOL0     C96835   7.887   9.876   2.322  0.2079  0.0594 -0.2991
  718MOL0     C96836   7.971   9.820   2.437  0.5564 -0.0784  0.3641
  718MOL0     C96837   7.969   9.906   2.562  0.0884  0.5900  0.3113
  718MOL0     C96838   8.098   9.877   2.643  0.6568  0.1965  0.1122
  718MOL0    Cl96839   8.097   9.706   2.689  0.1735 -0.5031 -0.1999
  718MOL0     C96840   7.421   9.518   1.872  0.3070  0.1693 -1.2951
  718MOL0     C96841   7.334   9.405   1.863  0.1207 -0.3234 -0.6396
  718MOL0     O96842   7.404   9.045   1.956 -0.7029 -0.1169 -0.1069
  718MOL0     C96843   7.101   8.969   1.783  0.5268 -1.0118  0.6591
  718MOL0     C96844   7.029   8.857   1.747 -0.8848  0.1778 -0.0301
  718MOL0     N96845   7.072   8.306   1.645  0.0965 -0.5911  0.1368
  718MOL0     N96846   7.161   8.260   1.727  0.2478 -0.7170  0.6007
  718MOL0     C96847   7.714   8.543   0.949 -0.1582  0.6523 -1.0175
  718MOL0     C96848   7.650   8.583   0.832 -0.2718  0.8387 -0.8875
  718MOL0     C96849   7.460   8.568   0.452 -0.2867 -1.1527 -0.4516
  718MOL0     C96850   7.521   8.660   0.362  0.5134 -0.0361  0.8632
  718MOL0     C96851   7.437   8.715   0.262 -0.1092 -0.9197  0.3602
  718MOL0     C96852   7.297   8.702   0.260  0.2480  0.3122 -0.1429
  718MOL0     O96853   7.212   8.752   0.168  0.1299 -0.1503  0.4272
  718MOL0     C96854   7.213   8.695   0.034 -0.0946 -0.2956  0.6849
  718MOL0     C96855   7.109   8.588   0.035  0.2131  0.2460 -0.4027
  718MOL0     C96856   7.059   8.557  -0.114 -0.1208  0.0281 -0.4936
  718MOL0     C96857   6.954   8.446  -0.119  0.9759 -0.2738  0.1723
  718MOL0     C96858   6.821   8.480  -0.062 -0.4657 -0.2717 -0.2250
  718MOL0     C96859   6.705   8.506  -0.044  0.5101  0.2347 -0.8686
  718MOL0     C96860   7.246   8.617   0.364 -0.5060  0.3382  1.2980
  718MOL0     C96861   7.320   8.549   0.461 -0.6575 -0.9053  0.4212
  718MOL0     C96862   7.252   8.487   0.582  0.2437 -0.6112 -0.4773
  718MOL0     H96863   7.866   8.490   0.596 -1.6728 -2.6626 -0.3587
  718MOL0     H96864   7.988   8.402   0.786 -0.4778 -0.5363  1.5234
  718MOL0     H96865   7.827   8.519   1.200  3.9673  0.9872 -1.7776
  718MOL0     H96866   7.738   8.363   1.153  1.1275 -2.3203  0.6616
  718MOL0     H96867   7.996   8.387   1.303 -0.6639  1.2815 -0.9776
  718MOL0     H96868   7.929   8.236   1.234  1.7280  0.2271 -0.4312
  718MOL0     H96869   7.786   8.409   1.423  0.0684  0.8467 -1.7376
  718MOL0     H96870   7.876   8.267   1.484 -1.3535 -0.2758  1.6773
  718MOL0     H96871   7.631   8.278   1.314  0.3610 -0.2308 -0.0044
  718MOL0     H96872   7.719   8.132   1.310 -1.0051 -0.0099  0.0244
  718MOL0     H96873   7.551   8.091   1.470 -1.3873  1.7666  0.4578
  718MOL0     H96874   7.702   8.119   1.565 -0.3437  1.4384  1.7048
  718MOL0     H96875   7.634   8.336   1.612  1.6179 -1.5974  0.8470
  718MOL0     H96876   7.486   8.321   1.516 -0.1745  0.7747  0.9794
  718MOL0     H96877   7.556   8.144   1.753  1.9152  0.0066 -1.4920
  718MOL0     H96878   7.426   8.112   1.646  0.0326  1.6236 -1.4289
  718MOL0     H96879   7.367   8.238   1.868  1.2782  0.7141  0.9978
  718MOL0     H96880   7.449   8.373   1.813  1.0209 -2.3778  1.8770
  718MOL0     H96881   7.326   8.497   1.572 -2.2661  1.0764 -0.3356
  718MOL0     H96882   7.123   8.577   1.432  2.6112 -2.0380 -0.8981
  718MOL0     H96883   7.069   8.420   1.368  1.2600  1.0510 -1.2881
  718MOL0     H96884   6.863   8.529   1.374 -0.4674  2.1175  0.5960
  718MOL0     H96885   6.850   8.428   1.504 -3.1177  0.1305 -2.6522
  718MOL0     H96886   6.794   8.697   1.491 -1.7802  2.2676  1.9260
  718MOL0     H96887   6.968   8.713   1.522  1.6607 -2.1528  1.5244
  718MOL0     H96888   6.792   8.542   1.721 -1.3887  0.4870 -1.0725
  718MOL0     H96889   6.804   8.713   1.744 -0.5207  1.2327 -2.5064
  718MOL0     H96890   7.208   8.616   1.900  0.0643  0.2703  0.7273
  718MOL0     H96891   7.360   8.800   1.945  0.5657  2.5024 -2.2948
  718MOL0     H96892   7.569   9.164   1.782 -0.5207  0.9318 -2.6469
  718MOL0     H96893   7.713   9.374   1.786 -0.4569 -1.0235 -1.0686
  718MOL0     H96894   7.603   9.801   1.857  0.2321 -0.0457 -1.5045
  718MOL0     H96895   7.576   9.697   1.995 -1.0161 -3.4146 -1.4293
  718MOL0     H96896   7.830   9.634   1.986 -1.2540  0.0881  0.8739
  718MOL0     H96897   7.850   9.780   1.885  0.4645 -0.3227 -0.6107
  718MOL0     H96898   7.775   9.920   2.084 -2.8903  1.1433  0.7790
  718MOL0     H96899   7.694   9.779   2.154  1.0743 -1.5657  1.0481
  718MOL0     H96900   7.999   9.812   2.156  2.2514 -3.6831  2.1263
  718MOL0     H96901   7.908   9.685   2.228  1.2211  0.2621  3.4552
  718MOL0     H96902   7.783   9.882   2.356 -0.6256 -1.2022 -2.4642
  718MOL0     H96903   7.922   9.978   2.307 -1.9163  1.3526  2.4786
  718MOL0     H96904   7.943   9.716   2.459 -0.3925  0.7122  3.3651
  718MOL0     H96905   8.073   9.809   2.401  0.3905 -4.7565  0.6671
  718MOL0     H96906   7.884   9.893   2.629 -0.6793  2.5389 -0.2166
  718MOL0     H96907   7.965  10.010   2.528 -0.6989 -0.4309 -3.2568
  718MOL0     H96908   8.187   9.896   2.583  0.6031 -0.5979 -0.2293
  718MOL0     H96909   8.109   9.951   2.723 -1.1819  0.3385  0.2710
  718MOL0     H96910   7.377   9.607   1.914 -0.1014 -0.8421  0.5064
  718MOL0     H96911   7.226   9.419   1.868  0.3308  0.7806  2.0386
  718MOL0     H96912   7.078   9.073   1.760  1.7056 -0.7571  0.5421
  718MOL0     H96913   6.941   8.871   1.684 -0.0991  0.3195 -1.1168
  718MOL0     H96914   7.675   8.573   1.046 -4.0535 -2.6628 -1.2646
  718MOL0     H96915   7.549   8.622   0.843  0.4305  2.2964  1.0652
  718MOL0     H96916   7.628   8.674   0.369  1.2097 -2.0954 -2.8883
  718MOL0     H96917   7.495   8.776   0.193  0.6878  0.9058  2.5131
  718MOL0     H96918   7.313   8.656   0.013  0.9676  0.9613  2.9675
  718MOL0     H96919   7.182   8.770  -0.039 -1.1612 -1.3808 -0.0064
  718MOL0     H96920   7.022   8.626   0.090  0.3605 -0.7152  0.5418
  718MOL0     H96921   7.130   8.501   0.099  0.3293  0.0431 -0.7145
  718MOL0     H96922   7.151   8.529  -0.166  1.6835  3.1240  0.7613
  718MOL0     H96923   7.024   8.651  -0.155  0.8286  0.8554  0.5186
  718MOL0     H96924   6.938   8.415  -0.223 -1.4137 -2.7131  1.1537
  718MOL0     H96925   6.996   8.366  -0.058 -0.4869  1.3421  3.5716
  718MOL0     H96926   6.602   8.529  -0.025  0.6540 -0.3355  0.8428
  718MOL0     H96927   7.139   8.605   0.358 -0.5452  1.2159 -2.1146
  718MOL0     H96928   7.310   8.506   0.673  0.1712  1.3573 -0.7838
  718MOL0     H96929   7.154   8.530   0.607  0.5148  0.9424 -1.8996
  718MOL0     H96930   7.242   8.381   0.556  1.6898 -0.6938 -0.7582
  719MOL0     O96931   9.278   5.069  11.285  0.7073 -0.5122 -0.7150
  719MOL0     C96932   9.175   5.031  11.347 -0.3160  0.9987 -0.6295
  719MOL0     O96933   9.140   5.059  11.473  0.0551  0.4746 -0.1228
  719MOL0     C96934   9.211   5.162  11.531 -0.9430  0.5098 -1.4248
  719MOL0     C96935   9.341   5.143  11.590  0.0036  0.6409  0.4271
  719MOL0     C96936   9.405   5.248  11.659  0.2388  0.4330 -0.0349
  719MOL0     C96937   9.345   5.369  11.673  0.9728 -1.1155  0.1543
  719MOL0     O96938   9.389   5.476  11.740  0.2938  0.2919 -0.2526
  719MOL0     C96939   9.504   5.464  11.825  0.2382 -0.3948 -0.2803
  719MOL0     C96940   9.479   5.583  11.913  0.0421  0.3720  0.4372
  719MOL0     C96941   9.566   5.578  12.041 -0.4325 -0.1544  0.0822
  719MOL0     C96942   9.717   5.610  12.005 -0.1938  0.1369 -0.5085
  719MOL0     C96943   9.789   5.610  12.140  0.1094  0.1594 -1.4890
  719MOL0     C96944   9.844   5.476  12.192  0.2374 -0.9056 -0.3056
  719MOL0     C96945   9.946   5.484  12.318  0.2764  0.1612 -0.5164
  719MOL0     C96946   9.905   5.603  12.413  0.1620  0.1686 -0.4387
  719MOL0     N96947   9.996   5.587  12.528 -0.2706 -0.1589 -0.6584
  719MOL0     C96948   9.995   5.469  12.605  0.4453 -0.4863  0.3239
  719MOL0     C96949  10.085   5.490  12.704 -0.4178 -0.4280  0.0515
  719MOL0     C96950  10.111   5.393  12.816 -0.1132  0.7489 -0.2626
  719MOL0     C96951  10.011   5.408  12.928 -0.2201  1.0200 -0.2639
  719MOL0     C96952  10.020   5.283  13.017  0.9845  0.2958 -0.0511
  719MOL0     C96953  10.133   5.285  13.118 -1.3323 -0.0566 -0.7946
  719MOL0     O96954  10.257   5.330  13.058  0.1184 -0.3738  0.0486
  719MOL0     C96955  10.377   5.304  13.122 -0.0694  0.5464 -0.2731
  719MOL0     C96956  10.395   5.268  13.255  0.0521  0.2534 -0.1045
  719MOL0     C96957  10.525   5.225  13.300  0.5168 -0.4607 -0.0463
  719MOL0     C96958  10.634   5.220  13.214 -0.3994  0.2321  0.1798
  719MOL0     C96959  10.766   5.171  13.259  0.6461  0.3372 -0.0790
  719MOL0     O96960  10.760   5.084  13.360  0.1521 -0.1108  0.0471
  719MOL0     C96961  10.860   4.992  13.380  0.2464 -0.4071 -0.4896
  719MOL0     C96962  10.910   4.998  13.505 -0.1086  0.3813 -0.0693
  719MOL0     C96963  11.024   4.924  13.533  0.2898 -0.0573  0.1594
  719MOL0     C96964  11.090   4.843  13.439 -0.7629  0.7599  0.0529
  719MOL0     O96965  11.193   4.763  13.498  0.8418  0.0409  0.7056
  719MOL0     C96966  11.258   4.674  13.413  0.0690  0.6695  0.4488
  719MOL0     C96967  11.377   4.618  13.487  0.9525  0.9379 -0.2419
  719MOL0     C96968  11.452   4.508  13.416  0.3583 -0.3447  0.0491
  719MOL0     C96969  11.558   4.473  13.516 -0.1317 -0.0198  0.0987
  719MOL0     C96970  11.620   4.338  13.490 -0.4608 -0.1352  0.1505
  719MOL0     C96971  11.716   4.331  13.363  0.0547  0.0093  0.3154
  719MOL0     C96972  11.840   4.424  13.378  0.4145 -0.3313  0.4331
  719MOL0     C96973  11.934   4.401  13.266  0.9427  0.5537 -0.4920
  719MOL0    Cl96974  12.080   4.500  13.267  0.1366  0.1426  0.2996
  719MOL0     C96975  11.044   4.842  13.304 -0.8600  0.3334 -0.2686
  719MOL0     C96976  10.925   4.922  13.279  0.4941  0.5232 -0.1816
  719MOL0     O96977  10.865   5.205  13.195 -0.1663  0.3713  0.0657
  719MOL0     C96978  10.615   5.265  13.080  0.1980 -0.4342  0.1652
  719MOL0     C96979  10.484   5.300  13.033  0.3863  0.3500  0.1518
  719MOL0     N96980  10.162   5.602  12.667 -0.0881  0.6763  0.0001
  719MOL0     N96981  10.108   5.649  12.556 -0.5458 -1.1369  0.2057
  719MOL0     C96982   9.218   5.393  11.602  0.2467 -0.2764  0.2772
  719MOL0     C96983   9.159   5.291  11.534  0.0191  0.5686 -0.9846
  719MOL0     C96984   9.088   4.934  11.268 -0.3179 -0.5399 -1.0867
  719MOL0     C96985   8.986   4.875  11.348 -0.7288 -0.7577  0.2122
  719MOL0     C96986   8.894   4.789  11.285 -0.3243 -0.9600 -0.0554
  719MOL0     C96987   8.903   4.762  11.148 -0.9782  0.6237  0.2203
  719MOL0     O96988   8.818   4.674  11.076 -0.0878  0.0225 -0.2893
  719MOL0     C96989   8.694   4.635  11.138 -0.2431 -0.0398  0.5292
  719MOL0     C96990   8.631   4.535  11.047 -0.6271 -0.6772  0.0744
  719MOL0     C96991   8.718   4.415  11.012  1.0439  0.0288 -0.0513
  719MOL0     C96992   8.637   4.287  10.958 -0.4728  0.2725 -0.4608
  719MOL0     C96993   8.549   4.312  10.844 -0.0812 -0.3236  1.1080
  719MOL0     C96994   8.470   4.328  10.755  0.4817 -0.7241  0.1082
  719MOL0     C96995   8.991   4.828  11.073 -0.7804  0.4677 -0.3533
  719MOL0     C96996   9.084   4.914  11.131  0.2550  0.0163  0.8564
  719MOL0     C96997   9.184   4.979  11.034  0.0371  0.5608  0.1015
  719MOL0     H96998   9.391   5.047  11.588  1.1205  1.2016 -1.7376
  719MOL0     H96999   9.507   5.229  11.693 -0.6204 -2.5539  1.1817
  719MOL0     H97000   9.504   5.368  11.876  2.3739  0.0247  0.5965
  719MOL0     H97001   9.591   5.490  11.763 -0.2224  0.0284 -0.7702
  719MOL0     H97002   9.378   5.583  11.955 -0.3629 -0.0230 -0.5097
  719MOL0     H97003   9.504   5.673  11.856  4.8984 -0.1246  1.2899
  719MOL0     H97004   9.564   5.481  12.090 -0.1902 -0.4216 -0.4350
  719MOL0     H97005   9.528   5.666  12.094  2.5256  2.6489 -2.0381
  719MOL0     H97006   9.748   5.528  11.939 -2.2829  0.9368 -2.6665
  719MOL0     H97007   9.727   5.705  11.952  0.0579 -0.0835 -0.8679
  719MOL0     H97008   9.869   5.684  12.130 -2.9304  4.0642  0.3464
  719MOL0     H97009   9.726   5.648  12.221 -0.1822  1.1367 -2.1614
  719MOL0     H97010   9.759   5.416  12.227 -0.4912  1.5524  2.5252
  719MOL0     H97011   9.885   5.417  12.110  2.1015  1.3491 -1.1017
  719MOL0     H97012  10.047   5.479  12.276  1.2382  1.6826  1.4301
  719MOL0     H97013   9.937   5.392  12.376  2.2482  0.7538  0.8380
  719MOL0     H97014   9.927   5.699  12.364 -1.0410 -0.3135 -2.0112
  719MOL0     H97015   9.799   5.600  12.440  0.2307 -0.9622 -0.2865
  719MOL0     H97016   9.920   5.391  12.593  1.2884 -0.9879 -2.4763
  719MOL0     H97017  10.090   5.294  12.775 -0.7060  1.1889 -1.0635
  719MOL0     H97018  10.215   5.384  12.846 -0.3753 -1.0584  0.2172
  719MOL0     H97019  10.046   5.495  12.984  1.5276 -0.2242  0.6757
  719MOL0     H97020   9.906   5.412  12.898 -0.2549 -0.7188 -0.4526
  719MOL0     H97021  10.025   5.190  12.959 -0.8558  0.3336 -0.3564
  719MOL0     H97022   9.921   5.278  13.063 -1.4490  1.5307 -4.4917
  719MOL0     H97023  10.149   5.181  13.148 -1.2387  0.0522 -0.4672
  719MOL0     H97024  10.109   5.350  13.203  1.2052 -0.6972  0.5136
  719MOL0     H97025  10.313   5.275  13.326  1.1159 -0.6973  1.2683
  719MOL0     H97026  10.539   5.189  13.402  0.3858  2.9925  1.3185
  719MOL0     H97027  10.868   5.065  13.580 -0.9808 -1.4884  1.1877
  719MOL0     H97028  11.058   4.929  13.636 -1.1688  2.9300  0.6160
  719MOL0     H97029  11.182   4.601  13.386  1.5408 -1.5679  2.0599
  719MOL0     H97030  11.287   4.722  13.318 -3.7366 -0.7006 -1.6105
  719MOL0     H97031  11.452   4.698  13.490  0.7175  1.3620 -2.8037
  719MOL0     H97032  11.336   4.585  13.583 -0.6613  0.6281 -0.9997
  719MOL0     H97033  11.397   4.413  13.418  0.1583 -0.2467 -0.7047
  719MOL0     H97034  11.487   4.536  13.316  3.5146 -3.0188  0.2313
  719MOL0     H97035  11.525   4.469  13.620 -1.7401 -0.0077 -0.3829
  719MOL0     H97036  11.638   4.547  13.511  1.0333 -1.1577  1.2806
  719MOL0     H97037  11.552   4.253  13.485  0.7470 -1.0962 -3.3028
  719MOL0     H97038  11.689   4.319  13.572  1.0675  0.9062 -0.8229
  719MOL0     H97039  11.752   4.228  13.354 -0.0267 -0.1291  1.3939
  719MOL0     H97040  11.664   4.353  13.270  0.2017  0.7991  0.4114
  719MOL0     H97041  11.898   4.407  13.470 -0.2042  1.2302  1.1493
  719MOL0     H97042  11.820   4.532  13.376  3.1588  0.4694  4.2313
  719MOL0     H97043  11.958   4.295  13.281  0.2415  0.5138  0.3806
  719MOL0     H97044  11.890   4.415  13.167  3.7635  1.9874 -1.6804
  719MOL0     H97045  11.091   4.774  13.234  3.0693 -0.0191  2.3905
  719MOL0     H97046  10.875   4.914  13.183  1.9242 -0.6924 -0.8774
  719MOL0     H97047  10.701   5.270  13.013  2.6262  1.2726  3.1193
  719MOL0     H97048  10.469   5.327  12.929  3.9450  0.3977 -0.4986
  719MOL0     H97049   9.179   5.494  11.600 -1.0959 -0.7356  1.5211
  719MOL0     H97050   9.066   5.304  11.480 -0.9967  0.0554  0.5764
  719MOL0     H97051   8.964   4.895  11.453  1.6215  1.0935  0.4380
  719MOL0     H97052   8.814   4.752  11.348 -0.1663 -0.1101  0.6831
  719MOL0     H97053   8.623   4.716  11.157 -3.0245 -1.2977 -3.2321
  719MOL0     H97054   8.715   4.577  11.228 -0.4814 -1.1308 -0.0981
  719MOL0     H97055   8.598   4.577  10.952  1.8318 -1.5881 -1.2478
  719MOL0     H97056   8.546   4.498  11.106 -0.8744 -0.4486 -0.1360
  719MOL0     H97057   8.767   4.370  11.099  0.9901 -1.6351 -0.8295
  719MOL0     H97058   8.798   4.433  10.940  1.5938 -2.2707 -0.1121
  719MOL0     H97059   8.700   4.200  10.939 -2.3683 -1.5822  1.2726
  719MOL0     H97060   8.579   4.248  11.042  1.0390  0.6647  0.8087
  719MOL0     H97061   8.411   4.330  10.665  1.9127 -2.0701 -0.9212
  719MOL0     H97062   8.981   4.806  10.967 -0.2219  0.1693 -0.3467
  719MOL0     H97063   9.291   4.981  11.060  0.6540  2.0479 -2.2218
  719MOL0     H97064   9.186   4.928  10.937  5.1887  0.0520  0.1551
  719MOL0     H97065   9.165   5.085  11.019 -2.4942 -0.0926 -2.1037
  720MOL0     O97066   5.427   0.521   4.573 -0.0458  0.7985 -0.3041
  720MOL0     C97067   5.432   0.587   4.470  0.0824  0.5310  0.5530
  720MOL0     O97068   5.318   0.626   4.406  0.6629 -0.8007  0.5232
  720MOL0     C97069   5.199   0.625   4.475  0.0621  1.0374  0.6701
  720MOL0     C97070   5.084   0.594   4.409 -0.3132 -0.6039  0.5638
  720MOL0     C97071   4.956   0.588   4.471 -0.9044  0.4070 -0.2567
  720MOL0     C97072   4.950   0.628   4.607 -0.2172 -0.5589 -0.7322
  720MOL0     O97073   4.836   0.621   4.684  0.1020  0.3066  0.2434
  720MOL0     C97074   4.717   0.601   4.614 -0.1003 -0.7517 -0.3466
  720MOL0     C97075   4.608   0.623   4.712  0.5760  0.2281 -1.2285
  720MOL0     C97076   4.611   0.513   4.819 -0.1392 -0.2875 -0.0929
  720MOL0     C97077   4.495   0.528   4.909  0.0126  1.6110 -0.2972
  720MOL0     C97078   4.479   0.405   5.005  0.6226  0.0007 -0.0435
  720MOL0     C97079   4.584   0.414   5.121  0.5161 -0.1780  0.0200
  720MOL0     C97080   4.567   0.532   5.225  0.3922 -0.8056  0.6273
  720MOL0     C97081   4.465   0.515   5.338 -0.1701  0.2516 -0.8527
  720MOL0     N97082   4.459   0.644   5.407 -0.3050 -0.4893 -0.2639
  720MOL0     C97083   4.539   0.675   5.511 -0.5859 -0.6147  1.1957
  720MOL0     C97084   4.507   0.798   5.543  0.2940  0.3931  0.5580
  720MOL0     C97085   4.556   0.894   5.657  0.8293  0.4668  1.0538
  720MOL0     C97086   4.690   0.970   5.625 -0.6791 -0.0360  0.1331
  720MOL0     C97087   4.743   1.021   5.764 -0.7632  0.0875 -0.1150
  720MOL0     C97088   4.839   1.148   5.764  0.2722 -0.4821 -0.2988
  720MOL0     O97089   4.939   1.135   5.664 -0.2458 -0.7962 -0.3621
  720MOL0     C97090   5.047   1.049   5.682 -0.5589 -0.1087 -0.4325
  720MOL0     C97091   5.152   1.048   5.588  0.6491  0.5734  1.0124
  720MOL0     C97092   5.262   0.973   5.589  0.4028  0.1472 -1.5435
  720MOL0     C97093   5.282   0.881   5.696  0.9539  0.0603 -0.4085
  720MOL0     C97094   5.389   0.784   5.691 -0.5787 -0.3461  0.5084
  720MOL0     O97095   5.406   0.692   5.788  0.9322 -0.4422 -0.9742
  720MOL0     C97096   5.512   0.617   5.787 -0.1625  0.0196  0.3146
  720MOL0     C97097   5.639   0.660   5.822 -0.2774  0.2042 -0.5718
  720MOL0     C97098   5.742   0.562   5.825 -0.0633 -0.0443 -0.2239
  720MOL0     C97099   5.720   0.430   5.787  1.1903  0.1928  0.5830
  720MOL0     O97100   5.822   0.344   5.804  0.7355  0.8203 -0.0371
  720MOL0     C97101   5.801   0.198   5.796 -0.1544  0.2138  0.2476
  720MOL0     C97102   5.905   0.114   5.872  0.0452 -0.0400 -0.1435
  720MOL0     C97103   5.832   0.032   5.983  0.4814 -0.9887  0.1162
  720MOL0     C97104   5.918  -0.041   6.077  0.2347 -0.6542 -0.3018
  720MOL0     C97105   5.856  -0.089   6.208 -0.2656  0.0594  0.7538
  720MOL0     C97106   5.943  -0.186   6.287 -0.2046  0.4328  0.1665
  720MOL0     C97107   5.861  -0.303   6.350  0.3640  0.1080  0.1616
  720MOL0     C97108   5.928  -0.369   6.478 -0.3678 -1.1739  0.6691
  720MOL0    Cl97109   5.814  -0.468   6.560 -0.0491 -0.3027 -0.0707
  720MOL0     C97110   5.595   0.398   5.735 -0.2727 -0.2360  0.0003
  720MOL0     C97111   5.496   0.489   5.735  0.6771 -0.1969 -0.0665
  720MOL0     O97112   5.475   0.808   5.601 -0.4892  0.2154 -0.0614
  720MOL0     C97113   5.179   0.878   5.789 -0.5472  0.3036  0.4551
  720MOL0     C97114   5.069   0.960   5.790 -0.0844 -0.5291 -0.0756
  720MOL0     N97115   4.403   0.838   5.462 -0.4982  0.1577  0.1116
  720MOL0     N97116   4.386   0.750   5.371  0.0227  0.1301 -0.1006
  720MOL0     C97117   5.062   0.658   4.680  0.8968  0.4367  0.0284
  720MOL0     C97118   5.186   0.660   4.610 -0.8837  0.1058 -0.2375
  720MOL0     C97119   5.559   0.616   4.397  1.3738  0.0827 -0.0442
  720MOL0     C97120   5.553   0.672   4.268  0.2559  0.9296  0.7283
  720MOL0     C97121   5.661   0.696   4.185 -0.4653  0.3093 -0.0581
  720MOL0     C97122   5.787   0.672   4.235  0.4841 -0.3203 -0.3729
  720MOL0     O97123   5.900   0.708   4.171 -0.0384  0.4415 -1.0802
  720MOL0     C97124   5.900   0.822   4.086  0.3026  0.3210  0.5755
  720MOL0     C97125   6.027   0.901   4.087  0.1301 -0.2257  0.5719
  720MOL0     C97126   6.136   0.854   4.014 -0.6207  0.3309 -0.4698
  720MOL0     C97127   6.265   0.932   4.031  1.0427 -0.2293 -0.7187
  720MOL0     C97128   6.240   1.067   3.981 -0.7050  0.7226  0.1893
  720MOL0     C97129   6.238   1.177   3.922 -0.1029  0.0940  0.3562
  720MOL0     C97130   5.798   0.640   4.374 -0.7492 -0.0869  0.9708
  720MOL0     C97131   5.689   0.615   4.454  0.0191 -0.3006  0.6263
  720MOL0     C97132   5.718   0.580   4.602  0.5855  0.6386 -0.0829
  720MOL0     H97133   5.086   0.565   4.304  1.1984  0.9377  0.1266
  720MOL0     H97134   4.869   0.561   4.412 -1.5762  0.0085  0.8836
  720MOL0     H97135   4.716   0.672   4.531  2.8090  0.4547  0.5273
  720MOL0     H97136   4.714   0.497   4.579 -2.4872 -2.0370  3.1074
  720MOL0     H97137   4.506   0.621   4.672 -1.6171 -0.2371  3.6159
  720MOL0     H97138   4.613   0.723   4.756  1.6633  0.1383 -1.1378
  720MOL0     H97139   4.709   0.529   4.865  1.7556  0.0211 -3.9145
  720MOL0     H97140   4.624   0.420   4.762  2.5281 -1.3728  2.0177
  720MOL0     H97141   4.498   0.622   4.965  0.1457  2.8833 -2.3526
  720MOL0     H97142   4.406   0.538   4.846 -1.7239  1.0312  1.9336
  720MOL0     H97143   4.385   0.417   5.059  0.3476  0.1932 -0.5597
  720MOL0     H97144   4.477   0.318   4.939 -0.7532  0.9358 -1.2796
  720MOL0     H97145   4.566   0.322   5.177  1.4771  0.7409  1.9477
  720MOL0     H97146   4.688   0.412   5.086  1.1067  1.3631  1.5257
  720MOL0     H97147   4.530   0.622   5.176 -1.0548  0.1883  3.3422
  720MOL0     H97148   4.663   0.561   5.269  0.6431  2.9608 -1.9152
  720MOL0     H97149   4.370   0.497   5.286 -1.4027  2.9894  0.2653
  720MOL0     H97150   4.497   0.433   5.403 -1.6284  1.1668  1.0978
  720MOL0     H97151   4.617   0.609   5.550 -0.6758 -1.5131 -0.0845
  720MOL0     H97152   4.486   0.975   5.680  2.7193  2.2405  0.8447
  720MOL0     H97153   4.586   0.828   5.739  0.0966 -0.1741  0.8257
  720MOL0     H97154   4.759   0.912   5.564 -1.2589  1.0198 -1.6027
  720MOL0     H97155   4.654   1.052   5.562 -0.5258 -1.5131 -1.9933
  720MOL0     H97156   4.785   0.936   5.818 -0.2317  0.3637 -0.0878
  720MOL0     H97157   4.657   1.043   5.828 -0.5326 -0.5921  0.4416
  720MOL0     H97158   4.888   1.165   5.860  1.4139 -0.2882 -0.8942
  720MOL0     H97159   4.777   1.237   5.748 -1.0583 -1.1825  0.7186
  720MOL0     H97160   5.155   1.124   5.510  1.5113 -0.3209  0.1591
  720MOL0     H97161   5.328   0.988   5.504  2.3290  1.1929  0.0293
  720MOL0     H97162   5.653   0.764   5.849 -1.6084  0.1592  0.3863
  720MOL0     H97163   5.839   0.586   5.866  0.8927 -3.0573 -0.5207
  720MOL0     H97164   5.706   0.178   5.845 -0.0270 -0.3284  0.2831
  720MOL0     H97165   5.795   0.163   5.692 -2.4672  0.4449  0.2568
  720MOL0     H97166   5.956   0.052   5.799  1.8764  0.6439  0.5097
  720MOL0     H97167   5.978   0.188   5.906 -3.0391  2.6263  1.2616
  720MOL0     H97168   5.773   0.102   6.043  0.1041 -0.2780 -1.0389
  720MOL0     H97169   5.768  -0.041   5.931 -1.0322  1.2535 -1.3744
  720MOL0     H97170   6.002   0.026   6.100 -0.3785 -0.0393  0.1857
  720MOL0     H97171   5.962  -0.129   6.030 -1.3585 -2.4351  1.3767
  720MOL0     H97172   5.759  -0.131   6.180 -0.8335  0.4398  2.1086
  720MOL0     H97173   5.832  -0.003   6.270  0.2983  1.1465 -0.4654
  720MOL0     H97174   6.019  -0.226   6.220 -2.0961 -1.6079 -0.8889
  720MOL0     H97175   5.994  -0.131   6.367  1.8330 -2.5284  1.0890
  720MOL0     H97176   5.849  -0.386   6.279 -1.7025  0.2837  0.2324
  720MOL0     H97177   5.761  -0.266   6.376 -1.3614 -2.6670 -1.8777
  720MOL0     H97178   6.013  -0.427   6.441 -0.3749  0.4799 -2.2375
  720MOL0     H97179   5.958  -0.292   6.550  0.5239 -1.7281  0.9007
  720MOL0     H97180   5.574   0.301   5.690  1.7558 -0.9188  0.4068
  720MOL0     H97181   5.407   0.448   5.689  2.1704 -0.6880 -2.7628
  720MOL0     H97182   5.188   0.808   5.871  1.9720 -0.7032 -0.5934
  720MOL0     H97183   5.003   0.951   5.875  0.5595  1.7586  0.7372
  720MOL0     H97184   5.051   0.681   4.786 -1.8692 -1.6811  0.3190
  720MOL0     H97185   5.270   0.701   4.666  0.1642  2.6293 -3.3715
  720MOL0     H97186   5.456   0.693   4.225  0.1810  0.0577  0.4571
  720MOL0     H97187   5.652   0.720   4.080 -0.5530 -1.5194 -0.4949
  720MOL0     H97188   5.821   0.893   4.115 -0.3887 -0.2993  0.2382
  720MOL0     H97189   5.866   0.784   3.990 -0.4833 -2.1986  1.7577
  720MOL0     H97190   6.050   0.908   4.194  1.6666  0.5147  0.2159
  720MOL0     H97191   5.992   0.995   4.042  3.0310 -0.6471 -3.0256
  720MOL0     H97192   6.109   0.854   3.907 -3.2991 -3.5283 -0.0197
  720MOL0     H97193   6.157   0.749   4.036  0.5207  0.8234  0.9254
  720MOL0     H97194   6.304   0.942   4.133 -0.5560  0.3410 -0.1385
  720MOL0     H97195   6.339   0.888   3.963  0.7614 -1.9739  0.0547
  720MOL0     H97196   6.231   1.272   3.873 -0.7369  1.0124  2.1651
  720MOL0     H97197   5.902   0.636   4.406 -0.0691  1.1160 -0.9191
  720MOL0     H97198   5.672   0.661   4.659  1.4767  0.4515  0.9220
  720MOL0     H97199   5.677   0.479   4.613 -1.8489  1.2561 -2.4579
  720MOL0     H97200   5.827   0.579   4.613  0.8057  2.0653 -1.6492
  721MOL0     O97201   3.671  10.930   8.378 -1.0255 -0.7174 -0.2476
  721MOL0     C97202   3.700  11.034   8.440 -0.0777 -0.9770 -0.4141
  721MOL0     O97203   3.602  11.125   8.485 -0.0916  0.7584 -0.5027
  721MOL0     C97204   3.471  11.125   8.444 -0.3859  0.5529  0.5701
  721MOL0     C97205   3.380  11.203   8.515  0.5581 -0.6538 -0.6889
  721MOL0     C97206   3.247  11.223   8.478  0.3340  0.0337 -0.4160
  721MOL0     C97207   3.198  11.159   8.366 -0.8942 -0.0055  0.7976
  721MOL0     O97208   3.078  11.172   8.307  0.0981  0.3212 -0.0175
  721MOL0     C97209   2.983  11.271   8.362  0.5543  0.2310 -0.1075
  721MOL0     C97210   2.851  11.260   8.268 -0.4011 -0.7302  0.1938
  721MOL0     C97211   2.742  11.342   8.327 -0.4541  0.2803 -0.4227
  721MOL0     C97212   2.644  11.270   8.422  0.2333  0.7452 -0.5394
  721MOL0     C97213   2.544  11.372   8.484 -0.5015  0.7730  0.0048
  721MOL0     C97214   2.442  11.291   8.571 -0.1966  0.8009  0.0475
  721MOL0     C97215   2.321  11.385   8.605  0.2982  0.6843 -0.8241
  721MOL0     C97216   2.230  11.305   8.710 -0.4537  0.6861 -0.5932
  721MOL0     N97217   2.237  11.359   8.845 -0.4521  0.0350 -0.0399
  721MOL0     C97218   2.332  11.332   8.938 -0.3476  0.1786  0.6223
  721MOL0     C97219   2.277  11.371   9.055 -0.5896 -0.4170  0.2469
  721MOL0     C97220   2.332  11.354   9.190 -0.5899 -0.1157 -0.2427
  721MOL0     C97221   2.231  11.344   9.309  0.0969  0.4985  1.2810
  721MOL0     C97222   2.207  11.470   9.390  0.2842  0.8903  0.0594
  721MOL0     C97223   2.322  11.535   9.476 -0.0925 -1.0980 -0.7254
  721MOL0     O97224   2.394  11.429   9.542  0.8933  1.0915 -0.2326
  721MOL0     C97225   2.521  11.454   9.592  0.8690  0.3429 -0.5097
  721MOL0     C97226   2.597  11.343   9.628  0.0663 -0.2965  0.8003
  721MOL0     C97227   2.718  11.362   9.683 -1.3071 -0.2013  0.3446
  721MOL0     C97228   2.771  11.496   9.690  0.0606  0.7602 -0.7602
  721MOL0     C97229   2.914  11.501   9.733 -0.6107 -0.5132 -0.1779
  721MOL0     O97230   2.989  11.382   9.745 -0.7460 -0.4814 -0.1731
  721MOL0     C97231   3.128  11.381   9.761  0.6573  0.0989 -0.2407
  721MOL0     C97232   3.180  11.271   9.826  1.0039  0.6476  0.1928
  721MOL0     C97233   3.313  11.255   9.848  0.0493  0.7131  0.8119
  721MOL0     C97234   3.408  11.353   9.809  0.5822  0.5308  0.3379
  721MOL0     O97235   3.540  11.341   9.829 -0.0080  0.8266 -0.0333
  721MOL0     C97236   3.589  11.222   9.891 -0.3754 -0.8357 -0.3275
  721MOL0     C97237   3.744  11.214   9.894 -0.5403  0.7670  0.2304
  721MOL0     C97238   3.787  11.073   9.923 -1.0841 -0.7124  0.0785
  721MOL0     C97239   3.912  11.033   9.838  0.8714  0.0231 -0.1975
  721MOL0     C97240   4.024  11.138   9.853 -0.4164  0.9253  0.0361
  721MOL0     C97241   4.161  11.092   9.802  0.5286  0.4983  0.2755
  721MOL0     C97242   4.235  11.002   9.910  0.3869 -0.0325  1.1353
  721MOL0     C97243   4.367  10.961   9.847 -0.0058 -0.3018  0.1898
  721MOL0    Cl97244   4.475  10.902   9.979 -0.1397 -0.0120  0.3803
  721MOL0     C97245   3.350  11.461   9.733 -0.2097 -0.5256  0.1021
  721MOL0     C97246   3.214  11.479   9.717 -0.0441  0.4289  0.4480
  721MOL0     O97247   2.968  11.609   9.746  0.5449 -0.3663 -0.5527
  721MOL0     C97248   2.696  11.601   9.645 -0.5917 -0.9785 -0.3903
  721MOL0     C97249   2.566  11.580   9.603  0.9467 -0.3311 -0.5139
  721MOL0     N97250   2.157  11.435   9.024  0.2244  0.2817 -0.3997
  721MOL0     N97251   2.134  11.423   8.900  0.4667 -0.4500  0.2787
  721MOL0     C97252   3.285  11.084   8.289  0.2310  0.0826 -0.6439
  721MOL0     C97253   3.420  11.067   8.324 -0.3330  0.6660 -0.2319
  721MOL0     C97254   3.838  11.089   8.453 -0.4614 -0.6716 -0.2960
  721MOL0     C97255   3.854  11.223   8.480 -0.3354 -0.3990  0.4438
  721MOL0     C97256   3.980  11.280   8.497 -0.0190  0.1945  0.0872
  721MOL0     C97257   4.099  11.203   8.494  1.0425 -0.4810  0.7439
  721MOL0     O97258   4.234  11.246   8.513 -0.5598  0.5907  0.0776
  721MOL0     C97259   4.279  11.371   8.566  0.4940 -0.1838 -0.3889
  721MOL0     C97260   4.418  11.361   8.624  0.0932  0.6066 -0.2756
  721MOL0     C97261   4.485  11.496   8.634 -0.3571  0.4997  0.7169
  721MOL0     C97262   4.628  11.490   8.693 -0.0752  0.1917 -0.3088
  721MOL0     C97263   4.633  11.439   8.832 -0.7455 -0.1489 -0.5954
  721MOL0     C97264   4.639  11.384   8.944  0.1680  0.2790  0.3775
  721MOL0     C97265   4.080  11.069   8.459  0.3684  0.3643 -0.2355
  721MOL0     C97266   3.954  11.007   8.440  0.2015 -0.8835  0.9195
  721MOL0     C97267   3.959  10.860   8.414  0.0477 -0.3185 -0.3046
  721MOL0     H97268   3.410  11.261   8.602  1.1135  0.8807 -1.8338
  721MOL0     H97269   3.181  11.274   8.547 -1.2418 -2.4330  0.0517
  721MOL0     H97270   2.961  11.266   8.469 -0.4255  1.7661 -0.2057
  721MOL0     H97271   3.040  11.364   8.351  2.0020 -0.6592 -0.4827
  721MOL0     H97272   2.825  11.154   8.262  3.0833 -1.7610  0.9433
  721MOL0     H97273   2.891  11.293   8.171  2.7785  1.1020  1.9683
  721MOL0     H97274   2.684  11.377   8.241  1.5794  4.4319 -0.3629
  721MOL0     H97275   2.790  11.423   8.383  1.3185 -0.9997 -0.0117
  721MOL0     H97276   2.588  11.193   8.367  1.1632  1.4042 -2.5201
  721MOL0     H97277   2.691  11.215   8.504 -3.8724 -1.0821  0.8659
  721MOL0     H97278   2.586  11.450   8.548 -1.3630  1.4371 -0.2064
  721MOL0     H97279   2.491  11.431   8.408  0.0572  3.1196  1.3273
  721MOL0     H97280   2.393  11.200   8.533 -2.8951  1.7761  0.9998
  721MOL0     H97281   2.493  11.270   8.665 -0.7625 -0.3663  0.1167
  721MOL0     H97282   2.272  11.415   8.512 -1.8764  0.8279  0.2972
  721MOL0     H97283   2.357  11.475   8.656 -2.3834  0.6942  1.3101
  721MOL0     H97284   2.130  11.305   8.666 -0.0673 -0.8359 -1.5674
  721MOL0     H97285   2.260  11.200   8.717  0.4924  1.0638  3.9064
  721MOL0     H97286   2.429  11.286   8.921  0.1438  1.9412 -1.8867
  721MOL0     H97287   2.395  11.265   9.200 -0.5625 -0.0665  0.0208
  721MOL0     H97288   2.398  11.440   9.207  0.0480 -0.9102  1.5084
  721MOL0     H97289   2.140  11.303   9.264  1.5031 -0.3011 -1.0226
  721MOL0     H97290   2.261  11.262   9.374 -3.1309 -3.5388 -1.7495
  721MOL0     H97291   2.139  11.453   9.473  2.4966  1.6505  2.1361
  721MOL0     H97292   2.162  11.550   9.329  1.2498  3.3962  2.4243
  721MOL0     H97293   2.285  11.601   9.555  0.2934  1.1619 -2.3442
  721MOL0     H97294   2.389  11.595   9.413 -1.2228  1.4275  0.3253
  721MOL0     H97295   2.545  11.248   9.624 -1.8993  0.5886  2.9448
  721MOL0     H97296   2.775  11.275   9.715  1.0303  1.4370  0.9488
  721MOL0     H97297   3.111  11.192   9.852  2.7690 -0.0348  3.2709
  721MOL0     H97298   3.343  11.160   9.891  1.2013  1.3603  1.4834
  721MOL0     H97299   3.554  11.217   9.994 -1.4071  0.0306 -0.6156
  721MOL0     H97300   3.544  11.136   9.840 -1.7693 -1.4642  1.8428
  721MOL0     H97301   3.774  11.248   9.794 -1.8649 -2.6149 -1.4749
  721MOL0     H97302   3.783  11.274   9.976  0.3821 -1.7137  1.7151
  721MOL0     H97303   3.816  11.073  10.028 -0.6473  0.2917 -0.0283
  721MOL0     H97304   3.712  10.996   9.906 -1.8524  0.1452 -0.5049
  721MOL0     H97305   3.888  11.019   9.732  1.1469  0.9403 -0.3851
  721MOL0     H97306   3.937  10.934   9.876 -0.6725 -0.3373 -0.0649
  721MOL0     H97307   4.031  11.170   9.957  1.9292 -1.6793  0.7977
  721MOL0     H97308   3.996  11.228   9.798  1.3672  1.1776 -0.4915
  721MOL0     H97309   4.157  11.036   9.708  2.8401 -0.4344  0.6728
  721MOL0     H97310   4.214  11.185   9.778 -0.3818  1.4079  1.6625
  721MOL0     H97311   4.172  10.914   9.922  0.9136 -0.6545 -0.4147
  721MOL0     H97312   4.263  11.054  10.002  0.4575 -1.0437  1.6953
  721MOL0     H97313   4.343  10.889   9.769 -2.1588 -0.7106  1.1489
  721MOL0     H97314   4.418  11.043   9.796  0.5674 -1.1991 -0.7053
  721MOL0     H97315   3.413  11.527   9.675  1.0146 -2.0519 -0.3605
  721MOL0     H97316   3.183  11.560   9.651 -1.1151 -1.3010 -1.3104
  721MOL0     H97317   2.733  11.703   9.653 -2.6511 -0.2552  0.7951
  721MOL0     H97318   2.502  11.664   9.579  0.1367 -0.8581 -0.2592
  721MOL0     H97319   3.247  11.046   8.194  1.2853 -1.5181 -0.4726
  721MOL0     H97320   3.487  11.020   8.254 -0.2745  0.5294 -0.0830
  721MOL0     H97321   3.768  11.287   8.495  1.1170  1.9332 -0.6274
  721MOL0     H97322   3.992  11.386   8.520  1.6720 -0.1470  1.0076
  721MOL0     H97323   4.209  11.392   8.648 -0.6670 -1.7397 -0.9393
  721MOL0     H97324   4.274  11.444   8.485  1.8992 -0.9058 -1.1516
  721MOL0     H97325   4.471  11.300   8.551  0.7942 -1.7812  2.0586
  721MOL0     H97326   4.426  11.306   8.719  0.6112  0.2059 -0.5439
  721MOL0     H97327   4.427  11.562   8.699 -0.8268  0.8724 -0.0656
  721MOL0     H97328   4.485  11.534   8.531 -1.2248  0.3382  0.6484
  721MOL0     H97329   4.702  11.431   8.638  0.6516 -0.6636  1.4944
  721MOL0     H97330   4.674  11.589   8.690 -1.5290  0.8599 -2.0116
  721MOL0     H97331   4.642  11.354   9.047  1.5293 -1.0419  0.0034
  721MOL0     H97332   4.169  11.006   8.449 -0.0040  0.1983 -3.2774
  721MOL0     H97333   4.059  10.817   8.427 -0.4461 -2.0568 -1.9451
  721MOL0     H97334   3.894  10.808   8.485 -0.1069 -0.2809 -0.4178
  721MOL0     H97335   3.912  10.826   8.321 -0.3360  2.3330 -1.1705
  722MOL0     O97336  10.232   2.492   4.880 -0.1184  0.3113  0.2595
  722MOL0     C97337  10.188   2.489   4.999  0.4739 -0.3068  0.4598
  722MOL0     O97338  10.262   2.504   5.111 -0.5642  0.7664 -0.7168
  722MOL0     C97339  10.389   2.546   5.111 -0.8713  0.2759 -0.1319
  722MOL0     C97340  10.497   2.483   5.040  0.5395  0.8315 -0.6581
  722MOL0     C97341  10.627   2.516   5.072 -1.2375 -0.4458  0.7501
  722MOL0     C97342  10.668   2.609   5.166  0.3314  0.4488 -0.8318
  722MOL0     O97343  10.804   2.623   5.194  0.1147  0.0895 -0.2242
  722MOL0     C97344  10.846   2.629   5.337  0.3986 -0.3481  0.1108
  722MOL0     C97345  11.001   2.663   5.334 -0.0065  0.3881 -0.4025
  722MOL0     C97346  11.018   2.797   5.272 -0.5514 -0.4759  1.3322
  722MOL0     C97347  11.165   2.843   5.263  0.3204  0.5257  0.6362
  722MOL0     C97348  11.181   2.990   5.225 -0.8004  0.2178 -0.0096
  722MOL0     C97349  11.336   3.025   5.201  0.9400  0.3947  0.5474
  722MOL0     C97350  11.359   3.179   5.178 -0.6032 -0.0751  0.2905
  722MOL0     C97351  11.500   3.234   5.212  1.3906  0.5951  1.2116
  722MOL0     N97352  11.596   3.156   5.140  0.1146  0.4841  0.8613
  722MOL0     C97353  11.645   3.188   5.009  0.0119 -0.7232 -0.3339
  722MOL0     C97354  11.772   3.130   5.001  0.0263 -0.8382 -0.1020
  722MOL0     C97355  11.862   3.126   4.875 -0.1092 -0.3903 -0.4888
  722MOL0     C97356  12.009   3.162   4.921  0.6257  1.0283 -0.3749
  722MOL0     C97357  12.106   3.046   4.903 -0.5024 -0.3893  0.0655
  722MOL0     C97358  12.239   3.081   4.961 -0.8476  0.7402  0.3740
  722MOL0     O97359  12.330   2.972   4.921  0.2846  0.0500 -0.2425
  722MOL0     C97360  12.458   2.994   4.922 -0.2191 -0.2746  0.4214
  722MOL0     C97361  12.541   2.919   4.836  0.5620 -0.1277  0.6719
  722MOL0     C97362  12.678   2.919   4.842  0.6400 -0.0379  1.0164
  722MOL0     C97363  12.751   2.982   4.945  0.5452 -0.1133 -0.3485
  722MOL0     C97364  12.893   2.966   4.966  0.7038  0.1629  0.4673
  722MOL0     O97365  12.935   2.929   5.093 -0.3248 -0.2464 -0.0086
  722MOL0     C97366  13.069   2.931   5.130  1.1588 -0.1208  0.8999
  722MOL0     C97367  13.170   2.939   5.041 -0.4850  0.2923 -0.0840
  722MOL0     C97368  13.305   2.930   5.090  0.6103  0.0285 -0.3357
  722MOL0     C97369  13.331   2.932   5.233  0.2544 -0.3341  1.3621
  722MOL0     O97370  13.453   2.918   5.277 -0.4372  0.2082  0.3103
  722MOL0     C97371  13.514   2.793   5.251  0.2229  0.3158 -0.7771
  722MOL0     C97372  13.611   2.768   5.370 -0.1045  0.3281 -0.7374
  722MOL0     C97373  13.710   2.652   5.356 -0.5334  0.4683 -0.0590
  722MOL0     C97374  13.645   2.520   5.387  0.2362  0.6922  0.3031
  722MOL0     C97375  13.746   2.418   5.356 -1.1860  0.7254  0.1129
  722MOL0     C97376  13.730   2.279   5.420  0.1238  0.9199  0.4416
  722MOL0     C97377  13.583   2.240   5.435  0.1523 -0.1681 -0.3752
  722MOL0     C97378  13.571   2.096   5.463  0.1025  1.2186  0.6148
  722MOL0    Cl97379  13.603   2.021   5.304 -0.3335 -0.6001  0.4148
  722MOL0     C97380  13.225   2.929   5.321 -0.0367  1.5110 -0.0456
  722MOL0     C97381  13.095   2.929   5.267 -0.5670  0.3261 -0.6528
  722MOL0     O97382  12.962   2.988   4.867  0.3299  0.0545  0.6602
  722MOL0     C97383  12.674   3.053   5.038 -0.6000 -0.2141 -0.9141
  722MOL0     C97384  12.534   3.059   5.027  0.8448 -0.1952  0.4084
  722MOL0     N97385  11.786   3.067   5.122 -0.2768  0.3046  0.0432
  722MOL0     N97386  11.683   3.074   5.202  0.2378 -0.0049 -0.6052
  722MOL0     C97387  10.563   2.683   5.230  1.1637  0.8101  0.2736
  722MOL0     C97388  10.422   2.647   5.203  0.0833  1.1092  0.5744
  722MOL0     C97389  10.042   2.483   5.013 -0.5022  0.2388 -0.3596
  722MOL0     C97390   9.980   2.371   4.955  0.0621  0.0046  0.2423
  722MOL0     C97391   9.851   2.341   4.989  0.7482  0.2935  0.0214
  722MOL0     C97392   9.765   2.429   5.059  0.2398  0.0319 -0.3820
  722MOL0     O97393   9.630   2.401   5.068  0.0101 -0.2440  1.0953
  722MOL0     C97394   9.586   2.268   5.071 -0.6423 -0.0646 -0.2918
  722MOL0     C97395   9.455   2.264   5.144  0.3938 -0.1774  0.2212
  722MOL0     C97396   9.342   2.330   5.061 -0.0757  1.0061  0.1767
  722MOL0     C97397   9.215   2.358   5.140  0.6709 -0.5394 -0.1219
  722MOL0     C97398   9.108   2.257   5.130 -0.6454 -0.7102  0.5457
  722MOL0     C97399   9.018   2.181   5.136  0.2907 -0.1128 -0.3070
  722MOL0     C97400   9.824   2.544   5.119  0.5746 -0.4725  0.1888
  722MOL0     C97401   9.963   2.570   5.093  0.2538 -0.9567 -0.1790
  722MOL0     C97402  10.020   2.697   5.152 -0.1998 -0.4191 -0.1448
  722MOL0     H97403  10.480   2.401   4.970  2.7394 -1.7889  1.6579
  722MOL0     H97404  10.696   2.463   5.008 -1.3758  0.7194 -0.3973
  722MOL0     H97405  10.798   2.711   5.390  1.1583  1.1757 -1.4656
  722MOL0     H97406  10.830   2.529   5.379  2.3595  0.0043  1.8798
  722MOL0     H97407  11.055   2.579   5.288 -0.3906  0.4134 -0.9147
  722MOL0     H97408  11.031   2.671   5.438 -0.0064 -1.1086 -0.2746
  722MOL0     H97409  10.963   2.876   5.324 -1.1327 -1.1082  1.6977
  722MOL0     H97410  10.989   2.796   5.166 -0.5375  0.1773  1.3175
  722MOL0     H97411  11.206   2.828   5.363 -1.9913 -2.9821  1.2084
  722MOL0     H97412  11.212   2.773   5.193  1.3177  0.7178  1.1020
  722MOL0     H97413  11.117   3.013   5.140 -1.7517  0.3487  0.7273
  722MOL0     H97414  11.139   3.053   5.304 -1.3271  1.8486 -1.5149
  722MOL0     H97415  11.395   2.998   5.289 -1.5529  1.2140  2.5948
  722MOL0     H97416  11.366   2.963   5.116  0.4061  1.0339 -0.1154
  722MOL0     H97417  11.290   3.233   5.243  0.4629  1.2269  0.3743
  722MOL0     H97418  11.343   3.209   5.074  0.1619 -1.7275 -0.3377
  722MOL0     H97419  11.511   3.341   5.195 -1.2242  0.9681  1.5523
  722MOL0     H97420  11.522   3.228   5.320 -1.0353 -0.6667  1.7098
  722MOL0     H97421  11.592   3.249   4.936 -2.3150 -1.5991  0.5389
  722MOL0     H97422  11.859   3.026   4.829  0.7149 -0.2228 -0.9238
  722MOL0     H97423  11.828   3.212   4.816  0.6684  1.6002  1.8246
  722MOL0     H97424  12.036   3.245   4.855 -1.3852  1.4825 -0.6822
  722MOL0     H97425  12.012   3.197   5.024 -4.0254  2.0008 -0.3447
  722MOL0     H97426  12.111   3.024   4.796  1.5668 -0.3310  0.1130
  722MOL0     H97427  12.068   2.956   4.952  0.6903 -1.5613 -1.0899
  722MOL0     H97428  12.243   3.098   5.069  2.0117 -0.9844  0.6481
  722MOL0     H97429  12.262   3.172   4.904 -2.1338 -0.6915 -2.6895
  722MOL0     H97430  12.493   2.846   4.771  1.0983 -1.1190  1.3650
  722MOL0     H97431  12.723   2.855   4.766 -0.0308  1.6241 -0.8780
  722MOL0     H97432  13.163   2.940   4.932  0.1376  0.9730 -0.1288
  722MOL0     H97433  13.389   2.928   5.021 -0.1424  1.3445 -1.3348
  722MOL0     H97434  13.441   2.713   5.244 -1.0210  1.3957 -0.5700
  722MOL0     H97435  13.572   2.809   5.159  1.4030 -0.3658 -0.1686
  722MOL0     H97436  13.667   2.862   5.375 -0.2250  0.3994 -0.7068
  722MOL0     H97437  13.559   2.761   5.467 -0.2426 -0.8246 -0.8791
  722MOL0     H97438  13.758   2.654   5.257  0.7241 -0.3298  0.5135
  722MOL0     H97439  13.794   2.666   5.424  1.5191 -2.4286 -1.7945
  722MOL0     H97440  13.554   2.515   5.327 -0.2252  1.2487  0.9371
  722MOL0     H97441  13.629   2.510   5.495 -2.5845 -3.6288 -0.2651
  722MOL0     H97442  13.843   2.455   5.390 -0.6931  0.0746 -0.5397
  722MOL0     H97443  13.754   2.419   5.247 -2.2115 -0.3212  0.0016
  722MOL0     H97444  13.780   2.209   5.353  0.6706  1.6915  0.0257
  722MOL0     H97445  13.781   2.283   5.516 -1.0635 -1.5750  1.2818
  722MOL0     H97446  13.533   2.263   5.340  0.8521  0.4462 -0.6023
  722MOL0     H97447  13.532   2.292   5.516 -0.1902  0.8563 -1.2130
  722MOL0     H97448  13.641   2.066   5.542 -1.3549  0.8350  1.8114
  722MOL0     H97449  13.474   2.064   5.502  1.0438 -0.5666  1.6100
  722MOL0     H97450  13.247   2.907   5.425 -1.3527  1.8713  0.3321
  722MOL0     H97451  13.015   2.910   5.337  0.5155 -0.0984  0.5103
  722MOL0     H97452  12.735   3.103   5.112 -1.8017  0.0027 -0.0414
  722MOL0     H97453  12.469   3.108   5.099  0.9125  0.1937  0.2117
  722MOL0     H97454  10.593   2.749   5.311  3.9174 -1.2784  1.1333
  722MOL0     H97455  10.351   2.703   5.264  0.7607  0.7622  1.7176
  722MOL0     H97456  10.034   2.315   4.879  1.2997  1.5313 -0.0542
  722MOL0     H97457   9.812   2.243   4.964 -0.2432  0.3040  1.4073
  722MOL0     H97458   9.660   2.209   5.125  1.7431  2.7434 -0.2444
  722MOL0     H97459   9.584   2.231   4.968  1.6592  1.6891 -1.0396
  722MOL0     H97460   9.465   2.301   5.247 -2.9698 -2.4213  1.5338
  722MOL0     H97461   9.430   2.159   5.156 -0.7433 -0.1101 -1.3761
  722MOL0     H97462   9.323   2.279   4.966  1.2318  0.7404  0.0384
  722MOL0     H97463   9.376   2.431   5.037  0.8736  0.5537 -0.4120
  722MOL0     H97464   9.244   2.377   5.244  0.9702  3.5428 -0.7684
  722MOL0     H97465   9.167   2.450   5.105 -0.8780 -0.3418  2.2414
  722MOL0     H97466   8.947   2.101   5.137 -1.5115  1.4060 -0.5798
  722MOL0     H97467   9.764   2.615   5.175  1.7478  0.0010  0.8827
  722MOL0     H97468   9.939   2.770   5.157  0.0158  0.0187 -2.2875
  722MOL0     H97469  10.056   2.687   5.255 -2.7493  4.8086  1.5748
  722MOL0     H97470  10.093   2.753   5.093  2.1089 -0.1587  2.7192
  723MOL0     O97471   4.660   9.295   7.522  0.6436 -0.4632  0.4647
  723MOL0     C97472   4.695   9.390   7.593  0.2562  0.7928 -0.3013
  723MOL0     O97473   4.820   9.403   7.642 -0.0236  0.3595  0.0496
  723MOL0     C97474   4.915   9.301   7.620  0.2882  0.0769  0.6948
  723MOL0     C97475   4.885   9.163   7.642 -0.7492 -0.8533 -0.7531
  723MOL0     C97476   4.991   9.072   7.636  0.2803 -0.7273 -0.2696
  723MOL0     C97477   5.116   9.105   7.575 -0.3766 -0.1752  0.1658
  723MOL0     O97478   5.204   9.000   7.568  0.4090 -0.4745 -0.3224
  723MOL0     C97479   5.299   8.995   7.459 -0.3007  0.6308  0.2606
  723MOL0     C97480   5.364   8.863   7.458  0.7002 -0.5559  0.8458
  723MOL0     C97481   5.484   8.871   7.356  0.6052  0.0749 -0.8625
  723MOL0     C97482   5.563   8.743   7.346  0.0464  0.4703 -0.6616
  723MOL0     C97483   5.659   8.747   7.228 -0.6131  0.0361  0.1731
  723MOL0     C97484   5.590   8.721   7.088 -0.7130  0.4878 -0.1873
  723MOL0     C97485   5.689   8.737   6.962  0.5698  0.2913  0.9567
  723MOL0     C97486   5.646   8.647   6.840  0.4450  0.2222 -0.6825
  723MOL0     N97487   5.762   8.568   6.795  0.5642 -0.9690 -0.1869
  723MOL0     C97488   5.832   8.579   6.675  0.0332 -0.3034 -0.3601
  723MOL0     C97489   5.936   8.491   6.691  0.5366 -0.3371  0.0262
  723MOL0     C97490   6.051   8.479   6.591  0.2588  0.7155  0.5688
  723MOL0     C97491   6.166   8.568   6.626  1.5879  0.2979 -0.2854
  723MOL0     C97492   6.290   8.505   6.565 -0.3998 -0.3154 -0.5826
  723MOL0     C97493   6.411   8.578   6.613  0.6180 -0.1380 -0.1286
  723MOL0     O97494   6.528   8.549   6.538  0.2385  0.4331  1.0292
  723MOL0     C97495   6.547   8.628   6.423  0.6629  0.2899  0.2727
  723MOL0     C97496   6.462   8.728   6.367  0.0893 -0.4642  1.3637
  723MOL0     C97497   6.506   8.806   6.260  0.1981 -0.2567 -1.1104
  723MOL0     C97498   6.621   8.771   6.188  0.0241  0.0793 -0.2831
  723MOL0     C97499   6.661   8.842   6.061  0.3261  0.1783 -0.4180
  723MOL0     O97500   6.562   8.916   6.004 -0.6932  0.1564  0.6770
  723MOL0     C97501   6.578   8.977   5.882 -0.2024  0.4458  0.2033
  723MOL0     C97502   6.693   9.033   5.828 -0.6344 -0.9868 -0.2375
  723MOL0     C97503   6.699   9.100   5.703 -0.0574  0.3677 -0.0940
  723MOL0     C97504   6.584   9.123   5.632 -1.2110  0.2849  0.3690
  723MOL0     O97505   6.575   9.194   5.512 -0.3751  1.1657  0.2820
  723MOL0     C97506   6.691   9.209   5.425  0.3255  0.3918 -0.8353
  723MOL0     C97507   6.713   9.082   5.340  0.2250  0.2758  0.3268
  723MOL0     C97508   6.835   9.097   5.247 -0.0856 -1.6363  0.5850
  723MOL0     C97509   6.970   9.151   5.300  0.0522 -0.0539  0.6307
  723MOL0     C97510   7.091   9.168   5.202 -0.3055 -0.1180  0.7276
  723MOL0     C97511   7.205   9.255   5.262  0.7583 -0.2435 -0.2175
  723MOL0     C97512   7.336   9.235   5.190 -0.3200 -0.1687 -0.2351
  723MOL0     C97513   7.446   9.191   5.282 -0.0181  0.7133 -1.0674
  723MOL0    Cl97514   7.490   9.327   5.390  0.1347 -0.1329  0.4577
  723MOL0     C97515   6.463   9.078   5.690  0.3706 -0.2629  0.1114
  723MOL0     C97516   6.461   9.017   5.813 -0.1435 -0.1933  0.2161
  723MOL0     O97517   6.770   8.798   6.008  0.3040 -0.4045  0.0151
  723MOL0     C97518   6.710   8.679   6.243  0.1577 -0.4661  0.8735
  723MOL0     C97519   6.670   8.602   6.356  0.0011 -0.1923 -0.7301
  723MOL0     N97520   5.901   8.417   6.803 -0.2081  0.2738  0.5180
  723MOL0     N97521   5.795   8.458   6.862  0.0584  0.6643  0.0545
  723MOL0     C97522   5.142   9.244   7.546 -0.3556  0.4694 -0.2549
  723MOL0     C97523   5.040   9.336   7.574  0.6869 -0.5926 -0.1879
  723MOL0     C97524   4.606   9.499   7.608  0.1650  0.2446  0.4980
  723MOL0     C97525   4.659   9.628   7.588 -0.2918 -0.3677  0.2430
  723MOL0     C97526   4.583   9.750   7.610 -0.5670  0.9353  0.0214
  723MOL0     C97527   4.451   9.734   7.649  0.0138 -1.1021  0.1187
  723MOL0     O97528   4.372   9.839   7.701  0.2945  0.5976  0.1211
  723MOL0     C97529   4.413   9.976   7.693  1.3037 -0.4439 -0.4935
  723MOL0     C97530   4.282  10.062   7.737 -0.8599  0.0582 -0.3101
  723MOL0     C97531   4.166  10.047   7.641  0.3884  0.1595  0.6142
  723MOL0     C97532   4.037   9.983   7.700  0.6432  0.3329 -0.1857
  723MOL0     C97533   3.968  10.081   7.791 -0.4459  1.0687  0.8463
  723MOL0     C97534   3.927  10.184   7.840 -0.6042  0.0285 -0.6126
  723MOL0     C97535   4.394   9.614   7.659 -1.6633  0.7442 -0.3740
  723MOL0     C97536   4.469   9.496   7.632 -0.2692 -0.1784 -0.1616
  723MOL0     C97537   4.407   9.365   7.640  0.4237 -0.1598  1.0961
  723MOL0     H97538   4.790   9.141   7.688 -0.9915  2.8178  0.8308
  723MOL0     H97539   4.986   8.965   7.655  2.8083 -0.5705  1.7329
  723MOL0     H97540   5.247   9.022   7.366 -2.8432  0.1303  1.4502
  723MOL0     H97541   5.380   9.067   7.478 -0.4413  0.4548  1.5868
  723MOL0     H97542   5.291   8.790   7.424 -0.9747  1.0688  0.7903
  723MOL0     H97543   5.400   8.836   7.557  1.1910  1.1115  1.1622
  723MOL0     H97544   5.550   8.948   7.396 -2.3688  2.6425 -0.5450
  723MOL0     H97545   5.454   8.905   7.256  1.4014 -0.5225 -1.3141
  723MOL0     H97546   5.617   8.738   7.441  0.9254 -0.1129 -1.1782
  723MOL0     H97547   5.490   8.662   7.336  0.9836 -1.1419  3.3394
  723MOL0     H97548   5.703   8.847   7.218 -1.4757  0.2198 -2.6303
  723MOL0     H97549   5.735   8.668   7.230  0.9006  1.3830 -1.0611
  723MOL0     H97550   5.540   8.624   7.079  0.8810 -0.4873  0.9149
  723MOL0     H97551   5.509   8.793   7.078 -2.5696 -1.2517  1.3908
  723MOL0     H97552   5.798   8.733   6.976  1.3544 -3.6753 -3.3940
  723MOL0     H97553   5.685   8.840   6.927  1.6114 -0.3668 -1.3502
  723MOL0     H97554   5.565   8.586   6.881  0.0471  2.4336  2.1678
  723MOL0     H97555   5.604   8.709   6.761 -1.2250 -1.3988 -1.1437
  723MOL0     H97556   5.814   8.646   6.592  3.9242 -2.3405 -3.1344
  723MOL0     H97557   6.080   8.375   6.608 -0.1354  0.5433  0.1937
  723MOL0     H97558   6.021   8.507   6.490  1.4292 -0.8569 -0.2555
  723MOL0     H97559   6.155   8.671   6.592  2.8310 -0.1550 -2.2384
  723MOL0     H97560   6.163   8.571   6.735  0.5929 -0.3406 -0.2836
  723MOL0     H97561   6.279   8.527   6.458 -1.1606 -0.7842 -0.6062
  723MOL0     H97562   6.302   8.397   6.581  1.7105 -0.3288 -1.9519
  723MOL0     H97563   6.442   8.549   6.714  1.1319 -0.3407 -0.3377
  723MOL0     H97564   6.382   8.683   6.602 -1.9804 -0.8857 -1.1384
  723MOL0     H97565   6.369   8.762   6.411  1.1203 -1.0986  4.2211
  723MOL0     H97566   6.444   8.887   6.223  1.1815  1.7203  1.3092
  723MOL0     H97567   6.784   9.019   5.885  0.7253 -3.3336 -2.7629
  723MOL0     H97568   6.790   9.139   5.659 -0.0024 -2.2143 -2.6351
  723MOL0     H97569   6.657   9.280   5.349 -1.6479 -0.9187 -1.2341
  723MOL0     H97570   6.780   9.251   5.472  0.1704  1.0690 -1.1232
  723MOL0     H97571   6.727   8.999   5.409  3.5391 -1.0360 -1.7036
  723MOL0     H97572   6.624   9.062   5.280 -1.8436  0.0472  3.2877
  723MOL0     H97573   6.854   9.004   5.193  1.7335 -0.2387 -1.3341
  723MOL0     H97574   6.796   9.156   5.164 -0.7569 -1.7477  0.8162
  723MOL0     H97575   7.003   9.088   5.383 -3.9293 -0.4510  2.0883
  723MOL0     H97576   6.947   9.251   5.338  0.0380 -0.0073  0.4984
  723MOL0     H97577   7.040   9.214   5.117 -1.0363  0.2150  1.3296
  723MOL0     H97578   7.121   9.067   5.173  0.7434  1.0205 -2.7143
  723MOL0     H97579   7.169   9.357   5.249 -1.1497 -0.7581  0.6381
  723MOL0     H97580   7.209   9.232   5.369 -3.8728 -1.2056 -0.0370
  723MOL0     H97581   7.363   9.332   5.146 -2.2850 -0.5637 -2.5405
  723MOL0     H97582   7.325   9.157   5.114 -0.6700 -0.5792  0.2269
  723MOL0     H97583   7.399   9.107   5.333  1.0473 -0.1955 -1.5261
  723MOL0     H97584   7.534   9.146   5.234  1.1291 -0.5384  1.9682
  723MOL0     H97585   6.368   9.088   5.640  0.9885  1.5367 -0.8049
  723MOL0     H97586   6.367   9.015   5.867 -1.6173  2.1527 -2.0134
  723MOL0     H97587   6.804   8.675   6.188 -0.5562 -0.4468 -0.3896
  723MOL0     H97588   6.735   8.527   6.398 -0.7165  0.3940  1.5675
  723MOL0     H97589   5.233   9.288   7.506 -1.0314  0.9825 -1.2855
  723MOL0     H97590   5.048   9.442   7.549 -0.7189 -0.1493  1.0580
  723MOL0     H97591   4.762   9.651   7.563 -0.7964  1.6410 -0.2284
  723MOL0     H97592   4.637   9.844   7.610 -1.3639  1.4319 -1.5133
  723MOL0     H97593   4.446   9.999   7.591  1.1276 -0.5425 -0.5738
  723MOL0     H97594   4.493   9.985   7.768 -0.1195 -0.6190  1.1096
  723MOL0     H97595   4.310  10.168   7.735 -1.0509  0.1097 -1.5699
  723MOL0     H97596   4.258  10.044   7.842  1.2223 -2.9497 -0.2315
  723MOL0     H97597   4.201   9.982   7.560  0.0176 -2.0588  2.1549
  723MOL0     H97598   4.136  10.139   7.589  2.4946  0.2648 -0.5337
  723MOL0     H97599   3.971   9.945   7.621  2.1255 -3.7510  0.2982
  723MOL0     H97600   4.062   9.894   7.758 -1.7205 -0.1793  0.1632
  723MOL0     H97601   3.892  10.275   7.885 -1.5569 -0.3788 -0.5024
  723MOL0     H97602   4.293   9.600   7.696 -0.4587  2.9321  4.5096
  723MOL0     H97603   4.305   9.369   7.678 -0.8472 -1.6789 -1.7881
  723MOL0     H97604   4.392   9.309   7.547  0.5538 -0.5879  1.3298
  723MOL0     H97605   4.459   9.290   7.701 -0.2381  0.3507  2.3127
  724MOL0     O97606   9.938   8.786   5.643  0.0892 -0.3705 -0.0743
  724MOL0     C97607   9.956   8.892   5.584  0.5377  0.0391 -0.3583
  724MOL0     O97608   9.872   8.949   5.496 -0.4482  0.2162 -0.3126
  724MOL0     C97609   9.758   8.873   5.461 -0.1316 -0.1082 -0.1856
  724MOL0     C97610   9.628   8.900   5.516 -0.3119 -0.2593 -0.5667
  724MOL0     C97611   9.507   8.851   5.464  0.2676  0.0849 -0.4494
  724MOL0     C97612   9.518   8.764   5.355 -0.5960 -1.0621 -0.5282
  724MOL0     O97613   9.413   8.692   5.310  0.3091  0.1397  0.1998
  724MOL0     C97614   9.281   8.754   5.339  0.1537  0.7464  0.1268
  724MOL0     C97615   9.168   8.677   5.267 -0.8781 -0.6613  0.0302
  724MOL0     C97616   9.031   8.717   5.323  0.8425  0.3513  0.4394
  724MOL0     C97617   8.909   8.646   5.245 -0.3321  0.5713  0.8637
  724MOL0     C97618   8.771   8.705   5.272  0.4531  0.2147  0.3975
  724MOL0     C97619   8.653   8.641   5.195  0.3898 -0.2368 -0.8387
  724MOL0     C97620   8.536   8.739   5.188 -0.5639 -0.4889 -0.3507
  724MOL0     C97621   8.407   8.682   5.130 -0.7441  0.1970 -0.1939
  724MOL0     N97622   8.358   8.569   5.207  0.0631  0.5792  0.0682
  724MOL0     C97623   8.337   8.567   5.343  0.1390  0.0217  0.2405
  724MOL0     C97624   8.293   8.442   5.369 -0.1578 -0.4632  0.3863
  724MOL0     C97625   8.278   8.387   5.503 -0.5824  0.8004 -0.3040
  724MOL0     C97626   8.417   8.318   5.536  0.5076  0.8563 -0.5664
  724MOL0     C97627   8.400   8.231   5.666  0.2378  0.0743 -0.5867
  724MOL0     C97628   8.518   8.157   5.714  0.7614 -0.6359 -0.6293
  724MOL0     O97629   8.613   8.253   5.753 -0.1232 -0.2895  0.0947
  724MOL0     C97630   8.713   8.224   5.847 -0.2316  0.0089 -0.2082
  724MOL0     C97631   8.757   8.325   5.939  0.7164 -0.1853  0.1691
  724MOL0     C97632   8.851   8.297   6.032  0.7303  0.1841 -0.4088
  724MOL0     C97633   8.919   8.170   6.031  0.0729 -0.0341 -0.1169
  724MOL0     C97634   9.029   8.151   6.127  0.4648 -0.1604 -0.0589
  724MOL0     O97635   9.135   8.079   6.091  0.1016 -0.4872  0.0506
  724MOL0     C97636   9.240   8.032   6.174 -0.3327 -0.1398 -0.5562
  724MOL0     C97637   9.256   8.053   6.315  0.6668  0.0506  0.7924
  724MOL0     C97638   9.356   8.002   6.392 -0.2463  1.1186  0.2868
  724MOL0     C97639   9.447   7.915   6.336  1.1069 -0.0160 -1.1460
  724MOL0     O97640   9.521   7.846   6.435  0.4415  0.0921  0.7809
  724MOL0     C97641   9.557   7.714   6.399 -0.5369  0.2293 -1.4072
  724MOL0     C97642   9.591   7.632   6.523 -1.0571 -0.8963  0.1014
  724MOL0     C97643   9.730   7.689   6.579  0.5241 -0.2496  0.1051
  724MOL0     C97644   9.795   7.571   6.652  0.3348 -1.0884  0.6546
  724MOL0     C97645   9.931   7.627   6.703 -0.5956 -0.5464 -0.2131
  724MOL0     C97646  10.043   7.519   6.704 -0.3105  0.3838 -0.3886
  724MOL0     C97647  10.166   7.568   6.786 -0.0977 -0.9475 -0.0642
  724MOL0     C97648  10.270   7.447   6.807 -0.2539 -0.0290  0.3527
  724MOL0    Cl97649  10.398   7.457   6.686  0.4052 -0.0217 -0.0971
  724MOL0     C97650   9.442   7.900   6.189  0.1511  0.1527 -1.4162
  724MOL0     C97651   9.336   7.953   6.110 -0.6243  0.2502 -0.0682
  724MOL0     O97652   9.012   8.204   6.239 -0.0981  0.0075 -0.2898
  724MOL0     C97653   8.878   8.073   5.939  0.5839 -0.6849 -0.3593
  724MOL0     C97654   8.773   8.095   5.848 -0.4836 -0.1442  0.3016
  724MOL0     N97655   8.290   8.373   5.250  0.2878  0.2788 -0.4067
  724MOL0     N97656   8.320   8.454   5.153  0.3632 -0.1002  0.0638
  724MOL0     C97657   9.644   8.734   5.296  0.0239  0.3448  0.5066
  724MOL0     C97658   9.767   8.791   5.349  0.3927 -0.0146 -0.8734
  724MOL0     C97659  10.081   8.957   5.626 -0.8231  0.6824  0.4938
  724MOL0     C97660  10.108   8.968   5.761 -0.2121  1.0534  0.2825
  724MOL0     C97661  10.222   9.022   5.816 -0.5253 -0.3297  0.6263
  724MOL0     C97662  10.323   9.067   5.729  0.7802  0.2157 -0.5428
  724MOL0     O97663  10.449   9.101   5.775 -0.2306  0.1770  0.6207
  724MOL0     C97664  10.539   8.996   5.805 -1.1067  0.3754  0.3091
  724MOL0     C97665  10.674   9.028   5.873  0.0538  1.0868  0.6287
  724MOL0     C97666  10.654   9.032   6.030  0.3451 -0.0778 -0.5762
  724MOL0     C97667  10.785   8.975   6.093  0.2805 -0.0632 -0.3572
  724MOL0     C97668  10.777   8.827   6.113  0.1602 -0.2454  0.6163
  724MOL0     C97669  10.743   8.709   6.145  0.6740 -0.0854 -0.2545
  724MOL0     C97670  10.301   9.043   5.592  0.4970  0.1457  0.1683
  724MOL0     C97671  10.186   9.001   5.537  0.5833  0.0476  0.3635
  724MOL0     C97672  10.177   8.977   5.385  0.0406 -0.4086  0.0994
  724MOL0     H97673   9.622   8.962   5.604 -3.1021  1.4085 -1.8100
  724MOL0     H97674   9.418   8.875   5.522 -0.1334  2.1195 -1.7952
  724MOL0     H97675   9.258   8.721   5.441  0.4868 -3.0574 -0.8598
  724MOL0     H97676   9.278   8.861   5.316 -1.7676  0.9288  0.9987
  724MOL0     H97677   9.193   8.571   5.269  0.5573 -0.3375  1.9681
  724MOL0     H97678   9.172   8.705   5.161  2.6486 -2.6192 -0.5075
  724MOL0     H97679   9.019   8.825   5.314  0.7228  0.3303  0.3476
  724MOL0     H97680   9.022   8.682   5.426 -0.5076  0.1735  0.2868
  724MOL0     H97681   8.930   8.662   5.138 -2.9051  1.6829  0.4692
  724MOL0     H97682   8.899   8.541   5.274  2.6900  0.1360  0.7032
  724MOL0     H97683   8.754   8.693   5.379 -2.8440  2.1013  0.2514
  724MOL0     H97684   8.770   8.812   5.248 -2.2680 -0.2583 -2.1957
  724MOL0     H97685   8.672   8.611   5.092 -5.5201  0.4980 -2.5228
  724MOL0     H97686   8.624   8.554   5.255 -2.0674  1.5301  0.7607
  724MOL0     H97687   8.570   8.822   5.125  1.8647 -1.1553 -0.0037
  724MOL0     H97688   8.516   8.781   5.287 -0.6480 -0.2315 -0.4751
  724MOL0     H97689   8.327   8.757   5.131 -2.4486 -1.5326  1.4334
  724MOL0     H97690   8.432   8.651   5.028 -1.5399 -3.2240  0.5349
  724MOL0     H97691   8.352   8.652   5.408 -0.3909  1.1140 -1.0029
  724MOL0     H97692   8.275   8.477   5.566 -0.5298  1.0202 -0.6099
  724MOL0     H97693   8.194   8.323   5.528  0.8898 -0.6140  1.3244
  724MOL0     H97694   8.459   8.261   5.453 -1.3570 -1.3825 -0.0771
  724MOL0     H97695   8.488   8.398   5.560 -0.2607  1.3969 -0.0387
  724MOL0     H97696   8.324   8.156   5.641 -0.2176  0.2302  0.3094
  724MOL0     H97697   8.357   8.297   5.741 -1.6711  1.3022 -2.6517
  724MOL0     H97698   8.559   8.099   5.631 -0.1803 -3.7759  0.9621
  724MOL0     H97699   8.491   8.094   5.799  0.7576 -1.0955 -0.9668
  724MOL0     H97700   8.706   8.420   5.938 -1.7150 -1.3834 -1.5359
  724MOL0     H97701   8.863   8.363   6.118  0.2242 -0.3289  0.0656
  724MOL0     H97702   9.180   8.105   6.371 -1.9492 -0.2012 -2.2187
  724MOL0     H97703   9.343   8.011   6.499 -0.5537 -0.2394  0.3787
  724MOL0     H97704   9.468   7.665   6.359  0.5400 -2.7773 -0.4157
  724MOL0     H97705   9.640   7.712   6.328  1.1217 -3.0673  0.3939
  724MOL0     H97706   9.515   7.646   6.600 -0.9766 -0.4261  0.0983
  724MOL0     H97707   9.588   7.530   6.485 -0.4166  0.1373 -3.0686
  724MOL0     H97708   9.788   7.718   6.491 -1.3931  1.5683 -0.6428
  724MOL0     H97709   9.713   7.773   6.648 -0.1961 -0.4291  0.1547
  724MOL0     H97710   9.804   7.503   6.568 -0.6603 -0.9954  0.4610
  724MOL0     H97711   9.742   7.521   6.734  2.1895 -0.0286  2.6118
  724MOL0     H97712   9.925   7.671   6.803 -1.4821  1.4317 -1.0645
  724MOL0     H97713   9.962   7.700   6.628 -2.6309 -0.3903 -0.9541
  724MOL0     H97714  10.002   7.424   6.740 -0.0264 -1.5876 -4.6971
  724MOL0     H97715  10.087   7.501   6.606  0.6944 -0.6064  0.2156
  724MOL0     H97716  10.141   7.618   6.880  2.1497  6.8300 -2.8104
  724MOL0     H97717  10.216   7.651   6.735 -2.1107  0.1573 -0.3172
  724MOL0     H97718  10.318   7.459   6.904  2.9311 -1.3785 -0.9227
  724MOL0     H97719  10.224   7.349   6.795 -0.7283  0.3492 -1.1470
  724MOL0     H97720   9.509   7.839   6.130  0.8510  1.2952 -1.8217
  724MOL0     H97721   9.332   7.935   6.003  1.4120 -2.2939  0.1932
  724MOL0     H97722   8.927   7.976   5.937 -2.5267 -2.3907 -1.8875
  724MOL0     H97723   8.758   8.007   5.787 -1.4954 -0.9267  1.6129
  724MOL0     H97724   9.646   8.656   5.220  1.3475  1.1935 -0.3823
  724MOL0     H97725   9.859   8.762   5.299 -0.0018 -0.8627 -1.1210
  724MOL0     H97726  10.034   8.926   5.828 -1.0976 -0.6456 -1.6667
  724MOL0     H97727  10.230   9.044   5.922  0.3199  1.2027  0.2758
  724MOL0     H97728  10.565   8.946   5.711  0.7037 -2.1282  2.0467
  724MOL0     H97729  10.488   8.915   5.857 -1.2147 -0.2885 -0.7957
  724MOL0     H97730  10.723   9.112   5.824  1.1905  0.0800 -0.0048
  724MOL0     H97731  10.738   8.943   5.847 -2.5188 -1.4460  1.9881
  724MOL0     H97732  10.570   8.969   6.063  0.7519 -0.1970  0.2530
  724MOL0     H97733  10.627   9.132   6.065 -1.8388 -1.1611  1.1297
  724MOL0     H97734  10.862   9.002   6.020  0.4530  1.4085  0.3413
  724MOL0     H97735  10.808   9.019   6.190  1.8740  2.4817 -1.7680
  724MOL0     H97736  10.713   8.614   6.183 -2.2843  0.1860 -1.5923
  724MOL0     H97737  10.385   9.065   5.527 -0.9153  0.2285 -1.7343
  724MOL0     H97738  10.095   9.036   5.343  0.7854  1.4586  1.1184
  724MOL0     H97739  10.276   9.002   5.345 -0.0949 -0.4903 -0.3016
  724MOL0     H97740  10.158   8.872   5.363  2.7553 -0.9232 -0.1118
  725MOL0     O97741   4.248   3.978   8.059 -0.4665  0.6705  0.2796
  725MOL0     C97742   4.156   3.989   8.143  0.4499  0.1177  0.4595
  725MOL0     O97743   4.157   4.059   8.264 -0.1637 -0.0694  0.6658
  725MOL0     C97744   4.274   4.121   8.294 -0.1322  0.4757 -0.4063
  725MOL0     C97745   4.394   4.051   8.307 -0.7465 -0.2135 -0.6937
  725MOL0     C97746   4.514   4.120   8.332  0.1567  0.5643  0.1548
  725MOL0     C97747   4.515   4.255   8.364  0.7326  0.6188  0.0771
  725MOL0     O97748   4.638   4.299   8.391  0.5637 -0.4129  0.8253
  725MOL0     C97749   4.664   4.439   8.418 -0.6995 -0.6367 -0.2328
  725MOL0     C97750   4.674   4.484   8.567 -0.6426  0.0529  0.0950
  725MOL0     C97751   4.790   4.398   8.642  1.0646 -1.2127 -0.2141
  725MOL0     C97752   4.926   4.390   8.578  0.7522 -0.1603  0.1594
  725MOL0     C97753   5.034   4.339   8.669 -0.1758 -0.0821 -0.0955
  725MOL0     C97754   5.173   4.378   8.625  0.2136 -0.5434  0.5208
  725MOL0     C97755   5.290   4.296   8.692  1.0259  0.6554  0.0999
  725MOL0     C97756   5.426   4.327   8.631  0.1022 -0.5545  0.0986
  725MOL0     N97757   5.525   4.233   8.677  0.2541 -0.0892 -1.1044
  725MOL0     C97758   5.522   4.100   8.639 -0.7780 -0.5088  0.8326
  725MOL0     C97759   5.634   4.043   8.692 -0.3926  0.3416  0.7405
  725MOL0     C97760   5.681   3.897   8.677  0.5370 -0.4541 -0.0330
  725MOL0     C97761   5.642   3.805   8.807 -0.9077 -0.6812  0.8115
  725MOL0     C97762   5.670   3.663   8.778 -0.0960 -0.6813  0.6117
  725MOL0     C97763   5.653   3.582   8.904 -0.7977 -0.8401 -0.3019
  725MOL0     O97764   5.749   3.621   9.004  0.6433 -0.8254  0.1937
  725MOL0     C97765   5.865   3.557   9.008 -0.0747  0.0002 -0.1677
  725MOL0     C97766   5.938   3.582   9.121 -0.1875 -0.2464  0.6542
  725MOL0     C97767   6.060   3.513   9.144 -0.6588 -0.7333 -0.1368
  725MOL0     C97768   6.101   3.413   9.049  0.1940 -0.6577  0.0727
  725MOL0     C97769   6.234   3.340   9.063 -0.1399  0.5986  0.3020
  725MOL0     O97770   6.323   3.381   9.160  0.0391  0.6017 -0.2217
  725MOL0     C97771   6.444   3.329   9.196 -0.2308  0.7782 -0.0217
  725MOL0     C97772   6.506   3.216   9.144  0.8631  0.5499 -0.0962
  725MOL0     C97773   6.636   3.199   9.188 -0.1556  0.0748  0.1819
  725MOL0     C97774   6.708   3.282   9.274 -0.4346  0.3286  0.0711
  725MOL0     O97775   6.842   3.258   9.302  0.3768  0.1514  0.2236
  725MOL0     C97776   6.885   3.283   9.439 -0.2190 -0.8379 -0.1742
  725MOL0     C97777   6.808   3.218   9.555 -0.0827 -0.4114  0.1645
  725MOL0     C97778   6.886   3.113   9.632 -0.8608  0.5817 -0.8768
  725MOL0     C97779   6.792   3.063   9.745  0.2708  0.5625  0.3123
  725MOL0     C97780   6.875   2.977   9.838 -0.1066 -0.5706  0.6720
  725MOL0     C97781   6.780   2.868   9.893 -0.1776  0.1153 -0.4140
  725MOL0     C97782   6.824   2.806  10.022 -0.0556  0.7200 -0.5364
  725MOL0     C97783   6.726   2.702  10.079 -0.5229 -0.7341  0.1150
  725MOL0    Cl97784   6.781   2.648  10.237  0.1739 -0.0227  0.2289
  725MOL0     C97785   6.635   3.388   9.339  0.3216  0.5809  0.3577
  725MOL0     C97786   6.498   3.405   9.303 -0.7423  0.7769 -0.2186
  725MOL0     O97787   6.245   3.236   8.988  0.0530 -0.2491 -0.4298
  725MOL0     C97788   6.024   3.398   8.933  0.0622 -0.1758 -0.9579
  725MOL0     C97789   5.913   3.464   8.909  1.4331  0.4175 -0.2718
  725MOL0     N97790   5.702   4.144   8.764 -0.2100 -0.0759 -0.1208
  725MOL0     N97791   5.639   4.253   8.749  0.4304 -0.0926 -0.5673
  725MOL0     C97792   4.392   4.324   8.358  0.3607 -0.0819 -0.2674
  725MOL0     C97793   4.277   4.259   8.313 -0.2811  0.1139  0.1000
  725MOL0     C97794   4.019   3.922   8.126 -0.3518 -0.3305  1.1451
  725MOL0     C97795   3.944   3.894   8.239 -0.2289  0.3735 -0.6135
  725MOL0     C97796   3.819   3.828   8.240 -0.6212 -1.0926  0.1837
  725MOL0     C97797   3.770   3.794   8.117  0.8195  0.8423  0.1259
  725MOL0     O97798   3.648   3.715   8.116  0.4607 -0.0412  0.2281
  725MOL0     C97799   3.573   3.716   7.994  0.0618  0.2312  0.3895
  725MOL0     C97800   3.436   3.642   8.001  0.3026  0.3879 -0.1777
  725MOL0     C97801   3.452   3.498   8.051 -0.0197 -0.1390  0.3783
  725MOL0     C97802   3.320   3.427   8.088  0.0229  0.8405  0.7041
  725MOL0     C97803   3.248   3.408   7.965  0.6728  0.0331 -0.0414
  725MOL0     C97804   3.196   3.396   7.859  1.6128  0.6802 -0.6144
  725MOL0     C97805   3.836   3.826   7.995 -0.4198 -0.3317  0.2968
  725MOL0     C97806   3.965   3.892   8.000  0.5051  0.0506 -0.0671
  725MOL0     C97807   4.044   3.938   7.882 -0.4316 -0.1706  0.4615
  725MOL0     H97808   4.393   3.946   8.281  2.8211 -0.1069 -1.8692
  725MOL0     H97809   4.601   4.056   8.324 -1.6091 -1.8219 -1.3603
  725MOL0     H97810   4.761   4.466   8.375 -0.2457  1.1691  1.7608
  725MOL0     H97811   4.595   4.500   8.360 -0.2193  0.9947  0.8566
  725MOL0     H97812   4.574   4.471   8.608 -1.9909 -0.8057 -3.1324
  725MOL0     H97813   4.703   4.589   8.580 -1.9158  0.3823  0.3653
  725MOL0     H97814   4.743   4.300   8.655  1.5834 -1.3783  0.4559
  725MOL0     H97815   4.793   4.437   8.744  0.2927  0.2069 -0.6992
  725MOL0     H97816   4.917   4.332   8.485  0.4982  2.4441 -1.5291
  725MOL0     H97817   4.960   4.488   8.543  2.4545 -0.0700  1.9316
  725MOL0     H97818   5.013   4.394   8.760 -1.8345  1.0718 -1.1314
  725MOL0     H97819   5.025   4.230   8.678  1.3594 -0.2069  0.2261
  725MOL0     H97820   5.183   4.354   8.519  4.8318 -0.7816  0.7665
  725MOL0     H97821   5.186   4.485   8.647 -0.8166 -0.0448 -1.1456
  725MOL0     H97822   5.268   4.190   8.676  1.2015  0.5894  0.2902
  725MOL0     H97823   5.297   4.316   8.799 -0.8308  0.8777  0.2072
  725MOL0     H97824   5.413   4.321   8.523 -0.0762 -2.3305  0.1932
  725MOL0     H97825   5.458   4.428   8.659  0.0127 -0.3096 -0.6639
  725MOL0     H97826   5.447   4.050   8.578  0.9955  0.2243 -2.0966
  725MOL0     H97827   5.626   3.857   8.592 -1.7486 -1.5302  1.8352
  725MOL0     H97828   5.787   3.893   8.651  1.2606  1.1454  2.2734
  725MOL0     H97829   5.709   3.842   8.886 -2.0076 -0.0815  1.4953
  725MOL0     H97830   5.537   3.815   8.835 -1.4078  2.0860 -1.5495
  725MOL0     H97831   5.772   3.663   8.738 -0.5141  1.3425 -0.6068
  725MOL0     H97832   5.599   3.628   8.703  0.2719 -2.0252  0.8754
  725MOL0     H97833   5.661   3.475   8.879  4.5357 -1.2009  1.6683
  725MOL0     H97834   5.556   3.604   8.950  0.2761  0.1346  1.6024
  725MOL0     H97835   5.889   3.661   9.178 -2.2060 -0.8469 -0.1614
  725MOL0     H97836   6.131   3.552   9.216 -1.8082  0.2501  0.4989
  725MOL0     H97837   6.464   3.133   9.088  0.1936 -1.6802  3.3478
  725MOL0     H97838   6.688   3.113   9.148 -2.2085 -0.0249 -2.5644
  725MOL0     H97839   6.992   3.265   9.448  0.1691  1.3030  0.0698
  725MOL0     H97840   6.888   3.391   9.458  3.1304 -0.7343 -0.7263
  725MOL0     H97841   6.763   3.297   9.616 -2.9835 -1.2872 -0.6629
  725MOL0     H97842   6.714   3.170   9.526 -0.4703  0.7075 -0.4563
  725MOL0     H97843   6.917   3.030   9.568  2.8249  0.2883  0.9803
  725MOL0     H97844   6.981   3.147   9.674 -0.9663 -0.3875  0.2145
  725MOL0     H97845   6.701   3.015   9.709  0.9833 -2.9650  2.7077
  725MOL0     H97846   6.758   3.145   9.810 -1.7127  0.2983 -0.3273
  725MOL0     H97847   6.926   3.035   9.915 -0.5836 -0.8706  1.2273
  725MOL0     H97848   6.949   2.914   9.788  0.9864  1.8817 -1.0135
  725MOL0     H97849   6.684   2.913   9.920  0.5683  0.1731  2.4506
  725MOL0     H97850   6.771   2.789   9.818  4.7815 -0.3082 -0.9023
  725MOL0     H97851   6.821   2.882  10.100 -1.0413 -2.1607  2.4469
  725MOL0     H97852   6.922   2.759  10.007 -0.2952  0.1813 -0.4680
  725MOL0     H97853   6.628   2.748  10.093 -0.3603 -0.8927  1.9453
  725MOL0     H97854   6.710   2.616  10.013  0.8979 -0.6122 -0.4306
  725MOL0     H97855   6.669   3.455   9.418  1.1074 -0.0884  0.5989
  725MOL0     H97856   6.442   3.485   9.350 -1.2218 -0.3646  1.2097
  725MOL0     H97857   6.067   3.339   8.853  1.9946  0.1387 -0.2090
  725MOL0     H97858   5.863   3.443   8.814  4.3935  1.8099 -2.2681
  725MOL0     H97859   4.376   4.423   8.398  0.6036  0.4844 -1.5333
  725MOL0     H97860   4.181   4.308   8.301 -0.1308  0.7484  1.3736
  725MOL0     H97861   3.975   3.921   8.339 -1.5986  0.2936 -0.1338
  725MOL0     H97862   3.764   3.805   8.331  1.8077  0.4372  2.1583
  725MOL0     H97863   3.632   3.667   7.916  2.8693  0.6913  2.0503
  725MOL0     H97864   3.547   3.816   7.958 -1.7108 -0.0488  0.7935
  725MOL0     H97865   3.395   3.638   7.900  0.7539  3.5903 -0.5866
  725MOL0     H97866   3.370   3.692   8.072 -0.3979 -1.0315  0.2122
  725MOL0     H97867   3.501   3.506   8.148 -0.6827 -1.2208  0.8233
  725MOL0     H97868   3.510   3.441   7.978  1.6628  0.0906  1.4918
  725MOL0     H97869   3.343   3.330   8.133  1.6864 -1.2479 -4.0187
  725MOL0     H97870   3.270   3.496   8.158  0.8693  0.4971  1.6774
  725MOL0     H97871   3.163   3.377   7.759 -1.4273 -0.6603  0.5232
  725MOL0     H97872   3.800   3.801   7.895 -0.1456  2.7544 -0.6894
  725MOL0     H97873   4.085   4.040   7.883  0.7022 -0.6024  0.2754
  725MOL0     H97874   4.127   3.872   7.853 -1.9186 -1.1197 -1.9093
  725MOL0     H97875   3.981   3.943   7.793  2.2030 -0.8719 -1.6006
  726MOL0     O97876   9.124   6.009   2.103  0.2867  0.4581 -0.0829
  726MOL0     C97877   9.088   5.963   1.998  0.5810  1.0967  0.1948
  726MOL0     O97878   9.171   5.916   1.900 -0.1632 -0.3134 -0.1023
  726MOL0     C97879   9.303   5.925   1.913 -0.2498  0.0171  0.0835
  726MOL0     C97880   9.377   5.807   1.891 -0.1667  0.2994 -0.0784
  726MOL0     C97881   9.518   5.812   1.914  0.3726  0.1226  0.9046
  726MOL0     C97882   9.592   5.925   1.918 -0.2101 -0.0626 -1.5051
  726MOL0     O97883   9.728   5.909   1.914  0.3960  0.6407  0.3099
  726MOL0     C97884   9.794   6.019   1.867 -0.2571 -0.3946  0.3247
  726MOL0     C97885   9.951   6.011   1.878  0.5405  0.8273 -0.2195
  726MOL0     C97886  10.015   6.016   2.019  0.0249  0.0431  0.5746
  726MOL0     C97887  10.149   6.086   2.016  0.0877  0.4366 -0.1861
  726MOL0     C97888  10.205   6.101   2.154 -0.1451 -0.7973 -0.0912
  726MOL0     C97889  10.354   6.109   2.147  0.1056  0.4641  0.3368
  726MOL0     C97890  10.412   6.138   2.284  0.0159 -0.0560  0.2761
  726MOL0     C97891  10.526   6.244   2.277 -0.1759  0.2531 -0.2069
  726MOL0     N97892  10.486   6.383   2.295  0.8597  0.1699 -0.4829
  726MOL0     C97893  10.421   6.441   2.402  0.0899 -0.3695 -0.9204
  726MOL0     C97894  10.377   6.561   2.358 -0.3474 -0.3315 -0.2943
  726MOL0     C97895  10.288   6.659   2.427 -0.0872  0.9040 -0.1999
  726MOL0     C97896  10.147   6.598   2.395  0.0095 -0.2561 -0.0076
  726MOL0     C97897  10.038   6.678   2.472 -0.1901 -0.2587 -0.2063
  726MOL0     C97898   9.898   6.631   2.439 -0.4902 -0.4381  0.2468
  726MOL0     O97899   9.812   6.697   2.531 -0.3385  0.6508  0.0275
  726MOL0     C97900   9.681   6.671   2.531  0.2585 -0.5327 -0.0611
  726MOL0     C97901   9.626   6.574   2.450 -0.3197  0.1571 -0.0785
  726MOL0     C97902   9.493   6.556   2.446  0.2373  0.0337  0.0779
  726MOL0     C97903   9.401   6.626   2.527  0.4677 -0.6049 -0.2886
  726MOL0     C97904   9.249   6.596   2.523 -0.6749 -0.0303 -0.2424
  726MOL0     O97905   9.205   6.515   2.423 -0.0030 -0.5874 -0.9871
  726MOL0     C97906   9.071   6.483   2.412 -0.7697 -0.9323 -1.0574
  726MOL0     C97907   8.966   6.562   2.452  1.5253 -0.3257  0.8830
  726MOL0     C97908   8.835   6.498   2.441 -0.2953  0.1835 -1.0001
  726MOL0     C97909   8.816   6.371   2.393  1.0672 -0.2128 -0.6362
  726MOL0     O97910   8.694   6.304   2.384 -0.7422 -0.1266 -0.0045
  726MOL0     C97911   8.574   6.378   2.360 -0.0079 -0.4249 -0.3675
  726MOL0     C97912   8.458   6.289   2.324  0.3657 -0.7259 -0.0427
  726MOL0     C97913   8.313   6.336   2.339 -0.0316 -0.2004  0.1278
  726MOL0     C97914   8.239   6.302   2.466  0.9147 -1.1333  0.2384
  726MOL0     C97915   8.101   6.361   2.445  0.6487 -0.2833 -0.6143
  726MOL0     C97916   8.014   6.364   2.574  1.0548 -1.2113 -0.0292
  726MOL0     C97917   7.876   6.407   2.550 -0.1021  0.3668  0.7452
  726MOL0     C97918   7.795   6.416   2.672 -0.1982 -0.1694  0.5341
  726MOL0    Cl97919   7.733   6.233   2.705  0.0231 -0.0180 -0.2097
  726MOL0     C97920   8.920   6.295   2.364  0.3154 -0.2388  0.9058
  726MOL0     C97921   9.043   6.353   2.373 -0.5254  0.4413 -0.6153
  726MOL0     O97922   9.192   6.630   2.620  0.2273  0.5081 -0.7196
  726MOL0     C97923   9.451   6.734   2.612  0.1601  0.4766  0.4182
  726MOL0     C97924   9.594   6.754   2.610  0.0796 -0.1384  0.0052
  726MOL0     N97925  10.411   6.573   2.221 -1.6711 -0.5104 -0.0765
  726MOL0     N97926  10.481   6.469   2.187  0.0290  0.2137 -0.2023
  726MOL0     C97927   9.511   6.041   1.922 -0.4140  0.2890 -0.8327
  726MOL0     C97928   9.376   6.039   1.930 -0.2440  0.3753 -0.7870
  726MOL0     C97929   8.948   5.952   1.983  0.3667  1.1963  0.3098
  726MOL0     C97930   8.877   6.065   2.019 -0.2307  0.6462  0.3018
  726MOL0     C97931   8.739   6.061   1.993  0.3731  0.9063 -0.1460
  726MOL0     C97932   8.677   5.948   1.937  0.0813 -0.3565  0.6178
  726MOL0     O97933   8.541   5.956   1.912  0.9445  0.2793  0.1282
  726MOL0     C97934   8.472   5.826   1.882  0.3353 -0.7035 -0.1958
  726MOL0     C97935   8.325   5.856   1.891 -1.1632 -1.0072  0.1022
  726MOL0     C97936   8.291   5.927   2.033  0.3336  0.2724 -0.1763
  726MOL0     C97937   8.141   5.895   2.069  0.1151 -0.2033 -0.2678
  726MOL0     C97938   8.106   5.944   2.204 -0.2674  0.1485 -0.9082
  726MOL0     C97939   8.089   5.972   2.326 -0.1206  0.2678 -0.0434
  726MOL0     C97940   8.754   5.836   1.903  0.6861 -0.5732 -0.1132
  726MOL0     C97941   8.885   5.836   1.929  0.4098  1.1849  0.7169
  726MOL0     C97942   8.959   5.706   1.885  0.3793 -0.4493 -0.8395
  726MOL0     H97943   9.327   5.712   1.876  0.5392 -0.3784  1.5500
  726MOL0     H97944   9.572   5.719   1.914  4.0033  2.0179 -1.2680
  726MOL0     H97945   9.769   6.026   1.761  0.5136  0.3380  0.1856
  726MOL0     H97946   9.764   6.108   1.923 -1.8890 -0.3542 -0.5444
  726MOL0     H97947   9.982   6.097   1.818  1.1424 -1.1373 -2.8915
  726MOL0     H97948   9.983   5.926   1.817  0.4846  1.7092 -1.5209
  726MOL0     H97949  10.028   5.913   2.053 -0.1441 -0.5615 -1.0935
  726MOL0     H97950   9.952   6.077   2.084  1.2505  1.0058  0.8902
  726MOL0     H97951  10.209   6.019   1.955 -0.0503  1.4162 -1.4404
  726MOL0     H97952  10.151   6.180   1.960  1.8794  0.4686 -0.1258
  726MOL0     H97953  10.164   6.186   2.208 -0.6816  0.3861 -2.2911
  726MOL0     H97954  10.192   6.008   2.211 -0.8091  1.2901  3.4779
  726MOL0     H97955  10.401   6.019   2.106  1.0218  1.7158 -1.5092
  726MOL0     H97956  10.376   6.189   2.075 -0.8462 -1.5201 -2.3444
  726MOL0     H97957  10.449   6.047   2.331 -3.4094 -1.0905  1.2957
  726MOL0     H97958  10.338   6.167   2.360  1.3452 -1.0473  2.0190
  726MOL0     H97959  10.597   6.237   2.360 -0.2775  1.7565  0.0218
  726MOL0     H97960  10.584   6.235   2.185 -0.2659 -0.5239 -0.1963
  726MOL0     H97961  10.394   6.392   2.495 -0.6473  0.7118 -0.5386
  726MOL0     H97962  10.314   6.663   2.533  1.0547 -1.3903 -0.3250
  726MOL0     H97963  10.306   6.757   2.381  0.6043  0.0080 -1.9613
  726MOL0     H97964  10.125   6.619   2.290  2.9203  1.5844 -0.3711
  726MOL0     H97965  10.139   6.491   2.415 -0.5894  0.0918  1.7324
  726MOL0     H97966  10.053   6.784   2.450  1.2083 -0.4022 -0.0832
  726MOL0     H97967  10.053   6.660   2.579 -0.8317  0.5555  0.0283
  726MOL0     H97968   9.891   6.522   2.442 -3.3190 -0.3251  0.6949
  726MOL0     H97969   9.866   6.659   2.338 -2.0960 -1.0739  0.5415
  726MOL0     H97970   9.692   6.509   2.393  1.4307 -1.0581  3.1386
  726MOL0     H97971   9.449   6.477   2.385 -1.0238  2.9330 -3.1064
  726MOL0     H97972   8.971   6.664   2.489 -3.8842  1.0032 -1.2025
  726MOL0     H97973   8.745   6.555   2.461  1.1138  2.8449 -1.6588
  726MOL0     H97974   8.536   6.425   2.451 -2.0105 -1.2515 -0.6989
  726MOL0     H97975   8.586   6.460   2.289 -2.3451 -1.0031 -1.5420
  726MOL0     H97976   8.469   6.256   2.220  0.0966 -1.9052  0.2851
  726MOL0     H97977   8.468   6.195   2.378  1.1676  0.5083  2.0514
  726MOL0     H97978   8.311   6.444   2.320  1.4481  0.0103  1.0365
  726MOL0     H97979   8.278   6.281   2.252  0.8808 -0.1832 -0.2550
  726MOL0     H97980   8.297   6.355   2.542  3.7369  0.4693 -2.7552
  726MOL0     H97981   8.237   6.195   2.486  0.8568 -1.0343  0.7530
  726MOL0     H97982   8.047   6.304   2.369 -0.0107  0.3540 -0.6369
  726MOL0     H97983   8.097   6.464   2.408 -2.0385  0.0814  0.4209
  726MOL0     H97984   8.015   6.265   2.621  0.5391 -1.2777 -0.1503
  726MOL0     H97985   8.053   6.438   2.645 -1.2669  0.9220 -0.8392
  726MOL0     H97986   7.817   6.348   2.478 -0.6906  1.3551  0.3935
  726MOL0     H97987   7.879   6.503   2.497  0.2910 -0.3120 -0.5067
  726MOL0     H97988   7.833   6.460   2.765 -3.2468  0.9161  1.3998
  726MOL0     H97989   7.705   6.470   2.640  1.9350  2.0027 -2.2950
  726MOL0     H97990   8.912   6.190   2.336 -0.4448  0.0914 -0.1697
  726MOL0     H97991   9.126   6.292   2.342  0.8784  2.6458 -1.4293
  726MOL0     H97992   9.384   6.805   2.659  1.1610  1.0906  0.9354
  726MOL0     H97993   9.632   6.839   2.665 -0.9836  1.0543 -1.0438
  726MOL0     H97994   9.555   6.140   1.917 -2.1157  1.1593  0.1098
  726MOL0     H97995   9.330   6.138   1.932 -1.3977 -0.1237 -1.5047
  726MOL0     H97996   8.918   6.158   2.057  0.0403  0.7074 -0.1324
  726MOL0     H97997   8.685   6.153   2.015 -3.0547 -0.5178 -1.8744
  726MOL0     H97998   8.513   5.755   1.955  0.9243  0.1885  0.3686
  726MOL0     H97999   8.490   5.811   1.775 -2.0871 -0.3731 -0.7078
  726MOL0     H98000   8.271   5.761   1.887  0.1927 -1.8296  0.7775
  726MOL0     H98001   8.294   5.926   1.812  0.4262 -0.0784  0.2607
  726MOL0     H98002   8.317   6.033   2.032 -3.4656  1.3305 -1.3627
  726MOL0     H98003   8.357   5.877   2.105 -0.9165  0.1976  0.9555
  726MOL0     H98004   8.084   5.928   1.982  0.1339 -0.5994 -0.4330
  726MOL0     H98005   8.144   5.786   2.075 -1.7973 -0.2568  0.3718
  726MOL0     H98006   8.082   6.001   2.429 -0.5634 -0.4923  0.1452
  726MOL0     H98007   8.708   5.753   1.851 -1.6128  1.2006 -1.0954
  726MOL0     H98008   8.904   5.626   1.834  2.5172 -0.9971 -2.4119
  726MOL0     H98009   9.019   5.751   1.806  1.5228  1.2971  0.9456
  726MOL0     H98010   9.015   5.662   1.968  2.8681 -2.6511 -3.4739
  727MOL0     O98011   5.819   6.422   6.252 -0.0101 -0.9323  0.4578
  727MOL0     C98012   5.840   6.482   6.356  0.0043  1.0255 -1.1644
  727MOL0     O98013   5.934   6.575   6.384 -0.7928  0.2991  0.0156
  727MOL0     C98014   6.022   6.611   6.286 -0.4020  0.0430 -0.5655
  727MOL0     C98015   5.995   6.714   6.198  0.3239 -0.2954 -0.0289
  727MOL0     C98016   6.081   6.743   6.095 -0.3102  0.6832 -0.0556
  727MOL0     C98017   6.202   6.676   6.075  0.0648  0.8213 -0.5790
  727MOL0     O98018   6.295   6.681   5.979  0.4034 -0.2488 -0.0291
  727MOL0     C98019   6.272   6.782   5.875 -0.7158  0.6272  0.9047
  727MOL0     C98020   6.379   6.750   5.766  0.3544 -0.0758 -0.2075
  727MOL0     C98021   6.352   6.628   5.676  0.4301 -0.2408  0.3117
  727MOL0     C98022   6.467   6.586   5.577  0.6174 -0.4494  0.5975
  727MOL0     C98023   6.494   6.679   5.458 -0.7351 -0.9534 -0.8059
  727MOL0     C98024   6.601   6.614   5.369 -0.1589  0.6611 -0.3098
  727MOL0     C98025   6.647   6.711   5.254  0.4724 -0.5503 -0.1548
  727MOL0     C98026   6.750   6.645   5.158  0.1515  0.3524  0.6404
  727MOL0     N98027   6.835   6.743   5.085 -0.8671 -0.1813  0.3098
  727MOL0     C98028   6.963   6.788   5.126 -0.3683 -0.0015 -0.2153
  727MOL0     C98029   6.993   6.878   5.032 -0.3767 -1.3238 -0.9561
  727MOL0     C98030   7.128   6.956   5.033  0.4477  0.1186 -1.2158
  727MOL0     C98031   7.224   6.881   4.952 -0.0989 -0.3804 -0.4508
  727MOL0     C98032   7.374   6.916   4.975  0.6028 -0.2502 -0.5448
  727MOL0     C98033   7.455   6.840   4.875  0.3234  0.0795  0.3724
  727MOL0     O98034   7.592   6.860   4.903 -0.0574  0.3910  0.5213
  727MOL0     C98035   7.691   6.808   4.818 -0.1645 -0.3045  0.9031
  727MOL0     C98036   7.816   6.874   4.820 -0.2883 -0.1480 -0.1158
  727MOL0     C98037   7.919   6.819   4.738 -0.1061 -0.0397 -0.2460
  727MOL0     C98038   7.898   6.697   4.670  0.4621  0.8739  0.2857
  727MOL0     C98039   8.005   6.628   4.600 -0.0506 -0.6378  0.1782
  727MOL0     O98040   8.001   6.495   4.571  0.2061  0.7960 -0.2485
  727MOL0     C98041   8.106   6.434   4.499 -0.0571 -0.0094 -0.1416
  727MOL0     C98042   8.096   6.428   4.359  0.6266  0.1334 -0.6692
  727MOL0     C98043   8.186   6.350   4.288  0.4386  0.1495 -0.0075
  727MOL0     C98044   8.291   6.286   4.353 -0.5931 -0.7432  0.1215
  727MOL0     O98045   8.382   6.207   4.289 -0.5299  0.1442  0.1226
  727MOL0     C98046   8.383   6.196   4.151 -0.2891  0.4771  0.8805
  727MOL0     C98047   8.480   6.079   4.120 -0.9186  0.6036 -0.3988
  727MOL0     C98048   8.632   6.098   4.143  0.5966 -0.3240  0.2694
  727MOL0     C98049   8.679   6.228   4.085 -1.2526  0.6715  0.5029
  727MOL0     C98050   8.826   6.233   4.071 -0.7513  0.2609 -0.1213
  727MOL0     C98051   8.896   6.133   3.980  1.2676 -0.1056 -0.1846
  727MOL0     C98052   8.826   6.093   3.852 -0.7782  0.1807  0.4762
  727MOL0     C98053   8.939   6.041   3.761 -0.0003  0.0703 -0.3990
  727MOL0    Cl98054   8.879   5.948   3.626 -0.2002  0.1017 -0.2413
  727MOL0     C98055   8.301   6.298   4.487  0.1670  0.0765 -1.2305
  727MOL0     C98056   8.205   6.361   4.570  0.7817 -0.4925 -0.1888
  727MOL0     O98057   8.095   6.704   4.569  0.1456 -0.4883 -0.2530
  727MOL0     C98058   7.773   6.627   4.685 -0.5150 -0.1111 -0.0165
  727MOL0     C98059   7.667   6.687   4.749 -0.0502 -0.2407  0.3105
  727MOL0     N98060   6.901   6.885   4.932 -0.6167  0.3051 -0.4588
  727MOL0     N98061   6.809   6.795   4.964  0.0713 -0.0528 -0.0909
  727MOL0     C98062   6.230   6.577   6.181  0.2752 -0.0796  0.5996
  727MOL0     C98063   6.137   6.541   6.275  0.5199 -0.1112  0.2378
  727MOL0     C98064   5.751   6.446   6.471 -0.7040 -0.2615 -0.4009
  727MOL0     C98065   5.655   6.345   6.451  0.2475  0.2091 -0.4321
  727MOL0     C98066   5.557   6.314   6.545  0.3477 -0.3347 -0.1797
  727MOL0     C98067   5.559   6.381   6.673 -0.6196 -0.1223 -0.6484
  727MOL0     O98068   5.464   6.379   6.771 -0.6912  0.3946 -0.4103
  727MOL0     C98069   5.370   6.279   6.770  0.6349 -0.1890  0.3752
  727MOL0     C98070   5.319   6.277   6.918 -0.0466  0.1335 -0.0413
  727MOL0     C98071   5.205   6.182   6.919 -1.0201  0.4064 -0.1109
  727MOL0     C98072   5.146   6.164   7.062  0.2231 -0.0445 -0.2070
  727MOL0     C98073   5.036   6.071   7.063 -0.0777 -0.7795 -0.2435
  727MOL0     C98074   4.944   5.998   7.077  0.4656  0.5567  0.1956
  727MOL0     C98075   5.663   6.473   6.694  0.1871 -0.9565  0.5680
  727MOL0     C98076   5.751   6.508   6.599  0.2384 -0.3153 -0.0195
  727MOL0     C98077   5.842   6.618   6.647  0.2817 -0.7191 -0.3172
  727MOL0     H98078   5.901   6.767   6.205  0.6392  0.1880  0.6348
  727MOL0     H98079   6.061   6.828   6.030  1.2318  0.6343 -0.6383
  727MOL0     H98080   6.170   6.776   5.835 -0.8410  0.0385  1.3041
  727MOL0     H98081   6.290   6.880   5.920  0.7061  0.3165  1.0424
  727MOL0     H98082   6.477   6.738   5.813  1.2105 -2.5605 -2.3687
  727MOL0     H98083   6.384   6.832   5.694 -1.5160 -1.5629 -2.1838
  727MOL0     H98084   6.263   6.650   5.617  0.8248  1.5250  0.3052
  727MOL0     H98085   6.338   6.540   5.740  2.6246 -0.7395  0.1994
  727MOL0     H98086   6.558   6.566   5.634  2.3050  1.6833 -1.1976
  727MOL0     H98087   6.432   6.493   5.532 -2.7898  0.2803  1.4247
  727MOL0     H98088   6.407   6.707   5.398 -1.8835 -1.9945  0.3107
  727MOL0     H98089   6.529   6.777   5.491 -0.1624 -1.2550 -0.5018
  727MOL0     H98090   6.686   6.584   5.430 -0.9958 -2.1817 -0.3914
  727MOL0     H98091   6.575   6.521   5.317  0.4202  0.3970 -0.1331
  727MOL0     H98092   6.674   6.805   5.303  1.1547 -0.9657  0.2807
  727MOL0     H98093   6.556   6.717   5.194  1.5513 -2.2363 -2.0899
  727MOL0     H98094   6.808   6.580   5.224  0.1010  0.5273  0.8576
  727MOL0     H98095   6.703   6.573   5.091  2.0270 -1.0934  0.7822
  727MOL0     H98096   7.017   6.746   5.210  0.9575 -1.2558 -1.6470
  727MOL0     H98097   7.111   7.059   5.000 -1.2357  0.3193  0.1467
  727MOL0     H98098   7.168   6.955   5.135 -3.1250  0.8519  0.3233
  727MOL0     H98099   7.212   6.776   4.981 -0.2521 -0.3537 -0.4137
  727MOL0     H98100   7.196   6.901   4.849 -0.0403  1.8009 -0.0854
  727MOL0     H98101   7.396   6.865   5.069  0.7341 -2.7475 -1.8494
  727MOL0     H98102   7.388   7.023   4.961 -1.1156  0.0081 -0.4968
  727MOL0     H98103   7.426   6.867   4.773  0.4275  1.9109  0.7975
  727MOL0     H98104   7.445   6.732   4.890  0.0017  0.0941  0.2631
  727MOL0     H98105   7.836   6.953   4.892 -0.6032  1.0824 -1.3382
  727MOL0     H98106   8.010   6.878   4.736  0.0519 -0.1463  1.8764
  727MOL0     H98107   8.012   6.480   4.315  1.8935  0.9960 -2.1832
  727MOL0     H98108   8.168   6.346   4.181 -1.8195 -0.6590  0.3420
  727MOL0     H98109   8.290   6.161   4.104 -0.0568  0.4707  0.4129
  727MOL0     H98110   8.409   6.286   4.094 -3.4354  1.0776  0.2133
  727MOL0     H98111   8.445   5.984   4.161  0.6124 -0.6955 -1.9419
  727MOL0     H98112   8.469   6.050   4.015 -0.1187 -0.3599 -0.2217
  727MOL0     H98113   8.648   6.101   4.251 -1.2928 -2.4035  0.6994
  727MOL0     H98114   8.682   6.017   4.089  2.6321  2.5964 -2.5475
  727MOL0     H98115   8.632   6.309   4.142 -1.2146 -0.6408  2.4768
  727MOL0     H98116   8.641   6.238   3.983 -1.7995  1.4251  0.7714
  727MOL0     H98117   8.870   6.222   4.171  0.6934 -2.0858 -0.9335
  727MOL0     H98118   8.848   6.331   4.027  2.6690  0.5634  1.8227
  727MOL0     H98119   8.996   6.173   3.960  0.5608  0.7092 -2.3428
  727MOL0     H98120   8.914   6.042   4.039  0.1724  2.1082  3.9516
  727MOL0     H98121   8.766   6.174   3.811 -0.4108  0.0882 -0.2541
  727MOL0     H98122   8.760   6.007   3.872 -0.5832  0.2654  1.5257
  727MOL0     H98123   8.997   6.128   3.731  0.4010 -0.0955 -0.1040
  727MOL0     H98124   9.008   5.974   3.812 -0.4382  0.1084  0.2487
  727MOL0     H98125   8.388   6.248   4.528 -0.1872  0.3682 -0.1075
  727MOL0     H98126   8.213   6.362   4.678 -2.1078  1.2042  0.1045
  727MOL0     H98127   7.758   6.524   4.653  0.7360 -1.5574  3.4810
  727MOL0     H98128   7.573   6.635   4.757 -1.4356  1.7871 -1.6250
  727MOL0     H98129   6.327   6.529   6.187 -0.1816 -0.9832  1.0311
  727MOL0     H98130   6.159   6.453   6.334  4.1066  0.7865  0.4937
  727MOL0     H98131   5.648   6.286   6.360  1.2316 -1.0125  0.2447
  727MOL0     H98132   5.481   6.239   6.526 -0.9751  0.3834  1.9207
  727MOL0     H98133   5.409   6.180   6.744  0.6304  0.4272 -2.2432
  727MOL0     H98134   5.293   6.299   6.695  2.6717  1.5274 -1.3936
  727MOL0     H98135   5.302   6.376   6.961  4.0190 -1.3297  6.1845
  727MOL0     H98136   5.397   6.241   6.986 -0.8687 -0.4418  0.6121
  727MOL0     H98137   5.243   6.081   6.898  0.0524  0.2786  2.1353
  727MOL0     H98138   5.138   6.216   6.840  0.6134  2.5549 -0.6630
  727MOL0     H98139   5.224   6.137   7.135  0.6235  3.5995  0.8861
  727MOL0     H98140   5.112   6.261   7.098  0.6639  0.8927 -2.1990
  727MOL0     H98141   4.865   5.930   7.103 -1.7660  2.1107 -1.9476
  727MOL0     H98142   5.675   6.518   6.791 -0.9696  1.4961 -0.3572
  727MOL0     H98143   5.839   6.696   6.570 -0.0745 -0.6706 -0.2558
  727MOL0     H98144   5.794   6.666   6.733  2.7539  2.1409 -0.3741
  727MOL0     H98145   5.940   6.572   6.661  0.1844 -1.5585 -2.1316
  728MOL0     O98146   2.854   7.392   6.532  0.0780  0.1076  0.4985
  728MOL0     C98147   2.811   7.375   6.415  0.1309  0.9866 -0.3314
  728MOL0     O98148   2.892   7.350   6.304 -0.6894 -0.6657  0.3690
  728MOL0     C98149   3.019   7.406   6.308  0.6657 -0.0522  0.4208
  728MOL0     C98150   3.037   7.539   6.274 -0.2977 -0.1882 -0.4878
  728MOL0     C98151   3.163   7.602   6.291  0.8424 -0.2728  0.7675
  728MOL0     C98152   3.271   7.525   6.340 -1.2000  0.0062 -0.1298
  728MOL0     O98153   3.396   7.585   6.350  0.2281 -0.4376  0.7074
  728MOL0     C98154   3.507   7.490   6.359 -0.0833  0.0047  0.7104
  728MOL0     C98155   3.633   7.574   6.341 -0.3700 -0.6448  0.3111
  728MOL0     C98156   3.664   7.595   6.194 -0.0148 -0.3556  0.1239
  728MOL0     C98157   3.783   7.683   6.182  0.5852 -0.7400 -0.1922
  728MOL0     C98158   3.916   7.614   6.194 -0.7611  0.0212  0.4159
  728MOL0     C98159   4.034   7.703   6.215  0.1069  0.4754 -0.3554
  728MOL0     C98160   4.169   7.636   6.222 -0.0172 -0.9167  0.3191
  728MOL0     C98161   4.257   7.716   6.314 -0.6166 -0.0585 -0.0784
  728MOL0     N98162   4.392   7.645   6.343  0.4192 -0.6475 -0.1012
  728MOL0     C98163   4.494   7.622   6.249 -0.1755  0.6404 -0.4487
  728MOL0     C98164   4.585   7.553   6.318  0.0457  0.1111 -0.3239
  728MOL0     C98165   4.726   7.509   6.263  0.5323 -0.3822 -0.8790
  728MOL0     C98166   4.846   7.603   6.279  0.9093  0.0207 -0.2649
  728MOL0     C98167   4.981   7.536   6.229 -0.1588  0.0399  0.1024
  728MOL0     C98168   5.094   7.638   6.210  0.1806 -0.3563  0.0264
  728MOL0     O98169   5.186   7.582   6.109 -0.2940 -0.3410  0.7954
  728MOL0     C98170   5.139   7.586   5.980  0.4814 -0.4532  0.5369
  728MOL0     C98171   5.079   7.699   5.919  0.4384 -0.6074 -0.3457
  728MOL0     C98172   5.049   7.707   5.782  0.4810 -0.5627 -0.4631
  728MOL0     C98173   5.087   7.602   5.692 -0.6589 -0.2622 -0.1486
  728MOL0     C98174   5.063   7.616   5.553  0.1514 -0.2870 -0.0928
  728MOL0     O98175   5.052   7.499   5.484  0.1882 -0.4651 -0.5206
  728MOL0     C98176   5.032   7.498   5.348 -0.6832  0.6749 -0.3930
  728MOL0     C98177   5.129   7.548   5.261 -0.0814 -0.2049  0.0649
  728MOL0     C98178   5.118   7.528   5.118 -0.3621  0.9382  0.2436
  728MOL0     C98179   4.999   7.456   5.074 -1.1303 -0.6858  0.5246
  728MOL0     O98180   4.977   7.431   4.947 -0.1065  0.5479 -0.4123
  728MOL0     C98181   4.930   7.544   4.859  0.4029  0.8500  0.3976
  728MOL0     C98182   4.774   7.559   4.857 -0.0860 -0.0841  0.0293
  728MOL0     C98183   4.736   7.683   4.775  0.0271  0.0395  0.4191
  728MOL0     C98184   4.628   7.651   4.669  0.1755  0.1716  0.0155
  728MOL0     C98185   4.489   7.643   4.743 -0.4611 -0.4016  0.4725
  728MOL0     C98186   4.377   7.644   4.644 -0.0356 -0.5302 -0.1903
  728MOL0     C98187   4.245   7.593   4.710 -1.1479  0.1528 -0.4537
  728MOL0     C98188   4.123   7.643   4.653 -1.0861 -0.0379  0.1641
  728MOL0    Cl98189   4.097   7.807   4.717  0.2438 -0.1035  0.5944
  728MOL0     C98190   4.907   7.408   5.159 -0.7612  0.7878 -0.9247
  728MOL0     C98191   4.930   7.429   5.292 -0.0243  0.5406 -0.2103
  728MOL0     O98192   5.060   7.724   5.506  0.2345  0.0137  0.0926
  728MOL0     C98193   5.136   7.481   5.758  0.2507  0.2347 -0.6605
  728MOL0     C98194   5.172   7.477   5.894  0.2720  0.3792  0.2210
  728MOL0     N98195   4.547   7.544   6.449  0.3696  0.2483 -0.8333
  728MOL0     N98196   4.435   7.598   6.467  0.2553 -0.0705  0.4875
  728MOL0     C98197   3.248   7.385   6.367  0.2908 -0.1391  0.5411
  728MOL0     C98198   3.123   7.335   6.348  0.0851  0.3348  0.3590
  728MOL0     C98199   2.669   7.366   6.390  0.5407  0.2216  0.1762
  728MOL0     C98200   2.617   7.438   6.284 -0.5131  0.8548 -0.3153
  728MOL0     C98201   2.488   7.426   6.246 -0.0649 -0.1517 -0.9997
  728MOL0     C98202   2.400   7.343   6.304  0.9635  1.2349  0.8166
  728MOL0     O98203   2.276   7.337   6.245 -0.5513  0.7640 -0.0323
  728MOL0     C98204   2.168   7.349   6.335 -1.2603  0.3760 -0.8616
  728MOL0     C98205   2.038   7.335   6.256 -0.0019 -0.6890  0.6067
  728MOL0     C98206   2.015   7.449   6.159 -0.6957 -0.1893  0.4241
  728MOL0     C98207   2.003   7.582   6.244 -0.5575 -0.4084 -0.1094
  728MOL0     C98208   1.943   7.682   6.159 -0.1556  0.0549  0.2069
  728MOL0     C98209   1.899   7.776   6.099  0.1644  0.2245 -1.1606
  728MOL0     C98210   2.441   7.268   6.416 -1.4972  0.2616 -0.6592
  728MOL0     C98211   2.578   7.279   6.457  0.4393  0.7457 -0.1496
  728MOL0     C98212   2.622   7.192   6.581  0.9291 -0.1324  0.1049
  728MOL0     H98213   2.950   7.601   6.254 -1.7491 -1.1410  2.4120
  728MOL0     H98214   3.187   7.700   6.251 -1.0567 -0.1136 -0.1177
  728MOL0     H98215   3.497   7.470   6.466 -2.9407 -0.3132  0.4731
  728MOL0     H98216   3.512   7.405   6.291 -2.1353  2.1070 -2.3442
  728MOL0     H98217   3.716   7.527   6.394  0.9226  0.8971 -0.2562
  728MOL0     H98218   3.612   7.668   6.392 -1.6471 -1.4934  1.4032
  728MOL0     H98219   3.581   7.633   6.134 -0.5539 -2.6925 -0.7449
  728MOL0     H98220   3.691   7.506   6.135 -1.9086 -0.4881 -0.6299
  728MOL0     H98221   3.789   7.742   6.090  1.8051  0.0413  0.3547
  728MOL0     H98222   3.779   7.759   6.261  1.2059 -0.0917 -0.7739
  728MOL0     H98223   3.920   7.530   6.264  3.7613  0.8743  1.5525
  728MOL0     H98224   3.952   7.575   6.098  2.9782  0.1279  1.5868
  728MOL0     H98225   4.038   7.770   6.129  1.0328  1.7628  0.6566
  728MOL0     H98226   4.020   7.758   6.308 -0.7808  0.4962 -0.4934
  728MOL0     H98227   4.218   7.622   6.125  3.3332 -1.2039  1.9124
  728MOL0     H98228   4.175   7.535   6.264 -1.4087 -1.5577 -0.9188
  728MOL0     H98229   4.277   7.806   6.255 -1.5956 -1.2201 -2.2979
  728MOL0     H98230   4.210   7.742   6.409 -0.0156 -0.4835  0.3444
  728MOL0     H98231   4.486   7.657   6.147  0.0441  1.2056 -0.2761
  728MOL0     H98232   4.750   7.412   6.306  0.7139 -0.5304 -1.3093
  728MOL0     H98233   4.728   7.489   6.156  1.1591  1.5004 -1.2616
  728MOL0     H98234   4.823   7.687   6.213  1.3186 -1.1964 -2.0354
  728MOL0     H98235   4.840   7.651   6.377 -2.8482  2.1559 -1.3599
  728MOL0     H98236   4.949   7.503   6.130  0.2845  3.9565 -1.5450
  728MOL0     H98237   5.026   7.460   6.293 -1.7486  0.3621  1.6951
  728MOL0     H98238   5.155   7.661   6.298  0.0588 -0.1405  0.0560
  728MOL0     H98239   5.054   7.732   6.170 -0.7539 -0.8128 -0.1170
  728MOL0     H98240   5.046   7.781   5.983 -0.6834 -1.3997  0.1188
  728MOL0     H98241   4.995   7.796   5.750 -0.9921 -0.8634  1.0572
  728MOL0     H98242   5.198   7.626   5.290 -0.8509  0.5622 -0.1248
  728MOL0     H98243   5.182   7.572   5.042 -1.5910 -2.8794 -3.3679
  728MOL0     H98244   4.984   7.635   4.887  2.0808 -0.1812  0.6467
  728MOL0     H98245   4.974   7.520   4.762  6.1453  3.1311  2.0024
  728MOL0     H98246   4.729   7.471   4.810 -0.6597  0.3096 -0.1818
  728MOL0     H98247   4.730   7.566   4.957  1.8852  2.2800  0.8339
  728MOL0     H98248   4.699   7.767   4.836  1.4214  2.3073 -1.6580
  728MOL0     H98249   4.824   7.722   4.723  0.3099 -0.8018  0.2515
  728MOL0     H98250   4.652   7.560   4.615 -0.6194 -0.0997  0.1084
  728MOL0     H98251   4.628   7.735   4.599  1.3077 -0.0467 -0.2675
  728MOL0     H98252   4.470   7.732   4.804  0.3563  0.2550 -0.2065
  728MOL0     H98253   4.488   7.550   4.801 -0.0716  0.2236  1.5243
  728MOL0     H98254   4.350   7.740   4.601 -2.0337  0.5128  3.0306
  728MOL0     H98255   4.397   7.573   4.563  1.4216 -2.0586  1.4191
  728MOL0     H98256   4.241   7.605   4.819 -2.0502 -0.3445 -0.4194
  728MOL0     H98257   4.246   7.486   4.686  0.8710 -0.0647  0.3325
  728MOL0     H98258   4.140   7.642   4.545  1.0567  0.5472  0.4517
  728MOL0     H98259   4.037   7.578   4.675  0.4644 -1.4666  2.4726
  728MOL0     H98260   4.827   7.340   5.132 -1.1769  0.4989  0.8648
  728MOL0     H98261   4.866   7.372   5.360  2.9184  1.0774  3.2952
  728MOL0     H98262   5.150   7.393   5.696  2.9611 -0.6250  0.9734
  728MOL0     H98263   5.212   7.385   5.935 -1.3701 -0.5062 -0.0815
  728MOL0     H98264   3.325   7.314   6.396  2.2727  0.4179 -2.7381
  728MOL0     H98265   3.108   7.236   6.390  0.8516  2.0520  5.4311
  728MOL0     H98266   2.690   7.508   6.244 -0.0655 -0.1960 -1.4028
  728MOL0     H98267   2.454   7.481   6.159 -0.0405 -1.1488 -1.6521
  728MOL0     H98268   2.186   7.443   6.388  0.3231 -0.3324 -0.0641
  728MOL0     H98269   2.175   7.269   6.409  2.5131 -0.0982 -1.5361
  728MOL0     H98270   1.954   7.333   6.327  2.2951  1.4347  3.6073
  728MOL0     H98271   2.031   7.239   6.204 -0.5754  0.1154 -0.8615
  728MOL0     H98272   1.923   7.435   6.101 -1.0932  3.9120 -0.2880
  728MOL0     H98273   2.091   7.460   6.081 -0.4245 -0.2323  0.6862
  728MOL0     H98274   1.932   7.560   6.325  0.7366 -5.2380  0.0271
  728MOL0     H98275   2.099   7.617   6.284 -0.1314 -1.0631 -0.5345
  728MOL0     H98276   1.862   7.867   6.055  2.6577  0.9265 -1.9558
  728MOL0     H98277   2.382   7.199   6.475 -0.8743  0.1738 -0.1332
  728MOL0     H98278   2.710   7.127   6.569 -0.3353 -1.8685 -0.1675
  728MOL0     H98279   2.641   7.247   6.673  2.7172 -1.2693  0.4605
  728MOL0     H98280   2.539   7.124   6.600 -0.4985  1.6395  0.3811
  729MOL0     O98281   3.158   8.677   6.008  0.6845  0.2815  0.4992
  729MOL0     C98282   3.111   8.658   5.897  0.6474  0.6314 -0.3800
  729MOL0     O98283   3.176   8.698   5.778  0.7114  0.3122  0.6271
  729MOL0     C98284   3.298   8.773   5.775  0.5438  0.0932  0.3156
  729MOL0     C98285   3.388   8.742   5.680  0.2094  0.1373 -0.2162
  729MOL0     C98286   3.510   8.808   5.669 -0.1822  0.2899  0.0138
  729MOL0     C98287   3.524   8.923   5.754 -0.3055  0.2077 -0.4055
  729MOL0     O98288   3.629   8.994   5.723 -0.4845 -0.2479 -0.6770
  729MOL0     C98289   3.720   9.030   5.829 -0.1231  0.5046 -0.2123
  729MOL0     C98290   3.853   9.082   5.758 -0.2920 -0.3500 -1.5374
  729MOL0     C98291   3.939   9.143   5.859  1.1382 -0.1907 -0.1376
  729MOL0     C98292   4.063   9.192   5.794  0.3668 -0.6521  0.3563
  729MOL0     C98293   4.159   9.236   5.912  0.1938 -0.0947  0.9860
  729MOL0     C98294   4.309   9.251   5.856  0.0391  0.0166 -0.4591
  729MOL0     C98295   4.393   9.121   5.864 -0.0542 -0.2965  0.0600
  729MOL0     C98296   4.494   9.112   5.987  0.3137  0.2981 -1.0113
  729MOL0     N98297   4.601   9.211   5.991  0.8801  0.5690  0.7931
  729MOL0     C98298   4.684   9.249   5.880 -0.3923 -0.2188 -0.7344
  729MOL0     C98299   4.747   9.359   5.919 -0.7860 -0.3410  0.1678
  729MOL0     C98300   4.844   9.437   5.831 -0.6054 -0.3665 -0.8406
  729MOL0     C98301   4.989   9.380   5.853 -0.3401  1.1139  0.5939
  729MOL0     C98302   5.084   9.486   5.799 -0.1741 -0.5725  0.6102
  729MOL0     C98303   5.234   9.446   5.807 -0.8404  0.7986 -0.2141
  729MOL0     O98304   5.246   9.306   5.786 -0.3034 -0.4653 -0.5103
  729MOL0     C98305   5.360   9.264   5.725  0.8413 -0.2986 -0.1936
  729MOL0     C98306   5.479   9.335   5.701  0.1322 -0.7078  0.0247
  729MOL0     C98307   5.585   9.262   5.649 -0.2448 -0.1517  0.1301
  729MOL0     C98308   5.585   9.119   5.615  0.5790  0.1010  0.7288
  729MOL0     C98309   5.714   9.048   5.565 -0.4067  0.1039  0.7647
  729MOL0     O98310   5.695   8.935   5.505  0.4523  0.2548  0.2037
  729MOL0     C98311   5.801   8.874   5.433 -0.6722 -0.1477  0.5541
  729MOL0     C98312   5.782   8.744   5.396  0.1821  0.0611  1.3940
  729MOL0     C98313   5.879   8.676   5.319 -0.1354 -0.1182  0.3232
  729MOL0     C98314   6.003   8.731   5.282 -0.8377  0.2656 -0.5825
  729MOL0     O98315   6.101   8.647   5.218  0.2704 -0.3753 -0.0149
  729MOL0     C98316   6.226   8.632   5.298 -0.1533 -0.9076  0.0060
  729MOL0     C98317   6.314   8.528   5.214  0.7055  0.1111 -0.4610
  729MOL0     C98318   6.263   8.386   5.200 -0.6715 -0.7987  1.0095
  729MOL0     C98319   6.332   8.296   5.095 -0.1137 -0.7505 -0.3752
  729MOL0     C98320   6.291   8.157   5.132  0.0402  0.3186 -0.0137
  729MOL0     C98321   6.353   8.047   5.034 -0.7510  0.7512 -0.0500
  729MOL0     C98322   6.264   7.921   5.007  0.0424 -0.0592 -0.3841
  729MOL0     C98323   6.233   7.841   5.137  0.6849 -0.7154  0.3728
  729MOL0    Cl98324   6.101   7.732   5.079 -0.1544 -0.1780 -0.0022
  729MOL0     C98325   6.017   8.861   5.308 -0.4128  0.1994 -1.0459
  729MOL0     C98326   5.916   8.933   5.378  0.5521  0.4607 -0.7732
  729MOL0     O98327   5.821   9.092   5.600  0.2994  0.3982 -0.0788
  729MOL0     C98328   5.462   9.054   5.636  0.3884 -1.0233  0.3888
  729MOL0     C98329   5.353   9.127   5.691  0.4942  0.4993 -1.0287
  729MOL0     N98330   4.711   9.387   6.051  0.2221  0.5366  0.1087
  729MOL0     N98331   4.627   9.297   6.089 -1.2761 -0.4063 -0.1790
  729MOL0     C98332   3.429   8.958   5.855 -0.4854  0.6097  0.3075
  729MOL0     C98333   3.315   8.876   5.858 -0.1688  0.1369 -0.3615
  729MOL0     C98334   2.980   8.588   5.883 -0.3327 -0.6924 -0.8963
  729MOL0     C98335   2.909   8.589   6.008 -0.1630  0.0025 -0.4466
  729MOL0     C98336   2.803   8.512   6.030 -0.4607  0.4238  0.8603
  729MOL0     C98337   2.749   8.436   5.920 -0.5726 -1.0213 -0.6180
  729MOL0     O98338   2.622   8.381   5.924 -0.1427  0.2361  0.0771
  729MOL0     C98339   2.605   8.296   6.045  0.3640  0.3164  0.2283
  729MOL0     C98340   2.491   8.195   6.032  0.3384 -0.0688  0.1605
  729MOL0     C98341   2.362   8.268   6.044  0.5547 -0.1388  0.7607
  729MOL0     C98342   2.253   8.172   6.006  0.7931  0.1631  0.6493
  729MOL0     C98343   2.224   8.076   6.115 -0.4999  0.2988  0.3689
  729MOL0     C98344   2.217   8.010   6.216  0.5907 -0.2490  0.2958
  729MOL0     C98345   2.819   8.429   5.807 -1.4463 -0.1555  0.1303
  729MOL0     C98346   2.932   8.507   5.779  0.3747 -0.0823 -0.7891
  729MOL0     C98347   2.991   8.488   5.645 -1.4879  0.0017  0.2661
  729MOL0     H98348   3.364   8.682   5.594  0.6900 -0.2404 -0.0915
  729MOL0     H98349   3.590   8.787   5.599  0.4694 -0.1227  0.8689
  729MOL0     H98350   3.679   9.110   5.891 -0.2576  0.8371 -0.7297
  729MOL0     H98351   3.759   8.949   5.891  0.1697  1.0667  0.3452
  729MOL0     H98352   3.821   9.155   5.683  0.2868  1.0365 -0.4798
  729MOL0     H98353   3.906   9.001   5.707  2.0587  0.7383 -0.9345
  729MOL0     H98354   3.957   9.067   5.936 -3.4412 -1.6323 -0.1620
  729MOL0     H98355   3.887   9.225   5.909 -1.4449 -3.7152  3.6078
  729MOL0     H98356   4.114   9.110   5.744  1.3119 -0.9102  1.6945
  729MOL0     H98357   4.048   9.270   5.719  0.6746 -0.6444  0.3038
  729MOL0     H98358   4.129   9.332   5.955 -1.9412  1.5300 -3.4585
  729MOL0     H98359   4.164   9.171   6.000 -1.2553  1.7098  2.4853
  729MOL0     H98360   4.297   9.289   5.754  1.7745  2.1762  0.0559
  729MOL0     H98361   4.363   9.325   5.916  1.4452 -0.7958 -0.6703
  729MOL0     H98362   4.457   9.111   5.776  0.7013 -2.1725  0.7741
  729MOL0     H98363   4.327   9.033   5.855 -1.4438  0.6726  0.3664
  729MOL0     H98364   4.445   9.116   6.085  2.3266 -0.3131  0.0671
  729MOL0     H98365   4.544   9.015   5.983 -0.0655 -0.0618  1.1693
  729MOL0     H98366   4.697   9.211   5.779  1.3733 -2.0706  0.1361
  729MOL0     H98367   4.805   9.429   5.729  0.6503 -3.0512 -1.2136
  729MOL0     H98368   4.831   9.540   5.864 -0.5584 -0.2403 -1.2089
  729MOL0     H98369   5.003   9.352   5.958 -0.0056 -0.9617  0.0529
  729MOL0     H98370   4.997   9.285   5.799  1.3608  1.4518  0.2047
  729MOL0     H98371   5.067   9.580   5.853 -2.1817  0.5892 -1.8414
  729MOL0     H98372   5.076   9.519   5.695  3.3414 -0.0230  0.3815
  729MOL0     H98373   5.280   9.466   5.904  1.5624 -1.4164 -0.7875
  729MOL0     H98374   5.292   9.508   5.739 -0.2567  1.8166  1.1739
  729MOL0     H98375   5.484   9.442   5.723  0.0695 -0.9330  1.2365
  729MOL0     H98376   5.678   9.317   5.644 -0.7178  0.7882  1.1410
  729MOL0     H98377   5.687   8.694   5.412  0.1234  0.5219  2.5395
  729MOL0     H98378   5.847   8.577   5.290 -3.5583  1.0784 -0.4767
  729MOL0     H98379   6.277   8.728   5.316 -3.3395  1.4809 -2.4431
  729MOL0     H98380   6.197   8.598   5.397 -0.0051 -1.6355 -0.1936
  729MOL0     H98381   6.339   8.555   5.111 -0.8233  1.2195 -0.5814
  729MOL0     H98382   6.407   8.514   5.270  0.7512  0.0844 -0.5449
  729MOL0     H98383   6.267   8.352   5.304 -0.6733 -0.7340  1.0306
  729MOL0     H98384   6.164   8.388   5.154  0.3925  4.2689 -1.7334
  729MOL0     H98385   6.440   8.301   5.109 -0.2975 -0.9580  1.3829
  729MOL0     H98386   6.295   8.326   4.996 -0.7017 -1.0770 -0.2569
  729MOL0     H98387   6.183   8.143   5.128 -0.1649  1.6828  0.2387
  729MOL0     H98388   6.323   8.127   5.232  1.4195 -3.2252 -1.3545
  729MOL0     H98389   6.368   8.086   4.934 -1.4193  1.5063  0.1312
  729MOL0     H98390   6.449   8.015   5.074 -2.8287 -2.3340  3.1616
  729MOL0     H98391   6.309   7.858   4.930  2.6656  0.6529  0.4483
  729MOL0     H98392   6.165   7.947   4.968 -0.0200 -2.8695 -2.3767
  729MOL0     H98393   6.322   7.779   5.158 -0.8460 -3.3130 -0.3196
  729MOL0     H98394   6.201   7.910   5.216  1.8580  0.9053 -0.5195
  729MOL0     H98395   6.114   8.910   5.302  0.7687 -1.1506  3.0378
  729MOL0     H98396   5.943   9.036   5.399 -1.3924  0.2195  3.9390
  729MOL0     H98397   5.460   8.950   5.605  0.7332 -0.4918 -1.5840
  729MOL0     H98398   5.257   9.076   5.694  1.4160 -1.2649  0.7936
  729MOL0     H98399   3.448   9.048   5.912  1.2551  0.6404 -0.2622
  729MOL0     H98400   3.244   8.904   5.935 -0.3317 -0.9181 -0.1061
  729MOL0     H98401   2.940   8.642   6.098  1.1674  0.9876 -1.4372
  729MOL0     H98402   2.752   8.521   6.125  1.3896  0.3340  1.9038
  729MOL0     H98403   2.583   8.356   6.133  0.0887  0.9610 -0.2642
  729MOL0     H98404   2.701   8.244   6.053  1.7226  2.9241  1.9782
  729MOL0     H98405   2.501   8.117   6.108  0.2759 -0.7258 -0.4905
  729MOL0     H98406   2.500   8.141   5.937  2.6628 -2.4793  1.6304
  729MOL0     H98407   2.361   8.344   5.966  3.3323 -0.8386 -0.0728
  729MOL0     H98408   2.335   8.311   6.141 -0.9315  0.1292  0.2472
  729MOL0     H98409   2.170   8.243   5.994 -1.5681 -2.5499 -0.3048
  729MOL0     H98410   2.257   8.121   5.910 -1.0911  0.5779  0.3045
  729MOL0     H98411   2.198   7.937   6.292 -0.3755 -2.8670 -2.2738
  729MOL0     H98412   2.778   8.372   5.724  0.3869  1.3646 -1.9608
  729MOL0     H98413   3.100   8.491   5.651 -1.5573  0.3137  3.7022
  729MOL0     H98414   2.969   8.390   5.601 -2.0353  0.9227 -1.6243
  729MOL0     H98415   2.947   8.570   5.589 -0.2388  0.1712 -0.5074
  730MOL0     O98416   0.415   5.735   9.541 -0.1034 -0.6333  0.2673
  730MOL0     C98417   0.318   5.783   9.598  0.4591 -0.2678 -0.1775
  730MOL0     O98418   0.317   5.873   9.698 -0.7037 -0.2182  0.1870
  730MOL0     C98419   0.436   5.930   9.737  0.4921 -0.5272 -0.7219
  730MOL0     C98420   0.432   6.074   9.767  0.2158  0.9951  0.7048
  730MOL0     C98421   0.539   6.127   9.835  0.1387  0.2494  0.5458
  730MOL0     C98422   0.655   6.055   9.876  0.8609 -0.0231 -0.6555
  730MOL0     O98423   0.773   6.101   9.946 -0.0039 -0.3204  0.1583
  730MOL0     C98424   0.776   6.242   9.954 -1.0557 -0.5749  0.0563
  730MOL0     C98425   0.908   6.288  10.010 -0.5343 -0.3199 -0.4043
  730MOL0     C98426   0.923   6.432   9.952  0.3612 -0.4329 -0.8605
  730MOL0     C98427   0.837   6.528  10.030  0.0800  0.4289  0.1725
  730MOL0     C98428   0.723   6.592   9.935 -0.0915 -0.5451  0.4583
  730MOL0     C98429   0.607   6.661  10.005  0.2163  0.2073 -0.4920
  730MOL0     C98430   0.660   6.775  10.088  0.7901 -0.4482  0.0427
  730MOL0     C98431   0.543   6.851  10.154 -0.2665 -0.1536 -0.0608
  730MOL0     N98432   0.469   6.945  10.065  0.5394 -0.3172 -0.4184
  730MOL0     C98433   0.382   6.912   9.969  0.4291  0.1620  0.7428
  730MOL0     C98434   0.328   7.034   9.926  0.2524  0.1708  0.5649
  730MOL0     C98435   0.226   7.066   9.816 -0.2087  0.2582 -0.4701
  730MOL0     C98436   0.090   7.021   9.862  0.2532 -0.8346  0.2581
  730MOL0     C98437  -0.004   7.057   9.742 -0.5767 -0.0515 -0.2202
  730MOL0     C98438  -0.143   7.016   9.777 -0.2913 -0.0585 -0.1010
  730MOL0     O98439  -0.136   6.874   9.797 -0.1796 -0.2572 -0.0799
  730MOL0     C98440  -0.243   6.793   9.783 -0.1368  0.0703 -0.6210
  730MOL0     C98441  -0.213   6.662   9.761 -0.0383  0.2596  0.1196
  730MOL0     C98442  -0.309   6.562   9.783  0.3090 -0.2197  0.6820
  730MOL0     C98443  -0.445   6.596   9.808 -0.4230  0.0150  0.2808
  730MOL0     C98444  -0.552   6.503   9.800  0.0465 -0.0218  0.0607
  730MOL0     O98445  -0.677   6.551   9.798  0.8210  0.1112 -0.5035
  730MOL0     C98446  -0.786   6.462   9.800  0.0482  0.0743 -0.3099
  730MOL0     C98447  -0.820   6.403   9.912 -0.4387  0.2774  0.0901
  730MOL0     C98448  -0.927   6.309   9.929 -0.4144 -0.4365 -0.1753
  730MOL0     C98449  -1.006   6.291   9.820  0.3147  0.5736  0.8390
  730MOL0     O98450  -1.110   6.202   9.821 -0.1945 -0.1390 -0.9056
  730MOL0     C98451  -1.070   6.070   9.857  0.1380 -0.3859 -0.3367
  730MOL0     C98452  -1.162   6.011   9.974 -0.1467 -0.8784  0.4368
  730MOL0     C98453  -1.184   6.093  10.104  0.4837 -0.0990 -0.2785
  730MOL0     C98454  -1.275   6.217  10.083  0.1084  0.3488 -0.3706
  730MOL0     C98455  -1.426   6.200  10.064  0.1296  0.1723 -0.3705
  730MOL0     C98456  -1.506   6.340  10.065 -0.4152  0.8123  0.0226
  730MOL0     C98457  -1.459   6.423   9.941  0.5154  0.7923  0.4929
  730MOL0     C98458  -1.478   6.348   9.809 -0.9870 -0.8546 -0.0026
  730MOL0    Cl98459  -1.649   6.307   9.765 -0.1915  0.0940 -0.4493
  730MOL0     C98460  -0.971   6.348   9.695 -0.3640 -0.3564  0.4634
  730MOL0     C98461  -0.859   6.438   9.691  0.3508 -0.7329  0.1540
  730MOL0     O98462  -0.520   6.383   9.787 -0.9421  0.2266  0.2353
  730MOL0     C98463  -0.470   6.735   9.829  0.7628 -0.9624  0.2083
  730MOL0     C98464  -0.370   6.831   9.821 -0.6296  0.3543 -0.2045
  730MOL0     N98465   0.393   7.138   9.997 -0.2507  0.2644  0.0746
  730MOL0     N98466   0.488   7.083  10.075  0.3074  0.2872 -0.0373
  730MOL0     C98467   0.655   5.920   9.837 -0.4924 -0.1827 -0.5197
  730MOL0     C98468   0.548   5.855   9.773 -0.4791 -0.3304 -0.2726
  730MOL0     C98469   0.185   5.731   9.555  0.8953  0.1481  0.6116
  730MOL0     C98470   0.097   5.697   9.661 -0.3149 -0.5528  0.0297
  730MOL0     C98471  -0.029   5.662   9.632  1.0470  0.5323  0.3282
  730MOL0     C98472  -0.083   5.647   9.500  0.7667 -0.1628  0.0203
  730MOL0     O98473  -0.220   5.612   9.484  0.2803  0.3723  0.4370
  730MOL0     C98474  -0.276   5.628   9.350 -0.4658  0.5817 -0.3420
  730MOL0     C98475  -0.422   5.591   9.349 -0.1087 -0.0344  0.9074
  730MOL0     C98476  -0.491   5.624   9.213  0.0816 -0.6983  0.5685
  730MOL0     C98477  -0.610   5.528   9.168  0.0544 -0.1303  1.4052
  730MOL0     C98478  -0.655   5.590   9.039  0.2500  0.1449 -0.1714
  730MOL0     C98479  -0.676   5.632   8.929  0.1845  1.0884  0.6559
  730MOL0     C98480   0.002   5.681   9.394 -0.5628  0.4682 -0.2725
  730MOL0     C98481   0.135   5.725   9.417  0.1498  1.0247 -0.0837
  730MOL0     C98482   0.215   5.762   9.299  0.4803 -0.0027  0.8989
  730MOL0     H98483   0.349   6.137   9.738  0.7707  1.9257  1.1081
  730MOL0     H98484   0.539   6.234   9.850  0.8906  0.4484 -0.7118
  730MOL0     H98485   0.765   6.282   9.853 -0.6347 -0.3029  0.1162
  730MOL0     H98486   0.688   6.268  10.013  0.6650  1.9839  1.7188
  730MOL0     H98487   0.999   6.230   9.996 -0.4557 -0.1757 -0.4897
  730MOL0     H98488   0.902   6.282  10.119 -1.1601  0.8585 -0.3505
  730MOL0     H98489   0.891   6.437   9.847  1.1360  0.2054 -1.0740
  730MOL0     H98490   1.029   6.456   9.950 -0.2593  2.9362  0.3695
  730MOL0     H98491   0.792   6.479  10.117  2.0028  1.9057  2.1112
  730MOL0     H98492   0.888   6.613  10.077  0.0895 -0.8123  2.5851
  730MOL0     H98493   0.764   6.665   9.865 -0.1204 -2.2328 -1.4199
  730MOL0     H98494   0.677   6.514   9.874  1.0139 -1.2851  0.5433
  730MOL0     H98495   0.537   6.693   9.928  2.6407  2.6414 -1.8992
  730MOL0     H98496   0.559   6.587  10.069  1.3592 -0.4266 -0.3230
  730MOL0     H98497   0.705   6.856  10.030  0.4662  0.5262  1.0866
  730MOL0     H98498   0.746   6.746  10.148  2.3237 -1.8164 -2.6576
  730MOL0     H98499   0.477   6.781  10.207  0.4113  0.7697  2.1485
  730MOL0     H98500   0.581   6.914  10.235 -3.2580 -0.5529  1.8348
  730MOL0     H98501   0.359   6.808   9.949  2.8153 -0.9844  3.2912
  730MOL0     H98502   0.230   7.172   9.790 -0.1354  1.9289  5.0199
  730MOL0     H98503   0.259   7.001   9.735  2.4189 -0.8061  1.3082
  730MOL0     H98504   0.085   6.918   9.897 -2.6515 -0.5152  1.1019
  730MOL0     H98505   0.061   7.082   9.948  0.8028  1.1930 -0.9058
  730MOL0     H98506   0.031   6.994   9.660  1.8757 -0.7369  1.2365
  730MOL0     H98507  -0.004   7.163   9.715  2.1126  0.1565  0.3899
  730MOL0     H98508  -0.222   7.048   9.708  0.5712  3.1087  0.2260
  730MOL0     H98509  -0.180   7.065   9.867 -0.6317 -1.6811  0.6774
  730MOL0     H98510  -0.112   6.630   9.741  0.3483  1.9293 -0.7278
  730MOL0     H98511  -0.287   6.457   9.769  0.0156 -0.2381  0.3510
  730MOL0     H98512  -0.746   6.417   9.989  1.2454  2.5372 -1.7830
  730MOL0     H98513  -0.947   6.278  10.031 -1.0659 -2.7978 -0.9630
  730MOL0     H98514  -1.094   6.008   9.770 -1.6939 -1.3197  0.7729
  730MOL0     H98515  -0.961   6.064   9.868  0.2363  1.1718 -0.1593
  730MOL0     H98516  -1.263   5.990   9.939 -0.9865 -0.0896  2.2591
  730MOL0     H98517  -1.116   5.914   9.996 -0.9591 -1.2411  0.5832
  730MOL0     H98518  -1.216   6.031  10.189  1.3406  3.1158  2.6494
  730MOL0     H98519  -1.089   6.123  10.150  0.8608  0.3974 -1.3560
  730MOL0     H98520  -1.234   6.283  10.007  3.0306  1.5423  2.0242
  730MOL0     H98521  -1.261   6.272  10.176  1.2400 -0.9084  0.2548
  730MOL0     H98522  -1.467   6.153  10.153  1.3916  0.1488  0.2173
  730MOL0     H98523  -1.449   6.130   9.982 -1.8529 -2.1759  2.0062
  730MOL0     H98524  -1.613   6.319  10.059  0.0746 -1.4991 -2.5006
  730MOL0     H98525  -1.480   6.389  10.159  1.9291 -2.8900  1.4949
  730MOL0     H98526  -1.354   6.445   9.964  0.7189  0.0168  0.3164
  730MOL0     H98527  -1.517   6.515   9.933 -4.9001 -2.1603  1.1261
  730MOL0     H98528  -1.438   6.406   9.725 -2.6749  0.4965  0.0527
  730MOL0     H98529  -1.422   6.254   9.811  0.2926 -0.1979  3.8076
  730MOL0     H98530  -1.028   6.339   9.603 -2.3415 -2.7036  1.7925
  730MOL0     H98531  -0.844   6.488   9.596  0.6353 -1.5356 -0.2397
  730MOL0     H98532  -0.569   6.776   9.847  2.4935  5.7479 -2.5061
  730MOL0     H98533  -0.382   6.936   9.844 -1.1954 -0.1324  1.9552
  730MOL0     H98534   0.733   5.853   9.870  1.7943  2.5088 -0.0268
  730MOL0     H98535   0.554   5.747   9.759  1.9405 -0.0334 -2.1546
  730MOL0     H98536   0.122   5.725   9.763  2.8537  3.1096 -1.4952
  730MOL0     H98537  -0.092   5.627   9.714 -0.4997 -2.7707 -2.0228
  730MOL0     H98538  -0.224   5.559   9.283  0.2309  2.1473 -1.4831
  730MOL0     H98539  -0.255   5.729   9.314  2.3272  0.2374  0.0792
  730MOL0     H98540  -0.469   5.634   9.438  0.5372 -0.1349  1.2990
  730MOL0     H98541  -0.441   5.486   9.371 -3.4408  0.4307  0.7761
  730MOL0     H98542  -0.417   5.614   9.133  0.2895 -1.0958  0.8089
  730MOL0     H98543  -0.533   5.725   9.217 -0.7983 -1.0964  2.4178
  730MOL0     H98544  -0.584   5.424   9.149  3.5834  1.1165 -2.1185
  730MOL0     H98545  -0.698   5.530   9.233 -2.0429 -0.4557 -1.2362
  730MOL0     H98546  -0.709   5.679   8.839 -2.4532  1.4126  1.6945
  730MOL0     H98547  -0.045   5.696   9.297 -4.7604  0.7308  1.5958
  730MOL0     H98548   0.159   5.742   9.207 -0.1882 -2.3638  1.7486
  730MOL0     H98549   0.223   5.871   9.297 -1.1842  0.1729 -1.7039
  730MOL0     H98550   0.311   5.711   9.290 -0.6912 -2.5027  1.7420
  731MOL0     O98551   7.878   9.440   5.504 -0.6576  0.3472 -0.0294
  731MOL0     C98552   7.900   9.488   5.393  0.0771  0.3260 -0.2572
  731MOL0     O98553   8.020   9.458   5.333 -0.2608 -0.6656  0.1747
  731MOL0     C98554   8.124   9.407   5.417 -0.5548  0.7999 -0.4436
  731MOL0     C98555   8.209   9.492   5.489 -0.2035  1.0327 -0.3570
  731MOL0     C98556   8.289   9.446   5.590  0.6326 -0.1274  0.0160
  731MOL0     C98557   8.304   9.306   5.605  0.4389 -0.5415 -0.3920
  731MOL0     O98558   8.381   9.273   5.708 -0.2249 -1.0327  0.3785
  731MOL0     C98559   8.411   9.131   5.720  0.3345  0.1590 -0.4386
  731MOL0     C98560   8.508   9.108   5.838  0.0230 -0.1585 -0.5561
  731MOL0     C98561   8.631   9.193   5.804 -0.0907 -0.2628  0.0584
  731MOL0     C98562   8.755   9.153   5.893  0.5748 -0.0774  0.3190
  731MOL0     C98563   8.868   9.246   5.863  1.1663  0.2895  0.0599
  731MOL0     C98564   9.007   9.189   5.922 -0.2872  0.2870 -0.3653
  731MOL0     C98565   9.116   9.293   5.899  0.6414 -0.6712 -0.2688
  731MOL0     C98566   9.255   9.247   5.933 -0.6511 -0.7376 -0.5121
  731MOL0     N98567   9.361   9.341   5.904  0.4905 -0.0503  0.4938
  731MOL0     C98568   9.391   9.390   5.781  0.4262  0.2137 -0.5381
  731MOL0     C98569   9.508   9.464   5.798 -0.2077  0.2507  1.2960
  731MOL0     C98570   9.588   9.536   5.689  0.5719  0.0920 -0.7773
  731MOL0     C98571   9.699   9.641   5.738 -0.0757  0.0386 -0.0073
  731MOL0     C98572   9.635   9.752   5.836 -0.2765 -0.1797  0.6183
  731MOL0     C98573   9.716   9.880   5.845  0.7068  0.4402  0.2552
  731MOL0     O98574   9.849   9.855   5.895 -0.0917  0.3125 -0.2571
  731MOL0     C98575   9.943   9.862   5.793 -0.7794  0.1806 -0.1954
  731MOL0     C98576   9.968   9.974   5.722 -0.5278 -0.6308 -0.5281
  731MOL0     C98577  10.067   9.971   5.623  0.2715  0.6755  0.4451
  731MOL0     C98578  10.140   9.847   5.598  0.6806  0.3964 -0.2641
  731MOL0     C98579  10.259   9.848   5.500  0.0639  1.3527 -0.6227
  731MOL0     O98580  10.269   9.749   5.413 -0.4226  0.3141  0.2394
  731MOL0     C98581  10.383   9.731   5.343 -0.0508  0.0241 -0.6215
  731MOL0     C98582  10.458   9.618   5.381 -0.8349 -0.3800  1.1306
  731MOL0     C98583  10.576   9.592   5.305 -0.7627 -0.3981 -0.6733
  731MOL0     C98584  10.640   9.677   5.208 -0.1029  0.9343 -0.0573
  731MOL0     O98585  10.761   9.656   5.148  0.8737  0.4253  1.3806
  731MOL0     C98586  10.870   9.649   5.238 -0.5584 -0.8587  0.4576
  731MOL0     C98587  11.005   9.650   5.168  0.5414 -0.2440  0.5220
  731MOL0     C98588  11.115   9.640   5.269 -0.1949 -1.0030  0.2064
  731MOL0     C98589  11.140   9.497   5.315 -0.3687  0.8248 -0.2606
  731MOL0     C98590  11.265   9.493   5.406  0.0691 -0.6597 -0.7522
  731MOL0     C98591  11.396   9.491   5.328  0.2804  0.5816  0.1572
  731MOL0     C98592  11.511   9.550   5.421  0.0388  0.0624  0.6867
  731MOL0     C98593  11.581   9.436   5.495 -0.1256  1.4605  0.7142
  731MOL0    Cl98594  11.668   9.322   5.387  0.1161  0.3085  0.4769
  731MOL0     C98595  10.554   9.774   5.169  0.6228  0.2141 -0.8443
  731MOL0     C98596  10.426   9.804   5.228 -0.4785  0.1689 -0.5468
  731MOL0     O98597  10.346   9.932   5.520  0.0094 -0.0209  0.1614
  731MOL0     C98598  10.095   9.727   5.659 -0.0224  0.3130  0.1419
  731MOL0     C98599  10.001   9.740   5.759 -0.2722 -0.1914 -0.1192
  731MOL0     N98600   9.542   9.459   5.932  0.3449 -0.9545  0.4243
  731MOL0     N98601   9.446   9.396   5.999 -0.2871 -0.7682  0.6552
  731MOL0     C98602   8.226   9.214   5.529  0.6537  0.4790  0.2765
  731MOL0     C98603   8.134   9.265   5.439 -0.3720 -0.6709  0.7246
  731MOL0     C98604   7.796   9.541   5.304 -0.4732 -0.7196 -0.4508
  731MOL0     C98605   7.811   9.514   5.164 -0.9724 -0.8712  0.2729
  731MOL0     C98606   7.724   9.557   5.068 -0.7877 -0.2097  0.3687
  731MOL0     C98607   7.614   9.630   5.108  0.0982 -0.5511 -0.2631
  731MOL0     O98608   7.529   9.658   4.996  0.4654  0.5615 -0.7005
  731MOL0     C98609   7.468   9.782   5.006 -0.3297  0.5851 -0.1625
  731MOL0     C98610   7.332   9.778   4.946 -0.5973  0.0152 -0.9725
  731MOL0     C98611   7.236   9.693   5.033 -0.1518 -0.7313  0.5532
  731MOL0     C98612   7.104   9.669   4.964 -0.1224  0.5406 -0.5599
  731MOL0     C98613   7.068   9.536   4.913  0.7840 -0.4238 -0.1140
  731MOL0     C98614   7.032   9.426   4.880 -1.0903 -0.9396  0.3505
  731MOL0     C98615   7.601   9.666   5.241  0.4874  0.2856  0.2828
  731MOL0     C98616   7.694   9.625   5.341 -1.1136  0.3546  0.1963
  731MOL0     C98617   7.661   9.655   5.480 -0.5336 -0.0553  0.4121
  731MOL0     H98618   8.197   9.599   5.484  2.8295  1.4138 -1.4572
  731MOL0     H98619   8.349   9.508   5.656  1.3025 -2.1157  1.3905
  731MOL0     H98620   8.322   9.074   5.748  0.8336 -0.2182  0.4001
  731MOL0     H98621   8.443   9.083   5.627 -0.2105 -0.2394 -0.4276
  731MOL0     H98622   8.534   9.003   5.857 -1.6095 -0.1079  2.5987
  731MOL0     H98623   8.463   9.149   5.928 -1.7030  1.2046 -1.9719
  731MOL0     H98624   8.623   9.300   5.827  1.0011 -0.6968  2.8705
  731MOL0     H98625   8.658   9.177   5.699  1.4993 -0.3774  0.4567
  731MOL0     H98626   8.734   9.150   6.001 -1.7908 -0.0776 -0.0975
  731MOL0     H98627   8.789   9.055   5.859  1.6718  1.1921 -2.5646
  731MOL0     H98628   8.882   9.261   5.756 -0.1633 -0.9169 -0.3196
  731MOL0     H98629   8.845   9.336   5.920  1.8101 -0.5235  1.6970
  731MOL0     H98630   8.993   9.175   6.030 -3.8669 -0.3114 -0.8142
  731MOL0     H98631   9.039   9.095   5.876 -1.3385 -0.3291  0.1377
  731MOL0     H98632   9.100   9.388   5.950  5.5616  0.0024  0.4826
  731MOL0     H98633   9.123   9.311   5.791  1.9867  0.2468 -0.0559
  731MOL0     H98634   9.259   9.225   6.040  0.4075 -1.7150 -0.7197
  731MOL0     H98635   9.287   9.158   5.876  0.1315 -1.6316  1.2563
  731MOL0     H98636   9.351   9.376   5.681  2.1207 -0.0946 -1.2217
  731MOL0     H98637   9.635   9.460   5.625  1.8069 -1.2188  1.5537
  731MOL0     H98638   9.509   9.598   5.645 -2.4590 -1.2073  2.4012
  731MOL0     H98639   9.764   9.586   5.808 -0.4115 -1.0733 -0.5465
  731MOL0     H98640   9.759   9.684   5.658  1.8052  1.2679  1.9344
  731MOL0     H98641   9.636   9.714   5.939  1.7276  0.0295  0.7098
  731MOL0     H98642   9.536   9.763   5.792  0.7685 -2.1119 -2.6150
  731MOL0     H98643   9.670   9.964   5.897  0.4417  1.8005 -2.0110
  731MOL0     H98644   9.722   9.906   5.738 -1.9226  1.6192  0.3385
  731MOL0     H98645   9.909  10.058   5.756 -1.1317 -2.5945  4.0136
  731MOL0     H98646  10.087  10.066   5.573  1.1227  1.2556  1.8330
  731MOL0     H98647  10.410   9.558   5.458 -1.6825  2.9151  3.4020
  731MOL0     H98648  10.643   9.512   5.338 -0.7184  0.2168  0.7986
  731MOL0     H98649  10.866   9.739   5.300 -1.2180  1.4212 -2.6649
  731MOL0     H98650  10.860   9.562   5.304 -2.2530  0.2530  1.7199
  731MOL0     H98651  11.014   9.563   5.103 -1.2065  0.0565 -0.1692
  731MOL0     H98652  11.002   9.738   5.102 -2.3440 -0.9146 -0.3781
  731MOL0     H98653  11.207   9.689   5.233 -0.6521  0.0208  0.3898
  731MOL0     H98654  11.081   9.708   5.348 -0.1278  2.3640 -2.4195
  731MOL0     H98655  11.157   9.428   5.232  2.2978  0.4659  0.4821
  731MOL0     H98656  11.048   9.477   5.370 -0.4645  0.1756 -0.6487
  731MOL0     H98657  11.260   9.402   5.467 -1.2686  0.6392  1.1785
  731MOL0     H98658  11.256   9.578   5.474  0.3687 -2.4149  1.6217
  731MOL0     H98659  11.423   9.387   5.307 -1.3137 -0.4075  2.5151
  731MOL0     H98660  11.382   9.543   5.234  0.7723 -2.0953 -1.5025
  731MOL0     H98661  11.476   9.619   5.498  0.6037  0.3573  0.6921
  731MOL0     H98662  11.586   9.598   5.357 -1.1073  0.1477 -0.6425
  731MOL0     H98663  11.655   9.489   5.557  1.9980 -0.3529 -0.1161
  731MOL0     H98664  11.516   9.385   5.566  0.6014 -2.8128 -1.3384
  731MOL0     H98665  10.594   9.841   5.094 -4.0346  0.5420 -3.4480
  731MOL0     H98666  10.357   9.881   5.194 -0.7853 -0.7286 -2.0420
  731MOL0     H98667  10.149   9.640   5.625  0.7214  1.7380 -2.6621
  731MOL0     H98668   9.971   9.642   5.797 -1.0287 -0.2526 -0.8474
  731MOL0     H98669   8.213   9.109   5.551 -4.8784  0.3915 -1.8778
  731MOL0     H98670   8.060   9.206   5.386 -1.2008  0.3066  0.7506
  731MOL0     H98671   7.900   9.461   5.133 -1.2357 -0.6908 -0.8696
  731MOL0     H98672   7.749   9.542   4.963 -0.4810 -2.7617  0.7496
  731MOL0     H98673   7.534   9.840   4.941  0.6685  1.1717  1.3300
  731MOL0     H98674   7.447   9.815   5.108 -2.8542 -1.7219  0.1964
  731MOL0     H98675   7.344   9.734   4.847  4.2796 -0.3553 -0.4629
  731MOL0     H98676   7.293   9.880   4.940 -0.3541  0.2504  0.8989
  731MOL0     H98677   7.209   9.745   5.125 -1.4109 -0.3417  0.0016
  731MOL0     H98678   7.291   9.608   5.072  1.6461 -0.6075 -1.5284
  731MOL0     H98679   7.025   9.697   5.034  0.3568  0.9889 -0.2024
  731MOL0     H98680   7.098   9.740   4.881 -0.7064  0.6656 -0.4177
  731MOL0     H98681   7.011   9.331   4.835  1.1038 -1.8575  1.1459
  731MOL0     H98682   7.512   9.716   5.277 -1.2057 -2.9505  1.0256
  731MOL0     H98683   7.594   9.741   5.492  0.6002  1.4766 -3.0883
  731MOL0     H98684   7.617   9.566   5.527  2.6902 -1.1050  1.7416
  731MOL0     H98685   7.751   9.684   5.535 -0.0511 -0.3768 -0.1965
  732MOL0     O98686   5.786   1.017   4.345 -0.1371  0.2775 -0.5835
  732MOL0     C98687   5.763   0.971   4.459  0.0639  0.2275  0.6321
  732MOL0     O98688   5.851   0.895   4.534 -0.3877 -0.7059 -0.1070
  732MOL0     C98689   5.983   0.901   4.510 -0.1658  0.1985 -0.4251
  732MOL0     C98690   6.050   0.995   4.434  0.3128  0.2696 -0.6094
  732MOL0     C98691   6.186   1.009   4.442  0.5032  0.2045 -0.2265
  732MOL0     C98692   6.267   0.930   4.521 -0.4298 -0.5256 -0.4698
  732MOL0     O98693   6.404   0.956   4.519  0.6489  0.6325  0.7495
  732MOL0     C98694   6.491   0.892   4.615 -0.7488  0.3243 -0.1931
  732MOL0     C98695   6.641   0.944   4.593 -0.1445  0.3173 -0.7731
  732MOL0     C98696   6.689   0.908   4.457  0.3907 -0.8058 -0.1630
  732MOL0     C98697   6.819   0.833   4.459 -0.2547  0.6736 -0.3558
  732MOL0     C98698   6.865   0.825   4.313  0.0590  0.2631  0.3291
  732MOL0     C98699   7.007   0.761   4.294 -0.5434 -0.7161  0.6300
  732MOL0     C98700   7.122   0.851   4.331 -0.5949  0.0859  0.3958
  732MOL0     C98701   7.259   0.785   4.300  0.0799  0.2359  0.1418
  732MOL0     N98702   7.337   0.866   4.205  0.6276 -0.3900 -0.2185
  732MOL0     C98703   7.455   0.930   4.235 -0.5912  0.5788  0.4871
  732MOL0     C98704   7.482   0.993   4.121 -0.1880 -0.2289  0.2754
  732MOL0     C98705   7.610   1.066   4.086  0.0579  0.2925 -0.8866
  732MOL0     C98706   7.714   0.967   4.023 -0.6630  0.7394  0.0868
  732MOL0     C98707   7.863   1.029   4.040  0.3826  0.6379 -0.7800
  732MOL0     C98708   7.954   0.951   3.939  0.1884 -1.2554 -0.3081
  732MOL0     O98709   8.081   1.025   3.937 -0.1818  0.9334  0.6402
  732MOL0     C98710   8.201   0.962   3.909 -0.3150 -0.7089  0.9926
  732MOL0     C98711   8.215   0.830   3.873 -0.3426  0.3050  0.0058
  732MOL0     C98712   8.333   0.764   3.834  0.2260 -0.7139 -0.0867
  732MOL0     C98713   8.452   0.833   3.844  0.3489  0.0195 -0.2389
  732MOL0     C98714   8.585   0.775   3.803 -0.0395 -0.1978 -0.2031
  732MOL0     O98715   8.693   0.857   3.815 -0.3691  1.0624 -0.2215
  732MOL0     C98716   8.821   0.816   3.782 -0.4713 -0.2408  0.8476
  732MOL0     C98717   8.918   0.870   3.858 -0.4155  0.0557 -0.7137
  732MOL0     C98718   9.047   0.822   3.841 -0.4034 -0.7150 -0.4874
  732MOL0     C98719   9.083   0.735   3.744 -0.5328  1.1899 -0.3743
  732MOL0     O98720   9.217   0.696   3.743  0.5249  0.8637  0.3276
  732MOL0     C98721   9.267   0.588   3.656 -0.0091  0.9047 -0.4977
  732MOL0     C98722   9.316   0.655   3.531  0.6622 -0.4601 -0.4712
  732MOL0     C98723   9.443   0.593   3.482 -0.1690 -0.5379  0.0418
  732MOL0     C98724   9.560   0.670   3.540  0.2288 -0.5146 -0.6723
  732MOL0     C98725   9.691   0.628   3.476  0.1042 -0.1321 -0.6484
  732MOL0     C98726   9.806   0.698   3.533 -0.7496 -0.1753 -0.5623
  732MOL0     C98727   9.948   0.653   3.478  0.2360 -0.7876 -0.1392
  732MOL0     C98728  10.043   0.774   3.495  1.1483 -0.1005 -0.2674
  732MOL0    Cl98729  10.011   0.908   3.381 -0.0872  0.0793  0.1391
  732MOL0     C98730   8.985   0.692   3.655 -0.0425 -0.1333  0.2354
  732MOL0     C98731   8.855   0.738   3.671 -0.3437 -0.3232 -1.0072
  732MOL0     O98732   8.591   0.661   3.758  0.2150 -0.2784 -0.2319
  732MOL0     C98733   8.446   0.966   3.883 -0.6980  0.6438 -0.3812
  732MOL0     C98734   8.321   1.029   3.917 -0.0037 -0.4120  0.2107
  732MOL0     N98735   7.384   0.960   4.026  0.4284 -0.9238  0.4415
  732MOL0     N98736   7.306   0.876   4.075  1.2530 -0.2089  0.5796
  732MOL0     C98737   6.201   0.832   4.597  0.1804  0.3330 -0.1756
  732MOL0     C98738   6.059   0.818   4.597 -0.8653 -0.3499 -0.8663
  732MOL0     C98739   5.621   0.991   4.515 -0.0035 -0.5121  0.7783
  732MOL0     C98740   5.519   0.993   4.421  0.6114  0.5236  0.0913
  732MOL0     C98741   5.381   1.002   4.469  0.1883  0.5963  0.2663
  732MOL0     C98742   5.352   1.031   4.605  0.0691  0.1702 -1.0538
  732MOL0     O98743   5.233   1.051   4.672 -0.0525 -0.1486  0.6522
  732MOL0     C98744   5.123   1.043   4.597 -0.0677  0.5180  0.0938
  732MOL0     C98745   5.006   1.019   4.698  0.0212  0.1361 -0.8864
  732MOL0     C98746   4.873   1.040   4.617 -0.0827  0.2709  0.5961
  732MOL0     C98747   4.752   1.061   4.713 -1.1000  0.0026  0.3827
  732MOL0     C98748   4.623   1.065   4.646  0.1976  0.6256  0.3909
  732MOL0     C98749   4.514   1.095   4.598 -0.1449  0.1069  0.2761
  732MOL0     C98750   5.458   1.038   4.696  0.2448  0.6724 -0.5003
  732MOL0     C98751   5.588   1.019   4.652 -0.8871 -0.4488 -0.4278
  732MOL0     C98752   5.698   1.018   4.751 -0.3469 -0.5455 -0.0088
  732MOL0     H98753   5.999   1.079   4.386 -1.9145 -0.3374  0.5485
  732MOL0     H98754   6.229   1.084   4.377  0.9329 -0.2795 -0.5098
  732MOL0     H98755   6.459   0.924   4.715 -0.9609  0.9977 -0.4730
  732MOL0     H98756   6.471   0.788   4.586 -1.1822  1.1329 -3.1400
  732MOL0     H98757   6.704   0.902   4.672 -1.3879  1.6130  0.9985
  732MOL0     H98758   6.639   1.053   4.601 -0.5296  0.1914  2.0722
  732MOL0     H98759   6.701   1.002   4.402 -1.1879  0.1024  0.9493
  732MOL0     H98760   6.626   0.834   4.405  3.3135 -2.4538 -1.6147
  732MOL0     H98761   6.898   0.886   4.512 -0.3637 -0.2187  0.7198
  732MOL0     H98762   6.814   0.731   4.499  1.0604  0.8466  0.3010
  732MOL0     H98763   6.793   0.755   4.268  0.5858 -0.2029  0.1883
  732MOL0     H98764   6.850   0.907   4.242 -2.1012  0.2231  0.6762
  732MOL0     H98765   6.997   0.669   4.354  2.5017 -2.3696 -1.1498
  732MOL0     H98766   7.014   0.717   4.194 -0.9990 -4.5814  2.0988
  732MOL0     H98767   7.122   0.878   4.437 -4.4653  1.0325  0.3052
  732MOL0     H98768   7.105   0.947   4.281 -2.0817 -1.3844 -2.1404
  732MOL0     H98769   7.309   0.779   4.397  0.8772 -1.7730 -0.3459
  732MOL0     H98770   7.237   0.684   4.263  1.8938 -1.4275  3.2212
  732MOL0     H98771   7.516   0.926   4.325  1.6592  0.9774 -0.9500
  732MOL0     H98772   7.587   1.144   4.013 -1.3282 -0.0519 -0.8336
  732MOL0     H98773   7.662   1.104   4.175  1.4438 -1.3097 -0.9738
  732MOL0     H98774   7.719   0.878   4.086 -1.1718  1.9391  1.8885
  732MOL0     H98775   7.692   0.938   3.919  1.7157  0.7769 -0.4865
  732MOL0     H98776   7.908   1.023   4.140 -0.5981 -0.3592 -0.3872
  732MOL0     H98777   7.858   1.133   4.006  3.4373  0.2726 -2.6929
  732MOL0     H98778   7.914   0.953   3.838 -0.1233 -0.0621 -0.1762
  732MOL0     H98779   7.970   0.847   3.968 -0.3024 -0.8217  1.7283
  732MOL0     H98780   8.125   0.769   3.871 -0.7844  0.9625 -1.9216
  732MOL0     H98781   8.334   0.659   3.807 -2.1935 -0.7365 -0.3441
  732MOL0     H98782   8.885   0.930   3.943 -0.1604 -0.7587 -0.0268
  732MOL0     H98783   9.128   0.851   3.907 -2.0906 -0.9808  1.8247
  732MOL0     H98784   9.354   0.545   3.706  0.5119  2.1287 -0.3259
  732MOL0     H98785   9.190   0.510   3.650 -0.8117  1.4042  2.1215
  732MOL0     H98786   9.234   0.650   3.458  1.0441 -1.6061 -0.8450
  732MOL0     H98787   9.328   0.761   3.554 -0.9517 -0.2678 -0.3964
  732MOL0     H98788   9.447   0.487   3.510 -0.6152 -0.2064  1.4197
  732MOL0     H98789   9.445   0.604   3.373 -0.8602  1.4158  0.1899
  732MOL0     H98790   9.568   0.656   3.648  0.4249 -0.6828 -0.7056
  732MOL0     H98791   9.560   0.777   3.521 -0.8902 -0.4579 -0.4251
  732MOL0     H98792   9.684   0.628   3.367 -0.8463 -0.5637 -0.6018
  732MOL0     H98793   9.706   0.522   3.498  1.0402  0.3863  1.4810
  732MOL0     H98794   9.794   0.806   3.518  1.1390  0.1977  0.2989
  732MOL0     H98795   9.808   0.667   3.638  1.2878 -1.6242 -0.9643
  732MOL0     H98796   9.950   0.622   3.373  1.2419  0.0016 -0.3644
  732MOL0     H98797   9.992   0.568   3.532 -0.7193 -0.3400  1.4068
  732MOL0     H98798  10.034   0.822   3.593 -4.8401 -0.8092 -0.0995
  732MOL0     H98799  10.148   0.745   3.484  0.8158 -1.0682 -0.9591
  732MOL0     H98800   8.995   0.640   3.560 -0.9511 -1.0252  0.6063
  732MOL0     H98801   8.766   0.717   3.612 -2.4251  2.1493  0.9761
  732MOL0     H98802   8.542   1.017   3.891  0.7253 -1.9613  0.2795
  732MOL0     H98803   8.327   1.135   3.940  0.7667  0.4485 -3.2933
  732MOL0     H98804   6.262   0.769   4.662  2.5320  1.3368 -1.3097
  732MOL0     H98805   6.006   0.767   4.677  0.4405 -1.4969 -0.6915
  732MOL0     H98806   5.530   0.980   4.314  0.3810  0.1075  0.1185
  732MOL0     H98807   5.308   0.989   4.390 -0.4690 -0.2319  0.9922
  732MOL0     H98808   5.133   0.951   4.539  0.1944 -2.1029  3.9227
  732MOL0     H98809   5.108   1.132   4.535  0.4824  0.2602 -0.4119
  732MOL0     H98810   5.006   1.099   4.773 -2.3103 -0.1711 -0.4738
  732MOL0     H98811   5.006   0.927   4.758  0.2692  0.5965 -0.1678
  732MOL0     H98812   4.847   0.948   4.564 -1.5890  0.5074  0.8748
  732MOL0     H98813   4.875   1.124   4.548  1.5282  0.7004  1.1214
  732MOL0     H98814   4.736   0.982   4.788 -2.4986  2.6134  3.0255
  732MOL0     H98815   4.773   1.158   4.759  2.0251  1.7498 -4.0626
  732MOL0     H98816   4.430   1.125   4.539 -0.5682 -2.8575 -0.7988
  732MOL0     H98817   5.452   1.072   4.799 -1.9248  0.6804 -0.5856
  732MOL0     H98818   5.720   0.915   4.784 -1.8055 -0.5262  1.1458
  732MOL0     H98819   5.791   1.062   4.714 -0.4602  1.1696  1.5949
  732MOL0     H98820   5.685   1.082   4.839  0.4783  1.3358 -1.2234
  733MOL0     O98821   8.018   9.201   3.313 -0.3997 -0.2295  0.4660
  733MOL0     C98822   8.045   9.312   3.250  0.2473  0.1335  0.1413
  733MOL0     O98823   8.155   9.383   3.270 -0.0387  0.2730  0.3763
  733MOL0     C98824   8.247   9.327   3.362 -0.0594 -0.4466  0.1944
  733MOL0     C98825   8.231   9.335   3.498 -1.0649 -0.6643  0.0786
  733MOL0     C98826   8.331   9.287   3.585 -0.5533  0.2697 -0.8918
  733MOL0     C98827   8.442   9.210   3.542  0.6834 -0.2033 -0.2903
  733MOL0     O98828   8.525   9.153   3.629 -0.4941  0.4093 -0.0233
  733MOL0     C98829   8.587   9.036   3.582  0.8524  0.5206  0.0463
  733MOL0     C98830   8.703   8.999   3.674 -1.0120  0.5815  1.1630
  733MOL0     C98831   8.759   8.863   3.626  0.5732 -0.4365  0.7586
  733MOL0     C98832   8.868   8.806   3.728 -0.3445 -0.5342 -0.3058
  733MOL0     C98833   8.918   8.671   3.673  0.2669 -0.2814  0.0639
  733MOL0     C98834   9.053   8.616   3.737  0.2770  0.1156  0.6713
  733MOL0     C98835   9.024   8.557   3.871 -0.8324 -0.2697 -0.2795
  733MOL0     C98836   9.152   8.517   3.936 -0.6910 -0.0387  1.0169
  733MOL0     N98837   9.132   8.471   4.072 -0.0957 -0.0237 -0.1616
  733MOL0     C98838   9.204   8.373   4.128 -0.0883  1.2697  0.2077
  733MOL0     C98839   9.167   8.365   4.257  0.0454  0.5127  0.0592
  733MOL0     C98840   9.224   8.253   4.340 -0.0788 -0.5583 -0.2089
  733MOL0     C98841   9.293   8.313   4.462 -0.3108  0.0111 -0.3837
  733MOL0     C98842   9.364   8.199   4.541 -0.1532  0.3138  0.0889
  733MOL0     C98843   9.380   8.239   4.686  0.1986 -0.5435 -0.4913
  733MOL0     O98844   9.443   8.135   4.752  0.1246  0.3742 -0.7353
  733MOL0     C98845   9.557   8.144   4.823  0.1705  0.8856  0.8677
  733MOL0     C98846   9.669   8.210   4.767  0.0271  0.4792 -0.1041
  733MOL0     C98847   9.786   8.218   4.853  0.6323 -0.2958  0.8958
  733MOL0     C98848   9.783   8.148   4.975 -0.0488 -0.9256 -1.7734
  733MOL0     C98849   9.893   8.157   5.064 -0.6407 -0.8180 -0.1054
  733MOL0     O98850   9.900   8.062   5.171  0.1510  0.0042 -0.3259
  733MOL0     C98851  10.024   8.053   5.235  0.6616 -0.0005  0.7461
  733MOL0     C98852  10.042   8.044   5.376 -0.2732 -0.4112 -0.2312
  733MOL0     C98853  10.168   8.044   5.437 -0.1805 -0.5382 -0.6966
  733MOL0     C98854  10.287   8.054   5.361 -0.3442  0.3307  1.3524
  733MOL0     O98855  10.401   8.049   5.436  0.0006  0.5161  0.0902
  733MOL0     C98856  10.534   8.052   5.373  0.7223  0.0105 -0.7942
  733MOL0     C98857  10.613   8.167   5.428  0.5097 -0.0310 -0.7408
  733MOL0     C98858  10.745   8.193   5.351  0.2951  0.2866  0.0875
  733MOL0     C98859  10.735   8.289   5.227  0.3643 -0.9983  0.6390
  733MOL0     C98860  10.877   8.290   5.164 -0.4422 -0.7483  1.3225
  733MOL0     C98861  10.897   8.370   5.031  0.0730  0.0069 -0.4455
  733MOL0     C98862  10.909   8.519   5.065  0.5316  0.0367 -0.8516
  733MOL0     C98863  10.967   8.607   4.958 -0.0438  1.5354  0.0047
  733MOL0    Cl98864  10.994   8.784   5.009 -0.0645 -0.0918  0.0934
  733MOL0     C98865  10.273   8.044   5.218 -0.1694  0.2465  0.8226
  733MOL0     C98866  10.147   8.047   5.161  0.6870  0.2108  0.6185
  733MOL0     O98867   9.981   8.248   5.043 -0.0688 -0.7042 -0.0521
  733MOL0     C98868   9.673   8.080   5.025 -0.0957 -0.7118 -0.4864
  733MOL0     C98869   9.561   8.076   4.942 -0.4435  0.0970 -0.8461
  733MOL0     N98870   9.072   8.461   4.286  0.2854  0.2155 -0.3973
  733MOL0     N98871   9.047   8.524   4.172  0.9326 -0.7598  0.3663
  733MOL0     C98872   8.460   9.207   3.400  0.2972 -0.3254  0.2342
  733MOL0     C98873   8.362   9.261   3.309  0.4344 -0.0880 -0.1185
  733MOL0     C98874   7.950   9.347   3.144 -0.3127  0.4939  0.8687
  733MOL0     C98875   7.988   9.456   3.064  0.2260 -0.5348  0.4009
  733MOL0     C98876   7.912   9.503   2.955 -0.2645  0.4022  0.0062
  733MOL0     C98877   7.787   9.448   2.921 -0.6400  0.5363  0.1312
  733MOL0     O98878   7.709   9.493   2.822  0.0813 -0.6150  0.4657
  733MOL0     C98879   7.756   9.599   2.740 -0.7610  0.7568  0.0526
  733MOL0     C98880   7.654   9.628   2.621 -0.3565  0.2584  0.1317
  733MOL0     C98881   7.651   9.531   2.503  0.1159 -1.1071  0.1267
  733MOL0     C98882   7.562   9.576   2.388  0.7816  0.0483 -0.6958
  733MOL0     C98883   7.543   9.475   2.282 -0.9165 -0.3379 -0.7239
  733MOL0     C98884   7.527   9.389   2.197  0.0000  0.1673  0.7784
  733MOL0     C98885   7.742   9.350   3.010  0.1031  0.0340 -0.0665
  733MOL0     C98886   7.818   9.290   3.117  0.0921  1.2494  0.1642
  733MOL0     C98887   7.753   9.185   3.195 -0.1349 -0.2029  0.8038
  733MOL0     H98888   8.135   9.378   3.527 -1.0081 -0.0183 -0.6689
  733MOL0     H98889   8.304   9.305   3.688  2.9637  2.1612 -0.1442
  733MOL0     H98890   8.517   8.952   3.576  1.4080  0.0784 -0.4434
  733MOL0     H98891   8.629   9.045   3.481  0.8906 -1.9217 -0.2320
  733MOL0     H98892   8.656   8.985   3.772 -2.1139  0.8131  0.6846
  733MOL0     H98893   8.771   9.084   3.680 -1.4252  0.8431  2.6281
  733MOL0     H98894   8.795   8.877   3.524 -1.9584  1.8823  0.0347
  733MOL0     H98895   8.681   8.786   3.615  1.3080 -0.8999 -1.8589
  733MOL0     H98896   8.947   8.880   3.747 -0.1589 -0.9265  0.4591
  733MOL0     H98897   8.833   8.808   3.831  2.3914  2.4202  0.7406
  733MOL0     H98898   8.846   8.591   3.691 -0.3805 -0.4277 -2.8175
  733MOL0     H98899   8.924   8.678   3.564  1.8712 -2.2465 -0.0316
  733MOL0     H98900   9.095   8.535   3.676 -0.1463  1.4496 -1.5124
  733MOL0     H98901   9.123   8.700   3.736  0.4724 -0.0250 -1.1380
  733MOL0     H98902   8.961   8.468   3.860  0.8583 -1.4976 -0.3472
  733MOL0     H98903   8.988   8.638   3.935  1.7808  1.6251 -1.0437
  733MOL0     H98904   9.207   8.437   3.885  2.7151  2.9205 -0.3589
  733MOL0     H98905   9.211   8.609   3.941 -2.4176  1.2517 -0.8216
  733MOL0     H98906   9.271   8.308   4.073 -1.9213  1.3334 -2.2737
  733MOL0     H98907   9.138   8.205   4.388  1.5254 -1.3226  2.1213
  733MOL0     H98908   9.290   8.179   4.294  1.8974 -0.9124  2.8610
  733MOL0     H98909   9.367   8.385   4.427 -0.5673 -0.7120 -2.5380
  733MOL0     H98910   9.220   8.360   4.529 -0.2042 -0.8415  0.3453
  733MOL0     H98911   9.458   8.174   4.493 -0.3959  2.5071 -1.6959
  733MOL0     H98912   9.300   8.110   4.532 -1.0697  1.0218 -0.6931
  733MOL0     H98913   9.278   8.255   4.723  0.2454  0.2438 -0.6812
  733MOL0     H98914   9.429   8.338   4.687 -1.3779  0.2953 -2.2438
  733MOL0     H98915   9.664   8.251   4.666 -0.5542  0.3904 -0.1170
  733MOL0     H98916   9.870   8.271   4.808  0.1575  0.7007  1.1441
  733MOL0     H98917   9.957   8.062   5.441 -0.6400 -1.2746 -0.4474
  733MOL0     H98918  10.172   8.065   5.543 -2.7903  1.5362 -0.8862
  733MOL0     H98919  10.589   7.962   5.400  1.5767 -0.7067 -4.3991
  733MOL0     H98920  10.529   8.064   5.265 -1.5270 -0.1171 -0.7580
  733MOL0     H98921  10.549   8.255   5.423  2.4134  1.4424 -0.2078
  733MOL0     H98922  10.645   8.133   5.527  2.0701 -1.0865 -1.5572
  733MOL0     H98923  10.820   8.233   5.420  0.9530 -1.6831  0.5777
  733MOL0     H98924  10.791   8.097   5.325 -1.6921 -0.6579 -0.1711
  733MOL0     H98925  10.708   8.387   5.267 -2.7916 -1.5015  0.0280
  733MOL0     H98926  10.650   8.253   5.167 -0.7805  0.2446  1.4734
  733MOL0     H98927  10.893   8.184   5.143 -1.8081 -0.5789 -1.0402
  733MOL0     H98928  10.952   8.323   5.237 -0.1747  4.0610 -0.7515
  733MOL0     H98929  10.990   8.342   4.980 -0.6062 -1.2792 -1.0316
  733MOL0     H98930  10.806   8.361   4.970 -0.1257 -1.0802 -0.0083
  733MOL0     H98931  10.980   8.540   5.146 -1.1949 -0.9202  0.9994
  733MOL0     H98932  10.815   8.563   5.099  1.5218  1.6795 -0.1029
  733MOL0     H98933  11.067   8.566   4.944 -0.1484  0.3446  2.2572
  733MOL0     H98934  10.895   8.606   4.876 -0.2908 -0.2064  0.2193
  733MOL0     H98935  10.362   8.022   5.159  0.9291  0.2906  2.3988
  733MOL0     H98936  10.138   8.045   5.053  1.5358 -0.6417  0.5522
  733MOL0     H98937   9.662   8.020   5.115  0.7528 -0.5200 -0.2481
  733MOL0     H98938   9.473   8.017   4.967 -0.7584  0.6483 -0.6225
  733MOL0     H98939   8.551   9.163   3.362  2.1932  1.7606  2.0796
  733MOL0     H98940   8.389   9.255   3.204  2.0437 -0.4863  0.2867
  733MOL0     H98941   8.073   9.520   3.085  1.4201 -1.9289  0.0635
  733MOL0     H98942   7.950   9.588   2.900 -1.5205  0.4977 -0.7498
  733MOL0     H98943   7.855   9.574   2.702 -1.5130 -1.6122 -0.5205
  733MOL0     H98944   7.764   9.689   2.801 -5.7137  2.1612 -0.8766
  733MOL0     H98945   7.683   9.726   2.584  1.7404  0.7376  2.7136
  733MOL0     H98946   7.551   9.645   2.656 -0.0784 -0.3755  1.3241
  733MOL0     H98947   7.606   9.441   2.545 -2.8035 -0.0669 -0.5449
  733MOL0     H98948   7.749   9.513   2.458 -0.5529  0.3704 -2.0628
  733MOL0     H98949   7.461   9.602   2.423  0.7272 -0.7145 -0.2646
  733MOL0     H98950   7.604   9.662   2.334 -0.9017  0.5448 -1.3162
  733MOL0     H98951   7.529   9.320   2.114 -1.6642 -0.9959  1.6506
  733MOL0     H98952   7.643   9.310   2.994 -0.7163  1.5969  0.8888
  733MOL0     H98953   7.775   9.210   3.299  0.2182  0.7087  0.5260
  733MOL0     H98954   7.644   9.192   3.201 -0.0691 -0.1449  2.6363
  733MOL0     H98955   7.792   9.085   3.174 -1.1731 -0.1188 -1.8206
  734MOL0     O98956   0.767   9.077   2.725 -0.0134  0.1008  0.7492
  734MOL0     C98957   0.781   9.159   2.811 -0.4280  0.1165  0.2693
  734MOL0     O98958   0.815   9.120   2.931 -0.6669  0.9291 -0.0306
  734MOL0     C98959   0.849   8.989   2.956 -1.1434  0.0247  0.4340
  734MOL0     C98960   0.984   8.969   2.989 -0.5553 -0.1377 -0.8302
  734MOL0     C98961   1.027   8.843   3.014 -0.6684 -0.5418 -0.4078
  734MOL0     C98962   0.943   8.734   3.030 -0.6116 -0.5851 -0.4664
  734MOL0     O98963   0.990   8.604   3.052  0.7762 -0.3030 -0.1140
  734MOL0     C98964   1.074   8.588   3.159 -0.3521 -0.7435  0.2986
  734MOL0     C98965   1.196   8.530   3.091  0.6799  0.8100 -0.0958
  734MOL0     C98966   1.282   8.622   3.018  0.0715  0.0040 -0.5094
  734MOL0     C98967   1.402   8.542   2.967 -0.1594 -0.9765  0.3204
  734MOL0     C98968   1.520   8.631   2.913  0.8184  0.4441  0.2175
  734MOL0     C98969   1.635   8.548   2.859  0.5955  0.3337  0.4712
  734MOL0     C98970   1.597   8.466   2.734  0.8744  0.1067  1.2997
  734MOL0     C98971   1.730   8.434   2.660 -0.4209  0.5089 -0.5201
  734MOL0     N98972   1.712   8.379   2.523  0.5121  0.0304  0.1121
  734MOL0     C98973   1.663   8.253   2.522  0.3329 -0.5576  0.0506
  734MOL0     C98974   1.692   8.216   2.400  0.0394  1.2664 -0.6057
  734MOL0     C98975   1.649   8.087   2.339  0.1548 -0.2277 -1.0078
  734MOL0     C98976   1.500   8.089   2.294  0.3128  1.0538  0.3848
  734MOL0     C98977   1.461   8.150   2.162  0.8755 -0.6147 -0.2501
  734MOL0     C98978   1.319   8.110   2.109  0.2189 -0.0091 -0.3482
  734MOL0     O98979   1.214   8.153   2.195  0.1966 -0.7496  0.6894
  734MOL0     C98980   1.091   8.150   2.133  0.0733 -0.3893  0.8048
  734MOL0     C98981   0.983   8.174   2.219  0.7071 -0.6343 -0.6467
  734MOL0     C98982   0.852   8.159   2.177  0.0252 -0.4798  0.2515
  734MOL0     C98983   0.821   8.150   2.039  0.5157  0.3094 -0.6050
  734MOL0     C98984   0.681   8.156   1.989  0.7569  0.6204 -0.4104
  734MOL0     O98985   0.659   8.189   1.855 -1.0401  0.0084  0.3429
  734MOL0     C98986   0.534   8.152   1.810  0.0730  0.5472 -0.1656
  734MOL0     C98987   0.418   8.203   1.865 -0.6506  0.7460 -0.2087
  734MOL0     C98988   0.294   8.163   1.818 -0.5044  0.8408  0.4435
  734MOL0     C98989   0.278   8.080   1.707  0.1455 -0.2360 -0.1019
  734MOL0     O98990   0.153   8.053   1.659  0.9407 -0.2218 -0.1951
  734MOL0     C98991   0.035   8.124   1.711 -0.3747 -0.3467 -0.2074
  734MOL0     C98992  -0.065   8.066   1.615  0.2047 -0.3228  0.1170
  734MOL0     C98993  -0.207   8.126   1.642 -0.7681 -1.1067 -0.3486
  734MOL0     C98994  -0.317   8.059   1.559 -0.4869  0.2745 -0.0233
  734MOL0     C98995  -0.451   8.085   1.614 -0.6930 -0.5241  0.0010
  734MOL0     C98996  -0.532   8.192   1.532  0.4313 -0.2028  0.4092
  734MOL0     C98997  -0.568   8.162   1.380  0.8974  0.0092  0.3913
  734MOL0     C98998  -0.674   8.261   1.318  0.3756 -0.4681  0.1313
  734MOL0    Cl98999  -0.820   8.269   1.409  0.2832  0.3780  0.1116
  734MOL0     C99000   0.396   8.045   1.644  0.0718 -1.0345  0.4387
  734MOL0     C99001   0.521   8.079   1.695 -0.3008 -0.4024  0.2605
  734MOL0     O99002   0.593   8.114   2.066 -0.6980  0.3940 -0.4914
  734MOL0     C99003   0.925   8.125   1.952  0.1457 -0.3115 -0.6261
  734MOL0     C99004   1.060   8.125   1.996  0.3967  0.3646  0.0678
  734MOL0     N99005   1.748   8.316   2.327 -0.5496 -0.2063  0.0067
  734MOL0     N99006   1.756   8.422   2.401  0.3887  0.1127  0.2147
  734MOL0     C99007   0.813   8.758   2.999  0.4039  0.0169  0.1205
  734MOL0     C99008   0.761   8.886   2.968 -0.0132  0.2277  0.0007
  734MOL0     C99009   0.748   9.299   2.784  0.6052 -0.7323 -1.2429
  734MOL0     C99010   0.752   9.388   2.896 -0.8333  0.5642 -0.7767
  734MOL0     C99011   0.713   9.524   2.886  0.0016  1.2985  0.1175
  734MOL0     C99012   0.652   9.569   2.765  0.0435 -0.1094 -0.8662
  734MOL0     O99013   0.617   9.695   2.740 -0.1095 -0.3422  0.6697
  734MOL0     C99014   0.635   9.789   2.842  0.1791  0.4770  0.5231
  734MOL0     C99015   0.595   9.932   2.806  0.7100 -1.0045  0.6174
  734MOL0     C99016   0.693   9.997   2.710  0.3542 -0.6926  0.6956
  734MOL0     C99017   0.646  10.139   2.690  0.1221 -0.2422 -0.2065
  734MOL0     C99018   0.728  10.219   2.597 -0.1002 -0.5040  1.0879
  734MOL0     C99019   0.783  10.290   2.517  0.1674 -0.7707 -0.5698
  734MOL0     C99020   0.640   9.483   2.660  0.9855  0.3618  0.2150
  734MOL0     C99021   0.692   9.353   2.661  0.5949  0.1296  0.4783
  734MOL0     C99022   0.706   9.281   2.533  1.1551  0.0252  0.1523
  734MOL0     H99023   1.056   9.050   2.987  0.5436 -0.9820  1.0420
  734MOL0     H99024   1.133   8.826   3.033 -0.7320 -1.4224 -0.8344
  734MOL0     H99025   1.097   8.684   3.207 -3.4205  0.1542  0.1807
  734MOL0     H99026   1.042   8.522   3.240 -0.6601 -0.8164  0.1161
  734MOL0     H99027   1.162   8.449   3.027  2.3228  1.1840 -1.5121
  734MOL0     H99028   1.258   8.491   3.173 -0.6052  0.7483  0.8754
  734MOL0     H99029   1.324   8.714   3.059  1.4357  0.5849 -2.9732
  734MOL0     H99030   1.228   8.653   2.928  0.5892 -2.3435 -1.7042
  734MOL0     H99031   1.447   8.487   3.051 -1.5356 -3.5053 -0.4982
  734MOL0     H99032   1.381   8.469   2.889 -0.2730 -0.0405 -0.5378
  734MOL0     H99033   1.487   8.709   2.844 -0.8345 -0.4215 -0.0493
  734MOL0     H99034   1.555   8.691   2.998 -0.4198  2.4142 -0.5830
  734MOL0     H99035   1.712   8.621   2.833 -1.1735  0.9344 -4.0563
  734MOL0     H99036   1.680   8.478   2.930 -1.5694 -1.8829 -0.2181
  734MOL0     H99037   1.534   8.521   2.663  2.5847  1.9070  1.1040
  734MOL0     H99038   1.542   8.376   2.763 -1.6854  0.9857 -0.4178
  734MOL0     H99039   1.787   8.528   2.663 -0.6189  0.6564 -1.2363
  734MOL0     H99040   1.778   8.357   2.721  0.2378 -0.0723 -1.7292
  734MOL0     H99041   1.629   8.193   2.605 -1.5821  2.4751  1.6246
  734MOL0     H99042   1.711   8.064   2.251 -0.8535 -0.1675 -1.7556
  734MOL0     H99043   1.663   8.012   2.418 -3.2824 -2.1935 -2.0244
  734MOL0     H99044   1.468   7.985   2.291  0.0633  1.1400 -2.3979
  734MOL0     H99045   1.440   8.140   2.370  1.0291  0.6424  1.2464
  734MOL0     H99046   1.538   8.127   2.089 -0.8616 -1.0824 -2.0253
  734MOL0     H99047   1.447   8.256   2.187 -2.0254 -0.8886 -0.3287
  734MOL0     H99048   1.317   8.002   2.094 -1.8142 -0.2459  1.1491
  734MOL0     H99049   1.306   8.151   2.008 -0.7973  0.3104 -0.0992
  734MOL0     H99050   0.998   8.174   2.326  0.7474  1.8797 -0.6065
  734MOL0     H99051   0.771   8.156   2.250  0.7695 -1.1845  1.0722
  734MOL0     H99052   0.428   8.264   1.954  1.0131 -1.2459  1.0654
  734MOL0     H99053   0.214   8.204   1.878  0.0969 -0.7134  2.4276
  734MOL0     H99054   0.012   8.094   1.813  0.1686  1.4478  0.4835
  734MOL0     H99055   0.044   8.233   1.699 -1.3709 -0.1290  0.8926
  734MOL0     H99056  -0.050   8.088   1.509 -1.5458  0.6146  0.0191
  734MOL0     H99057  -0.053   7.957   1.616  1.2310 -0.2141  0.4906
  734MOL0     H99058  -0.221   8.143   1.749  0.3777  0.1708 -0.3680
  734MOL0     H99059  -0.199   8.229   1.607  0.7641 -0.3436  1.9698
  734MOL0     H99060  -0.290   7.953   1.548  2.5837  0.4913  3.4031
  734MOL0     H99061  -0.302   8.095   1.457  2.5854 -1.1376 -0.1854
  734MOL0     H99062  -0.445   8.108   1.720 -1.2212  4.2160 -0.8038
  734MOL0     H99063  -0.512   7.994   1.610 -0.9315 -0.3436 -0.5237
  734MOL0     H99064  -0.622   8.218   1.589  1.4184 -0.6129  2.2288
  734MOL0     H99065  -0.470   8.282   1.536 -1.4758  1.1241  3.1918
  734MOL0     H99066  -0.606   8.061   1.362 -0.3083  0.7294 -1.4339
  734MOL0     H99067  -0.478   8.176   1.319  0.5068 -0.7911 -0.3909
  734MOL0     H99068  -0.636   8.363   1.329  0.2894 -0.3109 -0.9703
  734MOL0     H99069  -0.697   8.236   1.214 -1.3157 -0.8047  0.5596
  734MOL0     H99070   0.394   7.986   1.553 -0.1748 -1.7368  0.8985
  734MOL0     H99071   0.608   8.043   1.641 -1.5517 -2.2288 -0.6640
  734MOL0     H99072   0.898   8.107   1.848  3.9491  0.1541 -1.8265
  734MOL0     H99073   1.124   8.089   1.917  2.2845 -2.8094  2.7364
  734MOL0     H99074   0.755   8.667   3.003 -0.9063  0.7373 -1.2283
  734MOL0     H99075   0.654   8.897   2.953 -0.2322 -0.1951  1.1287
  734MOL0     H99076   0.784   9.354   2.994  4.6795  0.0804 -2.4368
  734MOL0     H99077   0.716   9.582   2.977  0.5606  0.9280  0.3391
  734MOL0     H99078   0.740   9.793   2.871  0.8038  4.0277 -1.5439
  734MOL0     H99079   0.568   9.761   2.923 -1.2542  2.0908 -0.0389
  734MOL0     H99080   0.589   9.996   2.894 -2.7216  0.4127 -0.4810
  734MOL0     H99081   0.495   9.942   2.762  0.8090  1.5983  0.8505
  734MOL0     H99082   0.704   9.943   2.615  0.3255  1.8735 -0.8397
  734MOL0     H99083   0.789   9.999   2.763  0.5841  1.5078  0.2910
  734MOL0     H99084   0.542  10.148   2.657 -0.1358 -1.3345  0.2813
  734MOL0     H99085   0.643  10.195   2.784  1.8560  1.0918 -0.8701
  734MOL0     H99086   0.840  10.354   2.453  1.5119  0.3520  1.6462
  734MOL0     H99087   0.600   9.507   2.562  2.4929  0.0865 -0.4962
  734MOL0     H99088   0.620   9.215   2.513  0.7459  0.8890 -1.0292
  734MOL0     H99089   0.704   9.356   2.453  2.2942 -1.7266 -1.6166
  734MOL0     H99090   0.804   9.232   2.531  1.2557  0.0318  2.4410
  735MOL0     O99091   1.140   4.244   7.124 -0.3557  0.2186  0.5735
  735MOL0     C99092   1.195   4.213   7.016 -0.4443  0.8328 -0.5194
  735MOL0     O99093   1.274   4.292   6.945  0.3091  0.0177  0.4877
  735MOL0     C99094   1.288   4.429   6.964  0.8913 -0.3880  0.3594
  735MOL0     C99095   1.184   4.518   6.997 -0.6971 -0.2552  1.4307
  735MOL0     C99096   1.204   4.656   6.981 -0.2098 -0.5733 -0.4535
  735MOL0     C99097   1.318   4.711   6.930 -0.1516 -0.5388 -0.7170
  735MOL0     O99098   1.323   4.851   6.920 -0.0638  0.4444  0.0531
  735MOL0     C99099   1.212   4.935   6.960 -0.3752  0.8738 -0.0508
  735MOL0     C99100   1.210   5.056   6.868  0.7242  0.1853 -0.3868
  735MOL0     C99101   1.235   5.022   6.715  0.0605 -0.0627  0.3880
  735MOL0     C99102   1.255   5.143   6.628 -0.4526  0.0325 -0.1698
  735MOL0     C99103   1.282   5.111   6.483 -0.2509  1.0056  0.0719
  735MOL0     C99104   1.345   5.236   6.411 -0.2969 -0.0271  0.6233
  735MOL0     C99105   1.415   5.204   6.272  1.1817  0.8248  0.5505
  735MOL0     C99106   1.440   5.323   6.178 -0.3631 -0.0965 -0.5260
  735MOL0     N99107   1.573   5.381   6.187 -0.0851 -0.6409 -0.8410
  735MOL0     C99108   1.601   5.507   6.232  0.7263 -0.1444  0.6663
  735MOL0     C99109   1.735   5.529   6.225 -0.0798  0.2234 -0.1477
  735MOL0     C99110   1.813   5.649   6.272  0.5034 -0.2942  0.0610
  735MOL0     C99111   1.940   5.623   6.365  0.2881  0.3258  2.0207
  735MOL0     C99112   2.053   5.534   6.306  0.3867  0.3815 -0.0133
  735MOL0     C99113   2.175   5.498   6.398 -0.1079 -0.5976 -0.0707
  735MOL0     O99114   2.253   5.611   6.433 -0.0814  0.0042 -0.1602
  735MOL0     C99115   2.385   5.619   6.407  0.9085  0.1533 -0.5283
  735MOL0     C99116   2.475   5.518   6.433 -0.7582  0.5228  0.8345
  735MOL0     C99117   2.615   5.531   6.399 -0.2089 -0.4830  0.3065
  735MOL0     C99118   2.663   5.656   6.360 -0.7976  1.2613  0.0553
  735MOL0     C99119   2.799   5.673   6.334 -0.5472 -0.1409  0.0179
  735MOL0     O99120   2.889   5.567   6.363  0.2049 -0.9508  0.5125
  735MOL0     C99121   3.025   5.576   6.330  1.0889  0.1879 -0.0615
  735MOL0     C99122   3.075   5.626   6.208 -0.7152 -0.0796  0.0759
  735MOL0     C99123   3.208   5.615   6.178 -0.5730  0.0241  0.1572
  735MOL0     C99124   3.289   5.535   6.264  0.0284  0.0921  0.4427
  735MOL0     O99125   3.419   5.502   6.230  0.2222 -0.2832  0.3014
  735MOL0     C99126   3.461   5.528   6.099  0.0454  0.1330 -0.4944
  735MOL0     C99127   3.597   5.464   6.060  0.0799  0.2138  0.4144
  735MOL0     C99128   3.700   5.529   6.136 -0.3544 -0.0437 -0.5176
  735MOL0     C99129   3.832   5.455   6.101 -0.1166  0.1815  1.1172
  735MOL0     C99130   3.955   5.537   6.122 -0.2738 -0.5803 -0.4248
  735MOL0     C99131   4.082   5.461   6.065  0.5175  0.0925  0.0277
  735MOL0     C99132   4.210   5.544   6.052  0.8504  0.8124  0.1758
  735MOL0     C99133   4.312   5.460   5.977 -0.3595  1.1038  0.6846
  735MOL0    Cl99134   4.448   5.567   5.950 -0.1448 -0.0002  0.3231
  735MOL0     C99135   3.247   5.492   6.387  0.3457  0.9441 -0.0737
  735MOL0     C99136   3.111   5.512   6.420 -0.6807 -1.0100 -0.3302
  735MOL0     O99137   2.834   5.784   6.301 -0.4378  0.2129  0.6962
  735MOL0     C99138   2.571   5.754   6.345 -0.8245 -0.2041  0.0178
  735MOL0     C99139   2.437   5.739   6.365 -0.5866 -0.1872  0.6943
  735MOL0     N99140   1.788   5.410   6.161 -0.1539 -0.3870 -0.7269
  735MOL0     N99141   1.688   5.339   6.124  0.7706  0.6079  0.2182
  735MOL0     C99142   1.426   4.621   6.906 -0.8860  0.1823 -1.1580
  735MOL0     C99143   1.411   4.488   6.926  0.6854  1.1068  0.3469
  735MOL0     C99144   1.175   4.068   6.968 -0.0486  0.5112  0.0696
  735MOL0     C99145   1.137   3.969   7.056 -0.6723 -0.3375 -0.3807
  735MOL0     C99146   1.120   3.835   7.012  0.2601 -1.0592  0.1611
  735MOL0     C99147   1.127   3.799   6.880  0.4588  0.2624 -0.2542
  735MOL0     O99148   1.109   3.662   6.858 -0.0924 -0.0994 -0.5297
  735MOL0     C99149   1.182   3.609   6.745 -0.3427 -1.3174 -1.1091
  735MOL0     C99150   1.329   3.629   6.776 -0.3676  0.2972 -0.9056
  735MOL0     C99151   1.403   3.512   6.735  0.3924  0.6634  0.0595
  735MOL0     C99152   1.555   3.523   6.745  0.6339  0.1680 -0.5390
  735MOL0     C99153   1.618   3.489   6.617  0.1381 -0.0456  0.5666
  735MOL0     C99154   1.673   3.431   6.523 -0.6335  0.6267 -0.8396
  735MOL0     C99155   1.157   3.902   6.783 -0.3341  0.3738 -0.0284
  735MOL0     C99156   1.184   4.034   6.831  0.5604 -0.3366 -0.3275
  735MOL0     C99157   1.231   4.125   6.731  0.0803 -0.1680 -0.0174
  735MOL0     H99158   1.090   4.474   7.028 -1.0988  0.9304  1.9862
  735MOL0     H99159   1.119   4.708   7.023 -0.0732 -1.7802  1.4726
  735MOL0     H99160   1.123   4.874   6.944 -0.7273 -0.0288  4.0365
  735MOL0     H99161   1.220   4.962   7.066 -0.0866 -1.0772  0.4689
  735MOL0     H99162   1.268   5.142   6.903 -1.4349  0.6389  2.3743
  735MOL0     H99163   1.111   5.102   6.868  0.2771 -0.5832  2.6289
  735MOL0     H99164   1.148   4.962   6.687 -1.4758  2.7702 -1.3366
  735MOL0     H99165   1.323   4.959   6.704  0.0663 -0.0846  0.5590
  735MOL0     H99166   1.161   5.198   6.636 -1.4666 -1.9054  2.9850
  735MOL0     H99167   1.336   5.198   6.677 -2.0226  2.6590 -0.3281
  735MOL0     H99168   1.355   5.030   6.475 -2.2496 -1.0971  1.8623
  735MOL0     H99169   1.190   5.071   6.439 -1.5980  1.7849  2.0365
  735MOL0     H99170   1.265   5.309   6.395  0.4390  0.5980 -0.3576
  735MOL0     H99171   1.420   5.284   6.475 -1.7483 -0.1790  2.5348
  735MOL0     H99172   1.339   5.145   6.221  0.2312  1.4292  1.2362
  735MOL0     H99173   1.506   5.144   6.274 -0.1250 -1.3506 -0.8096
  735MOL0     H99174   1.435   5.286   6.075  1.4510 -0.9957 -0.3244
  735MOL0     H99175   1.366   5.400   6.203  0.1354 -0.6710  3.3290
  735MOL0     H99176   1.537   5.590   6.262  2.1844  0.6762  1.6135
  735MOL0     H99177   1.849   5.700   6.182  0.7912  1.8413  1.3059
  735MOL0     H99178   1.742   5.722   6.312  1.3979 -0.4015  1.9711
  735MOL0     H99179   1.975   5.726   6.378  4.6008  0.0811 -3.7990
  735MOL0     H99180   1.908   5.579   6.460  0.5706 -1.3770  1.3753
  735MOL0     H99181   2.089   5.588   6.218 -2.1116  1.0240 -0.7240
  735MOL0     H99182   2.016   5.439   6.267  2.4183  0.5238 -2.6068
  735MOL0     H99183   2.236   5.426   6.343 -0.2013  0.3754 -1.5248
  735MOL0     H99184   2.137   5.445   6.485  0.6215  0.7629  1.1265
  735MOL0     H99185   2.442   5.419   6.463  0.5980 -0.0699  0.4263
  735MOL0     H99186   2.681   5.444   6.396 -0.5249 -0.7029 -1.4595
  735MOL0     H99187   3.010   5.673   6.135 -0.7815 -0.2959 -0.0061
  735MOL0     H99188   3.238   5.664   6.086 -1.0018  2.0943  1.0600
  735MOL0     H99189   3.385   5.508   6.023 -0.7028  0.3838  0.1626
  735MOL0     H99190   3.469   5.635   6.082 -1.1583  0.4454  0.7230
  735MOL0     H99191   3.597   5.357   6.081  1.4884  0.2535  0.6884
  735MOL0     H99192   3.614   5.480   5.953 -0.1289  2.7076  0.6995
  735MOL0     H99193   3.702   5.634   6.105 -0.7562 -0.0762 -0.6574
  735MOL0     H99194   3.677   5.515   6.243 -1.6246  0.9436 -0.6273
  735MOL0     H99195   3.836   5.434   5.994  1.0447  1.6128  0.8636
  735MOL0     H99196   3.823   5.366   6.165  0.7002  1.6499  3.3988
  735MOL0     H99197   3.971   5.544   6.230  3.2073  0.9603 -0.9087
  735MOL0     H99198   3.928   5.630   6.072 -0.6867 -1.2729 -1.5456
  735MOL0     H99199   4.083   5.372   6.128 -1.0465 -0.7828 -1.0982
  735MOL0     H99200   4.048   5.424   5.967 -0.8105 -2.6636  1.3980
  735MOL0     H99201   4.244   5.577   6.151  0.5107  4.7533 -0.8611
  735MOL0     H99202   4.184   5.628   5.987  0.7016  0.3231 -0.3995
  735MOL0     H99203   4.323   5.367   6.034 -0.6973  0.5717 -0.1066
  735MOL0     H99204   4.267   5.440   5.880  1.8838 -1.6312  0.0908
  735MOL0     H99205   3.330   5.453   6.444  1.5962 -0.7637 -2.8600
  735MOL0     H99206   3.088   5.479   6.520 -2.0615 -1.9063 -0.9179
  735MOL0     H99207   2.611   5.849   6.310 -1.3424 -0.6384 -1.8563
  735MOL0     H99208   2.362   5.813   6.339 -1.8686 -1.6257  0.1849
  735MOL0     H99209   1.521   4.659   6.869  1.1385 -2.9033  0.4990
  735MOL0     H99210   1.494   4.427   6.892  0.2996  0.5910  0.3235
  735MOL0     H99211   1.127   3.976   7.164 -0.2462  3.1929 -0.4466
  735MOL0     H99212   1.080   3.757   7.076 -0.2960 -2.3858 -1.7033
  735MOL0     H99213   1.148   3.667   6.659  0.1358  2.5103  1.0455
  735MOL0     H99214   1.156   3.504   6.725 -2.4291 -0.6237 -2.3352
  735MOL0     H99215   1.335   3.643   6.885  0.0492 -1.3413 -0.6823
  735MOL0     H99216   1.372   3.716   6.726  1.2516  0.5453  0.7957
  735MOL0     H99217   1.364   3.475   6.639  0.6121  0.3928  0.0710
  735MOL0     H99218   1.384   3.428   6.802 -0.0941 -0.0436 -0.9417
  735MOL0     H99219   1.588   3.619   6.785  0.2021  0.1895 -0.2228
  735MOL0     H99220   1.587   3.448   6.818  0.9405 -0.4502 -1.2937
  735MOL0     H99221   1.728   3.383   6.445 -1.9703  1.1058 -2.1234
  735MOL0     H99222   1.176   3.868   6.681 -0.2760 -0.4453  0.2506
  735MOL0     H99223   1.330   4.154   6.765 -0.1680 -0.7245  1.2491
  735MOL0     H99224   1.236   4.085   6.629 -0.8409  0.9942 -0.5434
  735MOL0     H99225   1.167   4.214   6.730  4.3053  3.2200 -2.6853
  736MOL0     O99226  10.915   2.488   1.756 -0.5377 -0.4299 -0.0238
  736MOL0     C99227  10.857   2.432   1.849 -0.6845  0.0015  0.9801
  736MOL0     O99228  10.920   2.404   1.968 -0.2173 -0.8299 -0.7934
  736MOL0     C99229  11.041   2.470   1.996  0.9584  0.0098  0.2395
  736MOL0     C99230  11.164   2.420   1.959 -0.3220 -0.3719 -0.1644
  736MOL0     C99231  11.281   2.488   1.984  0.2905 -0.1561  0.4177
  736MOL0     C99232  11.271   2.615   2.043 -0.3525  1.2957  0.0343
  736MOL0     O99233  11.381   2.693   2.075 -0.4791 -0.0095  0.6452
  736MOL0     C99234  11.517   2.641   2.051 -0.4899  0.3156 -0.3042
  736MOL0     C99235  11.611   2.762   2.088  0.6860  0.4910  0.4027
  736MOL0     C99236  11.757   2.729   2.052 -0.7580 -0.4935 -0.2160
  736MOL0     C99237  11.841   2.832   2.134 -0.4754  0.7912 -0.0934
  736MOL0     C99238  11.990   2.827   2.098 -0.2385 -0.4522 -0.5170
  736MOL0     C99239  12.089   2.841   2.218  0.4427 -0.8773 -0.2756
  736MOL0     C99240  12.082   2.974   2.290  0.3991  0.6607  0.0201
  736MOL0     C99241  12.197   2.984   2.390  0.8571  0.5433 -0.1163
  736MOL0     N99242  12.334   2.984   2.342 -0.7916 -0.1451 -0.3630
  736MOL0     C99243  12.412   3.091   2.314 -0.2835 -0.5011  0.0168
  736MOL0     C99244  12.543   3.051   2.318  0.6695  0.4298 -0.4027
  736MOL0     C99245  12.654   3.141   2.286 -0.1329 -0.0377 -0.0725
  736MOL0     C99246  12.734   3.077   2.168  0.8245  0.3917 -0.2310
  736MOL0     C99247  12.853   3.168   2.136 -0.4034 -0.4630  0.2318
  736MOL0     C99248  12.949   3.083   2.049 -0.0790 -0.2784 -0.3009
  736MOL0     O99249  12.912   3.066   1.910  0.2319  0.0520 -0.5294
  736MOL0     C99250  13.004   3.066   1.802  0.1998 -0.6716 -0.3969
  736MOL0     C99251  13.141   3.069   1.823 -1.0538  0.2749 -0.2810
  736MOL0     C99252  13.230   3.067   1.716  1.1322  0.4524 -0.1709
  736MOL0     C99253  13.186   3.077   1.583 -0.1672 -0.5719 -0.5842
  736MOL0     C99254  13.280   3.079   1.468  0.0529  0.5205  0.4965
  736MOL0     O99255  13.223   3.052   1.349  0.6981 -1.2315 -0.3511
  736MOL0     C99256  13.294   3.013   1.242  0.6674 -0.3801 -0.1916
  736MOL0     C99257  13.281   3.084   1.123  0.1748  0.3925 -0.0731
  736MOL0     C99258  13.369   3.049   1.019  0.1226  0.9641 -0.1864
  736MOL0     C99259  13.469   2.956   1.036 -0.5266 -0.1327  0.3734
  736MOL0     O99260  13.574   2.935   0.945 -0.0250 -0.2433 -0.4342
  736MOL0     C99261  13.548   2.930   0.803 -0.5230  0.3759 -0.7046
  736MOL0     C99262  13.653   2.848   0.731 -0.2280  0.0412 -0.1849
  736MOL0     C99263  13.795   2.895   0.726  0.2829 -0.3156 -0.6522
  736MOL0     C99264  13.893   2.806   0.640 -0.4610  0.0644 -0.4137
  736MOL0     C99265  14.035   2.841   0.661  0.1701  0.6713 -0.2927
  736MOL0     C99266  14.135   2.758   0.588 -0.0587  1.2343  0.7908
  736MOL0     C99267  14.261   2.838   0.573  0.0816 -0.2673 -0.4846
  736MOL0     C99268  14.382   2.767   0.499 -0.0699 -0.8267 -0.6530
  736MOL0    Cl99269  14.433   2.617   0.580 -0.0722 -0.5788  0.3277
  736MOL0     C99270  13.476   2.883   1.151 -0.0150  0.5766 -0.9378
  736MOL0     C99271  13.381   2.909   1.256 -0.0978 -0.5410 -0.4656
  736MOL0     O99272  13.398   3.085   1.491  0.3589  0.5338 -0.1235
  736MOL0     C99273  13.050   3.084   1.567 -0.3903 -0.4827 -0.2025
  736MOL0     C99274  12.964   3.071   1.675  0.3973  0.7682  0.2478
  736MOL0     N99275  12.542   2.914   2.354  0.1302 -0.6573 -0.0035
  736MOL0     N99276  12.416   2.878   2.371  0.2764 -0.5648  0.5220
  736MOL0     C99277  11.145   2.663   2.083  0.4353 -0.1164  0.2240
  736MOL0     C99278  11.029   2.593   2.061  0.5077  0.1779  0.1415
  736MOL0     C99279  10.716   2.386   1.827  0.4247 -0.5256 -0.0547
  736MOL0     C99280  10.659   2.419   1.702 -0.2521 -1.2729 -0.3118
  736MOL0     C99281  10.526   2.384   1.671 -0.9270  0.6097 -0.9673
  736MOL0     C99282  10.440   2.316   1.759  0.0568 -0.0432  0.4492
  736MOL0     O99283  10.311   2.283   1.720 -0.2359 -0.0619  0.1283
  736MOL0     C99284  10.255   2.155   1.739  0.1811 -0.0250 -1.3383
  736MOL0     C99285  10.277   2.057   1.626  0.0249 -0.5005  0.7216
  736MOL0     C99286  10.398   1.965   1.655  0.5906  0.4908  0.4630
  736MOL0     C99287  10.437   1.858   1.546 -0.6171  0.0133 -0.4941
  736MOL0     C99288  10.327   1.767   1.499 -0.3388  0.2895  0.2122
  736MOL0     C99289  10.235   1.698   1.462  0.4826  0.2769 -0.6319
  736MOL0     C99290  10.502   2.282   1.883  0.9056  0.4357  0.2408
  736MOL0     C99291  10.634   2.310   1.916  0.1057  0.7070 -0.4290
  736MOL0     C99292  10.687   2.272   2.057  0.2918  0.4274 -0.2770
  736MOL0     H99293  11.156   2.324   1.909 -2.8974 -0.0757 -0.4815
  736MOL0     H99294  11.384   2.458   1.968  1.0062  2.2371  0.2386
  736MOL0     H99295  11.544   2.557   2.116  3.4283  4.7648  4.7173
  736MOL0     H99296  11.535   2.614   1.947  0.7315  2.0270 -0.5862
  736MOL0     H99297  11.610   2.778   2.196  2.4601  2.3026  0.2016
  736MOL0     H99298  11.586   2.861   2.049 -0.9207  0.1316  0.4675
  736MOL0     H99299  11.786   2.735   1.946  3.9155 -3.4357  0.5781
  736MOL0     H99300  11.790   2.628   2.079  1.7538 -0.0888 -1.4700
  736MOL0     H99301  11.798   2.930   2.109  1.8793  2.3764  1.5678
  736MOL0     H99302  11.825   2.814   2.240 -1.4871 -1.9597 -0.6387
  736MOL0     H99303  12.009   2.730   2.050  0.9259 -1.9160  2.6185
  736MOL0     H99304  12.016   2.909   2.032 -0.3609  0.3998  0.4690
  736MOL0     H99305  12.090   2.764   2.296  0.8012 -0.9960 -0.3944
  736MOL0     H99306  12.190   2.840   2.176  0.9490 -1.5312  0.9026
  736MOL0     H99307  11.989   2.979   2.348 -0.7317 -1.9292 -1.4460
  736MOL0     H99308  12.063   3.058   2.223 -3.1910  1.9054  2.2718
  736MOL0     H99309  12.171   3.069   2.454  0.0865 -0.9343  1.5928
  736MOL0     H99310  12.182   2.901   2.459  2.3626  0.7793  0.5287
  736MOL0     H99311  12.377   3.192   2.294 -0.8171 -0.7348 -0.2617
  736MOL0     H99312  12.592   3.222   2.247  0.3265  2.1253  3.2447
  736MOL0     H99313  12.707   3.179   2.374 -2.1607  2.2644  0.2670
  736MOL0     H99314  12.771   2.983   2.211  1.1716  1.4746  1.9386
  736MOL0     H99315  12.683   3.042   2.078 -0.5850  0.4225  0.5430
  736MOL0     H99316  12.917   3.198   2.219  0.8398 -3.6769  0.5897
  736MOL0     H99317  12.815   3.257   2.086 -2.1890  0.5149  3.1106
  736MOL0     H99318  12.954   2.983   2.093  0.3130  0.2255  0.8438
  736MOL0     H99319  13.048   3.129   2.060  0.8590 -1.1475 -3.7228
  736MOL0     H99320  13.189   3.071   1.920  0.3505 -0.7810 -0.9203
  736MOL0     H99321  13.337   3.078   1.732  1.2028 -0.5246  0.1557
  736MOL0     H99322  13.207   3.161   1.105  0.5878  0.6787 -0.5825
  736MOL0     H99323  13.350   3.092   0.922 -0.7192 -0.2548 -0.5878
  736MOL0     H99324  13.445   2.894   0.794 -0.1749 -0.5345 -1.0377
  736MOL0     H99325  13.541   3.032   0.764 -1.4242  0.4728 -0.3142
  736MOL0     H99326  13.649   2.747   0.774 -2.5917 -0.3712 -1.2213
  736MOL0     H99327  13.622   2.841   0.627 -1.4949 -0.5015  0.2075
  736MOL0     H99328  13.803   2.991   0.674 -2.2869  0.4337  0.2002
  736MOL0     H99329  13.840   2.908   0.825  0.9873 -1.0728 -0.8633
  736MOL0     H99330  13.871   2.800   0.533  0.6106  1.4187 -0.7465
  736MOL0     H99331  13.882   2.700   0.662 -0.5627  0.7994  4.0029
  736MOL0     H99332  14.057   2.831   0.767  0.9037  0.8524 -0.4201
  736MOL0     H99333  14.048   2.945   0.630  0.9241  0.7083  0.1269
  736MOL0     H99334  14.145   2.665   0.644 -3.3611  1.4313  1.9696
  736MOL0     H99335  14.089   2.718   0.497 -1.2268 -1.3911  2.4154
  736MOL0     H99336  14.300   2.868   0.671 -2.8286 -1.4042  1.1472
  736MOL0     H99337  14.242   2.933   0.522  0.5055  0.8239  1.2710
  736MOL0     H99338  14.361   2.743   0.394  1.9114  2.0173 -1.8225
  736MOL0     H99339  14.470   2.832   0.500 -1.6153  1.3640  0.0073
  736MOL0     H99340  13.548   2.802   1.144 -0.8524 -0.1335 -1.6391
  736MOL0     H99341  13.388   2.854   1.350 -1.8086 -1.0203 -0.5935
  736MOL0     H99342  13.016   3.107   1.466  2.7355  1.8145 -0.8913
  736MOL0     H99343  12.856   3.071   1.660 -0.2005  1.6905  3.6730
  736MOL0     H99344  11.148   2.754   2.143 -1.7606 -1.5764  2.7887
  736MOL0     H99345  10.929   2.618   2.095  0.5882  1.4928 -0.5083
  736MOL0     H99346  10.710   2.489   1.636 -1.3553  0.4956  0.6289
  736MOL0     H99347  10.496   2.413   1.570 -1.9129  0.3891 -0.7517
  736MOL0     H99348  10.146   2.166   1.750  0.2445 -1.2802  1.7108
  736MOL0     H99349  10.292   2.111   1.832  0.5901 -1.7704 -2.2951
  736MOL0     H99350  10.296   2.118   1.538 -1.6741  2.0952  2.0440
  736MOL0     H99351  10.187   1.999   1.605  1.8306 -3.1894 -0.2237
  736MOL0     H99352  10.363   1.916   1.746 -0.4168 -2.6323 -1.4313
  736MOL0     H99353  10.489   2.020   1.681  0.4786  0.4203  1.0043
  736MOL0     H99354  10.487   1.914   1.467  0.5988 -1.2888 -0.6828
  736MOL0     H99355  10.517   1.799   1.591  0.7861  1.7433 -0.6166
  736MOL0     H99356  10.151   1.643   1.424  0.3429  0.9418 -1.3116
  736MOL0     H99357  10.435   2.237   1.956 -2.6857 -1.5720 -3.8091
  736MOL0     H99358  10.781   2.215   2.053 -0.5485 -1.0071 -0.2891
  736MOL0     H99359  10.693   2.366   2.112  0.8373  0.2771 -0.0719
  736MOL0     H99360  10.625   2.189   2.093  1.3517  0.1485  0.9707
  737MOL0     O99361   0.784   6.079   7.503 -0.0970  0.0520  0.6966
  737MOL0     C99362   0.683   6.149   7.491 -1.0771 -1.0484  0.0997
  737MOL0     O99363   0.693   6.281   7.441 -0.4951 -0.0697  0.3841
  737MOL0     C99364   0.820   6.320   7.408 -0.5683  0.8072  0.0093
  737MOL0     C99365   0.872   6.268   7.288  0.5026 -1.0066  0.1108
  737MOL0     C99366   1.001   6.317   7.250 -0.6133  0.1106  1.0900
  737MOL0     C99367   1.079   6.410   7.312 -0.5973  0.2355 -0.6627
  737MOL0     O99368   1.197   6.456   7.273 -0.0504  0.1394  0.4240
  737MOL0     C99369   1.228   6.463   7.131 -0.2691 -0.2102  0.4547
  737MOL0     C99370   1.347   6.555   7.122 -0.6180 -0.2126 -0.0703
  737MOL0     C99371   1.416   6.543   6.982 -0.6823 -0.2824 -0.9065
  737MOL0     C99372   1.547   6.620   7.001 -0.4231 -0.0216 -0.3852
  737MOL0     C99373   1.627   6.646   6.871  0.1592  0.6419 -0.3082
  737MOL0     C99374   1.684   6.789   6.859  0.4694  1.3008 -0.2696
  737MOL0     C99375   1.732   6.837   6.723  0.5918  0.1423  0.4858
  737MOL0     C99376   1.818   6.732   6.662 -0.0745 -0.6423 -0.5324
  737MOL0     N99377   1.940   6.798   6.611 -0.2800  0.1905  0.1940
  737MOL0     C99378   1.952   6.847   6.489 -0.0027  0.0170  0.0286
  737MOL0     C99379   2.083   6.874   6.467 -0.3741 -0.6588 -0.3981
  737MOL0     C99380   2.157   6.923   6.348  0.7274 -0.1128 -0.1353
  737MOL0     C99381   2.308   6.901   6.354 -0.4679 -0.3607 -0.5212
  737MOL0     C99382   2.375   6.944   6.223 -0.4046 -0.4902  0.7452
  737MOL0     C99383   2.518   6.952   6.249 -0.0592 -0.1417  0.0502
  737MOL0     O99384   2.573   6.979   6.122  0.5516 -0.3616  1.0868
  737MOL0     C99385   2.698   7.027   6.102  0.2642  0.3458 -0.5275
  737MOL0     C99386   2.790   7.027   6.204 -0.4061 -0.0195  0.1126
  737MOL0     C99387   2.922   7.072   6.184  0.1190 -0.2287  0.5801
  737MOL0     C99388   2.964   7.122   6.057 -0.3334  0.8981 -0.1959
  737MOL0     C99389   3.092   7.181   6.036 -0.8474 -0.8062  1.0409
  737MOL0     O99390   3.118   7.235   5.917 -0.7209  0.9701  0.5326
  737MOL0     C99391   3.219   7.312   5.896 -0.0299 -0.1355 -0.5348
  737MOL0     C99392   3.248   7.418   5.986 -0.2677  0.3046 -0.1938
  737MOL0     C99393   3.368   7.497   5.961 -1.0100  0.2246 -0.0465
  737MOL0     C99394   3.463   7.456   5.873 -0.5553  0.6276  0.4546
  737MOL0     O99395   3.574   7.536   5.865 -0.0131  0.1085 -0.2717
  737MOL0     C99396   3.677   7.511   5.764 -0.1389  0.2626 -0.4037
  737MOL0     C99397   3.796   7.591   5.811 -1.3494 -0.4471  0.1341
  737MOL0     C99398   3.924   7.591   5.710  0.3312  0.7170 -0.3350
  737MOL0     C99399   4.026   7.688   5.761  0.4779 -0.2161  0.2192
  737MOL0     C99400   4.152   7.687   5.668 -0.4634  0.0120  0.6934
  737MOL0     C99401   4.249   7.795   5.715  0.0870 -0.0619 -0.1843
  737MOL0     C99402   4.388   7.804   5.635  0.5505  0.3115  0.3191
  737MOL0     C99403   4.494   7.859   5.726  0.4775  0.1731  0.1534
  737MOL0    Cl99404   4.554   7.746   5.851 -0.1382 -0.0898 -0.1236
  737MOL0     C99405   3.422   7.356   5.777  0.4650 -0.7982  0.2805
  737MOL0     C99406   3.305   7.285   5.783  0.2798 -1.3298 -0.4769
  737MOL0     O99407   3.176   7.164   6.130 -0.0230  0.3261 -0.2041
  737MOL0     C99408   2.866   7.117   5.952 -1.8740 -0.1540 -0.6247
  737MOL0     C99409   2.738   7.060   5.975 -0.5235 -0.3676 -0.0332
  737MOL0     N99410   2.141   6.853   6.587 -0.6547  0.4743 -0.7559
  737MOL0     N99411   2.064   6.787   6.668  0.3080  0.4866 -0.4908
  737MOL0     C99412   1.025   6.452   7.434 -0.2481  0.2591 -0.1664
  737MOL0     C99413   0.906   6.405   7.483  0.2938 -0.9693 -0.3553
  737MOL0     C99414   0.546   6.110   7.519  0.3076 -0.4484  0.1174
  737MOL0     C99415   0.450   6.214   7.520  0.1721 -0.1618  0.0592
  737MOL0     C99416   0.316   6.194   7.551  0.1348 -0.2373  0.0007
  737MOL0     C99417   0.266   6.065   7.577 -0.4509 -0.2297 -0.2597
  737MOL0     O99418   0.138   6.038   7.610  0.0574  0.1485 -0.0437
  737MOL0     C99419   0.029   6.113   7.551 -0.4969 -1.1268 -0.1804
  737MOL0     C99420  -0.112   6.099   7.617 -0.5050 -0.1681  0.4819
  737MOL0     C99421  -0.177   5.958   7.634 -0.4152  0.0661 -0.5695
  737MOL0     C99422  -0.093   5.866   7.722 -0.4002  0.4035  0.0239
  737MOL0     C99423  -0.167   5.744   7.769 -0.3648 -0.6848 -0.0350
  737MOL0     C99424  -0.221   5.636   7.776 -0.0475  0.5755 -0.4822
  737MOL0     C99425   0.360   5.964   7.581  0.2208  0.5320 -0.0050
  737MOL0     C99426   0.503   5.979   7.562  0.0932 -0.2901 -0.2688
  737MOL0     C99427   0.596   5.873   7.613  0.4413  1.4525 -0.9188
  737MOL0     H99428   0.811   6.205   7.224  0.1188 -0.1358 -0.4027
  737MOL0     H99429   1.040   6.274   7.159 -0.1494  0.5519  1.0820
  737MOL0     H99430   1.258   6.362   7.104 -0.2897  0.1799 -1.1354
  737MOL0     H99431   1.152   6.506   7.063  0.6027  0.0898 -0.3525
  737MOL0     H99432   1.409   6.525   7.207 -0.7888 -0.8397 -0.1558
  737MOL0     H99433   1.310   6.656   7.139  1.2756  0.8441 -1.7420
  737MOL0     H99434   1.359   6.584   6.897 -0.8034  2.8232  0.5345
  737MOL0     H99435   1.446   6.439   6.970 -0.6747 -0.7659  2.4718
  737MOL0     H99436   1.534   6.717   7.050  0.0387  1.1113 -2.3821
  737MOL0     H99437   1.616   6.561   7.062 -1.5899 -0.3114  0.7081
  737MOL0     H99438   1.711   6.576   6.861 -1.5846 -1.5032 -0.7977
  737MOL0     H99439   1.561   6.642   6.783  0.1120  2.8461 -0.4056
  737MOL0     H99440   1.603   6.854   6.893 -1.6931 -1.1820 -0.4048
  737MOL0     H99441   1.766   6.808   6.929  0.2827  1.8730 -0.1965
  737MOL0     H99442   1.780   6.934   6.738  0.0747  0.2786  1.3111
  737MOL0     H99443   1.651   6.861   6.653  3.0670  1.0096 -2.2878
  737MOL0     H99444   1.856   6.666   6.741  3.5696  0.1502 -1.3977
  737MOL0     H99445   1.762   6.669   6.592 -2.4434  1.3197 -0.5204
  737MOL0     H99446   1.872   6.840   6.415 -0.0208 -0.7607  0.1199
  737MOL0     H99447   2.116   6.877   6.258  1.1369 -0.0099 -0.3749
  737MOL0     H99448   2.142   7.031   6.343 -1.4081 -0.4060 -2.9494
  737MOL0     H99449   2.353   6.951   6.441 -0.0183 -2.8794  0.7890
  737MOL0     H99450   2.324   6.793   6.359 -0.2409 -0.3479 -0.9419
  737MOL0     H99451   2.339   7.045   6.205  2.2828  0.7689  1.9803
  737MOL0     H99452   2.356   6.868   6.146  0.0655  1.1420 -1.0736
  737MOL0     H99453   2.562   6.861   6.291 -0.0149 -0.4970 -0.7484
  737MOL0     H99454   2.534   7.043   6.309 -3.2466 -0.0169  0.8944
  737MOL0     H99455   2.772   7.000   6.308  0.5372  2.0158  0.8655
  737MOL0     H99456   2.989   7.087   6.268 -0.8811  1.9642  1.0285
  737MOL0     H99457   3.183   7.439   6.071 -0.8655  2.3343 -1.1112
  737MOL0     H99458   3.386   7.591   6.011 -0.2919  0.6916 -1.1352
  737MOL0     H99459   3.697   7.404   5.756  2.1441  0.4475  1.3537
  737MOL0     H99460   3.648   7.555   5.669  1.4638  1.2292 -0.4850
  737MOL0     H99461   3.764   7.695   5.821  2.2097  0.8573 -0.4458
  737MOL0     H99462   3.833   7.552   5.907 -1.1475  2.9878  1.5948
  737MOL0     H99463   3.974   7.494   5.703 -0.6097  0.2033 -0.0629
  737MOL0     H99464   3.886   7.613   5.610 -1.1951 -2.0354 -0.4576
  737MOL0     H99465   4.058   7.653   5.860  2.8031 -0.1349 -0.4489
  737MOL0     H99466   3.986   7.788   5.780 -0.4100 -0.2846 -1.1765
  737MOL0     H99467   4.124   7.697   5.563  1.3342 -0.2083  0.1501
  737MOL0     H99468   4.196   7.588   5.661 -1.3657 -0.2951 -1.6306
  737MOL0     H99469   4.205   7.895   5.715  2.5609  1.1612  1.9689
  737MOL0     H99470   4.266   7.777   5.822  5.7569 -1.0047 -0.8981
  737MOL0     H99471   4.378   7.872   5.550  0.1200 -0.6091 -0.3821
  737MOL0     H99472   4.419   7.709   5.592 -1.6360  0.0384 -0.7864
  737MOL0     H99473   4.582   7.891   5.670  1.5131 -2.4934  0.1421
  737MOL0     H99474   4.449   7.943   5.781  1.0347  0.5227  0.0862
  737MOL0     H99475   3.495   7.335   5.699 -0.1604  0.0589 -0.5633
  737MOL0     H99476   3.272   7.206   5.717 -1.7700 -0.3476 -0.6749
  737MOL0     H99477   2.880   7.157   5.852 -2.7900  1.1755 -0.2489
  737MOL0     H99478   2.659   7.066   5.900  2.0151  0.6139 -2.8357
  737MOL0     H99479   1.086   6.522   7.491 -0.1381  1.0670 -1.2337
  737MOL0     H99480   0.887   6.441   7.584  1.7049  3.7339 -1.4787
  737MOL0     H99481   0.463   6.321   7.502 -0.4394 -0.4011 -1.9851
  737MOL0     H99482   0.244   6.274   7.535 -0.1421 -0.4836 -0.0064
  737MOL0     H99483   0.033   6.074   7.448  1.8938  1.3628 -1.1453
  737MOL0     H99484   0.057   6.218   7.558  1.0077 -1.6363  3.2612
  737MOL0     H99485  -0.182   6.168   7.568 -0.2893 -0.6457 -0.5361
  737MOL0     H99486  -0.105   6.147   7.715  0.7065  2.0164 -0.5773
  737MOL0     H99487  -0.175   5.911   7.535  2.5732 -2.2038  0.4234
  737MOL0     H99488  -0.280   5.974   7.666 -0.4894  0.5055 -1.0047
  737MOL0     H99489  -0.004   5.826   7.673 -1.5424  0.6458 -2.3832
  737MOL0     H99490  -0.056   5.916   7.812  0.7185  2.2039 -1.3826
  737MOL0     H99491  -0.270   5.541   7.785 -1.1516  1.2966  4.5865
  737MOL0     H99492   0.319   5.865   7.602 -0.1617  1.1490  2.4753
  737MOL0     H99493   0.676   5.838   7.548  0.7672 -0.0360  0.2422
  737MOL0     H99494   0.640   5.903   7.708  2.1663  1.2480 -1.6286
  737MOL0     H99495   0.540   5.782   7.636  1.7678  0.6709 -0.7100
  738MOL0     O99496   5.079   4.178   9.921  0.7335 -0.1642  0.0758
  738MOL0     C99497   5.035   4.243  10.016  0.0831  0.3828  0.1727
  738MOL0     O99498   5.069   4.374  10.044  0.3598  1.1503 -0.2993
  738MOL0     C99499   5.150   4.449   9.964 -0.3269  0.5726  0.9076
  738MOL0     C99500   5.112   4.579   9.922  0.6291 -0.0234 -0.2422
  738MOL0     C99501   5.200   4.654   9.851 -0.8536 -0.4628  0.1092
  738MOL0     C99502   5.321   4.603   9.813 -0.0771 -0.0440 -0.3003
  738MOL0     O99503   5.408   4.673   9.736 -0.0142 -0.0959  0.2959
  738MOL0     C99504   5.479   4.772   9.814 -0.1172  0.5813  0.3959
  738MOL0     C99505   5.604   4.809   9.738  0.0458 -0.4800  0.0019
  738MOL0     C99506   5.567   4.885   9.603  0.0332 -0.1267 -0.7752
  738MOL0     C99507   5.680   4.852   9.512  0.6919  0.6557  0.5108
  738MOL0     C99508   5.679   4.902   9.362 -0.2533  0.9537  0.1365
  738MOL0     C99509   5.707   5.051   9.349  0.4152 -0.7164  0.0108
  738MOL0     C99510   5.851   5.087   9.373  0.2424 -0.1436  0.7269
  738MOL0     C99511   5.947   5.024   9.269  0.7688  0.4053 -0.3065
  738MOL0     N99512   6.074   5.084   9.242  0.1165 -0.5928 -0.2479
  738MOL0     C99513   6.172   5.035   9.151  0.7641  0.7304 -1.1404
  738MOL0     C99514   6.258   5.139   9.123 -0.1046 -0.4313 -0.3799
  738MOL0     C99515   6.378   5.136   9.022  0.3777  0.0801 -0.7478
  738MOL0     C99516   6.513   5.152   9.094 -0.8978  1.0217  0.6638
  738MOL0     C99517   6.544   5.030   9.171  0.8411  0.6441 -0.0356
  738MOL0     C99518   6.672   5.046   9.269 -0.1039  0.5535  0.5428
  738MOL0     O99519   6.792   5.045   9.182 -0.6096 -0.1054 -0.4766
  738MOL0     C99520   6.906   5.076   9.255  0.5836  0.2647 -0.1052
  738MOL0     C99521   6.928   5.081   9.389 -0.4179 -0.1372  1.1857
  738MOL0     C99522   7.050   5.091   9.449  1.0481 -0.1333  0.2026
  738MOL0     C99523   7.167   5.106   9.363  0.1461  0.0735 -0.6459
  738MOL0     C99524   7.299   5.109   9.423 -0.0612 -0.1109 -0.9176
  738MOL0     O99525   7.312   5.078   9.556  0.3006 -0.1001 -0.0626
  738MOL0     C99526   7.434   5.060   9.608  0.5887 -0.1753 -0.5386
  738MOL0     C99527   7.453   4.930   9.661 -0.3952 -1.0227  1.0231
  738MOL0     C99528   7.580   4.900   9.703 -0.8135 -0.5101  0.0037
  738MOL0     C99529   7.691   4.991   9.692 -0.1727  0.4086  0.5854
  738MOL0     O99530   7.814   4.934   9.724 -0.7874  0.0330 -0.5270
  738MOL0     C99531   7.933   4.989   9.668  0.6208  0.6733 -0.3088
  738MOL0     C99532   8.056   4.902   9.690  0.1129 -0.2701  0.1478
  738MOL0     C99533   8.056   4.760   9.638  0.6464  0.6576 -0.0266
  738MOL0     C99534   8.202   4.706   9.635  0.4188 -0.9945 -0.0631
  738MOL0     C99535   8.217   4.558   9.591 -0.2887 -0.9590  0.2324
  738MOL0     C99536   8.179   4.542   9.448 -0.8041 -0.1129  0.0413
  738MOL0     C99537   8.208   4.396   9.408 -0.5681  0.1957 -0.2166
  738MOL0     C99538   8.168   4.376   9.264 -0.3247  0.3115  0.4631
  738MOL0    Cl99539   8.164   4.196   9.231  0.2791  0.0978  0.4520
  738MOL0     C99540   7.670   5.127   9.653  0.1950  0.0329  0.1216
  738MOL0     C99541   7.536   5.161   9.601 -0.3052  0.4434  0.0169
  738MOL0     O99542   7.389   5.148   9.350 -0.1725  0.4934 -0.0113
  738MOL0     C99543   7.141   5.114   9.224  0.4569  0.5020  0.5466
  738MOL0     C99544   7.013   5.094   9.174 -0.5660 -0.2731  0.5143
  738MOL0     N99545   6.212   5.251   9.196 -0.6876  1.0726  1.0440
  738MOL0     N99546   6.096   5.214   9.253 -0.1586  0.0365  0.5405
  738MOL0     C99547   5.359   4.477   9.853  0.0841 -0.4745  0.1873
  738MOL0     C99548   5.279   4.402   9.931 -0.2059 -0.1726 -0.4000
  738MOL0     C99549   4.948   4.187  10.114  0.3575 -0.4803 -0.8611
  738MOL0     C99550   4.887   4.273  10.215 -0.0866 -1.2399  0.8709
  738MOL0     C99551   4.795   4.232  10.308  0.3648  0.4073  0.2169
  738MOL0     C99552   4.738   4.107  10.300 -0.2699 -0.6365  0.0571
  738MOL0     O99553   4.636   4.082  10.392  0.0072 -0.4527 -0.5176
  738MOL0     C99554   4.585   3.949  10.391 -0.7281  0.3198 -0.0307
  738MOL0     C99555   4.448   3.932  10.455  0.6539  0.1030 -0.3612
  738MOL0     C99556   4.457   3.943  10.610 -0.7998 -0.1031  0.5829
  738MOL0     C99557   4.327   3.919  10.679  0.4511 -0.2915 -0.1926
  738MOL0     C99558   4.287   3.782  10.691  0.0545  0.7756 -0.2931
  738MOL0     C99559   4.254   3.665  10.680  0.0895  0.0734 -0.0437
  738MOL0     C99560   4.802   4.018  10.217  0.4502 -0.0450  0.3587
  738MOL0     C99561   4.903   4.048  10.120  0.0935 -0.7109  0.4166
  738MOL0     C99562   4.974   3.944  10.038 -0.5061 -0.1826  0.1400
  738MOL0     H99563   5.021   4.633   9.948 -0.9905 -2.4975 -0.3345
  738MOL0     H99564   5.179   4.750   9.806  0.1558 -0.9979 -1.5853
  738MOL0     H99565   5.406   4.846   9.848 -3.2793 -3.5733  3.6671
  738MOL0     H99566   5.510   4.725   9.908  0.6983  1.3957  0.5454
  738MOL0     H99567   5.658   4.715   9.722 -0.2175 -0.3644 -1.6538
  738MOL0     H99568   5.670   4.877   9.794  0.6391  0.1989 -1.4661
  738MOL0     H99569   5.564   4.993   9.625  1.3710 -0.9075  4.8909
  738MOL0     H99570   5.469   4.855   9.567 -1.3005 -0.6749  2.9137
  738MOL0     H99571   5.776   4.880   9.558  2.6500 -2.4592 -1.2936
  738MOL0     H99572   5.685   4.743   9.505  2.0103  0.5681  2.0771
  738MOL0     H99573   5.743   4.836   9.304 -1.2868  0.5526 -0.5850
  738MOL0     H99574   5.578   4.879   9.326  0.6296 -0.9832 -1.2165
  738MOL0     H99575   5.685   5.088   9.248 -2.2023 -1.7572  0.1145
  738MOL0     H99576   5.640   5.102   9.418  0.5932  0.9828 -1.0359
  738MOL0     H99577   5.895   5.064   9.470 -1.9595 -2.1890  1.3514
  738MOL0     H99578   5.849   5.196   9.361 -1.4511 -0.3992 -2.4058
  738MOL0     H99579   5.958   4.920   9.303 -1.9291  0.6994  1.8517
  738MOL0     H99580   5.901   5.017   9.170  2.5567 -2.7263 -1.0700
  738MOL0     H99581   6.168   4.936   9.107 -3.3693 -0.2594  0.8512
  738MOL0     H99582   6.378   5.045   8.962 -0.0343  0.2311 -0.9779
  738MOL0     H99583   6.362   5.212   8.945 -1.3795 -0.3282 -0.8364
  738MOL0     H99584   6.588   5.165   9.016  0.8617  3.6854  2.6085
  738MOL0     H99585   6.527   5.231   9.169  0.9157  2.2450 -0.8454
  738MOL0     H99586   6.583   4.949   9.108  0.9974 -0.2614  1.1820
  738MOL0     H99587   6.462   4.986   9.229  0.4617 -0.5784 -1.4295
  738MOL0     H99588   6.678   4.967   9.344  1.7055  0.5627  0.4311
  738MOL0     H99589   6.659   5.135   9.332 -0.5616 -0.2135  1.5612
  738MOL0     H99590   6.849   5.064   9.462 -0.4541 -1.1866  0.9119
  738MOL0     H99591   7.066   5.080   9.555 -2.4140  1.7238  1.0559
  738MOL0     H99592   7.378   4.852   9.652 -0.4694 -0.8499 -0.0441
  738MOL0     H99593   7.608   4.796   9.720  1.7840  0.2063  0.6497
  738MOL0     H99594   7.901   4.988   9.564  0.1536 -0.8951 -0.1598
  738MOL0     H99595   7.939   5.093   9.702  0.4940  0.1710  1.3511
  738MOL0     H99596   8.147   4.950   9.653 -0.4138  0.5284 -0.1350
  738MOL0     H99597   8.067   4.907   9.799  0.3791 -0.0794  0.1126
  738MOL0     H99598   7.991   4.701   9.702  1.0052  1.0376  0.6930
  738MOL0     H99599   8.018   4.763   9.535 -0.0996 -1.1196  0.1670
  738MOL0     H99600   8.243   4.717   9.736 -1.7778 -0.1635  0.8022
  738MOL0     H99601   8.275   4.759   9.573 -1.7127 -1.3032 -3.0653
  738MOL0     H99602   8.151   4.505   9.660 -0.9577  1.7157  1.8073
  738MOL0     H99603   8.321   4.526   9.601  0.7416  1.8873 -0.4242
  738MOL0     H99604   8.070   4.552   9.439 -0.9101 -0.5878  0.6751
  738MOL0     H99605   8.223   4.606   9.371 -1.9200  1.6851  0.8086
  738MOL0     H99606   8.149   4.324   9.465 -1.3932  0.2967 -0.9238
  738MOL0     H99607   8.313   4.369   9.415  0.0307  1.9330 -1.6243
  738MOL0     H99608   8.062   4.404   9.255 -0.2101  0.6767  0.2270
  738MOL0     H99609   8.235   4.429   9.196  0.9658  3.1417  3.6302
  738MOL0     H99610   7.750   5.200   9.655  0.0316  0.2794 -1.3180
  738MOL0     H99611   7.509   5.252   9.548 -1.3566 -1.1445 -2.3547
  738MOL0     H99612   7.227   5.134   9.161  1.1497  0.4265  1.4314
  738MOL0     H99613   7.009   5.090   9.066 -1.6823 -3.6283  0.5953
  738MOL0     H99614   5.454   4.438   9.818  0.4090  0.3658  0.1128
  738MOL0     H99615   5.321   4.307   9.964  0.8950  0.2772 -0.4395
  738MOL0     H99616   4.918   4.377  10.211 -0.9083 -1.0264 -0.5870
  738MOL0     H99617   4.757   4.295  10.388  0.8978  1.3213 -0.2248
  738MOL0     H99618   4.662   3.880  10.427 -0.9322 -0.2615 -0.6880
  738MOL0     H99619   4.573   3.915  10.287  0.5934 -1.4110  0.3349
  738MOL0     H99620   4.407   3.834  10.429 -1.4506  1.0292 -0.6780
  738MOL0     H99621   4.377   4.008  10.422  0.2110 -1.0602 -2.2709
  738MOL0     H99622   4.486   4.047  10.627  0.6516 -0.2899 -0.5474
  738MOL0     H99623   4.546   3.886  10.639  1.7083  3.6973  1.0272
  738MOL0     H99624   4.353   3.956  10.779 -0.3576  0.5634 -0.2810
  738MOL0     H99625   4.251   3.974  10.623  2.2778  1.2365 -1.2624
  738MOL0     H99626   4.217   3.566  10.659  1.6081 -0.5783  0.1605
  738MOL0     H99627   4.786   3.912  10.203 -3.4329  0.5127 -0.6003
  738MOL0     H99628   4.932   3.844  10.051  0.6619 -0.9393 -1.4658
  738MOL0     H99629   4.969   3.966   9.931  2.9255 -1.7224 -0.5034
  738MOL0     H99630   5.081   3.937  10.061 -0.9942 -3.0559  2.2038
  739MOL0     O99631   4.107   1.361   8.168 -0.4118 -0.4141 -0.2085
  739MOL0     C99632   4.170   1.418   8.255 -0.8298 -0.0062 -0.4412
  739MOL0     O99633   4.115   1.483   8.354 -0.6891 -0.3284  0.0804
  739MOL0     C99634   3.973   1.516   8.342  0.0814  0.6831 -0.0407
  739MOL0     C99635   3.870   1.413   8.372  0.1975  0.2102  0.8317
  739MOL0     C99636   3.735   1.441   8.349  0.5897 -0.1415 -0.6439
  739MOL0     C99637   3.696   1.565   8.298  0.3494  0.5784 -1.2788
  739MOL0     O99638   3.572   1.591   8.263  0.4278 -0.1716  0.0814
  739MOL0     C99639   3.470   1.570   8.366  0.1712  0.2734  0.2374
  739MOL0     C99640   3.333   1.600   8.312  0.4173 -0.0369  0.7046
  739MOL0     C99641   3.222   1.561   8.417 -0.3927 -0.5868  0.0624
  739MOL0     C99642   3.079   1.602   8.372  1.0542  0.0354 -0.6680
  739MOL0     C99643   2.977   1.533   8.465  0.1567  1.1841  0.2088
  739MOL0     C99644   2.842   1.592   8.443  0.1073 -0.2197 -0.5505
  739MOL0     C99645   2.725   1.512   8.492  0.1324  0.8830 -1.0970
  739MOL0     C99646   2.596   1.550   8.422 -0.6752 -0.3812  0.0347
  739MOL0     N99647   2.577   1.699   8.416 -0.3266 -1.0580 -0.3457
  739MOL0     C99648   2.581   1.768   8.304  0.0647 -0.5340 -0.1780
  739MOL0     C99649   2.551   1.895   8.335 -0.2459 -0.3257  1.5192
  739MOL0     C99650   2.555   2.007   8.239  0.5623 -0.5515  0.3566
  739MOL0     C99651   2.639   2.123   8.296 -0.3067 -0.0638  1.3749
  739MOL0     C99652   2.588   2.249   8.217  0.1869  0.3751 -0.6645
  739MOL0     C99653   2.677   2.367   8.258 -0.2453  0.0810  0.8799
  739MOL0     O99654   2.797   2.343   8.193 -0.5786 -0.3720 -0.1706
  739MOL0     C99655   2.913   2.406   8.231  0.2203 -0.0915  0.2743
  739MOL0     C99656   3.034   2.356   8.178  0.1581  0.4161  0.3115
  739MOL0     C99657   3.162   2.411   8.209  0.2361 -0.8705  0.0382
  739MOL0     C99658   3.174   2.508   8.306  0.5449 -0.3031 -0.3682
  739MOL0     C99659   3.300   2.558   8.356 -0.0866 -0.2270  0.4024
  739MOL0     O99660   3.305   2.655   8.450  0.1719 -0.0091  0.2205
  739MOL0     C99661   3.424   2.726   8.454  0.1430 -0.0561 -0.9097
  739MOL0     C99662   3.487   2.799   8.350  0.7769 -0.3590 -0.2902
  739MOL0     C99663   3.612   2.858   8.357 -0.4017 -0.6318  0.1867
  739MOL0     C99664   3.685   2.835   8.477  0.7337  0.3779  1.0170
  739MOL0     O99665   3.798   2.915   8.513 -0.4280  1.5160 -0.2006
  739MOL0     C99666   3.861   3.016   8.431 -0.2342  0.4710  0.6135
  739MOL0     C99667   3.946   3.118   8.518 -0.3138  0.2643 -0.1459
  739MOL0     C99668   3.869   3.182   8.634  0.5899 -0.3064  0.7230
  739MOL0     C99669   3.938   3.312   8.688 -1.1747  1.0151  0.4893
  739MOL0     C99670   4.063   3.281   8.783  0.0807  0.3064  1.3297
  739MOL0     C99671   4.088   3.390   8.890  0.0339  0.4361  0.3467
  739MOL0     C99672   4.133   3.524   8.826 -0.7331  0.3267  0.8967
  739MOL0     C99673   4.055   3.638   8.882 -0.2898 -0.3406  0.6284
  739MOL0    Cl99674   4.118   3.673   9.042  0.3684 -0.2233 -0.4410
  739MOL0     C99675   3.622   2.770   8.582  0.9589 -0.0833 -0.4917
  739MOL0     C99676   3.497   2.703   8.567  0.7741  0.2120 -1.0329
  739MOL0     O99677   3.394   2.506   8.293 -0.8139 -0.4158 -0.1517
  739MOL0     C99678   3.051   2.569   8.349 -0.8079 -0.0952 -0.4596
  739MOL0     C99679   2.924   2.517   8.313 -0.5475 -0.3456  0.7884
  739MOL0     N99680   2.520   1.899   8.467 -0.2170 -0.0799 -0.1249
  739MOL0     N99681   2.536   1.783   8.514  0.3232  0.1307  0.3406
  739MOL0     C99682   3.790   1.666   8.265  0.0757 -0.1886  0.7694
  739MOL0     C99683   3.928   1.641   8.286  0.4899  0.2344 -0.9097
  739MOL0     C99684   4.314   1.423   8.235 -0.4239  0.2691  0.2847
  739MOL0     C99685   4.368   1.397   8.112 -0.1777  0.2859 -0.3306
  739MOL0     C99686   4.501   1.406   8.080 -0.2332  0.4727  0.2543
  739MOL0     C99687   4.605   1.439   8.171  0.9859 -0.3820 -0.2774
  739MOL0     O99688   4.742   1.436   8.157  0.8893 -0.2271  0.2482
  739MOL0     C99689   4.808   1.443   8.025  0.5600 -0.1203 -0.1277
  739MOL0     C99690   4.870   1.583   8.014  0.0854  0.1204 -0.7202
  739MOL0     C99691   4.773   1.698   7.993 -0.7047 -0.3493  0.0531
  739MOL0     C99692   4.834   1.840   7.978  0.3591 -0.6810  0.5124
  739MOL0     C99693   4.893   1.891   8.095  0.7635 -0.6371 -1.1661
  739MOL0     C99694   4.927   1.926   8.206 -0.7683  0.0218 -0.2676
  739MOL0     C99695   4.552   1.465   8.300 -0.6274 -0.1446  0.5216
  739MOL0     C99696   4.414   1.466   8.334  0.6615  0.0572 -0.2545
  739MOL0     C99697   4.382   1.504   8.477 -0.2159 -0.8723 -0.4328
  739MOL0     H99698   3.890   1.316   8.417 -1.1927 -0.7752 -0.5350
  739MOL0     H99699   3.667   1.362   8.379 -0.6073  1.0744 -0.0326
  739MOL0     H99700   3.483   1.469   8.406  4.5654  0.1054 -1.0671
  739MOL0     H99701   3.474   1.632   8.455 -4.1482 -0.9211  1.4919
  739MOL0     H99702   3.315   1.546   8.219 -1.7789 -0.5874  1.3984
  739MOL0     H99703   3.311   1.704   8.290 -1.7696 -0.9596 -2.0459
  739MOL0     H99704   3.249   1.615   8.508  1.3315 -0.9171 -0.2225
  739MOL0     H99705   3.224   1.453   8.432  1.1395 -0.5450  0.3125
  739MOL0     H99706   3.068   1.711   8.373  0.9968  0.0329  0.8274
  739MOL0     H99707   3.047   1.559   8.276 -2.4735  2.7666 -0.9562
  739MOL0     H99708   2.978   1.424   8.453 -0.6634  1.0308  1.3223
  739MOL0     H99709   2.994   1.548   8.572  0.6353  2.0969  0.0140
  739MOL0     H99710   2.828   1.684   8.500 -3.1907 -0.8069 -0.2295
  739MOL0     H99711   2.828   1.624   8.340  1.1506  1.1498 -0.2967
  739MOL0     H99712   2.716   1.533   8.599  2.2297 -2.0744 -0.2175
  739MOL0     H99713   2.747   1.406   8.480 -2.4999  0.1011  0.3146
  739MOL0     H99714   2.600   1.502   8.324  0.3484 -2.6253  1.1129
  739MOL0     H99715   2.518   1.502   8.482 -1.2687 -0.3935 -0.7404
  739MOL0     H99716   2.604   1.726   8.207 -0.7489  0.6285 -0.9021
  739MOL0     H99717   2.583   1.975   8.138 -0.7494  2.9127 -1.2934
  739MOL0     H99718   2.453   2.047   8.227 -0.0912 -2.0015  0.7727
  739MOL0     H99719   2.624   2.157   8.399 -1.7902  1.4217  0.7055
  739MOL0     H99720   2.743   2.095   8.279 -0.1974  0.4392  1.2186
  739MOL0     H99721   2.482   2.267   8.234  1.1327  4.1720  3.0990
  739MOL0     H99722   2.601   2.242   8.109  0.6248  0.2557 -0.6053
  739MOL0     H99723   2.696   2.375   8.365  0.9819  1.1653  0.5955
  739MOL0     H99724   2.625   2.456   8.221  0.6793  0.7042  1.0476
  739MOL0     H99725   3.042   2.261   8.127 -1.9949  0.3973 -0.0963
  739MOL0     H99726   3.250   2.357   8.174  1.3673 -1.4090  3.3057
  739MOL0     H99727   3.444   2.798   8.250 -0.7318 -2.5500  0.3103
  739MOL0     H99728   3.648   2.916   8.273 -0.9375 -2.8363 -1.6704
  739MOL0     H99729   3.925   2.981   8.349  0.0239  0.3195  0.8748
  739MOL0     H99730   3.776   3.072   8.391  0.1547 -0.4940 -1.7300
  739MOL0     H99731   4.038   3.079   8.563 -1.5753 -2.3639  0.3606
  739MOL0     H99732   3.990   3.198   8.458 -3.0649  3.4140  1.6838
  739MOL0     H99733   3.766   3.204   8.605  0.7379 -0.7710 -0.2063
  739MOL0     H99734   3.853   3.108   8.712  0.7107 -0.0183  1.0213
  739MOL0     H99735   3.873   3.358   8.763 -2.3240 -1.4617  1.1135
  739MOL0     H99736   3.967   3.387   8.614 -2.2885  1.8439  0.8700
  739MOL0     H99737   4.152   3.264   8.722  1.8933  0.0695  3.8751
  739MOL0     H99738   4.040   3.196   8.848  0.9531  0.9170  2.4867
  739MOL0     H99739   3.998   3.402   8.951  0.2840 -4.0309  1.9935
  739MOL0     H99740   4.160   3.358   8.966 -0.9948 -0.9500  0.7822
  739MOL0     H99741   4.104   3.520   8.720  0.0320 -0.1514  0.6925
  739MOL0     H99742   4.241   3.541   8.824 -0.9284  1.7001  1.5549
  739MOL0     H99743   4.063   3.725   8.817 -2.5310 -2.8316 -3.4265
  739MOL0     H99744   3.951   3.605   8.882  0.1835 -1.9304 -0.0614
  739MOL0     H99745   3.675   2.778   8.676  0.8828  2.6532 -0.6001
  739MOL0     H99746   3.440   2.665   8.651  0.4559  1.8288 -0.4832
  739MOL0     H99747   3.051   2.648   8.423 -1.3252 -1.4432  1.0449
  739MOL0     H99748   2.831   2.545   8.361  0.2229  1.1647  1.4661
  739MOL0     H99749   3.761   1.763   8.224 -1.1512 -0.9218 -0.1593
  739MOL0     H99750   4.005   1.710   8.253  1.8759  1.2728  3.8315
  739MOL0     H99751   4.311   1.361   8.027 -0.8040 -1.3224  0.7219
  739MOL0     H99752   4.544   1.391   7.981 -2.0369  0.4075 -0.5510
  739MOL0     H99753   4.749   1.408   7.940  1.9094  1.2350 -1.6907
  739MOL0     H99754   4.897   1.381   8.036  2.9523  3.3804  2.6884
  739MOL0     H99755   4.945   1.591   7.935  0.2528  1.5469 -0.4402
  739MOL0     H99756   4.931   1.594   8.103  0.2355  1.3765 -0.9651
  739MOL0     H99757   4.709   1.706   8.082 -0.9138 -0.3185 -0.0981
  739MOL0     H99758   4.714   1.673   7.905 -1.3668  2.5781 -0.4525
  739MOL0     H99759   4.902   1.840   7.892  1.8783 -0.8301  1.6793
  739MOL0     H99760   4.757   1.909   7.942  1.2149 -0.0655 -0.1967
  739MOL0     H99761   4.970   1.973   8.292  0.3933  2.7203 -2.1780
  739MOL0     H99762   4.635   1.496   8.362  0.1177  0.8805 -0.9214
  739MOL0     H99763   4.471   1.534   8.535 -0.4270 -2.9693  1.1040
  739MOL0     H99764   4.306   1.582   8.473  1.4099  0.9000  1.1382
  739MOL0     H99765   4.349   1.414   8.530 -0.3839  1.0521  3.0331
  740MOL0     O99766   2.529   6.108   6.424 -0.1445  0.1397 -0.0236
  740MOL0     C99767   2.496   6.078   6.533  0.3140  0.4870 -0.5509
  740MOL0     O99768   2.574   6.083   6.652  0.1024 -0.2653 -0.2509
  740MOL0     C99769   2.701   6.129   6.641  0.2345  0.3747 -0.2327
  740MOL0     C99770   2.798   6.061   6.568 -0.0114 -0.1254  0.1732
  740MOL0     C99771   2.920   6.117   6.532  0.2677  0.0798  0.4275
  740MOL0     C99772   2.953   6.248   6.574  0.1888  0.1116 -0.1420
  740MOL0     O99773   3.077   6.310   6.559  0.6341 -0.1207  0.2531
  740MOL0     C99774   3.194   6.232   6.517  0.2750  0.5949  0.2562
  740MOL0     C99775   3.241   6.158   6.635  1.1344 -0.0664  0.2557
  740MOL0     C99776   3.355   6.057   6.612 -0.2862  0.1545 -0.0358
  740MOL0     C99777   3.321   5.944   6.524  0.1504 -0.0745  0.3702
  740MOL0     C99778   3.410   5.821   6.544  0.3591  1.3329  0.4986
  740MOL0     C99779   3.553   5.854   6.493 -0.3428 -0.5374 -0.0571
  740MOL0     C99780   3.627   5.745   6.415  0.5304 -0.3939 -0.2517
  740MOL0     C99781   3.698   5.660   6.521  0.1791  0.5726 -0.4751
  740MOL0     N99782   3.819   5.723   6.581 -0.2443  0.5636  0.5346
  740MOL0     C99783   3.924   5.764   6.503  0.5804 -0.2888 -0.4029
  740MOL0     C99784   4.028   5.785   6.598  0.7854  0.3582  0.1938
  740MOL0     C99785   4.168   5.825   6.563 -0.0940  0.1478  0.5042
  740MOL0     C99786   4.265   5.753   6.647  0.8801  0.1745 -0.1607
  740MOL0     C99787   4.281   5.810   6.782  0.1665 -0.6570  0.1536
  740MOL0     C99788   4.422   5.761   6.842 -0.3991 -0.1706 -0.6781
  740MOL0     O99789   4.431   5.803   6.981 -0.0041 -0.1596  0.1453
  740MOL0     C99790   4.539   5.759   7.053  0.8115  0.7068 -0.1707
  740MOL0     C99791   4.537   5.795   7.184 -0.6490 -0.5364 -0.6745
  740MOL0     C99792   4.641   5.751   7.269 -0.2703 -0.3578  0.6948
  740MOL0     C99793   4.740   5.662   7.226 -0.5401 -0.2848  1.0502
  740MOL0     C99794   4.849   5.629   7.322  0.2531 -0.5821 -0.3790
  740MOL0     O99795   4.848   5.678   7.449 -0.0473  0.7853 -0.5161
  740MOL0     C99796   4.964   5.684   7.516  0.2366  0.2983 -1.1927
  740MOL0     C99797   5.083   5.747   7.473 -1.0240  0.9424 -0.5057
  740MOL0     C99798   5.189   5.765   7.553  0.5351  0.8261 -0.2257
  740MOL0     C99799   5.190   5.718   7.686  0.4630  0.7271  0.9681
  740MOL0     O99800   5.306   5.736   7.756 -0.6308  0.0631 -0.4052
  740MOL0     C99801   5.329   5.655   7.873  0.7347 -0.3651 -0.3275
  740MOL0     C99802   5.466   5.680   7.910  0.5067  0.7079  0.0446
  740MOL0     C99803   5.483   5.823   7.954  0.2581  0.4450 -0.2284
  740MOL0     C99804   5.610   5.842   8.042  0.1428  0.1522 -0.4712
  740MOL0     C99805   5.649   5.989   8.046  0.4704  0.6766 -0.9209
  740MOL0     C99806   5.768   6.000   8.143 -0.1316 -0.2005 -0.0778
  740MOL0     C99807   5.819   6.140   8.189  1.0467  0.6298  0.1861
  740MOL0     C99808   5.881   6.142   8.332 -0.1544 -0.1080 -0.9311
  740MOL0    Cl99809   6.023   6.039   8.352  0.0497  0.3056  0.3139
  740MOL0     C99810   5.073   5.658   7.741 -0.5865 -0.0564  0.3268
  740MOL0     C99811   4.966   5.637   7.654 -0.1693  0.2428  0.5213
  740MOL0     O99812   4.946   5.568   7.274 -0.1597 -0.5167 -0.0025
  740MOL0     C99813   4.747   5.638   7.086 -0.8334  0.2979 -0.4312
  740MOL0     C99814   4.648   5.687   7.000  0.1613 -0.4419 -0.1189
  740MOL0     N99815   3.963   5.808   6.718  0.2799  0.2827  0.8408
  740MOL0     N99816   3.837   5.766   6.709  0.5245 -0.0653 -0.5911
  740MOL0     C99817   2.859   6.312   6.651  0.0207  0.3498 -0.5313
  740MOL0     C99818   2.737   6.253   6.692 -0.0332 -0.0063 -0.0792
  740MOL0     C99819   2.350   6.043   6.553  0.4781  0.3806  0.5793
  740MOL0     C99820   2.273   6.016   6.437 -0.1523 -1.4928 -0.0898
  740MOL0     C99821   2.140   5.980   6.444 -0.2035  0.2233 -0.7451
  740MOL0     C99822   2.071   5.967   6.561 -0.0892 -0.2619 -0.2755
  740MOL0     O99823   1.945   5.929   6.565 -0.0585  0.0299 -0.2559
  740MOL0     C99824   1.880   5.888   6.685  0.1385  0.2365  0.2093
  740MOL0     C99825   1.764   5.796   6.643  0.3900 -0.2508  0.4077
  740MOL0     C99826   1.654   5.789   6.748 -0.2069 -0.1660  0.5501
  740MOL0     C99827   1.704   5.756   6.888 -0.3776  0.0607  0.5287
  740MOL0     C99828   1.605   5.754   6.987 -0.9395 -0.3053 -0.5051
  740MOL0     C99829   1.538   5.763   7.088 -0.9370  0.4695  0.1917
  740MOL0     C99830   2.146   5.996   6.679  0.4639 -0.3979 -0.4281
  740MOL0     C99831   2.285   6.029   6.678 -0.7405 -0.2742  1.4023
  740MOL0     C99832   2.341   6.067   6.811 -0.6349  0.5955 -0.5222
  740MOL0     H99833   2.773   5.964   6.527  0.6779  0.7829 -2.5658
  740MOL0     H99834   2.986   6.059   6.467  0.7108  0.1583  0.7996
  740MOL0     H99835   3.166   6.159   6.440  1.6537 -1.2474  1.4242
  740MOL0     H99836   3.277   6.296   6.485  0.4465 -1.0474 -3.0073
  740MOL0     H99837   3.167   6.097   6.689  1.8470 -1.5476 -0.3686
  740MOL0     H99838   3.280   6.229   6.707  0.0016  0.0702  0.7558
  740MOL0     H99839   3.361   6.018   6.714 -2.3611  0.1072  0.1225
  740MOL0     H99840   3.451   6.108   6.599  0.3208 -0.9130  0.2082
  740MOL0     H99841   3.214   5.928   6.544 -0.2916  2.7168  0.6437
  740MOL0     H99842   3.330   5.979   6.421 -1.1242  3.1839  1.2502
  740MOL0     H99843   3.418   5.796   6.650  0.9577  0.1218  0.1897
  740MOL0     H99844   3.363   5.744   6.483  0.0351  1.3178  0.7635
  740MOL0     H99845   3.553   5.940   6.426  1.0115 -0.5114 -0.0518
  740MOL0     H99846   3.622   5.887   6.572  0.4768 -4.1465  0.9103
  740MOL0     H99847   3.703   5.780   6.344  2.6320 -2.3314  0.9095
  740MOL0     H99848   3.556   5.687   6.356 -3.3461  0.2425  3.3008
  740MOL0     H99849   3.627   5.624   6.597  1.6363 -1.0417  0.1969
  740MOL0     H99850   3.728   5.567   6.471 -3.2694 -0.0434 -1.7282
  740MOL0     H99851   3.924   5.761   6.394 -3.1104 -1.4892 -0.5309
  740MOL0     H99852   4.183   5.786   6.462 -1.3424 -0.6429  0.5993
  740MOL0     H99853   4.179   5.933   6.556 -1.9994  0.2600 -3.3748
  740MOL0     H99854   4.226   5.652   6.667  1.2756  0.7154  4.3905
  740MOL0     H99855   4.362   5.732   6.601 -0.8679 -5.5285 -2.2117
  740MOL0     H99856   4.206   5.779   6.856 -2.2072 -0.0949 -1.9054
  740MOL0     H99857   4.279   5.919   6.779 -2.8911 -0.6304  0.6757
  740MOL0     H99858   4.505   5.800   6.782  0.9902 -0.0436  1.2674
  740MOL0     H99859   4.426   5.652   6.842  3.8360 -0.1988  1.4573
  740MOL0     H99860   4.454   5.855   7.219 -1.3018 -1.6310 -0.3059
  740MOL0     H99861   4.624   5.772   7.374 -1.3988 -0.2249  0.5067
  740MOL0     H99862   5.080   5.792   7.374  1.6834  0.0198 -1.0766
  740MOL0     H99863   5.281   5.805   7.511 -0.4410  1.2252 -2.0658
  740MOL0     H99864   5.265   5.671   7.961  1.2168 -1.3243  0.2102
  740MOL0     H99865   5.310   5.553   7.837 -1.6095  0.6147 -2.1121
  740MOL0     H99866   5.492   5.613   7.992 -0.7943  2.0906  1.6765
  740MOL0     H99867   5.520   5.653   7.819 -3.2677  3.7330 -3.5430
  740MOL0     H99868   5.495   5.893   7.870 -0.6740 -0.5397 -1.2078
  740MOL0     H99869   5.391   5.851   8.005  0.0807 -2.1369  1.0244
  740MOL0     H99870   5.687   5.778   7.997 -0.7855 -1.1598 -0.2780
  740MOL0     H99871   5.594   5.799   8.142  1.3967  1.7146  0.4403
  740MOL0     H99872   5.569   6.057   8.076  0.4504  0.3176 -0.1455
  740MOL0     H99873   5.695   6.020   7.951  0.7355 -1.1432 -1.4199
  740MOL0     H99874   5.721   5.953   8.230  0.7536 -1.0294 -0.0296
  740MOL0     H99875   5.850   5.939   8.104 -0.3696 -1.6273  1.5367
  740MOL0     H99876   5.734   6.208   8.195  1.2325  0.7443  3.0176
  740MOL0     H99877   5.892   6.182   8.119  1.8292  0.9767  1.1770
  740MOL0     H99878   5.913   6.241   8.366 -0.0181 -0.5721  0.3440
  740MOL0     H99879   5.797   6.109   8.394 -1.3403  3.1597 -0.5510
  740MOL0     H99880   5.074   5.615   7.840  1.5380 -2.9479 -0.8038
  740MOL0     H99881   4.870   5.607   7.694  0.1853  0.2286  1.3878
  740MOL0     H99882   4.838   5.586   7.054  0.5560  1.8380  0.8316
  740MOL0     H99883   4.653   5.673   6.892 -1.7326 -1.1724 -0.1506
  740MOL0     H99884   2.889   6.411   6.684 -1.9410  0.0786  2.5248
  740MOL0     H99885   2.665   6.305   6.754 -1.1156  0.4382 -1.6330
  740MOL0     H99886   2.327   6.033   6.344  0.0678 -0.1312  0.2625
  740MOL0     H99887   2.084   5.959   6.353  0.9719 -4.1393 -0.6504
  740MOL0     H99888   1.848   5.969   6.752  1.2576  0.0941  0.9387
  740MOL0     H99889   1.938   5.821   6.748 -0.6126  1.4054  2.2599
  740MOL0     H99890   1.803   5.696   6.622  0.5981 -0.3036  1.0218
  740MOL0     H99891   1.730   5.839   6.548  1.7629 -2.7497 -1.3342
  740MOL0     H99892   1.582   5.712   6.721 -0.1765  0.1297 -0.4446
  740MOL0     H99893   1.592   5.879   6.749 -1.1608 -0.8227  1.1060
  740MOL0     H99894   1.753   5.659   6.879  1.1406  0.5967  2.1665
  740MOL0     H99895   1.790   5.818   6.918  0.5568 -0.6469 -0.5793
  740MOL0     H99896   1.469   5.771   7.169  1.6807  1.3523  2.4990
  740MOL0     H99897   2.093   5.990   6.774 -1.2739  0.3096 -1.2996
  740MOL0     H99898   2.270   6.069   6.895  1.9613 -3.3095  2.1419
  740MOL0     H99899   2.426   6.002   6.833  0.3672  1.7978 -0.7531
  740MOL0     H99900   2.373   6.171   6.811  2.0772 -0.1364  1.0051
  741MOL0     O99901   9.911   1.624   8.996  0.4487 -0.2912 -0.0987
  741MOL0     C99902  10.012   1.572   9.041  0.8895  0.5629  0.0837
  741MOL0     O99903  10.130   1.638   9.049 -0.4035  0.1228  0.6112
  741MOL0     C99904  10.155   1.740   8.962 -0.4658 -0.0494 -0.5617
  741MOL0     C99905  10.207   1.717   8.839 -0.3861  0.3205  0.9929
  741MOL0     C99906  10.243   1.812   8.746 -0.2459 -0.3812  0.7250
  741MOL0     C99907  10.214   1.949   8.776  0.7759  0.0333  0.1566
  741MOL0     O99908  10.238   2.057   8.691 -0.2133  0.1931  0.0276
  741MOL0     C99909  10.267   2.035   8.548 -0.3026  1.6387 -0.8054
  741MOL0     C99910  10.261   2.167   8.480 -0.9368  0.0781  0.1668
  741MOL0     C99911  10.296   2.157   8.333  0.2956 -0.0289 -0.0986
  741MOL0     C99912  10.284   2.307   8.284  0.1060 -0.7925  0.2424
  741MOL0     C99913  10.351   2.325   8.144 -0.0414  0.1033  0.1777
  741MOL0     C99914  10.331   2.456   8.076  0.2443 -0.7213  0.0209
  741MOL0     C99915  10.347   2.452   7.925  0.1715  0.9052  0.7362
  741MOL0     C99916  10.335   2.591   7.865  0.0688  0.4184  0.6331
  741MOL0     N99917  10.468   2.661   7.878  0.3876  1.0809 -0.2587
  741MOL0     C99918  10.565   2.665   7.783  0.2004 -0.5237  0.2318
  741MOL0     C99919  10.658   2.744   7.833 -0.1428  0.9747 -0.0841
  741MOL0     C99920  10.794   2.783   7.770 -0.3093  1.1253  0.1680
  741MOL0     C99921  10.890   2.712   7.855 -0.3557 -0.4043 -0.1894
  741MOL0     C99922  11.025   2.696   7.787 -0.1608 -1.5686 -1.2327
  741MOL0     C99923  11.122   2.807   7.841  1.6410  0.2553  0.4850
  741MOL0     O99924  11.252   2.763   7.789  0.6838  0.2105 -0.0015
  741MOL0     C99925  11.362   2.841   7.787  0.3608 -0.5674  1.1675
  741MOL0     C99926  11.364   2.963   7.850 -0.6746 -0.5355 -0.2730
  741MOL0     C99927  11.470   3.051   7.831  0.1809 -0.9364  0.1691
  741MOL0     C99928  11.584   3.019   7.753  1.4051  0.1301  0.6707
  741MOL0     C99929  11.712   3.096   7.753  0.3538  0.2331 -0.2841
  741MOL0     O99930  11.820   3.035   7.697  0.2962 -0.8061  0.1862
  741MOL0     C99931  11.946   3.092   7.714 -0.2851  0.2068  0.1997
  741MOL0     C99932  12.039   3.087   7.606 -0.7190  0.5442 -0.5934
  741MOL0     C99933  12.167   3.133   7.631 -0.5535 -0.1425  0.9521
  741MOL0     C99934  12.217   3.194   7.749  0.5160  0.8082  0.0442
  741MOL0     O99935  12.344   3.241   7.769 -0.0552  0.2915 -0.2154
  741MOL0     C99936  12.414   3.319   7.666 -1.0800  0.4608  0.1313
  741MOL0     C99937  12.537   3.255   7.603 -1.0668 -0.1202 -0.7441
  741MOL0     C99938  12.663   3.234   7.701 -0.3836  0.5765 -0.6191
  741MOL0     C99939  12.782   3.174   7.618  0.0885  0.3583  0.0577
  741MOL0     C99940  12.897   3.136   7.709 -0.5746 -0.2554  0.1309
  741MOL0     C99941  13.005   3.052   7.631  0.3120  0.3814 -0.3278
  741MOL0     C99942  13.052   2.925   7.697 -0.2805 -0.4826 -1.2334
  741MOL0     C99943  13.159   2.832   7.632 -0.0010 -0.2576  0.3349
  741MOL0    Cl99944  13.314   2.919   7.644  0.1202 -0.1888 -0.4439
  741MOL0     C99945  12.120   3.208   7.848  0.2665 -0.4341  0.6527
  741MOL0     C99946  11.988   3.158   7.831  0.1135  1.1227 -0.3364
  741MOL0     O99947  11.701   3.212   7.787  0.4968 -0.3635  0.4387
  741MOL0     C99948  11.575   2.892   7.679  0.1461  0.4669 -0.2882
  741MOL0     C99949  11.465   2.805   7.696  0.1439 -0.2767  1.3979
  741MOL0     N99950  10.617   2.800   7.944  0.3099 -0.2945 -0.1910
  741MOL0     N99951  10.498   2.756   7.978  0.4962 -0.7562  0.5801
  741MOL0     C99952  10.163   1.977   8.904 -0.7239 -1.1689  0.4387
  741MOL0     C99953  10.140   1.874   8.998 -0.0279  0.6433 -0.3474
  741MOL0     C99954  10.010   1.443   9.111 -0.7287 -0.4785  0.2384
  741MOL0     C99955  10.106   1.420   9.217  0.0083 -0.7943  0.2650
  741MOL0     C99956  10.107   1.297   9.284 -0.2028 -0.1167  0.3751
  741MOL0     C99957  10.038   1.190   9.234 -1.0352  0.1096  0.1900
  741MOL0     O99958  10.044   1.064   9.289  0.6470  1.2045  0.0041
  741MOL0     C99959  10.135   1.027   9.401  0.0302 -0.5578  0.2682
  741MOL0     C99960  10.125   0.879   9.437 -0.2730 -0.2182  1.1374
  741MOL0     C99961  10.200   0.863   9.567 -0.4230 -0.3556  0.6364
  741MOL0     C99962  10.169   0.715   9.612  0.4480 -0.6046  0.0998
  741MOL0     C99963  10.226   0.690   9.739  0.1663 -0.0188  0.6556
  741MOL0     C99964  10.264   0.675   9.856 -0.3427 -0.1277 -0.3382
  741MOL0     C99965   9.946   1.213   9.133 -0.4398  0.2913  0.7867
  741MOL0     C99966   9.932   1.336   9.071  0.1132 -0.4553  0.8780
  741MOL0     C99967   9.844   1.339   8.943  0.2444  0.0443  0.0432
  741MOL0     H99968  10.232   1.611   8.833 -1.9476 -0.0423  0.6262
  741MOL0     H99969  10.308   1.793   8.661  1.4170  1.5228  1.4845
  741MOL0     H99970  10.372   2.011   8.530  0.1100  3.5277 -1.0932
  741MOL0     H99971  10.202   1.959   8.504  1.3453 -1.1033  1.1849
  741MOL0     H99972  10.325   2.233   8.539 -2.0170 -0.1011  1.5846
  741MOL0     H99973  10.155   2.195   8.482 -0.6499  1.1465  0.8910
  741MOL0     H99974  10.219   2.098   8.283  0.9255  0.9132 -2.3108
  741MOL0     H99975  10.399   2.119   8.328  0.2014 -0.1476 -2.0605
  741MOL0     H99976  10.177   2.331   8.288  0.4329  1.1596 -1.3221
  741MOL0     H99977  10.333   2.378   8.351 -3.3182  1.7558  0.3371
  741MOL0     H99978  10.458   2.313   8.165 -0.4574  0.5585  2.9424
  741MOL0     H99979  10.311   2.241   8.087 -1.0915  0.0190  1.0157
  741MOL0     H99980  10.230   2.494   8.086 -0.6528 -2.5447 -1.3451
  741MOL0     H99981  10.396   2.523   8.132 -1.4666  0.1956  0.9546
  741MOL0     H99982  10.267   2.390   7.883 -0.6068 -0.5318  4.0014
  741MOL0     H99983  10.442   2.403   7.902 -1.7224 -2.3213 -0.9398
  741MOL0     H99984  10.304   2.584   7.761  2.1139 -3.9372  0.0614
  741MOL0     H99985  10.256   2.643   7.919 -1.4855 -1.4867  0.3050
  741MOL0     H99986  10.560   2.617   7.686 -3.8771  2.8639 -1.5895
  741MOL0     H99987  10.794   2.750   7.666 -1.5509  1.8334 -0.0707
  741MOL0     H99988  10.801   2.892   7.780 -1.1541  1.0987  1.4150
  741MOL0     H99989  10.890   2.763   7.952  0.8355 -2.7155  1.1120
  741MOL0     H99990  10.856   2.609   7.863 -0.9566 -0.3848 -2.0421
  741MOL0     H99991  11.014   2.711   7.680 -0.1512  4.0001 -0.7440
  741MOL0     H99992  11.063   2.601   7.825  1.8333 -0.5200 -0.4500
  741MOL0     H99993  11.127   2.811   7.950 -0.0028  2.0619  0.5514
  741MOL0     H99994  11.092   2.906   7.806 -1.0080 -0.5749  0.1323
  741MOL0     H99995  11.285   2.986   7.921 -0.7803 -3.0497  0.5282
  741MOL0     H99996  11.467   3.145   7.885  0.4709  0.4051 -2.0450
  741MOL0     H99997  12.011   3.036   7.514  0.9832 -1.2425 -0.1959
  741MOL0     H99998  12.248   3.119   7.561 -0.3590 -0.2570  1.2023
  741MOL0     H99999  12.350   3.350   7.584 -0.9660  1.2986  0.3465
  741MOL0     H    0  12.459   3.408   7.712  2.4052 -0.7269 -0.6469
  741MOL0     H    1  12.513   3.159   7.557  2.1021 -1.3814 -0.0267
  741MOL0     H    2  12.568   3.330   7.530 -2.5635  0.7297 -0.5452
  741MOL0     H    3  12.699   3.330   7.740  2.2071 -0.2091 -0.9095
  741MOL0     H    4  12.638   3.167   7.784  3.7927 -1.0177 -0.4275
  741MOL0     H    5  12.796   3.254   7.544 -0.3221 -0.7044 -1.1904
  741MOL0     H    6  12.754   3.082   7.567  0.5247  0.2806 -0.0446
  741MOL0     H    7  12.847   3.069   7.780 -1.0176 -2.4252 -2.0685
  741MOL0     H    8  12.941   3.229   7.746  1.7509 -0.9223 -0.7715
  741MOL0     H    9  12.949   3.024   7.541  1.0054 -1.1075 -0.3214
  741MOL0     H   10  13.092   3.114   7.605  2.2272 -1.0864  2.1887
  741MOL0     H   11  12.962   2.863   7.704  1.6847 -3.2970  3.5253
  741MOL0     H   12  13.082   2.945   7.800  0.9510 -0.7202 -1.5327
  741MOL0     H   13  13.169   2.738   7.687 -1.2195 -0.5662  0.0691
  741MOL0     H   14  13.136   2.799   7.531 -0.7002 -0.2802  0.4946
  741MOL0     H   15  12.142   3.260   7.941  0.3149 -2.6372  1.9585
  741MOL0     H   16  11.917   3.170   7.912 -1.7739  2.0828 -2.0657
  741MOL0     H   17  11.650   2.865   7.605 -0.5588  0.5379 -1.0466
  741MOL0     H   18  11.455   2.714   7.637 -0.7913 -0.4257  1.7746
  741MOL0     H   19  10.136   2.081   8.921 -1.6349 -1.6157  1.9987
  741MOL0     H   20  10.081   1.902   9.085 -0.7403  1.7793 -1.1777
  741MOL0     H   21  10.164   1.503   9.256 -0.8894 -0.2959  0.5703
  741MOL0     H   22  10.175   1.285   9.368  0.9951  0.8491 -0.4375
  741MOL0     H   23  10.114   1.092   9.486  1.5237  1.0863 -0.5524
  741MOL0     H   24  10.241   1.034   9.374  0.3423 -1.6948  1.1067
  741MOL0     H   25  10.160   0.809   9.360 -1.5975  2.0464 -1.7065
  741MOL0     H   26  10.021   0.856   9.462 -1.4074  1.6643 -1.4917
  741MOL0     H   27  10.173   0.933   9.647 -0.1546 -1.0928  1.3932
  741MOL0     H   28  10.309   0.865   9.556 -0.4262 -0.5065  0.5711
  741MOL0     H   29  10.062   0.692   9.611  0.9884 -4.3723  3.6521
  741MOL0     H   30  10.219   0.653   9.537  2.1575  2.3338 -1.3662
  741MOL0     H   31  10.291   0.666   9.959 -1.6714  0.2114  0.0638
  741MOL0     H   32   9.883   1.128   9.107  0.1340 -0.3380  1.4162
  741MOL0     H   33   9.783   1.430   8.954  1.5722  0.8771  0.7925
  741MOL0     H   34   9.897   1.327   8.848  0.0157 -1.4839  0.0957
  741MOL0     H   35   9.770   1.259   8.945 -1.2448  1.3958  1.2442
  742MOL0     O   36   6.328   7.271   6.880 -1.0622  0.1264  0.6224
  742MOL0     C   37   6.264   7.306   6.780 -0.1122 -0.0724 -0.5409
  742MOL0     O   38   6.322   7.350   6.667  0.0101  0.1912  0.5415
  742MOL0     C   39   6.451   7.316   6.629  0.4613 -0.1895 -0.1104
  742MOL0     C   40   6.491   7.183   6.610  0.5998  1.1005 -0.4211
  742MOL0     C   41   6.622   7.169   6.556  0.6644 -0.0479 -0.1805
  742MOL0     C   42   6.706   7.270   6.521  0.1434  0.0154 -0.1235
  742MOL0     O   43   6.815   7.219   6.466 -0.2731  0.2257  0.0505
  742MOL0     C   44   6.916   7.315   6.423  0.1977  0.4203 -0.5834
  742MOL0     C   45   7.019   7.335   6.536  0.0212 -0.6976 -1.3851
  742MOL0     C   46   7.145   7.419   6.505  0.0830  0.5062 -0.5714
  742MOL0     C   47   7.112   7.548   6.421  0.5538 -0.2552  0.3578
  742MOL0     C   48   7.226   7.633   6.372 -0.4334 -0.3719  0.6085
  742MOL0     C   49   7.323   7.563   6.275  0.7720 -0.7207 -0.2893
  742MOL0     C   50   7.415   7.661   6.197 -0.5914  0.8385  0.5605
  742MOL0     C   51   7.492   7.754   6.274 -0.6568  0.0323  0.8020
  742MOL0     N   52   7.586   7.696   6.365  0.8028 -0.6426 -0.6924
  742MOL0     C   53   7.561   7.643   6.497 -0.8295 -0.0467  1.5179
  742MOL0     C   54   7.677   7.651   6.563 -0.4423 -0.1694 -0.1369
  742MOL0     C   55   7.697   7.608   6.708  0.2680 -0.2794  0.6341
  742MOL0     C   56   7.689   7.451   6.723 -0.2900  0.2928 -0.4804
  742MOL0     C   57   7.765   7.360   6.631  0.0550 -0.2122  0.5390
  742MOL0     C   58   7.912   7.392   6.609 -0.9667  0.0665  0.2160
  742MOL0     O   59   7.992   7.371   6.733  0.1961 -0.5703 -0.4674
  742MOL0     C   60   8.125   7.387   6.722  0.2123 -0.9541 -0.6844
  742MOL0     C   61   8.198   7.454   6.814  0.8066  1.0190 -0.2452
  742MOL0     C   62   8.337   7.468   6.808  0.7765  0.4856 -0.3124
  742MOL0     C   63   8.410   7.414   6.704 -0.0543 -0.4124  0.3707
  742MOL0     C   64   8.553   7.445   6.690 -0.3657  0.2704 -0.7528
  742MOL0     O   65   8.618   7.517   6.786  0.3352  0.2958  0.2240
  742MOL0     C   66   8.753   7.537   6.789  0.4103  0.2225  0.1964
  742MOL0     C   67   8.803   7.563   6.916 -0.2206 -0.2510 -0.2889
  742MOL0     C   68   8.934   7.591   6.946  0.6068 -0.2242 -0.0035
  742MOL0     C   69   9.025   7.581   6.845 -0.0132 -0.5231  0.2388
  742MOL0     O   70   9.158   7.597   6.844 -0.7860 -0.0896 -0.3653
  742MOL0     C   71   9.216   7.697   6.937 -0.6755 -0.3552  0.3626
  742MOL0     C   72   9.354   7.729   6.874 -0.5140  0.0041  0.1442
  742MOL0     C   73   9.405   7.876   6.899 -0.4865 -0.5313 -0.5795
  742MOL0     C   74   9.517   7.875   7.004  0.6542 -0.1263 -0.1483
  742MOL0     C   75   9.657   7.864   6.950 -0.1928  0.5990 -0.6735
  742MOL0     C   76   9.784   7.879   7.042  0.1215  0.0388 -0.4189
  742MOL0     C   77   9.790   8.016   7.126 -0.3159 -0.5461 -1.3092
  742MOL0     C   78   9.723   7.998   7.269 -0.4000 -0.5908  0.2836
  742MOL0    Cl   79   9.845   7.912   7.363 -0.0045 -0.0887  0.2581
  742MOL0     C   80   8.979   7.556   6.710 -0.5208  0.3394 -0.5315
  742MOL0     C   81   8.843   7.533   6.684  0.1105  0.5091  0.1186
  742MOL0     O   82   8.613   7.391   6.591  0.4092 -0.5874 -0.7666
  742MOL0     C   83   8.335   7.344   6.608  0.6617 -0.3325  0.0738
  742MOL0     C   84   8.196   7.334   6.614  0.4885 -0.4387  0.7674
  742MOL0     N   85   7.774   7.688   6.477 -0.4050 -0.1032 -0.0391
  742MOL0     N   86   7.721   7.709   6.364  0.2161  1.2404 -0.1840
  742MOL0     C   87   6.660   7.408   6.533 -0.5395  0.3189  0.4163
  742MOL0     C   88   6.530   7.430   6.585  1.0584 -0.5317  0.1081
  742MOL0     C   89   6.116   7.323   6.798 -0.4580 -0.1279  0.6627
  742MOL0     C   90   6.046   7.237   6.886  0.5312 -0.1061  0.5811
  742MOL0     C   91   5.910   7.241   6.895 -0.4380  0.1055 -0.0059
  742MOL0     C   92   5.837   7.337   6.826 -0.0990  1.0521  0.4225
  742MOL0     O   93   5.704   7.339   6.831 -0.5746 -0.6981  0.4416
  742MOL0     C   94   5.651   7.308   6.965 -0.0758  0.2558  0.0946
  742MOL0     C   95   5.509   7.344   6.966 -0.6219  1.0088  0.3333
  742MOL0     C   96   5.441   7.305   7.102 -0.9717  0.2235 -0.5255
  742MOL0     C   97   5.289   7.339   7.099  0.1501 -0.3589  0.1831
  742MOL0     C   98   5.211   7.265   6.996 -0.3104  0.6010 -0.2065
  742MOL0     C   99   5.168   7.185   6.914 -0.0887  0.0495 -1.0223
  742MOL0     C  100   5.901   7.425   6.738  1.2294  1.1793 -0.4119
  742MOL0     C  101   6.034   7.422   6.725 -0.6621  0.3105 -0.8117
  742MOL0     C  102   6.091   7.531   6.640  0.7882  0.4676 -0.3132
  742MOL0     H  103   6.429   7.097   6.629  1.7884 -0.0055 -1.3561
  742MOL0     H  104   6.657   7.068   6.539 -2.2133 -1.1260 -0.1807
  742MOL0     H  105   6.977   7.269   6.345  4.7972 -1.4970  3.6498
  742MOL0     H  106   6.872   7.405   6.380  1.3926  0.5879 -1.5030
  742MOL0     H  107   7.065   7.239   6.563  2.3427 -0.0104 -2.6448
  742MOL0     H  108   6.967   7.379   6.622  2.1597 -0.8475  0.0771
  742MOL0     H  109   7.215   7.355   6.450  0.5400  2.0365 -1.8687
  742MOL0     H  110   7.188   7.449   6.601 -1.4529  0.7934  0.0467
  742MOL0     H  111   7.050   7.513   6.337  1.0232 -0.7306  0.2027
  742MOL0     H  112   7.049   7.619   6.476 -2.6661 -1.8216 -1.0166
  742MOL0     H  113   7.186   7.717   6.314  3.3594 -0.2705 -2.2008
  742MOL0     H  114   7.282   7.673   6.457  2.3111 -2.7558  0.0562
  742MOL0     H  115   7.372   7.489   6.339 -1.3274 -3.5761 -1.7221
  742MOL0     H  116   7.252   7.517   6.205 -1.8591 -1.6315  2.7258
  742MOL0     H  117   7.344   7.714   6.133 -0.2101 -0.3645 -0.9166
  742MOL0     H  118   7.481   7.604   6.131 -1.0404 -1.7060  2.1909
  742MOL0     H  119   7.547   7.816   6.203 -1.5933 -0.8623 -0.7808
  742MOL0     H  120   7.427   7.819   6.333 -0.6095  1.0709 -0.2637
  742MOL0     H  121   7.462   7.623   6.538 -1.3803  0.8278  0.6494
  742MOL0     H  122   7.801   7.636   6.730  1.4219 -3.9053  0.5131
  742MOL0     H  123   7.624   7.656   6.773 -1.4798  0.6453 -1.8595
  742MOL0     H  124   7.738   7.430   6.819 -1.3856 -2.2345 -0.4160
  742MOL0     H  125   7.585   7.419   6.726 -0.5203  0.9804 -0.7662
  742MOL0     H  126   7.706   7.362   6.539 -1.1105  2.9132  1.2286
  742MOL0     H  127   7.753   7.255   6.658  0.2042 -0.0454  1.2759
  742MOL0     H  128   7.925   7.498   6.584 -2.3327 -0.0607 -1.1744
  742MOL0     H  129   7.942   7.335   6.520  0.0001  1.1335 -0.1750
  742MOL0     H  130   8.142   7.493   6.898  0.8037 -0.8114  0.6464
  742MOL0     H  131   8.378   7.520   6.894 -4.1844  0.0362  2.7548
  742MOL0     H  132   8.741   7.578   7.004  2.7548 -0.8851  2.1121
  742MOL0     H  133   8.957   7.611   7.050  2.5313 -0.3439 -0.3742
  742MOL0     H  134   9.154   7.788   6.931  2.0318  1.6304  0.5327
  742MOL0     H  135   9.228   7.657   7.038 -1.1480 -0.9656  0.1872
  742MOL0     H  136   9.419   7.647   6.906 -1.5977 -1.3828 -1.0035
  742MOL0     H  137   9.343   7.719   6.765  0.1726  0.6976  0.0041
  742MOL0     H  138   9.442   7.916   6.804 -2.4745 -0.7370 -1.4933
  742MOL0     H  139   9.324   7.943   6.930  0.1603 -0.3785  0.8584
  742MOL0     H  140   9.501   7.797   7.078  3.9876 -0.0741  0.7878
  742MOL0     H  141   9.501   7.964   7.067 -4.5354 -1.1825  0.4722
  742MOL0     H  142   9.648   7.945   6.878 -1.0908  0.6019 -0.5679
  742MOL0     H  143   9.670   7.762   6.912  0.3245  0.0892  0.7701
  742MOL0     H  144   9.798   7.795   7.109 -0.0356  0.3117 -0.0395
  742MOL0     H  145   9.872   7.885   6.977  1.8717 -0.6692  1.7732
  742MOL0     H  146   9.738   8.094   7.069 -1.1109 -1.0529 -1.2792
  742MOL0     H  147   9.883   8.069   7.147 -0.3120 -2.0072  3.5427
  742MOL0     H  148   9.699   8.093   7.318 -1.0291 -0.9222  0.6287
  742MOL0     H  149   9.641   7.926   7.274 -0.4088 -0.6301 -0.3261
  742MOL0     H  150   9.056   7.561   6.634  1.4240 -0.7153  1.2725
  742MOL0     H  151   8.811   7.506   6.584  3.0347 -3.9971  0.0953
  742MOL0     H  152   8.390   7.321   6.517  2.7630  3.9694  0.0048
  742MOL0     H  153   8.150   7.282   6.531  1.8505  0.2574 -0.4649
  742MOL0     H  154   6.723   7.487   6.495 -0.7173  0.5653  0.6351
  742MOL0     H  155   6.486   7.528   6.591  1.6814 -0.2560  0.2730
  742MOL0     H  156   6.110   7.164   6.935 -0.0571 -0.1747  1.2655
  742MOL0     H  157   5.869   7.158   6.952  1.8515 -0.6457  0.6430
  742MOL0     H  158   5.694   7.367   7.046 -0.7121  1.2582 -0.2796
  742MOL0     H  159   5.666   7.202   6.987  0.8959  0.4890  0.6063
  742MOL0     H  160   5.460   7.287   6.886  2.9212 -1.8025 -0.0849
  742MOL0     H  161   5.498   7.449   6.939 -0.8202  0.4762 -1.8831
  742MOL0     H  162   5.481   7.359   7.189 -1.4279  2.1389 -1.4484
  742MOL0     H  163   5.461   7.198   7.113 -2.5436 -0.0172  0.3972
  742MOL0     H  164   5.246   7.323   7.199 -2.7115  1.5577 -0.6408
  742MOL0     H  165   5.277   7.444   7.073 -2.8613 -0.8412 -0.6760
  742MOL0     H  166   5.120   7.126   6.839  2.2493 -2.6167 -0.6183
  742MOL0     H  167   5.837   7.499   6.691 -3.4944 -2.1794 -0.0812
  742MOL0     H  168   6.091   7.494   6.537 -2.4149  0.1332 -0.2798
  742MOL0     H  169   6.026   7.619   6.645  2.1746  1.5792 -0.9560
  742MOL0     H  170   6.183   7.576   6.679 -0.3919  1.3507  1.6181
  743MOL0     O  171   5.611   5.105   2.477  0.1638  0.7381 -0.1869
  743MOL0     C  172   5.551   5.096   2.581  0.0312  0.1835 -0.0417
  743MOL0     O  173   5.612   5.100   2.702 -0.6026 -0.1596  0.4444
  743MOL0     C  174   5.741   5.140   2.704  0.3759  0.7806 -1.0602
  743MOL0     C  175   5.839   5.045   2.706 -0.9448  0.8300  0.2488
  743MOL0     C  176   5.971   5.085   2.719  0.1659 -0.8206 -0.5187
  743MOL0     C  177   6.004   5.224   2.726  0.4477 -0.0822  0.1156
  743MOL0     O  178   6.131   5.278   2.730  0.5628 -0.4279 -0.1065
  743MOL0     C  179   6.237   5.202   2.789 -1.1599 -0.3817  0.8726
  743MOL0     C  180   6.344   5.299   2.829  0.4833  0.9755 -0.3222
  743MOL0     C  181   6.474   5.242   2.882  0.1293 -0.1716  1.0627
  743MOL0     C  182   6.569   5.346   2.942 -0.8878  0.1402 -1.3716
  743MOL0     C  183   6.714   5.316   2.957  0.3556 -0.0414 -0.0447
  743MOL0     C  184   6.772   5.419   3.053 -0.6184 -0.7717  0.4343
  743MOL0     C  185   6.914   5.405   3.083 -0.7282  1.1681 -0.0014
  743MOL0     C  186   6.956   5.266   3.140  0.5004 -0.3849  0.9184
  743MOL0     N  187   7.084   5.294   3.207 -0.0068 -0.5791 -0.4869
  743MOL0     C  188   7.210   5.336   3.155  0.2422 -0.1241 -0.2667
  743MOL0     C  189   7.296   5.353   3.253 -0.8243 -0.0550 -0.5569
  743MOL0     C  190   7.444   5.386   3.234  0.4829 -0.2853 -0.1796
  743MOL0     C  191   7.522   5.259   3.253 -0.1828 -0.2885  0.4239
  743MOL0     C  192   7.671   5.281   3.291  0.0890 -0.4859  0.4725
  743MOL0     C  193   7.762   5.162   3.266  0.1861 -0.5420 -0.2578
  743MOL0     O  194   7.894   5.170   3.200  0.8682 -0.1951  0.0932
  743MOL0     C  195   8.005   5.221   3.266 -0.9931  0.4231 -0.3129
  743MOL0     C  196   8.001   5.296   3.389  1.2817  0.0571 -0.7382
  743MOL0     C  197   8.120   5.325   3.447  0.0077  0.6093  0.2435
  743MOL0     C  198   8.246   5.287   3.389  0.3358  0.0804  0.0025
  743MOL0     C  199   8.371   5.319   3.450 -0.6122  0.4709 -0.7477
  743MOL0     O  200   8.485   5.331   3.372  0.0047 -0.0730  0.3107
  743MOL0     C  201   8.601   5.365   3.439 -0.5154 -0.4934 -0.6214
  743MOL0     C  202   8.669   5.289   3.527 -0.2701 -1.2919  0.4716
  743MOL0     C  203   8.784   5.328   3.588  0.7532 -0.5936 -0.3168
  743MOL0     C  204   8.842   5.452   3.557 -0.7752  0.0732 -0.6118
  743MOL0     O  205   8.957   5.484   3.621 -0.2493  0.1977 -0.0422
  743MOL0     C  206   9.036   5.583   3.563  0.2773  0.7613 -0.2078
  743MOL0     C  207   9.176   5.598   3.618 -0.4956  0.5696 -0.3229
  743MOL0     C  208   9.244   5.723   3.572 -0.1186  0.5952  0.1019
  743MOL0     C  209   9.399   5.732   3.585  0.7317  0.1044 -0.2384
  743MOL0     C  210   9.450   5.869   3.556  0.4237  0.0609 -0.3870
  743MOL0     C  211   9.605   5.870   3.563  0.1437  0.1643 -0.1156
  743MOL0     C  212   9.659   5.976   3.471 -0.3891  0.3888  0.5523
  743MOL0     C  213   9.816   5.957   3.455  1.1531 -0.2521 -0.3145
  743MOL0    Cl  214   9.891   5.985   3.628 -0.3474  0.3522 -0.0226
  743MOL0     C  215   8.781   5.531   3.459  0.0663  0.3054  0.0599
  743MOL0     C  216   8.661   5.486   3.401  0.2038 -0.1929 -0.2863
  743MOL0     O  217   8.373   5.332   3.575  0.1913 -0.6856  0.0177
  743MOL0     C  218   8.247   5.220   3.267  0.4336  0.3940 -0.0603
  743MOL0     C  219   8.122   5.189   3.209 -0.6848 -0.1727  0.0337
  743MOL0     N  220   7.226   5.341   3.372 -0.3168 -0.2430 -0.3501
  743MOL0     N  221   7.110   5.302   3.345  0.0585  0.6502 -0.1070
  743MOL0     C  222   5.904   5.323   2.709 -0.0473 -0.1892  0.1804
  743MOL0     C  223   5.770   5.280   2.715  0.4168 -0.8546 -0.0370
  743MOL0     C  224   5.407   5.064   2.564 -0.6990  0.4895 -0.3108
  743MOL0     C  225   5.368   4.973   2.467  0.0985  0.3214 -0.2550
  743MOL0     C  226   5.238   4.930   2.446  0.6181  0.4355  0.4564
  743MOL0     C  227   5.140   4.994   2.518  0.2932  0.0582 -0.4796
  743MOL0     O  228   5.007   4.993   2.487 -0.4002 -0.1567 -0.9203
  743MOL0     C  229   4.963   5.008   2.351  1.2322  0.4846 -0.4944
  743MOL0     C  230   4.819   4.956   2.337  0.3076  0.9802 -0.1648
  743MOL0     C  231   4.778   4.964   2.187  0.7249 -0.8577 -0.6115
  743MOL0     C  232   4.656   4.873   2.152  0.4208 -0.0509 -0.3547
  743MOL0     C  233   4.550   4.865   2.254 -0.7730  0.4393 -0.1642
  743MOL0     C  234   4.469   4.882   2.342 -0.1734  1.0053 -0.3422
  743MOL0     C  235   5.174   5.090   2.619  0.0333 -0.0508  0.1685
  743MOL0     C  236   5.310   5.123   2.644  0.1706  0.3136  0.5424
  743MOL0     C  237   5.334   5.219   2.767 -0.0091 -0.0096 -0.4653
  743MOL0     H  238   5.809   4.942   2.714 -1.2457  0.9779  1.0496
  743MOL0     H  239   6.045   5.006   2.726 -0.7618 -1.5544  3.1201
  743MOL0     H  240   6.199   5.139   2.870  2.1811  0.6202  3.4307
  743MOL0     H  241   6.268   5.140   2.704 -0.0662  0.3055  0.7553
  743MOL0     H  242   6.307   5.363   2.909  0.8866 -1.7581  2.2196
  743MOL0     H  243   6.372   5.365   2.746 -0.4613  0.6864 -0.8960
  743MOL0     H  244   6.525   5.202   2.793 -0.3626  0.0626  0.6680
  743MOL0     H  245   6.458   5.155   2.946  0.1601 -0.8656  0.1466
  743MOL0     H  246   6.566   5.434   2.876  0.0222  0.4269 -1.0407
  743MOL0     H  247   6.538   5.358   3.046  2.3944  2.7849 -0.5113
  743MOL0     H  248   6.733   5.214   2.992  1.3865  0.3264  0.5007
  743MOL0     H  249   6.764   5.328   2.860  1.3365  2.7606  0.7211
  743MOL0     H  250   6.753   5.524   3.026 -0.5763 -0.3136  2.0318
  743MOL0     H  251   6.715   5.414   3.147 -0.1817 -0.1227  0.7482
  743MOL0     H  252   6.933   5.482   3.157 -0.6373 -0.4032  1.6922
  743MOL0     H  253   6.971   5.431   2.993  0.5628 -0.3703  0.3223
  743MOL0     H  254   6.893   5.213   3.211  0.6402 -1.7650  0.0490
  743MOL0     H  255   6.976   5.201   3.055 -1.5526  1.2401 -0.9347
  743MOL0     H  256   7.232   5.348   3.049  3.5096 -1.4183  0.1405
  743MOL0     H  257   7.462   5.445   3.144 -0.4025 -0.4554 -0.4887
  743MOL0     H  258   7.466   5.440   3.326  2.8705 -4.6910  2.1670
  743MOL0     H  259   7.471   5.213   3.339  1.2912 -2.0339  0.4150
  743MOL0     H  260   7.518   5.190   3.168  2.2368 -2.7473  2.1501
  743MOL0     H  261   7.668   5.299   3.399  1.5265 -3.1146  1.0434
  743MOL0     H  262   7.706   5.373   3.243 -0.1795 -0.1238  0.9482
  743MOL0     H  263   7.709   5.078   3.220 -0.0045 -1.0726  0.8803
  743MOL0     H  264   7.785   5.113   3.362 -0.2974 -3.0062 -1.3188
  743MOL0     H  265   7.914   5.300   3.454  4.0781 -0.9078  3.4076
  743MOL0     H  266   8.120   5.368   3.547  2.0375  1.2309  0.0192
  743MOL0     H  267   8.623   5.198   3.564  0.4143 -1.0312  2.0332
  743MOL0     H  268   8.828   5.260   3.659  2.0073 -1.0072 -1.4392
  743MOL0     H  269   9.039   5.568   3.455 -0.4106 -1.8318  0.0812
  743MOL0     H  270   9.005   5.687   3.575 -0.1733  1.0856 -3.2373
  743MOL0     H  271   9.162   5.612   3.725  0.7850  1.6342 -0.2804
  743MOL0     H  272   9.245   5.516   3.598 -1.1503  0.0582 -0.5576
  743MOL0     H  273   9.211   5.738   3.469  0.9305  3.7985  0.1082
  743MOL0     H  274   9.203   5.805   3.631 -2.4984 -0.9061  0.6704
  743MOL0     H  275   9.440   5.654   3.521  2.2288 -0.7535  1.6692
  743MOL0     H  276   9.424   5.709   3.689  0.8377 -0.9331 -0.4867
  743MOL0     H  277   9.401   5.940   3.623  1.1754 -1.9168  2.4514
  743MOL0     H  278   9.416   5.887   3.453  3.8903 -0.3742 -1.7521
  743MOL0     H  279   9.629   5.906   3.664 -2.0039 -2.3627  1.4564
  743MOL0     H  280   9.660   5.776   3.550  1.5195  1.3830 -4.5358
  743MOL0     H  281   9.652   6.071   3.525  3.5644  0.4387  1.2554
  743MOL0     H  282   9.607   5.981   3.375  0.7379  2.2677 -0.0098
  743MOL0     H  283   9.836   5.865   3.400 -0.2954 -0.9923  0.3347
  743MOL0     H  284   9.861   6.033   3.391  2.0686 -0.8142 -0.3464
  743MOL0     H  285   8.817   5.630   3.436 -1.7870  1.5815  2.2546
  743MOL0     H  286   8.601   5.549   3.336  1.5771 -0.2351 -1.6561
  743MOL0     H  287   8.342   5.187   3.227  0.7179  3.0776 -1.8682
  743MOL0     H  288   8.127   5.135   3.115 -0.5519  4.6070 -3.0791
  743MOL0     H  289   5.935   5.426   2.699  1.5616 -0.5820  0.8537
  743MOL0     H  290   5.692   5.355   2.727  2.3762  1.3525 -0.2798
  743MOL0     H  291   5.450   4.931   2.409  2.0940  0.6143  2.1736
  743MOL0     H  292   5.201   4.859   2.373 -0.8561 -0.6392  2.1533
  743MOL0     H  293   5.029   4.952   2.283  1.5773  1.6122 -1.1237
  743MOL0     H  294   4.967   5.104   2.300 -0.1990 -0.0171 -1.6226
  743MOL0     H  295   4.745   4.995   2.407 -0.1342 -0.6958  0.3433
  743MOL0     H  296   4.828   4.851   2.367 -1.2445  0.7405 -0.4487
  743MOL0     H  297   4.865   4.936   2.127  1.4240  0.5065 -0.2707
  743MOL0     H  298   4.758   5.069   2.163 -0.1886 -0.3777  1.9674
  743MOL0     H  299   4.620   4.905   2.054  1.1526  2.5305  0.1450
  743MOL0     H  300   4.701   4.774   2.141 -0.3998 -0.2933 -1.7515
  743MOL0     H  301   4.419   4.895   2.436  1.0256  0.9751  0.3141
  743MOL0     H  302   5.097   5.148   2.668 -0.5602 -1.1544  0.5981
  743MOL0     H  303   5.403   5.299   2.739 -1.1086  1.0864 -0.1212
  743MOL0     H  304   5.247   5.265   2.814  0.6291  0.3942  0.3549
  743MOL0     H  305   5.386   5.144   2.828  2.4439 -0.9531 -3.4509
  744MOL0     O  306   2.609   1.233   0.206  0.1101 -0.6428 -0.4421
  744MOL0     C  307   2.562   1.332   0.268 -1.4178 -0.0295 -0.1180
  744MOL0     O  308   2.636   1.423   0.338  0.4988 -0.4323 -0.5511
  744MOL0     C  309   2.769   1.426   0.310  0.3970  0.3562  0.3280
  744MOL0     C  310   2.818   1.484   0.199 -0.6061  0.4411  0.7659
  744MOL0     C  311   2.962   1.498   0.172  0.4525  0.6408 -0.7792
  744MOL0     C  312   3.043   1.456   0.276  1.1037  0.1441  0.1746
  744MOL0     O  313   3.179   1.465   0.252 -0.2498  0.2471 -0.3982
  744MOL0     C  314   3.236   1.589   0.214 -0.5564 -0.0668 -0.5170
  744MOL0     C  315   3.387   1.552   0.197 -0.6658  0.2480 -0.3120
  744MOL0     C  316   3.468   1.684   0.174  0.4429  0.1627 -0.2220
  744MOL0     C  317   3.611   1.649   0.132 -0.6661  0.2540 -0.0825
  744MOL0     C  318   3.705   1.773   0.133  0.7706  0.0251  0.1509
  744MOL0     C  319   3.826   1.754   0.049 -1.1137 -0.3762 -0.3001
  744MOL0     C  320   3.925   1.872   0.071 -0.1380 -0.2452 -0.1543
  744MOL0     C  321   4.035   1.874  -0.032  1.1094 -0.2527 -0.3996
  744MOL0     N  322   4.110   2.000  -0.026 -0.0725  0.1346 -1.0835
  744MOL0     C  323   4.245   1.992  -0.029 -0.0835 -0.1196  0.0213
  744MOL0     C  324   4.270   2.122  -0.053  0.6885 -0.0354 -0.6424
  744MOL0     C  325   4.406   2.182  -0.077  0.5126 -0.1833 -0.7859
  744MOL0     C  326   4.417   2.279  -0.190  0.3275  0.3620 -0.5474
  744MOL0     C  327   4.545   2.374  -0.194 -0.6342  0.6653  0.0112
  744MOL0     C  328   4.673   2.285  -0.194  0.4446  0.6046  0.9478
  744MOL0     O  329   4.791   2.374  -0.194 -0.5547  0.2131 -0.1958
  744MOL0     C  330   4.916   2.322  -0.173  0.5117  1.0305  0.1196
  744MOL0     C  331   4.943   2.189  -0.213  0.2114  0.0117  0.2780
  744MOL0     C  332   5.063   2.133  -0.207 -0.6313  0.0796  0.1351
  744MOL0     C  333   5.168   2.215  -0.155  0.2832 -0.0568 -0.2040
  744MOL0     C  334   5.301   2.164  -0.140 -0.4875 -0.4524 -0.0374
  744MOL0     O  335   5.410   2.247  -0.121 -0.7731  0.2506 -0.3270
  744MOL0     C  336   5.539   2.182  -0.103  0.3531  0.1144  0.2192
  744MOL0     C  337   5.613   2.206   0.010  0.5502  0.4653 -0.9356
  744MOL0     C  338   5.739   2.146   0.027  0.7288  0.3925  0.2144
  744MOL0     C  339   5.801   2.080  -0.080  0.0368  0.2476  0.4919
  744MOL0     O  340   5.935   2.039  -0.077  0.2566  0.6333  0.6710
  744MOL0     C  341   5.975   1.999   0.054 -0.8644  0.0503  0.2858
  744MOL0     C  342   6.109   1.921   0.057 -0.4828 -0.9017  0.3627
  744MOL0     C  343   6.214   1.978  -0.043 -1.6170  0.9853  0.4063
  744MOL0     C  344   6.349   2.003   0.020 -0.2921  0.7710 -0.2538
  744MOL0     C  345   6.425   1.879   0.049  0.3847  0.5121  0.4546
  744MOL0     C  346   6.580   1.898   0.050 -0.3491  0.7527 -0.1749
  744MOL0     C  347   6.646   1.756   0.074  1.3081  0.9349  0.4628
  744MOL0     C  348   6.795   1.750   0.110  0.2731 -0.1787 -0.6255
  744MOL0    Cl  349   6.859   1.588   0.148  0.1509  0.3430 -0.0088
  744MOL0     C  350   5.732   2.055  -0.196  0.4843 -0.9459 -0.3964
  744MOL0     C  351   5.600   2.103  -0.204  0.8664 -0.2152  0.9499
  744MOL0     O  352   5.303   2.045  -0.147  0.3355 -0.0187  1.4355
  744MOL0     C  353   5.143   2.348  -0.110  0.4671  0.8486  0.8931
  744MOL0     C  354   5.015   2.401  -0.126 -0.3738 -0.6333  0.0334
  744MOL0     N  355   4.155   2.193  -0.046  0.0532  0.6237 -0.9029
  744MOL0     N  356   4.064   2.119  -0.026 -0.0522  0.3788 -0.2048
  744MOL0     C  357   2.993   1.392   0.388 -0.1149  0.0442  0.1766
  744MOL0     C  358   2.854   1.378   0.403 -0.7154 -0.1576 -1.2652
  744MOL0     C  359   2.419   1.342   0.278  0.3428  0.3348 -0.6050
  744MOL0     C  360   2.362   1.461   0.323  0.1285  0.5849 -0.0722
  744MOL0     C  361   2.226   1.472   0.354  0.2180  0.4962  0.3411
  744MOL0     C  362   2.137   1.371   0.322 -0.2200  0.5620  0.1541
  744MOL0     O  363   2.007   1.369   0.341  0.2254  0.2145 -0.2651
  744MOL0     C  364   1.933   1.483   0.387  0.4966 -0.0376 -0.6321
  744MOL0     C  365   1.912   1.592   0.277 -0.5390 -0.5660  0.1933
  744MOL0     C  366   1.835   1.714   0.313 -0.1540 -0.2902 -0.8771
  744MOL0     C  367   1.896   1.801   0.428  0.0384  0.0631 -0.4168
  744MOL0     C  368   2.039   1.814   0.411 -0.3548 -0.3441  0.0676
  744MOL0     C  369   2.161   1.828   0.397 -0.7458 -0.7056 -0.4860
  744MOL0     C  370   2.189   1.256   0.266  0.2749 -0.3401 -0.5421
  744MOL0     C  371   2.325   1.238   0.242 -0.8529  0.5299  0.7075
  744MOL0     C  372   2.365   1.104   0.173  0.3013 -0.0176  0.3905
  744MOL0     H  373   2.752   1.526   0.124 -0.8540 -1.7627 -0.3516
  744MOL0     H  374   3.005   1.530   0.077  0.3131 -1.3967 -1.5839
  744MOL0     H  375   3.193   1.635   0.125 -1.6921  0.7823  0.4408
  744MOL0     H  376   3.219   1.656   0.299  1.4239 -1.9530  1.5088
  744MOL0     H  377   3.395   1.497   0.103  2.2365 -0.3687  0.1832
  744MOL0     H  378   3.438   1.489   0.271 -2.5122 -0.4317  0.4281
  744MOL0     H  379   3.457   1.745   0.264  4.6399  0.8824 -0.0050
  744MOL0     H  380   3.417   1.739   0.094  2.6778 -1.7755 -3.2278
  744MOL0     H  381   3.647   1.572   0.201  0.8965  1.5605  0.6290
  744MOL0     H  382   3.598   1.608   0.032  1.9826 -1.2907  0.1169
  744MOL0     H  383   3.643   1.853   0.092  1.8529  0.2372 -1.1454
  744MOL0     H  384   3.730   1.807   0.234 -0.2700  3.4561 -0.5987
  744MOL0     H  385   3.867   1.660   0.086  0.0727 -0.2670 -1.2786
  744MOL0     H  386   3.809   1.736  -0.058  2.8103 -3.2799 -0.6731
  744MOL0     H  387   3.970   1.872   0.171 -0.4692 -2.7675  0.0622
  744MOL0     H  388   3.862   1.958   0.050 -0.2072  0.1302  1.4404
  744MOL0     H  389   4.108   1.793  -0.024  1.9154  0.6014  1.4677
  744MOL0     H  390   3.974   1.871  -0.122 -0.2095  2.2146  0.3069
  744MOL0     H  391   4.312   1.907  -0.026  0.2824  0.0827 -1.4339
  744MOL0     H  392   4.443   2.220   0.019  1.7814 -1.9771 -0.5091
  744MOL0     H  393   4.472   2.098  -0.101  0.0159 -1.4060  1.7786
  744MOL0     H  394   4.412   2.224  -0.284 -0.5438  0.0332 -0.3176
  744MOL0     H  395   4.321   2.332  -0.195 -1.7048 -3.0232 -1.2135
  744MOL0     H  396   4.557   2.429  -0.100  3.5111  0.8283 -0.4268
  744MOL0     H  397   4.542   2.442  -0.280 -0.2052  0.9342  0.2072
  744MOL0     H  398   4.670   2.218  -0.280  1.9911 -1.5490  2.4550
  744MOL0     H  399   4.670   2.219  -0.107 -2.0556 -3.0854 -1.6451
  744MOL0     H  400   4.870   2.115  -0.245  2.5867 -3.1686  1.7055
  744MOL0     H  401   5.087   2.032  -0.238  2.7569  0.4199  1.2217
  744MOL0     H  402   5.570   2.276   0.082 -1.1976 -2.0504  0.6382
  744MOL0     H  403   5.796   2.158   0.119  2.8346 -1.8946 -0.6661
  744MOL0     H  404   5.998   2.086   0.117 -1.9649  0.3596  0.2727
  744MOL0     H  405   5.903   1.941   0.111  1.8825 -3.1361  0.8524
  744MOL0     H  406   6.147   1.936   0.158  1.5187 -4.6673  0.3091
  744MOL0     H  407   6.094   1.814   0.041  0.3956 -0.8583 -0.9105
  744MOL0     H  408   6.210   1.921  -0.136 -0.7105 -0.0542  0.9769
  744MOL0     H  409   6.185   2.077  -0.079 -1.9042  1.7808  2.6724
  744MOL0     H  410   6.346   2.065   0.110  1.7661  1.4041 -0.5577
  744MOL0     H  411   6.403   2.066  -0.052 -0.4134 -0.9940 -1.9506
  744MOL0     H  412   6.395   1.798  -0.019 -1.9386  0.1433  1.8088
  744MOL0     H  413   6.388   1.847   0.147 -1.4826  1.7846  0.2203
  744MOL0     H  414   6.605   1.933  -0.051  0.4315  0.9495  0.0856
  744MOL0     H  415   6.605   1.970   0.128 -1.3716 -2.2872  3.2054
  744MOL0     H  416   6.632   1.698  -0.017  0.7615 -3.5334  3.1186
  744MOL0     H  417   6.588   1.708   0.153  2.4330  0.8443  1.2502
  744MOL0     H  418   6.853   1.789   0.025  1.6425  0.4562  0.5682
  744MOL0     H  419   6.807   1.810   0.200  1.8461  1.2867 -1.7317
  744MOL0     H  420   5.779   1.997  -0.275  2.9514  1.8634 -1.1756
  744MOL0     H  421   5.531   2.072  -0.281 -2.9557  1.6104  3.2857
  744MOL0     H  422   5.224   2.405  -0.067 -1.9389  3.8088  1.8421
  744MOL0     H  423   4.983   2.504  -0.111 -0.3619 -0.6592  0.2348
  744MOL0     H  424   3.060   1.343   0.457  1.7538  0.6697 -1.1119
  744MOL0     H  425   2.802   1.337   0.490  0.1724  1.1935 -0.0510
  744MOL0     H  426   2.417   1.551   0.348 -2.7044  2.0358  1.3637
  744MOL0     H  427   2.191   1.560   0.406 -2.8872  0.1403 -0.9011
  744MOL0     H  428   1.986   1.526   0.472  2.7216 -2.6320 -0.5681
  744MOL0     H  429   1.833   1.449   0.415 -0.5377  2.7099 -0.6140
  744MOL0     H  430   1.857   1.544   0.196  0.3838  0.9011 -1.3855
  744MOL0     H  431   2.001   1.623   0.222 -2.6865  1.3883 -2.4669
  744MOL0     H  432   1.744   1.658   0.338  0.3464 -1.2302 -1.1266
  744MOL0     H  433   1.812   1.780   0.228 -3.3310  2.6148  1.9332
  744MOL0     H  434   1.843   1.896   0.437  1.4395  0.8443 -0.2794
  744MOL0     H  435   1.874   1.748   0.521  2.6771 -1.2315 -0.4360
  744MOL0     H  436   2.263   1.856   0.385 -0.0215 -0.7773  3.8985
  744MOL0     H  437   2.117   1.179   0.239  1.4421 -1.5237 -0.3866
  744MOL0     H  438   2.445   1.054   0.229 -1.7254 -1.4745  2.1180
  744MOL0     H  439   2.281   1.036   0.189 -1.3565  2.0149  0.5980
  744MOL0     H  440   2.383   1.113   0.065 -1.1706 -0.1795  0.1183
  745MOL0     O  441   4.548  10.629   4.910  0.0591  0.4756 -0.3371
  745MOL0     C  442   4.436  10.625   4.944  0.1972 -0.7751 -1.3559
  745MOL0     O  443   4.386  10.533   5.031  0.1267 -0.6025  0.2209
  745MOL0     C  444   4.475  10.457   5.106  0.0808 -0.5650 -0.3458
  745MOL0     C  445   4.523  10.510   5.226 -0.5132 -0.7130  0.1862
  745MOL0     C  446   4.632  10.441   5.287  0.1019 -0.1936 -0.0458
  745MOL0     C  447   4.675  10.317   5.245 -0.2871  0.8065  0.1154
  745MOL0     O  448   4.764  10.252   5.325  0.5687  0.4488 -0.4941
  745MOL0     C  449   4.805  10.113   5.309 -1.0671  0.2531 -0.7547
  745MOL0     C  450   4.942  10.102   5.378 -0.7343 -0.0769  0.1589
  745MOL0     C  451   5.060  10.161   5.293 -0.2733  0.0482  0.1521
  745MOL0     C  452   5.185  10.101   5.335  0.1967  0.9893 -0.0725
  745MOL0     C  453   5.301  10.164   5.252 -0.3226 -0.4708  0.1198
  745MOL0     C  454   5.434  10.140   5.321  0.3284  0.2001  0.1609
  745MOL0     C  455   5.547  10.190   5.244  0.2728 -0.8663  0.5780
  745MOL0     C  456   5.665  10.160   5.332 -0.0377 -0.8698 -0.5027
  745MOL0     N  457   5.786  10.229   5.279  0.3652  0.6713  0.2160
  745MOL0     C  458   5.788  10.363   5.261  0.6451 -0.1885 -0.5791
  745MOL0     C  459   5.912  10.378   5.212 -0.0771 -0.6835  0.7986
  745MOL0     C  460   5.973  10.512   5.188 -0.7232 -0.3425 -0.2399
  745MOL0     C  461   6.080  10.536   5.290  0.6145  0.2490 -0.5125
  745MOL0     C  462   6.124  10.690   5.295 -0.5561  0.1952 -0.7857
  745MOL0     C  463   6.230  10.719   5.181  0.0259  0.3240  0.4509
  745MOL0     O  464   6.316  10.820   5.239  0.1834 -0.4286 -0.4577
  745MOL0     C  465   6.442  10.828   5.178  0.2825  0.2281  0.2727
  745MOL0     C  466   6.477  10.775   5.051 -0.1839 -0.0065 -0.3940
  745MOL0     C  467   6.610  10.783   4.999  0.3000  0.1090 -0.2260
  745MOL0     C  468   6.708  10.830   5.084 -0.1845 -0.6319  0.3135
  745MOL0     C  469   6.852  10.816   5.047  0.8474 -0.1718 -0.4595
  745MOL0     O  470   6.936  10.926   5.040 -0.0889 -0.1018  0.0273
  745MOL0     C  471   7.068  10.914   4.995  0.2830  0.3352 -0.4849
  745MOL0     C  472   7.105  10.828   4.894  1.2619  0.0740 -0.5503
  745MOL0     C  473   7.233  10.814   4.851 -0.5871 -0.8812  0.4139
  745MOL0     C  474   7.335  10.892   4.910  0.4030  0.2691 -0.5998
  745MOL0     O  475   7.457  10.867   4.852  0.1055  0.3013  0.1107
  745MOL0     C  476   7.562  10.962   4.859 -0.2798 -0.5820  1.0347
  745MOL0     C  477   7.655  10.964   4.981  0.5744  0.0587 -0.3615
  745MOL0     C  478   7.772  11.056   4.974  0.3852  0.2280 -1.3112
  745MOL0     C  479   7.879  11.023   5.082  0.8626  0.6906 -0.2102
  745MOL0     C  480   7.988  10.919   5.052 -0.0061  0.5367  0.1021
  745MOL0     C  481   8.091  10.894   5.166 -0.0521  0.0818  0.2814
  745MOL0     C  482   8.205  10.810   5.112 -0.1761 -1.2038 -0.0247
  745MOL0     C  483   8.166  10.669   5.084 -0.3906  0.3090 -0.3422
  745MOL0    Cl  484   8.319  10.565   5.063 -0.0792 -0.4385  0.1739
  745MOL0     C  485   7.302  10.988   5.004 -0.0248  0.9100 -0.4849
  745MOL0     C  486   7.168  11.004   5.044 -0.0988  0.0446 -0.3202
  745MOL0     O  487   6.894  10.701   5.053 -0.5963 -0.2065  0.7181
  745MOL0     C  488   6.670  10.900   5.209 -0.8950  1.1419  0.3249
  745MOL0     C  489   6.537  10.893   5.257 -0.0230  0.0433  0.3324
  745MOL0     N  490   5.978  10.263   5.182 -0.3312 -0.0819 -0.0189
  745MOL0     N  491   5.899  10.166   5.231  0.0641  0.0658 -0.9555
  745MOL0     C  492   4.624  10.261   5.130  0.1410  0.5222  0.1642
  745MOL0     C  493   4.517  10.328   5.068  0.3350  0.2895 -0.6140
  745MOL0     C  494   4.341  10.736   4.907  0.0456  0.6557 -0.1877
  745MOL0     C  495   4.228  10.756   4.988 -1.0880  0.1211  1.1044
  745MOL0     C  496   4.135  10.851   4.955 -0.4497 -0.4573  0.2197
  745MOL0     C  497   4.151  10.942   4.851 -0.1377  0.3185 -1.2143
  745MOL0     O  498   4.065  11.046   4.827 -0.5605  0.3665 -0.4803
  745MOL0     C  499   3.980  11.025   4.714 -1.3042 -0.4992 -0.1986
  745MOL0     C  500   3.860  10.933   4.726  0.0637 -0.1589 -0.4523
  745MOL0     C  501   3.754  10.993   4.825 -0.4952  0.1838 -0.0357
  745MOL0     C  502   3.641  11.075   4.760  0.0985 -0.1145  0.1886
  745MOL0     C  503   3.687  11.194   4.686 -0.2636 -0.5781 -0.2044
  745MOL0     C  504   3.720  11.305   4.640  0.8163 -0.5583  0.2751
  745MOL0     C  505   4.267  10.919   4.772  1.0416 -0.3504  0.3259
  745MOL0     C  506   4.356  10.814   4.798  0.8311 -0.2108  1.6831
  745MOL0     C  507   4.479  10.813   4.708 -0.6547 -0.4930  0.2993
  745MOL0     H  508   4.471  10.602   5.251 -1.0258 -0.9776  0.1021
  745MOL0     H  509   4.677  10.480   5.378  1.6716 -3.0459  0.5234
  745MOL0     H  510   4.736  10.036   5.345  2.7925 -3.3753 -0.3795
  745MOL0     H  511   4.828  10.100   5.203  1.3327 -2.4017 -0.0002
  745MOL0     H  512   4.950   9.994   5.388 -2.0404 -0.3265 -1.1621
  745MOL0     H  513   4.941  10.153   5.475  3.1714  0.8904 -0.1372
  745MOL0     H  514   5.076  10.268   5.306  1.2467 -0.0297 -0.7873
  745MOL0     H  515   5.042  10.134   5.188 -1.2155  0.4463  0.2056
  745MOL0     H  516   5.205  10.118   5.441  1.9663 -1.4174  0.0893
  745MOL0     H  517   5.178   9.992   5.325  0.2404  0.7333  2.2084
  745MOL0     H  518   5.306  10.126   5.150  0.7758  2.6098 -1.1043
  745MOL0     H  519   5.277  10.269   5.232  0.0366 -0.5835 -1.0065
  745MOL0     H  520   5.431  10.186   5.420 -1.3198 -0.2963  0.3751
  745MOL0     H  521   5.442  10.032   5.338 -1.0933  0.1159  0.4152
  745MOL0     H  522   5.544  10.298   5.225 -1.9560 -0.9505  0.2290
  745MOL0     H  523   5.551  10.134   5.151  1.4631  0.1224 -0.0119
  745MOL0     H  524   5.652  10.205   5.431  0.2182  1.2926 -1.3850
  745MOL0     H  525   5.669  10.052   5.350 -1.5324 -1.2266 -2.0441
  745MOL0     H  526   5.713  10.441   5.269  0.3104 -0.0643 -3.5711
  745MOL0     H  527   6.008  10.526   5.085 -0.1605  2.6937  0.2604
  745MOL0     H  528   5.909  10.599   5.203  2.3205  1.9824  0.2551
  745MOL0     H  529   6.038  10.521   5.390 -0.5782  2.1591 -0.6644
  745MOL0     H  530   6.164  10.469   5.274 -0.9654 -1.3177 -3.1336
  745MOL0     H  531   6.193  10.696   5.380 -0.7301  1.3452 -0.7137
  745MOL0     H  532   6.039  10.757   5.309 -0.4405  0.6277 -1.9958
  745MOL0     H  533   6.179  10.753   5.090 -0.9178 -0.8629  0.5206
  745MOL0     H  534   6.290  10.629   5.164 -0.2725 -0.0273  1.2064
  745MOL0     H  535   6.408  10.728   4.983  0.5162  0.5513 -1.5217
  745MOL0     H  536   6.634  10.754   4.898  2.4952 -1.0501  0.5379
  745MOL0     H  537   7.035  10.761   4.846 -0.8804  1.6082  0.2642
  745MOL0     H  538   7.265  10.735   4.783 -1.5431  0.1494 -1.3088
  745MOL0     H  539   7.628  10.941   4.774 -0.1673  4.0941 -0.3472
  745MOL0     H  540   7.524  11.064   4.845 -2.3095 -1.4007  0.3167
  745MOL0     H  541   7.601  10.999   5.070  0.5581 -1.8453  0.4253
  745MOL0     H  542   7.683  10.861   5.006 -0.4421 -0.5993 -1.7875
  745MOL0     H  543   7.816  11.062   4.874 -0.7018  1.7022 -1.7346
  745MOL0     H  544   7.736  11.158   4.993  3.1198  1.8906 -4.1697
  745MOL0     H  545   7.829  10.990   5.173  0.4798  1.8267  0.0048
  745MOL0     H  546   7.933  11.117   5.095 -3.0392  2.9875  0.8889
  745MOL0     H  547   8.037  10.950   4.960  2.0880  3.8591  2.1110
  745MOL0     H  548   7.943  10.826   5.018 -0.9894  1.2205 -0.5206
  745MOL0     H  549   8.135  10.991   5.188  0.1662 -0.1562  0.8987
  745MOL0     H  550   8.056  10.842   5.256  0.4347  0.3897  0.6489
  745MOL0     H  551   8.283  10.822   5.187  0.8665  1.0742 -1.3700
  745MOL0     H  552   8.241  10.856   5.019 -0.5842 -1.8726 -0.5250
  745MOL0     H  553   8.112  10.628   5.170  1.3332 -0.4559  0.4306
  745MOL0     H  554   8.117  10.653   4.988  0.9079 -1.1684 -0.8046
  745MOL0     H  555   7.383  11.038   5.056 -1.0555  2.9741 -0.7605
  745MOL0     H  556   7.133  11.059   5.131  1.3212 -0.7914  0.8440
  745MOL0     H  557   6.750  10.956   5.256  2.5783 -0.6274 -2.8997
  745MOL0     H  558   6.514  10.946   5.349 -0.9753 -1.8017  1.2217
  745MOL0     H  559   4.667  10.165   5.100  2.9513  2.1146 -1.3193
  745MOL0     H  560   4.490  10.299   4.967  0.9717 -0.4783 -0.5742
  745MOL0     H  561   4.211  10.686   5.069 -3.1899  1.0386  1.4968
  745MOL0     H  562   4.045  10.855   5.016 -1.2326 -1.7023 -0.8065
  745MOL0     H  563   4.031  10.999   4.622 -1.8211  2.2343 -1.3565
  745MOL0     H  564   3.946  11.127   4.695  3.4188  1.1184 -1.3102
  745MOL0     H  565   3.882  10.835   4.769  1.8647  0.5967  0.4639
  745MOL0     H  566   3.824  10.917   4.624 -0.5322 -0.7612 -0.1563
  745MOL0     H  567   3.801  11.044   4.910 -0.4762 -1.7032  1.1180
  745MOL0     H  568   3.702  10.906   4.864  3.4829 -2.4156  0.0185
  745MOL0     H  569   3.585  11.013   4.689  2.6960 -3.9269  1.1422
  745MOL0     H  570   3.561  11.102   4.829 -0.6204  2.1560 -1.4071
  745MOL0     H  571   3.746  11.401   4.601  3.2437 -0.8747  0.8991
  745MOL0     H  572   4.283  10.985   4.687 -2.9961 -1.6060 -1.6449
  745MOL0     H  573   4.490  10.712   4.668 -0.3081  0.3437 -1.8440
  745MOL0     H  574   4.459  10.875   4.620  1.9108  1.7647  1.1772
  745MOL0     H  575   4.577  10.841   4.748  2.1164 -2.6402 -4.1073
  746MOL0     O  576   9.224   1.065   1.994  0.9551 -0.5482  0.3370
  746MOL0     C  577   9.160   1.091   2.095 -0.8525  0.6528  0.0626
  746MOL0     O  578   9.186   1.047   2.219  0.0106 -0.1006  0.4578
  746MOL0     C  579   9.278   0.944   2.212  0.6633  0.4332 -0.3458
  746MOL0     C  580   9.234   0.813   2.182 -0.0395 -0.1631 -0.5713
  746MOL0     C  581   9.319   0.700   2.193 -0.4045 -0.3488  0.5685
  746MOL0     C  582   9.451   0.723   2.229 -0.0531 -0.0066  0.4340
  746MOL0     O  583   9.545   0.618   2.248  0.7350  0.1997  0.8541
  746MOL0     C  584   9.499   0.487   2.223 -0.4302  0.3089 -0.1663
  746MOL0     C  585   9.622   0.392   2.243  0.4704 -0.1958 -0.6952
  746MOL0     C  586   9.758   0.451   2.187  0.2272  0.5098 -0.4137
  746MOL0     C  587   9.859   0.486   2.293 -0.7656  0.0473  0.4005
  746MOL0     C  588   9.990   0.548   2.231 -0.4902 -0.4075  0.0834
  746MOL0     C  589  10.083   0.581   2.341 -0.4512 -0.1966 -0.6350
  746MOL0     C  590  10.209   0.652   2.284 -0.5456 -0.6265  0.2215
  746MOL0     C  591  10.313   0.566   2.201 -0.1698  0.2988 -0.6365
  746MOL0     N  592  10.424   0.521   2.292  0.3917  0.3098  0.0707
  746MOL0     C  593  10.413   0.415   2.374  0.0727 -0.0199  0.3811
  746MOL0     C  594  10.523   0.422   2.455  0.1351 -0.3219 -0.5284
  746MOL0     C  595  10.548   0.319   2.565 -1.2520 -0.4590  0.5504
  746MOL0     C  596  10.693   0.264   2.543 -0.1452  0.4879  0.0480
  746MOL0     C  597  10.802   0.364   2.593 -0.7786  0.3006  0.3369
  746MOL0     C  598  10.940   0.307   2.603 -0.1434 -0.2172  0.5626
  746MOL0     O  599  10.993   0.269   2.479  0.4004  0.0175  0.1458
  746MOL0     C  600  11.119   0.234   2.469  0.2867  0.7688 -0.0858
  746MOL0     C  601  11.194   0.211   2.578 -0.6410 -1.2068  0.7231
  746MOL0     C  602  11.328   0.175   2.560 -0.7887  0.6059  0.1515
  746MOL0     C  603  11.383   0.163   2.429  0.3404  0.8002 -0.4370
  746MOL0     C  604  11.531   0.132   2.417  0.2184  0.1361  0.0874
  746MOL0     O  605  11.617   0.115   2.532 -0.0880  0.4342 -0.5043
  746MOL0     C  606  11.757   0.109   2.515  0.9796  0.2607 -0.1287
  746MOL0     C  607  11.838   0.073   2.408  0.3351  0.0294  0.0274
  746MOL0     C  608  11.974   0.047   2.423  0.3326 -0.1146 -0.2533
  746MOL0     C  609  12.032   0.068   2.547 -0.2867  1.1318 -0.6965
  746MOL0     O  610  12.167   0.056   2.538  0.0607 -0.0516 -0.2259
  746MOL0     C  611  12.225   0.014   2.669  0.2085  1.0389 -0.1399
  746MOL0     C  612  12.372   0.051   2.678 -0.3339 -0.2408 -0.8553
  746MOL0     C  613  12.448  -0.024   2.797 -0.3417  0.1761 -0.2081
  746MOL0     C  614  12.583   0.033   2.839 -0.6268  0.0937 -0.1830
  746MOL0     C  615  12.674  -0.068   2.923  0.3388 -0.4953 -0.2109
  746MOL0     C  616  12.767   0.015   3.000  0.2591 -0.8934  0.0757
  746MOL0     C  617  12.891  -0.071   3.030  0.0075  0.0655 -0.1118
  746MOL0     C  618  12.952  -0.012   3.155 -0.7192 -0.5950  1.2162
  746MOL0    Cl  619  13.010   0.165   3.103  0.3947  0.0590 -0.6765
  746MOL0     C  620  11.951   0.145   2.640 -0.1317  0.1772 -0.3080
  746MOL0     C  621  11.820   0.153   2.630  0.5318  0.6244 -0.2514
  746MOL0     O  622  11.567   0.129   2.298 -0.0961  1.0318 -0.1035
  746MOL0     C  623  11.306   0.184   2.321 -0.5318  0.7571 -0.2615
  746MOL0     C  624  11.170   0.204   2.340  0.5960 -0.8933  0.1357
  746MOL0     N  625  10.600   0.528   2.414  1.2515 -0.0817 -0.0391
  746MOL0     N  626  10.549   0.578   2.313 -0.1616 -0.0357 -0.0477
  746MOL0     C  627   9.500   0.857   2.239  0.5793  0.1497  0.5912
  746MOL0     C  628   9.410   0.965   2.232 -0.9333  0.2425  0.4776
  746MOL0     C  629   9.050   1.179   2.087 -1.0193  0.2161 -0.0299
  746MOL0     C  630   8.921   1.128   2.119 -0.2429 -1.0006 -0.4477
  746MOL0     C  631   8.809   1.212   2.123  0.0634  0.3182  0.1470
  746MOL0     C  632   8.809   1.337   2.072  1.5223 -0.2169 -1.0661
  746MOL0     O  633   8.696   1.416   2.084 -0.9781  0.0669  0.2240
  746MOL0     C  634   8.590   1.382   2.173  0.4603 -0.1362  0.9350
  746MOL0     C  635   8.627   1.392   2.325  0.0104  0.2464  0.5828
  746MOL0     C  636   8.707   1.512   2.370  1.2067  0.3305 -0.3537
  746MOL0     C  637   8.816   1.486   2.485  0.0657  0.1355 -0.4075
  746MOL0     C  638   8.924   1.401   2.428  0.0482  0.0320  0.1041
  746MOL0     C  639   9.011   1.322   2.408 -0.5759  0.2822 -0.2191
  746MOL0     C  640   8.929   1.386   2.023  1.0465  0.2465 -0.2114
  746MOL0     C  641   9.047   1.313   2.028 -0.1261  0.0888 -0.5016
  746MOL0     C  642   9.174   1.373   1.987  0.5572  0.4117 -0.6921
  746MOL0     H  643   9.131   0.787   2.157 -0.6164  1.4674  0.0149
  746MOL0     H  644   9.269   0.607   2.168 -2.0029  0.4215  0.7830
  746MOL0     H  645   9.423   0.458   2.296  0.8179 -0.4898  0.8873
  746MOL0     H  646   9.461   0.475   2.122  2.2359  0.6135 -1.3003
  746MOL0     H  647   9.598   0.288   2.222 -1.6547 -0.5534  2.7052
  746MOL0     H  648   9.624   0.373   2.351  1.2849 -1.2119 -0.8761
  746MOL0     H  649   9.753   0.535   2.117  1.5443  1.1611  0.2541
  746MOL0     H  650   9.804   0.362   2.143 -2.2021 -1.8102  1.4064
  746MOL0     H  651   9.820   0.558   2.366  1.6515  1.0904  0.7652
  746MOL0     H  652   9.890   0.399   2.353 -0.9898 -1.8303 -2.0429
  746MOL0     H  653  10.041   0.475   2.168 -0.8296 -0.5769  0.0043
  746MOL0     H  654   9.982   0.637   2.168  1.9243  1.2298  1.8898
  746MOL0     H  655  10.038   0.647   2.417  1.0002 -0.7401  0.7595
  746MOL0     H  656  10.101   0.495   2.407  0.3949  0.7567  0.4272
  746MOL0     H  657  10.270   0.696   2.364  1.7943 -1.8789 -0.7716
  746MOL0     H  658  10.170   0.728   2.216  0.2848  0.4272  0.8864
  746MOL0     H  659  10.273   0.484   2.142 -0.7267 -0.3062  0.5617
  746MOL0     H  660  10.346   0.642   2.129  0.4631 -0.2407 -0.9305
  746MOL0     H  661  10.342   0.333   2.374 -0.6164  0.5651  1.2880
  746MOL0     H  662  10.520   0.355   2.664  0.8213  1.3275  0.5595
  746MOL0     H  663  10.480   0.236   2.542 -0.0374 -1.2773 -0.1890
  746MOL0     H  664  10.707   0.167   2.591 -0.0665  1.7069  2.6115
  746MOL0     H  665  10.713   0.246   2.437 -0.5547  4.0866 -0.7644
  746MOL0     H  666  10.780   0.385   2.698 -0.2600 -1.2517  0.7823
  746MOL0     H  667  10.815   0.453   2.531  1.9931 -0.2600 -0.0254
  746MOL0     H  668  10.919   0.221   2.667 -0.1603 -0.3887  0.3309
  746MOL0     H  669  11.001   0.373   2.664 -1.5389  1.3382  0.3464
  746MOL0     H  670  11.163   0.220   2.682 -1.0991 -2.0781  0.6725
  746MOL0     H  671  11.382   0.159   2.653 -2.0878  0.9135  0.9861
  746MOL0     H  672  11.806   0.030   2.314  0.6241 -0.7188  0.2642
  746MOL0     H  673  12.031   0.012   2.338  0.2290 -0.6123 -0.1177
  746MOL0     H  674  12.186   0.059   2.760 -1.0935 -0.1756 -0.0669
  746MOL0     H  675  12.213  -0.094   2.677 -1.2633  1.3303  2.7958
  746MOL0     H  676  12.417   0.011   2.586 -1.1696 -4.1489  0.2951
  746MOL0     H  677  12.398   0.157   2.691  1.6173 -1.0578  3.7733
  746MOL0     H  678  12.398  -0.031   2.894  1.0922  2.5582  0.7767
  746MOL0     H  679  12.472  -0.125   2.763  1.3091 -0.4084  2.4165
  746MOL0     H  680  12.569   0.130   2.887 -1.0266  0.4104 -0.9289
  746MOL0     H  681  12.637   0.047   2.745 -0.8579  1.3532 -0.1450
  746MOL0     H  682  12.726  -0.132   2.852 -0.6498  1.0921 -2.5110
  746MOL0     H  683  12.610  -0.113   2.999  1.5670 -1.0411  0.5250
  746MOL0     H  684  12.800   0.102   2.942  0.2076  0.8095  2.4711
  746MOL0     H  685  12.716   0.053   3.089 -2.7392 -1.0087 -1.4642
  746MOL0     H  686  12.962  -0.062   2.947 -2.5795 -0.5108 -2.5794
  746MOL0     H  687  12.866  -0.177   3.041 -1.2418  0.1051 -2.0135
  746MOL0     H  688  12.876  -0.006   3.234 -1.8671  1.5374  0.0317
  746MOL0     H  689  13.038  -0.072   3.186 -0.7960 -0.7454  1.1406
  746MOL0     H  690  11.994   0.190   2.729  0.2522  0.3857 -0.5912
  746MOL0     H  691  11.759   0.208   2.701 -1.8979  0.6219 -2.1896
  746MOL0     H  692  11.344   0.194   2.220  2.0784  1.4911  0.7278
  746MOL0     H  693  11.116   0.231   2.250 -0.4516 -0.4349  0.8819
  746MOL0     H  694   9.602   0.870   2.273  0.8570 -1.4121  0.4354
  746MOL0     H  695   9.432   1.062   2.275 -2.7028 -0.8027  4.2263
  746MOL0     H  696   8.915   1.024   2.150  0.8335 -0.7848  0.5890
  746MOL0     H  697   8.713   1.172   2.152  1.3676 -1.4048  2.3933
  746MOL0     H  698   8.539   1.286   2.158 -0.1269  0.1805  0.8905
  746MOL0     H  699   8.514   1.460   2.170  1.3668  0.7394 -0.4203
  746MOL0     H  700   8.681   1.299   2.342 -0.3040 -0.0193  0.1265
  746MOL0     H  701   8.533   1.387   2.381  1.0071 -2.2020  2.2028
  746MOL0     H  702   8.637   1.570   2.431 -1.5203 -1.9740 -1.0719
  746MOL0     H  703   8.757   1.560   2.285  1.7808 -0.0875 -0.2602
  746MOL0     H  704   8.860   1.580   2.519 -1.5528  0.9465 -0.4754
  746MOL0     H  705   8.781   1.437   2.576  0.1375 -0.7075 -0.8224
  746MOL0     H  706   9.090   1.250   2.396 -1.2818 -0.9198  1.8487
  746MOL0     H  707   8.935   1.485   1.978  0.1008 -0.5635 -2.2610
  746MOL0     H  708   9.264   1.312   1.995  0.1215 -0.1058  0.5762
  746MOL0     H  709   9.163   1.422   1.890 -4.8850 -0.2342 -0.7218
  746MOL0     H  710   9.189   1.458   2.054 -6.9552  0.6548  1.5563
  747MOL0     O  711   1.494   4.863   6.047  1.0553  0.4106  0.0207
  747MOL0     C  712   1.390   4.921   6.017 -0.6721 -0.4082 -0.4810
  747MOL0     O  713   1.385   5.012   5.917  0.4905  0.1541  0.0884
  747MOL0     C  714   1.496   5.044   5.842  0.4610 -0.2720  0.8461
  747MOL0     C  715   1.621   5.087   5.887 -0.0472  0.7394 -0.9033
  747MOL0     C  716   1.716   5.137   5.805 -0.0257 -0.0985 -1.0302
  747MOL0     C  717   1.699   5.140   5.668  0.3200 -0.2910 -0.6916
  747MOL0     O  718   1.771   5.211   5.580 -0.4023 -0.6912 -0.2840
  747MOL0     C  719   1.775   5.351   5.597 -0.7410 -0.1600  0.3009
  747MOL0     C  720   1.892   5.407   5.516  0.8650 -0.4682 -0.1609
  747MOL0     C  721   1.853   5.394   5.367 -0.0872 -0.6133  0.4882
  747MOL0     C  722   1.930   5.463   5.256 -0.7737  0.1223 -0.0909
  747MOL0     C  723   2.077   5.438   5.259  0.3204 -0.8647 -0.3410
  747MOL0     C  724   2.144   5.539   5.165 -0.2101 -0.2667  0.4171
  747MOL0     C  725   2.281   5.499   5.126 -1.3306  0.4664 -0.4774
  747MOL0     C  726   2.381   5.515   5.244  0.7399 -0.0626 -0.2612
  747MOL0     N  727   2.369   5.649   5.311 -0.2402 -0.2907 -0.7317
  747MOL0     C  728   2.466   5.755   5.286 -0.3450  0.2624  0.5788
  747MOL0     C  729   2.439   5.850   5.380  0.6559 -0.4829 -0.5906
  747MOL0     C  730   2.509   5.981   5.397 -0.1068  0.2445  0.5193
  747MOL0     C  731   2.538   6.007   5.549 -0.1121  0.2550 -0.3504
  747MOL0     C  732   2.631   6.131   5.575 -0.1915  0.4092  0.0091
  747MOL0     C  733   2.772   6.078   5.604  0.8130 -0.9184  0.6804
  747MOL0     O  734   2.835   6.197   5.652 -0.1441  0.5762  0.2673
  747MOL0     C  735   2.968   6.216   5.628 -0.4826  0.3630  0.1415
  747MOL0     C  736   3.062   6.111   5.604  0.8688 -0.2117  0.3217
  747MOL0     C  737   3.199   6.134   5.600 -0.1297  0.3033  0.8709
  747MOL0     C  738   3.248   6.261   5.619 -0.0049 -0.2123 -0.2186
  747MOL0     C  739   3.395   6.293   5.597  0.0272  0.0038 -0.4794
  747MOL0     O  740   3.476   6.190   5.570  0.7104  0.3641  0.5330
  747MOL0     C  741   3.603   6.232   5.549  0.2313  0.7168 -0.1307
  747MOL0     C  742   3.696   6.198   5.647 -0.5708 -0.0766 -0.4535
  747MOL0     C  743   3.833   6.248   5.639  0.1873  0.6584  0.3168
  747MOL0     C  744   3.871   6.324   5.526 -0.4462  1.1976  0.0222
  747MOL0     O  745   4.002   6.355   5.533  0.1307  0.1688 -0.0365
  747MOL0     C  746   4.067   6.327   5.421  0.1877 -0.2719  0.5009
  747MOL0     C  747   4.211   6.360   5.450 -0.3161  0.5169 -0.0368
  747MOL0     C  748   4.303   6.361   5.329  0.8030 -0.0523  0.4890
  747MOL0     C  749   4.448   6.376   5.364  0.4188  0.3026  0.6461
  747MOL0     C  750   4.509   6.233   5.387 -0.6320 -0.3716 -0.2211
  747MOL0     C  751   4.662   6.243   5.404 -0.1480  0.3074  0.3685
  747MOL0     C  752   4.725   6.114   5.453 -0.2575 -0.3167 -1.1180
  747MOL0     C  753   4.709   5.996   5.361  0.0896 -0.4339 -0.2496
  747MOL0    Cl  754   4.806   6.020   5.222  0.0558  0.2152 -0.1987
  747MOL0     C  755   3.776   6.349   5.423  0.0607 -0.8804 -0.4202
  747MOL0     C  756   3.648   6.291   5.430  0.3372 -0.1112  0.2577
  747MOL0     O  757   3.427   6.407   5.610 -0.0575 -0.2128 -0.6305
  747MOL0     C  758   3.154   6.360   5.655 -0.9769 -0.8018  0.4004
  747MOL0     C  759   3.018   6.341   5.655  0.4728 -0.0577 -0.0430
  747MOL0     N  760   2.327   5.818   5.449  0.1069  0.0870  0.3569
  747MOL0     N  761   2.287   5.696   5.415 -0.8516 -0.0686 -0.1696
  747MOL0     C  762   1.587   5.082   5.614 -0.8166  0.1718 -0.0359
  747MOL0     C  763   1.488   5.034   5.705  0.0912 -0.4998  0.3459
  747MOL0     C  764   1.269   4.897   6.104 -0.1482 -0.1986 -0.0479
  747MOL0     C  765   1.153   4.965   6.062  0.2059  0.4568 -0.7243
  747MOL0     C  766   1.035   4.946   6.139  0.1672 -0.1608 -0.6761
  747MOL0     C  767   1.026   4.869   6.259  0.3628 -0.2405  0.4158
  747MOL0     O  768   0.913   4.843   6.329  0.4882  0.0816 -0.0571
  747MOL0     C  769   0.784   4.855   6.261 -0.2820  0.0663 -1.3631
  747MOL0     C  770   0.685   4.758   6.334 -0.6570  0.3477  0.1842
  747MOL0     C  771   0.551   4.755   6.266 -0.7092  0.2800  0.7074
  747MOL0     C  772   0.452   4.680   6.354 -0.2970  0.3739 -0.2989
  747MOL0     C  773   0.504   4.534   6.363 -0.0615  0.8162  1.0288
  747MOL0     C  774   0.542   4.416   6.363  0.0564  0.1720  0.2985
  747MOL0     C  775   1.144   4.813   6.309  0.0332  0.1524 -0.6422
  747MOL0     C  776   1.263   4.824   6.226  0.5921 -0.2704 -0.9113
  747MOL0     C  777   1.387   4.741   6.274  0.4600 -0.5051 -0.4009
  747MOL0     H  778   1.620   5.112   5.993 -0.1953 -2.1567 -0.1340
  747MOL0     H  779   1.811   5.174   5.840  0.1431  0.8133 -2.3863
  747MOL0     H  780   1.678   5.397   5.575 -1.4604 -1.4285  0.6458
  747MOL0     H  781   1.801   5.370   5.702 -1.5963  3.1758 -0.0013
  747MOL0     H  782   1.985   5.355   5.542 -0.5806 -2.6815  0.8986
  747MOL0     H  783   1.905   5.515   5.532 -1.7107  0.6155 -3.9798
  747MOL0     H  784   1.747   5.421   5.362  0.1875  0.9121  2.1925
  747MOL0     H  785   1.839   5.288   5.342 -0.4613 -0.6122  0.6726
  747MOL0     H  786   1.888   5.421   5.165 -1.1290  0.7872 -0.2409
  747MOL0     H  787   1.918   5.571   5.259 -0.7905  0.1376 -0.6270
  747MOL0     H  788   2.111   5.453   5.362  0.2914 -0.0522 -0.4423
  747MOL0     H  789   2.086   5.333   5.230  2.7545 -0.9426  0.4827
  747MOL0     H  790   2.096   5.551   5.067  1.5835  1.6983 -0.2989
  747MOL0     H  791   2.142   5.633   5.220 -3.5208 -2.3203  4.3232
  747MOL0     H  792   2.322   5.562   5.047 -1.8116  1.5536  0.1203
  747MOL0     H  793   2.282   5.398   5.084 -0.8903 -0.6266  1.9713
  747MOL0     H  794   2.365   5.433   5.314 -0.2513 -1.9407 -2.5604
  747MOL0     H  795   2.485   5.511   5.212  1.3790  2.3654  1.2614
  747MOL0     H  796   2.539   5.751   5.206 -0.3806  1.2976  0.4837
  747MOL0     H  797   2.598   5.994   5.334 -2.0190  0.8145 -2.2386
  747MOL0     H  798   2.442   6.057   5.355 -0.5939 -1.0373 -1.1347
  747MOL0     H  799   2.447   6.018   5.608  0.8831 -1.7030  1.7312
  747MOL0     H  800   2.579   5.920   5.603 -1.1881  1.0563  1.8849
  747MOL0     H  801   2.594   6.206   5.646 -0.3372  1.2229 -0.9122
  747MOL0     H  802   2.635   6.194   5.486  2.5841  0.2742 -0.0579
  747MOL0     H  803   2.804   6.034   5.509 -0.0164 -1.9859  0.8752
  747MOL0     H  804   2.765   6.000   5.681 -2.6845 -1.7624 -0.2838
  747MOL0     H  805   3.033   6.007   5.602 -1.2743  0.3069  1.6243
  747MOL0     H  806   3.262   6.047   5.585 -1.2939 -0.2753 -0.9098
  747MOL0     H  807   3.666   6.135   5.730  1.6592  1.5071  1.7212
  747MOL0     H  808   3.908   6.220   5.712  0.7377 -0.7687 -0.7495
  747MOL0     H  809   4.053   6.224   5.389  1.0497 -0.5756  1.0422
  747MOL0     H  810   4.025   6.388   5.341  2.0000 -0.6162 -0.7780
  747MOL0     H  811   4.222   6.464   5.484  0.2686  1.2766 -2.3280
  747MOL0     H  812   4.243   6.289   5.526 -2.6622 -1.7888 -1.0643
  747MOL0     H  813   4.285   6.267   5.276 -0.5487  0.4503  0.0147
  747MOL0     H  814   4.269   6.444   5.267 -0.1489  0.4521  1.6390
  747MOL0     H  815   4.447   6.448   5.445 -1.2148  2.9605 -1.5743
  747MOL0     H  816   4.498   6.436   5.288 -3.1276  1.9755 -0.5510
  747MOL0     H  817   4.478   6.163   5.308 -0.7023 -3.4967  2.3823
  747MOL0     H  818   4.463   6.191   5.477  1.7085  1.5450  2.0101
  747MOL0     H  819   4.705   6.260   5.305 -0.3331  0.9879  0.4051
  747MOL0     H  820   4.692   6.331   5.462  0.3201  1.2812 -1.2865
  747MOL0     H  821   4.692   6.093   5.556 -0.0456  2.9272 -0.2769
  747MOL0     H  822   4.831   6.137   5.469 -0.3066 -0.9835  0.3336
  747MOL0     H  823   4.734   5.896   5.399  0.0485  0.1720  1.4890
  747MOL0     H  824   4.605   5.988   5.330  0.0688 -1.3189  0.0010
  747MOL0     H  825   3.804   6.382   5.324 -0.5125 -4.6402 -2.0047
  747MOL0     H  826   3.585   6.291   5.341  1.5666 -2.1139 -0.6933
  747MOL0     H  827   3.190   6.458   5.686 -0.9704 -1.5118  2.8180
  747MOL0     H  828   2.952   6.424   5.680 -0.6586 -1.1070  0.5746
  747MOL0     H  829   1.586   5.076   5.505 -1.1579 -0.1054 -0.0196
  747MOL0     H  830   1.399   4.994   5.658 -0.2080 -0.3575  0.7861
  747MOL0     H  831   1.134   5.026   5.975  0.4810  2.0978  0.3262
  747MOL0     H  832   0.936   4.978   6.107 -1.1854 -2.6995  0.6707
  747MOL0     H  833   0.794   4.841   6.153 -3.4870 -0.7790 -1.6399
  747MOL0     H  834   0.745   4.957   6.254  0.6837  0.4604 -1.1943
  747MOL0     H  835   0.664   4.790   6.436 -0.8723 -0.2398  0.3277
  747MOL0     H  836   0.747   4.667   6.329  0.4186  1.0697  0.0176
  747MOL0     H  837   0.556   4.705   6.168 -1.2184  2.0114 -0.2498
  747MOL0     H  838   0.517   4.856   6.242  0.6610  1.1254  2.1694
  747MOL0     H  839   0.437   4.725   6.452  0.1827 -0.2978  0.0925
  747MOL0     H  840   0.355   4.679   6.303 -0.0185 -2.0524 -0.9248
  747MOL0     H  841   0.576   4.315   6.356  2.5904  0.7289  2.4797
  747MOL0     H  842   1.141   4.760   6.404 -2.0713  2.4443  0.6750
  747MOL0     H  843   1.474   4.806   6.289  1.6116 -1.0070 -3.9887
  747MOL0     H  844   1.371   4.677   6.362 -0.3945 -2.3555 -1.8252
  747MOL0     H  845   1.413   4.670   6.195 -1.0846  0.6785 -2.0572
  748MOL0     O  846   8.696  11.150   7.506  0.1712 -0.5043  0.1294
  748MOL0     C  847   8.696  11.109   7.618  0.4605  0.4043 -0.6099
  748MOL0     O  848   8.799  11.110   7.704  0.3013  0.4428 -0.2756
  748MOL0     C  849   8.920  11.158   7.653 -0.0665 -0.5376  0.0144
  748MOL0     C  850   8.997  11.105   7.547  0.0550  0.6223 -0.3763
  748MOL0     C  851   9.103  11.170   7.499 -0.2513  0.4876 -0.0556
  748MOL0     C  852   9.146  11.297   7.551  0.2876  0.3784 -0.1071
  748MOL0     O  853   9.259  11.368   7.509  0.3783  0.2899 -0.3802
  748MOL0     C  854   9.249  11.427   7.381 -0.6836  0.6894  0.5985
  748MOL0     C  855   9.238  11.582   7.386  0.1768 -0.2398 -1.2026
  748MOL0     C  856   9.367  11.663   7.402 -0.0523 -1.1781  1.0759
  748MOL0     C  857   9.450  11.637   7.518 -0.5801  0.1968  0.1491
  748MOL0     C  858   9.576  11.729   7.507  0.1103 -0.3431  0.3452
  748MOL0     C  859   9.658  11.724   7.633 -0.8403  0.3971 -0.1770
  748MOL0     C  860   9.790  11.794   7.628  0.2035  0.3351 -0.0649
  748MOL0     C  861   9.770  11.943   7.642  0.3534  0.6164 -0.3447
  748MOL0     N  862   9.901  11.994   7.676 -0.1318  1.3529  0.0725
  748MOL0     C  863   9.977  12.080   7.598  0.0675  0.8046  0.1147
  748MOL0     C  864  10.064  12.132   7.685  0.4475  0.9321  0.1738
  748MOL0     C  865  10.158  12.242   7.657 -0.7710 -0.2096 -0.0051
  748MOL0     C  866  10.202  12.252   7.513  0.1555  0.0010  0.3617
  748MOL0     C  867  10.323  12.333   7.492  0.4460 -0.4872 -0.1828
  748MOL0     C  868  10.371  12.345   7.348  0.0837 -0.2589 -0.1003
  748MOL0     O  869  10.434  12.475   7.330 -0.1784 -0.2484  0.5666
  748MOL0     C  870  10.554  12.482   7.256  0.2483 -0.1866 -0.8303
  748MOL0     C  871  10.647  12.564   7.316  0.7619  0.7233 -0.6267
  748MOL0     C  872  10.773  12.574   7.261  0.3213  0.3321  0.1374
  748MOL0     C  873  10.818  12.497   7.150  0.1855 -0.7139  1.4820
  748MOL0     C  874  10.958  12.520   7.093  0.0851 -0.5737  0.1500
  748MOL0     O  875  11.041  12.578   7.180  0.0173  0.6161  0.3049
  748MOL0     C  876  11.166  12.625   7.145 -1.4993 -0.5468  0.3931
  748MOL0     C  877  11.196  12.686   7.020 -1.0618  0.1836 -0.1692
  748MOL0     C  878  11.323  12.737   6.993  0.4661  0.3816  0.1032
  748MOL0     C  879  11.411  12.756   7.093 -0.0774 -0.0903 -0.0148
  748MOL0     O  880  11.531  12.821   7.067 -0.2217  0.2073  0.6023
  748MOL0     C  881  11.647  12.738   7.102  0.4389  0.5414  0.0041
  748MOL0     C  882  11.772  12.817   7.077 -0.4143 -0.6223  0.1495
  748MOL0     C  883  11.897  12.750   7.146 -0.6718  0.4813 -0.4040
  748MOL0     C  884  12.020  12.829   7.127 -0.0930 -0.3403 -0.5906
  748MOL0     C  885  12.144  12.777   7.202  0.0084  0.4487  0.1060
  748MOL0     C  886  12.181  12.624   7.174 -0.0204 -0.6091  0.9859
  748MOL0     C  887  12.325  12.589   7.234  0.2155  0.2312  0.4471
  748MOL0     C  888  12.300  12.453   7.309 -0.5166 -0.0294  0.4626
  748MOL0    Cl  889  12.448  12.393   7.393 -0.0652  0.2660 -0.0581
  748MOL0     C  890  11.375  12.709   7.222 -0.6561  0.1568 -0.9322
  748MOL0     C  891  11.264  12.639   7.246 -0.2363  1.4892 -0.2517
  748MOL0     O  892  10.988  12.493   6.979 -0.0759 -0.6951 -0.1525
  748MOL0     C  893  10.717  12.415   7.093 -0.3361  0.1750  0.4225
  748MOL0     C  894  10.593  12.393   7.152 -0.5495 -1.1367  0.2450
  748MOL0     N  895  10.041  12.084   7.814  0.3130 -0.3269  0.4018
  748MOL0     N  896   9.949  11.997   7.805  0.1549  0.2601  0.2749
  748MOL0     C  897   9.075  11.343   7.669  0.2896 -0.0402  0.7466
  748MOL0     C  898   8.968  11.267   7.723  0.2320 -0.2693  0.6914
  748MOL0     C  899   8.577  11.036   7.651 -0.7268  0.1431 -0.0491
  748MOL0     C  900   8.539  10.927   7.571  0.9844  0.0379 -0.3340
  748MOL0     C  901   8.430  10.850   7.606  0.2450 -0.3833 -0.5959
  748MOL0     C  902   8.357  10.878   7.718  0.2538 -0.8451  0.2129
  748MOL0     O  903   8.252  10.789   7.743 -0.1037 -0.1674 -0.4496
  748MOL0     C  904   8.160  10.823   7.851  0.1301 -0.7372 -0.7587
  748MOL0     C  905   8.034  10.754   7.854  0.2827  0.0555  0.3762
  748MOL0     C  906   7.933  10.793   7.741 -0.2609 -0.2439  0.0914
  748MOL0     C  907   7.828  10.904   7.787 -0.0018  0.4127  0.5160
  748MOL0     C  908   7.892  11.012   7.862 -0.2803 -0.4509 -0.5155
  748MOL0     C  909   7.943  11.096   7.927 -0.7497 -0.2535 -0.0221
  748MOL0     C  910   8.388  10.992   7.794 -0.2374  0.2527  0.5338
  748MOL0     C  911   8.501  11.079   7.759  0.0388  0.0294  0.4340
  748MOL0     C  912   8.520  11.203   7.823  0.2540  0.0212  0.8211
  748MOL0     H  913   8.958  11.011   7.509 -0.2685 -1.3970  4.2458
  748MOL0     H  914   9.168  11.117   7.430  0.3286  2.9156 -1.4986
  748MOL0     H  915   9.337  11.401   7.323 -1.7308  1.6037 -1.5099
  748MOL0     H  916   9.170  11.376   7.325  1.3591 -0.2367 -1.6002
  748MOL0     H  917   9.164  11.605   7.462  1.0148 -2.3533  0.3565
  748MOL0     H  918   9.185  11.612   7.295 -1.5665  0.9406  0.1274
  748MOL0     H  919   9.348  11.769   7.380 -0.3082 -2.1153 -4.6059
  748MOL0     H  920   9.423  11.641   7.311  0.3958 -0.3645  1.1424
  748MOL0     H  921   9.404  11.651   7.616 -0.3155  0.7948  0.1929
  748MOL0     H  922   9.482  11.532   7.517 -0.3717  0.2328  1.4747
  748MOL0     H  923   9.633  11.682   7.425 -4.0280 -1.6298 -2.0754
  748MOL0     H  924   9.565  11.830   7.468  0.3391 -1.4079 -2.8016
  748MOL0     H  925   9.596  11.760   7.715  0.3992 -0.8147  1.3449
  748MOL0     H  926   9.673  11.617   7.652 -1.3899  0.1877 -0.8747
  748MOL0     H  927   9.845  11.794   7.533 -0.9618  1.0361 -0.7492
  748MOL0     H  928   9.857  11.770   7.711  4.6093  3.9572 -2.1033
  748MOL0     H  929   9.715  11.991   7.561 -2.1764  2.1021  2.0616
  748MOL0     H  930   9.704  11.955   7.728  1.3235 -0.0640  0.5187
  748MOL0     H  931   9.959  12.123   7.500  2.4476 -1.1607 -1.3231
  748MOL0     H  932  10.127  12.341   7.689 -1.8495 -0.0150 -1.5567
  748MOL0     H  933  10.242  12.216   7.723  1.3493 -0.3453 -2.5676
  748MOL0     H  934  10.219  12.154   7.466  0.4290 -0.8205  2.0858
  748MOL0     H  935  10.114  12.290   7.459 -0.0836 -0.4343  0.4378
  748MOL0     H  936  10.406  12.289   7.549  1.9519 -0.4841 -2.2819
  748MOL0     H  937  10.312  12.436   7.526  1.8890 -0.2381 -0.4288
  748MOL0     H  938  10.280  12.339   7.287 -0.4051  1.3674  0.4327
  748MOL0     H  939  10.438  12.261   7.328 -0.2274 -0.9089  1.4866
  748MOL0     H  940  10.618  12.618   7.406 -0.0518  0.1518 -0.5374
  748MOL0     H  941  10.847  12.644   7.299 -0.5216  0.7134  1.0989
  748MOL0     H  942  11.138  12.664   6.931  1.1792  1.2276 -1.9828
  748MOL0     H  943  11.355  12.772   6.895  1.6718 -0.7854  0.0460
  748MOL0     H  944  11.639  12.694   7.202  0.9568  2.3108  0.8738
  748MOL0     H  945  11.659  12.656   7.031  0.5181  2.4926 -2.3825
  748MOL0     H  946  11.789  12.833   6.970  0.6095 -0.0175  0.3821
  748MOL0     H  947  11.765  12.913   7.129  0.4134 -1.5733  2.1097
  748MOL0     H  948  11.881  12.745   7.254 -0.0706  0.4979 -0.3096
  748MOL0     H  949  11.903  12.651   7.099 -2.5453  0.4404 -0.6087
  748MOL0     H  950  11.986  12.930   7.154  2.2714 -0.2760  2.7279
  748MOL0     H  951  12.048  12.830   7.021 -1.9540  1.7982 -1.1537
  748MOL0     H  952  12.121  12.790   7.308  2.7189 -2.3582  1.1754
  748MOL0     H  953  12.235  12.835   7.182 -1.0184  2.3599  0.6848
  748MOL0     H  954  12.104  12.568   7.227 -1.6607  2.8041  2.5680
  748MOL0     H  955  12.170  12.604   7.067  3.5067  3.4502 -0.4594
  748MOL0     H  956  12.342  12.663   7.312 -2.6129  0.9102  0.5121
  748MOL0     H  957  12.394  12.586   7.149  0.3657  0.1080  0.5735
  748MOL0     H  958  12.219  12.463   7.382 -1.5079 -1.2455 -0.4301
  748MOL0     H  959  12.266  12.384   7.232 -0.0870  1.1308 -0.8128
  748MOL0     H  960  11.440  12.743   7.302 -2.7686  2.1344  0.0398
  748MOL0     H  961  11.238  12.608   7.346  1.4549 -0.4372 -0.3394
  748MOL0     H  962  10.750  12.356   7.008  1.0902  2.6882 -0.9078
  748MOL0     H  963  10.518  12.318   7.126 -2.4968  0.9213 -0.3559
  748MOL0     H  964   9.116  11.433   7.713 -0.8271  0.8940 -0.0404
  748MOL0     H  965   8.919  11.321   7.804 -0.4700  1.1681 -0.6294
  748MOL0     H  966   8.594  10.889   7.486 -0.2486 -0.3024 -1.0075
  748MOL0     H  967   8.401  10.765   7.546 -0.6749 -1.1991  0.9588
  748MOL0     H  968   8.135  10.930   7.847 -1.7977 -1.1128  0.2540
  748MOL0     H  969   8.215  10.806   7.944  0.4317  2.2829 -0.2872
  748MOL0     H  970   7.985  10.763   7.951  0.3740 -4.4440  1.0571
  748MOL0     H  971   8.055  10.646   7.850 -1.7650 -0.3528 -0.8701
  748MOL0     H  972   7.881  10.706   7.700 -0.1730 -0.6079  0.7361
  748MOL0     H  973   7.979  10.836   7.652 -0.6997 -0.0148 -0.0263
  748MOL0     H  974   7.759  10.935   7.709 -1.7945  1.1335  2.3187
  748MOL0     H  975   7.757  10.852   7.853  0.1136  0.9224  1.0512
  748MOL0     H  976   7.996  11.175   7.976  1.9872 -0.9403 -1.6909
  748MOL0     H  977   8.347  11.011   7.893 -0.2406 -3.1093  1.3030
  748MOL0     H  978   8.477  11.205   7.924 -0.5663  2.0564  0.4829
  748MOL0     H  979   8.626  11.221   7.840  0.1101  0.7068  1.0469
  748MOL0     H  980   8.476  11.284   7.764  0.0694  0.1021  1.0653
  749MOL0     O  981   0.049   6.448   5.618 -0.1604 -0.6961  0.0569
  749MOL0     C  982   0.053   6.337   5.571 -0.4259  0.9535 -0.3729
  749MOL0     O  983   0.155   6.252   5.584 -0.0418 -0.0451  0.2859
  749MOL0     C  984   0.289   6.295   5.579  0.3806 -0.2979 -0.7002
  749MOL0     C  985   0.379   6.192   5.602  0.4029 -0.5726 -0.7109
  749MOL0     C  986   0.521   6.215   5.591 -0.1611 -0.0184  1.2312
  749MOL0     C  987   0.570   6.340   5.567 -0.2419  0.5895 -0.0361
  749MOL0     O  988   0.704   6.353   5.554 -0.0175  0.2265  0.0214
  749MOL0     C  989   0.754   6.485   5.529 -0.1605 -0.2732 -0.2252
  749MOL0     C  990   0.905   6.468   5.522  0.2636 -0.0851  0.4565
  749MOL0     C  991   0.972   6.594   5.459  0.2448  0.0746  0.7180
  749MOL0     C  992   1.124   6.560   5.449  0.8613 -0.7067 -0.3978
  749MOL0     C  993   1.201   6.620   5.332 -0.0508 -0.2461 -0.7445
  749MOL0     C  994   1.174   6.548   5.192  0.4314 -1.0218 -0.6463
  749MOL0     C  995   1.285   6.550   5.082  0.3198  0.6959  0.3730
  749MOL0     C  996   1.333   6.694   5.063  0.6931 -0.4398 -0.2337
  749MOL0     N  997   1.396   6.726   4.930 -0.0419  0.7763  0.0382
  749MOL0     C  998   1.345   6.715   4.800 -0.1180 -0.0520 -0.3255
  749MOL0     C  999   1.457   6.746   4.721  0.2279  0.5359 -0.6655
  749MOL0     C 1000   1.450   6.766   4.571 -0.3156  0.9735  0.8377
  749MOL0     C 1001   1.557   6.862   4.518  0.3683 -0.6809 -0.5316
  749MOL0     C 1002   1.531   7.015   4.551 -0.3968  1.2435  0.3556
  749MOL0     C 1003   1.654   7.089   4.514  0.3354 -0.0474 -0.0705
  749MOL0     O 1004   1.768   7.067   4.598  0.7111  0.5170 -0.1816
  749MOL0     C 1005   1.882   7.152   4.594  0.3151  0.4060 -0.2539
  749MOL0     C 1006   1.901   7.260   4.503  0.3276  0.5624 -1.5996
  749MOL0     C 1007   2.019   7.337   4.509  0.1586 -0.1992  0.7253
  749MOL0     C 1008   2.119   7.311   4.603 -0.3271 -0.5515  0.5353
  749MOL0     C 1009   2.249   7.395   4.589  0.3372  0.5657 -0.6613
  749MOL0     O 1010   2.338   7.404   4.693 -0.0213 -0.1547 -0.4422
  749MOL0     C 1011   2.459   7.472   4.679  0.4473  0.6052 -0.3329
  749MOL0     C 1012   2.473   7.602   4.734  0.3841 -0.9467  0.5987
  749MOL0     C 1013   2.580   7.689   4.690  0.6198  0.7897 -0.6070
  749MOL0     C 1014   2.691   7.627   4.621  0.6523  0.0413  0.2485
  749MOL0     O 1015   2.812   7.683   4.589 -0.2495  0.4670  0.2240
  749MOL0     C 1016   2.825   7.811   4.531 -0.1655  0.1374 -0.7392
  749MOL0     C 1017   2.773   7.823   4.386 -0.2755  0.1317  0.4575
  749MOL0     C 1018   2.821   7.932   4.287  0.1137 -0.1217 -1.2822
  749MOL0     C 1019   2.824   8.051   4.374  0.1288  0.0416 -0.2311
  749MOL0     C 1020   2.852   8.171   4.275 -0.2234  0.4790 -0.2054
  749MOL0     C 1021   2.880   8.301   4.345  0.4674 -0.0931  0.0770
  749MOL0     C 1022   2.760   8.348   4.424  0.5223 -0.1465  0.5249
  749MOL0     C 1023   2.754   8.479   4.494 -0.0341 -0.2666  0.3830
  749MOL0    Cl 1024   2.760   8.594   4.364 -0.1511 -0.1000  0.1839
  749MOL0     C 1025   2.679   7.498   4.589 -0.6722  0.3107 -0.9583
  749MOL0     C 1026   2.569   7.413   4.614  0.2969 -0.3162  0.3315
  749MOL0     O 1027   2.272   7.442   4.476 -0.1989  0.0833  0.1164
  749MOL0     C 1028   2.097   7.209   4.688  0.3466  0.1084 -0.3082
  749MOL0     C 1029   1.984   7.130   4.685  0.9233  0.4254 -0.7867
  749MOL0     N 1030   1.567   6.778   4.800  0.4728  0.6049 -0.5998
  749MOL0     N 1031   1.522   6.762   4.921 -0.4422 -0.1222  0.5547
  749MOL0     C 1032   0.481   6.439   5.553  0.5348 -0.5192 -0.1765
  749MOL0     C 1033   0.337   6.418   5.554 -0.9999 -0.0563 -0.2596
  749MOL0     C 1034  -0.071   6.267   5.523  0.3242  0.3480 -0.7475
  749MOL0     C 1035  -0.064   6.169   5.420 -0.4077 -0.2277  0.4232
  749MOL0     C 1036  -0.180   6.124   5.352  0.3155 -0.0740 -0.4102
  749MOL0     C 1037  -0.305   6.160   5.403  1.1668  0.0456 -0.0652
  749MOL0     O 1038  -0.402   6.114   5.316  0.6336  0.2130  0.6636
  749MOL0     C 1039  -0.533   6.133   5.367  0.6406  1.2281 -0.5763
  749MOL0     C 1040  -0.564   6.014   5.466 -0.7013 -0.0160 -0.8411
  749MOL0     C 1041  -0.676   6.039   5.566 -1.1409 -0.5086 -0.3440
  749MOL0     C 1042  -0.809   6.096   5.517  0.3426  0.7283  0.7704
  749MOL0     C 1043  -0.878   5.992   5.444 -0.8362 -0.0187  0.2179
  749MOL0     C 1044  -0.927   5.889   5.392 -1.1742  0.4602 -0.0604
  749MOL0     C 1045  -0.310   6.232   5.522  0.1942  0.2595  0.1195
  749MOL0     C 1046  -0.197   6.293   5.580  0.2989 -0.0013  0.0474
  749MOL0     C 1047  -0.219   6.386   5.700 -0.1709 -0.7906 -0.4313
  749MOL0     H 1048   0.339   6.100   5.642 -1.1123  0.4039  0.1034
  749MOL0     H 1049   0.593   6.135   5.600 -0.5063 -0.5496 -0.3033
  749MOL0     H 1050   0.726   6.525   5.431  0.4046 -0.4073 -0.4437
  749MOL0     H 1051   0.726   6.554   5.609 -1.8550 -0.3937 -0.6747
  749MOL0     H 1052   0.937   6.374   5.478  4.0048  2.1781 -2.1549
  749MOL0     H 1053   0.941   6.473   5.626  1.4854  0.5785  0.0167
  749MOL0     H 1054   0.961   6.678   5.528 -0.4081  0.3699  0.2604
  749MOL0     H 1055   0.939   6.628   5.361 -0.6833  2.8497  1.9000
  749MOL0     H 1056   1.173   6.616   5.529 -0.8217 -0.8895  0.8045
  749MOL0     H 1057   1.155   6.456   5.464  1.5067 -0.4046  0.4637
  749MOL0     H 1058   1.189   6.729   5.329  2.8164  0.1429 -0.7674
  749MOL0     H 1059   1.308   6.626   5.356 -0.5641 -0.4546  1.9208
  749MOL0     H 1060   1.147   6.443   5.206  1.0116 -0.9850  0.9674
  749MOL0     H 1061   1.083   6.590   5.148 -0.1974  0.4982  1.8854
  749MOL0     H 1062   1.238   6.510   4.992  0.2139 -1.1890  1.2334
  749MOL0     H 1063   1.364   6.480   5.110 -2.5459 -2.5574  0.9552
  749MOL0     H 1064   1.247   6.759   5.077  1.0854 -0.3327  1.9641
  749MOL0     H 1065   1.406   6.721   5.140 -0.8449  0.7466  0.8696
  749MOL0     H 1066   1.246   6.702   4.757 -0.1178 -0.9420 -0.0750
  749MOL0     H 1067   1.453   6.667   4.523 -1.6918  1.7228 -0.9115
  749MOL0     H 1068   1.354   6.810   4.541  0.5924  1.8643 -0.9515
  749MOL0     H 1069   1.651   6.827   4.561 -1.0743 -2.2560  1.5324
  749MOL0     H 1070   1.561   6.843   4.410  2.0859 -0.2305 -0.5840
  749MOL0     H 1071   1.515   7.026   4.659  0.2763  1.4458  0.4396
  749MOL0     H 1072   1.445   7.063   4.504 -0.2051  0.9205 -0.3380
  749MOL0     H 1073   1.623   7.193   4.529  2.8483  0.7946 -0.2749
  749MOL0     H 1074   1.686   7.062   4.413 -0.3346 -1.1733  0.0026
  749MOL0     H 1075   1.830   7.289   4.426  0.8387  1.5413 -1.7103
  749MOL0     H 1076   2.032   7.411   4.430  1.6077 -1.1385  0.0431
  749MOL0     H 1077   2.392   7.631   4.801  0.5023 -3.4004  1.9004
  749MOL0     H 1078   2.579   7.795   4.715  1.7236  0.5592  0.5157
  749MOL0     H 1079   2.785   7.891   4.594  3.3399  1.7144 -0.2779
  749MOL0     H 1080   2.932   7.830   4.541 -0.6516  2.3345  1.5285
  749MOL0     H 1081   2.808   7.728   4.346  0.0073  0.9597 -1.3642
  749MOL0     H 1082   2.664   7.818   4.387 -0.2299 -0.8702  1.6258
  749MOL0     H 1083   2.904   7.910   4.219  0.8454 -0.9038 -0.1847
  749MOL0     H 1084   2.735   7.942   4.220 -0.7766  0.6637 -0.0697
  749MOL0     H 1085   2.891   8.055   4.460 -1.5827 -0.2569  1.1869
  749MOL0     H 1086   2.722   8.061   4.414 -0.3313  1.2071 -1.6472
  749MOL0     H 1087   2.768   8.171   4.206 -0.1659 -1.0555 -0.3067
  749MOL0     H 1088   2.935   8.149   4.207 -1.0044 -1.7844 -0.5118
  749MOL0     H 1089   2.956   8.293   4.423  0.8004 -0.5659 -0.2883
  749MOL0     H 1090   2.910   8.377   4.272 -2.4704  1.2185  0.1240
  749MOL0     H 1091   2.747   8.267   4.497 -1.7423 -0.8973 -0.6286
  749MOL0     H 1092   2.668   8.361   4.366 -1.3547  0.4474  3.4524
  749MOL0     H 1093   2.675   8.493   4.568 -0.9434 -2.3718 -0.1267
  749MOL0     H 1094   2.852   8.490   4.540  2.4635 -0.1191 -4.3192
  749MOL0     H 1095   2.771   7.451   4.555 -1.3028 -1.2766 -0.5786
  749MOL0     H 1096   2.572   7.312   4.573  3.0183 -0.1826  0.0363
  749MOL0     H 1097   2.177   7.204   4.761  1.5627  3.5582 -1.2350
  749MOL0     H 1098   1.978   7.051   4.759  1.8371 -0.8426 -2.0157
  749MOL0     H 1099   0.517   6.536   5.521 -0.6253 -0.9798 -3.1968
  749MOL0     H 1100   0.272   6.504   5.549 -0.1371  0.7427  1.4276
  749MOL0     H 1101   0.034   6.135   5.386 -1.2671 -2.2719 -0.1904
  749MOL0     H 1102  -0.168   6.066   5.261  2.6859 -0.2573 -0.0280
  749MOL0     H 1103  -0.621   6.137   5.301 -0.1764 -1.5286  0.2022
  749MOL0     H 1104  -0.541   6.226   5.425 -2.9581 -0.8282  2.7193
  749MOL0     H 1105  -0.480   5.974   5.523 -0.4318 -0.7786 -1.7349
  749MOL0     H 1106  -0.597   5.929   5.406  0.1868 -0.6894 -0.3981
  749MOL0     H 1107  -0.635   6.093   5.652 -2.0170 -0.5271  0.0930
  749MOL0     H 1108  -0.696   5.938   5.603 -1.1728 -0.0051  1.0580
  749MOL0     H 1109  -0.873   6.132   5.598 -1.3106  1.3958 -0.7600
  749MOL0     H 1110  -0.797   6.184   5.453  2.8713  2.7284  3.7074
  749MOL0     H 1111  -0.972   5.802   5.348 -0.5184  0.0940 -0.0159
  749MOL0     H 1112  -0.406   6.247   5.569 -0.9553 -0.3548 -1.9067
  749MOL0     H 1113  -0.152   6.352   5.779 -0.8955  1.8189  1.4651
  749MOL0     H 1114  -0.209   6.492   5.673  2.6555 -1.8393 -4.4097
  749MOL0     H 1115  -0.323   6.378   5.735 -0.0097 -2.1247 -0.2332
  750MOL0     O 1116   9.725   2.879   2.754  0.8072 -0.1058  0.0593
  750MOL0     C 1117   9.742   2.988   2.715  0.4017 -0.5050  0.6830
  750MOL0     O 1118   9.668   3.043   2.616  0.2248 -0.5071 -0.3766
  750MOL0     C 1119   9.532   3.027   2.610  0.2031 -0.1544 -0.1387
  750MOL0     C 1120   9.450   2.999   2.717 -0.3656  0.6289 -0.2556
  750MOL0     C 1121   9.311   3.003   2.704  0.6901 -0.2892  0.2425
  750MOL0     C 1122   9.244   3.021   2.582  0.8126  0.5148 -0.0195
  750MOL0     O 1123   9.107   3.049   2.574 -0.1240 -0.2021  0.1861
  750MOL0     C 1124   9.035   3.142   2.659 -0.3946  0.5230 -0.2547
  750MOL0     C 1125   8.897   3.174   2.599  0.6484  0.5619  0.2520
  750MOL0     C 1126   8.826   3.046   2.540 -0.3071 -0.2794  0.3535
  750MOL0     C 1127   8.685   3.086   2.504  0.0534 -0.0517  0.2176
  750MOL0     C 1128   8.649   3.021   2.372  0.5948 -0.4094  0.7552
  750MOL0     C 1129   8.503   3.053   2.311 -1.1659  0.5725 -0.2867
  750MOL0     C 1130   8.471   3.054   2.160 -0.3587  0.2910 -0.2577
  750MOL0     C 1131   8.504   2.922   2.100  0.2459 -0.1066  0.2513
  750MOL0     N 1132   8.643   2.918   2.039  1.0002 -0.0324  1.2604
  750MOL0     C 1133   8.672   2.973   1.916 -0.6490 -0.8228  0.4790
  750MOL0     C 1134   8.813   2.962   1.905  0.2259 -0.9066  0.3785
  750MOL0     C 1135   8.896   3.034   1.797  0.2955  0.3829 -0.2914
  750MOL0     C 1136   9.046   2.994   1.806  0.9091 -0.2453 -0.1447
  750MOL0     C 1137   9.118   3.007   1.671 -0.6385  0.0950  0.5037
  750MOL0     C 1138   9.130   3.153   1.629 -0.5887  0.6949 -0.2206
  750MOL0     O 1139   9.244   3.178   1.542 -0.1044  0.3634 -0.7804
  750MOL0     C 1140   9.346   3.246   1.595 -0.8657 -1.1919  0.2362
  750MOL0     C 1141   9.451   3.271   1.505 -0.2825 -1.0191 -0.0076
  750MOL0     C 1142   9.570   3.339   1.541 -0.0362 -0.3789  0.8522
  750MOL0     C 1143   9.600   3.388   1.669 -0.1095 -0.9577 -0.8103
  750MOL0     C 1144   9.731   3.461   1.703  0.5987  0.6236 -0.8032
  750MOL0     O 1145   9.742   3.512   1.832  0.1192 -0.6502 -0.6312
  750MOL0     C 1146   9.864   3.529   1.890  0.2003 -1.1163 -0.0341
  750MOL0     C 1147   9.989   3.488   1.836  0.1343 -0.3986  0.2241
  750MOL0     C 1148  10.107   3.519   1.907 -0.2977 -0.7155  0.2879
  750MOL0     C 1149  10.106   3.596   2.022  0.2155 -0.2675  0.3594
  750MOL0     O 1150  10.235   3.622   2.072  0.0298 -0.3754  0.1562
  750MOL0     C 1151  10.280   3.722   2.163 -0.2781 -0.1211  0.4212
  750MOL0     C 1152  10.271   3.669   2.304  0.5247  0.0672 -0.5240
  750MOL0     C 1153  10.271   3.769   2.432 -0.5722  0.5554  0.4342
  750MOL0     C 1154  10.140   3.859   2.445  0.1503 -0.6484  0.2533
  750MOL0     C 1155  10.117   3.921   2.583  0.6815  0.6123 -0.9862
  750MOL0     C 1156  10.204   4.048   2.602  0.3995 -0.4955  0.2898
  750MOL0     C 1157  10.190   4.087   2.752 -0.6783 -0.7519 -0.8290
  750MOL0     C 1158  10.325   4.057   2.829 -0.2913  0.5198 -0.6182
  750MOL0    Cl 1159  10.484   4.124   2.764 -0.1598 -0.5663  0.0379
  750MOL0     C 1160   9.982   3.655   2.071 -0.3633  0.6406  0.1274
  750MOL0     C 1161   9.865   3.614   2.011  0.0201 -0.1025 -0.1947
  750MOL0     O 1162   9.813   3.465   1.614 -0.1903  0.1706  0.3070
  750MOL0     C 1163   9.506   3.346   1.775  0.0176  0.4807 -0.0387
  750MOL0     C 1164   9.377   3.282   1.736  0.6676 -0.0504  0.7323
  750MOL0     N 1165   8.851   2.890   2.016  0.3402  0.1071 -0.2372
  750MOL0     N 1166   8.750   2.883   2.104 -0.2085 -0.1327 -0.3847
  750MOL0     C 1167   9.331   3.037   2.469  0.7439  0.0072 -0.3086
  750MOL0     C 1168   9.467   3.048   2.488 -0.3024 -0.0848 -0.3072
  750MOL0     C 1169   9.870   3.052   2.754 -0.2911 -1.7455 -0.6253
  750MOL0     C 1170   9.885   3.188   2.701  0.3378  0.7222 -0.5376
  750MOL0     C 1171   9.989   3.275   2.741 -0.2182 -0.1999  0.5504
  750MOL0     C 1172  10.083   3.222   2.829 -0.6618  0.7760 -0.2589
  750MOL0     O 1173  10.189   3.298   2.878  0.0966  0.2706 -0.2035
  750MOL0     C 1174  10.162   3.429   2.920  0.5758  1.3119 -0.3994
  750MOL0     C 1175  10.068   3.424   3.042  0.6053  0.5010 -0.2018
  750MOL0     C 1176  10.102   3.324   3.147  0.1810 -0.2960  0.3569
  750MOL0     C 1177  10.228   3.366   3.222  0.0923 -0.0095 -0.4430
  750MOL0     C 1178  10.270   3.265   3.318  0.7353 -0.0133 -0.5205
  750MOL0     C 1179  10.305   3.183   3.396  0.9463 -0.6556  0.1414
  750MOL0     C 1180  10.076   3.085   2.866  0.3873  0.6796  0.2472
  750MOL0     C 1181   9.971   3.002   2.832  0.1759  0.2039 -0.1845
  750MOL0     C 1182   9.989   2.861   2.872  0.0567  0.3132 -0.5083
  750MOL0     H 1183   9.496   2.989   2.815 -0.5385  2.2429  0.0032
  750MOL0     H 1184   9.245   2.999   2.790  0.4742 -1.9710  0.0326
  750MOL0     H 1185   9.019   3.095   2.756  2.2404  1.9754  0.9745
  750MOL0     H 1186   9.084   3.239   2.669 -3.1863  2.1367 -1.1835
  750MOL0     H 1187   8.897   3.254   2.524 -2.3800 -1.6394 -2.3984
  750MOL0     H 1188   8.845   3.204   2.691 -0.6245 -0.9497  0.0671
  750MOL0     H 1189   8.823   2.961   2.609  0.4730 -0.8348 -0.2572
  750MOL0     H 1190   8.880   3.009   2.452 -3.0423 -1.2419 -1.0298
  750MOL0     H 1191   8.616   3.046   2.579  0.3390 -1.0672 -0.0501
  750MOL0     H 1192   8.672   3.195   2.510 -3.9418 -0.4542  2.2006
  750MOL0     H 1193   8.730   3.046   2.303  0.2982  0.7492  0.8143
  750MOL0     H 1194   8.656   2.913   2.389 -0.2948 -0.6991 -0.5905
  750MOL0     H 1195   8.440   2.984   2.367 -1.9044  0.2059 -1.5399
  750MOL0     H 1196   8.473   3.148   2.357 -1.1132  0.6602 -0.4304
  750MOL0     H 1197   8.528   3.133   2.110 -0.4082  1.6592  1.7369
  750MOL0     H 1198   8.365   3.078   2.158 -0.4061  0.2760  1.2107
  750MOL0     H 1199   8.488   2.848   2.179 -3.1000  1.0100  0.7693
  750MOL0     H 1200   8.437   2.877   2.026  0.1804  2.2307 -1.1933
  750MOL0     H 1201   8.606   3.028   1.851 -1.2411  0.7486  2.2935
  750MOL0     H 1202   8.846   3.001   1.706  0.1778  1.5601 -0.6676
  750MOL0     H 1203   8.889   3.143   1.803 -3.0170  0.2216  0.3665
  750MOL0     H 1204   9.096   3.063   1.875  0.2261 -0.4312  0.5497
  750MOL0     H 1205   9.058   2.893   1.846 -0.5656 -0.4887 -0.2604
  750MOL0     H 1206   9.069   2.952   1.591  1.9721  0.7811 -1.6977
  750MOL0     H 1207   9.222   2.972   1.673 -0.6836 -0.6378 -3.2996
  750MOL0     H 1208   9.127   3.223   1.713  0.1012  0.0817  0.3279
  750MOL0     H 1209   9.043   3.180   1.570  0.1700 -0.7119 -2.0671
  750MOL0     H 1210   9.435   3.244   1.401  2.2312 -0.3436 -0.6345
  750MOL0     H 1211   9.642   3.365   1.465 -0.9873  1.1129  0.4116
  750MOL0     H 1212  10.000   3.431   1.744 -3.5614 -1.2612  0.1695
  750MOL0     H 1213  10.204   3.478   1.880 -1.2199 -2.3891 -0.6887
  750MOL0     H 1214  10.383   3.731   2.126 -0.6849 -1.9588 -1.2873
  750MOL0     H 1215  10.234   3.821   2.152 -0.7014 -0.5260 -1.9084
  750MOL0     H 1216  10.178   3.614   2.319  1.1563 -0.3671  2.2526
  750MOL0     H 1217  10.352   3.596   2.315 -0.6454 -1.2477 -0.3393
  750MOL0     H 1218  10.282   3.712   2.524  0.3350 -1.3325 -0.7735
  750MOL0     H 1219  10.361   3.831   2.433  1.8821 -2.4606 -3.2096
  750MOL0     H 1220  10.053   3.794   2.432  0.0038 -0.5635  0.7852
  750MOL0     H 1221  10.123   3.941   2.375  1.8681 -1.1974 -0.8742
  750MOL0     H 1222  10.129   3.843   2.659 -1.5055 -0.8456 -2.0210
  750MOL0     H 1223  10.013   3.954   2.580  1.1323  2.1332 -0.4430
  750MOL0     H 1224  10.301   4.033   2.554  0.5253 -1.6005  0.8686
  750MOL0     H 1225  10.155   4.128   2.546 -0.1128 -2.0352 -1.5562
  750MOL0     H 1226  10.116   4.031   2.810 -0.1386 -1.9081 -1.2210
  750MOL0     H 1227  10.179   4.196   2.756  1.9389 -0.4504  1.0873
  750MOL0     H 1228  10.305   4.100   2.928 -0.2719 -0.0229 -0.3716
  750MOL0     H 1229  10.341   3.949   2.840 -2.1049  0.1647 -1.0905
  750MOL0     H 1230   9.968   3.732   2.146 -0.2730  0.5298  0.2584
  750MOL0     H 1231   9.770   3.648   2.051  0.6741  1.0097  0.4583
  750MOL0     H 1232   9.524   3.362   1.881 -2.7315  0.8527  0.4292
  750MOL0     H 1233   9.319   3.258   1.825 -0.0214  2.0024  0.8796
  750MOL0     H 1234   9.306   3.084   2.374 -4.0488  1.5131  1.3982
  750MOL0     H 1235   9.523   3.061   2.396  0.5674 -0.3229  0.1800
  750MOL0     H 1236   9.807   3.234   2.641 -0.2703  2.0389  1.1798
  750MOL0     H 1237   9.998   3.376   2.702  1.0280  1.0263  3.7391
  750MOL0     H 1238  10.127   3.494   2.839  1.1173 -0.0223 -1.7378
  750MOL0     H 1239  10.259   3.472   2.948  0.4547  0.4138  1.5348
  750MOL0     H 1240   9.966   3.400   3.010  0.0065  0.2715  1.7498
  750MOL0     H 1241  10.059   3.527   3.077 -0.0839 -0.0179  1.2282
  750MOL0     H 1242  10.118   3.224   3.107 -0.0902 -0.7109  1.2624
  750MOL0     H 1243  10.020   3.322   3.219  0.4920 -0.3760  0.7117
  750MOL0     H 1244  10.306   3.388   3.149  3.5883 -1.3384  2.5179
  750MOL0     H 1245  10.202   3.458   3.275  1.5850 -1.3045  2.8704
  750MOL0     H 1246  10.346   3.099   3.450  0.3944  0.5599  2.6192
  750MOL0     H 1247  10.157   3.055   2.931  1.4738  0.1165 -1.3236
  750MOL0     H 1248  10.060   2.851   2.954 -0.2730  3.8209  0.3780
  750MOL0     H 1249   9.897   2.814   2.910  0.7884 -0.3778  0.4719
  750MOL0     H 1250  10.037   2.796   2.799 -0.4593  1.5940 -2.0429
  751MOL0     O 1251   8.567   7.748   3.708  0.2367  0.3326 -0.0760
  751MOL0     C 1252   8.568   7.780   3.826  0.9299 -0.3305 -0.1230
  751MOL0     O 1253   8.663   7.744   3.912 -0.0477 -0.1577  0.7027
  751MOL0     C 1254   8.786   7.692   3.869 -1.0993 -0.0807 -0.2013
  751MOL0     C 1255   8.863   7.753   3.773 -0.1438 -1.3203  0.4575
  751MOL0     C 1256   8.997   7.720   3.756  0.2530  0.6496 -0.2939
  751MOL0     C 1257   9.050   7.610   3.828 -0.0832 -0.5730 -0.6157
  751MOL0     O 1258   9.179   7.563   3.814  0.2552 -0.2973 -0.0464
  751MOL0     C 1259   9.260   7.623   3.714  0.0698  0.2818  0.2344
  751MOL0     C 1260   9.397   7.555   3.708 -0.2567 -0.5582  0.3776
  751MOL0     C 1261   9.472   7.540   3.839 -0.7560 -0.2821  0.1480
  751MOL0     C 1262   9.588   7.435   3.835 -0.0355 -0.0933 -0.7006
  751MOL0     C 1263   9.674   7.430   3.962  0.1994 -0.3475  0.1430
  751MOL0     C 1264   9.742   7.567   3.983 -0.5008 -0.6444  0.1347
  751MOL0     C 1265   9.851   7.588   3.874  0.1855 -0.6443  0.6920
  751MOL0     C 1266   9.916   7.726   3.893 -0.0572 -0.4456 -0.0724
  751MOL0     N 1267  10.031   7.710   3.983  0.1564 -0.7187 -0.1072
  751MOL0     C 1268  10.032   7.752   4.115  0.4407 -0.8212  0.3792
  751MOL0     C 1269  10.160   7.733   4.157  0.1886 -0.5028  0.1076
  751MOL0     C 1270  10.206   7.798   4.279  0.2809 -0.2391 -0.6720
  751MOL0     C 1271  10.344   7.875   4.253 -0.2928 -0.3525 -0.5252
  751MOL0     C 1272  10.377   7.976   4.368  0.8414 -0.6441 -0.1948
  751MOL0     C 1273  10.413   7.922   4.510  0.4215 -0.4180  0.2129
  751MOL0     O 1274  10.481   8.016   4.588  0.2043  0.0300 -0.5249
  751MOL0     C 1275  10.610   8.055   4.559  0.7514 -0.6315 -0.3567
  751MOL0     C 1276  10.659   8.152   4.648  0.3893  0.1448 -0.5146
  751MOL0     C 1277  10.792   8.190   4.630  0.1321 -0.7236 -1.8062
  751MOL0     C 1278  10.872   8.127   4.534  0.0626  0.4065  0.4177
  751MOL0     C 1279  11.005   8.176   4.501 -0.0915 -1.6165 -1.1067
  751MOL0     O 1280  11.043   8.284   4.586 -0.1937 -0.4130 -0.3905
  751MOL0     C 1281  11.173   8.341   4.583  1.2856  0.4448  0.7992
  751MOL0     C 1282  11.259   8.353   4.694 -0.1552 -0.1465 -0.0709
  751MOL0     C 1283  11.384   8.414   4.683 -0.6729 -0.6953 -0.3201
  751MOL0     C 1284  11.429   8.468   4.561 -0.4255 -0.1412 -0.7115
  751MOL0     O 1285  11.550   8.532   4.562 -0.0453  0.0877 -0.3536
  751MOL0     C 1286  11.646   8.493   4.471  0.2706  0.5607  0.0084
  751MOL0     C 1287  11.775   8.584   4.488 -0.3223  0.3422  0.4838
  751MOL0     C 1288  11.770   8.719   4.419  0.3736 -0.3290 -0.6277
  751MOL0     C 1289  11.901   8.794   4.436 -0.1160 -0.4082 -0.0604
  751MOL0     C 1290  12.019   8.746   4.348 -0.4142 -0.2791  0.6798
  751MOL0     C 1291  12.146   8.825   4.354  0.3029  0.4669  0.6513
  751MOL0     C 1292  12.222   8.795   4.485  0.3543 -0.4824  0.1579
  751MOL0     C 1293  12.289   8.924   4.537 -0.0639 -0.4517 -1.3148
  751MOL0    Cl 1294  12.367   8.903   4.697 -0.1098  0.0034 -0.4502
  751MOL0     C 1295  11.343   8.460   4.448 -0.3499  0.4738  0.2876
  751MOL0     C 1296  11.221   8.380   4.456 -0.3466 -0.0432 -0.6886
  751MOL0     O 1297  11.078   8.136   4.414 -0.1742  0.2162  0.2443
  751MOL0     C 1298  10.826   8.025   4.447  0.5034 -0.1937 -0.1666
  751MOL0     C 1299  10.690   7.994   4.458  0.6721 -0.0067  0.5797
  751MOL0     N 1300  10.235   7.676   4.052  0.5045  0.0258 -0.6210
  751MOL0     N 1301  10.151   7.651   3.953 -0.1708  0.6608  0.1968
  751MOL0     C 1302   8.974   7.538   3.923 -0.3836  0.1467  0.1826
  751MOL0     C 1303   8.845   7.592   3.948  0.3550 -0.1554  0.2881
  751MOL0     C 1304   8.460   7.864   3.876  0.3319  0.9985 -0.5924
  751MOL0     C 1305   8.467   7.894   4.020  0.0078  0.2719  0.2616
  751MOL0     C 1306   8.387   7.993   4.084 -0.0957  0.5080  0.6336
  751MOL0     C 1307   8.272   8.036   4.007 -0.8960  0.1084 -0.9424
  751MOL0     O 1308   8.164   8.105   4.058 -0.6562  0.5646  0.8646
  751MOL0     C 1309   8.182   8.176   4.176 -0.5539  0.6889  0.5880
  751MOL0     C 1310   8.090   8.295   4.180  0.1594 -0.2175 -0.8368
  751MOL0     C 1311   8.118   8.375   4.308 -0.8625  1.2765  0.1862
  751MOL0     C 1312   8.010   8.472   4.352 -0.1743  0.0077 -0.2021
  751MOL0     C 1313   7.997   8.585   4.258  0.1624  0.4026  0.1368
  751MOL0     C 1314   7.979   8.684   4.196  0.1899  0.1439  0.2776
  751MOL0     C 1315   8.262   8.001   3.871  0.1616  0.5328 -0.0090
  751MOL0     C 1316   8.349   7.915   3.806  0.3603  0.1094 -0.4744
  751MOL0     C 1317   8.315   7.881   3.661  0.3829 -0.1796  0.4461
  751MOL0     H 1318   8.821   7.833   3.714  0.1901 -1.4692  0.0170
  751MOL0     H 1319   9.044   7.772   3.673 -2.7979  1.3696 -1.7097
  751MOL0     H 1320   9.193   7.609   3.629 -4.0497  1.1870  3.0117
  751MOL0     H 1321   9.285   7.723   3.751 -1.8877  0.3798  1.4374
  751MOL0     H 1322   9.461   7.606   3.636 -0.9193  0.2027  0.3171
  751MOL0     H 1323   9.374   7.456   3.668 -2.1886 -0.2732  0.6784
  751MOL0     H 1324   9.406   7.512   3.921 -2.1002  0.2762 -0.6926
  751MOL0     H 1325   9.506   7.640   3.869 -1.3635 -0.9461  3.3584
  751MOL0     H 1326   9.538   7.338   3.833 -2.8227  1.2167  0.3738
  751MOL0     H 1327   9.649   7.448   3.746  1.2836 -0.3209  0.1444
  751MOL0     H 1328   9.611   7.430   4.052 -0.0504  0.8313 -0.0134
  751MOL0     H 1329   9.726   7.335   3.971 -1.2106 -0.9585  3.2575
  751MOL0     H 1330   9.671   7.650   3.978  1.2533  0.8701 -0.9733
  751MOL0     H 1331   9.792   7.578   4.080  0.1511 -3.3558  0.1959
  751MOL0     H 1332   9.804   7.575   3.776  1.5110 -1.5492  0.1512
  751MOL0     H 1333   9.926   7.509   3.875 -1.6537 -2.4734  2.2217
  751MOL0     H 1334   9.966   7.751   3.798  1.9902 -2.1839  0.4753
  751MOL0     H 1335   9.844   7.804   3.921 -3.7280 -4.4469  2.8108
  751MOL0     H 1336   9.955   7.814   4.159 -0.9901 -2.2101 -0.0403
  751MOL0     H 1337  10.138   7.879   4.309 -0.4926  0.3931 -3.7395
  751MOL0     H 1338  10.226   7.718   4.351  1.3997  1.0714  0.5355
  751MOL0     H 1339  10.430   7.811   4.228 -0.6545 -0.9175 -0.3537
  751MOL0     H 1340  10.324   7.941   4.169  1.1209 -0.2952 -0.8431
  751MOL0     H 1341  10.294   8.045   4.384  1.9810  0.3174  1.8829
  751MOL0     H 1342  10.455   8.041   4.326 -0.7184  0.8565 -0.8960
  751MOL0     H 1343  10.471   7.831   4.499  0.4962 -0.1513 -2.4366
  751MOL0     H 1344  10.316   7.909   4.558  0.4919  1.1153  0.8313
  751MOL0     H 1345  10.602   8.190   4.732  0.9718  1.7194 -0.7983
  751MOL0     H 1346  10.826   8.289   4.659  2.3432 -1.0748 -2.9287
  751MOL0     H 1347  11.234   8.306   4.789 -0.4273 -1.1560 -0.6269
  751MOL0     H 1348  11.447   8.413   4.771  0.1000 -3.4254 -0.8008
  751MOL0     H 1349  11.674   8.389   4.494  1.1877  0.3766 -1.7567
  751MOL0     H 1350  11.606   8.497   4.369 -2.2658  0.5886  0.9214
  751MOL0     H 1351  11.800   8.590   4.595 -1.3585  1.6537  0.6850
  751MOL0     H 1352  11.856   8.530   4.439 -2.0040 -2.2462  0.4011
  751MOL0     H 1353  11.755   8.702   4.312 -1.4305  0.1163 -0.4719
  751MOL0     H 1354  11.686   8.782   4.448  1.7027  1.5075 -0.5357
  751MOL0     H 1355  11.929   8.802   4.542 -0.0603 -0.6476 -0.0578
  751MOL0     H 1356  11.881   8.897   4.404 -1.1905 -0.6747 -0.2831
  751MOL0     H 1357  11.993   8.755   4.242  2.9662 -0.5958 -0.2996
  751MOL0     H 1358  12.039   8.640   4.368  0.3847 -0.2558  0.0769
  751MOL0     H 1359  12.209   8.808   4.266 -2.6928  1.4946 -1.8810
  751MOL0     H 1360  12.113   8.929   4.354 -0.2148  0.3120  1.4334
  751MOL0     H 1361  12.299   8.719   4.467 -0.7450 -1.1825 -1.7886
  751MOL0     H 1362  12.149   8.769   4.563 -1.3860 -1.5706 -1.7520
  751MOL0     H 1363  12.362   8.959   4.464  1.2601 -1.7332 -0.6589
  751MOL0     H 1364  12.221   9.009   4.546  2.6883  1.7145  0.8621
  751MOL0     H 1365  11.365   8.503   4.351 -1.0709  0.4478  0.1118
  751MOL0     H 1366  11.161   8.374   4.365 -0.5279 -0.7723 -0.5216
  751MOL0     H 1367  10.884   7.983   4.365 -1.0961  2.0074 -2.6166
  751MOL0     H 1368  10.644   7.929   4.383  1.5245  0.1572 -0.0988
  751MOL0     H 1369   9.008   7.461   3.992  1.0462 -0.3344 -1.0153
  751MOL0     H 1370   8.783   7.557   4.030 -1.3989  0.3442 -0.7775
  751MOL0     H 1371   8.547   7.858   4.083 -0.3025  1.8623  1.6368
  751MOL0     H 1372   8.395   8.036   4.184 -2.3750 -1.5304  1.7923
  751MOL0     H 1373   8.283   8.218   4.188 -0.8155  1.1850  1.1045
  751MOL0     H 1374   8.168   8.097   4.250 -0.9613 -1.6951 -1.8622
  751MOL0     H 1375   7.987   8.256   4.176 -0.0502  0.0925  0.8562
  751MOL0     H 1376   8.103   8.350   4.087  0.4185 -0.2133 -0.7990
  751MOL0     H 1377   8.221   8.411   4.299 -1.0695  1.8655  0.1448
  751MOL0     H 1378   8.125   8.300   4.387  0.2419  0.0540 -1.0250
  751MOL0     H 1379   7.917   8.414   4.352 -1.0032  1.3051 -0.8054
  751MOL0     H 1380   8.020   8.507   4.456  3.2270 -0.8169 -0.1334
  751MOL0     H 1381   7.971   8.778   4.144 -0.2084  1.2383  2.2199
  751MOL0     H 1382   8.174   8.030   3.814  0.0047 -0.6985 -0.4422
  751MOL0     H 1383   8.207   7.883   3.641  0.4598 -0.3110  0.0041
  751MOL0     H 1384   8.366   7.942   3.586 -1.2947 -0.3349 -0.8724
  751MOL0     H 1385   8.340   7.775   3.650  0.9025 -0.1410  1.1938
  752MOL0     O 1386   2.655  10.460   3.455  0.2980 -0.3285 -0.0351
  752MOL0     C 1387   2.582  10.382   3.506 -0.5587  0.7897  0.1641
  752MOL0     O 1388   2.609  10.249   3.515  0.3549  0.6981  0.4998
  752MOL0     C 1389   2.713  10.198   3.454  0.0247 -0.7211  0.5533
  752MOL0     C 1390   2.766  10.216   3.328 -0.0363  0.0517 -0.1169
  752MOL0     C 1391   2.876  10.140   3.288  0.3551  0.6547  0.2290
  752MOL0     C 1392   2.956  10.070   3.379  0.0894 -0.2479 -0.3515
  752MOL0     O 1393   3.076  10.027   3.329  0.1480 -0.0288  0.4673
  752MOL0     C 1394   3.074   9.891   3.292  0.1300 -0.3664 -0.3622
  752MOL0     C 1395   3.193   9.870   3.204 -0.4792 -0.1969  0.2109
  752MOL0     C 1396   3.222   9.720   3.170 -0.0228 -0.1825 -0.2163
  752MOL0     C 1397   3.110   9.656   3.074 -0.9731 -0.5894 -0.5283
  752MOL0     C 1398   3.156   9.599   2.934  0.3677  0.1778 -0.1308
  752MOL0     C 1399   3.177   9.727   2.848 -0.7649  0.3697  0.3189
  752MOL0     C 1400   3.267   9.688   2.723  0.0470 -0.7132  0.4098
  752MOL0     C 1401   3.307   9.800   2.621  0.2741 -0.5569 -0.3315
  752MOL0     N 1402   3.429   9.861   2.660 -0.1744 -0.5086  0.3388
  752MOL0     C 1403   3.445   9.927   2.778 -0.5647  0.2737 -0.9845
  752MOL0     C 1404   3.586   9.956   2.776 -0.4611  0.2403  1.3976
  752MOL0     C 1405   3.666  10.014   2.889  0.9875 -0.5830 -0.8266
  752MOL0     C 1406   3.771  10.124   2.850  0.8289 -0.8768 -0.2656
  752MOL0     C 1407   3.827  10.191   2.981 -0.1882  0.0693 -0.2802
  752MOL0     C 1408   3.924  10.303   2.953 -0.9037 -0.6347  0.6376
  752MOL0     O 1409   4.049  10.269   2.892 -0.7672  0.0087  0.0305
  752MOL0     C 1410   4.161  10.263   2.973  0.0343  0.0004 -0.0509
  752MOL0     C 1411   4.285  10.284   2.912  0.3273  1.4595 -0.2444
  752MOL0     C 1412   4.407  10.246   2.968 -0.3709  0.7169 -0.7650
  752MOL0     C 1413   4.402  10.212   3.108  0.7535  0.0530  0.1847
  752MOL0     C 1414   4.531  10.164   3.170 -0.1263  1.0987 -1.1849
  752MOL0     O 1415   4.639  10.183   3.082 -0.6236 -0.4371  0.7891
  752MOL0     C 1416   4.761  10.145   3.136 -1.0558  0.1731  0.4512
  752MOL0     C 1417   4.845  10.064   3.061 -0.6686 -0.1359  0.0753
  752MOL0     C 1418   4.975  10.021   3.094  0.3094 -0.2753  0.0779
  752MOL0     C 1419   5.016  10.057   3.222  0.2707 -0.3482  0.3612
  752MOL0     O 1420   5.137  10.017   3.274  0.8506  0.8493  0.1058
  752MOL0     C 1421   5.131   9.919   3.371 -0.4583  0.4862 -0.6056
  752MOL0     C 1422   5.130   9.780   3.297  0.0225 -0.0681 -0.2981
  752MOL0     C 1423   5.249   9.761   3.207  0.7222 -0.0528 -0.3736
  752MOL0     C 1424   5.240   9.625   3.137 -0.1377 -0.5841 -0.0808
  752MOL0     C 1425   5.362   9.563   3.063 -0.3964 -0.4475  0.0259
  752MOL0     C 1426   5.415   9.652   2.951 -0.6468  0.8837 -0.0233
  752MOL0     C 1427   5.555   9.608   2.897 -0.2162  0.2985 -0.5715
  752MOL0     C 1428   5.558   9.654   2.749  0.4893  0.5834 -0.5714
  752MOL0    Cl 1429   5.712   9.597   2.686 -0.0393 -0.0974  0.3990
  752MOL0     C 1430   4.935  10.138   3.305 -0.5896 -0.6403 -0.2040
  752MOL0     C 1431   4.811  10.188   3.262  0.3098  0.8476  0.2548
  752MOL0     O 1432   4.529  10.114   3.284 -0.1299 -0.1915  0.1232
  752MOL0     C 1433   4.281  10.197   3.177  0.9864  0.2695  0.6758
  752MOL0     C 1434   4.160  10.228   3.111 -0.0444  0.0956  0.5869
  752MOL0     N 1435   3.642   9.903   2.658 -0.4619 -0.5143  0.8459
  752MOL0     N 1436   3.551   9.849   2.587 -0.1018  0.3774  0.0838
  752MOL0     C 1437   2.920  10.070   3.516  0.6867  0.7930  0.5819
  752MOL0     C 1438   2.793  10.130   3.549 -0.3318 -0.3472 -0.6642
  752MOL0     C 1439   2.439  10.415   3.543 -0.3723 -1.1180  0.1385
  752MOL0     C 1440   2.351  10.321   3.605  0.6261  0.0415  0.0268
  752MOL0     C 1441   2.217  10.342   3.621  0.2963  0.5932  0.1848
  752MOL0     C 1442   2.152  10.459   3.588 -0.0051  0.0211  0.0562
  752MOL0     O 1443   2.021  10.473   3.612 -0.1191  0.5853 -0.0160
  752MOL0     C 1444   1.940  10.559   3.535 -0.5992  0.6379 -0.0625
  752MOL0     C 1445   1.788  10.510   3.540  0.1220 -1.0017  0.5304
  752MOL0     C 1446   1.742  10.502   3.686 -0.3354  0.2373  0.8024
  752MOL0     C 1447   1.636  10.391   3.710 -0.2021  0.7678 -0.4849
  752MOL0     C 1448   1.500  10.429   3.662 -0.8000  0.1049 -0.1656
  752MOL0     C 1449   1.395  10.458   3.621  0.3278 -0.2978 -0.0616
  752MOL0     C 1450   2.229  10.560   3.531  0.6233  0.2246 -1.8378
  752MOL0     C 1451   2.368  10.536   3.499 -0.4189 -0.0744 -0.4766
  752MOL0     C 1452   2.425  10.643   3.410 -0.4512  0.6375 -0.6693
  752MOL0     H 1453   2.722  10.275   3.248  2.5708  0.0100 -1.6812
  752MOL0     H 1454   2.926  10.141   3.192 -1.2031 -0.2756 -0.6160
  752MOL0     H 1455   3.082   9.828   3.381 -0.6236  0.1800  0.1030
  752MOL0     H 1456   2.984   9.869   3.234  1.8428 -2.7488 -2.3087
  752MOL0     H 1457   3.282   9.905   3.257  0.1150 -0.9036 -0.2877
  752MOL0     H 1458   3.176   9.932   3.115 -0.9646 -2.6523 -1.5230
  752MOL0     H 1459   3.248   9.664   3.261  0.5708 -0.0683 -0.3100
  752MOL0     H 1460   3.319   9.720   3.120  0.0340 -2.3004 -0.1903
  752MOL0     H 1461   3.065   9.575   3.132 -0.7764 -1.6768 -1.8277
  752MOL0     H 1462   3.028   9.724   3.047 -1.4472 -1.3065 -0.9268
  752MOL0     H 1463   3.237   9.527   2.945 -0.0249 -0.3066 -0.3295
  752MOL0     H 1464   3.078   9.533   2.894  0.8026 -2.7167  3.2764
  752MOL0     H 1465   3.095   9.781   2.798  2.4376  1.2358 -4.7391
  752MOL0     H 1466   3.226   9.802   2.911  0.1826 -0.6550  0.8370
  752MOL0     H 1467   3.226   9.598   2.675  4.1666 -1.6591 -1.7867
  752MOL0     H 1468   3.355   9.645   2.772 -1.4373 -0.7539  3.2819
  752MOL0     H 1469   3.312   9.764   2.518  2.9318 -1.3179 -0.0135
  752MOL0     H 1470   3.236   9.883   2.620  0.3258 -0.5046  0.1134
  752MOL0     H 1471   3.381   9.948   2.862  0.3477 -0.1414 -0.1733
  752MOL0     H 1472   3.604  10.061   2.966  2.6212  0.5210 -0.1249
  752MOL0     H 1473   3.722   9.928   2.925  0.5879 -1.4160 -2.1253
  752MOL0     H 1474   3.843  10.071   2.788  0.5021 -0.7590 -0.7571
  752MOL0     H 1475   3.726  10.200   2.785  1.0709 -0.0470  0.5194
  752MOL0     H 1476   3.879  10.119   3.045 -0.2682 -0.9050 -1.2829
  752MOL0     H 1477   3.737  10.233   3.027 -0.3316 -1.9305  1.4217
  752MOL0     H 1478   3.948  10.363   3.041 -0.5259 -0.4340  0.4032
  752MOL0     H 1479   3.873  10.367   2.881  1.7587  0.0917 -0.7284
  752MOL0     H 1480   4.299  10.328   2.814 -1.8362  1.6268 -0.5190
  752MOL0     H 1481   4.498  10.256   2.909  0.7906  0.4722  0.8916
  752MOL0     H 1482   4.802  10.040   2.964  1.6473  1.5004 -1.4654
  752MOL0     H 1483   5.032   9.957   3.028 -0.1549  0.0343 -0.6341
  752MOL0     H 1484   5.222   9.916   3.431 -0.6827 -2.1621 -0.2929
  752MOL0     H 1485   5.044   9.925   3.438  1.2684 -0.0721  1.8213
  752MOL0     H 1486   5.145   9.709   3.379 -1.5758 -1.9698 -1.5392
  752MOL0     H 1487   5.036   9.763   3.244 -0.1553  2.1603 -0.7942
  752MOL0     H 1488   5.253   9.836   3.127 -0.5787 -0.1339 -0.5286
  752MOL0     H 1489   5.340   9.759   3.268  1.5164 -1.4600 -1.5543
  752MOL0     H 1490   5.151   9.632   3.073  0.4313  1.1252 -0.7371
  752MOL0     H 1491   5.214   9.553   3.215  0.3948 -1.7704 -0.9751
  752MOL0     H 1492   5.328   9.466   3.025  0.4738 -1.3994  1.5435
  752MOL0     H 1493   5.444   9.534   3.130 -1.3006  0.4494  1.5852
  752MOL0     H 1494   5.340   9.652   2.871  0.0646 -0.3489 -0.7190
  752MOL0     H 1495   5.431   9.748   3.002 -0.3274 -0.0231  1.6607
  752MOL0     H 1496   5.567   9.500   2.902  1.5789  0.4151 -1.5309
  752MOL0     H 1497   5.633   9.653   2.958 -0.8011 -1.4133  1.5467
  752MOL0     H 1498   5.470   9.602   2.711  2.1544 -2.6986 -0.2879
  752MOL0     H 1499   5.550   9.763   2.746  1.1338  0.7210  1.2202
  752MOL0     H 1500   4.958  10.155   3.409  2.6616  0.4215 -0.9891
  752MOL0     H 1501   4.750  10.244   3.333  0.1289  1.1977 -0.1770
  752MOL0     H 1502   4.287  10.158   3.278 -0.6695 -0.9990  0.3463
  752MOL0     H 1503   4.064  10.216   3.159 -0.1555 -1.2419  0.0698
  752MOL0     H 1504   2.966  10.025   3.604  1.2692  1.5215  0.6555
  752MOL0     H 1505   2.769  10.109   3.652  3.9871 -1.7156  0.2983
  752MOL0     H 1506   2.403  10.237   3.648  2.7062  1.4716  0.4689
  752MOL0     H 1507   2.168  10.264   3.678  0.3959 -1.1266 -1.9345
  752MOL0     H 1508   1.976  10.566   3.432 -0.9583 -1.0275 -0.3426
  752MOL0     H 1509   1.949  10.659   3.579  1.2290  1.4260 -2.0765
  752MOL0     H 1510   1.786  10.420   3.479 -1.0781 -0.4488 -0.2721
  752MOL0     H 1511   1.722  10.585   3.496 -3.3228 -3.6372  0.8661
  752MOL0     H 1512   1.696  10.596   3.718 -1.0938 -0.4937  1.9350
  752MOL0     H 1513   1.830  10.499   3.751  0.9400  1.1645 -0.8091
  752MOL0     H 1514   1.674  10.302   3.657 -1.9627  1.0654 -2.3781
  752MOL0     H 1515   1.632  10.370   3.817  1.5908 -2.5195 -0.9233
  752MOL0     H 1516   1.296  10.491   3.596  0.4465  0.9613  1.0693
  752MOL0     H 1517   2.173  10.649   3.503 -2.2116 -0.4914  0.9921
  752MOL0     H 1518   2.529  10.675   3.422 -0.0877 -1.0312  1.1110
  752MOL0     H 1519   2.410  10.608   3.308 -2.1929  0.9024 -0.5333
  752MOL0     H 1520   2.360  10.730   3.425 -2.2657 -0.7604 -0.0435
  753MOL0     O 1521   1.002  11.243   3.720 -0.5055 -0.2253 -0.1160
  753MOL0     C 1522   0.965  11.347   3.772  0.4313  0.7988  0.4300
  753MOL0     O 1523   1.044  11.431   3.834 -0.6063 -0.1590 -0.1273
  753MOL0     C 1524   1.186  11.425   3.818 -0.0403 -1.2602 -0.2870
  753MOL0     C 1525   1.237  11.412   3.685 -0.3462  0.8703  0.2392
  753MOL0     C 1526   1.377  11.407   3.671 -0.8666 -0.7029  0.2337
  753MOL0     C 1527   1.472  11.415   3.781 -0.4327 -0.2242 -0.0623
  753MOL0     O 1528   1.611  11.416   3.762 -0.2895  0.2872  0.3070
  753MOL0     C 1529   1.689  11.381   3.880  0.4529  0.6523 -1.0031
  753MOL0     C 1530   1.835  11.356   3.851 -0.7826  0.2870 -0.2168
  753MOL0     C 1531   1.930  11.329   3.965  0.8884  0.7779  0.0651
  753MOL0     C 1532   2.081  11.306   3.921  0.6977  0.2450  0.3510
  753MOL0     C 1533   2.166  11.274   4.041  0.5826 -0.0998  0.0408
  753MOL0     C 1534   2.313  11.252   3.985  0.9527 -0.4832  0.0120
  753MOL0     C 1535   2.405  11.178   4.092  0.2190 -0.0406  1.2610
  753MOL0     C 1536   2.546  11.129   4.032 -0.5403 -0.0620 -0.0906
  753MOL0     N 1537   2.633  11.238   3.988  0.9821 -1.0716  0.0392
  753MOL0     C 1538   2.628  11.300   3.861 -1.0327  0.8836  0.0072
  753MOL0     C 1539   2.682  11.426   3.875  0.1004 -0.2944  0.7891
  753MOL0     C 1540   2.685  11.534   3.774 -0.0204  0.6194 -0.3135
  753MOL0     C 1541   2.825  11.550   3.724 -0.8963  0.1309  0.5890
  753MOL0     C 1542   2.858  11.451   3.605 -0.0634 -0.4705  0.3548
  753MOL0     C 1543   3.006  11.449   3.570 -0.3720 -0.1445  0.7082
  753MOL0     O 1544   3.027  11.368   3.457  0.3012 -0.1147  0.3394
  753MOL0     C 1545   3.162  11.347   3.427 -0.5848 -0.2425  0.1888
  753MOL0     C 1546   3.203  11.352   3.285  0.4195  0.2550 -0.6018
  753MOL0     C 1547   3.335  11.334   3.245 -0.6037 -0.1014 -0.6130
  753MOL0     C 1548   3.444  11.310   3.334  0.3706  0.0389  0.1995
  753MOL0     C 1549   3.583  11.284   3.285  0.6697  0.4644 -0.7269
  753MOL0     O 1550   3.667  11.246   3.388 -0.9144  0.0908 -0.2672
  753MOL0     C 1551   3.800  11.249   3.362 -0.7310 -0.2821 -0.2395
  753MOL0     C 1552   3.879  11.147   3.422  0.1905 -0.6279  0.3931
  753MOL0     C 1553   4.020  11.134   3.409 -0.3924 -0.6248  0.0837
  753MOL0     C 1554   4.084  11.230   3.326 -1.0943  0.3179 -0.7057
  753MOL0     O 1555   4.220  11.227   3.319  0.0030 -1.2968 -0.6079
  753MOL0     C 1556   4.284  11.113   3.271  0.6261  0.6032  0.5364
  753MOL0     C 1557   4.428  11.131   3.266 -0.1901 -0.4219 -0.4807
  753MOL0     C 1558   4.499  11.002   3.223 -0.4637  0.2369 -0.0891
  753MOL0     C 1559   4.642  11.029   3.174  0.7943  0.5616  0.9543
  753MOL0     C 1560   4.729  11.077   3.286  0.5604 -0.0542  0.4409
  753MOL0     C 1561   4.878  11.047   3.271 -0.0924  0.7538 -0.6596
  753MOL0     C 1562   4.930  10.903   3.287  0.2808  0.5170 -0.1250
  753MOL0     C 1563   5.090  10.904   3.292 -0.4746  0.0992  1.0071
  753MOL0    Cl 1564   5.164  10.746   3.320 -0.2408 -0.4047 -0.5720
  753MOL0     C 1565   4.013  11.343   3.281 -1.0325 -0.1846 -0.3699
  753MOL0     C 1566   3.873  11.342   3.291 -0.1717 -0.5129  0.0886
  753MOL0     O 1567   3.610  11.279   3.162  0.6442 -0.2305 -0.3101
  753MOL0     C 1568   3.407  11.304   3.471  0.1406  0.1921  0.1140
  753MOL0     C 1569   3.277  11.327   3.513  0.2868  0.5998  0.5496
  753MOL0     N 1570   2.714  11.436   4.007 -0.0289 -0.0180 -0.1738
  753MOL0     N 1571   2.681  11.336   4.075  0.0368  0.3839  0.2223
  753MOL0     C 1572   1.413  11.439   3.910 -0.2553  0.5425 -0.4735
  753MOL0     C 1573   1.275  11.445   3.928  0.1166  0.1750  0.3004
  753MOL0     C 1574   0.822  11.379   3.757 -0.2834  0.4905  1.1840
  753MOL0     C 1575   0.752  11.327   3.648  0.2291  0.3851 -0.4505
  753MOL0     C 1576   0.611  11.336   3.634 -0.5679 -0.1850  0.9896
  753MOL0     C 1577   0.545  11.405   3.738  0.2812  0.4443  1.0165
  753MOL0     O 1578   0.418  11.439   3.733  0.6358 -0.7862  0.0818
  753MOL0     C 1579   0.326  11.387   3.631 -0.0769  0.0272 -0.5162
  753MOL0     C 1580   0.196  11.463   3.645 -0.3416  0.4085  0.2388
  753MOL0     C 1581   0.092  11.451   3.525 -0.0337  0.9204  0.5684
  753MOL0     C 1582   0.122  11.466   3.371 -0.1639 -0.2160 -0.0892
  753MOL0     C 1583   0.190  11.342   3.316  0.6858  0.5479 -0.8861
  753MOL0     C 1584   0.229  11.238   3.260  0.5499 -0.5971  0.2362
  753MOL0     C 1585   0.616  11.466   3.837  0.1946 -0.5091 -0.1131
  753MOL0     C 1586   0.754  11.468   3.842  0.3305 -0.3768  0.5266
  753MOL0     C 1587   0.825  11.553   3.957 -0.5633 -0.3582  0.0396
  753MOL0     H 1588   1.176  11.402   3.596  1.7238  2.8800 -1.5394
  753MOL0     H 1589   1.427  11.396   3.575  4.1516  0.2636  2.3943
  753MOL0     H 1590   1.673  11.469   3.943  1.4690  1.4150 -1.7807
  753MOL0     H 1591   1.653  11.300   3.944  0.4852  0.6105 -1.0377
  753MOL0     H 1592   1.877  11.444   3.801 -0.8030  0.1175 -0.5353
  753MOL0     H 1593   1.844  11.273   3.781 -1.1089  1.3226 -1.5184
  753MOL0     H 1594   1.902  11.233   4.010 -0.9433  1.3177  0.1630
  753MOL0     H 1595   1.915  11.404   4.043 -0.7873  2.2706 -1.5832
  753MOL0     H 1596   2.092  11.224   3.849 -3.6507 -1.5476  1.4268
  753MOL0     H 1597   2.115  11.395   3.867  3.0696 -1.3062 -0.8677
  753MOL0     H 1598   2.173  11.354   4.115 -2.6142  0.8785 -0.5390
  753MOL0     H 1599   2.127  11.183   4.088  1.9938 -2.0497 -2.2858
  753MOL0     H 1600   2.315  11.188   3.896  1.9313 -0.4686  0.0127
  753MOL0     H 1601   2.352  11.352   3.964 -2.9426  1.7747  2.3445
  753MOL0     H 1602   2.350  11.085   4.110  1.1260 -1.1588 -1.2481
  753MOL0     H 1603   2.423  11.235   4.183 -1.0968  0.4288  1.2434
  753MOL0     H 1604   2.594  11.069   4.110 -0.8770  0.1823  0.3106
  753MOL0     H 1605   2.527  11.062   3.948  3.2422 -1.7473  0.1731
  753MOL0     H 1606   2.587  11.273   3.764 -0.2170  0.0219 -0.1107
  753MOL0     H 1607   2.611  11.508   3.698 -1.1078  1.0922  0.5476
  753MOL0     H 1608   2.647  11.631   3.807  0.0431  0.9484 -1.1967
  753MOL0     H 1609   2.830  11.652   3.685  0.2516  1.1636  3.2147
  753MOL0     H 1610   2.897  11.541   3.806 -1.0911  2.7222  1.1370
  753MOL0     H 1611   2.808  11.476   3.512  0.1529  0.0755  0.3819
  753MOL0     H 1612   2.825  11.351   3.636 -2.6018 -1.0292 -3.5210
  753MOL0     H 1613   3.068  11.416   3.654  1.0507  2.5276  0.8159
  753MOL0     H 1614   3.055  11.541   3.538  2.5998 -1.1082  2.1208
  753MOL0     H 1615   3.131  11.374   3.206  0.5753  0.8156 -0.5903
  753MOL0     H 1616   3.353  11.331   3.138  0.7713  2.3577 -0.5194
  753MOL0     H 1617   3.834  11.081   3.496 -1.3130 -0.7398 -0.5841
  753MOL0     H 1618   4.074  11.058   3.465  1.1825  0.7086  0.4476
  753MOL0     H 1619   4.265  11.026   3.335  1.8001  0.2357  0.4046
  753MOL0     H 1620   4.238  11.084   3.176  0.3822  3.3122 -0.2530
  753MOL0     H 1621   4.453  11.194   3.180  0.2793 -1.0380 -0.8048
  753MOL0     H 1622   4.463  11.167   3.363  0.2055  0.4122 -0.9276
  753MOL0     H 1623   4.495  10.937   3.311  1.1697  0.5367  0.2389
  753MOL0     H 1624   4.436  10.956   3.147 -2.1175  0.7123  0.9429
  753MOL0     H 1625   4.622  11.095   3.089  3.3043 -0.6306 -0.6762
  753MOL0     H 1626   4.686  10.937   3.134  2.9093  2.5958 -1.7225
  753MOL0     H 1627   4.695  11.015   3.370 -1.2816  1.3440  0.7745
  753MOL0     H 1628   4.713  11.183   3.306 -0.0243 -0.4791  2.4417
  753MOL0     H 1629   4.918  11.085   3.177 -1.2060 -0.3987 -1.6393
  753MOL0     H 1630   4.921  11.099   3.357  1.1579 -2.2082  0.6162
  753MOL0     H 1631   4.904  10.834   3.206  2.8591  1.4504 -1.9037
  753MOL0     H 1632   4.891  10.854   3.376  0.4534  0.7708  0.0899
  753MOL0     H 1633   5.126  10.940   3.195 -0.1777  0.6519  1.3139
  753MOL0     H 1634   5.116  10.972   3.374 -2.9980 -0.2409  2.1869
  753MOL0     H 1635   4.061  11.427   3.232 -2.7358  2.5682  2.2834
  753MOL0     H 1636   3.809  11.416   3.244 -0.3648  0.4580  1.8027
  753MOL0     H 1637   3.482  11.262   3.538 -0.4574 -3.4299 -1.2333
  753MOL0     H 1638   3.259  11.325   3.620  0.3925 -0.0359  0.5583
  753MOL0     H 1639   1.463  11.452   4.005  2.4642 -6.1967 -0.4349
  753MOL0     H 1640   1.236  11.463   4.028  2.1385 -2.5647  1.7016
  753MOL0     H 1641   0.800  11.263   3.576 -0.9776  0.2468 -1.1671
  753MOL0     H 1642   0.554  11.283   3.558 -1.1174 -1.6354  2.3411
  753MOL0     H 1643   0.309  11.285   3.666  1.5562  0.0565  0.4504
  753MOL0     H 1644   0.367  11.392   3.530 -1.9633 -0.1036 -1.3483
  753MOL0     H 1645   0.221  11.569   3.647  1.0778  0.1028 -0.0008
  753MOL0     H 1646   0.147  11.441   3.740  0.0412  1.1485  0.6116
  753MOL0     H 1647   0.014  11.523   3.551 -2.3468 -1.4047  0.4900
  753MOL0     H 1648   0.044  11.354   3.539  2.0391 -0.4176 -1.0725
  753MOL0     H 1649   0.033  11.484   3.311 -0.9570 -0.1535  1.0893
  753MOL0     H 1650   0.191  11.551   3.361 -1.2711  1.0480  2.2165
  753MOL0     H 1651   0.253  11.141   3.220 -0.4404 -0.8442  0.2092
  753MOL0     H 1652   0.567  11.532   3.908  0.8724 -2.1587  1.9891
  753MOL0     H 1653   0.756  11.612   4.018 -0.6767 -0.4524  0.0032
  753MOL0     H 1654   0.891  11.506   4.030  0.4026  2.1963  0.8883
  753MOL0     H 1655   0.887  11.632   3.914  1.1539 -2.7156 -2.1069
  754MOL0     O 1656   8.035   2.449   0.707  0.3159  0.4985 -0.0125
  754MOL0     C 1657   8.010   2.368   0.613 -0.2574 -0.4248 -0.2773
  754MOL0     O 1658   8.104   2.299   0.537  0.1014  0.7622 -0.4349
  754MOL0     C 1659   8.234   2.324   0.565 -0.0261  0.2157 -0.5211
  754MOL0     C 1660   8.304   2.417   0.487 -0.3304 -0.6096  0.2618
  754MOL0     C 1661   8.445   2.427   0.494 -0.0981  0.3089  0.1939
  754MOL0     C 1662   8.519   2.351   0.592 -0.9540 -0.0236  0.4074
  754MOL0     O 1663   8.656   2.359   0.624  0.4207 -0.0795 -0.2321
  754MOL0     C 1664   8.756   2.389   0.521 -1.1620  0.2835 -0.7458
  754MOL0     C 1665   8.886   2.406   0.594  0.3510 -0.1905 -0.4814
  754MOL0     C 1666   9.005   2.411   0.507 -0.4385 -0.3257  0.4429
  754MOL0     C 1667   9.077   2.278   0.476  1.1382  0.0416 -0.0825
  754MOL0     C 1668   9.201   2.302   0.393  0.2161  0.3986 -0.3678
  754MOL0     C 1669   9.267   2.174   0.348  0.7106 -0.3093 -0.3302
  754MOL0     C 1670   9.373   2.195   0.247  0.8341  0.0982  0.6518
  754MOL0     C 1671   9.454   2.066   0.216  0.0344  0.2268  0.6885
  754MOL0     N 1672   9.537   2.084   0.097 -0.3298 -0.4852  0.2384
  754MOL0     C 1673   9.672   2.122   0.104  0.7599  0.4808  0.3777
  754MOL0     C 1674   9.699   2.131  -0.033 -0.2966  0.4336  0.0004
  754MOL0     C 1675   9.838   2.173  -0.082  0.3516  0.7894  1.2039
  754MOL0     C 1676   9.956   2.157   0.025  0.2993 -0.9442 -0.4801
  754MOL0     C 1677  10.101   2.205  -0.031 -0.0824  0.3027  0.5993
  754MOL0     C 1678  10.202   2.193   0.085  0.6292  0.0296  0.1284
  754MOL0     O 1679  10.330   2.180   0.040  0.4383 -0.1277 -0.4183
  754MOL0     C 1680  10.435   2.136   0.122  0.1629 -0.8437 -0.3463
  754MOL0     C 1681  10.447   2.182   0.256 -1.0749 -0.2906  1.1909
  754MOL0     C 1682  10.554   2.135   0.328 -1.1958 -0.2333  0.5891
  754MOL0     C 1683  10.658   2.050   0.276 -0.2011 -0.4921 -0.1775
  754MOL0     C 1684  10.783   2.015   0.350  0.4114 -0.6768  0.2700
  754MOL0     O 1685  10.855   1.907   0.299  0.3310 -0.1558  0.5964
  754MOL0     C 1686  10.987   1.897   0.308  0.2018  0.1042 -0.0611
  754MOL0     C 1687  11.075   2.004   0.297 -0.2614  0.2250 -1.2804
  754MOL0     C 1688  11.212   1.993   0.316 -0.4586 -0.4450 -0.6986
  754MOL0     C 1689  11.264   1.873   0.353 -0.0966  0.6197 -0.5296
  754MOL0     O 1690  11.402   1.861   0.387 -0.1058 -0.6874 -0.3398
  754MOL0     C 1691  11.434   1.752   0.478  0.0198 -0.2460 -0.0537
  754MOL0     C 1692  11.567   1.769   0.542 -0.2511 -0.1149 -0.4990
  754MOL0     C 1693  11.575   1.882   0.637  0.1397 -0.8187  0.2105
  754MOL0     C 1694  11.726   1.931   0.645  0.4524  0.1575  0.3563
  754MOL0     C 1695  11.758   2.047   0.732  0.0856 -0.4279 -0.4002
  754MOL0     C 1696  11.906   2.075   0.732  0.4994 -0.0308 -1.2102
  754MOL0     C 1697  11.999   1.949   0.739  0.5571  0.4507  0.0771
  754MOL0     C 1698  12.144   1.984   0.747 -0.1100 -0.9619 -0.6644
  754MOL0    Cl 1699  12.264   1.854   0.737  0.4256 -0.3025 -0.2187
  754MOL0     C 1700  11.178   1.762   0.359  0.7073  0.1982 -0.3909
  754MOL0     C 1701  11.041   1.770   0.328 -0.0416  0.3162  0.0030
  754MOL0     O 1702  10.816   2.082   0.449  0.1943  0.2492 -0.0999
  754MOL0     C 1703  10.634   1.996   0.145  0.0577  1.2826  0.1382
  754MOL0     C 1704  10.520   2.038   0.074 -0.2389  0.7390 -0.4072
  754MOL0     N 1705   9.582   2.114  -0.113 -0.0589 -0.3175 -0.1862
  754MOL0     N 1706   9.490   2.091  -0.032  0.1402  0.2715  0.9842
  754MOL0     C 1707   8.446   2.250   0.664  0.2004 -0.0261 -0.2893
  754MOL0     C 1708   8.307   2.239   0.652 -0.1404  0.4889 -0.7530
  754MOL0     C 1709   7.864   2.353   0.574 -0.7598  0.2490 -0.2369
  754MOL0     C 1710   7.831   2.292   0.447  0.5593  0.0407 -0.7193
  754MOL0     C 1711   7.696   2.282   0.409  0.8568  0.4211 -0.3956
  754MOL0     C 1712   7.593   2.314   0.496  1.2278 -0.4108 -0.0086
  754MOL0     O 1713   7.458   2.299   0.470 -0.1703 -0.6040 -0.1601
  754MOL0     C 1714   7.414   2.271   0.337  0.3566  0.2269 -0.5190
  754MOL0     C 1715   7.277   2.237   0.357 -0.7032 -0.6424 -0.8410
  754MOL0     C 1716   7.209   2.199   0.230 -0.8985  0.3503 -0.4738
  754MOL0     C 1717   7.063   2.160   0.247 -0.7372  0.6285 -0.5826
  754MOL0     C 1718   6.986   2.135   0.125  0.2687  0.0663  0.4556
  754MOL0     C 1719   6.912   2.120   0.031 -0.1277 -0.9647  0.0731
  754MOL0     C 1720   7.630   2.354   0.625 -0.2915 -0.0305  0.4760
  754MOL0     C 1721   7.757   2.370   0.672 -0.5149  0.0572  0.5722
  754MOL0     C 1722   7.786   2.408   0.820 -0.1819 -0.1018  0.4563
  754MOL0     H 1723   8.260   2.469   0.403 -1.8683 -1.6759  0.3504
  754MOL0     H 1724   8.496   2.502   0.435 -0.1734  0.8652  0.8117
  754MOL0     H 1725   8.766   2.304   0.453  2.1417 -0.9823  1.1135
  754MOL0     H 1726   8.720   2.480   0.472 -0.9906  0.6823 -0.1345
  754MOL0     H 1727   8.907   2.317   0.654 -0.0313 -0.0522 -0.1427
  754MOL0     H 1728   8.879   2.495   0.658 -1.3842 -2.5253  2.8596
  754MOL0     H 1729   9.073   2.485   0.550 -0.3572  1.4090 -2.3830
  754MOL0     H 1730   8.975   2.448   0.408 -1.2381  1.5798  1.3433
  754MOL0     H 1731   9.092   2.243   0.578 -3.0515  0.6235  0.9280
  754MOL0     H 1732   9.008   2.209   0.426 -2.0198  1.7301  1.6342
  754MOL0     H 1733   9.188   2.367   0.307  2.3191 -0.5187 -1.4419
  754MOL0     H 1734   9.273   2.353   0.458 -0.9318  0.7315  0.6858
  754MOL0     H 1735   9.311   2.134   0.439 -1.2804 -1.1588  0.3071
  754MOL0     H 1736   9.193   2.105   0.306  1.5137 -1.7656  0.5789
  754MOL0     H 1737   9.450   2.268   0.275 -0.5013  1.4981  0.7969
  754MOL0     H 1738   9.315   2.233   0.162 -0.2797 -0.1147  1.3003
  754MOL0     H 1739   9.506   2.042   0.310 -2.9678 -2.8675  1.7861
  754MOL0     H 1740   9.389   1.978   0.209 -0.1734  0.3676  0.8165
  754MOL0     H 1741   9.737   2.133   0.190  0.8865 -1.3675  0.5512
  754MOL0     H 1742   9.860   2.121  -0.175 -0.3498  2.5127  0.0337
  754MOL0     H 1743   9.832   2.279  -0.106  0.2008  0.7509  1.0766
  754MOL0     H 1744   9.921   2.214   0.112  0.7621  1.8932 -2.0311
  754MOL0     H 1745   9.960   2.051   0.053 -0.1289 -1.6244 -2.7904
  754MOL0     H 1746  10.081   2.307  -0.066 -0.7300 -0.7866 -2.4663
  754MOL0     H 1747  10.128   2.151  -0.122  1.7706  0.9346  0.7443
  754MOL0     H 1748  10.176   2.104   0.143  0.9359 -1.1104 -1.4131
  754MOL0     H 1749  10.187   2.276   0.155 -3.4076 -1.7204  1.6650
  754MOL0     H 1750  10.376   2.254   0.296  0.1877  0.8572  1.4554
  754MOL0     H 1751  10.566   2.182   0.425  0.7270  2.4077 -0.7867
  754MOL0     H 1752  11.025   2.097   0.270  0.2345  0.8270 -0.2058
  754MOL0     H 1753  11.281   2.077   0.310 -0.1214 -0.4236  2.1080
  754MOL0     H 1754  11.355   1.741   0.553 -1.2414  0.1411 -1.2801
  754MOL0     H 1755  11.437   1.665   0.413  4.0553 -1.4225  1.3967
  754MOL0     H 1756  11.583   1.675   0.595 -2.5867 -2.1719 -3.1157
  754MOL0     H 1757  11.646   1.779   0.468 -1.9658 -1.7208 -2.6794
  754MOL0     H 1758  11.505   1.957   0.600  0.3237 -0.1132  1.2487
  754MOL0     H 1759  11.536   1.843   0.732 -0.5421 -1.6737 -0.4094
  754MOL0     H 1760  11.761   1.951   0.544 -0.1806  0.2695  0.1530
  754MOL0     H 1761  11.780   1.841   0.675  2.6472 -0.0262 -3.5035
  754MOL0     H 1762  11.728   2.021   0.834 -1.9724  1.4003 -0.4520
  754MOL0     H 1763  11.707   2.142   0.713 -0.2311 -0.2821  1.0359
  754MOL0     H 1764  11.931   2.143   0.650 -0.7457  1.7272 -0.2042
  754MOL0     H 1765  11.931   2.138   0.818  1.9534 -1.1538 -0.7580
  754MOL0     H 1766  11.997   1.894   0.644  0.4225 -0.2752  0.4947
  754MOL0     H 1767  11.976   1.875   0.816 -1.1858  1.0092  0.1489
  754MOL0     H 1768  12.169   2.052   0.666  0.3176 -0.7292 -0.3428
  754MOL0     H 1769  12.162   2.044   0.837 -1.8164  1.7913 -2.0199
  754MOL0     H 1770  11.216   1.667   0.395  1.4769 -0.1592 -2.0558
  754MOL0     H 1771  10.968   1.690   0.332 -2.0753  2.0399 -0.4699
  754MOL0     H 1772  10.707   1.923   0.112 -1.4372 -0.7882  1.2049
  754MOL0     H 1773  10.498   2.010  -0.029  1.3436  1.6632 -1.0419
  754MOL0     H 1774   8.494   2.202   0.748 -0.2874  1.2504  0.7482
  754MOL0     H 1775   8.259   2.162   0.711  1.5280  0.6444  0.9218
  754MOL0     H 1776   7.913   2.261   0.382 -0.1190 -3.8385  0.0055
  754MOL0     H 1777   7.672   2.253   0.307  0.3517  0.7406 -0.3713
  754MOL0     H 1778   7.463   2.184   0.293  0.3753 -0.9291  1.6301
  754MOL0     H 1779   7.423   2.361   0.276  1.7144  1.1115  0.8984
  754MOL0     H 1780   7.223   2.322   0.398  1.2042  1.2414 -2.0396
  754MOL0     H 1781   7.281   2.161   0.436 -1.8678 -0.1726 -0.2983
  754MOL0     H 1782   7.258   2.119   0.174 -1.3991 -1.0792  1.0337
  754MOL0     H 1783   7.200   2.282   0.160  3.5608  0.0368 -1.6625
  754MOL0     H 1784   7.046   2.067   0.302 -1.5582  2.0500  1.7122
  754MOL0     H 1785   7.012   2.239   0.304  1.0732  0.2784  1.6645
  754MOL0     H 1786   6.851   2.126  -0.057  2.3264  1.2945 -1.6440
  754MOL0     H 1787   7.548   2.388   0.688 -1.0875  7.5165 -3.4701
  754MOL0     H 1788   7.712   2.364   0.887 -0.5284 -0.3189 -0.0683
  754MOL0     H 1789   7.871   2.345   0.849  1.5917  1.4639 -1.0730
  754MOL0     H 1790   7.812   2.512   0.845  0.9271 -0.0223 -0.8715
  755MOL0     O 1791  11.343   4.489   3.707  0.2335  0.6941  0.4142
  755MOL0     C 1792  11.262   4.438   3.785 -0.0201 -0.7631 -0.1207
  755MOL0     O 1793  11.282   4.420   3.917 -0.9299  0.0952  0.4798
  755MOL0     C 1794  11.415   4.399   3.967  0.6933 -0.8908  0.2764
  755MOL0     C 1795  11.533   4.360   3.893  1.0435 -0.6828 -0.1255
  755MOL0     C 1796  11.661   4.356   3.963 -0.0086 -0.2290 -0.6267
  755MOL0     C 1797  11.672   4.372   4.103 -0.0142 -0.2115 -0.1541
  755MOL0     O 1798  11.789   4.375   4.173 -0.2885  0.3289 -0.0873
  755MOL0     C 1799  11.916   4.335   4.107  0.0791 -0.0102  0.5774
  755MOL0     C 1800  12.019   4.301   4.220 -0.3699  0.0616 -0.2520
  755MOL0     C 1801  11.950   4.235   4.351  0.1066 -0.7481  0.3862
  755MOL0     C 1802  12.030   4.126   4.423 -0.0555  0.4598 -0.1375
  755MOL0     C 1803  12.146   4.183   4.506  0.2201  0.4077  1.0830
  755MOL0     C 1804  12.255   4.071   4.523 -0.5982 -0.7084 -0.3619
  755MOL0     C 1805  12.386   4.119   4.574 -0.4189 -0.1738 -0.0859
  755MOL0     C 1806  12.446   4.254   4.523  0.4052  0.1815 -1.0850
  755MOL0     N 1807  12.458   4.278   4.377  0.5073 -0.2849  0.0695
  755MOL0     C 1808  12.456   4.397   4.312  0.3261  0.4115  0.7732
  755MOL0     C 1809  12.479   4.369   4.180  0.2750  0.8899 -0.0002
  755MOL0     C 1810  12.491   4.469   4.064 -0.4535  0.3685 -0.4214
  755MOL0     C 1811  12.357   4.508   4.000  0.5932  0.1634 -0.3075
  755MOL0     C 1812  12.275   4.396   3.927  0.9006 -0.6020 -0.5442
  755MOL0     C 1813  12.152   4.447   3.848  0.4570  0.3877 -0.2545
  755MOL0     O 1814  12.090   4.334   3.790 -0.5569 -0.0693  0.2595
  755MOL0     C 1815  11.977   4.347   3.716 -0.2319  0.0891  0.5902
  755MOL0     C 1816  11.908   4.466   3.688  0.0212 -0.5459  0.4071
  755MOL0     C 1817  11.787   4.460   3.620 -0.1161  0.2503  0.5331
  755MOL0     C 1818  11.733   4.339   3.562  0.0580 -0.9312  0.6130
  755MOL0     C 1819  11.607   4.336   3.479 -0.4604 -1.0077 -0.5919
  755MOL0     O 1820  11.572   4.451   3.420  0.0462  0.5285  0.1994
  755MOL0     C 1821  11.477   4.458   3.319  0.3572 -0.5382  0.7685
  755MOL0     C 1822  11.435   4.369   3.223 -0.6334  0.3142 -0.0095
  755MOL0     C 1823  11.323   4.386   3.137  0.6816 -0.4270 -0.0856
  755MOL0     C 1824  11.236   4.500   3.142 -0.0697 -0.5777  0.0890
  755MOL0     O 1825  11.143   4.527   3.046 -0.8272  0.5982 -0.8834
  755MOL0     C 1826  11.088   4.657   3.033 -0.0726  0.1030 -0.1248
  755MOL0     C 1827  10.970   4.699   3.132 -0.6604 -0.0648 -0.7661
  755MOL0     C 1828  10.913   4.845   3.094  0.6957  1.1707 -0.3118
  755MOL0     C 1829  10.797   4.877   3.182 -0.3656  0.2632 -0.4848
  755MOL0     C 1830  10.721   4.998   3.135  0.2756  0.6381 -1.5765
  755MOL0     C 1831  10.817   5.111   3.104 -0.5542  0.1656  0.1903
  755MOL0     C 1832  10.738   5.239   3.070 -0.4186  0.0664  0.8560
  755MOL0     C 1833  10.837   5.366   3.073  0.2796  0.4345  0.4607
  755MOL0    Cl 1834  10.981   5.351   2.958  0.1486 -0.5293 -0.0747
  755MOL0     C 1835  11.286   4.593   3.241  1.0195  0.2881  0.8211
  755MOL0     C 1836  11.388   4.566   3.328 -0.3894  0.9986 -0.5952
  755MOL0     O 1837  11.551   4.228   3.462  0.5205 -0.3659  0.5475
  755MOL0     C 1838  11.807   4.225   3.585  0.3769  0.3868  0.4115
  755MOL0     C 1839  11.928   4.232   3.658  0.6574 -0.5729  0.2091
  755MOL0     N 1840  12.480   4.232   4.165 -0.5604  0.2804 -0.6113
  755MOL0     N 1841  12.493   4.178   4.282  0.8795 -0.3412  0.3325
  755MOL0     C 1842  11.556   4.390   4.169 -0.0351  0.2598 -0.1287
  755MOL0     C 1843  11.429   4.406   4.106 -0.0717 -1.1326  0.9173
  755MOL0     C 1844  11.122   4.429   3.737 -0.5170 -0.0403  0.2864
  755MOL0     C 1845  11.103   4.432   3.602  0.1274  0.0294 -0.4152
  755MOL0     C 1846  10.975   4.430   3.546  0.7615 -0.1937  0.3377
  755MOL0     C 1847  10.866   4.408   3.624  0.0954  0.5373  0.3314
  755MOL0     O 1848  10.740   4.393   3.581  0.0470 -0.2566 -0.2033
  755MOL0     C 1849  10.707   4.446   3.450  0.0019 -0.9933  0.3834
  755MOL0     C 1850  10.703   4.342   3.327  0.0815  0.2141 -0.3968
  755MOL0     C 1851  10.574   4.362   3.244  0.1433 -0.5845  1.0691
  755MOL0     C 1852  10.593   4.321   3.096 -0.5785  0.2544 -0.2956
  755MOL0     C 1853  10.654   4.424   3.019 -0.0487 -0.0388  0.1130
  755MOL0     C 1854  10.723   4.493   2.947 -0.0134 -0.4957  0.0459
  755MOL0     C 1855  10.880   4.415   3.761  1.0183  0.1188  0.1364
  755MOL0     C 1856  11.006   4.439   3.819 -0.8425  0.5418  0.2269
  755MOL0     C 1857  11.009   4.463   3.970 -0.1826 -0.1646 -0.1716
  755MOL0     H 1858  11.532   4.345   3.786 -1.7434  0.3771 -0.3139
  755MOL0     H 1859  11.742   4.317   3.904  0.2350 -0.9830  0.1911
  755MOL0     H 1860  11.902   4.252   4.036 -2.7787  1.6320 -0.9637
  755MOL0     H 1861  11.955   4.422   4.053  0.9531 -0.4722  0.4445
  755MOL0     H 1862  12.077   4.387   4.256 -0.8079  0.2922 -0.0950
  755MOL0     H 1863  12.089   4.227   4.180  1.5659  1.6892 -0.0847
  755MOL0     H 1864  11.853   4.201   4.314  2.5295 -2.9519 -5.0122
  755MOL0     H 1865  11.926   4.316   4.421 -1.0592 -0.2361 -0.5711
  755MOL0     H 1866  11.958   4.069   4.483 -0.8656  0.1916 -1.3262
  755MOL0     H 1867  12.078   4.048   4.362 -1.7268 -2.6832  2.2826
  755MOL0     H 1868  12.190   4.271   4.459 -0.1287 -0.1457 -0.3514
  755MOL0     H 1869  12.105   4.213   4.603  2.7344  2.0071  1.7302
  755MOL0     H 1870  12.213   3.993   4.588 -4.5708  1.8662  0.4868
  755MOL0     H 1871  12.269   4.034   4.421 -2.5947  0.2856 -1.0576
  755MOL0     H 1872  12.462   4.045   4.547  1.2291  0.5451  2.3147
  755MOL0     H 1873  12.386   4.112   4.683  2.6786 -2.1283 -0.0830
  755MOL0     H 1874  12.382   4.335   4.558 -1.1824  0.5377 -4.4096
  755MOL0     H 1875  12.537   4.271   4.580  0.1526  1.7476 -1.1198
  755MOL0     H 1876  12.427   4.492   4.358 -0.4943 -0.2181  1.6037
  755MOL0     H 1877  12.551   4.558   4.085  3.0110 -0.9368 -3.7076
  755MOL0     H 1878  12.550   4.414   3.991  0.5372  1.9477 -0.8469
  755MOL0     H 1879  12.295   4.561   4.073  1.3288  1.8026 -0.8180
  755MOL0     H 1880  12.375   4.585   3.925  2.2873  3.8664  3.4680
  755MOL0     H 1881  12.247   4.318   3.998  0.7481 -2.5682 -2.6478
  755MOL0     H 1882  12.349   4.350   3.861  0.8843 -1.1323 -0.1974
  755MOL0     H 1883  12.201   4.519   3.782  1.4360  1.2151  1.3064
  755MOL0     H 1884  12.085   4.505   3.912  0.1269 -0.3132  0.0459
  755MOL0     H 1885  11.947   4.559   3.729 -0.5534  0.4569 -1.2493
  755MOL0     H 1886  11.738   4.553   3.593 -0.6123 -0.3773 -0.8653
  755MOL0     H 1887  11.484   4.274   3.207  0.5435  1.0816 -1.1715
  755MOL0     H 1888  11.308   4.306   3.065 -0.9575  1.1218 -1.5792
  755MOL0     H 1889  11.166   4.734   3.027 -2.2512  2.3545 -1.5781
  755MOL0     H 1890  11.043   4.659   2.934 -2.0062  1.0039  0.7190
  755MOL0     H 1891  10.898   4.616   3.133 -0.8169  0.0658 -1.1636
  755MOL0     H 1892  11.013   4.688   3.232  1.3089 -2.9019 -1.7952
  755MOL0     H 1893  10.991   4.922   3.097 -0.1358  2.0451 -0.8487
  755MOL0     H 1894  10.883   4.849   2.989  2.8909  1.8387 -0.9786
  755MOL0     H 1895  10.831   4.878   3.286 -1.1580 -3.0055 -0.0786
  755MOL0     H 1896  10.725   4.794   3.185 -1.5217  1.0491 -3.2644
  755MOL0     H 1897  10.656   5.032   3.216  0.9207 -0.8670 -0.3654
  755MOL0     H 1898  10.656   4.978   3.049  0.8160 -1.2259 -1.6145
  755MOL0     H 1899  10.891   5.131   3.182 -1.5093  0.5411  1.0210
  755MOL0     H 1900  10.867   5.084   3.010 -0.6186  0.6724  0.0116
  755MOL0     H 1901  10.655   5.256   3.140  0.6615 -0.3598  2.2705
  755MOL0     H 1902  10.695   5.237   2.969  0.0527  2.5340  0.5521
  755MOL0     H 1903  10.795   5.464   3.048  0.7871  0.2548 -1.2652
  755MOL0     H 1904  10.866   5.379   3.177 -2.0343 -3.0307  1.6985
  755MOL0     H 1905  11.238   4.689   3.257 -1.2360 -1.0432  2.6761
  755MOL0     H 1906  11.408   4.628   3.414  0.8630 -2.2256  1.6458
  755MOL0     H 1907  11.788   4.131   3.534  2.4507 -0.4845  1.1669
  755MOL0     H 1908  11.973   4.133   3.660 -1.0574 -1.3761  0.3664
  755MOL0     H 1909  11.555   4.385   4.277 -1.3191 -0.3441 -0.1454
  755MOL0     H 1910  11.335   4.419   4.159  0.0957  2.7587  0.5475
  755MOL0     H 1911  11.178   4.417   3.524 -0.5830 -3.7426 -0.5575
  755MOL0     H 1912  10.958   4.416   3.440 -2.6252 -1.8274  0.9373
  755MOL0     H 1913  10.767   4.530   3.414 -3.7935  0.5002 -3.4001
  755MOL0     H 1914  10.605   4.480   3.472 -0.0683  0.0277 -1.3595
  755MOL0     H 1915  10.710   4.244   3.375  2.1577  1.0262  1.1302
  755MOL0     H 1916  10.796   4.361   3.273  2.1727 -1.0476  2.4574
  755MOL0     H 1917  10.533   4.463   3.245  2.2534  0.3382  0.6343
  755MOL0     H 1918  10.493   4.295   3.274 -2.1655  0.2955 -2.4611
  755MOL0     H 1919  10.651   4.229   3.085 -1.9751 -0.4026 -3.1413
  755MOL0     H 1920  10.500   4.293   3.045  0.9048 -3.3673 -1.3192
  755MOL0     H 1921  10.794   4.545   2.887 -1.5416 -0.1202 -1.5291
  755MOL0     H 1922  10.801   4.421   3.836  0.2362  0.9355 -0.7246
  755MOL0     H 1923  10.908   4.453   4.010  0.4972 -1.2826  1.3544
  755MOL0     H 1924  11.058   4.379   4.019  0.2091  0.5539  0.6912
  755MOL0     H 1925  11.051   4.562   3.990 -0.3230 -0.4370  1.6278
  756MOL0     O 1926   7.856   7.339   8.078  0.2041 -0.5251  0.6756
  756MOL0     C 1927   7.790   7.239   8.043  0.4291 -0.0527  1.0162
  756MOL0     O 1928   7.833   7.114   8.035 -0.2606  0.4188 -0.5961
  756MOL0     C 1929   7.960   7.095   8.083 -0.3715 -0.1438  0.5553
  756MOL0     C 1930   8.013   7.131   8.208 -0.6825  0.1439 -0.2655
  756MOL0     C 1931   8.144   7.116   8.248  1.1784  0.1785 -0.2747
  756MOL0     C 1932   8.227   7.042   8.163 -0.0378 -0.5944  0.2393
  756MOL0     O 1933   8.355   7.023   8.212 -0.0819 -0.1247  0.3749
  756MOL0     C 1934   8.454   7.060   8.119 -0.4757  0.3939  0.5278
  756MOL0     C 1935   8.459   7.212   8.090 -0.0316 -0.5753  0.0016
  756MOL0     C 1936   8.477   7.287   8.225  0.3717  0.3029  0.8324
  756MOL0     C 1937   8.620   7.282   8.290  0.5787  0.4450  0.0174
  756MOL0     C 1938   8.644   7.380   8.404 -0.0810 -0.6399  1.1913
  756MOL0     C 1939   8.570   7.330   8.532 -1.0441 -0.5178  0.2868
  756MOL0     C 1940   8.593   7.433   8.647 -0.1161  0.2503 -0.4596
  756MOL0     C 1941   8.523   7.373   8.774 -0.2818  0.9218 -0.2856
  756MOL0     N 1942   8.597   7.258   8.823 -0.0105  0.2517 -0.9102
  756MOL0     C 1943   8.716   7.260   8.892  0.0486  0.0955  0.8200
  756MOL0     C 1944   8.743   7.133   8.933  0.5356  0.9242  0.9600
  756MOL0     C 1945   8.869   7.091   9.000 -0.0505 -0.2466 -0.0175
  756MOL0     C 1946   8.967   6.998   8.925 -0.8097 -0.6674  0.6582
  756MOL0     C 1947   9.100   6.991   8.998  0.3746  0.4243 -0.8951
  756MOL0     C 1948   9.191   6.910   8.913  0.5826 -0.6608  0.0915
  756MOL0     O 1949   9.320   6.912   8.968  0.4025  0.3747  0.3236
  756MOL0     C 1950   9.413   6.823   8.922  0.1005  0.2938  0.1133
  756MOL0     C 1951   9.547   6.837   8.963 -0.0996 -0.0418  0.1153
  756MOL0     C 1952   9.660   6.773   8.902  0.3653 -0.6685  0.0051
  756MOL0     C 1953   9.630   6.673   8.806 -0.0867 -0.5163  0.3416
  756MOL0     C 1954   9.747   6.593   8.745  0.0720 -0.5547  0.2695
  756MOL0     O 1955   9.703   6.517   8.638 -0.2066 -0.1824 -0.4679
  756MOL0     C 1956   9.796   6.437   8.580  0.6063  0.4313 -0.2794
  756MOL0     C 1957   9.858   6.462   8.458  0.4247 -0.1454 -1.3378
  756MOL0     C 1958   9.961   6.379   8.404 -0.2754  0.5360  0.1283
  756MOL0     C 1959  10.006   6.268   8.471  0.4043  0.3357 -0.6231
  756MOL0     O 1960  10.072   6.172   8.400  0.0566  0.5604 -0.4551
  756MOL0     C 1961  10.172   6.109   8.481  0.6145 -0.0140  0.1953
  756MOL0     C 1962  10.267   6.033   8.391  0.6217 -0.3050  0.2763
  756MOL0     C 1963  10.400   6.001   8.458  0.0457 -0.0565  0.6200
  756MOL0     C 1964  10.466   5.879   8.398  0.4975 -0.4593  0.8887
  756MOL0     C 1965  10.597   5.832   8.481  0.2549  0.3065  0.9160
  756MOL0     C 1966  10.653   5.696   8.423 -0.3403  0.1055 -0.4686
  756MOL0     C 1967  10.792   5.665   8.484 -0.1944 -0.3089  0.2303
  756MOL0     C 1968  10.836   5.545   8.412 -0.0619  0.0099  0.5060
  756MOL0    Cl 1969  10.983   5.481   8.479 -0.1613 -0.5268 -0.3747
  756MOL0     C 1970   9.959   6.247   8.604 -0.9306  0.0184 -0.0725
  756MOL0     C 1971   9.850   6.322   8.651  0.2304 -0.3877 -0.2365
  756MOL0     O 1972   9.862   6.590   8.793  0.6291  0.1362 -0.3896
  756MOL0     C 1973   9.498   6.655   8.762  0.1845 -0.2798  0.0561
  756MOL0     C 1974   9.396   6.725   8.824  0.2814  1.2580 -0.3002
  756MOL0     N 1975   8.629   7.056   8.890 -0.2978  0.2860 -0.4068
  756MOL0     N 1976   8.548   7.131   8.828 -0.3119  0.3716 -0.5103
  756MOL0     C 1977   8.178   6.986   8.048  0.1140  0.6566 -0.3445
  756MOL0     C 1978   8.046   7.011   8.006  0.7867 -0.8184 -0.0992
  756MOL0     C 1979   7.650   7.254   8.004  0.8536  0.0860  0.2970
  756MOL0     C 1980   7.583   7.156   7.925 -0.9032 -0.4756 -0.3566
  756MOL0     C 1981   7.452   7.146   7.922  0.7303 -0.3511  0.6969
  756MOL0     C 1982   7.366   7.238   7.979 -0.8322 -0.2078 -0.0667
  756MOL0     O 1983   7.228   7.213   7.993 -0.1167 -0.0923  0.0209
  756MOL0     C 1984   7.133   7.323   8.004  0.7675  0.5364  0.3169
  756MOL0     C 1985   6.977   7.288   7.987  0.0797 -0.5034  0.5185
  756MOL0     C 1986   6.881   7.401   8.042  0.1532  0.2608  0.3541
  756MOL0     C 1987   6.748   7.346   8.078  0.6470 -0.9913  0.0407
  756MOL0     C 1988   6.668   7.451   8.144 -0.3926 -0.3049  0.2737
  756MOL0     C 1989   6.594   7.541   8.174 -0.8190 -0.5618 -0.3741
  756MOL0     C 1990   7.421   7.348   8.027 -0.1957  0.0286  0.2066
  756MOL0     C 1991   7.565   7.361   8.052  0.0360  0.3590  0.7661
  756MOL0     C 1992   7.606   7.489   8.118 -0.7109  0.4582 -0.8553
  756MOL0     H 1993   7.942   7.179   8.275 -1.3161 -0.0541 -0.7882
  756MOL0     H 1994   8.190   7.158   8.338  1.8782 -0.2359 -0.4352
  756MOL0     H 1995   8.550   7.029   8.162 -0.8184 -1.3416  0.1284
  756MOL0     H 1996   8.438   7.006   8.025 -1.3914  1.6209 -0.0491
  756MOL0     H 1997   8.359   7.232   8.051 -1.3784 -3.9328  1.3415
  756MOL0     H 1998   8.537   7.241   8.019  3.3544  0.0329  3.6105
  756MOL0     H 1999   8.401   7.245   8.292  0.5981  1.8346  2.0988
  756MOL0     H 2000   8.445   7.392   8.221  2.3554  0.9195 -0.0364
  756MOL0     H 2001   8.625   7.179   8.327 -0.3268  0.2823 -0.2895
  756MOL0     H 2002   8.690   7.298   8.207 -0.4775  0.6436 -0.8580
  756MOL0     H 2003   8.754   7.378   8.405 -0.0646 -0.3711  0.5965
  756MOL0     H 2004   8.617   7.484   8.383  0.3083 -0.5691  1.0260
  756MOL0     H 2005   8.463   7.323   8.511 -1.5357  0.8302  2.0584
  756MOL0     H 2006   8.600   7.232   8.569  0.3633 -0.6381 -1.0822
  756MOL0     H 2007   8.544   7.527   8.620  1.0516  0.0310 -3.6477
  756MOL0     H 2008   8.699   7.450   8.667  0.3914 -0.1000 -2.6624
  756MOL0     H 2009   8.524   7.441   8.860  1.3357 -0.5163  0.8867
  756MOL0     H 2010   8.418   7.352   8.754 -1.2208  2.1382  2.7893
  756MOL0     H 2011   8.781   7.347   8.899 -0.0036  0.2183 -0.0403
  756MOL0     H 2012   8.929   7.178   9.030 -1.4358 -0.4182  3.8076
  756MOL0     H 2013   8.830   7.042   9.090  1.1884  0.6770  1.0572
  756MOL0     H 2014   8.930   6.896   8.921  0.2343 -1.0668  0.9382
  756MOL0     H 2015   8.996   7.040   8.828  1.9256 -2.2090  0.7093
  756MOL0     H 2016   9.096   6.945   9.098 -0.1334  0.5288 -0.8621
  756MOL0     H 2017   9.143   7.089   9.017 -1.3198  0.8704  1.0072
  756MOL0     H 2018   9.196   6.940   8.808  1.9205 -2.1018 -0.2959
  756MOL0     H 2019   9.140   6.813   8.912 -2.0777  0.6519 -1.8846
  756MOL0     H 2020   9.565   6.911   9.040  0.0563 -0.4452  0.4712
  756MOL0     H 2021   9.764   6.800   8.920  0.1420  1.4333 -1.4490
  756MOL0     H 2022   9.823   6.544   8.396 -0.0062 -1.6533 -3.1771
  756MOL0     H 2023   9.995   6.400   8.303  0.5316  0.1135  0.3056
  756MOL0     H 2024  10.225   6.186   8.538  1.1678 -0.7852  0.7525
  756MOL0     H 2025  10.143   6.041   8.562  0.1858  2.3461  2.1393
  756MOL0     H 2026  10.208   5.944   8.366 -3.2516  2.4294 -1.3192
  756MOL0     H 2027  10.278   6.094   8.301 -0.2973 -0.0253  0.3378
  756MOL0     H 2028  10.471   6.084   8.449 -0.5968  0.4731  0.3221
  756MOL0     H 2029  10.378   5.978   8.563 -0.9575 -1.1435  0.1820
  756MOL0     H 2030  10.496   5.895   8.294  0.4014  1.4833  1.1185
  756MOL0     H 2031  10.396   5.795   8.399  0.1104 -0.1608  0.0349
  756MOL0     H 2032  10.556   5.807   8.579 -3.6768  0.5933 -0.4696
  756MOL0     H 2033  10.676   5.908   8.479  1.2066 -0.6637  1.1734
  756MOL0     H 2034  10.583   5.615   8.445 -0.9766  0.8782  0.4517
  756MOL0     H 2035  10.663   5.718   8.316 -1.2811  0.3133 -0.5266
  756MOL0     H 2036  10.781   5.643   8.590 -3.2184  3.9573  1.0722
  756MOL0     H 2037  10.862   5.749   8.484  1.6853 -1.6535  4.0241
  756MOL0     H 2038  10.770   5.458   8.404  1.5547 -1.4086  1.8672
  756MOL0     H 2039  10.853   5.569   8.307 -0.8085 -1.6947 -0.0436
  756MOL0     H 2040   9.983   6.158   8.661 -0.0086  1.8355  2.5650
  756MOL0     H 2041   9.816   6.297   8.751 -2.6698  0.5595 -0.8608
  756MOL0     H 2042   9.466   6.594   8.678  0.6597 -0.9614  0.3616
  756MOL0     H 2043   9.296   6.707   8.786 -0.1510  1.3821  0.7467
  756MOL0     H 2044   8.235   6.909   7.998 -2.6384 -1.3091 -0.6627
  756MOL0     H 2045   8.000   6.961   7.922 -2.7661  0.4113  0.9234
  756MOL0     H 2046   7.648   7.076   7.891 -0.8226 -0.7161  0.3538
  756MOL0     H 2047   7.407   7.063   7.868  1.6190 -1.4017  1.5422
  756MOL0     H 2048   7.148   7.393   7.922 -2.0889  0.4881 -0.3521
  756MOL0     H 2049   7.146   7.380   8.096  0.7678 -0.0903  0.7140
  756MOL0     H 2050   6.955   7.203   8.053 -2.1096 -0.8332 -0.5415
  756MOL0     H 2051   6.954   7.258   7.885 -1.2722  1.2696  0.2494
  756MOL0     H 2052   6.869   7.482   7.970 -1.6980  0.4604  0.8468
  756MOL0     H 2053   6.925   7.453   8.127  0.6689 -0.2717  0.4183
  756MOL0     H 2054   6.688   7.337   7.987  2.6969  2.9152 -1.9657
  756MOL0     H 2055   6.750   7.257   8.141  1.7060 -0.7104  0.4248
  756MOL0     H 2056   6.511   7.605   8.197 -2.0791 -1.9590 -0.8714
  756MOL0     H 2057   7.358   7.414   8.086  0.1058  1.0046 -0.5483
  756MOL0     H 2058   7.689   7.537   8.065 -0.4121 -0.8776 -1.6236
  756MOL0     H 2059   7.527   7.564   8.107 -1.5040 -0.4073 -1.1241
  756MOL0     H 2060   7.634   7.484   8.224 -0.2154  1.3173 -0.9373
  757MOL0     O 2061   5.553  11.346  11.187  0.5157 -0.0148  0.4910
  757MOL0     C 2062   5.542  11.260  11.094  0.4438 -0.1127  0.1055
  757MOL0     O 2063   5.635  11.241  10.991  0.0489  0.0036 -0.0482
  757MOL0     C 2064   5.761  11.295  11.024  0.4858  0.7205  0.3678
  757MOL0     C 2065   5.799  11.420  10.971 -0.1565 -0.8396  0.1916
  757MOL0     C 2066   5.923  11.468  10.979  0.0806  1.0315  0.2107
  757MOL0     C 2067   6.020  11.409  11.064 -0.7866  0.0552 -0.6905
  757MOL0     O 2068   6.146  11.463  11.080  0.4814 -0.3419  0.8657
  757MOL0     C 2069   6.227  11.487  10.963  0.8173 -0.3651 -0.2148
  757MOL0     C 2070   6.370  11.532  11.009 -0.6035  0.1751 -0.3160
  757MOL0     C 2071   6.465  11.417  11.054  0.1949 -0.0874  0.4020
  757MOL0     C 2072   6.607  11.467  11.075  0.3423 -0.1372  0.1927
  757MOL0     C 2073   6.697  11.353  11.121 -0.0314 -0.4559  0.1771
  757MOL0     C 2074   6.682  11.327  11.267 -0.2088  0.2369 -0.3465
  757MOL0     C 2075   6.787  11.225  11.308 -0.0127 -1.4184 -0.2944
  757MOL0     C 2076   6.744  11.088  11.250 -0.7964  0.3932  0.8029
  757MOL0     N 2077   6.817  10.966  11.283  0.4719  0.5653 -0.1682
  757MOL0     C 2078   6.824  10.919  11.409  0.1428 -0.4229  0.0888
  757MOL0     C 2079   6.883  10.793  11.393  0.3450 -0.2084 -0.1440
  757MOL0     C 2080   6.941  10.707  11.506  0.0237  0.1442 -0.3370
  757MOL0     C 2081   7.101  10.714  11.526  0.5376 -0.3916  0.2474
  757MOL0     C 2082   7.179  10.593  11.467  1.1778  0.0004  0.1965
  757MOL0     C 2083   7.328  10.597  11.509  0.0967 -0.1511 -0.5538
  757MOL0     O 2084   7.353  10.636  11.644 -0.2445  0.1127  0.2002
  757MOL0     C 2085   7.490  10.657  11.684  0.3976 -0.3137 -0.1573
  757MOL0     C 2086   7.604  10.624  11.610 -0.0250 -0.1102 -0.2141
  757MOL0     C 2087   7.727  10.644  11.661 -0.2685 -0.4486  0.3041
  757MOL0     C 2088   7.749  10.686  11.793 -0.3565 -0.0139 -0.5648
  757MOL0     C 2089   7.890  10.705  11.846  0.3090  0.6588 -0.6667
  757MOL0     O 2090   7.985  10.712  11.755 -0.3486 -1.1247 -0.4961
  757MOL0     C 2091   8.120  10.722  11.793  0.8730 -0.3260 -1.0356
  757MOL0     C 2092   8.160  10.826  11.877  0.6662 -0.2560 -0.6984
  757MOL0     C 2093   8.294  10.830  11.924  0.1357 -1.1369 -0.1760
  757MOL0     C 2094   8.392  10.732  11.897  0.0833 -0.9741 -0.8391
  757MOL0     O 2095   8.515  10.760  11.952 -0.0272 -0.2869  0.0989
  757MOL0     C 2096   8.596  10.648  12.017  0.0770 -0.7225  0.5935
  757MOL0     C 2097   8.723  10.613  11.940  0.1622  0.6457  0.6407
  757MOL0     C 2098   8.853  10.616  12.020  0.4317  0.3115 -0.0993
  757MOL0     C 2099   8.976  10.559  11.942 -0.0657  0.5995  0.2201
  757MOL0     C 2100   8.960  10.412  11.885  0.3771 -0.4233 -0.3404
  757MOL0     C 2101   9.084  10.365  11.820  0.8728  0.1531  0.1414
  757MOL0     C 2102   9.044  10.223  11.777  0.4402  0.8435  0.2269
  757MOL0     C 2103   9.151  10.159  11.686 -0.1148  0.0116 -0.1816
  757MOL0    Cl 2104   9.082  10.016  11.602  0.0363  0.7291  0.0490
  757MOL0     C 2105   8.336  10.625  11.832 -0.3887  1.2812  0.2317
  757MOL0     C 2106   8.212  10.626  11.761 -0.9250  0.4695  0.2033
  757MOL0     O 2107   7.903  10.705  11.965 -0.6626  0.5294  0.4383
  757MOL0     C 2108   7.632  10.730  11.866 -0.1960  0.1210 -0.9217
  757MOL0     C 2109   7.506  10.720  11.815 -0.2027  0.2821  0.4978
  757MOL0     N 2110   6.910  10.772  11.260 -0.1328  0.3662 -0.4331
  757MOL0     N 2111   6.873  10.878  11.193  0.8501  0.0804 -0.2748
  757MOL0     C 2112   5.989  11.283  11.119 -0.0360 -0.7953  0.3756
  757MOL0     C 2113   5.862  11.224  11.099  0.4313  0.1442 -0.6685
  757MOL0     C 2114   5.407  11.195  11.068  0.0712 -0.0956  0.6941
  757MOL0     C 2115   5.411  11.080  10.983 -0.6339 -1.0295 -0.3040
  757MOL0     C 2116   5.292  11.015  10.950 -0.5953 -0.1049 -0.5843
  757MOL0     C 2117   5.168  11.057  10.992  0.5434  0.6714 -0.0767
  757MOL0     O 2118   5.056  10.989  10.960  0.2644  0.2640  0.1869
  757MOL0     C 2119   5.050  10.925  10.826 -0.7836  0.0980 -0.1108
  757MOL0     C 2120   4.908  10.892  10.793 -0.0239 -0.9150  0.0069
  757MOL0     C 2121   4.795  10.983  10.841 -0.5134 -0.3859 -0.5195
  757MOL0     C 2122   4.662  10.934  10.782 -0.0623  0.3961 -0.8938
  757MOL0     C 2123   4.634  10.969  10.651 -0.0456 -0.1111 -0.3202
  757MOL0     C 2124   4.603  10.969  10.536  0.4014  0.3720  0.3639
  757MOL0     C 2125   5.161  11.161  11.088 -0.3518 -0.5797 -0.5620
  757MOL0     C 2126   5.281  11.236  11.119  0.2621  1.5159  0.3282
  757MOL0     C 2127   5.264  11.351  11.204  0.0719 -0.9180 -0.8416
  757MOL0     H 2128   5.753  11.470  10.887  0.9374 -1.8619 -1.0547
  757MOL0     H 2129   5.959  11.555  10.925 -0.7919  3.1515  2.8134
  757MOL0     H 2130   6.242  11.400  10.897  1.1802  1.4591 -2.6915
  757MOL0     H 2131   6.184  11.567  10.901 -0.3519 -0.3881  0.5374
  757MOL0     H 2132   6.357  11.612  11.083  2.4135  2.4125 -2.0042
  757MOL0     H 2133   6.426  11.585  10.931  1.6075 -2.8592 -0.9993
  757MOL0     H 2134   6.470  11.339  10.977  0.6216 -0.4780  0.8216
  757MOL0     H 2135   6.425  11.371  11.144  1.6966  0.5555  1.4462
  757MOL0     H 2136   6.641  11.503  10.978  1.9604  0.6435  1.0187
  757MOL0     H 2137   6.605  11.540  11.157 -1.7482 -0.8485  0.8536
  757MOL0     H 2138   6.662  11.273  11.055 -0.5927 -0.9272  1.0144
  757MOL0     H 2139   6.802  11.370  11.096  0.0650  0.6453  1.2068
  757MOL0     H 2140   6.683  11.420  11.325  1.2833  0.6606 -1.0117
  757MOL0     H 2141   6.584  11.285  11.291 -0.3116  0.4798 -0.3402
  757MOL0     H 2142   6.800  11.234  11.416  0.4682  0.8474 -0.4768
  757MOL0     H 2143   6.887  11.248  11.269 -1.0704 -0.4312 -2.6115
  757MOL0     H 2144   6.653  11.053  11.300  0.6317 -1.4834  2.1993
  757MOL0     H 2145   6.725  11.092  11.142  0.9901 -1.5756  0.3603
  757MOL0     H 2146   6.797  10.953  11.509 -0.0268 -0.4221  0.0433
  757MOL0     H 2147   6.893  10.735  11.600  1.3153  0.1284  0.3503
  757MOL0     H 2148   6.914  10.605  11.477  1.0362 -0.0467 -0.6318
  757MOL0     H 2149   7.121  10.808  11.474  0.3423  0.1212  1.0835
  757MOL0     H 2150   7.129  10.715  11.631  3.5205 -2.3408 -0.3917
  757MOL0     H 2151   7.170  10.590  11.358 -1.6325  1.7025  0.2889
  757MOL0     H 2152   7.126  10.503  11.500 -1.7522  1.7289  0.5015
  757MOL0     H 2153   7.376  10.673  11.447  2.2938 -1.4927 -0.6131
  757MOL0     H 2154   7.373  10.498  11.496  4.5733  1.2986  1.7210
  757MOL0     H 2155   7.601  10.576  11.512 -1.6629 -0.7150  0.0957
  757MOL0     H 2156   7.810  10.631  11.591 -1.2119  0.1708 -0.9674
  757MOL0     H 2157   8.095  10.909  11.904  2.1242 -0.1562  3.1435
  757MOL0     H 2158   8.325  10.921  11.973  1.5795 -0.8254 -1.5743
  757MOL0     H 2159   8.616  10.690  12.116  0.6263  2.5078 -0.7670
  757MOL0     H 2160   8.526  10.565  12.027 -1.5108  0.7464  2.5464
  757MOL0     H 2161   8.691  10.511  11.915  0.5515  1.0074 -1.4712
  757MOL0     H 2162   8.743  10.662  11.844  3.4732 -4.2469 -1.5863
  757MOL0     H 2163   8.865  10.719  12.054 -0.5545  1.0610 -1.8871
  757MOL0     H 2164   8.848  10.555  12.111  2.2447 -1.6645 -1.2238
  757MOL0     H 2165   9.063  10.565  12.008 -1.2295 -1.1310  2.0015
  757MOL0     H 2166   9.008  10.628  11.863  0.1674 -1.9870 -2.1079
  757MOL0     H 2167   8.876  10.408  11.815  0.6447  1.3457 -0.8179
  757MOL0     H 2168   8.944  10.349  11.973 -4.3272  1.5821  0.5612
  757MOL0     H 2169   9.104  10.438  11.741  1.0811  0.1702  0.2089
  757MOL0     H 2170   9.167  10.360  11.891  0.6648 -1.5786  0.3066
  757MOL0     H 2171   8.948  10.237  11.728  0.2496  3.0008  1.0894
  757MOL0     H 2172   9.028  10.164  11.867 -0.6131 -1.3475 -1.3140
  757MOL0     H 2173   9.184  10.228  11.608 -0.5369  0.3728 -0.0411
  757MOL0     H 2174   9.239  10.130  11.745  0.2125  2.6138  0.7136
  757MOL0     H 2175   8.397  10.535  11.823 -3.8901 -1.2107 -0.5072
  757MOL0     H 2176   8.184  10.537  11.704 -0.7869 -0.2951  1.2946
  757MOL0     H 2177   7.645  10.777  11.962  1.0254  1.4721 -1.7177
  757MOL0     H 2178   7.420  10.752  11.871 -3.6797 -2.8862 -2.4775
  757MOL0     H 2179   6.066  11.225  11.169  1.1963 -1.1298 -1.8029
  757MOL0     H 2180   5.852  11.132  11.155  0.8968  1.0495  0.9564
  757MOL0     H 2181   5.510  11.046  10.955 -0.8661  0.2022 -2.8850
  757MOL0     H 2182   5.317  10.940  10.875  3.8927  0.0634  0.4134
  757MOL0     H 2183   5.104  10.831  10.837 -1.3646  0.0230  3.4139
  757MOL0     H 2184   5.102  10.989  10.755  1.6275 -0.7729  0.7859
  757MOL0     H 2185   4.892  10.791  10.831 -0.1920 -0.2074  1.8984
  757MOL0     H 2186   4.907  10.883  10.684 -0.2417 -1.3508  0.0439
  757MOL0     H 2187   4.808  11.088  10.814 -2.4604 -0.4088 -1.7002
  757MOL0     H 2188   4.788  10.967  10.949  2.1516  0.2562 -0.1864
  757MOL0     H 2189   4.664  10.825  10.794  0.9765  0.6413  1.9653
  757MOL0     H 2190   4.569  10.967  10.830 -1.7176 -0.0109 -3.6017
  757MOL0     H 2191   4.557  10.951  10.441 -1.5164  0.6145  1.2036
  757MOL0     H 2192   5.067  11.200  11.126 -0.8447 -1.8277 -0.4618
  757MOL0     H 2193   5.256  11.443  11.145 -1.9448  0.4463  1.3946
  757MOL0     H 2194   5.168  11.358  11.256 -0.6651 -0.9308 -2.1436
  757MOL0     H 2195   5.342  11.362  11.279 -0.6918  1.4457 -0.3001
  758MOL0     O 2196   2.000   9.409   3.827  0.5004  0.3868 -0.2703
  758MOL0     C 2197   1.933   9.319   3.783 -0.5606  0.7061  0.1183
  758MOL0     O 2198   1.984   9.219   3.707  0.0222  0.6397 -0.7013
  758MOL0     C 2199   2.089   9.246   3.633  0.2339 -0.3421  1.1251
  758MOL0     C 2200   2.108   9.362   3.563 -0.5807 -0.3412 -0.3518
  758MOL0     C 2201   2.228   9.380   3.490 -0.2579  0.3973  1.0052
  758MOL0     C 2202   2.327   9.280   3.475  0.0641 -0.1508  0.4740
  758MOL0     O 2203   2.438   9.275   3.394  0.8189  0.1307  0.3472
  758MOL0     C 2204   2.497   9.401   3.352 -0.3010 -0.0527 -0.5909
  758MOL0     C 2205   2.600   9.380   3.246 -0.3119 -0.3234  0.1174
  758MOL0     C 2206   2.735   9.327   3.301  0.3142  0.6400 -0.1994
  758MOL0     C 2207   2.832   9.344   3.178  0.2607  0.1922 -0.0045
  758MOL0     C 2208   2.971   9.293   3.206 -0.0742  0.5865  0.0314
  758MOL0     C 2209   3.065   9.288   3.085 -0.1124 -0.2945 -0.5139
  758MOL0     C 2210   3.215   9.271   3.112  0.0864  0.2067  0.1676
  758MOL0     C 2211   3.272   9.377   3.212 -0.4492 -0.5977 -0.2005
  758MOL0     N 2212   3.402   9.324   3.267  0.3209 -1.0178  0.3037
  758MOL0     C 2213   3.411   9.227   3.357 -0.0129 -0.5163  0.2054
  758MOL0     C 2214   3.551   9.212   3.363  0.6710  0.0945 -0.2673
  758MOL0     C 2215   3.626   9.124   3.454 -0.7868  0.6254 -0.5872
  758MOL0     C 2216   3.707   9.021   3.368 -0.0598 -0.1014  0.4924
  758MOL0     C 2217   3.716   8.884   3.428  0.4662  0.0788  0.4998
  758MOL0     C 2218   3.780   8.782   3.337  0.4268  0.6585  0.3415
  758MOL0     O 2219   3.921   8.805   3.313  0.2475 -0.0617  0.5464
  758MOL0     C 2220   3.982   8.710   3.240 -1.1870 -0.4357 -0.4359
  758MOL0     C 2221   4.119   8.696   3.247  0.3071  0.8134 -0.8545
  758MOL0     C 2222   4.202   8.604   3.183 -0.5944 -0.4955  0.5144
  758MOL0     C 2223   4.145   8.543   3.074  0.6247  0.1224 -0.3107
  758MOL0     C 2224   4.226   8.464   2.984 -0.0329  0.6538  0.1207
  758MOL0     O 2225   4.356   8.464   3.003 -0.0999 -0.6393  0.5659
  758MOL0     C 2226   4.438   8.410   2.907  0.4361 -0.0508  0.8557
  758MOL0     C 2227   4.520   8.305   2.935 -0.0964  0.4108  0.4558
  758MOL0     C 2228   4.620   8.260   2.845 -0.3553  0.3635 -0.1070
  758MOL0     C 2229   4.620   8.309   2.715  1.2446 -0.0965 -0.5399
  758MOL0     O 2230   4.719   8.283   2.628 -0.0675 -0.3032 -1.1415
  758MOL0     C 2231   4.838   8.367   2.652  0.3765 -0.1272  0.0609
  758MOL0     C 2232   4.952   8.314   2.571 -0.4715  0.1403 -0.5287
  758MOL0     C 2233   4.917   8.256   2.424  0.2036  0.2859 -0.1620
  758MOL0     C 2234   5.045   8.238   2.335  0.0612 -0.3931 -0.1912
  758MOL0     C 2235   5.017   8.242   2.179  0.6514 -0.6082 -0.6884
  758MOL0     C 2236   5.136   8.225   2.083 -0.1395  0.4794 -0.2720
  758MOL0     C 2237   5.250   8.314   2.098  0.4680 -0.4107  0.0387
  758MOL0     C 2238   5.333   8.302   1.972 -0.2532 -0.3492  0.7637
  758MOL0    Cl 2239   5.494   8.387   1.987 -0.0972 -0.0712 -0.3315
  758MOL0     C 2240   4.529   8.404   2.679  0.2561 -0.6607 -0.5121
  758MOL0     C 2241   4.444   8.458   2.781  0.2806 -0.1942  0.6765
  758MOL0     O 2242   4.172   8.412   2.889  0.0608  0.2834 -0.5941
  758MOL0     C 2243   4.001   8.551   3.063 -0.8495  0.4338  0.1243
  758MOL0     C 2244   3.920   8.635   3.140 -0.1442 -0.7866  0.2978
  758MOL0     N 2245   3.613   9.289   3.269  0.9229 -0.6524 -0.2740
  758MOL0     N 2246   3.522   9.354   3.208 -0.1741 -0.3990 -0.1450
  758MOL0     C 2247   2.298   9.156   3.527 -0.0027  0.0153 -0.6381
  758MOL0     C 2248   2.183   9.147   3.608 -0.2185 -0.7203  0.4916
  758MOL0     C 2249   1.791   9.314   3.826 -0.1899  0.3079 -0.3073
  758MOL0     C 2250   1.718   9.199   3.796 -0.7805 -0.4545  0.2412
  758MOL0     C 2251   1.593   9.172   3.856 -0.0489 -0.1251 -0.0692
  758MOL0     C 2252   1.533   9.266   3.942 -0.5688 -0.0635 -0.3478
  758MOL0     O 2253   1.434   9.231   4.031  0.5236  0.2574 -0.3269
  758MOL0     C 2254   1.319   9.170   3.964  0.0821 -1.0127 -0.1003
  758MOL0     C 2255   1.183   9.188   4.044 -0.3129  0.2032  0.3684
  758MOL0     C 2256   1.069   9.148   3.945  0.7196  0.7815  0.0161
  758MOL0     C 2257   0.967   9.049   4.008  0.1632  0.5988 -0.8223
  758MOL0     C 2258   0.887   9.104   4.116  0.0799 -0.6114  0.3042
  758MOL0     C 2259   0.818   9.141   4.209 -0.0752 -0.7841  0.0561
  758MOL0     C 2260   1.597   9.382   3.963  0.4756 -0.5443 -0.4306
  758MOL0     C 2261   1.716   9.413   3.902 -0.0968  0.4765 -0.5565
  758MOL0     C 2262   1.771   9.546   3.941  0.4261 -0.3512  0.4110
  758MOL0     H 2263   2.051   9.454   3.578  1.7236  0.9923  0.7301
  758MOL0     H 2264   2.243   9.478   3.447 -3.0372  0.5845  0.2416
  758MOL0     H 2265   2.428   9.471   3.303  3.0394  3.5217 -0.7112
  758MOL0     H 2266   2.529   9.450   3.445  2.4826  0.4738 -1.7247
  758MOL0     H 2267   2.611   9.483   3.212 -1.8311  0.0386  0.6868
  758MOL0     H 2268   2.571   9.329   3.153  0.8460 -1.3356  0.2819
  758MOL0     H 2269   2.711   9.222   3.323 -1.1784  0.4674 -2.3400
  758MOL0     H 2270   2.780   9.373   3.389 -1.0634  1.8884 -0.0991
  758MOL0     H 2271   2.792   9.289   3.092 -1.5757 -2.2672  2.2378
  758MOL0     H 2272   2.828   9.449   3.148 -2.3705 -0.0577 -0.8578
  758MOL0     H 2273   3.010   9.343   3.295  1.6748  0.5971 -0.6947
  758MOL0     H 2274   2.956   9.188   3.230  1.9574  0.1043 -0.6184
  758MOL0     H 2275   3.024   9.206   3.024 -0.9119  1.3744 -2.3440
  758MOL0     H 2276   3.051   9.379   3.025 -0.4300  0.5963  0.8766
  758MOL0     H 2277   3.269   9.276   3.017 -0.0753  1.3562  0.1154
  758MOL0     H 2278   3.229   9.170   3.151 -2.8180  0.8020  3.2792
  758MOL0     H 2279   3.299   9.465   3.153 -0.4583  1.0602  2.1184
  758MOL0     H 2280   3.207   9.402   3.297  2.4862  3.2483  1.1998
  758MOL0     H 2281   3.324   9.186   3.406 -2.4772  2.3983 -1.3787
  758MOL0     H 2282   3.682   9.187   3.523  1.5902 -0.6909 -1.2276
  758MOL0     H 2283   3.557   9.066   3.516 -0.0877 -1.3618 -1.5752
  758MOL0     H 2284   3.660   9.010   3.270  2.4376 -2.4349 -0.5699
  758MOL0     H 2285   3.810   9.053   3.353 -0.0662 -0.3951 -0.2223
  758MOL0     H 2286   3.613   8.851   3.446  0.1019  0.7270 -0.3280
  758MOL0     H 2287   3.768   8.889   3.524 -0.9293 -1.0431  1.3470
  758MOL0     H 2288   3.720   8.785   3.245  2.0723  2.7647 -0.7489
  758MOL0     H 2289   3.766   8.685   3.385  0.3647  0.6558  0.3181
  758MOL0     H 2290   4.156   8.754   3.331  1.3236  1.2667 -1.5834
  758MOL0     H 2291   4.306   8.604   3.212 -0.8254  0.7595  1.4270
  758MOL0     H 2292   4.509   8.261   3.034 -0.3721  0.8622  0.6262
  758MOL0     H 2293   4.691   8.185   2.877 -0.2625  1.2986  2.1101
  758MOL0     H 2294   4.817   8.469   2.619 -0.5865 -0.1252  0.6225
  758MOL0     H 2295   4.861   8.386   2.757 -3.4365 -2.8069  1.6217
  758MOL0     H 2296   5.012   8.405   2.560  0.3282 -0.1595  1.0930
  758MOL0     H 2297   5.018   8.246   2.626  2.7135  2.8783 -0.5813
  758MOL0     H 2298   4.860   8.162   2.425 -0.8104  0.8752  1.7773
  758MOL0     H 2299   4.850   8.329   2.378  2.0405  0.7952 -2.2348
  758MOL0     H 2300   5.090   8.144   2.369 -1.6716 -0.9283  0.7350
  758MOL0     H 2301   5.125   8.308   2.358 -0.6009 -0.1911  1.6530
  758MOL0     H 2302   4.971   8.337   2.153 -1.0211 -1.1934  0.0012
  758MOL0     H 2303   4.938   8.171   2.153  1.2367 -0.5222 -2.8541
  758MOL0     H 2304   5.175   8.123   2.092 -1.3197  0.0671  0.3232
  758MOL0     H 2305   5.089   8.230   1.984 -0.5312 -0.1279 -0.1195
  758MOL0     H 2306   5.298   8.282   2.191 -0.6989  1.4621  1.3596
  758MOL0     H 2307   5.216   8.415   2.122  1.7698 -0.4095  2.1913
  758MOL0     H 2308   5.349   8.201   1.932 -0.3187  0.0049 -0.1614
  758MOL0     H 2309   5.277   8.344   1.889 -0.4945  0.6744  1.4220
  758MOL0     H 2310   4.532   8.458   2.585 -1.2912  3.0913  1.4019
  758MOL0     H 2311   4.375   8.534   2.745  0.9163 -0.8789 -2.2422
  758MOL0     H 2312   3.958   8.496   2.980 -1.7061 -0.5678  1.2008
  758MOL0     H 2313   3.816   8.653   3.114  0.1238 -1.1419 -1.0771
  758MOL0     H 2314   2.365   9.072   3.515  2.6796  1.0404  4.3698
  758MOL0     H 2315   2.171   9.050   3.657 -1.2492 -2.3281 -2.6924
  758MOL0     H 2316   1.765   9.134   3.724  0.4136  0.9605 -0.3098
  758MOL0     H 2317   1.545   9.078   3.834  1.1372 -1.3707  2.3524
  758MOL0     H 2318   1.349   9.066   3.952 -0.0910 -0.7921 -3.6088
  758MOL0     H 2319   1.311   9.212   3.863  3.1706 -1.9005 -0.8434
  758MOL0     H 2320   1.169   9.291   4.080  0.0801  0.5755 -0.5196
  758MOL0     H 2321   1.191   9.122   4.130  2.0541 -2.4644 -1.7167
  758MOL0     H 2322   1.110   9.092   3.861  0.3753 -2.0677  1.6220
  758MOL0     H 2323   1.015   9.234   3.904 -1.2628  0.0279  0.9053
  758MOL0     H 2324   0.901   9.007   3.932 -1.7608 -0.9686  1.5522
  758MOL0     H 2325   1.030   8.969   4.049 -1.5626  0.2043  1.2050
  758MOL0     H 2326   0.765   9.182   4.293 -1.7528 -1.0903 -0.8089
  758MOL0     H 2327   1.545   9.440   4.038  0.8897 -0.2266 -0.3873
  758MOL0     H 2328   1.694   9.605   3.991  2.6410  1.6303  1.7092
  758MOL0     H 2329   1.851   9.524   4.012 -1.4446  0.5799  2.9851
  758MOL0     H 2330   1.807   9.603   3.855  0.1603  0.4884  0.8451
  759MOL0     O 2331   1.915   5.996   0.015 -0.1487 -0.2073 -0.1122
  759MOL0     C 2332   1.803   5.945   0.009 -0.0301  0.8118 -0.1543
  759MOL0     O 2333   1.754   5.874  -0.094 -0.4130 -0.3593 -0.8782
  759MOL0     C 2334   1.843   5.844  -0.192  0.2876 -0.5145  0.7508
  759MOL0     C 2335   1.834   5.925  -0.306  0.8178  0.3679  0.0788
  759MOL0     C 2336   1.927   5.893  -0.408  0.0121  0.2834  0.0272
  759MOL0     C 2337   2.030   5.796  -0.394 -0.8973 -0.0296 -1.0227
  759MOL0     O 2338   2.098   5.769  -0.505  0.0433 -0.3538  0.5576
  759MOL0     C 2339   2.199   5.866  -0.531 -0.0950  0.7636 -0.0578
  759MOL0     C 2340   2.185   5.924  -0.667  0.7470  0.1753  0.2778
  759MOL0     C 2341   2.307   6.003  -0.710 -0.5871  0.1291  0.6997
  759MOL0     C 2342   2.284   6.085  -0.836 -0.3231 -0.7079  0.4367
  759MOL0     C 2343   2.410   6.166  -0.879  1.0362  0.8422  0.8463
  759MOL0     C 2344   2.472   6.102  -1.002 -0.9795  0.3415 -0.3513
  759MOL0     C 2345   2.585   6.175  -1.064  0.2477  0.5440 -0.2384
  759MOL0     C 2346   2.704   6.172  -0.975  1.1922  0.1743  0.6410
  759MOL0     N 2347   2.819   6.229  -1.043 -0.8981  0.7991 -0.7362
  759MOL0     C 2348   2.842   6.362  -1.054  0.2074 -0.9206 -0.1221
  759MOL0     C 2349   2.953   6.370  -1.127 -0.4084 -0.5908  0.8995
  759MOL0     C 2350   2.998   6.506  -1.176 -0.2606 -0.3202  0.4929
  759MOL0     C 2351   3.150   6.521  -1.190  0.2067 -0.1508 -0.5946
  759MOL0     C 2352   3.194   6.661  -1.228 -0.1810 -0.0373 -0.2511
  759MOL0     C 2353   3.340   6.696  -1.182 -0.4934  0.1148  1.9043
  759MOL0     O 2354   3.436   6.630  -1.264  0.2675  0.5949  0.0182
  759MOL0     C 2355   3.562   6.683  -1.273 -0.0124 -0.2558 -0.2423
  759MOL0     C 2356   3.649   6.623  -1.368 -0.2745  0.3416 -0.5702
  759MOL0     C 2357   3.774   6.673  -1.396 -0.2515  0.4621 -0.1966
  759MOL0     C 2358   3.838   6.775  -1.312 -0.2013  0.6461 -0.0337
  759MOL0     C 2359   3.981   6.811  -1.338 -0.0444 -0.2624 -0.8369
  759MOL0     O 2360   4.044   6.884  -1.243  1.1463 -0.8025  0.0995
  759MOL0     C 2361   4.165   6.952  -1.251 -0.2937  0.2190 -0.9725
  759MOL0     C 2362   4.201   7.012  -1.134 -0.7814 -0.2466 -0.3057
  759MOL0     C 2363   4.317   7.091  -1.116  0.4386 -0.1050 -0.4486
  759MOL0     C 2364   4.409   7.105  -1.225 -0.3716  0.2028  0.0504
  759MOL0     O 2365   4.519   7.178  -1.194  0.6228  0.0492 -0.1871
  759MOL0     C 2366   4.616   7.202  -1.306 -0.1378 -0.3115  0.2282
  759MOL0     C 2367   4.727   7.289  -1.259  0.4905 -0.3666 -0.7481
  759MOL0     C 2368   4.816   7.215  -1.166 -0.8803  1.4621 -0.5807
  759MOL0     C 2369   4.922   7.308  -1.108 -0.1874 -0.4175 -0.4396
  759MOL0     C 2370   5.026   7.227  -1.037 -0.1549 -0.7269 -0.1356
  759MOL0     C 2371   5.136   7.314  -0.976  0.2406 -0.0518 -0.5105
  759MOL0     C 2372   5.233   7.367  -1.084 -0.0967  0.8036 -0.1014
  759MOL0     C 2373   5.368   7.371  -1.019 -0.0687 -0.4747 -0.3790
  759MOL0    Cl 2374   5.513   7.405  -1.130 -0.2231 -0.1879 -0.1508
  759MOL0     C 2375   4.382   7.044  -1.345  0.2051  0.6857  0.2646
  759MOL0     C 2376   4.256   6.975  -1.361 -0.9053  1.0426 -0.7272
  759MOL0     O 2377   4.040   6.772  -1.441 -0.2016 -0.0168  0.6320
  759MOL0     C 2378   3.755   6.836  -1.218 -0.0485 -0.0608 -0.2734
  759MOL0     C 2379   3.617   6.798  -1.199 -0.0334  0.1197  0.9534
  759MOL0     N 2380   2.997   6.241  -1.155 -0.9051 -0.8627  0.1538
  759MOL0     N 2381   2.921   6.158  -1.092  0.4021  0.6072 -0.1182
  759MOL0     C 2382   2.042   5.720  -0.278  1.0406 -0.2279 -1.2768
  759MOL0     C 2383   1.945   5.748  -0.178 -0.3218 -0.7597  0.3156
  759MOL0     C 2384   1.727   5.958   0.136 -0.4800  0.3288  0.6324
  759MOL0     C 2385   1.612   5.879   0.143 -0.0830 -0.7211 -0.6653
  759MOL0     C 2386   1.514   5.903   0.244 -0.2795 -0.7751  0.6519
  759MOL0     C 2387   1.533   6.003   0.338  0.2867  0.2766 -0.0754
  759MOL0     O 2388   1.458   6.030   0.449  0.4379  0.9765  0.3117
  759MOL0     C 2389   1.349   5.945   0.458 -1.0764  0.2947 -0.2603
  759MOL0     C 2390   1.283   5.974   0.589  0.3176 -0.2783 -0.9496
  759MOL0     C 2391   1.189   5.869   0.617  0.6742 -0.2507 -0.2659
  759MOL0     C 2392   1.048   5.898   0.568 -0.1173 -1.1892 -0.3657
  759MOL0     C 2393   0.956   5.778   0.589  0.3584 -0.5115 -0.0885
  759MOL0     C 2394   0.902   5.676   0.609  0.0786 -1.2254 -0.4782
  759MOL0     C 2395   1.644   6.080   0.324  0.4079 -0.2886  0.4374
  759MOL0     C 2396   1.746   6.057   0.231  1.3121  0.0469 -1.0594
  759MOL0     C 2397   1.844   6.170   0.221  0.2361  0.2581 -0.2808
  759MOL0     H 2398   1.760   6.004  -0.314 -0.2851 -0.4067  1.9634
  759MOL0     H 2399   1.925   5.948  -0.502  0.1355 -3.1871 -2.1753
  759MOL0     H 2400   2.195   5.954  -0.466 -0.0201  0.8581 -0.1824
  759MOL0     H 2401   2.298   5.821  -0.521 -1.5403 -2.4990  1.1614
  759MOL0     H 2402   2.093   5.982  -0.677  1.6375  1.6661  0.4938
  759MOL0     H 2403   2.170   5.834  -0.728 -2.6802  0.1727  0.9037
  759MOL0     H 2404   2.392   5.941  -0.738 -1.5840 -1.3866  0.9289
  759MOL0     H 2405   2.338   6.068  -0.628 -1.4109 -0.5482  1.5618
  759MOL0     H 2406   2.247   6.025  -0.920 -1.7047  1.6239 -0.7121
  759MOL0     H 2407   2.205   6.154  -0.806  1.9208  1.9125  0.6902
  759MOL0     H 2408   2.385   6.272  -0.892 -0.8165  0.3435 -0.0076
  759MOL0     H 2409   2.475   6.145  -0.794 -0.7168 -0.4910  1.9433
  759MOL0     H 2410   2.505   6.000  -0.980 -1.5588  0.2495  0.1431
  759MOL0     H 2411   2.390   6.096  -1.074  0.3529 -1.2037 -1.8272
  759MOL0     H 2412   2.558   6.278  -1.090 -0.9135  0.5110  0.7524
  759MOL0     H 2413   2.610   6.133  -1.162  1.8172 -0.1328  0.4216
  759MOL0     H 2414   2.676   6.214  -0.879  2.3586  1.9272  0.2534
  759MOL0     H 2415   2.738   6.069  -0.961 -0.9129 -0.8858 -1.3022
  759MOL0     H 2416   2.774   6.432  -1.007  0.5329 -0.7614  0.1165
  759MOL0     H 2417   2.958   6.540  -1.272 -0.0749  1.6133  1.0572
  759MOL0     H 2418   2.965   6.585  -1.107 -0.4178 -0.3203  0.4179
  759MOL0     H 2419   3.196   6.496  -1.094  1.5296  1.7293 -0.6766
  759MOL0     H 2420   3.176   6.450  -1.270  3.1936  0.6794 -0.4918
  759MOL0     H 2421   3.132   6.724  -1.164  0.9693 -0.7366  1.6416
  759MOL0     H 2422   3.170   6.689  -1.331 -2.2161 -3.6546 -0.9226
  759MOL0     H 2423   3.363   6.675  -1.077  3.7180 -0.3865  1.0768
  759MOL0     H 2424   3.344   6.804  -1.201 -0.7999  0.1906  2.2501
  759MOL0     H 2425   3.633   6.528  -1.419  1.0302 -0.4902  0.5116
  759MOL0     H 2426   3.841   6.627  -1.467 -2.3815 -1.1458 -1.2804
  759MOL0     H 2427   4.145   7.010  -1.042 -0.5757  1.5413 -0.1032
  759MOL0     H 2428   4.337   7.123  -1.014 -4.6060  3.2154 -0.1818
  759MOL0     H 2429   4.659   7.110  -1.345  0.3270  0.5696 -1.4189
  759MOL0     H 2430   4.575   7.254  -1.393 -0.3778 -1.5993 -0.4475
  759MOL0     H 2431   4.784   7.325  -1.345 -0.8917  2.7542 -0.4750
  759MOL0     H 2432   4.686   7.376  -1.206 -3.0571 -1.6593 -1.1054
  759MOL0     H 2433   4.766   7.181  -1.075  0.5871  2.9714  0.8755
  759MOL0     H 2434   4.869   7.133  -1.216 -3.2315 -1.0014  0.7268
  759MOL0     H 2435   4.888   7.381  -1.034  1.0348  0.1227 -0.3721
  759MOL0     H 2436   4.973   7.363  -1.188 -2.1139  1.4322 -0.4954
  759MOL0     H 2437   5.064   7.146  -1.099 -1.3040 -1.4496  0.0806
  759MOL0     H 2438   4.965   7.185  -0.957 -1.0311  0.8398  0.0643
  759MOL0     H 2439   5.101   7.400  -0.918  1.6965 -1.0839  2.0714
  759MOL0     H 2440   5.198   7.246  -0.917 -0.5291  0.2824  0.7296
  759MOL0     H 2441   5.208   7.468  -1.117 -0.4549  1.0615  0.9264
  759MOL0     H 2442   5.237   7.304  -1.174 -1.8817  0.1994  0.1976
  759MOL0     H 2443   5.368   7.447  -0.940 -0.2018 -0.9562  0.0949
  759MOL0     H 2444   5.389   7.278  -0.964 -2.1221 -1.2801 -0.8727
  759MOL0     H 2445   4.443   7.041  -1.434 -0.5419  2.0538 -0.3138
  759MOL0     H 2446   4.219   6.945  -1.458 -3.3718  0.9828  0.1485
  759MOL0     H 2447   3.800   6.919  -1.166 -0.8616  1.4595 -1.8613
  759MOL0     H 2448   3.549   6.854  -1.135 -1.9373 -0.6572 -0.2816
  759MOL0     H 2449   2.114   5.639  -0.279  1.4359  0.0721  0.3054
  759MOL0     H 2450   1.936   5.689  -0.088  2.6596 -2.6562 -0.4937
  759MOL0     H 2451   1.605   5.793   0.077 -0.5695  0.5022 -2.2872
  759MOL0     H 2452   1.435   5.829   0.252 -2.3727  1.4964  1.9341
  759MOL0     H 2453   1.390   5.844   0.464 -4.8782 -1.3442  1.4312
  759MOL0     H 2454   1.280   5.949   0.373  0.0069 -1.0552 -1.2701
  759MOL0     H 2455   1.229   6.069   0.585 -0.0866 -0.5145 -1.1287
  759MOL0     H 2456   1.366   5.967   0.661  0.7372 -3.5108 -1.6267
  759MOL0     H 2457   1.186   5.851   0.725 -1.7163  0.6110 -0.1476
  759MOL0     H 2458   1.224   5.774   0.575  1.2320 -0.5935  0.9069
  759MOL0     H 2459   1.008   5.989   0.614  2.4876  0.8309 -1.8554
  759MOL0     H 2460   1.064   5.931   0.465  1.0972  2.0649  0.7324
  759MOL0     H 2461   0.859   5.584   0.641 -2.1680  0.5394  2.0408
  759MOL0     H 2462   1.638   6.164   0.392 -1.3788 -0.2170  0.2570
  759MOL0     H 2463   1.855   6.210   0.120 -0.6282 -0.0908 -0.5226
  759MOL0     H 2464   1.813   6.256   0.282 -0.5751  0.3512 -0.8057
  759MOL0     H 2465   1.939   6.147   0.270 -1.4574 -1.6606  2.4024
  760MOL0     O 2466   1.115   7.807   5.671 -0.0060  0.0478  0.0483
  760MOL0     C 2467   1.037   7.859   5.599  0.2629  0.4001  0.2847
  760MOL0     O 2468   1.071   7.952   5.504  0.2266  0.7191 -0.2424
  760MOL0     C 2469   1.202   7.996   5.502  1.0510 -0.2696  0.0907
  760MOL0     C 2470   1.229   8.113   5.568 -0.1316  0.2070 -0.3772
  760MOL0     C 2471   1.348   8.183   5.555  0.6840 -0.5729 -0.1549
  760MOL0     C 2472   1.446   8.142   5.464 -0.7671 -0.7457 -0.2199
  760MOL0     O 2473   1.561   8.225   5.449  0.5212 -0.0350 -0.4710
  760MOL0     C 2474   1.665   8.179   5.364  0.2945  0.9430  0.2115
  760MOL0     C 2475   1.788   8.264   5.381 -0.4671  0.0369  1.0393
  760MOL0     C 2476   1.920   8.193   5.352 -0.4246  0.3240 -0.6127
  760MOL0     C 2477   2.036   8.282   5.348 -0.3638  0.2546  1.4284
  760MOL0     C 2478   2.167   8.211   5.351  0.6504 -0.3840 -0.3819
  760MOL0     C 2479   2.279   8.282   5.271 -0.2713 -0.5243  0.7709
  760MOL0     C 2480   2.412   8.215   5.303  0.2865  0.1916  0.1636
  760MOL0     C 2481   2.514   8.281   5.212 -0.0034  0.6720 -1.1825
  760MOL0     N 2482   2.647   8.252   5.263  0.2687  0.2496 -0.5370
  760MOL0     C 2483   2.709   8.129   5.240 -0.6056  0.8941 -0.7816
  760MOL0     C 2484   2.778   8.110   5.357  0.5043 -0.8175 -0.5021
  760MOL0     C 2485   2.866   7.997   5.394  0.4398 -0.3162  0.0586
  760MOL0     C 2486   2.803   7.864   5.403 -0.4766 -0.4805 -0.9863
  760MOL0     C 2487   2.731   7.853   5.541  0.1666  0.0202 -0.2435
  760MOL0     C 2488   2.599   7.935   5.549  0.8050 -0.9390 -0.2822
  760MOL0     O 2489   2.498   7.903   5.447  0.2758  0.2346  0.9033
  760MOL0     C 2490   2.417   7.798   5.480  0.0369 -0.7543  0.1844
  760MOL0     C 2491   2.281   7.820   5.481  0.1899 -0.7342 -0.1050
  760MOL0     C 2492   2.194   7.714   5.492  0.0434  0.4269  0.0206
  760MOL0     C 2493   2.241   7.585   5.519 -0.3444 -0.6166 -0.4247
  760MOL0     C 2494   2.147   7.464   5.534 -0.0544 -0.1909  0.2994
  760MOL0     O 2495   2.025   7.475   5.483 -0.0019 -0.4248  0.0536
  760MOL0     C 2496   1.938   7.376   5.509 -0.0611  0.2755  0.2074
  760MOL0     C 2497   1.859   7.381   5.631  0.0404 -0.0936 -0.1227
  760MOL0     C 2498   1.762   7.271   5.654 -0.5332 -0.2329  0.3365
  760MOL0     C 2499   1.756   7.166   5.567  0.9517  0.2002 -0.0781
  760MOL0     O 2500   1.657   7.072   5.600  0.3229 -0.9263 -0.9202
  760MOL0     C 2501   1.694   7.000   5.718 -0.0237  0.6978 -0.2154
  760MOL0     C 2502   1.613   6.877   5.741 -0.5232  0.4348  0.1135
  760MOL0     C 2503   1.463   6.900   5.750  0.1249 -0.0307  0.5151
  760MOL0     C 2504   1.382   6.769   5.762  0.1657  0.2981 -0.8915
  760MOL0     C 2505   1.240   6.785   5.786 -0.1310  0.6293 -0.4324
  760MOL0     C 2506   1.142   6.668   5.825  0.2068  0.2225  0.3210
  760MOL0     C 2507   1.162   6.613   5.967 -0.5113 -0.3803  0.8383
  760MOL0     C 2508   1.082   6.477   5.970 -0.2806 -0.2264 -0.9127
  760MOL0    Cl 2509   0.923   6.518   5.934 -0.5431 -0.7053  0.3255
  760MOL0     C 2510   1.841   7.148   5.461 -0.0811  0.7227 -0.3755
  760MOL0     C 2511   1.937   7.259   5.428  0.4478  0.2097 -0.0014
  760MOL0     O 2512   2.178   7.368   5.607 -1.2062 -0.5112  0.0090
  760MOL0     C 2513   2.381   7.556   5.522 -0.1495  0.5141  0.2509
  760MOL0     C 2514   2.469   7.664   5.494  0.4365  1.3374 -0.7403
  760MOL0     N 2515   2.765   8.221   5.443  0.7054 -0.0510 -1.1815
  760MOL0     N 2516   2.687   8.303   5.387  0.3225  0.1367 -1.0234
  760MOL0     C 2517   1.429   8.021   5.396 -0.0430 -0.2471  0.0801
  760MOL0     C 2518   1.301   7.949   5.413 -0.7300  0.1110  0.3818
  760MOL0     C 2519   0.889   7.824   5.608 -0.0249 -0.3300 -0.3405
  760MOL0     C 2520   0.804   7.919   5.556  0.8299 -0.6680  1.5036
  760MOL0     C 2521   0.667   7.910   5.555  0.2871 -0.2713 -0.2710
  760MOL0     C 2522   0.607   7.795   5.601  0.3254  0.0808 -0.7846
  760MOL0     O 2523   0.476   7.793   5.640  0.0049 -0.0617  0.4787
  760MOL0     C 2524   0.435   7.859   5.770 -0.2037  0.2980  0.2924
  760MOL0     C 2525   0.468   7.785   5.899 -0.1308  0.2434 -0.2811
  760MOL0     C 2526   0.390   7.650   5.905  0.1660  0.6643  0.2419
  760MOL0     C 2527   0.439   7.559   6.021 -0.7251 -0.1198  0.6945
  760MOL0     C 2528   0.585   7.567   6.036 -0.2954  0.0412 -0.1757
  760MOL0     C 2529   0.708   7.577   6.046  0.3537 -0.9946 -0.3335
  760MOL0     C 2530   0.692   7.694   5.656  0.7479  0.1267 -0.1169
  760MOL0     C 2531   0.828   7.704   5.654  0.9710  0.1909 -0.0950
  760MOL0     C 2532   0.913   7.599   5.709 -0.3318 -0.4163 -0.3255
  760MOL0     H 2533   1.142   8.149   5.622 -0.0703 -0.1095 -0.0690
  760MOL0     H 2534   1.376   8.271   5.612 -2.0842  1.2493 -1.3677
  760MOL0     H 2535   1.690   8.077   5.394 -1.8874 -0.0821 -1.2312
  760MOL0     H 2536   1.637   8.176   5.259  0.5751  0.3437  0.1526
  760MOL0     H 2537   1.799   8.294   5.485 -0.4653  3.2984  0.2043
  760MOL0     H 2538   1.788   8.353   5.317 -0.1607 -1.7122 -1.5496
  760MOL0     H 2539   1.911   8.144   5.255 -4.3291 -1.3670  0.4352
  760MOL0     H 2540   1.941   8.119   5.430 -2.3233  2.6287  2.3392
  760MOL0     H 2541   2.032   8.350   5.262  1.4929 -0.8639  0.3787
  760MOL0     H 2542   2.022   8.339   5.441  0.6555  1.6517  0.7669
  760MOL0     H 2543   2.209   8.206   5.451 -2.9424  0.8640  1.3633
  760MOL0     H 2544   2.155   8.113   5.304 -1.1446  0.0415 -0.8817
  760MOL0     H 2545   2.253   8.282   5.164 -1.5496 -0.2745  1.0619
  760MOL0     H 2546   2.286   8.389   5.292 -0.3570  0.1212 -2.0994
  760MOL0     H 2547   2.402   8.109   5.278 -1.4820  0.6334 -1.2412
  760MOL0     H 2548   2.421   8.223   5.412 -1.3400 -0.9063  0.4219
  760MOL0     H 2549   2.516   8.254   5.106  4.3026 -1.9934 -0.6590
  760MOL0     H 2550   2.495   8.388   5.228  1.2229  0.4118  3.1965
  760MOL0     H 2551   2.709   8.067   5.151  1.7757  3.5147 -2.7518
  760MOL0     H 2552   2.938   7.989   5.312 -1.1681  2.4966 -1.7639
  760MOL0     H 2553   2.916   8.011   5.491 -1.0263 -2.4722  1.2129
  760MOL0     H 2554   2.727   7.857   5.324 -2.7313  1.7238  0.8345
  760MOL0     H 2555   2.873   7.781   5.388 -1.8510 -1.7918 -0.5241
  760MOL0     H 2556   2.792   7.890   5.624  0.1576  1.7477 -0.9603
  760MOL0     H 2557   2.712   7.750   5.571  1.2616  0.3543  1.7871
  760MOL0     H 2558   2.619   8.042   5.538 -2.0122 -0.5250 -2.6926
  760MOL0     H 2559   2.550   7.929   5.646 -0.6507  3.7404 -0.4534
  760MOL0     H 2560   2.241   7.917   5.453  0.3947 -0.7550 -0.4715
  760MOL0     H 2561   2.086   7.725   5.488 -0.1662 -1.6351 -0.9826
  760MOL0     H 2562   1.866   7.471   5.691 -1.2082  0.7998 -1.2381
  760MOL0     H 2563   1.702   7.268   5.745  0.4738 -2.8397  0.9862
  760MOL0     H 2564   1.800   6.980   5.702  0.0983  2.3685 -1.8734
  760MOL0     H 2565   1.698   7.065   5.806 -3.0757  0.5920  0.1175
  760MOL0     H 2566   1.636   6.816   5.654  1.7844  1.3693 -0.0030
  760MOL0     H 2567   1.640   6.837   5.839 -0.1877  0.3307 -0.0212
  760MOL0     H 2568   1.442   6.979   5.823  0.5257  2.7690 -2.1992
  760MOL0     H 2569   1.427   6.947   5.658  0.5899  1.2531  0.9595
  760MOL0     H 2570   1.432   6.719   5.846 -0.1734  1.4833  0.0379
  760MOL0     H 2571   1.399   6.702   5.677  1.2431 -0.7986  0.1368
  760MOL0     H 2572   1.206   6.808   5.684 -2.4827 -1.2457 -0.1548
  760MOL0     H 2573   1.211   6.864   5.856  1.7972  0.4961  0.5816
  760MOL0     H 2574   1.037   6.691   5.801 -0.5312 -1.6859  1.5069
  760MOL0     H 2575   1.162   6.588   5.753  0.4751  2.1945 -1.9511
  760MOL0     H 2576   1.107   6.678   6.036  0.1531 -0.8513  1.8307
  760MOL0     H 2577   1.268   6.621   5.993 -0.1229  1.4717 -1.0273
  760MOL0     H 2578   1.107   6.416   5.882 -2.3184 -0.0480 -1.6637
  760MOL0     H 2579   1.097   6.429   6.067 -1.9008  0.2231 -0.4224
  760MOL0     H 2580   1.844   7.059   5.399 -0.9759 -0.2187  0.8513
  760MOL0     H 2581   1.985   7.248   5.331 -0.4700  1.0455 -0.5656
  760MOL0     H 2582   2.419   7.457   5.545 -1.0574  0.2872  0.8148
  760MOL0     H 2583   2.574   7.643   5.478  0.1738 -1.3408  0.5762
  760MOL0     H 2584   1.506   7.989   5.327  0.0536  1.9750 -0.9065
  760MOL0     H 2585   1.292   7.858   5.355 -1.2527 -0.0737  0.7420
  760MOL0     H 2586   0.843   8.014   5.523  2.2063 -1.9813 -0.9501
  760MOL0     H 2587   0.597   7.982   5.513 -2.0989 -1.3476  1.6188
  760MOL0     H 2588   0.329   7.886   5.759 -0.0328  1.2275  0.7683
  760MOL0     H 2589   0.499   7.948   5.776  5.1841 -3.1611  0.5751
  760MOL0     H 2590   0.455   7.847   5.988  1.5190  2.8063 -1.6939
  760MOL0     H 2591   0.577   7.780   5.889 -0.2836 -0.1183 -2.3222
  760MOL0     H 2592   0.404   7.604   5.807 -1.6379  0.6775 -0.0619
  760MOL0     H 2593   0.282   7.667   5.915 -0.0340 -0.5002  0.2038
  760MOL0     H 2594   0.394   7.585   6.117  0.0277  1.0915  0.7331
  760MOL0     H 2595   0.423   7.451   6.009  3.9280 -1.2698  2.6586
  760MOL0     H 2596   0.812   7.579   6.070  0.5552 -2.0134 -1.0543
  760MOL0     H 2597   0.647   7.615   5.714  1.4249  1.2077  2.0269
  760MOL0     H 2598   0.873   7.499   5.689 -0.6434 -0.7672  1.7485
  760MOL0     H 2599   1.014   7.593   5.668 -0.0926 -1.2986  0.3526
  760MOL0     H 2600   0.923   7.612   5.818 -0.3245 -0.9548 -0.2588
  761MOL0     O 2601   5.603  10.201   9.518 -0.1451 -0.0534  0.0740
  761MOL0     C 2602   5.526  10.204   9.424 -0.5009  0.3163  0.2255
  761MOL0     O 2603   5.558  10.243   9.300 -0.4826  0.0147 -0.4717
  761MOL0     C 2604   5.696  10.247   9.277  0.1201 -0.4902  0.3546
  761MOL0     C 2605   5.749  10.127   9.220 -0.3258 -0.3915  0.0044
  761MOL0     C 2606   5.889  10.125   9.187  0.0239  0.3238 -0.7775
  761MOL0     C 2607   5.965  10.240   9.209  0.2827 -0.1677 -0.0748
  761MOL0     O 2608   6.103  10.249   9.172  0.3787 -0.2196  0.1871
  761MOL0     C 2609   6.183  10.129   9.166  0.4008  0.6348 -0.1180
  761MOL0     C 2610   6.331  10.161   9.132  0.4915  0.3560  1.0020
  761MOL0     C 2611   6.427  10.045   9.153  0.2249 -0.4495  0.6908
  761MOL0     C 2612   6.567  10.074   9.094  0.2313 -0.0063 -0.0170
  761MOL0     C 2613   6.659   9.959   9.127 -0.2146  0.3238 -0.8061
  761MOL0     C 2614   6.811   9.995   9.103  0.4583 -0.5679 -0.2750
  761MOL0     C 2615   6.904   9.879   9.136 -0.6636  0.6635 -0.0057
  761MOL0     C 2616   7.018   9.840   9.036  1.0108 -1.0200  0.7439
  761MOL0     N 2617   7.142   9.912   9.048  0.0108  0.2186 -0.0873
  761MOL0     C 2618   7.202   9.907   9.170  0.3841  0.0395  0.8257
  761MOL0     C 2619   7.295  10.007   9.171  0.9527  0.8861  0.9168
  761MOL0     C 2620   7.383  10.049   9.280  0.1195  0.3996  0.1921
  761MOL0     C 2621   7.327  10.141   9.384  0.0049 -0.4086  0.4224
  761MOL0     C 2622   7.196  10.103   9.457 -0.3303 -0.6112 -0.6717
  761MOL0     C 2623   7.150  10.215   9.556 -0.1187  0.9274  0.3281
  761MOL0     O 2624   7.058  10.304   9.498 -0.1850 -0.4418  0.0968
  761MOL0     C 2625   6.923  10.277   9.492  0.6172  0.0534  0.1394
  761MOL0     C 2626   6.863  10.149   9.521  0.0325 -0.1914 -0.5682
  761MOL0     C 2627   6.720  10.142   9.532 -0.4345  0.9889 -0.6052
  761MOL0     C 2628   6.630  10.241   9.493 -0.4114  0.0060 -0.6997
  761MOL0     C 2629   6.487  10.217   9.485 -0.2133 -0.3847 -0.9900
  761MOL0     O 2630   6.444  10.100   9.535 -0.1916  0.4140  0.2108
  761MOL0     C 2631   6.316  10.061   9.509  0.3515  0.2749 -0.0155
  761MOL0     C 2632   6.200  10.151   9.516  0.1578  0.2993  0.3311
  761MOL0     C 2633   6.072  10.098   9.501  0.1607 -0.3564  0.5961
  761MOL0     C 2634   6.047   9.964   9.464 -0.4184 -0.7859  0.3212
  761MOL0     O 2635   5.930   9.909   9.429  0.3011 -0.6222 -0.1314
  761MOL0     C 2636   5.810   9.964   9.490 -0.0583  0.8987  0.5971
  761MOL0     C 2637   5.786   9.920   9.632 -0.0310 -0.5893  0.9060
  761MOL0     C 2638   5.759   9.771   9.628 -1.6586 -0.0440  0.3203
  761MOL0     C 2639   5.611   9.738   9.638  0.9445 -0.3720 -0.1535
  761MOL0     C 2640   5.613   9.581   9.647 -0.6357 -0.0406 -0.5971
  761MOL0     C 2641   5.478   9.513   9.612 -0.4520 -1.4139 -0.1283
  761MOL0     C 2642   5.486   9.356   9.591  0.5038 -0.1606  0.0191
  761MOL0     C 2643   5.484   9.270   9.721 -0.7862 -0.2160  0.3945
  761MOL0    Cl 2644   5.408   9.121   9.697 -0.1290  0.5600  0.0737
  761MOL0     C 2645   6.163   9.882   9.445 -1.1845 -0.0850 -0.5692
  761MOL0     C 2646   6.297   9.933   9.471  0.2711  0.6003  0.0241
  761MOL0     O 2647   6.417  10.304   9.429 -0.2704 -0.0606 -0.1529
  761MOL0     C 2648   6.699  10.357   9.452  0.8808  0.1565  0.5853
  761MOL0     C 2649   6.834  10.383   9.465  0.8191  0.2639  0.2439
  761MOL0     N 2650   7.283  10.074   9.051  0.6131 -0.5009 -0.5081
  761MOL0     N 2651   7.202  10.007   8.972 -0.2593  0.0970  0.3998
  761MOL0     C 2652   5.915  10.357   9.265  0.5850 -0.3046  0.2410
  761MOL0     C 2653   5.777  10.361   9.292  0.8748  0.9763  0.4519
  761MOL0     C 2654   5.374  10.195   9.464 -0.6395  0.2027 -0.4398
  761MOL0     C 2655   5.283  10.244   9.375  0.3141 -0.1238  0.3499
  761MOL0     C 2656   5.144  10.248   9.405  0.1713 -0.8603  0.6174
  761MOL0     C 2657   5.087  10.196   9.526 -0.7095  0.2726 -0.1235
  761MOL0     O 2658   4.952  10.173   9.544 -0.5440 -0.3601  0.6607
  761MOL0     C 2659   4.869  10.221   9.436 -0.3829  0.1927  0.1805
  761MOL0     C 2660   4.726  10.213   9.474 -0.2640  0.0490  0.0278
  761MOL0     C 2661   4.679  10.073   9.463  0.8453 -0.0356 -0.7235
  761MOL0     C 2662   4.725   9.974   9.569 -0.1626  0.3117  0.7914
  761MOL0     C 2663   4.646   9.854   9.575  1.2164 -0.0608  0.7218
  761MOL0     C 2664   4.591   9.745   9.594  0.4031  0.2060 -0.6396
  761MOL0     C 2665   5.186  10.144   9.618  0.1247  0.2488  0.0561
  761MOL0     C 2666   5.329  10.149   9.593  0.2199 -0.3662  1.4247
  761MOL0     C 2667   5.418  10.095   9.703  0.1788 -0.2906  0.1628
  761MOL0     H 2668   5.678  10.046   9.208  1.1805 -1.6696 -0.6892
  761MOL0     H 2669   5.939  10.040   9.143  0.4008  0.7187 -1.1193
  761MOL0     H 2670   6.184  10.081   9.264  3.5162  1.4345  0.3346
  761MOL0     H 2671   6.143  10.054   9.098 -0.5256 -0.9022  2.0289
  761MOL0     H 2672   6.355  10.257   9.177 -0.0990 -0.1867  2.5566
  761MOL0     H 2673   6.329  10.181   9.025 -2.3243  0.7828  1.0699
  761MOL0     H 2674   6.384   9.948   9.126  0.0049 -0.1527 -0.0684
  761MOL0     H 2675   6.443  10.042   9.261  1.1925  0.3719  0.5859
  761MOL0     H 2676   6.573  10.089   8.986  0.8572  0.5840  0.0951
  761MOL0     H 2677   6.604  10.166   9.140  2.0680 -1.6786  2.0495
  761MOL0     H 2678   6.652   9.922   9.229  0.2404 -0.0523 -0.9075
  761MOL0     H 2679   6.629   9.871   9.070 -0.4479 -1.3315  1.7521
  761MOL0     H 2680   6.823  10.026   8.998  1.3068 -0.4111 -0.1423
  761MOL0     H 2681   6.828  10.083   9.166 -2.0662  2.6511 -3.6249
  761MOL0     H 2682   6.856   9.782   9.155  1.6605 -0.1314  2.4945
  761MOL0     H 2683   6.950   9.908   9.231 -0.1877 -0.4601  0.1279
  761MOL0     H 2684   7.027   9.731   9.044 -3.5058 -1.5309  1.4998
  761MOL0     H 2685   6.994   9.855   8.930  1.5016  0.5404  0.8282
  761MOL0     H 2686   7.171   9.850   9.257 -0.4133  1.5470  1.5680
  761MOL0     H 2687   7.422   9.957   9.325 -1.1967 -0.3925 -0.2331
  761MOL0     H 2688   7.474  10.098   9.245  0.8943 -0.2984  1.1576
  761MOL0     H 2689   7.415  10.155   9.447 -0.1392  0.5306  0.4239
  761MOL0     H 2690   7.309  10.235   9.332 -0.1800 -0.1837  0.8863
  761MOL0     H 2691   7.235  10.020   9.516  1.7824 -0.7137 -2.0953
  761MOL0     H 2692   7.106  10.071   9.406 -0.7776 -1.4536  0.5949
  761MOL0     H 2693   7.235  10.267   9.603  0.5426  0.2171 -0.0618
  761MOL0     H 2694   7.096  10.169   9.639 -2.6541  1.5388 -0.8781
  761MOL0     H 2695   6.924  10.065   9.554 -0.9129 -0.7802 -0.2760
  761MOL0     H 2696   6.688  10.044   9.568  0.9161  0.6327 -0.3172
  761MOL0     H 2697   6.210  10.255   9.546 -0.0321  1.3013 -2.8083
  761MOL0     H 2698   5.991  10.170   9.508  0.7947  0.3603  0.7311
  761MOL0     H 2699   5.799  10.073   9.481  2.6818  1.4966  2.9244
  761MOL0     H 2700   5.722   9.923   9.441 -0.8797  1.7663  1.3228
  761MOL0     H 2701   5.873   9.951   9.691 -1.7920  2.4579  2.1613
  761MOL0     H 2702   5.705   9.979   9.675  0.6308  0.8452  0.2850
  761MOL0     H 2703   5.801   9.721   9.541  1.7456 -2.8661  3.2367
  761MOL0     H 2704   5.805   9.732   9.720 -1.5048 -0.1425  0.2026
  761MOL0     H 2705   5.554   9.770   9.550 -1.3752 -1.6850  0.7673
  761MOL0     H 2706   5.568   9.795   9.721 -0.0838  0.5944 -1.2967
  761MOL0     H 2707   5.639   9.569   9.753 -0.8460 -0.0180 -0.5417
  761MOL0     H 2708   5.687   9.533   9.583  0.5656 -0.7366  1.2224
  761MOL0     H 2709   5.400   9.542   9.682  0.5107  2.1900 -0.3615
  761MOL0     H 2710   5.456   9.555   9.513  3.0248  1.7101  0.2085
  761MOL0     H 2711   5.560   9.319   9.520 -1.0313  2.3349 -3.1580
  761MOL0     H 2712   5.387   9.351   9.544 -0.1028  1.0726  1.0917
  761MOL0     H 2713   5.585   9.250   9.758  0.0971 -2.0657 -2.6826
  761MOL0     H 2714   5.418   9.325   9.789  0.7027 -0.3646  2.0135
  761MOL0     H 2715   6.137   9.780   9.417 -2.5511  0.1309 -0.1735
  761MOL0     H 2716   6.375   9.861   9.445  0.0757  0.3371  0.1692
  761MOL0     H 2717   6.638  10.437   9.412  0.1883 -1.3717 -1.5923
  761MOL0     H 2718   6.867  10.481   9.434  1.0382  1.2204  3.1756
  761MOL0     H 2719   5.979  10.445   9.272  0.2156  1.1140 -6.7240
  761MOL0     H 2720   5.735  10.455   9.326  1.2205  0.8607  1.2255
  761MOL0     H 2721   5.315  10.285   9.280  0.1423 -0.8106 -0.0148
  761MOL0     H 2722   5.087  10.291   9.323  2.2190 -0.8429 -0.8820
  761MOL0     H 2723   4.875  10.169   9.340  1.0649  1.3545 -0.3880
  761MOL0     H 2724   4.892  10.326   9.419 -0.7935  0.4045  0.8838
  761MOL0     H 2725   4.678  10.276   9.397  0.3069 -0.2043 -0.5393
  761MOL0     H 2726   4.706  10.247   9.576 -0.7238  0.3582 -0.1584
  761MOL0     H 2727   4.704  10.034   9.364  0.6690 -1.3434 -0.2662
  761MOL0     H 2728   4.571  10.079   9.478  1.0123  2.0912 -0.0356
  761MOL0     H 2729   4.833   9.957   9.564  0.1501  2.2040  0.2904
  761MOL0     H 2730   4.699  10.031   9.659  0.1603  0.7055  0.6317
  761MOL0     H 2731   4.538   9.660   9.632  0.9855  0.6782  1.3120
  761MOL0     H 2732   5.157  10.089   9.708  2.1277 -1.8993 -0.5360
  761MOL0     H 2733   5.497  10.027   9.671  0.9843 -0.1742  1.8149
  761MOL0     H 2734   5.461  10.181   9.756 -0.0898 -0.8941  1.3969
  761MOL0     H 2735   5.358  10.035   9.773 -1.9180  0.6285 -0.7497
  762MOL0     O 2736   4.645   1.098   2.603  0.1974 -0.5989 -0.2407
  762MOL0     C 2737   4.611   1.194   2.676  0.7903  0.6075  0.4742
  762MOL0     O 2738   4.539   1.296   2.629 -0.7062  0.4842 -0.1361
  762MOL0     C 2739   4.535   1.301   2.493 -0.5256 -0.0311  0.6789
  762MOL0     C 2740   4.456   1.213   2.417  0.4795  0.3288 -0.2196
  762MOL0     C 2741   4.438   1.226   2.279 -0.0923  0.3156  0.7260
  762MOL0     C 2742   4.515   1.329   2.216 -0.2602  0.2047  0.3230
  762MOL0     O 2743   4.492   1.337   2.079 -0.6358 -0.3018  0.6885
  762MOL0     C 2744   4.596   1.407   2.008 -0.1951  0.3653 -0.3606
  762MOL0     C 2745   4.561   1.411   1.858 -1.3864 -0.0440 -0.3523
  762MOL0     C 2746   4.692   1.404   1.777  0.7926  0.8230  0.0747
  762MOL0     C 2747   4.658   1.438   1.636 -0.1237 -0.0249 -0.0731
  762MOL0     C 2748   4.783   1.408   1.548  0.2716 -0.1851  0.4236
  762MOL0     C 2749   4.742   1.411   1.399 -0.0611 -0.4713 -0.3891
  762MOL0     C 2750   4.862   1.370   1.309 -0.0725 -0.7004  0.0994
  762MOL0     C 2751   4.859   1.399   1.155 -0.3497 -0.1596 -0.3412
  762MOL0     N 2752   4.992   1.379   1.098  0.2788 -0.5747 -0.1850
  762MOL0     C 2753   5.066   1.259   1.108 -0.5551  0.8088  0.7995
  762MOL0     C 2754   5.181   1.291   1.041  0.5337 -0.6528 -0.6631
  762MOL0     C 2755   5.296   1.192   1.022  0.4251 -0.4411 -0.5966
  762MOL0     C 2756   5.417   1.233   1.112  0.3201  0.2962 -0.8520
  762MOL0     C 2757   5.503   1.110   1.150  0.3258 -0.0992  0.1731
  762MOL0     C 2758   5.591   1.128   1.273  1.1068 -0.6438 -0.0934
  762MOL0     O 2759   5.673   1.245   1.264  0.5424 -0.1699  0.4566
  762MOL0     C 2760   5.804   1.233   1.286 -0.4876  0.3221  0.3166
  762MOL0     C 2761   5.889   1.319   1.213  0.4055  0.5126 -0.0768
  762MOL0     C 2762   6.029   1.325   1.237  0.0825  0.1032  0.3982
  762MOL0     C 2763   6.098   1.233   1.321  0.1283 -0.6964 -0.0453
  762MOL0     C 2764   6.241   1.240   1.345  0.0535  0.1825 -0.0006
  762MOL0     O 2765   6.311   1.342   1.274  0.4267  0.1860  0.8616
  762MOL0     C 2766   6.449   1.352   1.277 -0.8666  0.4776  0.5362
  762MOL0     C 2767   6.507   1.434   1.177  0.1773 -0.1630  0.3609
  762MOL0     C 2768   6.648   1.442   1.166 -0.3375  0.0598  0.2609
  762MOL0     C 2769   6.729   1.386   1.259 -0.3299 -0.4709 -0.0589
  762MOL0     O 2770   6.866   1.418   1.258  0.1205 -0.4633 -0.4573
  762MOL0     C 2771   6.937   1.402   1.376 -0.3928 -0.7215 -0.1599
  762MOL0     C 2772   7.077   1.447   1.353 -0.6084 -0.0604  0.2655
  762MOL0     C 2773   7.090   1.590   1.316  0.2310  0.6054 -0.0148
  762MOL0     C 2774   7.230   1.625   1.264 -0.2358 -0.1361 -0.0920
  762MOL0     C 2775   7.228   1.758   1.198  0.3408  0.3183  0.2084
  762MOL0     C 2776   7.368   1.813   1.195  0.1502 -0.1352  1.1815
  762MOL0     C 2777   7.483   1.713   1.156 -0.4422  0.3913 -0.1581
  762MOL0     C 2778   7.626   1.782   1.163 -0.4112 -0.1310  0.7701
  762MOL0    Cl 2779   7.752   1.662   1.100  0.4045  0.0334  0.3260
  762MOL0     C 2780   6.671   1.318   1.367  0.0258 -0.2047 -0.3363
  762MOL0     C 2781   6.532   1.300   1.374  0.2804  0.6142  0.3674
  762MOL0     O 2782   6.293   1.145   1.398 -0.4956  0.4861 -0.8614
  762MOL0     C 2783   6.009   1.149   1.391  0.1287 -0.6362 -0.3771
  762MOL0     C 2784   5.870   1.153   1.378 -0.1660  0.3975 -0.1598
  762MOL0     N 2785   5.164   1.417   0.992 -0.0155  0.3796  0.5556
  762MOL0     N 2786   5.059   1.476   1.034 -0.9814  0.0361  0.5355
  762MOL0     C 2787   4.601   1.409   2.288 -0.7016  0.4615  0.4798
  762MOL0     C 2788   4.601   1.407   2.429 -0.1418  0.2116  0.6030
  762MOL0     C 2789   4.634   1.190   2.823  0.3548 -0.4057 -0.6073
  762MOL0     C 2790   4.679   1.307   2.887 -0.1260  0.0961  0.0060
  762MOL0     C 2791   4.704   1.306   3.023  0.0960  0.7246  0.0546
  762MOL0     C 2792   4.656   1.200   3.099 -0.1684 -0.0013  0.4579
  762MOL0     O 2793   4.661   1.212   3.231 -0.3264 -0.6521  0.2907
  762MOL0     C 2794   4.729   1.107   3.302  1.3922  0.1513 -0.2055
  762MOL0     C 2795   4.781   1.187   3.424 -1.2517  0.4463  0.4708
  762MOL0     C 2796   4.843   1.096   3.528 -0.1007 -0.1022  0.6525
  762MOL0     C 2797   4.955   1.000   3.471  0.5917  0.6145  0.0012
  762MOL0     C 2798   5.085   1.062   3.480  0.5719 -0.0595 -0.1887
  762MOL0     C 2799   5.191   1.102   3.503  0.5473 -0.1766  0.2810
  762MOL0     C 2800   4.589   1.092   3.038  0.1066 -0.7717 -0.0722
  762MOL0     C 2801   4.596   1.076   2.902 -0.1630 -1.1195  0.4639
  762MOL0     C 2802   4.521   0.963   2.829 -0.1001  0.0140 -0.0790
  762MOL0     H 2803   4.414   1.128   2.470  0.9352 -0.3898 -0.9599
  762MOL0     H 2804   4.370   1.155   2.233  1.3779 -2.4812  2.6006
  762MOL0     H 2805   4.602   1.511   2.040 -1.1275  0.0171  1.0468
  762MOL0     H 2806   4.688   1.352   2.032 -1.1340 -0.1234  2.4905
  762MOL0     H 2807   4.501   1.498   1.830 -1.8238 -0.3036 -0.2287
  762MOL0     H 2808   4.504   1.320   1.836 -1.0731  0.1664 -2.2047
  762MOL0     H 2809   4.736   1.304   1.785 -1.4930 -0.3441 -0.8828
  762MOL0     H 2810   4.766   1.470   1.823  1.2772 -0.2228  0.8390
  762MOL0     H 2811   4.581   1.366   1.607 -0.6818  0.8186 -0.7161
  762MOL0     H 2812   4.618   1.539   1.621  0.9213  0.5018  0.5639
  762MOL0     H 2813   4.858   1.486   1.564 -0.5583  0.7989 -0.3507
  762MOL0     H 2814   4.828   1.310   1.561 -2.3435 -1.9168 -2.0925
  762MOL0     H 2815   4.663   1.340   1.374 -1.0214 -0.2748  1.8204
  762MOL0     H 2816   4.711   1.513   1.375  1.2057  0.3053  1.1007
  762MOL0     H 2817   4.872   1.262   1.328 -1.7822 -1.3744 -2.2737
  762MOL0     H 2818   4.952   1.420   1.344 -0.9805  0.8350  0.3071
  762MOL0     H 2819   4.788   1.326   1.116 -1.0082 -0.7908  1.8974
  762MOL0     H 2820   4.817   1.499   1.140  1.0053  0.4653 -0.1140
  762MOL0     H 2821   5.044   1.167   1.162 -2.7704  0.8019 -0.0015
  762MOL0     H 2822   5.259   1.092   1.047  0.5627 -0.3058  0.1946
  762MOL0     H 2823   5.318   1.186   0.915  0.3947 -2.9893 -0.5213
  762MOL0     H 2824   5.485   1.300   1.060 -1.4012  0.8989 -2.4555
  762MOL0     H 2825   5.375   1.271   1.206  2.0335  2.8384 -1.0267
  762MOL0     H 2826   5.562   1.098   1.059  0.0503 -3.2215  0.2806
  762MOL0     H 2827   5.441   1.021   1.164 -0.2264 -0.0930 -1.8774
  762MOL0     H 2828   5.651   1.038   1.293 -0.5800 -1.8875 -0.3723
  762MOL0     H 2829   5.518   1.142   1.354 -0.0016  0.3989 -1.2200
  762MOL0     H 2830   5.843   1.383   1.139 -2.1836  1.0744  1.8862
  762MOL0     H 2831   6.094   1.398   1.189  0.0372  0.0364  0.2342
  762MOL0     H 2832   6.445   1.490   1.107  0.0368 -1.5760 -0.7076
  762MOL0     H 2833   6.694   1.483   1.076  3.1907 -2.0643  0.8916
  762MOL0     H 2834   6.875   1.454   1.449 -1.7886 -1.7624 -0.5720
  762MOL0     H 2835   6.938   1.299   1.412 -1.6186  0.2934  3.0912
  762MOL0     H 2836   7.141   1.416   1.437 -0.0674  0.4233  0.0354
  762MOL0     H 2837   7.119   1.385   1.274 -2.9306 -0.6180 -0.5963
  762MOL0     H 2838   7.013   1.618   1.243  2.0980 -0.0545 -2.3614
  762MOL0     H 2839   7.070   1.654   1.403 -0.5850 -0.9532  0.9997
  762MOL0     H 2840   7.247   1.543   1.193 -0.6116  0.6710 -1.1426
  762MOL0     H 2841   7.294   1.624   1.353  1.5804 -0.0310 -1.3444
  762MOL0     H 2842   7.155   1.827   1.241  0.9273  3.3924 -3.2417
  762MOL0     H 2843   7.189   1.749   1.096  4.6572  0.2852 -1.6295
  762MOL0     H 2844   7.365   1.887   1.115 -0.7250 -0.7314  0.6536
  762MOL0     H 2845   7.381   1.869   1.289 -2.2375  1.8281  0.4609
  762MOL0     H 2846   7.463   1.668   1.058  2.0292 -0.4784 -0.3422
  762MOL0     H 2847   7.492   1.619   1.212  0.5974 -1.4403 -3.1385
  762MOL0     H 2848   7.621   1.877   1.108 -1.7869 -0.1090  0.8928
  762MOL0     H 2849   7.651   1.809   1.266  1.1107 -4.4302  1.7242
  762MOL0     H 2850   6.724   1.303   1.461  3.4697  0.9013 -1.9256
  762MOL0     H 2851   6.501   1.247   1.463  0.7706  3.4049  2.3437
  762MOL0     H 2852   6.050   1.089   1.472  0.5220  0.5387  0.3402
  762MOL0     H 2853   5.819   1.094   1.453 -0.0458 -0.7363 -0.9414
  762MOL0     H 2854   4.671   1.471   2.233 -0.3022 -0.1159  0.3331
  762MOL0     H 2855   4.651   1.486   2.484 -0.6801 -0.9985  2.9911
  762MOL0     H 2856   4.694   1.401   2.835  0.5372 -1.0992 -2.0899
  762MOL0     H 2857   4.739   1.389   3.082  0.3094  0.8623 -0.2642
  762MOL0     H 2858   4.804   1.054   3.242 -0.2911 -2.1889 -0.3908
  762MOL0     H 2859   4.662   1.024   3.326  3.3731 -1.8546 -1.1861
  762MOL0     H 2860   4.697   1.242   3.468 -1.9976 -2.1121  2.4877
  762MOL0     H 2861   4.866   1.251   3.397 -0.8074 -1.1565 -2.2806
  762MOL0     H 2862   4.768   1.025   3.565 -0.9187 -1.3247 -2.9092
  762MOL0     H 2863   4.876   1.156   3.613 -0.0164 -0.9992  1.2704
  762MOL0     H 2864   4.960   0.911   3.535 -2.1893  0.8812  0.6956
  762MOL0     H 2865   4.931   0.966   3.370 -1.1579 -0.3993  0.7060
  762MOL0     H 2866   5.280   1.162   3.505 -0.8437  2.1189 -1.7100
  762MOL0     H 2867   4.545   1.025   3.111 -0.6738  1.3541  1.5118
  762MOL0     H 2868   4.580   0.902   2.759 -0.0986 -1.7905  1.4215
  762MOL0     H 2869   4.497   0.893   2.910 -0.0640  0.9136  0.7224
  762MOL0     H 2870   4.430   1.001   2.781 -1.9165 -2.5052  1.1356
  763MOL0     O 2871   7.716   9.547   6.528  0.1202 -0.0709 -0.4496
  763MOL0     C 2872   7.671   9.658   6.516 -0.4971  0.0521 -0.2629
  763MOL0     O 2873   7.670   9.732   6.399  0.2104 -0.2841  0.2584
  763MOL0     C 2874   7.724   9.685   6.284  0.7460  0.0300  0.2523
  763MOL0     C 2875   7.654   9.701   6.161 -0.0091 -0.1087 -0.1737
  763MOL0     C 2876   7.711   9.647   6.041  0.0430 -0.0973  0.7820
  763MOL0     C 2877   7.835   9.592   6.044  0.7606  0.4703 -0.6171
  763MOL0     O 2878   7.885   9.556   5.927  0.4786  0.4031  0.0291
  763MOL0     C 2879   8.022   9.508   5.916 -0.0236  1.1866  0.0665
  763MOL0     C 2880   8.036   9.368   5.983 -1.1164  0.4161  0.8754
  763MOL0     C 2881   7.964   9.269   5.896 -0.4195 -0.0370 -0.0339
  763MOL0     C 2882   7.973   9.129   5.956  0.4536 -0.2733 -0.4599
  763MOL0     C 2883   7.905   9.002   5.895  0.0885 -0.6076  0.0579
  763MOL0     C 2884   7.974   8.966   5.755 -0.7573  0.3545 -0.7417
  763MOL0     C 2885   7.957   8.817   5.719  0.5774 -0.0897 -0.8174
  763MOL0     C 2886   8.041   8.778   5.600 -0.3619  0.4128  0.5378
  763MOL0     N 2887   8.184   8.794   5.631  0.5080 -0.7125  0.6902
  763MOL0     C 2888   8.259   8.713   5.721  0.0442 -0.0963 -0.0386
  763MOL0     C 2889   8.389   8.745   5.697 -0.4087  0.3331 -0.6400
  763MOL0     C 2890   8.507   8.673   5.744  0.5177  0.7190 -0.2370
  763MOL0     C 2891   8.618   8.674   5.644 -0.4892 -0.6563  0.2805
  763MOL0     C 2892   8.760   8.625   5.692  0.1428 -0.2739 -0.2712
  763MOL0     C 2893   8.827   8.719   5.794  0.2593  0.6276 -0.0127
  763MOL0     O 2894   8.965   8.730   5.762  0.4087 -0.2202  0.1759
  763MOL0     C 2895   9.006   8.837   5.691 -0.7084  0.6705  0.9694
  763MOL0     C 2896   9.138   8.870   5.700  0.2634  0.3293 -0.0167
  763MOL0     C 2897   9.198   8.979   5.630  0.2190 -0.0102  0.2720
  763MOL0     C 2898   9.115   9.065   5.551 -0.4805  0.2201  0.4703
  763MOL0     C 2899   9.182   9.178   5.481 -0.5543 -0.2401  0.5860
  763MOL0     O 2900   9.321   9.171   5.484  0.3320  0.1730 -0.3458
  763MOL0     C 2901   9.386   9.247   5.393 -0.8832  0.3776 -0.5528
  763MOL0     C 2902   9.476   9.179   5.306  0.2710  0.2764  0.1103
  763MOL0     C 2903   9.551   9.236   5.209  0.4531 -0.8381  0.0974
  763MOL0     C 2904   9.546   9.378   5.204 -0.7995  0.5454  0.1613
  763MOL0     O 2905   9.623   9.452   5.111  0.1484  0.1294  0.3437
  763MOL0     C 2906   9.692   9.385   5.001  0.4957 -0.9096  0.7313
  763MOL0     C 2907   9.712   9.487   4.883  0.0348  0.4816 -0.4018
  763MOL0     C 2908   9.812   9.604   4.917  0.1084 -0.3156 -0.4300
  763MOL0     C 2909   9.783   9.724   4.830 -0.2370  0.0510  0.6570
  763MOL0     C 2910   9.900   9.829   4.829  0.2246 -0.5728  0.7886
  763MOL0     C 2911  10.045   9.779   4.798  0.9894 -0.0952  0.9378
  763MOL0     C 2912  10.122   9.910   4.765  0.4497  0.4377  0.9277
  763MOL0     C 2913  10.271   9.882   4.763 -0.0638  0.6843 -1.1170
  763MOL0    Cl 2914  10.323   9.853   4.935 -0.1699 -0.1190  0.1418
  763MOL0     C 2915   9.465   9.440   5.292  0.7795  1.2333  0.0672
  763MOL0     C 2916   9.380   9.381   5.382  0.4631  0.2262 -0.2364
  763MOL0     O 2917   9.115   9.252   5.416  0.9304 -0.0844 -0.3311
  763MOL0     C 2918   8.979   9.033   5.534  1.1458  0.1082  0.2218
  763MOL0     C 2919   8.932   8.917   5.609  0.0180  0.3929 -0.4579
  763MOL0     N 2920   8.383   8.853   5.612 -0.0359  0.4458 -0.2623
  763MOL0     N 2921   8.265   8.877   5.555 -0.3396  0.3765 -0.5659
  763MOL0     C 2922   7.900   9.586   6.162  0.6862 -0.9167 -0.6881
  763MOL0     C 2923   7.853   9.636   6.281  0.4826 -0.0804  0.4146
  763MOL0     C 2924   7.622   9.703   6.638  0.3441  0.5536 -0.2365
  763MOL0     C 2925   7.484   9.727   6.628  0.2295  0.2215 -1.0514
  763MOL0     C 2926   7.410   9.756   6.742 -0.1777 -0.1506 -0.7974
  763MOL0     C 2927   7.473   9.761   6.867 -1.0477  0.3285 -0.1083
  763MOL0     O 2928   7.393   9.790   6.973 -0.3068 -0.3516 -0.4073
  763MOL0     C 2929   7.449   9.896   7.054 -1.4795  0.6530  0.3841
  763MOL0     C 2930   7.345   9.991   7.104  0.6208 -1.3911  0.3508
  763MOL0     C 2931   7.284  10.077   6.994  0.4785  0.0938 -0.5737
  763MOL0     C 2932   7.380  10.129   6.880  0.2739 -0.3791 -0.0647
  763MOL0     C 2933   7.306  10.202   6.777 -0.6372  0.9176 -0.0019
  763MOL0     C 2934   7.233  10.252   6.694 -0.6138 -0.5576 -0.2019
  763MOL0     C 2935   7.620   9.746   6.872 -0.1468  0.4252  0.2032
  763MOL0     C 2936   7.695   9.720   6.760  0.1681  0.4608 -0.4557
  763MOL0     C 2937   7.841   9.697   6.784  0.7436 -0.1542  0.2621
  763MOL0     H 2938   7.553   9.741   6.154 -0.9168 -1.7092  2.3007
  763MOL0     H 2939   7.657   9.656   5.948  2.7101  0.8667 -0.7994
  763MOL0     H 2940   8.047   9.496   5.810  2.9425  2.2028  0.5526
  763MOL0     H 2941   8.096   9.584   5.943  0.6268  0.9856 -1.0673
  763MOL0     H 2942   7.999   9.350   6.084  1.4229  1.1483  2.0326
  763MOL0     H 2943   8.145   9.358   5.983 -1.0253  1.0161 -0.5853
  763MOL0     H 2944   8.015   9.271   5.799 -0.1452  1.4839  0.1147
  763MOL0     H 2945   7.860   9.300   5.886 -1.0195 -2.1622 -0.9291
  763MOL0     H 2946   8.075   9.093   5.968  0.4284  0.0059  0.7829
  763MOL0     H 2947   7.927   9.141   6.054 -1.5618  2.4306 -1.5911
  763MOL0     H 2948   7.929   8.918   5.960  4.0717 -1.8504 -2.6080
  763MOL0     H 2949   7.798   9.017   5.883 -0.6432 -4.5191  0.4779
  763MOL0     H 2950   7.921   9.018   5.675 -0.9781 -0.3042 -1.0298
  763MOL0     H 2951   8.075   9.008   5.760 -0.4529 -0.3940 -0.4876
  763MOL0     H 2952   7.855   8.792   5.691  0.7303 -2.2992  0.3423
  763MOL0     H 2953   7.979   8.753   5.805 -0.5447  0.2709 -0.2564
  763MOL0     H 2954   8.016   8.671   5.593  1.8391 -0.1735  0.7863
  763MOL0     H 2955   8.024   8.844   5.515  0.3494  2.2880  1.7775
  763MOL0     H 2956   8.218   8.639   5.789  0.9241 -0.0403  0.5668
  763MOL0     H 2957   8.532   8.725   5.837 -2.1789 -1.0553  1.6422
  763MOL0     H 2958   8.473   8.574   5.776 -0.1710  1.2330  0.6501
  763MOL0     H 2959   8.598   8.608   5.559  0.2420 -1.5890  0.7999
  763MOL0     H 2960   8.614   8.774   5.601 -2.2664 -1.1593 -0.8407
  763MOL0     H 2961   8.818   8.616   5.600 -0.9713 -1.1477 -0.9040
  763MOL0     H 2962   8.759   8.525   5.735 -0.3022  0.3534  1.2585
  763MOL0     H 2963   8.819   8.680   5.896  1.8917  0.2400 -0.0091
  763MOL0     H 2964   8.780   8.818   5.791  0.6434  0.8373 -3.3035
  763MOL0     H 2965   9.203   8.803   5.756 -0.5066 -1.2536 -0.9482
  763MOL0     H 2966   9.304   8.990   5.654  0.7483 -1.4173 -1.2989
  763MOL0     H 2967   9.472   9.071   5.298 -0.1268  0.4208 -3.4854
  763MOL0     H 2968   9.600   9.179   5.131 -1.8803 -2.2255 -0.4646
  763MOL0     H 2969   9.790   9.339   5.016  0.1443 -1.4036  1.5544
  763MOL0     H 2970   9.620   9.314   4.958 -1.8243  2.5777 -1.7468
  763MOL0     H 2971   9.734   9.421   4.798  0.3553 -1.5799  1.2000
  763MOL0     H 2972   9.620   9.546   4.880  0.3089  0.8823 -1.1231
  763MOL0     H 2973   9.821   9.624   5.024 -0.3966  0.2789 -0.4927
  763MOL0     H 2974   9.907   9.561   4.883 -0.3289 -1.9989  0.4059
  763MOL0     H 2975   9.685   9.769   4.850 -0.5723 -0.1965 -0.3468
  763MOL0     H 2976   9.785   9.672   4.733 -1.4053 -2.5962  1.9301
  763MOL0     H 2977   9.900   9.893   4.917  0.7867 -0.2316  0.5452
  763MOL0     H 2978   9.871   9.885   4.739 -1.4278  1.5662  2.5542
  763MOL0     H 2979  10.081   9.735   4.892  0.7044 -0.0688  1.0599
  763MOL0     H 2980  10.065   9.707   4.719  1.7671 -0.5364  1.5212
  763MOL0     H 2981  10.101   9.984   4.843 -1.0724 -0.3670  1.3189
  763MOL0     H 2982  10.096   9.945   4.664  3.9908 -2.5277 -1.2518
  763MOL0     H 2983  10.290   9.793   4.703  3.2569 -0.6759  1.6810
  763MOL0     H 2984  10.322   9.971   4.724 -0.9554  0.5058 -2.8051
  763MOL0     H 2985   9.461   9.549   5.289 -1.3058  1.2728  2.0404
  763MOL0     H 2986   9.305   9.435   5.439 -0.0276 -0.5700 -0.1205
  763MOL0     H 2987   8.914   9.090   5.468  1.0195 -0.3643 -0.0683
  763MOL0     H 2988   8.832   8.888   5.578  0.3732  0.4245 -1.6958
  763MOL0     H 2989   8.003   9.555   6.176  1.4998  1.9347  0.3758
  763MOL0     H 2990   7.903   9.627   6.376  1.4137 -0.0364 -0.0612
  763MOL0     H 2991   7.427   9.740   6.536 -1.1338  1.4758 -0.0938
  763MOL0     H 2992   7.305   9.784   6.745 -0.8548 -2.0145 -3.3387
  763MOL0     H 2993   7.539   9.950   7.023 -2.8129  2.9968  0.3915
  763MOL0     H 2994   7.488   9.836   7.137  0.2422  1.1470 -0.0226
  763MOL0     H 2995   7.380  10.059   7.183 -3.5851  1.1011  0.3833
  763MOL0     H 2996   7.263   9.940   7.156 -0.2386  0.0674  0.4892
  763MOL0     H 2997   7.217  10.157   7.028 -2.8836 -1.2327 -3.4612
  763MOL0     H 2998   7.203  10.026   6.940 -1.4412  3.2340 -0.9133
  763MOL0     H 2999   7.461  10.195   6.911  1.6782 -2.1219  0.1173
  763MOL0     H 3000   7.426  10.042   6.833 -0.8341 -1.9992  1.7289
  763MOL0     H 3001   7.169  10.299   6.623  1.1736  0.9295 -0.9260
  763MOL0     H 3002   7.666   9.780   6.964  1.2288  1.5025 -0.8278
  763MOL0     H 3003   7.864   9.623   6.862  0.7881 -0.5699 -0.1411
  763MOL0     H 3004   7.881   9.657   6.690 -0.3190  1.5821 -0.9794
  763MOL0     H 3005   7.875   9.798   6.808  0.7728  0.0489 -0.5986
  764MOL0     O 3006  10.897   6.947  11.338  0.2846  0.7759 -0.5748
  764MOL0     C 3007  10.892   6.856  11.254 -0.4343 -0.0910 -1.0913
  764MOL0     O 3008  10.990   6.822  11.167  0.3534 -0.7372 -0.5159
  764MOL0     C 3009  11.107   6.877  11.195 -0.5870  0.9161  0.1437
  764MOL0     C 3010  11.196   6.808  11.276 -0.2217 -0.0041 -0.6515
  764MOL0     C 3011  11.326   6.853  11.296 -0.0407 -0.4058  0.4650
  764MOL0     C 3012  11.364   6.974  11.232 -1.4557  0.2804  0.9193
  764MOL0     O 3013  11.485   7.027  11.254 -0.2014  0.0391  0.0285
  764MOL0     C 3014  11.489   7.055  11.399  1.4647  0.4346 -0.1642
  764MOL0     C 3015  11.598   7.154  11.432 -0.1952 -0.2937  0.6144
  764MOL0     C 3016  11.738   7.093  11.418 -0.5376 -0.8743 -0.4616
  764MOL0     C 3017  11.790   7.040  11.557 -0.5205 -0.0840  1.5345
  764MOL0     C 3018  11.932   6.986  11.555 -0.2083  0.3088  0.6679
  764MOL0     C 3019  12.022   7.106  11.590  0.9611  0.9240 -0.7269
  764MOL0     C 3020  12.168   7.053  11.576 -0.4831  0.6437  0.0783
  764MOL0     C 3021  12.254   7.168  11.607  0.4453 -0.1531 -0.1359
  764MOL0     N 3022  12.393   7.131  11.621 -0.0577 -0.7397 -0.2956
  764MOL0     C 3023  12.490   7.101  11.523  1.1385  0.9734 -1.0182
  764MOL0     C 3024  12.612   7.096  11.584 -0.0403  0.0093  0.0279
  764MOL0     C 3025  12.758   7.067  11.525  1.1968 -1.4379  0.0261
  764MOL0     C 3026  12.736   6.924  11.471 -0.2908  0.0709  0.0810
  764MOL0     C 3027  12.857   6.880  11.404  0.1213  0.1162  0.1384
  764MOL0     C 3028  12.983   6.879  11.503 -0.4487 -0.4595 -0.3509
  764MOL0     O 3029  13.045   7.009  11.510  0.5783  0.0339  0.6212
  764MOL0     C 3030  13.165   7.021  11.568 -0.2458 -0.7527 -0.4964
  764MOL0     C 3031  13.203   7.153  11.603  0.7169  0.3909 -0.2377
  764MOL0     C 3032  13.321   7.178  11.679  0.0551  0.5506 -0.1815
  764MOL0     C 3033  13.408   7.058  11.703 -0.7806 -0.5749 -0.1152
  764MOL0     C 3034  13.539   7.080  11.762  0.3199  0.9399 -0.0335
  764MOL0     O 3035  13.639   6.990  11.733 -0.4011 -0.1882 -0.2699
  764MOL0     C 3036  13.751   6.985  11.815  0.5584 -0.4860 -0.9028
  764MOL0     C 3037  13.742   6.939  11.950  0.2393  0.9747  0.6289
  764MOL0     C 3038  13.852   6.950  12.029  0.2966 -0.7910 -0.0930
  764MOL0     C 3039  13.976   6.977  11.977 -0.4600 -0.4881 -0.0834
  764MOL0     O 3040  14.083   6.967  12.060 -0.1502  0.9455 -0.7217
  764MOL0     C 3041  14.214   6.960  12.005 -0.2472 -1.0906 -0.1925
  764MOL0     C 3042  14.316   6.937  12.117 -0.0039  0.9266  0.1759
  764MOL0     C 3043  14.464   6.954  12.058  0.3065 -0.0389 -0.1089
  764MOL0     C 3044  14.544   6.887  12.175  0.5081 -0.2533 -0.4506
  764MOL0     C 3045  14.692   6.879  12.145  0.1939  0.0911 -0.0575
  764MOL0     C 3046  14.748   7.017  12.133 -0.3569 -0.8908 -0.3463
  764MOL0     C 3047  14.903   7.014  12.145 -0.3759 -0.4781 -0.0988
  764MOL0     C 3048  14.976   7.124  12.059 -0.0468  0.1303 -0.6261
  764MOL0    Cl 3049  14.984   7.073  11.887  0.3506 -0.3190  0.1317
  764MOL0     C 3050  13.989   7.012  11.845  0.3741 -0.2496  1.0087
  764MOL0     C 3051  13.876   7.022  11.764 -0.1048 -0.5550  0.1139
  764MOL0     O 3052  13.563   7.177  11.835  0.4744  0.2294 -0.0262
  764MOL0     C 3053  13.364   6.929  11.667 -0.2852  0.0465  0.0185
  764MOL0     C 3054  13.245   6.915  11.611  0.7087 -0.7814  0.1136
  764MOL0     N 3055  12.589   7.119  11.720 -0.1360  0.6555 -0.0251
  764MOL0     N 3056  12.459   7.140  11.735 -0.2491  0.4760  0.0014
  764MOL0     C 3057  11.272   7.035  11.148  0.1709  0.0411 -0.2915
  764MOL0     C 3058  11.144   6.989  11.131  0.4733  0.7666 -0.5247
  764MOL0     C 3059  10.769   6.776  11.252  0.7029  0.0336 -0.8461
  764MOL0     C 3060  10.770   6.647  11.189  0.0171 -0.1112  1.0174
  764MOL0     C 3061  10.653   6.571  11.166 -0.7397  0.1006  0.2497
  764MOL0     C 3062  10.531   6.618  11.206  0.4874  0.0489 -0.3116
  764MOL0     O 3063  10.415   6.549  11.184 -0.4956 -0.5470  0.4886
  764MOL0     C 3064  10.397   6.522  11.048 -0.0275 -0.7897  0.3532
  764MOL0     C 3065  10.269   6.594  10.994  0.5587 -0.2970 -0.1457
  764MOL0     C 3066  10.141   6.533  11.053 -0.6059  0.0114  0.0139
  764MOL0     C 3067  10.015   6.556  10.964 -0.2062 -0.3827 -0.5800
  764MOL0     C 3068   9.911   6.488  11.045 -0.1237  0.0032  0.3538
  764MOL0     C 3069   9.837   6.413  11.105 -1.1557  1.1448 -0.0045
  764MOL0     C 3070  10.525   6.739  11.280  0.3310  0.2205  0.0749
  764MOL0     C 3071  10.637   6.821  11.294  0.5428  0.9287  0.3717
  764MOL0     C 3072  10.603   6.957  11.349  0.1061  0.5423  0.4350
  764MOL0     H 3073  11.167   6.715  11.326  3.4241 -0.7780  0.3391
  764MOL0     H 3074  11.391   6.785  11.349 -0.4921  0.6067  2.4143
  764MOL0     H 3075  11.392   7.087  11.439  0.2224 -2.3161 -0.7410
  764MOL0     H 3076  11.518   6.966  11.455  3.1910 -0.6359 -2.5849
  764MOL0     H 3077  11.575   7.192  11.532 -0.2806 -1.3050  0.9874
  764MOL0     H 3078  11.598   7.238  11.363  0.4148 -1.9689 -1.5297
  764MOL0     H 3079  11.810   7.164  11.378  0.6485 -1.0187  1.2963
  764MOL0     H 3080  11.742   7.014  11.344 -2.7610 -0.7747 -0.7579
  764MOL0     H 3081  11.784   7.121  11.630  0.4706  0.6802  0.7915
  764MOL0     H 3082  11.718   6.962  11.585 -1.2907  0.1945  0.3648
  764MOL0     H 3083  11.938   6.903  11.626  0.2709 -3.3805 -3.3012
  764MOL0     H 3084  11.944   6.945  11.455 -3.6187 -0.6682  0.5137
  764MOL0     H 3085  11.995   7.195  11.533  1.4879  1.8355  0.4192
  764MOL0     H 3086  12.006   7.138  11.693 -0.9493 -0.0696 -0.6758
  764MOL0     H 3087  12.182   7.026  11.471 -0.4388 -0.4679  0.3561
  764MOL0     H 3088  12.198   6.968  11.638  1.6482  0.8836 -0.5311
  764MOL0     H 3089  12.250   7.243  11.528 -1.1238 -0.7890 -0.6966
  764MOL0     H 3090  12.211   7.207  11.700 -0.0562 -0.6789 -0.1354
  764MOL0     H 3091  12.457   7.073  11.423 -0.8915 -1.8589  0.3144
  764MOL0     H 3092  12.780   7.141  11.448 -2.1266 -1.3946 -1.0168
  764MOL0     H 3093  12.830   7.082  11.607  0.2825 -0.7022  0.7264
  764MOL0     H 3094  12.715   6.856  11.554  0.4709 -1.2854 -0.7919
  764MOL0     H 3095  12.656   6.921  11.397  1.0738  1.6211 -1.5574
  764MOL0     H 3096  12.880   6.932  11.311 -1.0293  2.8593  1.2799
  764MOL0     H 3097  12.837   6.777  11.374  2.9188 -0.6165  0.5017
  764MOL0     H 3098  13.049   6.797  11.473 -0.8739 -1.0483  0.2995
  764MOL0     H 3099  12.960   6.850  11.606 -0.0536  0.2124 -0.0685
  764MOL0     H 3100  13.137   7.232  11.568 -0.0326 -0.0678  0.0966
  764MOL0     H 3101  13.345   7.275  11.722 -0.1620 -0.4643  2.4637
  764MOL0     H 3102  13.647   6.898  11.983  0.5482 -1.3406 -1.1301
  764MOL0     H 3103  13.846   6.920  12.134 -1.4572  1.2140  0.4483
  764MOL0     H 3104  14.217   6.880  11.931  1.9224  0.6126 -2.0759
  764MOL0     H 3105  14.250   7.049  11.953 -1.1143 -0.1464  0.7652
  764MOL0     H 3106  14.298   6.997  12.206 -1.0251 -1.8276  1.9448
  764MOL0     H 3107  14.301   6.833  12.147 -0.6826  0.2647 -2.1881
  764MOL0     H 3108  14.480   6.904  11.962 -0.2071 -0.7530  0.1587
  764MOL0     H 3109  14.488   7.060  12.051  1.9214 -0.4144 -0.5944
  764MOL0     H 3110  14.498   6.793  12.207 -0.6623 -0.2998 -2.1325
  764MOL0     H 3111  14.545   6.958  12.259  0.6868  2.2780 -2.4755
  764MOL0     H 3112  14.730   6.817  12.063  0.7763 -3.1109  2.4498
  764MOL0     H 3113  14.733   6.822  12.229 -0.0408 -3.4067 -2.1163
  764MOL0     H 3114  14.730   7.065  12.036  0.3446 -0.3894 -0.2333
  764MOL0     H 3115  14.720   7.089  12.210  3.6091  0.9869 -0.4254
  764MOL0     H 3116  14.936   6.912  12.121 -2.6436 -1.2303 -0.2958
  764MOL0     H 3117  14.927   7.028  12.250  4.4498 -1.8948 -0.7839
  764MOL0     H 3118  14.929   7.219  12.085 -4.9328 -1.3969 -2.6747
  764MOL0     H 3119  15.077   7.131  12.100 -0.4649  0.3860  0.3717
  764MOL0     H 3120  14.076   7.046  11.790 -0.9083 -0.8601 -1.5717
  764MOL0     H 3121  13.870   7.059  11.662  1.4592  0.6800  0.4346
  764MOL0     H 3122  13.415   6.834  11.679 -0.7645  0.0395  2.6050
  764MOL0     H 3123  13.216   6.812  11.595  0.3127 -0.6754  0.1605
  764MOL0     H 3124  11.312   7.127  11.106 -1.5273  0.2150 -1.6773
  764MOL0     H 3125  11.062   7.024  11.069 -0.4157  1.0403  0.7599
  764MOL0     H 3126  10.869   6.616  11.160  0.5024  3.3354 -1.7964
  764MOL0     H 3127  10.675   6.474  11.122  0.7279  0.5422 -0.0613
  764MOL0     H 3128  10.381   6.413  11.042 -2.7967 -0.4756  0.8448
  764MOL0     H 3129  10.479   6.555  10.984 -0.3112  0.3002  0.5388
  764MOL0     H 3130  10.263   6.583  10.885 -0.5911  0.4779 -0.1771
  764MOL0     H 3131  10.282   6.700  11.017 -0.3773 -0.5160  1.5416
  764MOL0     H 3132  10.128   6.553  11.160 -1.2430  1.1734 -0.2558
  764MOL0     H 3133  10.161   6.426  11.039 -2.7541 -0.1191 -3.0303
  764MOL0     H 3134   9.987   6.658  10.938  1.0977 -0.7340 -3.7674
  764MOL0     H 3135  10.031   6.506  10.868  1.2103  1.6210 -1.4535
  764MOL0     H 3136   9.773   6.348  11.162  0.4697 -1.4956 -1.0211
  764MOL0     H 3137  10.429   6.762  11.324 -1.4833 -3.3558 -1.5501
  764MOL0     H 3138  10.501   6.970  11.387  0.5784  2.0403  1.2715
  764MOL0     H 3139  10.667   6.977  11.435  0.2399  1.8100  0.0554
  764MOL0     H 3140  10.620   7.033  11.272 -4.2771  1.4769  0.0943
  765MOL0     O 3141   8.662   2.970   5.348  0.0141 -0.6326  0.2393
  765MOL0     C 3142   8.712   2.899   5.271  0.4255 -0.2852  0.8243
  765MOL0     O 3143   8.640   2.793   5.225 -0.3273  0.0126  1.0604
  765MOL0     C 3144   8.546   2.741   5.304  0.7236  0.5286 -0.7370
  765MOL0     C 3145   8.588   2.655   5.404 -0.0503  1.2311  0.4302
  765MOL0     C 3146   8.490   2.596   5.496 -0.2339  0.5751 -0.3870
  765MOL0     C 3147   8.354   2.629   5.471  0.0869  0.8342  0.1677
  765MOL0     O 3148   8.258   2.573   5.554  0.1056 -0.3316  0.2671
  765MOL0     C 3149   8.236   2.438   5.543  0.0349 -0.4219  0.3144
  765MOL0     C 3150   8.120   2.391   5.630  0.5980 -0.1700 -0.1262
  765MOL0     C 3151   7.988   2.465   5.591  0.4209 -0.6184 -0.7569
  765MOL0     C 3152   7.873   2.390   5.652  0.8617  0.2092 -0.2548
  765MOL0     C 3153   7.826   2.261   5.581  0.0202 -1.6495  0.3880
  765MOL0     C 3154   7.814   2.143   5.686  0.1986 -0.2909  0.1852
  765MOL0     C 3155   7.789   2.009   5.617  0.2122 -0.1719 -0.5349
  765MOL0     C 3156   7.752   1.893   5.708  0.6385 -0.2654 -0.1649
  765MOL0     N 3157   7.876   1.855   5.783 -0.3422  0.4085  0.4108
  765MOL0     C 3158   7.920   1.925   5.896 -0.7796 -0.0755 -0.3384
  765MOL0     C 3159   8.040   1.871   5.917 -0.0047 -0.8741 -0.8918
  765MOL0     C 3160   8.132   1.928   6.024  1.6522  0.1048  0.4582
  765MOL0     C 3161   8.229   2.033   5.961 -0.1871  0.8739  0.1839
  765MOL0     C 3162   8.304   2.115   6.072  0.5867 -0.0704 -0.2150
  765MOL0     C 3163   8.410   2.218   6.029  0.4934 -0.1440  0.3111
  765MOL0     O 3164   8.535   2.151   6.002  0.1911 -0.0214 -0.0926
  765MOL0     C 3165   8.660   2.210   6.032 -0.1579  0.3814 -0.3033
  765MOL0     C 3166   8.759   2.175   5.944  0.3864 -0.5180 -0.2601
  765MOL0     C 3167   8.886   2.235   5.959  0.8635  0.2540  0.4677
  765MOL0     C 3168   8.917   2.331   6.053 -0.3839  0.2542 -0.0749
  765MOL0     C 3169   9.047   2.402   6.059 -0.8688  0.0213 -0.0100
  765MOL0     O 3170   9.137   2.368   5.968  0.1303  0.4577  0.5868
  765MOL0     C 3171   9.265   2.427   5.971  0.5748  0.1709 -0.4882
  765MOL0     C 3172   9.334   2.441   6.087  0.1558 -0.2537 -0.6533
  765MOL0     C 3173   9.468   2.480   6.088 -0.0018  0.6134 -0.5666
  765MOL0     C 3174   9.539   2.513   5.975  0.9612  0.1812  0.3870
  765MOL0     O 3175   9.673   2.541   5.963 -0.9918 -0.5587 -0.2193
  765MOL0     C 3176   9.765   2.545   6.078  0.8455  0.3922  0.1581
  765MOL0     C 3177   9.750   2.662   6.174 -0.8360  0.3149  0.5958
  765MOL0     C 3178   9.809   2.794   6.120  0.3679 -0.0366  0.2261
  765MOL0     C 3179   9.953   2.773   6.065  0.2095 -0.0971 -0.4049
  765MOL0     C 3180  10.034   2.905   6.062 -0.4420 -0.0214 -0.6218
  765MOL0     C 3181  10.098   2.940   6.200  0.2083 -0.0256 -1.3291
  765MOL0     C 3182  10.175   3.078   6.198  0.0313  0.1101  0.0399
  765MOL0     C 3183  10.163   3.154   6.334  0.1301 -0.4050  0.6961
  765MOL0    Cl 3184  10.228   3.062   6.474  0.0707  0.2916  0.1194
  765MOL0     C 3185   9.461   2.510   5.851  0.4676 -0.9493  0.1893
  765MOL0     C 3186   9.329   2.470   5.852 -0.0641 -0.5350 -0.2667
  765MOL0     O 3187   9.059   2.498   6.138  0.7379 -0.6703  0.4794
  765MOL0     C 3188   8.809   2.363   6.140 -0.3932 -0.2253 -0.1536
  765MOL0     C 3189   8.683   2.298   6.136 -0.1716  0.2603  0.3256
  765MOL0     N 3190   8.071   1.771   5.821 -0.6194  0.7041 -0.3780
  765MOL0     N 3191   7.964   1.756   5.754 -0.1235  0.2383  0.8132
  765MOL0     C 3192   8.312   2.709   5.363 -0.1833 -0.0838 -0.4998
  765MOL0     C 3193   8.409   2.772   5.282 -0.2646 -0.0953 -0.0859
  765MOL0     C 3194   8.860   2.921   5.232  0.3779 -0.6796 -0.0645
  765MOL0     C 3195   8.918   2.817   5.161 -0.0734 -0.7403 -0.0889
  765MOL0     C 3196   9.055   2.804   5.139 -1.2063 -0.2957  1.2342
  765MOL0     C 3197   9.147   2.905   5.174  0.2469  0.8538  0.5151
  765MOL0     O 3198   9.275   2.903   5.140 -0.2006 -0.0265  0.1914
  765MOL0     C 3199   9.341   2.781   5.161 -0.2474 -0.1187 -0.3660
  765MOL0     C 3200   9.368   2.730   5.020 -0.0758 -0.0846 -0.5894
  765MOL0     C 3201   9.515   2.704   4.985 -0.0971  0.0603  0.2414
  765MOL0     C 3202   9.588   2.809   4.910 -1.1852 -1.1067 -0.3781
  765MOL0     C 3203   9.638   2.913   5.000  0.1203  0.1144 -0.0595
  765MOL0     C 3204   9.672   2.997   5.083 -0.6994  0.1300  0.4476
  765MOL0     C 3205   9.082   3.021   5.226 -0.2829  1.3869  0.4332
  765MOL0     C 3206   8.948   3.028   5.257 -0.0042 -0.1651  0.9182
  765MOL0     C 3207   8.894   3.149   5.323 -0.6131 -0.1934 -0.9415
  765MOL0     H 3208   8.694   2.634   5.408 -0.1446  0.3944 -0.8515
  765MOL0     H 3209   8.509   2.525   5.575  3.2225  2.5134  0.7210
  765MOL0     H 3210   8.198   2.409   5.445  2.5660  1.9976 -1.5485
  765MOL0     H 3211   8.328   2.379   5.554  0.0047 -0.3862  0.8182
  765MOL0     H 3212   8.145   2.413   5.734 -1.1783  1.0097  0.0999
  765MOL0     H 3213   8.115   2.282   5.633 -2.2305 -0.1206  2.8429
  765MOL0     H 3214   7.984   2.476   5.482 -2.2076 -0.1802 -0.6801
  765MOL0     H 3215   7.992   2.566   5.633 -0.7622 -1.1064  0.5972
  765MOL0     H 3216   7.901   2.354   5.751 -0.9382  1.1777  0.6522
  765MOL0     H 3217   7.783   2.450   5.665  1.0718  0.0528  2.5522
  765MOL0     H 3218   7.732   2.272   5.525 -1.0777 -1.9978  2.0828
  765MOL0     H 3219   7.909   2.247   5.512 -0.6689  1.1651 -1.1506
  765MOL0     H 3220   7.908   2.131   5.741 -0.1386 -1.9779  0.4578
  765MOL0     H 3221   7.733   2.160   5.757 -1.9139 -0.1083 -2.1553
  765MOL0     H 3222   7.880   1.983   5.561  0.3917 -0.4293 -0.1228
  765MOL0     H 3223   7.709   2.035   5.546 -1.0042 -1.2348  0.4148
  765MOL0     H 3224   7.678   1.936   5.776  1.4638  1.6624 -0.4047
  765MOL0     H 3225   7.716   1.802   5.659  0.0501 -0.1844  0.1130
  765MOL0     H 3226   7.866   2.005   5.945 -0.1900  0.7115 -0.9360
  765MOL0     H 3227   8.077   1.982   6.102  0.3084 -1.4349  0.6364
  765MOL0     H 3228   8.185   1.847   6.075  0.9314  0.5328  1.9408
  765MOL0     H 3229   8.294   1.977   5.893 -0.1555 -1.6647  2.1311
  765MOL0     H 3230   8.164   2.102   5.906 -1.8835 -0.4281  0.4958
  765MOL0     H 3231   8.350   2.036   6.133 -0.9454 -2.1742 -1.6264
  765MOL0     H 3232   8.241   2.173   6.140  1.0956 -0.3073  0.4689
  765MOL0     H 3233   8.422   2.293   6.108 -1.9667  1.4736 -0.7207
  765MOL0     H 3234   8.376   2.268   5.938 -0.1788 -0.6858  0.2560
  765MOL0     H 3235   8.756   2.087   5.881  1.4257  0.5148 -1.8160
  765MOL0     H 3236   8.966   2.213   5.888 -0.5086 -0.2092 -1.0140
  765MOL0     H 3237   9.287   2.420   6.183  0.5805 -2.3245 -0.8335
  765MOL0     H 3238   9.520   2.485   6.183  0.4625  3.7322 -0.8779
  765MOL0     H 3239   9.759   2.451   6.134 -0.1042  2.7499  4.4102
  765MOL0     H 3240   9.863   2.542   6.029  1.1558  0.9335  0.7361
  765MOL0     H 3241   9.645   2.685   6.193 -1.5720  2.0424 -4.2808
  765MOL0     H 3242   9.804   2.636   6.266 -0.1039 -3.0424 -0.6404
  765MOL0     H 3243   9.737   2.821   6.042 -1.6792 -0.7652  1.7726
  765MOL0     H 3244   9.818   2.873   6.195  1.8155 -1.6319  1.8439
  765MOL0     H 3245   9.948   2.740   5.960 -0.0272  0.0560 -0.4434
  765MOL0     H 3246  10.010   2.702   6.126 -0.3338 -0.4823 -0.3362
  765MOL0     H 3247   9.968   2.989   6.040 -0.2878 -0.0011 -1.0131
  765MOL0     H 3248  10.109   2.897   5.983 -0.8716 -0.4654 -0.9892
  765MOL0     H 3249  10.017   2.949   6.274  2.9156  4.3963  1.6385
  765MOL0     H 3250  10.174   2.867   6.228 -0.4006  0.0435  0.7378
  765MOL0     H 3251  10.141   3.150   6.123  2.4250  0.8868 -0.4053
  765MOL0     H 3252  10.281   3.057   6.180 -0.9477 -4.2741 -2.0778
  765MOL0     H 3253  10.203   3.255   6.325 -0.6246 -0.2618 -1.9687
  765MOL0     H 3254  10.055   3.168   6.347 -0.2755  0.0737 -2.4329
  765MOL0     H 3255   9.501   2.545   5.756 -0.2300  1.4084  0.7070
  765MOL0     H 3256   9.269   2.472   5.762 -3.0554  0.2898  1.5961
  765MOL0     H 3257   8.804   2.436   6.220 -2.2160 -1.0807  0.5818
  765MOL0     H 3258   8.608   2.323   6.210  1.1468  0.7438  1.5417
  765MOL0     H 3259   8.205   2.717   5.349 -1.2055 -1.7795  4.3656
  765MOL0     H 3260   8.379   2.832   5.197  2.4563  1.8537  0.1716
  765MOL0     H 3261   8.856   2.730   5.138 -0.4614 -0.6395  0.5518
  765MOL0     H 3262   9.095   2.717   5.087 -2.3860  0.4296 -1.0384
  765MOL0     H 3263   9.285   2.707   5.218  2.1588 -0.2379  2.0564
  765MOL0     H 3264   9.428   2.803   5.224  0.3485 -1.9702 -0.4888
  765MOL0     H 3265   9.339   2.811   4.953  0.7758  1.5928  0.9794
  765MOL0     H 3266   9.309   2.639   5.010 -1.5605  0.6525  1.0519
  765MOL0     H 3267   9.516   2.609   4.929  0.4342 -1.4976  2.7439
  765MOL0     H 3268   9.562   2.665   5.076 -0.9350  0.8676  1.0358
  765MOL0     H 3269   9.672   2.758   4.861 -0.6365 -0.3269 -0.2698
  765MOL0     H 3270   9.531   2.865   4.836 -0.0126 -0.3917 -0.7670
  765MOL0     H 3271   9.722   3.065   5.149  4.3881 -0.3509 -2.3957
  765MOL0     H 3272   9.137   3.113   5.244 -3.4165  3.5225 -0.0922
  765MOL0     H 3273   8.896   3.127   5.430  1.2801  1.4906 -0.5716
  765MOL0     H 3274   8.958   3.238   5.319 -0.9851  0.1345  0.1552
  765MOL0     H 3275   8.792   3.182   5.299 -0.9423 -0.3306  0.2056
  766MOL0     O 3276  10.124   5.142   8.092  0.3014  0.2012  0.5778
  766MOL0     C 3277  10.037   5.057   8.076  0.0262  0.6739 -0.4031
  766MOL0     O 3278  10.052   4.927   8.105 -0.7382 -0.0145  0.8869
  766MOL0     C 3279  10.178   4.885   8.142  0.0787 -0.3546  0.9138
  766MOL0     C 3280  10.183   4.788   8.244 -0.4470  0.2374  0.4568
  766MOL0     C 3281  10.309   4.737   8.295  0.3131  0.4000 -0.5784
  766MOL0     C 3282  10.432   4.785   8.246 -0.3582 -0.0091 -0.1981
  766MOL0     O 3283  10.554   4.755   8.290  0.1181  0.6423 -0.0165
  766MOL0     C 3284  10.587   4.660   8.389  0.5239 -0.4091 -0.5405
  766MOL0     C 3285  10.564   4.517   8.355 -0.1987  0.2765 -0.0585
  766MOL0     C 3286  10.642   4.468   8.235  0.4041 -0.3080  0.5106
  766MOL0     C 3287  10.597   4.333   8.186 -0.0942 -0.1748 -0.1744
  766MOL0     C 3288  10.694   4.235   8.239 -0.5225 -0.0567  0.1946
  766MOL0     C 3289  10.629   4.092   8.223  0.5865  0.9038  0.0236
  766MOL0     C 3290  10.719   3.973   8.270  0.1417  0.7031 -0.4644
  766MOL0     C 3291  10.773   3.980   8.419 -0.5431 -0.0892 -0.3095
  766MOL0     N 3292  10.908   4.035   8.430  0.2184  0.6248 -0.9458
  766MOL0     C 3293  11.017   3.971   8.392  0.3417  0.3124 -0.1551
  766MOL0     C 3294  11.122   4.062   8.417  0.1415 -0.1936 -0.2141
  766MOL0     C 3295  11.265   4.073   8.389 -0.6568  0.4672 -0.9390
  766MOL0     C 3296  11.352   3.964   8.456 -0.2214 -0.9114  0.2583
  766MOL0     C 3297  11.331   3.963   8.603  0.1568  1.0527  0.2601
  766MOL0     C 3298  11.366   4.100   8.671 -0.0875  0.6032  0.0679
  766MOL0     O 3299  11.503   4.127   8.662  0.3309  0.0657  0.3468
  766MOL0     C 3300  11.547   4.236   8.731 -0.0589  1.5329 -0.0505
  766MOL0     C 3301  11.672   4.278   8.693 -0.0012 -0.1561 -0.0944
  766MOL0     C 3302  11.730   4.383   8.765 -0.6100  0.1011 -0.1563
  766MOL0     C 3303  11.666   4.452   8.871 -0.3594 -0.3633 -0.4405
  766MOL0     C 3304  11.746   4.532   8.961  0.9670 -0.2628  1.1556
  766MOL0     O 3305  11.875   4.529   8.930 -0.2276  0.2293 -0.4895
  766MOL0     C 3306  11.960   4.591   9.009 -0.0991 -0.6870 -0.8146
  766MOL0     C 3307  12.031   4.703   8.962  0.2546 -0.1300  0.0701
  766MOL0     C 3308  12.135   4.761   9.033 -0.3310 -0.0552 -0.4704
  766MOL0     C 3309  12.156   4.711   9.164  0.2363 -0.4579  0.2722
  766MOL0     O 3310  12.262   4.767   9.223 -0.1076 -0.0639 -0.2643
  766MOL0     C 3311  12.301   4.732   9.360 -1.0846 -0.2083 -0.3634
  766MOL0     C 3312  12.415   4.812   9.432  0.8723  0.4851 -0.0364
  766MOL0     C 3313  12.385   4.963   9.435 -0.1753  0.1900  0.1369
  766MOL0     C 3314  12.497   5.037   9.505 -0.4307  1.3101  0.5781
  766MOL0     C 3315  12.472   5.180   9.506  0.7237 -0.3122 -0.5253
  766MOL0     C 3316  12.603   5.265   9.533  0.8766 -0.1894 -0.3602
  766MOL0     C 3317  12.674   5.210   9.664  0.2071  0.6806 -0.6972
  766MOL0     C 3318  12.753   5.319   9.737 -0.0506  0.2299 -0.4895
  766MOL0    Cl 3319  12.870   5.274   9.865  0.0622 -0.0819  0.1991
  766MOL0     C 3320  12.078   4.603   9.215  0.3903 -0.0626 -0.9531
  766MOL0     C 3321  11.974   4.546   9.140 -0.4531 -0.8470  0.7327
  766MOL0     O 3322  11.696   4.580   9.059  0.0938 -0.2341  0.3631
  766MOL0     C 3323  11.535   4.424   8.893  0.3417  0.0363 -0.1157
  766MOL0     C 3324  11.479   4.315   8.825 -0.2536 -0.0175  0.1913
  766MOL0     N 3325  11.060   4.180   8.462 -0.6915  0.3702  0.6795
  766MOL0     N 3326  10.932   4.161   8.474  0.4975  0.5136  0.1586
  766MOL0     C 3327  10.427   4.885   8.149 -0.5763  0.8404  0.1941
  766MOL0     C 3328  10.304   4.925   8.096 -0.4387  0.5354 -0.1970
  766MOL0     C 3329   9.897   5.098   8.023  0.1360 -0.2833  0.2404
  766MOL0     C 3330   9.801   4.993   8.031  0.1939 -0.1029  0.2523
  766MOL0     C 3331   9.672   5.026   7.986  0.4863  0.6841  0.3917
  766MOL0     C 3332   9.639   5.146   7.924 -0.4784 -0.0197 -0.4054
  766MOL0     O 3333   9.514   5.184   7.893 -0.3672 -0.2690  0.4888
  766MOL0     C 3334   9.397   5.116   7.950  1.1396  0.2272 -0.3451
  766MOL0     C 3335   9.280   5.216   7.963 -0.1132  0.8706  0.4910
  766MOL0     C 3336   9.237   5.261   7.824 -0.0168  0.3162  0.1272
  766MOL0     C 3337   9.193   5.148   7.730 -0.2435 -0.4447  0.3653
  766MOL0     C 3338   9.087   5.065   7.790 -0.9902  0.2964  0.6904
  766MOL0     C 3339   8.995   4.995   7.828  0.0135 -0.0478  0.1373
  766MOL0     C 3340   9.741   5.241   7.917  0.6319  0.5577 -0.1474
  766MOL0     C 3341   9.867   5.225   7.959  0.8106  0.0572  0.6319
  766MOL0     C 3342   9.950   5.348   7.972 -0.0637 -0.2062 -0.5273
  766MOL0     H 3343  10.086   4.758   8.284 -0.6960 -1.4215 -1.2543
  766MOL0     H 3344  10.316   4.662   8.373  2.7636  3.3941  2.3860
  766MOL0     H 3345  10.692   4.674   8.417  0.6456 -1.9502 -0.1439
  766MOL0     H 3346  10.534   4.664   8.485  4.5712  0.9671  1.9103
  766MOL0     H 3347  10.458   4.512   8.331 -0.5184  1.2200  1.1017
  766MOL0     H 3348  10.588   4.448   8.438 -1.3758  3.7559  3.4910
  766MOL0     H 3349  10.750   4.472   8.252  0.7354 -1.5459 -1.1038
  766MOL0     H 3350  10.631   4.526   8.143 -2.3883 -0.6260  0.5764
  766MOL0     H 3351  10.503   4.310   8.236  0.4847 -0.8551  0.6177
  766MOL0     H 3352  10.571   4.325   8.080 -0.2276  3.0012 -0.4840
  766MOL0     H 3353  10.780   4.244   8.172 -1.8053  4.8456 -1.1651
  766MOL0     H 3354  10.722   4.255   8.343  0.1904 -1.2956  0.2603
  766MOL0     H 3355  10.538   4.095   8.284  0.3935 -1.6168 -0.0248
  766MOL0     H 3356  10.583   4.077   8.125 -1.5359  4.4430  0.3187
  766MOL0     H 3357  10.803   3.961   8.202  0.1792  0.4518 -0.3746
  766MOL0     H 3358  10.662   3.880   8.263  2.3478 -0.7566  0.1172
  766MOL0     H 3359  10.707   4.039   8.484  0.9782 -0.1361  1.3483
  766MOL0     H 3360  10.789   3.878   8.454  3.2764  0.0517 -1.2467
  766MOL0     H 3361  11.031   3.875   8.344 -0.8280 -0.1800  0.4606
  766MOL0     H 3362  11.278   4.046   8.284 -1.9057 -0.1521 -0.9504
  766MOL0     H 3363  11.314   4.169   8.406 -0.2517 -0.1224  1.6162
  766MOL0     H 3364  11.313   3.874   8.408  1.4100 -1.3488 -0.3213
  766MOL0     H 3365  11.460   3.973   8.438 -0.4703  2.4047 -0.2768
  766MOL0     H 3366  11.400   3.887   8.640 -1.2705  0.1068  1.0727
  766MOL0     H 3367  11.230   3.932   8.629  0.9533  0.8471  3.4816
  766MOL0     H 3368  11.332   4.088   8.774 -0.7763 -2.7455 -0.4269
  766MOL0     H 3369  11.316   4.187   8.626 -0.2971 -0.3816 -1.7050
  766MOL0     H 3370  11.722   4.230   8.609  0.3758 -0.1582  0.1292
  766MOL0     H 3371  11.835   4.404   8.744 -0.8617  2.6024  0.6581
  766MOL0     H 3372  12.002   4.721   8.859  0.3618  0.3784  0.1271
  766MOL0     H 3373  12.202   4.838   8.995 -0.7027 -0.6874 -2.5088
  766MOL0     H 3374  12.216   4.739   9.429 -1.2456 -0.2243 -0.5594
  766MOL0     H 3375  12.317   4.624   9.356 -1.8690 -0.3153 -0.9793
  766MOL0     H 3376  12.422   4.777   9.536  1.1408 -1.6654 -0.7369
  766MOL0     H 3377  12.508   4.790   9.380  0.6725 -3.0292  0.8394
  766MOL0     H 3378  12.379   5.000   9.332  2.0368 -2.0448 -0.8985
  766MOL0     H 3379  12.288   4.989   9.479 -1.2666 -0.7059 -1.6168
  766MOL0     H 3380  12.596   5.009   9.467 -0.2148 -2.1751  3.2151
  766MOL0     H 3381  12.502   5.006   9.610 -1.1101 -1.5284 -0.1386
  766MOL0     H 3382  12.397   5.211   9.579  1.4621  1.2350 -0.3739
  766MOL0     H 3383  12.435   5.217   9.410  1.6610  0.2975 -0.6602
  766MOL0     H 3384  12.672   5.257   9.449 -1.2336  1.0088 -2.3047
  766MOL0     H 3385  12.572   5.369   9.543 -0.8414 -0.5434 -1.6204
  766MOL0     H 3386  12.746   5.130   9.641  0.8329  0.1901  2.5346
  766MOL0     H 3387  12.609   5.156   9.733  1.3235  1.0472  0.6798
  766MOL0     H 3388  12.811   5.360   9.654  3.2258 -0.8472  1.1138
  766MOL0     H 3389  12.680   5.397   9.760 -2.3711 -2.0520  0.3170
  766MOL0     H 3390  12.083   4.565   9.317  0.1106 -0.6717 -1.1597
  766MOL0     H 3391  11.922   4.458   9.177 -1.2185 -1.0041 -0.6333
  766MOL0     H 3392  11.478   4.472   8.972  0.7787  0.5004 -0.0750
  766MOL0     H 3393  11.374   4.299   8.848  0.0719 -0.8503  1.1733
  766MOL0     H 3394  10.516   4.932   8.108 -0.4899  0.9146  0.4631
  766MOL0     H 3395  10.313   5.003   8.021  0.6186  1.1204  0.4979
  766MOL0     H 3396   9.831   4.894   8.063 -3.2470 -0.3600  3.2423
  766MOL0     H 3397   9.595   4.949   7.986  0.2981  0.8704 -0.1222
  766MOL0     H 3398   9.415   5.066   8.046 -0.2607  0.3537  0.0213
  766MOL0     H 3399   9.375   5.026   7.893  1.7521 -0.2203  0.1125
  766MOL0     H 3400   9.308   5.298   8.031 -0.3322  1.1538  0.2420
  766MOL0     H 3401   9.189   5.169   8.001 -1.6937  0.9167 -2.9179
  766MOL0     H 3402   9.308   5.331   7.779 -1.2836  4.7162  4.1216
  766MOL0     H 3403   9.156   5.330   7.849  0.5008  0.7937  0.5011
  766MOL0     H 3404   9.168   5.188   7.631  1.3000 -2.0636 -0.7408
  766MOL0     H 3405   9.275   5.078   7.710  1.0405 -0.2312  4.1432
  766MOL0     H 3406   8.905   4.947   7.860  0.4909  0.0309  1.6868
  766MOL0     H 3407   9.716   5.340   7.879  2.8904  1.2519  0.0800
  766MOL0     H 3408   9.989   5.364   8.073 -0.0179 -2.1542 -0.2012
  766MOL0     H 3409  10.043   5.342   7.915  1.4220  0.0437  1.7583
  766MOL0     H 3410   9.890   5.434   7.942  1.9876  0.8881 -1.7473
  767MOL0     O 3411   0.481   4.685   3.993  0.1203 -0.8109  0.4635
  767MOL0     C 3412   0.438   4.752   4.088  0.3822 -0.7075 -0.6733
  767MOL0     O 3413   0.511   4.818   4.177  0.0833  0.1314 -0.5198
  767MOL0     C 3414   0.645   4.792   4.188  0.4848 -0.5641 -1.2255
  767MOL0     C 3415   0.739   4.851   4.110 -0.5294 -0.2180 -0.0333
  767MOL0     C 3416   0.875   4.831   4.138 -0.5965 -0.9356 -0.1887
  767MOL0     C 3417   0.920   4.764   4.250  0.0541  0.0790  0.4861
  767MOL0     O 3418   1.053   4.756   4.279  0.1758  0.1617 -0.3007
  767MOL0     C 3419   1.104   4.881   4.328  0.1866 -0.2914 -0.0375
  767MOL0     C 3420   1.250   4.901   4.305  0.3363  0.5565  0.1757
  767MOL0     C 3421   1.342   4.778   4.314  0.7421 -0.3034  0.1513
  767MOL0     C 3422   1.324   4.707   4.454 -0.1749  0.1479  0.3437
  767MOL0     C 3423   1.392   4.577   4.470  1.2195  0.1293  0.0639
  767MOL0     C 3424   1.536   4.613   4.498 -0.1151  0.8202  0.4887
  767MOL0     C 3425   1.626   4.489   4.460 -0.4261 -1.4447 -0.7675
  767MOL0     C 3426   1.775   4.520   4.480  0.3364  0.2064  0.1127
  767MOL0     N 3427   1.841   4.579   4.363 -0.2119 -0.3122  0.3521
  767MOL0     C 3428   1.855   4.708   4.326 -0.4899  0.0442 -0.6984
  767MOL0     C 3429   1.960   4.718   4.245 -0.5910  0.1258  0.8163
  767MOL0     C 3430   2.031   4.840   4.180  0.3622  0.4468  0.1392
  767MOL0     C 3431   2.181   4.838   4.178  0.3082 -0.8678 -0.0448
  767MOL0     C 3432   2.234   4.730   4.087  0.1270 -0.2704  0.7520
  767MOL0     C 3433   2.374   4.780   4.043 -0.3273  0.7652 -0.2195
  767MOL0     O 3434   2.368   4.873   3.943 -0.4353 -0.5685  0.7156
  767MOL0     C 3435   2.474   4.922   3.875 -0.5924 -0.0072  0.9397
  767MOL0     C 3436   2.611   4.932   3.936  0.1570 -0.7136 -0.1174
  767MOL0     C 3437   2.714   4.989   3.863  0.2192  0.8295 -0.2193
  767MOL0     C 3438   2.689   5.059   3.746  0.8050 -0.2081 -0.3400
  767MOL0     C 3439   2.802   5.150   3.702  0.4034  0.2503  0.0224
  767MOL0     O 3440   2.796   5.176   3.569  0.0615  0.6082  0.2406
  767MOL0     C 3441   2.915   5.216   3.517 -0.0090  0.8368 -0.2292
  767MOL0     C 3442   2.929   5.350   3.500  0.6285 -0.9874 -0.1385
  767MOL0     C 3443   3.044   5.408   3.437  0.0417  0.3375  0.1127
  767MOL0     C 3444   3.152   5.320   3.401  0.3195  0.1443  0.0353
  767MOL0     O 3445   3.270   5.371   3.349 -0.1224  0.6056 -0.0971
  767MOL0     C 3446   3.320   5.493   3.386  0.1265  0.4682  1.1090
  767MOL0     C 3447   3.454   5.529   3.324 -0.7594  0.9085 -0.4631
  767MOL0     C 3448   3.565   5.420   3.355 -0.5230 -0.1414 -0.4357
  767MOL0     C 3449   3.703   5.456   3.296  0.3603 -0.5592  1.1908
  767MOL0     C 3450   3.761   5.560   3.383  0.0065 -0.6045 -0.4009
  767MOL0     C 3451   3.899   5.590   3.324 -0.1813  0.6384 -0.1014
  767MOL0     C 3452   3.969   5.704   3.394 -0.1819  1.0041 -0.7713
  767MOL0     C 3453   4.085   5.779   3.328  0.5987 -0.1784  0.2588
  767MOL0    Cl 3454   4.182   5.652   3.246 -0.2926  0.1566 -0.2827
  767MOL0     C 3455   3.138   5.188   3.418  0.1556 -0.7182  0.2962
  767MOL0     C 3456   3.024   5.135   3.468  0.0185  0.5367 -0.7589
  767MOL0     O 3457   2.887   5.185   3.783 -0.3009 -0.6348  0.5749
  767MOL0     C 3458   2.560   5.066   3.693 -0.6307  0.6057  0.4810
  767MOL0     C 3459   2.450   4.991   3.750  0.4039  0.3754  0.5209
  767MOL0     N 3460   2.001   4.583   4.226  0.7989  0.1654 -0.0397
  767MOL0     N 3461   1.927   4.508   4.291 -0.6680 -0.3938  0.2659
  767MOL0     C 3462   0.822   4.720   4.340 -0.0690  0.0789 -0.0805
  767MOL0     C 3463   0.683   4.719   4.298  0.6584  0.1443 -0.7880
  767MOL0     C 3464   0.294   4.777   4.072 -0.1637 -0.1956 -0.5093
  767MOL0     C 3465   0.222   4.719   3.968 -0.8334 -0.5176 -0.0985
  767MOL0     C 3466   0.083   4.742   3.952 -1.0435 -0.6098  0.9128
  767MOL0     C 3467   0.018   4.830   4.029 -0.0302  0.3857 -0.4606
  767MOL0     O 3468  -0.115   4.833   4.001  0.3391  0.0337  0.0655
  767MOL0     C 3469  -0.210   4.869   4.103 -0.2840 -0.1032  0.6355
  767MOL0     C 3470  -0.349   4.887   4.038 -0.5458 -0.3112 -0.5207
  767MOL0     C 3471  -0.442   4.983   4.122  0.4608  0.5119  0.4655
  767MOL0     C 3472  -0.474   4.941   4.261 -0.0256 -0.5858 -0.4185
  767MOL0     C 3473  -0.548   4.816   4.256 -0.0330 -0.4026 -0.0592
  767MOL0     C 3474  -0.605   4.713   4.245  0.4961  0.3379  0.3790
  767MOL0     C 3475   0.087   4.892   4.137 -0.2727 -1.7707  0.5860
  767MOL0     C 3476   0.221   4.865   4.160 -0.0048  0.3650  0.8347
  767MOL0     C 3477   0.284   4.952   4.271  0.7204  0.4514  0.8280
  767MOL0     H 3478   0.716   4.904   4.018 -1.2352 -4.0389 -2.2632
  767MOL0     H 3479   0.950   4.863   4.067 -0.2751 -1.3608 -0.0485
  767MOL0     H 3480   1.053   4.966   4.283 -0.4490 -0.1292  0.9495
  767MOL0     H 3481   1.087   4.888   4.436  0.0023 -0.2878 -0.0655
  767MOL0     H 3482   1.296   4.976   4.370  1.2879  0.9256 -0.8765
  767MOL0     H 3483   1.243   4.930   4.200 -1.7972 -0.9202 -0.1609
  767MOL0     H 3484   1.444   4.818   4.311 -0.4600  2.9772 -1.3584
  767MOL0     H 3485   1.336   4.716   4.224  1.3943  2.6615 -2.1066
  767MOL0     H 3486   1.356   4.778   4.531 -1.2742  1.3989 -0.3027
  767MOL0     H 3487   1.218   4.682   4.471  0.3510 -1.6368  1.2847
  767MOL0     H 3488   1.344   4.527   4.555  2.9898 -1.4666  0.2003
  767MOL0     H 3489   1.375   4.523   4.376 -1.0859  0.8835 -0.0279
  767MOL0     H 3490   1.573   4.700   4.442 -0.4802  1.4464  1.2003
  767MOL0     H 3491   1.533   4.634   4.606 -0.7012  2.8510  0.1139
  767MOL0     H 3492   1.610   4.442   4.362 -0.6953  1.1717 -2.0634
  767MOL0     H 3493   1.588   4.416   4.533  2.2235 -1.2940  0.8826
  767MOL0     H 3494   1.786   4.579   4.572 -1.5632 -0.8222  1.0625
  767MOL0     H 3495   1.825   4.424   4.494  2.2584  1.2022  0.4502
  767MOL0     H 3496   1.796   4.787   4.372  0.5545  0.8737 -0.7507
  767MOL0     H 3497   2.005   4.839   4.074  3.2405 -1.5733 -0.6651
  767MOL0     H 3498   1.988   4.927   4.231 -0.8185  0.8203 -1.3962
  767MOL0     H 3499   2.211   4.936   4.137 -1.5260  0.6040  1.8960
  767MOL0     H 3500   2.230   4.837   4.275 -1.6023  3.6375  1.2652
  767MOL0     H 3501   2.166   4.714   4.003  1.4274 -1.0546 -0.1877
  767MOL0     H 3502   2.241   4.640   4.148  0.9546  1.1573  2.9063
  767MOL0     H 3503   2.433   4.698   4.001  0.0644  1.1035 -0.3338
  767MOL0     H 3504   2.432   4.829   4.122 -0.1559  1.3464 -0.7018
  767MOL0     H 3505   2.633   4.888   4.032 -0.4168 -0.5660  0.0877
  767MOL0     H 3506   2.807   4.990   3.920 -0.8143  1.4177  1.4965
  767MOL0     H 3507   2.853   5.413   3.546  3.2108  1.0296  1.6871
  767MOL0     H 3508   3.037   5.516   3.425  1.4299  0.3807 -0.3929
  767MOL0     H 3509   3.248   5.569   3.357 -1.1851 -0.6060  1.4811
  767MOL0     H 3510   3.351   5.491   3.491 -1.0614 -1.3269  1.4606
  767MOL0     H 3511   3.438   5.528   3.216 -0.1400  1.4551 -0.5655
  767MOL0     H 3512   3.486   5.625   3.367 -0.7208 -0.2053  2.1907
  767MOL0     H 3513   3.556   5.415   3.464 -1.3596 -2.2394 -0.5439
  767MOL0     H 3514   3.549   5.318   3.318 -1.4006 -0.6490  1.2237
  767MOL0     H 3515   3.689   5.493   3.194 -1.6620 -1.8801  0.9550
  767MOL0     H 3516   3.772   5.371   3.288  1.1499 -0.0887  2.6486
  767MOL0     H 3517   3.775   5.531   3.488 -1.8077 -2.0615 -0.5037
  767MOL0     H 3518   3.691   5.644   3.377 -1.0510 -1.5551 -4.1623
  767MOL0     H 3519   3.957   5.498   3.336 -0.7719  0.3415  0.5255
  767MOL0     H 3520   3.886   5.618   3.219 -1.9529 -1.0330 -0.3814
  767MOL0     H 3521   3.994   5.671   3.495  3.5996  4.4454 -0.3120
  767MOL0     H 3522   3.893   5.782   3.403 -2.6304 -1.4213  1.0060
  767MOL0     H 3523   4.062   5.856   3.254 -0.5956  0.5199  1.3030
  767MOL0     H 3524   4.144   5.832   3.403  0.9208 -2.4313  1.6814
  767MOL0     H 3525   3.231   5.133   3.409  1.1663  1.2640 -2.2065
  767MOL0     H 3526   3.008   5.029   3.486 -0.6941  0.9439  1.2847
  767MOL0     H 3527   2.546   5.118   3.598 -2.4617 -0.7172 -0.0532
  767MOL0     H 3528   2.350   4.982   3.710  0.1694 -1.2882  1.3780
  767MOL0     H 3529   0.858   4.663   4.425 -0.2229  1.4065  0.9048
  767MOL0     H 3530   0.614   4.668   4.365  1.0869 -0.7251 -0.9906
  767MOL0     H 3531   0.258   4.649   3.893  1.0675  0.3689 -0.0906
  767MOL0     H 3532   0.022   4.676   3.891 -1.7278 -0.4815  1.4585
  767MOL0     H 3533  -0.170   4.960   4.149  0.0284  0.2559 -0.3137
  767MOL0     H 3534  -0.202   4.793   4.181 -2.0362 -1.9770 -0.9010
  767MOL0     H 3535  -0.400   4.792   4.017 -3.0832  0.8500  0.0836
  767MOL0     H 3536  -0.328   4.923   3.937 -0.1094  3.9172  0.8909
  767MOL0     H 3537  -0.534   4.985   4.062 -2.3662  1.8152  4.4578
  767MOL0     H 3538  -0.402   5.084   4.117 -0.9660  1.1591  1.3854
  767MOL0     H 3539  -0.385   4.915   4.318 -0.6896 -4.9118 -0.9474
  767MOL0     H 3540  -0.520   5.015   4.326  1.5857  0.2238 -0.1680
  767MOL0     H 3541  -0.656   4.618   4.241  1.2912 -0.0755 -0.1949
  767MOL0     H 3542   0.038   4.972   4.191  0.5328  1.0155 -2.4989
  767MOL0     H 3543   0.204   5.016   4.309 -0.9162 -1.3263  0.5150
  767MOL0     H 3544   0.319   4.889   4.353 -0.5159 -1.2073  0.1540
  767MOL0     H 3545   0.368   5.010   4.230 -0.2395 -0.7596 -3.3922
  768MOL0     O 3546   5.490   8.055   5.990  0.4483 -0.0637  0.4481
  768MOL0     C 3547   5.420   8.124   6.062  0.6291  1.0069  0.1903
  768MOL0     O 3548   5.409   8.254   6.056 -0.0125 -0.5106 -1.3034
  768MOL0     C 3549   5.492   8.315   5.969  0.4298 -0.0901  0.0799
  768MOL0     C 3550   5.453   8.309   5.835 -0.6183 -0.6615  0.4003
  768MOL0     C 3551   5.547   8.361   5.735 -1.1918  0.5603 -0.1052
  768MOL0     C 3552   5.677   8.412   5.771  0.3937 -0.2251  0.0914
  768MOL0     O 3553   5.764   8.447   5.670  0.0161  0.5080  0.5068
  768MOL0     C 3554   5.896   8.496   5.696  0.6528  0.0260  0.4258
  768MOL0     C 3555   5.983   8.368   5.731 -0.7929 -0.5695 -0.3092
  768MOL0     C 3556   6.128   8.415   5.771 -0.2649 -0.0476  0.6310
  768MOL0     C 3557   6.199   8.479   5.653  0.8455 -0.2638 -0.6269
  768MOL0     C 3558   6.353   8.493   5.674 -0.3851  0.1730  0.5373
  768MOL0     C 3559   6.438   8.590   5.589  0.2396 -0.0482 -0.2086
  768MOL0     C 3560   6.576   8.600   5.648  1.1413 -0.3282 -0.6336
  768MOL0     C 3561   6.646   8.713   5.563  1.2718 -0.1780  0.7887
  768MOL0     N 3562   6.787   8.713   5.571  0.4701  0.1625 -0.5702
  768MOL0     C 3563   6.857   8.772   5.675  0.2217  0.7628 -0.2199
  768MOL0     C 3564   6.981   8.720   5.649  0.0427  0.5634 -0.6291
  768MOL0     C 3565   7.089   8.733   5.747 -0.5724  0.2533 -0.2166
  768MOL0     C 3566   7.183   8.614   5.743  0.0665  0.5469  0.9912
  768MOL0     C 3567   7.284   8.615   5.856 -0.1995  0.7438 -0.0478
  768MOL0     C 3568   7.365   8.490   5.846 -0.7464 -0.8790  0.5006
  768MOL0     O 3569   7.479   8.506   5.764 -0.0247  0.2869 -0.1019
  768MOL0     C 3570   7.603   8.482   5.818 -0.5181  0.5771 -1.0070
  768MOL0     C 3571   7.637   8.406   5.933 -0.6205 -0.2729 -0.6901
  768MOL0     C 3572   7.769   8.371   5.959 -0.4520  0.3698  1.0416
  768MOL0     C 3573   7.870   8.413   5.868 -0.9274 -0.1359 -0.2902
  768MOL0     C 3574   8.015   8.370   5.886  0.1992  0.7427  0.7129
  768MOL0     O 3575   8.028   8.253   5.957 -0.4756  0.5375  1.1802
  768MOL0     C 3576   8.151   8.208   6.006  0.4831  0.6135  0.5720
  768MOL0     C 3577   8.152   8.069   6.035 -0.6408 -1.1978  0.3925
  768MOL0     C 3578   8.268   8.004   6.084  0.7398 -0.1122 -0.4934
  768MOL0     C 3579   8.378   8.077   6.118 -0.2709 -0.6106  0.7472
  768MOL0     O 3580   8.482   8.021   6.183  0.1518  0.1644  0.2008
  768MOL0     C 3581   8.609   8.087   6.200  0.8300 -0.6543 -0.8378
  768MOL0     C 3582   8.711   8.004   6.275 -0.9531  0.0864  0.1707
  768MOL0     C 3583   8.720   7.864   6.224 -0.1345  0.4987 -0.0049
  768MOL0     C 3584   8.820   7.785   6.298  0.6178  1.2513 -0.1775
  768MOL0     C 3585   8.881   7.662   6.232 -0.7833  0.3498  0.5878
  768MOL0     C 3586   8.968   7.709   6.108 -0.4701  0.2704 -0.4186
  768MOL0     C 3587   9.037   7.586   6.048 -0.0553  0.7489 -0.2572
  768MOL0     C 3588   9.112   7.615   5.911  1.3058 -0.6217  0.8765
  768MOL0    Cl 3589   8.999   7.686   5.786  0.0454  0.4828  0.0217
  768MOL0     C 3590   8.379   8.221   6.082 -0.1181  0.0172 -0.2041
  768MOL0     C 3591   8.266   8.286   6.031  0.3799  0.5703  0.7350
  768MOL0     O 3592   8.098   8.424   5.821 -0.6934  0.0286  0.2975
  768MOL0     C 3593   7.835   8.482   5.748  0.3293  0.0653 -0.2796
  768MOL0     C 3594   7.703   8.512   5.730 -0.2135 -0.3868 -0.2996
  768MOL0     N 3595   6.983   8.639   5.541  0.6013  0.3575  0.1959
  768MOL0     N 3596   6.867   8.634   5.491  0.1651  0.9276 -0.4395
  768MOL0     C 3597   5.706   8.419   5.906  0.2646 -0.6006 -0.6191
  768MOL0     C 3598   5.620   8.371   6.004  0.5176 -1.0022 -0.9158
  768MOL0     C 3599   5.366   8.056   6.187 -0.1392 -0.6386 -0.7055
  768MOL0     C 3600   5.280   8.126   6.271  0.0365  0.4873 -0.1264
  768MOL0     C 3601   5.211   8.080   6.375  0.5628 -0.1286  0.2049
  768MOL0     C 3602   5.242   7.952   6.422  0.0865  0.4747  0.5167
  768MOL0     O 3603   5.214   7.889   6.537  0.6398  0.1871 -0.0012
  768MOL0     C 3604   5.080   7.913   6.595  0.2160 -0.8525  0.2046
  768MOL0     C 3605   5.090   8.015   6.707 -0.4004 -0.2572  0.6316
  768MOL0     C 3606   5.182   7.975   6.818 -0.0114 -0.6911 -0.4967
  768MOL0     C 3607   5.117   8.002   6.952 -0.2188 -0.3969 -0.6537
  768MOL0     C 3608   5.010   7.901   6.977 -0.2793  0.3271  0.7546
  768MOL0     C 3609   4.917   7.825   6.979  0.3971 -0.2295  0.3382
  768MOL0     C 3610   5.326   7.873   6.338  0.1045  0.6611 -0.2816
  768MOL0     C 3611   5.387   7.921   6.222  0.0534  0.4605 -0.6128
  768MOL0     C 3612   5.469   7.815   6.138 -0.6160  0.3977 -0.0176
  768MOL0     H 3613   5.355   8.281   5.796 -0.2891 -0.8669 -0.2886
  768MOL0     H 3614   5.524   8.341   5.631 -3.1991  0.7772  0.2536
  768MOL0     H 3615   5.938   8.542   5.606 -3.6322  0.3605 -1.6209
  768MOL0     H 3616   5.889   8.565   5.780  3.1167 -1.7093  2.2106
  768MOL0     H 3617   5.984   8.299   5.646  3.7456 -0.1245 -0.8899
  768MOL0     H 3618   5.930   8.327   5.817 -0.2900 -0.6827 -0.0522
  768MOL0     H 3619   6.190   8.328   5.794  0.7398  0.2130 -0.8831
  768MOL0     H 3620   6.114   8.488   5.851 -0.9147  2.3799 -1.5483
  768MOL0     H 3621   6.181   8.432   5.556  0.7135 -1.4078 -0.0674
  768MOL0     H 3622   6.152   8.577   5.647 -0.7497 -1.0495 -1.3623
  768MOL0     H 3623   6.362   8.528   5.777  3.7783 -1.0034  0.7324
  768MOL0     H 3624   6.388   8.389   5.673 -1.0375 -0.1113  2.5160
  768MOL0     H 3625   6.435   8.566   5.482 -2.9781  0.0888 -0.2654
  768MOL0     H 3626   6.391   8.689   5.589  1.1193  0.5746 -4.4407
  768MOL0     H 3627   6.629   8.505   5.635  1.2237 -0.8019  2.4182
  768MOL0     H 3628   6.577   8.620   5.756 -4.7805 -1.7844  0.0417
  768MOL0     H 3629   6.628   8.707   5.455 -0.6955  3.0763  0.7782
  768MOL0     H 3630   6.613   8.811   5.599 -0.1437 -1.1522  2.2836
  768MOL0     H 3631   6.824   8.834   5.757  1.8839  0.8653  0.4090
  768MOL0     H 3632   7.136   8.827   5.717  1.6274 -0.7520 -0.0918
  768MOL0     H 3633   7.043   8.736   5.846  0.2725  3.6159  0.2042
  768MOL0     H 3634   7.117   8.530   5.768 -0.7929  0.3034 -1.7151
  768MOL0     H 3635   7.241   8.599   5.651 -0.1441  0.2855  0.9002
  768MOL0     H 3636   7.243   8.613   5.957 -2.1598  1.3254 -0.7867
  768MOL0     H 3637   7.350   8.702   5.854  0.3338  0.3560  0.4607
  768MOL0     H 3638   7.296   8.416   5.804 -3.4141  2.0821 -0.6973
  768MOL0     H 3639   7.397   8.472   5.949  0.7418 -0.4409  0.1373
  768MOL0     H 3640   7.557   8.382   6.003 -1.1063 -0.6139 -1.3489
  768MOL0     H 3641   7.798   8.329   6.055  3.3211 -3.1422 -1.2872
  768MOL0     H 3642   8.056   8.022   6.017 -0.8631 -0.4791 -0.3854
  768MOL0     H 3643   8.263   7.898   6.110 -5.4683  0.1007  0.6308
  768MOL0     H 3644   8.650   8.092   6.098  4.5481 -1.2868  0.4783
  768MOL0     H 3645   8.597   8.185   6.247  0.1239 -0.0363 -2.2402
  768MOL0     H 3646   8.808   8.050   6.295 -1.0583  1.0457 -1.3601
  768MOL0     H 3647   8.667   7.985   6.374  1.9481 -0.6605  1.4171
  768MOL0     H 3648   8.619   7.821   6.231 -0.6903  1.9624  2.1139
  768MOL0     H 3649   8.747   7.871   6.119  1.7068 -0.3077  0.3873
  768MOL0     H 3650   8.781   7.758   6.396  6.1839 -0.4734  1.9670
  768MOL0     H 3651   8.904   7.850   6.322  0.1806  2.4885 -1.8310
  768MOL0     H 3652   8.794   7.603   6.201 -1.3712  2.6673 -2.6850
  768MOL0     H 3653   8.938   7.601   6.303 -0.3988 -0.1682 -0.1535
  768MOL0     H 3654   8.911   7.751   6.024 -0.5766  0.8530 -0.0612
  768MOL0     H 3655   9.041   7.781   6.147 -1.4228 -0.1772  2.3428
  768MOL0     H 3656   8.965   7.506   6.030 -0.9909  1.6340 -0.5123
  768MOL0     H 3657   9.118   7.549   6.111 -0.0621  0.1946 -0.5735
  768MOL0     H 3658   9.202   7.676   5.926  2.1253 -0.9589 -2.1109
  768MOL0     H 3659   9.143   7.520   5.866  2.2313  0.0537  0.0550
  768MOL0     H 3660   8.455   8.295   6.103 -2.3700  2.9348 -1.4946
  768MOL0     H 3661   8.271   8.390   6.000  3.0335  0.2884 -0.0283
  768MOL0     H 3662   7.912   8.515   5.679 -0.4146  0.1422 -1.0834
  768MOL0     H 3663   7.669   8.568   5.643 -3.0296  0.6159  1.3149
  768MOL0     H 3664   5.803   8.449   5.944  0.2751 -1.3229 -0.0527
  768MOL0     H 3665   5.643   8.378   6.110 -2.9362 -0.8688 -0.0599
  768MOL0     H 3666   5.265   8.233   6.255 -1.7772  0.6724  2.2014
  768MOL0     H 3667   5.153   8.144   6.440 -0.5172  1.1699 -1.9288
  768MOL0     H 3668   5.031   7.822   6.629 -2.6888 -0.2162 -1.8531
  768MOL0     H 3669   5.003   7.954   6.528  1.9442  2.2210 -0.0842
  768MOL0     H 3670   4.992   8.032   6.753 -0.0310  1.1420  0.9622
  768MOL0     H 3671   5.120   8.106   6.654 -0.9294 -1.2181 -1.4258
  768MOL0     H 3672   5.272   8.036   6.810 -1.7675  2.0365 -0.6743
  768MOL0     H 3673   5.212   7.869   6.817  0.1691 -0.6421 -1.5749
  768MOL0     H 3674   5.192   7.993   7.031 -1.1435 -1.5419  0.1231
  768MOL0     H 3675   5.075   8.103   6.952  0.4209 -0.1296 -0.8983
  768MOL0     H 3676   4.835   7.756   6.982 -2.2169  2.5927 -0.7415
  768MOL0     H 3677   5.345   7.771   6.369  1.6956  0.7421 -0.9236
  768MOL0     H 3678   5.426   7.823   6.037  0.1671 -1.7611 -0.5779
  768MOL0     H 3679   5.575   7.839   6.148 -0.8315  0.2170  4.6698
  768MOL0     H 3680   5.454   7.712   6.170 -2.7485  0.5061 -0.5388
  769MOL0     O 3681   6.640   3.780   3.852 -0.3710  0.0613  0.3486
  769MOL0     C 3682   6.593   3.749   3.959  1.2659  0.4455 -0.1264
  769MOL0     O 3683   6.662   3.688   4.062  1.1391 -0.3703  0.3484
  769MOL0     C 3684   6.781   3.619   4.034  0.0077 -0.9906  0.0889
  769MOL0     C 3685   6.813   3.557   3.917 -0.2785 -0.2310  0.3720
  769MOL0     C 3686   6.929   3.495   3.904 -1.3921 -0.4898  0.6204
  769MOL0     C 3687   7.031   3.486   4.005  0.2340  0.2031 -0.0542
  769MOL0     O 3688   7.156   3.426   3.992  0.2235  0.1381  0.4409
  769MOL0     C 3689   7.177   3.347   3.868 -0.2406  0.2132 -0.5037
  769MOL0     C 3690   7.309   3.270   3.866  0.0780 -0.1551  0.9464
  769MOL0     C 3691   7.427   3.358   3.850 -0.1467 -0.2687 -0.5948
  769MOL0     C 3692   7.561   3.278   3.858 -0.1050 -0.3192 -0.2767
  769MOL0     C 3693   7.673   3.380   3.829 -0.1288 -0.1519 -0.1564
  769MOL0     C 3694   7.805   3.319   3.869  0.1905  1.4559 -0.2978
  769MOL0     C 3695   7.924   3.415   3.837  0.3520  0.0097  0.1785
  769MOL0     C 3696   7.929   3.502   3.967  0.3022 -1.0289  0.1183
  769MOL0     N 3697   8.031   3.600   3.964  0.1151 -0.0329 -0.9381
  769MOL0     C 3698   8.161   3.581   3.933  0.1473 -0.2297 -0.5216
  769MOL0     C 3699   8.222   3.701   3.948  0.4712 -0.1303 -0.3538
  769MOL0     C 3700   8.364   3.726   3.920 -1.0611  0.6115  0.1311
  769MOL0     C 3701   8.402   3.867   3.972 -0.1849 -0.3004 -0.1948
  769MOL0     C 3702   8.541   3.916   3.930  0.2979  0.6248 -0.7590
  769MOL0     C 3703   8.534   3.972   3.782 -0.0060  0.9228 -0.4020
  769MOL0     O 3704   8.637   4.068   3.749 -0.5717 -0.0700  0.5843
  769MOL0     C 3705   8.754   4.005   3.709  0.0220  1.0557  0.5628
  769MOL0     C 3706   8.861   3.986   3.800  1.1781 -0.0213  0.1676
  769MOL0     C 3707   8.976   3.924   3.765  0.7651  0.3732 -0.7555
  769MOL0     C 3708   8.984   3.851   3.643  0.2342 -0.3202  0.4157
  769MOL0     C 3709   9.103   3.773   3.609 -0.4635  0.4649  0.1703
  769MOL0     O 3710   9.221   3.798   3.676 -1.1761  0.0888  0.1825
  769MOL0     C 3711   9.340   3.734   3.650  0.1653  0.0980  0.4268
  769MOL0     C 3712   9.447   3.776   3.731  0.3341  0.2386  0.0110
  769MOL0     C 3713   9.566   3.709   3.749 -0.9228 -0.2906  0.6492
  769MOL0     C 3714   9.605   3.614   3.649 -1.0869 -0.0575 -1.0350
  769MOL0     O 3715   9.731   3.563   3.658 -0.2040  0.7928  0.0261
  769MOL0     C 3716   9.770   3.448   3.572  1.0468 -0.1733  0.8559
  769MOL0     C 3717   9.827   3.515   3.436 -0.7440  0.5642 -0.2644
  769MOL0     C 3718   9.976   3.546   3.440 -0.6687 -0.1713 -0.1441
  769MOL0     C 3719  10.015   3.651   3.552 -0.5045  0.0272 -0.5207
  769MOL0     C 3720  10.173   3.675   3.576  0.4228  0.1531  1.0558
  769MOL0     C 3721  10.209   3.804   3.644 -0.1204 -0.0092  0.6202
  769MOL0     C 3722  10.352   3.800   3.693 -0.5238 -0.0269  0.7274
  769MOL0     C 3723  10.352   3.737   3.830  0.0203  0.1149 -0.1032
  769MOL0    Cl 3724  10.520   3.722   3.870  0.2307  0.0292 -0.2894
  769MOL0     C 3725   9.516   3.587   3.543 -0.4688 -0.6655 -0.6447
  769MOL0     C 3726   9.380   3.645   3.544  0.5083  0.1513  0.6543
  769MOL0     O 3727   9.084   3.687   3.525 -0.6304  0.0311 -0.6704
  769MOL0     C 3728   8.883   3.863   3.551  0.5488 -0.4816 -0.8071
  769MOL0     C 3729   8.766   3.945   3.584 -0.0751  0.3839  1.1963
  769MOL0     N 3730   8.126   3.788   3.993 -1.8728 -0.2415 -0.3569
  769MOL0     N 3731   8.008   3.726   4.004 -0.3094 -0.2632  0.2154
  769MOL0     C 3732   6.989   3.546   4.129  0.0068  0.1606  0.2919
  769MOL0     C 3733   6.865   3.605   4.143  0.9282 -0.3959  0.3667
  769MOL0     C 3734   6.459   3.804   3.989 -0.1632 -0.2025 -0.1780
  769MOL0     C 3735   6.453   3.919   4.065  0.4802  0.2233 -0.6207
  769MOL0     C 3736   6.333   3.979   4.103 -0.6479  0.6126  0.0860
  769MOL0     C 3737   6.210   3.930   4.049  0.5729  0.0822 -0.0928
  769MOL0     O 3738   6.083   3.979   4.051  0.4639  0.2518  0.5490
  769MOL0     C 3739   6.059   4.118   4.105 -0.1967 -0.1432 -0.4101
  769MOL0     C 3740   5.910   4.148   4.102  0.1033 -0.4115 -0.6794
  769MOL0     C 3741   5.825   4.095   4.222 -0.8282 -0.6060  0.1631
  769MOL0     C 3742   5.678   4.071   4.202  0.2819  1.0807 -0.3339
  769MOL0     C 3743   5.654   3.940   4.157  0.3055 -0.0356 -0.0971
  769MOL0     C 3744   5.634   3.821   4.140  0.1887  0.5970  1.1711
  769MOL0     C 3745   6.223   3.817   3.962 -0.5488 -0.2001 -0.0102
  769MOL0     C 3746   6.344   3.751   3.939  0.7645  0.6092  0.3121
  769MOL0     C 3747   6.340   3.632   3.844  0.2460 -0.3515  0.3385
  769MOL0     H 3748   6.762   3.569   3.822 -0.1412  3.0746  0.6147
  769MOL0     H 3749   6.954   3.445   3.811  0.0211  0.7145  0.3295
  769MOL0     H 3750   7.097   3.273   3.866  2.8510 -3.5428  0.3981
  769MOL0     H 3751   7.177   3.413   3.781  0.0465  2.1234  0.8729
  769MOL0     H 3752   7.301   3.192   3.789 -0.4047 -2.4858  3.1940
  769MOL0     H 3753   7.325   3.219   3.962  0.7479  0.2563  1.0642
  769MOL0     H 3754   7.422   3.443   3.919 -1.2821 -0.6605 -0.1812
  769MOL0     H 3755   7.422   3.400   3.749 -0.4853 -1.8818 -1.2820
  769MOL0     H 3756   7.572   3.215   3.947  1.7912 -2.2241 -1.7665
  769MOL0     H 3757   7.550   3.195   3.787 -1.6236 -1.7737  1.5503
  769MOL0     H 3758   7.675   3.403   3.722  0.5201 -1.8969 -0.5645
  769MOL0     H 3759   7.648   3.470   3.886 -1.5414 -0.6377  0.0349
  769MOL0     H 3760   7.796   3.307   3.977  2.3578 -1.0169 -0.2887
  769MOL0     H 3761   7.824   3.220   3.826  4.5866  1.2442  1.5324
  769MOL0     H 3762   7.902   3.480   3.752  3.4878  3.1332  1.5131
  769MOL0     H 3763   8.017   3.357   3.839  1.1592  1.2715  0.5477
  769MOL0     H 3764   7.834   3.555   3.976  0.3426 -0.1275 -3.3674
  769MOL0     H 3765   7.948   3.434   4.050 -2.8086 -2.2916 -0.0762
  769MOL0     H 3766   8.212   3.493   3.894  0.4530  0.1292 -0.9484
  769MOL0     H 3767   8.409   3.641   3.970 -0.3032  1.5121  1.0131
  769MOL0     H 3768   8.382   3.726   3.812  1.4440  2.3720  0.4750
  769MOL0     H 3769   8.322   3.935   3.940  1.2418  0.4220 -2.4667
  769MOL0     H 3770   8.413   3.866   4.081 -1.6066  0.5842 -0.0158
  769MOL0     H 3771   8.610   3.831   3.920  2.7275  2.7008 -3.5239
  769MOL0     H 3772   8.583   3.993   3.995  1.8509 -0.6512 -0.1735
  769MOL0     H 3773   8.443   4.032   3.773 -0.5146  0.4348  1.0965
  769MOL0     H 3774   8.527   3.893   3.707  2.5613  0.5948 -0.3981
  769MOL0     H 3775   8.853   4.019   3.904  3.1587  1.3143 -0.0561
  769MOL0     H 3776   9.066   3.912   3.825 -0.0994 -2.5541  0.0905
  769MOL0     H 3777   9.443   3.856   3.804  0.0716 -0.6641  1.0068
  769MOL0     H 3778   9.637   3.749   3.820 -1.1744 -0.2861  0.8967
  769MOL0     H 3779   9.847   3.387   3.619  1.0291 -0.6297  0.3103
  769MOL0     H 3780   9.679   3.388   3.555 -0.7978  2.8298 -0.7539
  769MOL0     H 3781   9.801   3.449   3.353  0.8008 -0.4326 -0.0114
  769MOL0     H 3782   9.767   3.605   3.423 -1.6282 -0.1324 -1.1386
  769MOL0     H 3783  10.031   3.452   3.449  0.6047  0.6935  1.7570
  769MOL0     H 3784   9.999   3.601   3.348 -1.7758 -0.6500 -0.7234
  769MOL0     H 3785   9.969   3.634   3.650  2.0035 -1.0795  0.5588
  769MOL0     H 3786   9.984   3.747   3.512 -2.6728  0.2144  1.3718
  769MOL0     H 3787  10.238   3.669   3.488  0.8133  2.6468  1.1156
  769MOL0     H 3788  10.207   3.598   3.646 -0.9184  0.9103  2.5944
  769MOL0     H 3789  10.200   3.886   3.571 -1.0521 -1.2151 -0.6868
  769MOL0     H 3790  10.143   3.828   3.728 -1.2432 -2.5481  0.5331
  769MOL0     H 3791  10.399   3.898   3.703  1.2578 -0.8007  0.2985
  769MOL0     H 3792  10.417   3.740   3.628  1.0966  1.9336  0.4680
  769MOL0     H 3793  10.308   3.813   3.896  0.4658 -2.2364  3.1388
  769MOL0     H 3794  10.303   3.641   3.847  0.1174 -0.2819 -1.8703
  769MOL0     H 3795   9.548   3.516   3.468 -0.6773  0.3456 -1.7227
  769MOL0     H 3796   9.304   3.607   3.476  2.6265 -3.6970  0.1116
  769MOL0     H 3797   8.888   3.818   3.453 -2.1276 -1.7523 -0.4622
  769MOL0     H 3798   8.684   3.948   3.513 -2.3138  0.7641  3.6896
  769MOL0     H 3799   7.055   3.542   4.215  0.8895 -3.6122 -0.4091
  769MOL0     H 3800   6.830   3.645   4.238  0.4885 -0.1683  0.1119
  769MOL0     H 3801   6.547   3.956   4.104 -0.8303  2.6763  0.4247
  769MOL0     H 3802   6.324   4.060   4.174 -0.1358  0.5208  0.2632
  769MOL0     H 3803   6.112   4.183   4.035  0.7142  1.6148  1.7902
  769MOL0     H 3804   6.100   4.122   4.206  2.2815  1.4647 -1.3668
  769MOL0     H 3805   5.879   4.098   4.011  1.1623 -0.9024 -0.7851
  769MOL0     H 3806   5.902   4.257   4.098 -4.9599 -0.4520  1.2458
  769MOL0     H 3807   5.840   4.166   4.305  2.2130  0.4974 -1.2059
  769MOL0     H 3808   5.874   4.004   4.257 -0.4731 -1.5077 -2.4947
  769MOL0     H 3809   5.617   4.076   4.293  0.9021 -0.3177  0.1996
  769MOL0     H 3810   5.651   4.149   4.131  0.1476  3.6247  2.2905
  769MOL0     H 3811   5.610   3.717   4.131  0.7526  0.3707  2.1193
  769MOL0     H 3812   6.137   3.793   3.900 -1.0136 -0.9079  0.8940
  769MOL0     H 3813   6.432   3.576   3.861  2.0320  2.8879  2.3948
  769MOL0     H 3814   6.245   3.581   3.857 -0.2363  0.2007 -0.8143
  769MOL0     H 3815   6.358   3.661   3.739  0.1384  1.8536  0.8771
  770MOL0     O 3816   5.571   6.056   6.186 -0.4384 -0.0756  0.1117
  770MOL0     C 3817   5.586   6.019   6.304  0.5361  0.1486  0.4477
  770MOL0     O 3818   5.711   5.983   6.370  0.9684 -0.3807  0.3476
  770MOL0     C 3819   5.824   5.971   6.291  0.2962 -0.7714  0.2197
  770MOL0     C 3820   5.891   5.845   6.267  0.1973  0.5354  0.3986
  770MOL0     C 3821   6.014   5.858   6.197  0.6282  0.3823  0.3199
  770MOL0     C 3822   6.059   5.974   6.135  0.4368  0.4143  0.3568
  770MOL0     O 3823   6.183   5.980   6.074 -0.0997  0.2007 -0.9177
  770MOL0     C 3824   6.211   5.888   5.970  0.5903  0.0799  0.1963
  770MOL0     C 3825   6.313   5.789   6.019 -0.4111  0.4321  0.1111
  770MOL0     C 3826   6.451   5.847   5.999 -0.7314  0.3440 -0.3707
  770MOL0     C 3827   6.559   5.741   6.033  0.4357  0.4020 -0.0961
  770MOL0     C 3828   6.707   5.775   5.989  0.8194  0.1335  0.3193
  770MOL0     C 3829   6.753   5.909   6.046  0.1198 -0.8304  0.8271
  770MOL0     C 3830   6.884   5.944   5.970 -0.5023  0.7644  0.3808
  770MOL0     C 3831   6.950   6.070   6.010 -0.2791 -0.4791  0.3191
  770MOL0     N 3832   7.060   6.110   5.922 -0.5897 -0.3816  0.0421
  770MOL0     C 3833   7.163   6.180   5.983 -0.0649 -0.4320  0.7027
  770MOL0     C 3834   7.240   6.211   5.878  0.2838 -0.3078  0.2717
  770MOL0     C 3835   7.376   6.284   5.899 -0.6260 -0.4232 -0.9443
  770MOL0     C 3836   7.483   6.197   5.971  0.6448  0.0990 -0.0880
  770MOL0     C 3837   7.503   6.057   5.929  0.0119  0.1046  0.4332
  770MOL0     C 3838   7.610   5.988   6.000 -1.1750  0.5902 -0.8536
  770MOL0     O 3839   7.587   5.983   6.141  0.8385 -0.6517  0.1527
  770MOL0     C 3840   7.691   5.931   6.216 -1.3624  0.5534  1.2372
  770MOL0     C 3841   7.805   5.883   6.160 -0.3722 -0.3646 -0.0714
  770MOL0     C 3842   7.906   5.822   6.236 -0.0361  0.2942 -1.3537
  770MOL0     C 3843   7.901   5.828   6.375 -0.4667  0.1348 -0.4080
  770MOL0     C 3844   8.006   5.780   6.470 -0.7731 -0.1303  0.1432
  770MOL0     O 3845   7.985   5.770   6.610 -0.3964 -0.3199  0.0137
  770MOL0     C 3846   8.077   5.704   6.685 -0.2017 -0.7802 -0.5692
  770MOL0     C 3847   8.058   5.580   6.739  0.3336  0.4134  0.2560
  770MOL0     C 3848   8.154   5.506   6.813  0.1790  0.7166  0.2396
  770MOL0     C 3849   8.279   5.553   6.819 -0.1789  0.1598  0.4976
  770MOL0     O 3850   8.375   5.481   6.888 -0.0259 -0.4090  0.2863
  770MOL0     C 3851   8.510   5.507   6.856 -0.4598 -0.3030 -0.4491
  770MOL0     C 3852   8.586   5.375   6.891  1.0624  1.1732  0.4001
  770MOL0     C 3853   8.737   5.394   6.922  0.0798  0.0356 -0.0575
  770MOL0     C 3854   8.790   5.284   7.016  0.5057 -0.7333 -0.4157
  770MOL0     C 3855   8.941   5.279   7.043 -0.3931  0.4296 -0.6474
  770MOL0     C 3856   9.013   5.206   6.929  1.0738  0.8802  0.2353
  770MOL0     C 3857   8.984   5.058   6.905  0.6247 -0.2270 -0.8456
  770MOL0     C 3858   9.013   4.982   7.043 -0.7648  0.1580  0.4334
  770MOL0    Cl 3859   8.958   4.816   7.036 -0.1679  0.0226 -0.0631
  770MOL0     C 3860   8.303   5.688   6.775  0.2554  0.1304  0.2941
  770MOL0     C 3861   8.204   5.768   6.721  0.2485  0.1427  0.6731
  770MOL0     O 3862   8.116   5.763   6.413 -0.1065  0.1394 -1.6205
  770MOL0     C 3863   7.790   5.890   6.436  0.5340 -0.4653 -0.1706
  770MOL0     C 3864   7.682   5.935   6.353 -0.8206  0.0294  0.8771
  770MOL0     N 3865   7.179   6.172   5.761  0.2163  0.2482 -0.4712
  770MOL0     N 3866   7.076   6.106   5.784 -0.6277  0.1226  0.0091
  770MOL0     C 3867   5.983   6.092   6.145  0.4350 -1.2417 -0.0634
  770MOL0     C 3868   5.875   6.087   6.229 -0.3564  0.1587 -0.1533
  770MOL0     C 3869   5.456   6.014   6.386 -0.1304  0.8919 -0.0802
  770MOL0     C 3870   5.357   6.087   6.341  0.5570  0.5508  0.1467
  770MOL0     C 3871   5.237   6.090   6.415  0.8738 -0.2177  0.0914
  770MOL0     C 3872   5.223   6.024   6.537 -0.2948  0.1692 -0.4811
  770MOL0     O 3873   5.100   6.031   6.599 -0.6546 -0.0630  0.1473
  770MOL0     C 3874   5.054   5.927   6.690 -0.1676 -0.8554  0.8674
  770MOL0     C 3875   4.909   5.955   6.747 -0.4984  0.6259 -0.2753
  770MOL0     C 3876   4.802   5.959   6.645 -0.6429  0.1956  0.2054
  770MOL0     C 3877   4.815   6.066   6.536  0.8138  0.2539 -0.1044
  770MOL0     C 3878   4.803   6.194   6.603  0.0035  0.0757 -0.1046
  770MOL0     C 3879   4.789   6.300   6.657 -0.0428 -0.2250 -0.1828
  770MOL0     C 3880   5.327   5.942   6.575  0.2556 -0.8465  0.6769
  770MOL0     C 3881   5.442   5.934   6.499  1.0099  0.6156 -0.8342
  770MOL0     C 3882   5.557   5.843   6.544  0.0501  0.0609 -0.7665
  770MOL0     H 3883   5.850   5.754   6.308  0.2579  1.5574  2.8656
  770MOL0     H 3884   6.079   5.772   6.192 -1.8896 -1.6494  0.0885
  770MOL0     H 3885   6.119   5.834   5.947  0.3358  0.3065  0.6658
  770MOL0     H 3886   6.252   5.941   5.883  0.8711 -0.7415 -0.1804
  770MOL0     H 3887   6.297   5.692   5.971  0.8136 -0.7518  1.9246
  770MOL0     H 3888   6.300   5.775   6.127 -1.4560  0.0719 -0.0441
  770MOL0     H 3889   6.461   5.930   6.070  2.2444 -0.5334  0.3714
  770MOL0     H 3890   6.469   5.880   5.896 -2.9345 -1.4720 -1.4242
  770MOL0     H 3891   6.565   5.730   6.142 -2.0285 -1.1114 -0.0218
  770MOL0     H 3892   6.535   5.640   5.998 -0.7882  1.3636 -2.2578
  770MOL0     H 3893   6.780   5.699   6.021  2.5774  1.3220 -0.7461
  770MOL0     H 3894   6.703   5.777   5.880 -2.5967  0.1145  0.3318
  770MOL0     H 3895   6.670   5.978   6.061  1.8506  0.7809  3.8121
  770MOL0     H 3896   6.788   5.898   6.149  1.5991 -0.4246  0.3873
  770MOL0     H 3897   6.855   5.946   5.865 -0.1508 -1.0271  0.2153
  770MOL0     H 3898   6.952   5.861   5.992  1.6030  2.6521  1.3854
  770MOL0     H 3899   6.869   6.142   6.001  1.8579  2.1061  0.3313
  770MOL0     H 3900   6.974   6.071   6.117  0.9674 -2.3866  0.1054
  770MOL0     H 3901   7.171   6.196   6.090  0.2341  1.9429  0.3848
  770MOL0     H 3902   7.406   6.318   5.800  1.9663 -0.3399 -0.2258
  770MOL0     H 3903   7.348   6.379   5.944  0.7557  0.8991 -2.7190
  770MOL0     H 3904   7.579   6.246   5.951  1.6400 -2.0088 -0.7913
  770MOL0     H 3905   7.461   6.199   6.077 -2.3934  1.1839 -0.6598
  770MOL0     H 3906   7.523   6.051   5.821  1.1184 -0.5250  0.6674
  770MOL0     H 3907   7.406   6.012   5.951  0.0682 -0.2619 -0.0568
  770MOL0     H 3908   7.701   6.044   5.979 -2.3828  2.9215 -0.1639
  770MOL0     H 3909   7.628   5.887   5.961  1.6406  0.5536  0.3612
  770MOL0     H 3910   7.819   5.869   6.053  2.6874  0.4563  0.1282
  770MOL0     H 3911   7.993   5.768   6.201 -0.8299 -2.2046  0.2478
  770MOL0     H 3912   7.964   5.528   6.724  1.2979 -1.2016 -0.4387
  770MOL0     H 3913   8.142   5.411   6.864 -1.5663  2.2209  2.8537
  770MOL0     H 3914   8.527   5.537   6.752  1.2284  1.5114  0.2733
  770MOL0     H 3915   8.556   5.586   6.915 -0.9413  0.5586 -1.1984
  770MOL0     H 3916   8.543   5.336   6.984 -0.6203 -0.4406 -0.9770
  770MOL0     H 3917   8.565   5.292   6.822  0.2073 -0.5101  2.5579
  770MOL0     H 3918   8.791   5.390   6.827  1.0001 -1.1094  0.4850
  770MOL0     H 3919   8.752   5.489   6.974 -2.2465 -0.8531  2.5003
  770MOL0     H 3920   8.756   5.184   6.989 -0.3869 -0.6758  0.4567
  770MOL0     H 3921   8.746   5.311   7.112  1.6862  2.5922 -0.6788
  770MOL0     H 3922   8.963   5.231   7.139 -0.2474 -4.1020 -2.6860
  770MOL0     H 3923   8.965   5.384   7.060 -1.9215  1.0272 -1.8883
  770MOL0     H 3924   9.001   5.267   6.839  2.4464  0.9568  0.0868
  770MOL0     H 3925   9.121   5.218   6.938  1.2682 -0.9939  0.7089
  770MOL0     H 3926   9.053   5.027   6.827  1.0692  2.1343 -1.4626
  770MOL0     H 3927   8.882   5.060   6.866  0.1334  0.6917  0.3872
  770MOL0     H 3928   9.122   4.991   7.051 -0.6901  1.9143 -1.6223
  770MOL0     H 3929   8.956   5.021   7.128 -0.3547 -1.2225  1.3836
  770MOL0     H 3930   8.403   5.730   6.781  0.2936  0.1322 -0.3115
  770MOL0     H 3931   8.229   5.870   6.692  0.8835 -0.1324  0.2251
  770MOL0     H 3932   7.779   5.909   6.542 -0.7389 -2.7107  0.1648
  770MOL0     H 3933   7.584   5.973   6.383 -1.0462  2.2171 -2.1610
  770MOL0     H 3934   6.020   6.191   6.119 -3.0309  0.1834 -0.0555
  770MOL0     H 3935   5.810   6.174   6.240 -0.6164 -0.2600  2.3466
  770MOL0     H 3936   5.363   6.137   6.246  2.0048  0.3490  0.1078
  770MOL0     H 3937   5.162   6.160   6.379  3.4434  2.4480 -0.5062
  770MOL0     H 3938   5.127   5.919   6.771  0.1410  2.5797  1.0604
  770MOL0     H 3939   5.041   5.836   6.630 -1.9079 -0.1628  0.1147
  770MOL0     H 3940   4.913   6.051   6.800  0.1445 -0.9176  2.6954
  770MOL0     H 3941   4.889   5.869   6.811  0.0264  0.2367 -0.6206
  770MOL0     H 3942   4.703   5.955   6.691 -0.2919  1.4754  1.1471
  770MOL0     H 3943   4.813   5.863   6.594  1.0401 -0.0954  1.0687
  770MOL0     H 3944   4.902   6.055   6.470  0.7315  1.1488 -0.3788
  770MOL0     H 3945   4.729   6.057   6.469  0.9407  2.9324 -0.7393
  770MOL0     H 3946   4.781   6.395   6.704  2.5812 -0.4870  0.9865
  770MOL0     H 3947   5.324   5.884   6.667  4.1268 -0.2500  1.3462
  770MOL0     H 3948   5.612   5.796   6.462 -0.3403 -0.4163 -0.7587
  770MOL0     H 3949   5.636   5.896   6.598  3.0398 -3.6152 -1.1553
  770MOL0     H 3950   5.515   5.770   6.614 -1.0002  2.7002  1.5498
  771MOL0     O 3951   6.487   8.161  10.343  0.7257 -0.7852  1.1969
  771MOL0     C 3952   6.513   8.245  10.425 -0.0997 -0.1977  0.3558
  771MOL0     O 3953   6.425   8.293  10.518 -0.6933  0.6740 -0.3562
  771MOL0     C 3954   6.302   8.236  10.546 -0.4542 -0.3015  0.6740
  771MOL0     C 3955   6.206   8.173  10.467  0.1853 -0.2766 -0.4824
  771MOL0     C 3956   6.082   8.127  10.513  0.1315 -0.5976 -0.0276
  771MOL0     C 3957   6.050   8.137  10.650  0.0892  0.0390  0.0075
  771MOL0     O 3958   5.932   8.066  10.690 -0.6074 -0.3674  0.0809
  771MOL0     C 3959   5.909   8.042  10.830 -0.7872 -0.1512 -0.4992
  771MOL0     C 3960   5.766   7.984  10.844 -1.1253 -0.9181 -0.6931
  771MOL0     C 3961   5.710   7.997  10.986 -0.8389  0.3765  0.1689
  771MOL0     C 3962   5.562   7.948  10.970 -0.2869  0.2682  0.3212
  771MOL0     C 3963   5.505   7.901  11.108  0.8788 -0.8134  0.0193
  771MOL0     C 3964   5.346   7.892  11.116 -0.3754 -0.7075 -0.0463
  771MOL0     C 3965   5.303   7.847  11.257 -0.1457 -0.2225  0.5746
  771MOL0     C 3966   5.153   7.821  11.246 -0.2175  0.9536  0.3374
  771MOL0     N 3967   5.085   7.764  11.367  0.5994  0.1362 -0.3551
  771MOL0     C 3968   5.065   7.849  11.475  0.3704 -0.1609  0.5001
  771MOL0     C 3969   5.032   7.767  11.580  1.3583 -0.0396 -0.6900
  771MOL0     C 3970   5.031   7.810  11.728 -0.4254  0.7864  0.2231
  771MOL0     C 3971   5.156   7.771  11.805  0.7389 -0.2494 -0.7071
  771MOL0     C 3972   5.264   7.878  11.787  0.3791 -0.8211  0.4700
  771MOL0     C 3973   5.398   7.838  11.860 -0.2594  0.4672  0.5147
  771MOL0     O 3974   5.494   7.928  11.812  0.4474 -0.7031 -0.0996
  771MOL0     C 3975   5.631   7.911  11.829 -0.0415  0.6842  0.6089
  771MOL0     C 3976   5.724   8.013  11.792 -0.2473 -0.4280  0.2077
  771MOL0     C 3977   5.856   8.012  11.827  0.0592  0.2324  0.2120
  771MOL0     C 3978   5.918   7.895  11.876  0.1147 -0.4343 -0.2689
  771MOL0     C 3979   6.061   7.874  11.912 -1.6951 -0.1148  0.0067
  771MOL0     O 3980   6.112   7.773  11.992 -0.3692  0.3807 -0.5254
  771MOL0     C 3981   6.244   7.793  12.031  0.1620  0.3729  0.3057
  771MOL0     C 3982   6.284   7.897  12.115 -0.4633 -0.1023 -0.3017
  771MOL0     C 3983   6.421   7.901  12.147  0.6599 -0.2110 -0.0853
  771MOL0     C 3984   6.507   7.794  12.131  0.4519 -0.5577  0.2521
  771MOL0     O 3985   6.632   7.807  12.183 -0.0108 -0.4718 -0.1509
  771MOL0     C 3986   6.749   7.728  12.132  0.6356 -0.1075 -0.1263
  771MOL0     C 3987   6.876   7.759  12.215  0.5667  0.3815 -0.2454
  771MOL0     C 3988   6.926   7.898  12.187  0.2560 -0.1275  0.2836
  771MOL0     C 3989   7.079   7.888  12.157  0.5230 -0.8855 -0.1273
  771MOL0     C 3990   7.138   8.027  12.137 -0.2809  0.5302  0.4965
  771MOL0     C 3991   7.282   8.038  12.181  0.3719  0.3911 -0.1951
  771MOL0     C 3992   7.341   8.172  12.153  0.2012  0.3825 -1.1074
  771MOL0     C 3993   7.490   8.168  12.192  0.0691 -0.3903  0.8872
  771MOL0    Cl 3994   7.507   8.176  12.384 -0.0861 -0.2321  0.2950
  771MOL0     C 3995   6.458   7.678  12.065  0.4362 -0.5015  0.6153
  771MOL0     C 3996   6.326   7.678  12.025  1.0837  0.1670  0.4009
  771MOL0     O 3997   6.128   7.951  11.849 -0.3954  0.9438 -0.1587
  771MOL0     C 3998   5.829   7.788  11.901 -0.2242 -1.2361  0.2674
  771MOL0     C 3999   5.691   7.802  11.888 -0.4218 -0.3783 -0.2353
  771MOL0     N 4000   5.024   7.639  11.526 -0.6590  0.0550 -0.4624
  771MOL0     N 4001   5.064   7.640  11.406 -0.2254 -0.0466  0.1309
  771MOL0     C 4002   6.142   8.198  10.728  0.2829 -0.1448 -0.0964
  771MOL0     C 4003   6.262   8.256  10.678  0.4360  0.5544 -0.4539
  771MOL0     C 4004   6.640   8.315  10.419 -0.5321  0.5411  0.2260
  771MOL0     C 4005   6.729   8.309  10.527  0.6160  0.3217  0.5330
  771MOL0     C 4006   6.845   8.381  10.521 -0.8170 -0.5214  0.1345
  771MOL0     C 4007   6.870   8.457  10.406 -0.0379 -0.6045 -0.1524
  771MOL0     O 4008   6.988   8.533  10.408  0.2894 -0.0630 -0.4353
  771MOL0     C 4009   7.004   8.647  10.338  1.0870 -0.2562  0.6915
  771MOL0     C 4010   7.096   8.747  10.407  0.1752  0.5361 -1.3287
  771MOL0     C 4011   7.173   8.833  10.302  0.0911 -0.4873  0.7766
  771MOL0     C 4012   7.283   8.917  10.369 -0.0786 -0.7032  0.1676
  771MOL0     C 4013   7.377   8.830  10.439 -1.1907 -1.2112  0.2432
  771MOL0     C 4014   7.464   8.774  10.498  0.2220 -0.2622 -0.7192
  771MOL0     C 4015   6.778   8.472  10.301 -0.3014 -0.0376 -0.4990
  771MOL0     C 4016   6.664   8.393  10.303 -0.3735  0.6203  0.0293
  771MOL0     C 4017   6.570   8.399  10.183 -0.2099  0.4570 -0.3110
  771MOL0     H 4018   6.223   8.152  10.362  0.3438  1.5940 -0.8630
  771MOL0     H 4019   6.008   8.087  10.445  0.4542  1.8329 -1.9202
  771MOL0     H 4020   5.989   7.978  10.869  0.4243  1.3925 -0.3293
  771MOL0     H 4021   5.928   8.131  10.891  4.4764 -1.3641  0.1122
  771MOL0     H 4022   5.762   7.880  10.812  2.0242 -0.8478 -1.5605
  771MOL0     H 4023   5.696   8.047  10.788 -1.3660  0.1629  0.7466
  771MOL0     H 4024   5.717   8.096  11.032 -0.1198 -0.3695  1.7329
  771MOL0     H 4025   5.775   7.932  11.046  0.1515  2.0971  1.0155
  771MOL0     H 4026   5.510   8.039  10.939 -0.6702 -0.3898 -1.0501
  771MOL0     H 4027   5.560   7.863  10.900 -3.1170  0.1163  0.4681
  771MOL0     H 4028   5.558   7.811  11.142  4.1871  1.4773  1.4630
  771MOL0     H 4029   5.530   7.981  11.178 -0.7935 -1.4453  1.4136
  771MOL0     H 4030   5.292   7.983  11.089 -1.1351 -2.0919 -3.8550
  771MOL0     H 4031   5.319   7.815  11.043 -1.8188  0.0454 -0.3307
  771MOL0     H 4032   5.316   7.930  11.326  2.3367 -0.6413  0.6942
  771MOL0     H 4033   5.364   7.766  11.296  1.5695  0.6996 -0.0585
  771MOL0     H 4034   5.100   7.916  11.229 -1.3798  0.9251  3.2403
  771MOL0     H 4035   5.137   7.756  11.160  0.5509  2.2147 -0.8120
  771MOL0     H 4036   5.106   7.950  11.480  0.0185 -0.0494  1.4765
  771MOL0     H 4037   5.021   7.919  11.728  2.2850  1.1554 -2.0265
  771MOL0     H 4038   4.939   7.769  11.771  0.0895 -0.9745 -0.2670
  771MOL0     H 4039   5.143   7.774  11.914 -2.7779  2.8016 -1.0070
  771MOL0     H 4040   5.184   7.668  11.782  0.5431 -0.3256 -0.6044
  771MOL0     H 4041   5.227   7.972  11.827 -0.0574  0.3540 -2.4093
  771MOL0     H 4042   5.276   7.897  11.680  0.8162  2.1520  0.9656
  771MOL0     H 4043   5.421   7.732  11.847 -3.1064 -0.0359 -0.9638
  771MOL0     H 4044   5.379   7.860  11.966 -2.4035  0.7834  0.0934
  771MOL0     H 4045   5.685   8.107  11.754 -2.0108 -1.3126 -0.2485
  771MOL0     H 4046   5.912   8.098  11.791 -1.8792  0.5023 -2.5194
  771MOL0     H 4047   6.239   7.995  12.127  0.7665  0.2081  2.6862
  771MOL0     H 4048   6.460   7.989  12.196  2.2921 -1.8567  1.7282
  771MOL0     H 4049   6.736   7.619  12.132  1.7622 -0.3305 -3.0402
  771MOL0     H 4050   6.769   7.755  12.028  0.8246  1.4695  0.2987
  771MOL0     H 4051   6.850   7.749  12.320 -1.0286 -1.3446 -0.7362
  771MOL0     H 4052   6.944   7.676  12.195  0.9970  1.3353 -3.2522
  771MOL0     H 4053   6.877   7.949  12.104  3.0833 -0.1780 -1.5337
  771MOL0     H 4054   6.907   7.953  12.280  1.1641 -3.0700  2.3698
  771MOL0     H 4055   7.105   7.816  12.079  0.9212 -1.2817  0.3617
  771MOL0     H 4056   7.127   7.840  12.243  0.8095 -0.4950 -0.0664
  771MOL0     H 4057   7.075   8.094  12.195 -0.0839 -0.8826  2.4274
  771MOL0     H 4058   7.142   8.052  12.030  2.5124 -2.8356 -0.3984
  771MOL0     H 4059   7.309   8.014  12.284  2.9255 -5.4620 -1.8326
  771MOL0     H 4060   7.344   7.957  12.142  0.8341 -0.0435  1.3854
  771MOL0     H 4061   7.298   8.245  12.222 -0.6095 -0.4671 -0.7017
  771MOL0     H 4062   7.319   8.201  12.050  1.1127  3.0554 -0.6275
  771MOL0     H 4063   7.544   8.088  12.142  1.4420  1.3084 -0.5150
  771MOL0     H 4064   7.537   8.264  12.169  0.1815 -0.6685 -0.0856
  771MOL0     H 4065   6.520   7.590  12.050  0.1415 -0.7298  0.7340
  771MOL0     H 4066   6.280   7.593  11.975 -0.4750 -0.1960  2.3253
  771MOL0     H 4067   5.865   7.693  11.937  1.4978 -1.0375 -0.8452
  771MOL0     H 4068   5.632   7.724  11.935 -3.3109  1.6176 -0.2432
  771MOL0     H 4069   6.121   8.218  10.832 -1.5191  1.9952 -0.7828
  771MOL0     H 4070   6.310   8.311  10.759 -0.1636 -0.1322  0.3934
  771MOL0     H 4071   6.716   8.244  10.613 -0.0885 -2.5289 -1.5597
  771MOL0     H 4072   6.917   8.369  10.601 -1.3668 -1.8598  0.4435
  771MOL0     H 4073   6.909   8.697  10.313  1.1660 -1.2711 -1.9724
  771MOL0     H 4074   7.049   8.616  10.243 -0.3360 -2.8502  0.7704
  771MOL0     H 4075   7.176   8.685  10.449  0.1094  1.2588 -0.0704
  771MOL0     H 4076   7.033   8.801  10.478 -0.5309 -0.6351 -1.0430
  771MOL0     H 4077   7.101   8.904  10.261  1.7105  1.1480  0.6246
  771MOL0     H 4078   7.223   8.775  10.224 -1.8444  0.4260 -1.2244
  771MOL0     H 4079   7.339   8.967  10.290  0.2716 -1.3841 -0.0257
  771MOL0     H 4080   7.242   8.993  10.436 -0.4206  1.8056 -2.6475
  771MOL0     H 4081   7.554   8.730  10.536  1.7674  2.9991 -0.2917
  771MOL0     H 4082   6.803   8.536  10.217  2.4396 -0.6097 -0.2412
  771MOL0     H 4083   6.613   8.335  10.106  0.9909 -0.7017  1.2693
  771MOL0     H 4084   6.470   8.360  10.205  0.7026 -0.8685  1.8052
  771MOL0     H 4085   6.556   8.499  10.141  0.1552  0.2910 -0.8339
  772MOL0     O 4086  10.517   4.024   8.851 -0.0178  0.9605  0.3151
  772MOL0     C 4087  10.512   3.982   8.736 -0.8739  0.9675  0.2375
  772MOL0     O 4088  10.608   3.902   8.676 -0.0279 -0.3251 -0.0434
  772MOL0     C 4089  10.723   3.886   8.744 -0.3310 -1.1976 -0.3667
  772MOL0     C 4090  10.817   3.998   8.741 -0.9215 -0.2449  0.3512
  772MOL0     C 4091  10.934   3.979   8.819  0.5686  0.9284  0.0917
  772MOL0     C 4092  10.947   3.871   8.904 -0.4063  0.7559 -0.4445
  772MOL0     O 4093  11.064   3.871   8.977  0.4672 -1.1890  0.4827
  772MOL0     C 4094  11.135   3.759   9.020 -0.2581  0.6714 -0.3269
  772MOL0     C 4095  11.283   3.780   9.065 -0.6575 -0.3221 -0.1068
  772MOL0     C 4096  11.351   3.853   8.944 -0.1186  0.6719  0.2288
  772MOL0     C 4097  11.504   3.852   8.949 -0.6624 -0.3203 -0.3199
  772MOL0     C 4098  11.555   3.965   9.051  0.0736  0.0139  0.6102
  772MOL0     C 4099  11.710   4.006   9.030 -1.2276 -0.0577  0.3294
  772MOL0     C 4100  11.756   4.138   9.091 -0.1024  0.0907  0.1889
  772MOL0     C 4101  11.898   4.172   9.036  0.9994  0.2576 -0.5096
  772MOL0     N 4102  12.003   4.070   9.063 -0.5242 -0.5260 -1.0722
  772MOL0     C 4103  12.018   3.959   8.984 -0.0153  0.1179  0.2401
  772MOL0     C 4104  12.146   3.916   9.000 -0.2707 -0.0548 -0.5367
  772MOL0     C 4105  12.226   3.809   8.928  0.1367 -0.2722  0.2050
  772MOL0     C 4106  12.379   3.822   8.944  1.2424  0.5100  0.2690
  772MOL0     C 4107  12.439   3.866   8.812 -0.7001 -0.4590  0.3971
  772MOL0     C 4108  12.587   3.866   8.828 -0.5018 -0.2435  0.4673
  772MOL0     O 4109  12.643   3.949   8.720  0.3792  0.2004 -0.2785
  772MOL0     C 4110  12.769   4.004   8.733 -0.2842  0.0937  0.5411
  772MOL0     C 4111  12.848   4.015   8.848  0.1414  0.1975 -0.3503
  772MOL0     C 4112  12.970   4.083   8.850 -0.4835  0.1208  0.2229
  772MOL0     C 4113  13.019   4.141   8.731 -0.1739 -0.7027 -0.3173
  772MOL0     C 4114  13.151   4.207   8.725 -0.7930  0.1470 -0.0866
  772MOL0     O 4115  13.232   4.183   8.827  0.6313 -0.0902  0.0841
  772MOL0     C 4116  13.356   4.234   8.816 -0.4988 -0.2962  0.5222
  772MOL0     C 4117  13.452   4.146   8.763  0.2307 -0.8417 -0.0272
  772MOL0     C 4118  13.580   4.199   8.732 -0.4960  0.9257 -0.2235
  772MOL0     C 4119  13.617   4.334   8.759  0.7445 -0.8198  0.2089
  772MOL0     O 4120  13.748   4.381   8.739 -0.2948 -0.6913  0.3232
  772MOL0     C 4121  13.762   4.502   8.658  0.3473  1.4284 -0.0429
  772MOL0     C 4122  13.891   4.504   8.579  0.9248 -0.3320  0.4842
  772MOL0     C 4123  14.014   4.503   8.672  0.5709 -0.1691 -0.1948
  772MOL0     C 4124  14.137   4.495   8.572  0.2999 -0.3324 -1.0819
  772MOL0     C 4125  14.257   4.561   8.638 -0.1706 -0.5511 -0.0591
  772MOL0     C 4126  14.383   4.561   8.557 -0.9318 -0.9312  0.1170
  772MOL0     C 4127  14.502   4.590   8.655 -0.0106 -0.3033  0.5333
  772MOL0     C 4128  14.627   4.595   8.571  0.5988  0.7893  0.1798
  772MOL0    Cl 4129  14.613   4.731   8.440  0.6755  0.0653  0.2911
  772MOL0     C 4130  13.517   4.415   8.819 -0.6520 -0.1055  0.0980
  772MOL0     C 4131  13.393   4.366   8.848  1.0508  0.3386 -0.4048
  772MOL0     O 4132  13.183   4.271   8.625  0.2974 -0.4462 -0.1989
  772MOL0     C 4133  12.944   4.130   8.608 -0.1486 -0.1605 -0.6618
  772MOL0     C 4134  12.820   4.064   8.618  0.1981  0.3182  0.1931
  772MOL0     N 4135  12.193   3.979   9.115  0.3104  0.7098  0.1940
  772MOL0     N 4136  12.111   4.078   9.143  0.5521 -0.1622  0.1970
  772MOL0     C 4137  10.859   3.762   8.908  0.3638 -0.4440 -0.4198
  772MOL0     C 4138  10.747   3.769   8.827 -0.0498 -0.8175 -0.7307
  772MOL0     C 4139  10.401   4.021   8.653  0.4879  0.2429 -0.3767
  772MOL0     C 4140  10.409   4.146   8.591  0.4156 -1.1632 -0.2334
  772MOL0     C 4141  10.293   4.196   8.523 -0.8866 -0.1752  0.6607
  772MOL0     C 4142  10.176   4.119   8.514 -0.2841 -0.3670 -0.1057
  772MOL0     O 4143  10.062   4.173   8.461  0.4920 -0.1014  0.7449
  772MOL0     C 4144  10.007   4.280   8.536 -0.0708  0.9900  0.5988
  772MOL0     C 4145   9.859   4.312   8.505 -0.8638  0.9548  0.1839
  772MOL0     C 4146   9.768   4.194   8.519  0.0979  0.1451  0.0030
  772MOL0     C 4147   9.762   4.112   8.384  0.3132 -1.0555  0.1727
  772MOL0     C 4148   9.664   4.011   8.398 -0.1709 -0.1568 -0.5546
  772MOL0     C 4149   9.566   3.944   8.431 -0.1018 -0.4126 -0.1916
  772MOL0     C 4150  10.169   3.995   8.579  0.6040  0.7883  0.2629
  772MOL0     C 4151  10.278   3.944   8.649 -0.1824  0.3634  0.7660
  772MOL0     C 4152  10.266   3.804   8.711 -0.8154  0.9196  0.6464
  772MOL0     H 4153  10.804   4.098   8.701  0.2525  0.9035  2.6212
  772MOL0     H 4154  11.013   4.052   8.823  3.0408 -1.5628 -0.1902
  772MOL0     H 4155  11.081   3.714   9.103  0.0049 -0.1198 -0.5757
  772MOL0     H 4156  11.132   3.683   8.941  0.5743  1.3665 -1.0557
  772MOL0     H 4157  11.335   3.687   9.087  0.7131  1.2876  4.6517
  772MOL0     H 4158  11.282   3.846   9.152  0.8252 -0.0620 -0.2582
  772MOL0     H 4159  11.315   3.956   8.940  0.3059  0.7910 -1.7284
  772MOL0     H 4160  11.315   3.805   8.852  2.2825  0.9713 -0.9407
  772MOL0     H 4161  11.535   3.754   8.985  2.1307  0.2395 -0.9531
  772MOL0     H 4162  11.548   3.878   8.852 -0.2656 -0.2963 -0.1359
  772MOL0     H 4163  11.490   4.050   9.029 -1.3234 -0.9135  1.0068
  772MOL0     H 4164  11.536   3.930   9.153 -0.8652  0.4259  0.5848
  772MOL0     H 4165  11.764   3.922   9.074 -1.7207 -0.5627 -0.0110
  772MOL0     H 4166  11.733   4.007   8.923 -0.1006 -2.4267  0.4928
  772MOL0     H 4167  11.757   4.132   9.200  1.7291 -3.7842  0.1384
  772MOL0     H 4168  11.700   4.220   9.046  0.7591  0.7336  0.2691
  772MOL0     H 4169  11.890   4.177   8.927 -4.1215 -0.0142 -0.3928
  772MOL0     H 4170  11.937   4.263   9.083  1.8096 -0.6637  0.6674
  772MOL0     H 4171  11.944   3.916   8.918 -1.9456  0.2762  2.2105
  772MOL0     H 4172  12.198   3.712   8.972 -1.2966  0.2237  0.4530
  772MOL0     H 4173  12.204   3.816   8.821  0.6959  2.4989  0.1992
  772MOL0     H 4174  12.410   3.890   9.024 -1.2557  3.8867 -1.3901
  772MOL0     H 4175  12.416   3.723   8.971  0.5057  0.0899 -0.2160
  772MOL0     H 4176  12.400   3.966   8.790 -1.3227 -0.9631 -0.9309
  772MOL0     H 4177  12.409   3.807   8.724 -0.5237  2.4282 -1.7488
  772MOL0     H 4178  12.631   3.767   8.833  0.6782  0.2649  0.3500
  772MOL0     H 4179  12.606   3.913   8.926  0.5265 -0.0983  0.2064
  772MOL0     H 4180  12.821   3.974   8.945  0.0771  0.8412 -0.0924
  772MOL0     H 4181  13.041   4.087   8.933  0.4899 -0.8429 -0.5382
  772MOL0     H 4182  13.430   4.044   8.730 -0.5572 -0.3602 -1.0552
  772MOL0     H 4183  13.654   4.137   8.682 -1.1662 -2.1872  2.2815
  772MOL0     H 4184  13.681   4.516   8.586 -0.0473  2.9244  0.6525
  772MOL0     H 4185  13.752   4.598   8.711 -0.6953  1.3487 -0.0675
  772MOL0     H 4186  13.895   4.416   8.514  1.8542  0.6961 -0.8927
  772MOL0     H 4187  13.885   4.599   8.525  1.2360 -0.3879  0.3500
  772MOL0     H 4188  14.027   4.601   8.719 -0.4857  0.2071 -0.6489
  772MOL0     H 4189  14.015   4.421   8.745  0.3241  0.8392  0.9715
  772MOL0     H 4190  14.115   4.545   8.477  0.4328 -1.3085 -1.6429
  772MOL0     H 4191  14.156   4.390   8.547 -2.9857 -0.5748 -3.0505
  772MOL0     H 4192  14.277   4.507   8.731 -0.5408  0.3847  0.5798
  772MOL0     H 4193  14.226   4.664   8.661  0.3834 -0.3989  0.0153
  772MOL0     H 4194  14.388   4.458   8.521  1.4647 -2.1824  3.5256
  772MOL0     H 4195  14.384   4.628   8.470  0.3179  0.6613  1.2894
  772MOL0     H 4196  14.513   4.512   8.731 -0.4320 -1.4556 -0.5447
  772MOL0     H 4197  14.498   4.689   8.702 -1.8330 -0.2345  0.2878
  772MOL0     H 4198  14.719   4.610   8.627  1.2575 -1.5771 -0.1667
  772MOL0     H 4199  14.642   4.512   8.501  2.8669  1.1499  0.1875
  772MOL0     H 4200  13.533   4.522   8.834  1.6627 -0.3191 -0.5378
  772MOL0     H 4201  13.323   4.440   8.885 -0.3572 -1.9682  1.8104
  772MOL0     H 4202  12.971   4.176   8.514  0.3146 -1.3299 -1.1128
  772MOL0     H 4203  12.760   4.056   8.528 -0.0676  3.6764 -0.0582
  772MOL0     H 4204  10.881   3.685   8.981 -2.7458  1.7186  3.2110
  772MOL0     H 4205  10.682   3.682   8.828 -0.2443 -0.6719 -0.3508
  772MOL0     H 4206  10.499   4.207   8.597 -0.0633 -0.5615  1.7123
  772MOL0     H 4207  10.290   4.296   8.480 -2.8407 -0.2554  0.5169
  772MOL0     H 4208  10.079   4.361   8.522  1.1532  0.2911  2.4406
  772MOL0     H 4209  10.006   4.264   8.644  0.5029  2.0005  0.7649
  772MOL0     H 4210   9.837   4.361   8.410 -0.8526  0.7511  0.0763
  772MOL0     H 4211   9.824   4.383   8.581  3.4020  3.2346  0.3523
  772MOL0     H 4212   9.667   4.230   8.540 -0.9366 -2.9134  0.8402
  772MOL0     H 4213   9.799   4.129   8.601  1.4542 -1.1957 -1.4986
  772MOL0     H 4214   9.726   4.181   8.307 -0.0522 -0.7175  0.6454
  772MOL0     H 4215   9.856   4.066   8.351 -1.2823 -2.3227 -3.0507
  772MOL0     H 4216   9.472   3.901   8.456 -0.0963 -1.1116 -1.3066
  772MOL0     H 4217  10.067   3.958   8.578 -0.1125  1.5406 -6.7198
  772MOL0     H 4218  10.347   3.770   8.776 -1.3643 -2.5697 -0.2907
  772MOL0     H 4219  10.167   3.804   8.760 -0.8515  4.3372  0.7956
  772MOL0     H 4220  10.250   3.731   8.631 -3.5905  0.8944  1.1058
  773MOL0     O 4221   2.844   8.240   9.663 -0.2953 -0.6245  0.1674
  773MOL0     C 4222   2.816   8.294   9.551  1.2345  0.1010 -1.5971
  773MOL0     O 4223   2.903   8.295   9.445  0.4313 -0.3065 -0.3756
  773MOL0     C 4224   3.034   8.262   9.463 -0.3732 -0.4076  0.4159
  773MOL0     C 4225   3.070   8.135   9.504  0.5165 -0.7766  0.0692
  773MOL0     C 4226   3.209   8.110   9.517 -0.5303 -0.4332 -0.3109
  773MOL0     C 4227   3.303   8.206   9.489  0.2856  0.5014 -0.3853
  773MOL0     O 4228   3.439   8.187   9.514 -0.4652  0.1025 -0.1315
  773MOL0     C 4229   3.516   8.299   9.562  0.5417 -0.7962  0.1593
  773MOL0     C 4230   3.664   8.279   9.582 -0.5865  0.5807  0.1557
  773MOL0     C 4231   3.732   8.401   9.628 -0.2680 -0.0645 -0.3399
  773MOL0     C 4232   3.881   8.376   9.620  1.1220  0.1694 -0.9980
  773MOL0     C 4233   3.961   8.491   9.689  0.0320  0.7541 -0.8857
  773MOL0     C 4234   4.112   8.483   9.670 -0.4791  0.0075 -1.0728
  773MOL0     C 4235   4.149   8.562   9.550  0.1540  0.5526 -0.3267
  773MOL0     C 4236   4.303   8.565   9.533  0.4231  0.3435  0.3842
  773MOL0     N 4237   4.337   8.647   9.423 -0.5102  0.2191 -0.3835
  773MOL0     C 4238   4.289   8.618   9.299 -0.0112 -0.6000  0.6732
  773MOL0     C 4239   4.340   8.715   9.219  0.6956  0.7397 -0.1656
  773MOL0     C 4240   4.311   8.746   9.085 -0.1194 -0.6967  0.6069
  773MOL0     C 4241   4.385   8.663   8.984  0.5438 -0.3114  0.8368
  773MOL0     C 4242   4.524   8.727   8.961  0.6933 -0.2514  0.2042
  773MOL0     C 4243   4.581   8.660   8.839  0.2415 -0.1527 -0.1066
  773MOL0     O 4244   4.723   8.694   8.818  1.1510 -0.9262  0.3294
  773MOL0     C 4245   4.784   8.599   8.735 -1.1029 -0.5658  0.1147
  773MOL0     C 4246   4.890   8.646   8.660 -0.6505 -0.2924 -0.5606
  773MOL0     C 4247   4.967   8.569   8.580  0.3541  0.8056 -0.2882
  773MOL0     C 4248   4.937   8.429   8.572  0.2610  0.9832  0.0241
  773MOL0     C 4249   5.007   8.329   8.481 -0.9740 -0.8463 -0.3861
  773MOL0     O 4250   5.117   8.383   8.423 -0.4097  0.3214 -0.0345
  773MOL0     C 4251   5.175   8.321   8.311  0.1998  0.6681 -0.8213
  773MOL0     C 4252   5.189   8.183   8.295  1.2832  0.1928 -0.1600
  773MOL0     C 4253   5.232   8.122   8.178  0.2166 -0.1922  0.1076
  773MOL0     C 4254   5.264   8.206   8.074 -1.1131 -0.2594  0.4101
  773MOL0     O 4255   5.282   8.163   7.942 -0.1354 -0.1048 -0.2752
  773MOL0     C 4256   5.299   8.021   7.922  0.8491 -0.2245  0.6298
  773MOL0     C 4257   5.350   8.007   7.782 -0.9317 -0.9199 -0.6721
  773MOL0     C 4258   5.504   8.023   7.772  0.0427  0.3929  1.1285
  773MOL0     C 4259   5.532   7.993   7.623 -0.6766 -0.3851 -0.5331
  773MOL0     C 4260   5.688   7.996   7.593  0.8453 -0.4308 -0.1329
  773MOL0     C 4261   5.706   7.913   7.465 -0.0437 -0.0916 -0.5565
  773MOL0     C 4262   5.843   7.957   7.407 -0.6723  1.5470  1.1408
  773MOL0     C 4263   5.852   7.903   7.264  0.1174 -0.3046 -0.0825
  773MOL0    Cl 4264   6.010   7.951   7.177 -0.3240  0.2088  0.1276
  773MOL0     C 4265   5.259   8.350   8.088 -0.4346 -0.3791  1.0413
  773MOL0     C 4266   5.216   8.402   8.211 -0.3812  0.3757 -0.0099
  773MOL0     O 4267   4.941   8.229   8.449 -0.1570 -0.5708 -0.5453
  773MOL0     C 4268   4.829   8.376   8.645 -0.2108 -0.2539 -0.7241
  773MOL0     C 4269   4.761   8.461   8.732  0.2103 -0.6891  0.1224
  773MOL0     N 4270   4.421   8.793   9.296  0.2608 -0.2161  0.1811
  773MOL0     N 4271   4.414   8.755   9.424  0.2928 -0.5697  0.1316
  773MOL0     C 4272   3.260   8.329   9.447 -0.3965  0.0973 -0.6804
  773MOL0     C 4273   3.130   8.359   9.448  0.7162  0.0515  0.6986
  773MOL0     C 4274   2.712   8.402   9.557  0.5080 -0.8128  0.0002
  773MOL0     C 4275   2.671   8.466   9.436  0.6585  0.1817  0.1642
  773MOL0     C 4276   2.595   8.578   9.428  0.6129  0.3818  0.5168
  773MOL0     C 4277   2.560   8.645   9.544  0.6096  0.2289 -0.2861
  773MOL0     O 4278   2.491   8.761   9.553 -0.2806  0.4781  0.1819
  773MOL0     C 4279   2.480   8.841   9.433 -0.5663 -1.1869 -0.5178
  773MOL0     C 4280   2.426   8.981   9.470 -1.2153  0.8841 -0.0428
  773MOL0     C 4281   2.519   9.079   9.529  0.3339 -0.0357  0.0639
  773MOL0     C 4282   2.596   9.164   9.421 -0.6772  0.5324  0.4287
  773MOL0     C 4283   2.710   9.088   9.365 -0.5130  0.4631  0.1645
  773MOL0     C 4284   2.815   9.040   9.322 -0.3955 -0.0227 -0.5593
  773MOL0     C 4285   2.580   8.585   9.667  0.1245 -1.0980  0.2194
  773MOL0     C 4286   2.658   8.470   9.670 -0.0383  0.4949  0.2022
  773MOL0     C 4287   2.696   8.434   9.808  0.0118 -0.4429  0.0079
  773MOL0     H 4288   2.989   8.064   9.519 -0.3221  0.1697  0.0445
  773MOL0     H 4289   3.245   8.016   9.556 -0.2379 -0.0252  0.4373
  773MOL0     H 4290   3.493   8.381   9.494 -0.9630 -1.4834 -0.1971
  773MOL0     H 4291   3.478   8.336   9.657 -0.8818 -2.9518  0.5006
  773MOL0     H 4292   3.700   8.235   9.489 -0.9190  2.4086 -0.8893
  773MOL0     H 4293   3.680   8.208   9.664  2.8321  1.6752  0.6183
  773MOL0     H 4294   3.693   8.409   9.730  1.0311 -1.5332  0.3215
  773MOL0     H 4295   3.723   8.491   9.566  2.4317  1.5021  1.3185
  773MOL0     H 4296   3.902   8.286   9.678  0.3688 -0.6024 -1.9131
  773MOL0     H 4297   3.905   8.355   9.515  2.0344 -1.8269 -0.4330
  773MOL0     H 4298   3.914   8.589   9.671  0.2812  0.6743 -2.0710
  773MOL0     H 4299   3.936   8.466   9.792  0.2810 -0.3147 -1.0677
  773MOL0     H 4300   4.170   8.528   9.751  0.0621 -3.9368  0.9565
  773MOL0     H 4301   4.142   8.378   9.666 -1.2910 -0.4753  2.4996
  773MOL0     H 4302   4.119   8.666   9.571  0.1260  0.1184  2.0387
  773MOL0     H 4303   4.097   8.530   9.459  2.6322 -2.6310 -0.7950
  773MOL0     H 4304   4.341   8.599   9.629 -3.2458  0.0595  2.1265
  773MOL0     H 4305   4.334   8.460   9.529  1.3507  0.5373  1.7277
  773MOL0     H 4306   4.218   8.541   9.271 -0.4798 -1.1130  3.0704
  773MOL0     H 4307   4.205   8.731   9.063  0.3631  0.4979 -3.5197
  773MOL0     H 4308   4.331   8.852   9.068  1.7753 -0.3271  4.1753
  773MOL0     H 4309   4.398   8.558   9.013 -1.1853 -0.5982  0.6900
  773MOL0     H 4310   4.329   8.660   8.890  0.5306 -1.8605  0.8655
  773MOL0     H 4311   4.596   8.717   9.043 -0.1405 -1.8673  0.7777
  773MOL0     H 4312   4.512   8.831   8.928  0.6276 -1.5585 -4.5599
  773MOL0     H 4313   4.518   8.694   8.757 -0.7845 -1.2058  0.2116
  773MOL0     H 4314   4.552   8.555   8.846  0.1641 -0.0792  0.9429
  773MOL0     H 4315   4.916   8.751   8.668  1.7622 -0.8407 -0.5591
  773MOL0     H 4316   5.056   8.606   8.531  3.5688  0.0811  4.2896
  773MOL0     H 4317   5.163   8.110   8.372 -3.4140 -0.8468 -2.3764
  773MOL0     H 4318   5.249   8.015   8.185  1.7119 -0.1171 -1.4541
  773MOL0     H 4319   5.361   7.961   7.989  0.1974 -2.3352 -0.5512
  773MOL0     H 4320   5.206   7.964   7.936  0.6072  0.1490  0.5680
  773MOL0     H 4321   5.316   7.913   7.737 -2.7358 -0.0192 -1.2551
  773MOL0     H 4322   5.290   8.079   7.727 -2.2441 -2.3434 -1.1658
  773MOL0     H 4323   5.535   8.126   7.790  3.6118 -0.5075  0.8759
  773MOL0     H 4324   5.551   7.954   7.843 -3.1223 -2.0077  1.1648
  773MOL0     H 4325   5.483   8.063   7.555  0.3312 -0.1171 -1.0064
  773MOL0     H 4326   5.497   7.890   7.609 -0.9618 -0.8213  2.7285
  773MOL0     H 4327   5.746   7.953   7.674  0.6060 -0.8539 -0.1837
  773MOL0     H 4328   5.699   8.105   7.583 -3.1030  0.5100  3.0723
  773MOL0     H 4329   5.699   7.808   7.491  1.9264 -0.1046  0.0704
  773MOL0     H 4330   5.623   7.936   7.398 -1.2002 -2.7349 -0.1406
  773MOL0     H 4331   5.929   7.927   7.468 -0.2013 -1.1972 -0.6851
  773MOL0     H 4332   5.854   8.065   7.408  2.3175  1.3134  1.9563
  773MOL0     H 4333   5.860   7.794   7.272 -0.0687 -0.2760  0.5517
  773MOL0     H 4334   5.768   7.935   7.203 -0.3028 -1.9330 -0.4062
  773MOL0     H 4335   5.274   8.418   8.005 -0.1397 -1.3685  0.2626
  773MOL0     H 4336   5.216   8.507   8.237 -2.1241  0.5364 -0.5822
  773MOL0     H 4337   4.798   8.272   8.644  3.0174 -1.4412  2.1408
  773MOL0     H 4338   4.696   8.414   8.805 -1.9408  2.8768  0.7636
  773MOL0     H 4339   3.320   8.413   9.412 -3.4692  1.0880 -4.2471
  773MOL0     H 4340   3.104   8.463   9.436  0.9059  0.0063 -0.1435
  773MOL0     H 4341   2.688   8.429   9.335 -3.1083  0.0688 -0.5554
  773MOL0     H 4342   2.564   8.627   9.336  0.2844  0.1936  0.5268
  773MOL0     H 4343   2.409   8.786   9.370 -2.7242 -0.2637  0.9736
  773MOL0     H 4344   2.569   8.855   9.371 -0.8701 -3.1860 -1.4680
  773MOL0     H 4345   2.345   8.964   9.542 -0.9635  0.3894  0.1324
  773MOL0     H 4346   2.382   9.018   9.377 -0.8335  0.1055 -0.5465
  773MOL0     H 4347   2.580   9.040   9.610  0.3133 -0.8437 -0.2952
  773MOL0     H 4348   2.447   9.142   9.583 -0.0108 -1.4666  1.3541
  773MOL0     H 4349   2.530   9.198   9.341 -0.0338 -2.4655 -1.5508
  773MOL0     H 4350   2.634   9.244   9.484  1.8468 -0.8606  0.8411
  773MOL0     H 4351   2.908   8.996   9.292  0.4068  2.4308 -1.9700
  773MOL0     H 4352   2.536   8.644   9.746  2.5533  1.3363 -0.0965
  773MOL0     H 4353   2.659   8.336   9.841 -2.0689  0.4583  0.4975
  773MOL0     H 4354   2.800   8.462   9.826  0.0438  2.1338 -3.2452
  773MOL0     H 4355   2.637   8.496   9.877 -1.4861 -1.8370  0.0491
  774MOL0     O 4356   4.917   8.735   3.955 -0.4583 -0.5386 -0.3536
  774MOL0     C 4357   4.823   8.701   4.027 -0.4921 -0.1362 -0.0399
  774MOL0     O 4358   4.689   8.749   4.017  0.0086  0.0339 -0.3477
  774MOL0     C 4359   4.648   8.840   3.920  0.3908 -0.2087 -0.4114
  774MOL0     C 4360   4.519   8.829   3.879 -0.4606  0.0930 -0.4675
  774MOL0     C 4361   4.464   8.897   3.778 -0.1056 -0.1948 -1.1010
  774MOL0     C 4362   4.545   9.001   3.716 -0.1890 -0.2194  0.7519
  774MOL0     O 4363   4.513   9.088   3.623  0.4166  0.2736 -0.0571
  774MOL0     C 4364   4.382   9.143   3.619 -0.1453  0.1064  0.2790
  774MOL0     C 4365   4.363   9.270   3.704 -0.1885 -0.1230  0.2404
  774MOL0     C 4366   4.367   9.248   3.857  0.2099 -0.1827 -0.3593
  774MOL0     C 4367   4.256   9.160   3.915  0.1162  1.0651  0.3815
  774MOL0     C 4368   4.280   9.117   4.064 -0.2645 -0.4097  0.1365
  774MOL0     C 4369   4.204   8.982   4.111 -0.8011  0.9635  0.4461
  774MOL0     C 4370   4.254   8.915   4.236  0.2139 -0.0608  0.0213
  774MOL0     C 4371   4.390   8.859   4.227 -0.8447  0.1562 -0.5502
  774MOL0     N 4372   4.376   8.715   4.261  0.5300 -0.1841 -0.1053
  774MOL0     C 4373   4.324   8.613   4.186 -0.1197 -0.2682 -0.0274
  774MOL0     C 4374   4.344   8.491   4.250  0.3249  0.5345 -0.0145
  774MOL0     C 4375   4.308   8.352   4.201 -0.4833  0.6318 -0.2785
  774MOL0     C 4376   4.424   8.294   4.120  0.4352 -0.2365  0.5366
  774MOL0     C 4377   4.398   8.319   3.971  0.5475 -0.1936  0.1652
  774MOL0     C 4378   4.506   8.275   3.877  1.0536  0.5033 -0.5227
  774MOL0     O 4379   4.612   8.365   3.886  0.1823 -0.0684 -0.0820
  774MOL0     C 4380   4.716   8.334   3.790  0.6344  0.5955  0.7622
  774MOL0     C 4381   4.799   8.436   3.757 -0.2028 -0.0734 -0.3109
  774MOL0     C 4382   4.909   8.413   3.668  1.0948  0.5935 -0.4696
  774MOL0     C 4383   4.937   8.290   3.612 -0.8839  0.1500  0.5976
  774MOL0     C 4384   5.050   8.266   3.528 -0.0704 -0.4276 -0.0294
  774MOL0     O 4385   5.080   8.145   3.475 -1.1224  0.1138 -0.0084
  774MOL0     C 4386   5.202   8.115   3.417 -0.1598 -0.0180  0.7848
  774MOL0     C 4387   5.330   8.166   3.441 -0.3374 -0.2950  0.2463
  774MOL0     C 4388   5.444   8.112   3.387  0.1072 -1.0265  0.2236
  774MOL0     C 4389   5.446   7.987   3.318  0.1029 -1.2444  0.1143
  774MOL0     O 4390   5.549   7.923   3.265 -0.8723 -0.2986  0.2563
  774MOL0     C 4391   5.676   7.986   3.267  0.2458  0.0681 -0.0417
  774MOL0     C 4392   5.768   7.909   3.174  0.4099 -0.0786  0.0438
  774MOL0     C 4393   5.898   7.981   3.164 -0.2753  0.6992 -0.5236
  774MOL0     C 4394   5.980   7.934   3.029  0.4618  1.1531 -0.3630
  774MOL0     C 4395   6.133   7.946   3.065  0.7005 -0.1029  0.6452
  774MOL0     C 4396   6.180   8.083   3.102 -0.2764  0.0464 -0.7865
  774MOL0     C 4397   6.334   8.074   3.119  0.0009 -0.4230 -0.3133
  774MOL0     C 4398   6.403   8.214   3.112  0.3695 -0.1963 -0.0298
  774MOL0    Cl 4399   6.585   8.181   3.139  0.1169 -0.0156 -0.1078
  774MOL0     C 4400   5.317   7.938   3.290  0.6643  0.1825 -0.1516
  774MOL0     C 4401   5.200   7.990   3.345  0.1987 -0.3754  0.0924
  774MOL0     O 4402   5.106   8.368   3.490  1.0228 -0.1962 -0.1854
  774MOL0     C 4403   4.842   8.187   3.638  0.1707 -0.3446  0.0080
  774MOL0     C 4404   4.736   8.206   3.730 -0.4140 -0.1206 -0.6946
  774MOL0     N 4405   4.402   8.531   4.368 -0.2401 -0.5426 -0.1614
  774MOL0     N 4406   4.414   8.662   4.378 -0.5710  0.0321  0.4405
  774MOL0     C 4407   4.673   9.019   3.759  0.1761  0.4918  0.2298
  774MOL0     C 4408   4.729   8.937   3.856  0.5762 -0.2145 -0.0293
  774MOL0     C 4409   4.855   8.611   4.146 -0.5771  0.0336  0.3344
  774MOL0     C 4410   4.759   8.579   4.242 -0.3349 -0.7190 -0.8691
  774MOL0     C 4411   4.780   8.490   4.343  0.1013 -1.5100 -1.1249
  774MOL0     C 4412   4.901   8.435   4.365 -0.6394 -0.3447  0.0602
  774MOL0     O 4413   4.908   8.350   4.472  0.2339 -0.4806  0.5004
  774MOL0     C 4414   5.002   8.389   4.575 -0.7057 -0.5433 -0.2753
  774MOL0     C 4415   4.956   8.344   4.712  0.0116 -0.1033  0.3191
  774MOL0     C 4416   4.856   8.444   4.773 -0.1924 -0.2665 -0.3577
  774MOL0     C 4417   4.813   8.402   4.909  0.1587  0.2199  0.7855
  774MOL0     C 4418   4.692   8.479   4.938 -0.3064  0.4355  0.1447
  774MOL0     C 4419   4.599   8.551   4.971  0.5226  0.0176  0.2933
  774MOL0     C 4420   5.003   8.458   4.273  0.3680  1.4926 -0.5999
  774MOL0     C 4421   4.979   8.544   4.166 -0.9096 -0.3445 -0.2464
  774MOL0     C 4422   5.110   8.549   4.080  1.2343 -0.1575  0.1866
  774MOL0     H 4423   4.458   8.752   3.926  0.0868 -0.1106 -0.0744
  774MOL0     H 4424   4.361   8.873   3.756  0.1342 -0.5992 -1.8297
  774MOL0     H 4425   4.367   9.172   3.515  1.0479  0.9516  0.3233
  774MOL0     H 4426   4.302   9.071   3.640 -0.1189  0.8750  3.7049
  774MOL0     H 4427   4.283   9.333   3.665 -1.2719 -1.1786  0.7228
  774MOL0     H 4428   4.451   9.333   3.687  1.5454 -2.3961  0.2309
  774MOL0     H 4429   4.374   9.341   3.914 -0.7005 -0.2335 -0.1501
  774MOL0     H 4430   4.460   9.193   3.873  0.3124  0.4991  1.7311
  774MOL0     H 4431   4.165   9.220   3.922 -0.8049 -0.1739 -0.4554
  774MOL0     H 4432   4.254   9.068   3.855  0.7839  2.6030 -2.1358
  774MOL0     H 4433   4.386   9.094   4.084 -0.5331 -1.7555  0.1447
  774MOL0     H 4434   4.243   9.201   4.123 -0.8786  1.0681 -2.2282
  774MOL0     H 4435   4.103   9.022   4.127 -0.3179  2.9612 -1.0809
  774MOL0     H 4436   4.195   8.900   4.040 -1.1662  1.6869 -0.3697
  774MOL0     H 4437   4.175   8.847   4.270  1.6235 -1.1452  1.2894
  774MOL0     H 4438   4.256   8.985   4.320 -1.8161  1.3143 -1.0041
  774MOL0     H 4439   4.431   8.868   4.126 -0.4072  0.3061 -0.3604
  774MOL0     H 4440   4.450   8.920   4.294 -0.2819  0.2856 -1.1630
  774MOL0     H 4441   4.268   8.628   4.095 -1.9881  1.7086  1.3442
  774MOL0     H 4442   4.285   8.284   4.284  0.2797 -0.1332 -0.6836
  774MOL0     H 4443   4.217   8.356   4.141  0.0988  0.7014 -1.1766
  774MOL0     H 4444   4.520   8.339   4.145  1.3459 -0.4809 -2.2221
  774MOL0     H 4445   4.436   8.187   4.139  0.5767 -0.1325  1.0575
  774MOL0     H 4446   4.377   8.424   3.948 -0.3744 -0.4824 -0.3704
  774MOL0     H 4447   4.306   8.268   3.943 -0.9707  1.0748  2.5079
  774MOL0     H 4448   4.463   8.288   3.778 -3.7351  0.8276  1.2870
  774MOL0     H 4449   4.538   8.172   3.895  2.4139  1.1297  0.9078
  774MOL0     H 4450   4.769   8.533   3.795  0.2270 -0.3746  0.8380
  774MOL0     H 4451   4.964   8.504   3.644  1.2704 -0.4757 -5.0002
  774MOL0     H 4452   5.340   8.252   3.506 -0.8134  0.7176 -0.9800
  774MOL0     H 4453   5.541   8.158   3.405  1.6145 -2.7111 -2.7298
  774MOL0     H 4454   5.681   8.088   3.228 -0.0507  1.3389  2.9905
  774MOL0     H 4455   5.712   7.982   3.370 -2.1133 -0.1140  0.8439
  774MOL0     H 4456   5.798   7.809   3.209  0.5451  0.2129  0.7752
  774MOL0     H 4457   5.715   7.892   3.080 -1.1461  0.3240  0.8027
  774MOL0     H 4458   5.882   8.089   3.167  0.7309  0.9497  3.9684
  774MOL0     H 4459   5.955   7.959   3.255 -0.5924  2.1455  0.0480
  774MOL0     H 4460   5.953   7.990   2.939 -0.3711  0.3882 -0.6011
  774MOL0     H 4461   5.964   7.826   3.015 -0.3386  1.2506 -0.2386
  774MOL0     H 4462   6.183   7.909   2.974 -3.1465 -1.1966 -1.2276
  774MOL0     H 4463   6.149   7.878   3.149  1.7501 -1.4091 -0.5366
  774MOL0     H 4464   6.145   8.149   3.022  0.7556  1.6213  0.0006
  774MOL0     H 4465   6.137   8.117   3.197 -2.1140  0.1186 -1.6123
  774MOL0     H 4466   6.367   8.026   3.026 -1.6119  1.3242 -1.8903
  774MOL0     H 4467   6.349   8.011   3.207 -0.4086  2.1721  1.7138
  774MOL0     H 4468   6.384   8.243   3.009 -3.0131 -2.0064 -0.0294
  774MOL0     H 4469   6.356   8.285   3.180 -2.2598 -2.6623  0.9388
  774MOL0     H 4470   5.321   7.850   3.226 -0.8175 -3.3968  4.1358
  774MOL0     H 4471   5.102   7.949   3.322 -0.3988  0.6217  0.7753
  774MOL0     H 4472   4.835   8.090   3.588  0.6623 -3.0107  4.5215
  774MOL0     H 4473   4.680   8.116   3.750  0.5115 -1.1221 -2.3129
  774MOL0     H 4474   4.739   9.078   3.696  0.0580 -0.3283 -0.6828
  774MOL0     H 4475   4.837   8.938   3.858  0.5898  1.4775  0.3965
  774MOL0     H 4476   4.659   8.622   4.243 -0.0555  0.0531  2.0117
  774MOL0     H 4477   4.700   8.474   4.414  1.3260 -0.4112  0.5903
  774MOL0     H 4478   5.025   8.496   4.572 -0.9837 -0.4347  1.0777
  774MOL0     H 4479   5.087   8.324   4.550 -1.1889 -1.3328  0.1050
  774MOL0     H 4480   5.046   8.330   4.773  0.8264 -4.6590 -1.5115
  774MOL0     H 4481   4.916   8.242   4.706  1.4313 -0.6128 -1.2836
  774MOL0     H 4482   4.770   8.448   4.704 -0.0172  0.9603 -0.5345
  774MOL0     H 4483   4.893   8.547   4.784 -0.3485  0.2201 -3.4614
  774MOL0     H 4484   4.801   8.293   4.915 -1.2983  0.2544 -0.6067
  774MOL0     H 4485   4.887   8.418   4.987  2.1002  1.0424 -1.1332
  774MOL0     H 4486   4.516   8.603   5.014  1.5770 -0.0037  2.5310
  774MOL0     H 4487   5.101   8.417   4.297  1.8745  3.7022 -2.5091
  774MOL0     H 4488   5.147   8.652   4.075 -0.3294  0.3787 -1.5047
  774MOL0     H 4489   5.186   8.479   4.116  0.9641 -0.4304  0.2319
  774MOL0     H 4490   5.082   8.518   3.980  0.7989 -3.2959  1.1874
  775MOL0     O 4491   5.218   9.861   6.389  0.0048 -1.1043 -0.7852
  775MOL0     C 4492   5.194   9.765   6.453 -0.2330  1.0899  0.3121
  775MOL0     O 4493   5.279   9.705   6.536  0.3752  0.4077 -0.1701
  775MOL0     C 4494   5.415   9.736   6.537 -0.8950 -0.8138  0.8732
  775MOL0     C 4495   5.486   9.865   6.523 -0.3318  0.1991 -0.3714
  775MOL0     C 4496   5.622   9.860   6.504 -0.1289 -1.0704  0.1989
  775MOL0     C 4497   5.700   9.751   6.522  0.1306  1.1392  0.7120
  775MOL0     O 4498   5.834   9.773   6.513  0.1442 -0.3522  0.5850
  775MOL0     C 4499   5.915   9.667   6.569 -0.4394  0.5152  0.3367
  775MOL0     C 4500   6.059   9.711   6.615  0.1810  0.6353 -0.2297
  775MOL0     C 4501   6.146   9.779   6.512  0.4682  0.8329 -0.5746
  775MOL0     C 4502   6.276   9.827   6.578  0.1677 -0.1268  0.1189
  775MOL0     C 4503   6.372   9.893   6.479  0.0711  0.4381  0.3189
  775MOL0     C 4504   6.504   9.922   6.553 -0.2046  0.1424  0.7246
  775MOL0     C 4505   6.602  10.014   6.465  0.6310  0.7671  0.4641
  775MOL0     C 4506   6.601  10.168   6.505 -0.2662  0.9019  0.5705
  775MOL0     N 4507   6.723  10.227   6.453  0.1435 -0.1987 -0.5085
  775MOL0     C 4508   6.727  10.321   6.362 -0.7251  0.3054 -0.0179
  775MOL0     C 4509   6.847  10.382   6.373 -0.4100 -0.4712 -0.1834
  775MOL0     C 4510   6.887  10.489   6.271  0.6029  0.2859 -0.7074
  775MOL0     C 4511   6.889  10.624   6.339 -0.2766  1.1897 -0.3147
  775MOL0     C 4512   7.000  10.719   6.284  1.1931 -0.4340  0.2582
  775MOL0     C 4513   6.952  10.750   6.144 -0.1055 -0.0868 -0.4703
  775MOL0     O 4514   7.050  10.844   6.100 -0.4809 -0.7260 -0.4029
  775MOL0     C 4515   7.173  10.805   6.042 -0.1416 -0.7511  0.3996
  775MOL0     C 4516   7.202  10.683   5.972 -0.4100 -0.5523  0.2783
  775MOL0     C 4517   7.321  10.668   5.909  0.4734 -0.3731  1.3557
  775MOL0     C 4518   7.417  10.774   5.900  0.3273 -0.2673 -0.6106
  775MOL0     C 4519   7.547  10.770   5.821  0.0595 -1.0450 -0.7614
  775MOL0     O 4520   7.614  10.888   5.797 -0.2865  0.1322  0.2399
  775MOL0     C 4521   7.728  10.885   5.727 -0.0685  0.2663 -1.1830
  775MOL0     C 4522   7.741  10.936   5.600 -0.1204 -1.0469 -0.1336
  775MOL0     C 4523   7.868  10.946   5.535  0.5402  0.4256  0.5075
  775MOL0     C 4524   7.986  10.922   5.606  0.9321 -0.0883  0.3372
  775MOL0     O 4525   8.105  10.953   5.552 -0.9959  0.2091  0.1119
  775MOL0     C 4526   8.230  10.885   5.595  0.5624  0.5324  0.1117
  775MOL0     C 4527   8.229  10.733   5.557 -0.0543 -0.5152 -0.7461
  775MOL0     C 4528   8.368  10.669   5.574 -0.9019 -0.2965 -0.4007
  775MOL0     C 4529   8.440  10.696   5.439 -0.7853 -0.3590 -0.5521
  775MOL0     C 4530   8.588  10.687   5.432 -0.5265 -0.1469 -0.2799
  775MOL0     C 4531   8.637  10.681   5.289  0.1035 -0.0323  0.1611
  775MOL0     C 4532   8.787  10.692   5.297  0.0719  0.3385  0.1111
  775MOL0     C 4533   8.846  10.699   5.155  0.3000  0.0089  0.7565
  775MOL0    Cl 4534   9.001  10.767   5.143 -0.6014 -0.1241 -0.6390
  775MOL0     C 4535   7.971  10.860   5.744 -0.1071 -0.2253 -0.3205
  775MOL0     C 4536   7.848  10.852   5.797  1.0097  0.5485 -0.1640
  775MOL0     O 4537   7.582  10.655   5.787 -0.7245 -0.1181  0.0102
  775MOL0     C 4538   7.387  10.892   5.962  0.9961  0.0880 -0.0552
  775MOL0     C 4539   7.272  10.906   6.034 -0.7895  0.3545 -0.2068
  775MOL0     N 4540   6.915  10.316   6.476 -0.0082  0.1143 -0.6609
  775MOL0     N 4541   6.831  10.238   6.532 -0.3439  0.0338 -0.0109
  775MOL0     C 4542   5.635   9.629   6.529  0.9656  0.5137  0.8844
  775MOL0     C 4543   5.500   9.623   6.536  0.3476 -0.1544 -0.2864
  775MOL0     C 4544   5.051   9.727   6.470 -0.0843 -0.3204  0.3355
  775MOL0     C 4545   5.009   9.649   6.574 -1.6750  0.7044  0.1804
  775MOL0     C 4546   4.881   9.615   6.603 -0.6227  0.3318  0.2032
  775MOL0     C 4547   4.785   9.645   6.513  0.3310  0.2388  0.3954
  775MOL0     O 4548   4.655   9.588   6.524 -0.2240 -0.0052 -0.7755
  775MOL0     C 4549   4.621   9.506   6.647 -0.6085 -0.2728 -0.0161
  775MOL0     C 4550   4.468   9.488   6.661 -0.6524 -0.7013 -0.3021
  775MOL0     C 4551   4.414   9.411   6.535 -0.0566  0.2955  0.9476
  775MOL0     C 4552   4.260   9.402   6.547 -0.3287  0.1690 -0.0354
  775MOL0     C 4553   4.207   9.309   6.450  0.4423  0.3129  0.3658
  775MOL0     C 4554   4.154   9.256   6.359 -0.9912  0.0512  0.2309
  775MOL0     C 4555   4.816   9.734   6.410  0.5376  0.2286 -0.0895
  775MOL0     C 4556   4.948   9.777   6.383 -0.0368  0.3412  0.0877
  775MOL0     C 4557   4.970   9.863   6.257 -0.8901  0.3744  0.7752
  775MOL0     H 4558   5.448   9.967   6.525  1.5514  0.9316  0.8997
  775MOL0     H 4559   5.674   9.955   6.506 -0.9188 -0.5697  3.8303
  775MOL0     H 4560   5.859   9.619   6.649  0.0953 -0.4431  0.1473
  775MOL0     H 4561   5.926   9.588   6.494 -4.5400  2.3415 -2.5512
  775MOL0     H 4562   6.115   9.625   6.655  0.5602 -0.5874 -3.1647
  775MOL0     H 4563   6.045   9.780   6.699  1.0494  0.0295  0.4348
  775MOL0     H 4564   6.087   9.857   6.462 -3.2005 -1.3855 -0.0756
  775MOL0     H 4565   6.180   9.706   6.439 -0.0868 -0.2821  0.2519
  775MOL0     H 4566   6.244   9.898   6.655 -1.9695  1.5286 -2.1557
  775MOL0     H 4567   6.333   9.747   6.627  2.3589 -0.1205 -2.2320
  775MOL0     H 4568   6.396   9.831   6.392  1.9528  2.0913 -0.4039
  775MOL0     H 4569   6.323   9.982   6.439 -0.4615 -1.0135 -2.4827
  775MOL0     H 4570   6.490   9.968   6.651  1.5639  4.2322 -0.7372
  775MOL0     H 4571   6.563   9.832   6.569  3.8480  2.4618  0.1475
  775MOL0     H 4572   6.581   9.992   6.360 -2.0931  0.1391  1.0650
  775MOL0     H 4573   6.699   9.985   6.506 -0.8488 -3.3425  1.5523
  775MOL0     H 4574   6.509  10.217   6.472 -0.8650 -1.7173 -2.1806
  775MOL0     H 4575   6.609  10.194   6.611 -0.0823  0.0002  0.7864
  775MOL0     H 4576   6.647  10.349   6.295  0.0717  2.1667 -0.2545
  775MOL0     H 4577   6.982  10.461   6.225  1.6851  1.7353  0.5392
  775MOL0     H 4578   6.817  10.494   6.187 -1.8348  3.2554  1.2768
  775MOL0     H 4579   6.787  10.662   6.341 -1.7532 -2.4121 -0.5442
  775MOL0     H 4580   6.919  10.607   6.443  0.9106 -2.0772 -1.0652
  775MOL0     H 4581   7.096  10.667   6.282 -0.1949 -3.2930  1.1592
  775MOL0     H 4582   7.015  10.815   6.334  2.5315  0.9344 -2.5930
  775MOL0     H 4583   6.854  10.797   6.150 -1.9603 -3.5720 -0.7579
  775MOL0     H 4584   6.942  10.666   6.074 -3.4877  0.4235 -0.7408
  775MOL0     H 4585   7.132  10.601   5.953 -2.9624  1.7159 -0.7746
  775MOL0     H 4586   7.344  10.570   5.869 -0.2239  1.0573 -3.0218
  775MOL0     H 4587   7.654  10.981   5.554 -1.3226 -0.1850  2.7948
  775MOL0     H 4588   7.860  10.972   5.430 -4.7517  2.3428  1.0392
  775MOL0     H 4589   8.318  10.932   5.549  0.8667 -0.5969 -0.5126
  775MOL0     H 4590   8.234  10.899   5.703 -1.5997  1.2871  0.1278
  775MOL0     H 4591   8.160  10.690   5.630  0.1712  0.2341 -0.0696
  775MOL0     H 4592   8.186  10.712   5.459 -0.6984  0.4154 -0.6766
  775MOL0     H 4593   8.421  10.718   5.656 -0.5560  2.4035 -2.1327
  775MOL0     H 4594   8.376  10.562   5.597 -1.2022 -0.4814 -1.1423
  775MOL0     H 4595   8.415  10.797   5.408 -1.7183 -0.1919  0.6948
  775MOL0     H 4596   8.400  10.627   5.364 -1.1111 -2.3757  1.3718
  775MOL0     H 4597   8.616  10.592   5.479 -1.8694 -0.1198  0.6259
  775MOL0     H 4598   8.636  10.772   5.481  0.6559  0.0183 -1.6623
  775MOL0     H 4599   8.603  10.596   5.230 -0.0442 -1.6031  2.4085
  775MOL0     H 4600   8.601  10.774   5.243  1.9089  0.9889  0.6975
  775MOL0     H 4601   8.839  10.605   5.338  1.1526  0.6377 -0.5860
  775MOL0     H 4602   8.818  10.786   5.343  0.1289  0.0816  0.5933
  775MOL0     H 4603   8.850  10.592   5.130  1.9945 -0.2432  1.9023
  775MOL0     H 4604   8.784  10.754   5.085  1.6688 -0.0141 -0.5082
  775MOL0     H 4605   8.056  10.833   5.806 -0.1141  2.6195  1.1170
  775MOL0     H 4606   7.847  10.805   5.895  2.2302 -1.3186 -0.9784
  775MOL0     H 4607   7.436  10.988   5.946 -1.0421  0.9475 -1.6132
  775MOL0     H 4608   7.254  11.008   6.066  3.5643  3.1038 -5.0359
  775MOL0     H 4609   5.680   9.532   6.512 -0.1697  0.2435 -0.7434
  775MOL0     H 4610   5.457   9.524   6.548  1.4754 -0.6363 -0.1291
  775MOL0     H 4611   5.085   9.623   6.647 -1.7113  0.1897  0.0395
  775MOL0     H 4612   4.860   9.557   6.693  2.1322 -2.1827 -0.6287
  775MOL0     H 4613   4.655   9.561   6.735  1.7577 -1.9500  0.1975
  775MOL0     H 4614   4.669   9.408   6.658 -3.0334 -1.3850  1.4828
  775MOL0     H 4615   4.427   9.590   6.659 -1.8850 -1.1642  0.3852
  775MOL0     H 4616   4.436   9.439   6.753 -0.1451 -0.3862  0.0489
  775MOL0     H 4617   4.452   9.309   6.529  1.8930  1.0839 -2.5869
  775MOL0     H 4618   4.456   9.456   6.445  3.0973 -1.4492  1.4167
  775MOL0     H 4619   4.241   9.344   6.638 -4.0609  0.8426 -0.2390
  775MOL0     H 4620   4.207   9.498   6.546  1.1375  1.0130  0.0458
  775MOL0     H 4621   4.110   9.188   6.288 -0.4275 -1.1697  1.0182
  775MOL0     H 4622   4.734   9.759   6.343  1.3635  0.3681 -1.0727
  775MOL0     H 4623   4.880   9.863   6.194  0.9765 -0.2558 -2.1089
  775MOL0     H 4624   4.998   9.966   6.280 -2.2162  1.1414 -0.7738
  775MOL0     H 4625   5.047   9.816   6.195 -0.7064  0.6155  0.8197
  776MOL0     O 4626   6.494   7.249   8.444  0.0313  0.6097  0.7746
  776MOL0     C 4627   6.497   7.292   8.557  0.8071 -0.2700  1.0309
  776MOL0     O 4628   6.610   7.335   8.621 -0.3765 -0.4419 -0.5148
  776MOL0     C 4629   6.727   7.316   8.556  0.4029 -1.5738 -0.0467
  776MOL0     C 4630   6.784   7.193   8.552  0.1491  0.8616 -0.3969
  776MOL0     C 4631   6.910   7.174   8.488 -0.1794  0.1621 -0.3518
  776MOL0     C 4632   6.981   7.278   8.433 -0.0459  0.1857 -0.0369
  776MOL0     O 4633   7.101   7.256   8.368 -0.3109  0.1542 -0.3643
  776MOL0     C 4634   7.179   7.145   8.408 -0.2010  1.1881 -0.4609
  776MOL0     C 4635   7.312   7.155   8.347  0.0521 -0.3075  0.5713
  776MOL0     C 4636   7.415   7.055   8.397 -0.5549 -0.5590  0.4483
  776MOL0     C 4637   7.551   7.093   8.338 -0.1212 -0.2558  0.5932
  776MOL0     C 4638   7.661   6.996   8.351  0.2104 -0.3001  0.1420
  776MOL0     C 4639   7.688   6.940   8.489 -0.0311 -0.0138 -0.0758
  776MOL0     C 4640   7.772   7.047   8.560  0.6798  0.4901  0.7220
  776MOL0     C 4641   7.811   7.013   8.691 -0.2744  0.0401 -0.7484
  776MOL0     N 4642   7.703   6.973   8.783 -0.3557 -0.6583  0.0242
  776MOL0     C 4643   7.571   7.021   8.776  0.0341  0.5470  1.0643
  776MOL0     C 4644   7.492   6.947   8.860  0.0710  0.9043  1.1203
  776MOL0     C 4645   7.348   6.959   8.885  0.9463  0.2538 -0.4595
  776MOL0     C 4646   7.309   6.993   9.033  0.0399  0.7973  0.0709
  776MOL0     C 4647   7.357   7.126   9.088 -0.7763  0.5090  0.1844
  776MOL0     C 4648   7.315   7.137   9.242  0.1223 -0.2035 -0.6583
  776MOL0     O 4649   7.371   7.027   9.307  0.0981  0.7450 -0.9090
  776MOL0     C 4650   7.466   7.055   9.392 -0.6057  0.1050 -0.3464
  776MOL0     C 4651   7.443   7.109   9.517 -0.0563 -0.2923  1.0388
  776MOL0     C 4652   7.543   7.140   9.602  0.1977  0.9828  0.2565
  776MOL0     C 4653   7.675   7.124   9.569  0.2359 -0.0419  0.2221
  776MOL0     C 4654   7.780   7.148   9.669  0.7041  0.1248 -0.2311
  776MOL0     O 4655   7.749   7.239   9.759 -0.8035 -0.6705  0.3211
  776MOL0     C 4656   7.858   7.294   9.837  0.3609 -0.6270 -0.2680
  776MOL0     C 4657   7.988   7.316   9.783  0.6722  0.1685 -0.4225
  776MOL0     C 4658   8.090   7.351   9.862  0.2920  0.3869 -0.3303
  776MOL0     C 4659   8.070   7.382   9.994  0.4024  0.0453 -1.0779
  776MOL0     O 4660   8.171   7.429  10.069  0.2207 -0.4461 -0.1499
  776MOL0     C 4661   8.170   7.572  10.075 -0.3575 -0.1422  0.0707
  776MOL0     C 4662   8.313   7.617  10.056 -0.6453 -0.3792  0.9169
  776MOL0     C 4663   8.383   7.586  10.188 -0.4819  0.2659  0.0653
  776MOL0     C 4664   8.536   7.592  10.180  0.9436  0.6313 -1.1693
  776MOL0     C 4665   8.590   7.595  10.325  0.2040 -0.0614  0.4055
  776MOL0     C 4666   8.747   7.597  10.335  0.1035  0.2533  0.9052
  776MOL0     C 4667   8.802   7.452  10.328  0.9010  0.4502  0.0385
  776MOL0     C 4668   8.947   7.456  10.310 -0.4693 -0.4636  0.7861
  776MOL0    Cl 4669   9.030   7.559  10.436 -0.1627  0.1468 -0.4073
  776MOL0     C 4670   7.949   7.368  10.048  0.1606 -0.1946  0.3042
  776MOL0     C 4671   7.834   7.329   9.970  0.2102  0.7292 -0.7463
  776MOL0     O 4672   7.885   7.086   9.667 -0.3991  0.3267  0.7260
  776MOL0     C 4673   7.703   7.066   9.440 -0.2633  0.4732 -1.1451
  776MOL0     C 4674   7.602   7.030   9.355  0.0744  0.3148 -0.7645
  776MOL0     N 4675   7.578   6.849   8.914 -0.3830  0.0229  0.5877
  776MOL0     N 4676   7.706   6.868   8.877  0.8378  0.3931 -0.1662
  776MOL0     C 4677   6.920   7.406   8.438  0.5084 -0.6580  0.2377
  776MOL0     C 4678   6.800   7.425   8.500  0.2450  0.1422 -0.2644
  776MOL0     C 4679   6.374   7.296   8.623 -0.4881 -0.5322  0.8961
  776MOL0     C 4680   6.362   7.225   8.746 -0.2407  0.7032  0.5778
  776MOL0     C 4681   6.243   7.215   8.816  0.3777  0.0532 -0.4021
  776MOL0     C 4682   6.121   7.267   8.764 -0.6266 -0.5236  0.2227
  776MOL0     O 4683   5.993   7.269   8.814  0.7731  0.0143  0.1117
  776MOL0     C 4684   5.974   7.204   8.940  0.0366  0.1182 -0.3186
  776MOL0     C 4685   5.904   7.071   8.936 -1.0839  0.4556 -0.5080
  776MOL0     C 4686   5.766   7.096   8.865 -0.3168 -0.5911  0.7831
  776MOL0     C 4687   5.667   7.201   8.939  0.1127  0.2816  0.7222
  776MOL0     C 4688   5.645   7.175   9.079  0.4628  0.4828  0.0448
  776MOL0     C 4689   5.636   7.160   9.205  0.2270 -0.0398 -0.7836
  776MOL0     C 4690   6.139   7.347   8.640  0.1736 -0.7099 -0.3560
  776MOL0     C 4691   6.263   7.363   8.575 -0.0799 -0.6355 -0.0900
  776MOL0     C 4692   6.266   7.465   8.465 -0.8383  0.2895 -0.0840
  776MOL0     H 4693   6.722   7.125   8.609 -0.0569  2.3009  1.1653
  776MOL0     H 4694   6.949   7.073   8.483  0.5329  0.2555  2.0025
  776MOL0     H 4695   7.189   7.124   8.515 -1.9106 -0.1805 -0.5048
  776MOL0     H 4696   7.123   7.059   8.368 -1.0371  1.4636  0.0872
  776MOL0     H 4697   7.347   7.257   8.364 -3.2433  0.8252  1.4120
  776MOL0     H 4698   7.304   7.149   8.238 -1.9413 -0.2418  0.6738
  776MOL0     H 4699   7.378   6.956   8.367 -0.1970 -0.6911  0.4353
  776MOL0     H 4700   7.428   7.061   8.506  1.2377 -1.9686  0.3699
  776MOL0     H 4701   7.541   7.115   8.231 -1.7581  1.3331  1.0294
  776MOL0     H 4702   7.578   7.193   8.373 -2.1677  0.1083  1.2259
  776MOL0     H 4703   7.640   6.912   8.285 -0.6397 -2.6711  3.2045
  776MOL0     H 4704   7.749   7.047   8.311  0.1719 -0.1789  0.2078
  776MOL0     H 4705   7.593   6.911   8.536 -0.8083  0.0505 -1.5454
  776MOL0     H 4706   7.743   6.847   8.472  1.3456  0.2202  2.5654
  776MOL0     H 4707   7.707   7.135   8.558  1.0409  0.8074 -3.0142
  776MOL0     H 4708   7.862   7.073   8.503  0.3432 -1.9084 -1.0881
  776MOL0     H 4709   7.885   6.932   8.690 -1.4027 -1.0265 -1.3238
  776MOL0     H 4710   7.868   7.098   8.728 -0.7993  1.3487 -2.7745
  776MOL0     H 4711   7.533   7.101   8.713  1.1544  1.6745  1.7833
  776MOL0     H 4712   7.308   7.025   8.808 -1.6876 -1.4333 -0.6846
  776MOL0     H 4713   7.308   6.861   8.858  5.3972 -1.4968 -1.6862
  776MOL0     H 4714   7.199   6.987   9.033  0.0691  0.1870 -0.0891
  776MOL0     H 4715   7.341   6.905   9.089  0.7604  1.8570  1.3580
  776MOL0     H 4716   7.315   7.213   9.037  0.7100 -0.5015 -2.9997
  776MOL0     H 4717   7.465   7.142   9.086 -1.2892  5.8437  0.8367
  776MOL0     H 4718   7.206   7.148   9.250  0.3136  1.7367 -0.2936
  776MOL0     H 4719   7.348   7.230   9.287  0.7087 -1.3001  1.2743
  776MOL0     H 4720   7.347   7.150   9.547  0.4915  2.7022 -0.8364
  776MOL0     H 4721   7.517   7.180   9.699 -0.3555 -0.8215  0.8812
  776MOL0     H 4722   7.995   7.302   9.675 -3.4755 -1.8801 -0.6112
  776MOL0     H 4723   8.188   7.353   9.817  0.7991 -2.2365  0.5252
  776MOL0     H 4724   8.126   7.622   9.988  3.4535  2.8276 -0.4137
  776MOL0     H 4725   8.121   7.605  10.167 -1.3533 -1.3123 -0.0116
  776MOL0     H 4726   8.345   7.575   9.960 -2.2780  4.5703 -2.1597
  776MOL0     H 4727   8.322   7.724  10.034 -0.6183 -0.8825 -1.9369
  776MOL0     H 4728   8.352   7.658  10.263 -1.1920 -0.7951  0.8297
  776MOL0     H 4729   8.363   7.483  10.220 -1.7105 -0.1423 -1.8167
  776MOL0     H 4730   8.561   7.679  10.120  1.7530  0.6560 -0.8122
  776MOL0     H 4731   8.590   7.508  10.136  2.9410  0.7847  0.8153
  776MOL0     H 4732   8.546   7.512  10.381 -0.4563  1.4047  2.1630
  776MOL0     H 4733   8.549   7.682  10.378  1.5268 -0.4277  2.1283
  776MOL0     H 4734   8.798   7.663  10.265  2.0907 -1.9826  0.1017
  776MOL0     H 4735   8.768   7.638  10.434 -0.3028 -0.5784  1.3476
  776MOL0     H 4736   8.754   7.404  10.242 -2.1151  1.5565  0.9470
  776MOL0     H 4737   8.765   7.400  10.417  1.4509 -1.3507 -0.7581
  776MOL0     H 4738   8.985   7.353  10.307  0.9573  0.0367  0.9962
  776MOL0     H 4739   8.971   7.492  10.210 -1.6418 -1.2782  0.1856
  776MOL0     H 4740   7.934   7.385  10.154 -1.2432  1.0189 -0.0474
  776MOL0     H 4741   7.728   7.318   9.992 -0.2261 -1.4246 -3.4518
  776MOL0     H 4742   7.808   7.057   9.414 -0.0971  1.3384 -0.8120
  776MOL0     H 4743   7.612   6.985   9.257  2.0216 -1.4937  0.2039
  776MOL0     H 4744   6.959   7.497   8.394  0.4379 -0.6920  0.1041
  776MOL0     H 4745   6.746   7.519   8.504  1.1431  0.6573  0.0006
  776MOL0     H 4746   6.449   7.173   8.783 -1.3957  0.8778  3.8076
  776MOL0     H 4747   6.238   7.137   8.892 -1.2842 -0.2874 -0.8148
  776MOL0     H 4748   5.914   7.272   9.002  0.5179 -0.9193  1.3707
  776MOL0     H 4749   6.065   7.195   9.001 -0.6258 -1.0140  0.5402
  776MOL0     H 4750   5.878   7.040   9.038 -1.1156  0.2312 -0.5829
  776MOL0     H 4751   5.966   6.988   8.900 -3.3099 -0.7245 -1.8698
  776MOL0     H 4752   5.714   6.999   8.859  0.1529 -0.8015 -0.0015
  776MOL0     H 4753   5.792   7.144   8.771 -0.6899  2.6319  2.2027
  776MOL0     H 4754   5.700   7.303   8.918 -4.0965  1.6710 -0.1432
  776MOL0     H 4755   5.568   7.203   8.891  1.3691  0.0566 -2.0884
  776MOL0     H 4756   5.626   7.146   9.311 -3.0159 -0.8899 -1.0823
  776MOL0     H 4757   6.050   7.399   8.607 -2.3107 -3.2464  1.8323
  776MOL0     H 4758   6.349   7.454   8.395 -1.8026  2.0664 -1.5771
  776MOL0     H 4759   6.171   7.457   8.412  0.8654 -1.9765 -3.0638
  776MOL0     H 4760   6.269   7.571   8.495 -0.7225  0.5316 -0.9326
  777MOL0     O 4761   3.507   3.355   2.685 -0.6777  0.2375 -0.3355
  777MOL0     C 4762   3.504   3.304   2.575  0.0184 -0.1763  0.1771
  777MOL0     O 4763   3.603   3.314   2.480  0.2201 -0.4949  0.3346
  777MOL0     C 4764   3.665   3.438   2.471 -0.2118 -0.2291  0.0479
  777MOL0     C 4765   3.782   3.431   2.387  0.7369  0.9781  0.2518
  777MOL0     C 4766   3.874   3.530   2.387 -0.2062 -1.2159 -0.4777
  777MOL0     C 4767   3.854   3.639   2.462  0.5062 -0.2115  0.7153
  777MOL0     O 4768   3.943   3.739   2.470  0.2420 -0.0483  0.3876
  777MOL0     C 4769   4.074   3.705   2.513 -0.8676  0.0066 -0.2420
  777MOL0     C 4770   4.183   3.768   2.417  0.6801 -0.4969 -0.0058
  777MOL0     C 4771   4.316   3.696   2.450 -0.0666 -0.3663 -0.4611
  777MOL0     C 4772   4.363   3.735   2.593 -0.0615 -0.8473  0.8416
  777MOL0     C 4773   4.515   3.722   2.595  0.2096  0.9457  0.2611
  777MOL0     C 4774   4.561   3.769   2.734 -1.4583  0.2302  0.2665
  777MOL0     C 4775   4.706   3.728   2.762 -0.3425  0.1357 -0.4222
  777MOL0     C 4776   4.807   3.812   2.677 -0.5062  0.1378 -0.1192
  777MOL0     N 4777   4.911   3.731   2.610 -0.1377 -0.5135  0.0518
  777MOL0     C 4778   4.926   3.735   2.477 -0.0060  0.3954  0.1377
  777MOL0     C 4779   5.033   3.662   2.449  0.8450 -0.0343 -0.5515
  777MOL0     C 4780   5.084   3.622   2.316 -0.2559  0.3174 -0.2007
  777MOL0     C 4781   5.244   3.619   2.302  1.3621 -0.1805 -0.1724
  777MOL0     C 4782   5.302   3.548   2.184  0.6880 -0.1413  0.2297
  777MOL0     C 4783   5.450   3.500   2.194  1.2510 -0.2098 -0.5842
  777MOL0     O 4784   5.522   3.616   2.239 -0.6615 -0.1789  0.1695
  777MOL0     C 4785   5.629   3.678   2.175  0.8179  1.2720  0.2896
  777MOL0     C 4786   5.682   3.641   2.049  0.0818  0.1817  1.0791
  777MOL0     C 4787   5.795   3.705   1.997  0.0700 -1.5870  0.3662
  777MOL0     C 4788   5.860   3.812   2.060  0.6978 -0.6846 -0.3184
  777MOL0     C 4789   5.972   3.885   1.991  0.3823 -0.6582  0.5928
  777MOL0     O 4790   6.032   3.826   1.880 -0.5459  0.1075 -0.7072
  777MOL0     C 4791   6.151   3.887   1.842  0.2522  0.0936 -0.2925
  777MOL0     C 4792   6.272   3.844   1.897  0.4140  0.1806  0.0786
  777MOL0     C 4793   6.388   3.907   1.859 -0.4268  0.3464 -0.0225
  777MOL0     C 4794   6.385   4.001   1.764  0.2571 -0.0686  0.2674
  777MOL0     O 4795   6.503   4.075   1.743 -0.1389 -0.6838 -0.0493
  777MOL0     C 4796   6.516   4.144   1.617 -0.1557 -0.2585 -0.1571
  777MOL0     C 4797   6.654   4.205   1.621 -0.4032 -0.5881 -0.1215
  777MOL0     C 4798   6.653   4.311   1.510  0.2539 -0.5417 -0.5154
  777MOL0     C 4799   6.790   4.383   1.536 -0.3374  0.6242  0.2284
  777MOL0     C 4800   6.828   4.461   1.402 -0.1520  0.8296  0.4122
  777MOL0     C 4801   6.948   4.543   1.437 -0.3221 -0.7324  0.6646
  777MOL0     C 4802   6.993   4.617   1.307 -0.3308 -0.1800 -0.0484
  777MOL0     C 4803   7.086   4.738   1.339 -0.1183 -0.0591  0.0639
  777MOL0    Cl 4804   7.113   4.839   1.195 -0.0961  0.1028  0.1625
  777MOL0     C 4805   6.264   4.038   1.708  0.1541 -0.1815 -0.0893
  777MOL0     C 4806   6.149   3.978   1.748  0.9169  0.5863  0.6080
  777MOL0     O 4807   6.010   3.990   2.037  0.0442  0.4216  0.3632
  777MOL0     C 4808   5.811   3.850   2.187 -0.4460 -0.3754  0.4671
  777MOL0     C 4809   5.698   3.780   2.242 -0.1542  0.3278 -0.0929
  777MOL0     N 4810   5.083   3.623   2.567  0.0528  0.1004 -1.1516
  777MOL0     N 4811   5.014   3.662   2.667  0.0496 -0.6218  0.8860
  777MOL0     C 4812   3.735   3.665   2.527 -0.5697 -0.1923  0.3724
  777MOL0     C 4813   3.647   3.558   2.534  0.2323 -0.3782 -0.1786
  777MOL0     C 4814   3.401   3.198   2.549 -1.4956 -0.1228  0.1586
  777MOL0     C 4815   3.429   3.095   2.457 -0.2202 -0.3531 -0.9676
  777MOL0     C 4816   3.344   2.983   2.442 -0.2790  0.0676  0.0294
  777MOL0     C 4817   3.224   2.970   2.506 -0.0458  1.1258  0.8263
  777MOL0     O 4818   3.155   2.848   2.488 -0.0643  0.5363  0.3131
  777MOL0     C 4819   3.047   2.814   2.577 -0.6539  0.4896  0.2493
  777MOL0     C 4820   2.915   2.862   2.510 -0.2903  0.0537 -0.6423
  777MOL0     C 4821   2.796   2.843   2.619  0.3954  0.7396 -0.6613
  777MOL0     C 4822   2.832   2.944   2.733 -0.1775  0.0635 -0.3102
  777MOL0     C 4823   2.718   2.959   2.826 -0.3959  0.0511  0.2009
  777MOL0     C 4824   2.607   2.982   2.867 -0.5941 -0.3209 -0.2411
  777MOL0     C 4825   3.191   3.072   2.588  0.0519 -0.4308 -0.3151
  777MOL0     C 4826   3.275   3.184   2.616  0.1149 -0.3364  0.7945
  777MOL0     C 4827   3.225   3.296   2.709 -0.3053  1.2313 -0.0042
  777MOL0     H 4828   3.802   3.353   2.314 -1.2473 -0.9884  1.6893
  777MOL0     H 4829   3.970   3.520   2.338  0.6899 -0.5936  1.0782
  777MOL0     H 4830   4.073   3.742   2.616 -0.4228  0.3569 -0.3595
  777MOL0     H 4831   4.087   3.597   2.515  1.8049  0.2792  0.8044
  777MOL0     H 4832   4.186   3.875   2.439 -0.4016 -0.1024 -1.6145
  777MOL0     H 4833   4.152   3.753   2.313  0.7807  1.5453 -0.3727
  777MOL0     H 4834   4.389   3.726   2.374 -0.5303 -1.9959 -1.5994
  777MOL0     H 4835   4.305   3.588   2.455  0.2983 -0.3646  3.1052
  777MOL0     H 4836   4.352   3.841   2.614 -0.3788 -0.5773 -0.5841
  777MOL0     H 4837   4.318   3.677   2.673  0.6546 -3.5567 -0.5865
  777MOL0     H 4838   4.540   3.617   2.578  1.6384  1.3222 -0.0343
  777MOL0     H 4839   4.561   3.772   2.510 -0.1383  1.5381  0.4160
  777MOL0     H 4840   4.547   3.877   2.731 -3.6424 -0.0266 -0.3968
  777MOL0     H 4841   4.488   3.736   2.808 -3.5549  2.0561 -0.8694
  777MOL0     H 4842   4.711   3.621   2.739  0.4500  0.5875 -2.5703
  777MOL0     H 4843   4.731   3.743   2.867  2.4793 -1.8124 -0.6970
  777MOL0     H 4844   4.749   3.871   2.605 -0.6103  3.6690  2.6174
  777MOL0     H 4845   4.856   3.896   2.727 -1.6723 -0.1008  1.5106
  777MOL0     H 4846   4.858   3.777   2.403 -1.3846 -0.3879  0.9049
  777MOL0     H 4847   5.045   3.522   2.292  2.1053 -0.1575 -2.7187
  777MOL0     H 4848   5.042   3.693   2.244  0.6913  0.7271 -0.3631
  777MOL0     H 4849   5.277   3.722   2.284  0.0810  0.1288 -0.8723
  777MOL0     H 4850   5.290   3.576   2.392  1.3818 -0.4560 -0.3149
  777MOL0     H 4851   5.293   3.620   2.102  0.7936  1.1799  1.3270
  777MOL0     H 4852   5.244   3.459   2.159  2.7973 -1.0916 -1.6286
  777MOL0     H 4853   5.484   3.463   2.097 -0.8545  0.9288 -1.8320
  777MOL0     H 4854   5.455   3.419   2.266  0.8715  0.6356  0.4132
  777MOL0     H 4855   5.636   3.558   1.995  0.3014  1.3748 -1.0692
  777MOL0     H 4856   5.828   3.690   1.894  0.0376  0.7122 -0.0429
  777MOL0     H 4857   6.260   3.784   1.986 -0.7456  3.5537  2.4012
  777MOL0     H 4858   6.481   3.886   1.912  0.1016 -0.8448 -1.3656
  777MOL0     H 4859   6.505   4.078   1.530 -0.1107 -0.8853  0.3077
  777MOL0     H 4860   6.440   4.220   1.597 -0.4691 -0.9621 -1.8390
  777MOL0     H 4861   6.670   4.250   1.719  0.6384  0.7400 -0.8587
  777MOL0     H 4862   6.738   4.138   1.602  1.6673  1.9452 -0.4182
  777MOL0     H 4863   6.642   4.255   1.417 -0.9843  0.5190 -1.0231
  777MOL0     H 4864   6.574   4.384   1.527  2.2564  1.5202  0.4339
  777MOL0     H 4865   6.868   4.309   1.557 -2.5296 -1.4633  1.5913
  777MOL0     H 4866   6.777   4.445   1.625  1.7035  2.6359 -0.7806
  777MOL0     H 4867   6.735   4.516   1.387 -3.5695 -4.5728 -1.1664
  777MOL0     H 4868   6.822   4.401   1.311  1.5150 -1.7048  1.8344
  777MOL0     H 4869   6.927   4.618   1.514 -1.9749  0.9192 -1.2940
  777MOL0     H 4870   7.032   4.479   1.465  1.0744  0.9150  0.3992
  777MOL0     H 4871   6.907   4.637   1.242  0.2820 -2.7858 -1.8457
  777MOL0     H 4872   7.060   4.552   1.249  2.0758  3.0567 -1.1979
  777MOL0     H 4873   7.039   4.786   1.425 -0.7368 -3.7998  2.0703
  777MOL0     H 4874   7.182   4.703   1.380 -0.0207  0.3423  0.1770
  777MOL0     H 4875   6.248   4.116   1.635 -2.5255 -0.4711  0.1035
  777MOL0     H 4876   6.064   4.028   1.703  1.7009  2.3296  0.9739
  777MOL0     H 4877   5.875   3.918   2.243 -0.0156  0.3507 -0.8569
  777MOL0     H 4878   5.674   3.825   2.338 -0.6472  1.9321 -0.9241
  777MOL0     H 4879   3.730   3.764   2.573 -1.0453 -0.4536  0.8959
  777MOL0     H 4880   3.564   3.577   2.601  0.2981  2.8547 -0.8578
  777MOL0     H 4881   3.522   3.110   2.402 -0.4554  0.9270 -1.0303
  777MOL0     H 4882   3.382   2.909   2.373  0.8707  1.0091 -0.3861
  777MOL0     H 4883   3.073   2.866   2.670 -3.7343  3.0645 -0.1401
  777MOL0     H 4884   3.046   2.706   2.588 -0.2390  0.5948  1.4954
  777MOL0     H 4885   2.884   2.798   2.426 -0.5411 -1.1220  0.3138
  777MOL0     H 4886   2.927   2.968   2.485  3.0849 -0.3124 -1.0568
  777MOL0     H 4887   2.794   2.741   2.659  2.0591  1.2128  0.7861
  777MOL0     H 4888   2.701   2.865   2.569  0.3042 -2.8756 -2.3505
  777MOL0     H 4889   2.926   2.928   2.785  0.9635 -0.2563 -2.3699
  777MOL0     H 4890   2.847   3.039   2.681 -0.6096  1.1384  1.4597
  777MOL0     H 4891   2.502   2.986   2.891 -1.1831 -1.8402 -2.3246
  777MOL0     H 4892   3.099   3.066   2.644 -1.4308 -0.3523 -2.5989
  777MOL0     H 4893   3.211   3.392   2.657  1.1695  1.5434  0.1326
  777MOL0     H 4894   3.132   3.270   2.759  0.6493 -1.1894  0.6323
  777MOL0     H 4895   3.295   3.317   2.790  0.7255 -1.2664 -0.1627
  778MOL0     O 4896   7.546   6.296   3.597  0.3885  0.2229 -0.0266
  778MOL0     C 4897   7.462   6.238   3.527 -0.8102 -0.3082 -0.1183
  778MOL0     O 4898   7.376   6.140   3.569 -0.3831  0.3416 -0.2712
  778MOL0     C 4899   7.365   6.137   3.709  0.3895 -0.1129  0.8020
  778MOL0     C 4900   7.425   6.044   3.802 -0.3378 -0.1869  0.7916
  778MOL0     C 4901   7.417   6.059   3.941 -0.4522  0.2272  0.0412
  778MOL0     C 4902   7.335   6.163   3.992 -0.6814  0.4584  0.2519
  778MOL0     O 4903   7.309   6.181   4.124  0.2066  0.5823  0.4616
  778MOL0     C 4904   7.176   6.134   4.159 -0.9913 -0.4470 -0.7558
  778MOL0     C 4905   7.152   6.180   4.302 -0.0620 -0.4082 -0.3907
  778MOL0     C 4906   7.032   6.106   4.356 -0.6120  0.8105  0.4768
  778MOL0     C 4907   6.906   6.155   4.285 -0.0520  0.6195 -0.7107
  778MOL0     C 4908   6.764   6.115   4.355 -0.3883 -0.0959  0.4423
  778MOL0     C 4909   6.739   6.167   4.495 -0.1243 -0.3191 -0.3464
  778MOL0     C 4910   6.595   6.141   4.539 -0.9844  0.7033 -0.3061
  778MOL0     C 4911   6.568   6.184   4.685 -0.5334  0.0192  0.9443
  778MOL0     N 4912   6.659   6.128   4.791 -0.4113  0.0223 -0.6202
  778MOL0     C 4913   6.691   5.992   4.815 -0.2608 -0.3312 -0.7090
  778MOL0     C 4914   6.816   5.995   4.865 -0.6268  0.2217 -0.7283
  778MOL0     C 4915   6.912   5.884   4.894  0.6901 -0.4122  0.8612
  778MOL0     C 4916   6.989   5.899   5.029 -0.4481 -0.1952 -0.3659
  778MOL0     C 4917   7.078   5.773   5.061  0.4938 -0.5484 -0.7637
  778MOL0     C 4918   7.144   5.787   5.198  0.1837 -0.6214  1.1128
  778MOL0     O 4919   7.055   5.774   5.304  0.2245  0.1210 -0.1506
  778MOL0     C 4920   7.104   5.756   5.432  0.5439  0.7602 -0.7198
  778MOL0     C 4921   7.013   5.739   5.540 -0.1418  0.2499  0.5813
  778MOL0     C 4922   7.064   5.728   5.668 -0.1192  0.6575  0.2681
  778MOL0     C 4923   7.199   5.725   5.698  0.0100 -0.1078 -0.2007
  778MOL0     C 4924   7.248   5.693   5.835  0.6340 -0.6410  0.3914
  778MOL0     O 4925   7.391   5.683   5.843  0.4780 -0.0308 -0.2025
  778MOL0     C 4926   7.448   5.647   5.963 -0.5792  0.6443  0.0416
  778MOL0     C 4927   7.510   5.523   5.953  0.5896 -0.0125  1.2846
  778MOL0     C 4928   7.578   5.473   6.066  0.1855  0.3066  1.0500
  778MOL0     C 4929   7.570   5.539   6.186 -0.3195 -0.2534  0.8215
  778MOL0     O 4930   7.633   5.469   6.287  0.0614 -0.2332  0.5489
  778MOL0     C 4931   7.675   5.544   6.404 -0.2891  0.0432 -0.0696
  778MOL0     C 4932   7.720   5.448   6.510 -0.6599 -0.2494 -0.0716
  778MOL0     C 4933   7.854   5.388   6.467 -1.0992  0.0926 -0.0264
  778MOL0     C 4934   7.912   5.295   6.582  0.0424 -0.7063  1.1645
  778MOL0     C 4935   8.059   5.256   6.584 -0.5953 -0.2528  0.5939
  778MOL0     C 4936   8.085   5.155   6.701  0.0427 -0.5845  0.2910
  778MOL0     C 4937   8.216   5.088   6.708 -0.1641 -0.8064 -0.6125
  778MOL0     C 4938   8.230   4.982   6.815  0.3487 -0.4456 -1.1154
  778MOL0    Cl 4939   8.221   5.052   6.977 -0.0500  0.1390  0.1397
  778MOL0     C 4940   7.500   5.658   6.205 -0.3280  0.1953  0.1692
  778MOL0     C 4941   7.439   5.717   6.090  0.0618  0.3911 -0.2669
  778MOL0     O 4942   7.162   5.656   5.924  0.0740  0.1199 -0.2734
  778MOL0     C 4943   7.281   5.738   5.586  0.1490 -0.0621 -0.7403
  778MOL0     C 4944   7.241   5.770   5.459 -0.0106  0.6983 -0.1380
  778MOL0     N 4945   6.844   6.123   4.896  0.2149 -0.8673 -0.0378
  778MOL0     N 4946   6.747   6.207   4.859 -0.0220  0.0933 -0.4194
  778MOL0     C 4947   7.275   6.254   3.899  0.2239 -0.1071 -0.9106
  778MOL0     C 4948   7.299   6.248   3.762 -0.2558 -0.0566  0.1952
  778MOL0     C 4949   7.458   6.262   3.378  0.3824 -0.8284 -0.9714
  778MOL0     C 4950   7.344   6.236   3.312 -0.3622  0.1943 -0.6493
  778MOL0     C 4951   7.328   6.253   3.176 -0.0944 -0.5525 -0.2086
  778MOL0     C 4952   7.435   6.302   3.099  0.5292  0.5031 -0.2266
  778MOL0     O 4953   7.417   6.326   2.960  0.5450 -0.2594  0.4025
  778MOL0     C 4954   7.312   6.269   2.887  0.2831  0.6840 -0.5841
  778MOL0     C 4955   7.308   6.329   2.747  0.5559  0.0945  0.0008
  778MOL0     C 4956   7.437   6.318   2.683  0.4228  0.2385 -0.0305
  778MOL0     C 4957   7.437   6.355   2.540 -0.6012  0.0022 -0.0214
  778MOL0     C 4958   7.378   6.259   2.456  0.3771  0.0943 -1.1363
  778MOL0     C 4959   7.319   6.184   2.383 -0.6078  0.2856 -0.3060
  778MOL0     C 4960   7.552   6.322   3.161 -0.7192 -0.5109  0.5837
  778MOL0     C 4961   7.566   6.304   3.297  0.3896 -0.0005  0.1799
  778MOL0     C 4962   7.705   6.335   3.345 -0.6533  0.3919 -0.1954
  778MOL0     H 4963   7.496   5.975   3.759  1.3029  2.4481 -1.0620
  778MOL0     H 4964   7.472   5.983   3.996 -3.2489 -2.4601 -0.5939
  778MOL0     H 4965   7.110   6.187   4.090  1.2606  0.7534 -2.1150
  778MOL0     H 4966   7.167   6.025   4.160 -2.8647 -0.4428  3.3946
  778MOL0     H 4967   7.129   6.286   4.307  0.1697 -0.3898  0.3677
  778MOL0     H 4968   7.236   6.166   4.371 -2.5045  1.4658  3.2772
  778MOL0     H 4969   7.023   6.136   4.461  3.9074  0.0134  1.3022
  778MOL0     H 4970   7.064   6.001   4.348  1.9765  1.5892 -0.5270
  778MOL0     H 4971   6.909   6.264   4.284  0.8468  0.9151  4.9428
  778MOL0     H 4972   6.917   6.111   4.185  0.7093  1.4820 -1.0176
  778MOL0     H 4973   6.682   6.144   4.289  0.3952 -0.8895 -0.9148
  778MOL0     H 4974   6.753   6.006   4.352  0.0616 -0.1518  0.6399
  778MOL0     H 4975   6.808   6.122   4.568 -1.4787 -1.4884  0.2814
  778MOL0     H 4976   6.758   6.274   4.498 -0.1906 -0.3217  2.1519
  778MOL0     H 4977   6.589   6.032   4.544 -0.8195  0.5980 -1.9560
  778MOL0     H 4978   6.516   6.183   4.476 -0.2257  1.3327 -0.8641
  778MOL0     H 4979   6.566   6.293   4.683 -0.9006  0.0019 -0.8619
  778MOL0     H 4980   6.467   6.165   4.721  0.3872  0.6801  4.2315
  778MOL0     H 4981   6.636   5.901   4.798  1.3546 -1.1433 -1.9202
  778MOL0     H 4982   6.853   5.793   4.907  2.5185 -1.8560 -0.4035
  778MOL0     H 4983   6.989   5.872   4.817  1.4544 -1.4817  1.7470
  778MOL0     H 4984   7.051   5.989   5.022  0.1801 -0.6471 -0.7072
  778MOL0     H 4985   6.922   5.913   5.114  0.0968  0.9822 -0.1075
  778MOL0     H 4986   7.157   5.755   4.988 -1.5278 -1.6308 -2.7774
  778MOL0     H 4987   7.016   5.684   5.068 -2.4552  1.3586 -1.0166
  778MOL0     H 4988   7.189   5.887   5.200 -1.5262  0.1724  2.0458
  778MOL0     H 4989   7.213   5.703   5.207  1.7989  0.7149  1.6888
  778MOL0     H 4990   6.907   5.725   5.518 -0.1760 -0.4788  1.1747
  778MOL0     H 4991   6.994   5.704   5.748 -0.7399 -2.7951 -1.1307
  778MOL0     H 4992   7.502   5.475   5.856 -0.5352  2.9358 -0.1897
  778MOL0     H 4993   7.640   5.385   6.056 -0.0468 -0.3668  4.3920
  778MOL0     H 4994   7.751   5.609   6.361 -2.4486  2.8961  0.0965
  778MOL0     H 4995   7.593   5.603   6.447 -0.9805 -1.9012  1.4747
  778MOL0     H 4996   7.733   5.490   6.610  1.2216 -1.0583  0.0640
  778MOL0     H 4997   7.639   5.377   6.527  0.3588 -1.0053  1.9131
  778MOL0     H 4998   7.843   5.331   6.374 -1.6294  0.0977  0.0328
  778MOL0     H 4999   7.932   5.460   6.443  1.8871 -3.0003 -0.4277
  778MOL0     H 5000   7.852   5.205   6.571  0.0737 -0.4400 -2.2872
  778MOL0     H 5001   7.891   5.328   6.684  0.4875 -0.8806  1.3176
  778MOL0     H 5002   8.115   5.349   6.595 -0.6696 -0.0970 -0.2856
  778MOL0     H 5003   8.085   5.202   6.492 -3.9432 -4.1100  1.5793
  778MOL0     H 5004   8.080   5.205   6.798  1.9891  1.9034 -0.7789
  778MOL0     H 5005   8.005   5.080   6.710 -3.7610  2.6503 -3.0608
  778MOL0     H 5006   8.289   5.166   6.729 -2.2296  0.9523  0.3862
  778MOL0     H 5007   8.242   5.045   6.610 -1.0339 -2.3778 -0.2008
  778MOL0     H 5008   8.164   4.896   6.795  1.9580 -1.2597 -3.3794
  778MOL0     H 5009   8.331   4.942   6.823  0.0647 -0.8253  1.8216
  778MOL0     H 5010   7.498   5.708   6.301  3.4602 -2.4886  1.9159
  778MOL0     H 5011   7.379   5.806   6.103  2.1933  1.7363  1.0139
  778MOL0     H 5012   7.389   5.746   5.596 -0.1710  4.7837  2.4507
  778MOL0     H 5013   7.312   5.780   5.377 -1.9339 -1.6180 -2.2246
  778MOL0     H 5014   7.225   6.345   3.930  0.7870 -0.1915  0.2956
  778MOL0     H 5015   7.264   6.326   3.694 -0.0358 -1.4078 -1.5629
  778MOL0     H 5016   7.254   6.193   3.356  1.0736  0.1635  2.5613
  778MOL0     H 5017   7.232   6.238   3.128 -0.0005 -0.0668 -0.5571
  778MOL0     H 5018   7.214   6.289   2.932  1.1415  0.1012  1.6886
  778MOL0     H 5019   7.330   6.161   2.884 -0.8133  0.2293  3.4409
  778MOL0     H 5020   7.278   6.433   2.763 -2.6440 -0.7316  0.1975
  778MOL0     H 5021   7.231   6.273   2.693  1.1092 -0.8534  0.1769
  778MOL0     H 5022   7.469   6.214   2.692 -1.5116 -0.5866 -1.8287
  778MOL0     H 5023   7.509   6.382   2.735  1.3107 -1.4395  0.9036
  778MOL0     H 5024   7.384   6.450   2.530 -0.6238 -0.0030  0.0488
  778MOL0     H 5025   7.538   6.380   2.508  0.0880 -0.6976  1.5171
  778MOL0     H 5026   7.266   6.132   2.306  1.1503  0.9525 -2.0631
  778MOL0     H 5027   7.636   6.362   3.105 -0.0869 -1.3098  0.9274
  778MOL0     H 5028   7.738   6.278   3.433  2.5970  1.7707 -0.4069
  778MOL0     H 5029   7.772   6.306   3.263 -1.4327 -1.5545 -0.1920
  778MOL0     H 5030   7.719   6.442   3.362 -2.4941  0.7577 -0.7916
  779MOL0     O 5031   1.179   7.819   4.858  0.4440  0.2422  0.6292
  779MOL0     C 5032   1.173   7.766   4.971 -0.8937 -0.4746 -0.5825
  779MOL0     O 5033   1.261   7.773   5.076 -0.3141  0.0022  0.4564
  779MOL0     C 5034   1.379   7.845   5.060 -0.9323 -0.1975 -0.2056
  779MOL0     C 5035   1.491   7.782   5.000 -0.0722  0.4381  0.7958
  779MOL0     C 5036   1.612   7.852   4.995 -0.2607  0.4957 -0.9355
  779MOL0     C 5037   1.627   7.992   5.019 -0.2428  0.3871 -0.8210
  779MOL0     O 5038   1.740   8.067   5.006  0.1352 -0.8069  0.2634
  779MOL0     C 5039   1.851   7.989   4.957 -0.9373  0.2601 -0.8767
  779MOL0     C 5040   1.978   8.077   4.965  0.1704 -0.3289 -0.4128
  779MOL0     C 5041   1.956   8.219   4.896  0.0865  0.0487  0.3425
  779MOL0     C 5042   2.087   8.304   4.864  0.8704 -0.3714  0.3883
  779MOL0     C 5043   2.050   8.458   4.861 -0.0456 -0.3900  0.4264
  779MOL0     C 5044   2.179   8.538   4.844 -0.2385 -0.1978  0.1330
  779MOL0     C 5045   2.228   8.548   4.702 -0.2712 -0.7192  0.2087
  779MOL0     C 5046   2.351   8.640   4.701  0.0953 -0.9417 -0.5965
  779MOL0     N 5047   2.457   8.586   4.783  0.4238 -0.3553 -0.0830
  779MOL0     C 5048   2.498   8.647   4.895  0.8101  0.2567 -0.7038
  779MOL0     C 5049   2.599   8.570   4.945 -0.2718  0.1780  0.9196
  779MOL0     C 5050   2.670   8.621   5.065  1.0845  0.1053  0.1814
  779MOL0     C 5051   2.820   8.561   5.045  0.8544 -0.2236  0.5205
  779MOL0     C 5052   2.889   8.562   5.171 -0.8188 -0.2472  0.0904
  779MOL0     C 5053   2.949   8.699   5.224  0.3833 -0.5966  0.6652
  779MOL0     O 5054   3.045   8.768   5.142 -0.6705 -0.1597  0.3511
  779MOL0     C 5055   3.184   8.735   5.142 -0.0775 -0.6088  0.1027
  779MOL0     C 5056   3.239   8.624   5.207  0.8409  0.3495  0.4023
  779MOL0     C 5057   3.379   8.621   5.226 -0.3224  0.4034 -0.0629
  779MOL0     C 5058   3.471   8.706   5.157 -0.2018 -0.0296  0.6389
  779MOL0     C 5059   3.616   8.698   5.174  0.4622  0.3870 -0.5352
  779MOL0     O 5060   3.687   8.817   5.174  0.1484  0.6082  0.4389
  779MOL0     C 5061   3.822   8.815   5.201 -0.6779 -1.0716  0.1303
  779MOL0     C 5062   3.928   8.762   5.110  0.1107  0.7161  0.6314
  779MOL0     C 5063   4.057   8.785   5.147  0.3747  0.1321  0.1638
  779MOL0     C 5064   4.092   8.857   5.257  0.3627 -0.4608 -0.7764
  779MOL0     O 5065   4.224   8.892   5.292 -0.0115  0.6600 -0.0888
  779MOL0     C 5066   4.327   8.826   5.215 -0.1718 -0.1534  0.0951
  779MOL0     C 5067   4.451   8.890   5.276  0.2447  0.1539  0.6042
  779MOL0     C 5068   4.571   8.805   5.242 -0.8193  0.4773  0.0094
  779MOL0     C 5069   4.693   8.881   5.309 -0.3855 -0.8737  0.2304
  779MOL0     C 5070   4.814   8.783   5.329  0.9740 -0.2692  0.2517
  779MOL0     C 5071   4.916   8.753   5.213  0.4046 -0.1827 -0.1027
  779MOL0     C 5072   5.027   8.648   5.248  0.8993  0.9116  0.6857
  779MOL0     C 5073   5.145   8.665   5.150 -0.0142 -0.7281 -0.0709
  779MOL0    Cl 5074   5.093   8.681   4.971  0.5627 -0.3792 -0.1431
  779MOL0     C 5075   3.996   8.904   5.352 -0.6163 -0.4969  0.2194
  779MOL0     C 5076   3.862   8.878   5.322  0.4284 -0.8751 -0.6007
  779MOL0     O 5077   3.657   8.590   5.208  0.7658  0.1611  0.1822
  779MOL0     C 5078   3.416   8.817   5.087 -0.1562  0.3572  0.0226
  779MOL0     C 5079   3.272   8.827   5.083  0.8451 -0.4269  0.4445
  779MOL0     N 5080   2.593   8.453   4.883  0.0633 -0.0786  0.7436
  779MOL0     N 5081   2.519   8.469   4.772 -0.0875 -0.3931  0.1270
  779MOL0     C 5082   1.506   8.058   5.065  0.6411 -0.5941 -0.1785
  779MOL0     C 5083   1.385   7.986   5.076  0.0013 -0.9707 -0.0835
  779MOL0     C 5084   1.045   7.707   5.014 -0.0292 -0.8506  0.2228
  779MOL0     C 5085   0.974   7.762   5.119 -0.2067 -0.8204 -1.1131
  779MOL0     C 5086   0.858   7.700   5.162 -0.1713 -0.5502  0.5685
  779MOL0     C 5087   0.811   7.586   5.108  0.1197 -0.1289 -0.5493
  779MOL0     O 5088   0.689   7.546   5.158 -0.0820 -0.4068  0.7408
  779MOL0     C 5089   0.613   7.432   5.107  0.3390  1.0093  0.0450
  779MOL0     C 5090   0.496   7.407   5.216 -1.2450 -0.3682  0.4103
  779MOL0     C 5091   0.553   7.366   5.342 -0.3970  0.3897 -0.3542
  779MOL0     C 5092   0.436   7.323   5.436  0.3778  0.0589 -0.2823
  779MOL0     C 5093   0.479   7.337   5.578  0.0548  0.5452  1.2997
  779MOL0     C 5094   0.502   7.350   5.697  0.4982 -0.7528 -0.5882
  779MOL0     C 5095   0.875   7.531   5.001  0.4907  0.9306  0.1589
  779MOL0     C 5096   0.995   7.594   4.950 -0.1564  0.0064 -0.3696
  779MOL0     C 5097   1.061   7.533   4.832 -0.3817 -0.1258 -0.1629
  779MOL0     H 5098   1.477   7.681   4.962 -1.6853  0.7757  0.4226
  779MOL0     H 5099   1.684   7.782   4.952  0.1877 -0.6072  1.4481
  779MOL0     H 5100   1.871   7.906   5.026 -0.2387  0.2800 -1.0514
  779MOL0     H 5101   1.824   7.956   4.856 -2.8810  1.3748 -0.7774
  779MOL0     H 5102   2.064   8.026   4.922  1.6742  0.6470  1.2655
  779MOL0     H 5103   1.998   8.095   5.071 -1.1332  0.8871 -0.3397
  779MOL0     H 5104   1.895   8.273   4.969  3.0886  1.0464  2.3053
  779MOL0     H 5105   1.902   8.204   4.802  1.5714 -1.9164 -0.2685
  779MOL0     H 5106   2.155   8.277   4.945 -0.6921 -0.3722  1.7639
  779MOL0     H 5107   2.129   8.271   4.769  1.3156  0.5842  0.2408
  779MOL0     H 5108   1.989   8.483   4.773  1.9571  0.6064 -0.7483
  779MOL0     H 5109   2.004   8.497   4.952  1.4564  1.4116  0.4764
  779MOL0     H 5110   2.143   8.638   4.870  0.0640  0.2185 -0.9994
  779MOL0     H 5111   2.261   8.508   4.910  1.6418  2.0901 -1.0049
  779MOL0     H 5112   2.143   8.577   4.640 -1.3181  0.2869  2.0212
  779MOL0     H 5113   2.262   8.450   4.667  0.8122 -0.3466  0.1984
  779MOL0     H 5114   2.393   8.652   4.600  0.8266  3.1654 -0.0098
  779MOL0     H 5115   2.324   8.740   4.736  1.9846 -0.8919  0.8356
  779MOL0     H 5116   2.480   8.748   4.930  2.7201  1.7184 -3.4805
  779MOL0     H 5117   2.668   8.730   5.069  3.7397  0.3190 -1.9464
  779MOL0     H 5118   2.614   8.594   5.155  0.0177  0.9106 -0.2150
  779MOL0     H 5119   2.823   8.464   4.995  1.8950  1.3521 -2.7939
  779MOL0     H 5120   2.874   8.623   4.972  0.4502 -3.1107 -2.4842
  779MOL0     H 5121   2.972   8.490   5.177  0.2923  1.0532  0.8449
  779MOL0     H 5122   2.812   8.526   5.239 -0.5982 -1.6983 -0.3845
  779MOL0     H 5123   2.977   8.697   5.329  1.5571  1.0446  0.4267
  779MOL0     H 5124   2.860   8.763   5.224  1.5467  1.0923 -0.0679
  779MOL0     H 5125   3.174   8.557   5.262  2.1371 -1.0864  0.2700
  779MOL0     H 5126   3.415   8.540   5.290  1.2598 -0.7875 -2.3145
  779MOL0     H 5127   3.892   8.704   5.025  0.8408 -1.7163  1.9019
  779MOL0     H 5128   4.141   8.757   5.084 -2.1436 -1.7036 -2.6384
  779MOL0     H 5129   4.329   8.719   5.240 -1.2891 -0.6297 -1.7064
  779MOL0     H 5130   4.322   8.836   5.107 -0.2481  0.3199  0.1398
  779MOL0     H 5131   4.465   8.988   5.229  0.4268 -0.9679 -1.8138
  779MOL0     H 5132   4.440   8.897   5.385 -3.1794  1.5351  0.2897
  779MOL0     H 5133   4.575   8.710   5.297 -0.0929  0.2447 -0.4334
  779MOL0     H 5134   4.576   8.795   5.133 -0.9627 -0.1950  0.0635
  779MOL0     H 5135   4.662   8.923   5.405 -0.9161 -0.2681 -0.1948
  779MOL0     H 5136   4.730   8.971   5.259  0.7896  0.4480  3.2386
  779MOL0     H 5137   4.773   8.689   5.367 -2.3392  0.7707 -0.4310
  779MOL0     H 5138   4.882   8.829   5.402  1.0187  2.3693 -1.3290
  779MOL0     H 5139   4.867   8.735   5.117  3.8763  1.0585 -2.2973
  779MOL0     H 5140   4.973   8.846   5.201  2.1043 -1.3456 -1.6148
  779MOL0     H 5141   4.984   8.549   5.229 -1.4780  1.8317  0.8636
  779MOL0     H 5142   5.048   8.655   5.355  0.2300  2.2767  0.7566
  779MOL0     H 5143   5.201   8.757   5.168 -2.3582  0.7476 -0.0264
  779MOL0     H 5144   5.217   8.583   5.157  0.2419 -0.8327 -2.6945
  779MOL0     H 5145   4.026   8.953   5.444 -1.2008  1.1751 -0.4478
  779MOL0     H 5146   3.785   8.920   5.385 -1.3028  0.9546 -3.6564
  779MOL0     H 5147   3.474   8.894   5.038 -0.6286 -1.5592 -3.9388
  779MOL0     H 5148   3.221   8.916   5.047  1.2349  0.7262  2.6110
  779MOL0     H 5149   1.508   8.165   5.083 -2.7729  0.2752 -3.4831
  779MOL0     H 5150   1.298   8.029   5.125  1.5613  1.0878  1.0399
  779MOL0     H 5151   1.015   7.853   5.163 -1.0604  0.0829 -2.1283
  779MOL0     H 5152   0.809   7.748   5.246 -1.1049  0.0161 -0.2768
  779MOL0     H 5153   0.680   7.348   5.088 -0.0060  1.0696 -1.5458
  779MOL0     H 5154   0.563   7.458   5.013 -0.6318 -2.4725 -0.5815
  779MOL0     H 5155   0.437   7.322   5.181  0.0802 -0.9923 -0.4313
  779MOL0     H 5156   0.445   7.502   5.229  2.5550  2.3462 -2.0950
  779MOL0     H 5157   0.604   7.449   5.391 -3.5627  2.7133 -0.7268
  779MOL0     H 5158   0.618   7.278   5.328  0.6253  0.6897  1.9594
  779MOL0     H 5159   0.356   7.396   5.420  0.8931  1.1894  1.9373
  779MOL0     H 5160   0.388   7.229   5.405 -0.7981  0.5506 -0.0055
  779MOL0     H 5161   0.511   7.347   5.803  0.0789 -2.3132 -0.5693
  779MOL0     H 5162   0.847   7.437   4.953  1.3456  1.0899 -0.6609
  779MOL0     H 5163   0.991   7.507   4.753  1.2196 -0.3830 -1.5607
  779MOL0     H 5164   1.130   7.601   4.780 -0.5967  1.7630  1.8744
  779MOL0     H 5165   1.107   7.439   4.862 -1.6641 -1.1877 -1.3848
  780MOL0     O 5166   3.548   4.987  10.625  0.5380  0.7054 -1.0150
  780MOL0     C 5167   3.488   4.887  10.658  0.5128 -0.3381 -0.3060
  780MOL0     O 5168   3.435   4.787  10.576  0.1579 -0.3012 -0.0606
  780MOL0     C 5169   3.444   4.799  10.438  0.5040 -0.7190 -1.3093
  780MOL0     C 5170   3.459   4.683  10.366  1.0358  0.3269 -0.1351
  780MOL0     C 5171   3.483   4.687  10.231  0.0669  0.8437  0.2076
  780MOL0     C 5172   3.496   4.809  10.157  0.8506  0.1082 -0.0619
  780MOL0     O 5173   3.509   4.797  10.022  0.0486 -0.6202 -0.3895
  780MOL0     C 5174   3.536   4.922   9.950 -0.2411  0.1034 -0.0659
  780MOL0     C 5175   3.584   4.867   9.818 -0.3294  0.5198  0.7060
  780MOL0     C 5176   3.688   4.964   9.758  0.2488  0.3802  1.3834
  780MOL0     C 5177   3.729   4.935   9.614 -0.0409 -0.1449 -0.5087
  780MOL0     C 5178   3.840   5.026   9.569  0.0717  0.2914  0.6807
  780MOL0     C 5179   3.978   4.979   9.611 -0.7505 -0.9055  1.0177
  780MOL0     C 5180   4.104   5.058   9.557  0.2506 -0.3522 -0.6403
  780MOL0     C 5181   4.146   5.008   9.409 -0.0855 -0.4219 -0.5520
  780MOL0     N 5182   4.279   5.045   9.360  0.3850 -1.1627 -0.0124
  780MOL0     C 5183   4.399   5.024   9.423  0.3076  0.9838 -0.4465
  780MOL0     C 5184   4.479   5.110   9.360  0.0214  0.0724  0.2051
  780MOL0     C 5185   4.637   5.122   9.379 -0.3312  0.2174  0.2698
  780MOL0     C 5186   4.710   5.129   9.242 -0.9701  0.1177 -1.4654
  780MOL0     C 5187   4.862   5.155   9.257  0.3424 -0.7381  0.1251
  780MOL0     C 5188   4.913   5.158   9.113 -0.4156 -0.0049 -0.8903
  780MOL0     O 5189   5.044   5.225   9.100 -0.0704  0.3078 -0.2284
  780MOL0     C 5190   5.118   5.209   8.981 -0.5234  0.2846  0.3003
  780MOL0     C 5191   5.055   5.184   8.858  0.0662  0.1150  0.4751
  780MOL0     C 5192   5.133   5.167   8.745  0.0470 -0.0304 -0.9222
  780MOL0     C 5193   5.269   5.206   8.745  0.4815 -0.7058  1.6910
  780MOL0     C 5194   5.354   5.189   8.621 -0.5066  0.2706 -0.4964
  780MOL0     O 5195   5.301   5.123   8.509 -0.6981 -0.2561  0.0589
  780MOL0     C 5196   5.374   5.075   8.407 -0.0522  0.2468  0.2020
  780MOL0     C 5197   5.297   5.040   8.295 -0.3183 -0.2308 -0.1383
  780MOL0     C 5198   5.350   4.994   8.172 -0.5141  0.1921 -0.1125
  780MOL0     C 5199   5.484   4.978   8.162 -0.7062 -0.1494  0.4028
  780MOL0     O 5200   5.539   4.931   8.044  0.2594  0.4342  0.0254
  780MOL0     C 5201   5.673   4.983   8.018 -0.2956 -0.2309 -0.0963
  780MOL0     C 5202   5.707   4.948   7.879 -0.4583 -0.4967  0.3108
  780MOL0     C 5203   5.853   4.968   7.837  0.8709  0.8251  0.9308
  780MOL0     C 5204   5.936   5.065   7.935  0.8883  0.1504  0.0071
  780MOL0     C 5205   6.080   5.089   7.902  0.8638 -0.0889 -0.2104
  780MOL0     C 5206   6.139   5.169   8.018  0.2955 -0.6447  0.0155
  780MOL0     C 5207   6.287   5.202   7.982 -0.9573  1.1182 -0.1203
  780MOL0     C 5208   6.340   5.311   8.073  0.4123 -0.1421  0.0445
  780MOL0    Cl 5209   6.518   5.294   8.063 -0.5480 -0.1467 -0.2515
  780MOL0     C 5210   5.564   5.009   8.273 -0.0168  0.4074  0.2326
  780MOL0     C 5211   5.513   5.052   8.396 -0.1221  0.2699 -0.2792
  780MOL0     O 5212   5.470   5.219   8.631 -0.4724 -0.3188 -0.2794
  780MOL0     C 5213   5.323   5.245   8.862  0.1809  0.1040 -0.2017
  780MOL0     C 5214   5.253   5.241   8.987 -0.7066  0.6430  0.4307
  780MOL0     N 5215   4.418   5.174   9.250  0.3726  0.9171  0.2680
  780MOL0     N 5216   4.295   5.138   9.257 -0.4671  0.1338 -0.3118
  780MOL0     C 5217   3.485   4.926  10.233 -0.2939 -1.4045 -1.2500
  780MOL0     C 5218   3.453   4.921  10.365 -0.5399  0.6707 -0.2617
  780MOL0     C 5219   3.462   4.859  10.799 -0.0438  0.0786 -0.3511
  780MOL0     C 5220   3.397   4.743  10.837 -0.0050  0.7289 -0.4001
  780MOL0     C 5221   3.388   4.699  10.976 -0.2203 -0.4119 -0.0515
  780MOL0     C 5222   3.423   4.791  11.078  0.1072  0.8793  1.1291
  780MOL0     O 5223   3.408   4.763  11.206  0.1629 -0.3557  0.7835
  780MOL0     C 5224   3.311   4.668  11.250  0.2489  0.4060 -0.2234
  780MOL0     C 5225   3.167   4.714  11.217  0.1786 -0.3741  0.4672
  780MOL0     C 5226   3.067   4.647  11.311  0.2586  0.3552 -0.1708
  780MOL0     C 5227   3.094   4.491  11.321  0.7487  0.5760 -0.0868
  780MOL0     C 5228   3.004   4.429  11.412  0.5947  0.2571 -0.1453
  780MOL0     C 5229   2.918   4.383  11.481  0.4236 -0.8015  0.3398
  780MOL0     C 5230   3.494   4.900  11.041  0.3675  0.2509  1.3855
  780MOL0     C 5231   3.512   4.943  10.907  0.5682  0.8120  0.1181
  780MOL0     C 5232   3.583   5.075  10.899  0.6484 -0.9061  0.4681
  780MOL0     H 5233   3.446   4.589  10.420 -0.1355  0.2233 -0.5821
  780MOL0     H 5234   3.486   4.592  10.179  1.6911 -0.0452  1.8099
  780MOL0     H 5235   3.445   4.982   9.940  0.7988  1.6771 -0.4349
  780MOL0     H 5236   3.617   4.983   9.990 -1.5861  0.9545  1.4560
  780MOL0     H 5237   3.503   4.856   9.746 -0.8344  0.9978  1.1941
  780MOL0     H 5238   3.630   4.769   9.834  0.5162  0.1955 -2.8418
  780MOL0     H 5239   3.775   4.956   9.824  1.5121 -0.2128 -0.2875
  780MOL0     H 5240   3.647   5.065   9.758  1.5854  1.1400 -3.1499
  780MOL0     H 5241   3.754   4.829   9.608  0.5302 -0.0054 -0.6348
  780MOL0     H 5242   3.649   4.949   9.540 -0.2331  0.2523 -0.2292
  780MOL0     H 5243   3.831   5.037   9.461 -0.7385 -1.0250  0.5901
  780MOL0     H 5244   3.829   5.123   9.620 -0.2520  1.9836 -2.3993
  780MOL0     H 5245   3.976   4.991   9.720 -0.0054 -0.5406  0.9897
  780MOL0     H 5246   4.000   4.874   9.589  0.9581 -0.3471 -0.0918
  780MOL0     H 5247   4.183   5.049   9.632  0.2643 -0.9652 -0.7303
  780MOL0     H 5248   4.094   5.167   9.564 -1.9743 -0.6035  0.8845
  780MOL0     H 5249   4.136   4.899   9.407 -4.2953 -0.2360 -4.4426
  780MOL0     H 5250   4.070   5.051   9.343 -0.9637 -0.1657  0.5931
  780MOL0     H 5251   4.426   4.961   9.508 -4.2798  0.6678  1.0842
  780MOL0     H 5252   4.654   5.213   9.438 -1.0204  1.4937 -1.4279
  780MOL0     H 5253   4.682   5.035   9.429  1.4682  0.2566 -1.1979
  780MOL0     H 5254   4.697   5.037   9.185  2.4503 -0.4461 -1.5296
  780MOL0     H 5255   4.676   5.218   9.188 -0.3310  0.9213 -0.5662
  780MOL0     H 5256   4.916   5.080   9.316  2.5209  1.1698  0.7005
  780MOL0     H 5257   4.867   5.247   9.316  0.1772 -2.1485  2.4887
  780MOL0     H 5258   4.844   5.231   9.071  0.8726  2.0465  0.3987
  780MOL0     H 5259   4.912   5.057   9.070  1.6873 -0.7407  0.5977
  780MOL0     H 5260   4.947   5.173   8.863  0.1911 -0.9353  1.4060
  780MOL0     H 5261   5.075   5.128   8.661 -0.2632  1.2809 -1.3430
  780MOL0     H 5262   5.190   5.040   8.310  0.0728  1.0673  3.5257
  780MOL0     H 5263   5.285   4.974   8.087 -0.3555  1.0651 -0.4503
  780MOL0     H 5264   5.664   5.092   8.022 -4.9182 -0.4006 -0.7472
  780MOL0     H 5265   5.748   4.939   8.084  0.6368 -0.5201 -1.3169
  780MOL0     H 5266   5.669   4.847   7.860 -1.0090 -0.3125  0.4073
  780MOL0     H 5267   5.657   5.010   7.804  2.1364  0.6629 -0.6028
  780MOL0     H 5268   5.906   4.872   7.835  1.8509  1.3530  0.9050
  780MOL0     H 5269   5.857   5.014   7.738  2.4578 -0.1185  0.5272
  780MOL0     H 5270   5.932   5.012   8.031  0.1662 -2.3693 -1.3228
  780MOL0     H 5271   5.875   5.156   7.941 -1.8083 -1.5774  0.6578
  780MOL0     H 5272   6.088   5.134   7.803  2.0768  3.3214  1.2871
  780MOL0     H 5273   6.136   4.995   7.900  2.2387  0.6811  0.5334
  780MOL0     H 5274   6.098   5.270   8.017 -0.1743 -0.8328 -0.1946
  780MOL0     H 5275   6.125   5.126   8.117  0.2192  0.6651  0.5913
  780MOL0     H 5276   6.295   5.248   7.883 -1.3959 -1.5777 -1.4760
  780MOL0     H 5277   6.346   5.110   7.989 -1.7195  0.4318 -2.0011
  780MOL0     H 5278   6.292   5.405   8.042 -1.5470 -0.8568  0.7413
  780MOL0     H 5279   6.307   5.291   8.175  1.5036  0.7665  0.5988
  780MOL0     H 5280   5.672   4.999   8.271  0.4260  3.6457  1.8974
  780MOL0     H 5281   5.581   5.064   8.480 -1.8355 -1.9014  1.5319
  780MOL0     H 5282   5.425   5.282   8.867 -0.1801  0.9849  3.3410
  780MOL0     H 5283   5.295   5.257   9.086 -1.0064 -2.2484  1.1118
  780MOL0     H 5284   3.487   5.022  10.181 -1.1426 -0.3660  0.5501
  780MOL0     H 5285   3.424   5.018  10.404 -0.5952  1.0450 -1.2170
  780MOL0     H 5286   3.369   4.668  10.764  1.3252  0.2676 -0.4763
  780MOL0     H 5287   3.355   4.597  10.993 -0.6624 -0.6545 -2.0555
  780MOL0     H 5288   3.317   4.671  11.359  1.5965  3.1222 -0.2744
  780MOL0     H 5289   3.327   4.568  11.210  0.5641 -0.3678  1.7281
  780MOL0     H 5290   3.136   4.688  11.115  0.8790  0.0247  0.1403
  780MOL0     H 5291   3.167   4.824  11.218 -0.1359 -0.2834 -2.2693
  780MOL0     H 5292   2.964   4.659  11.274  0.0373  2.6640  1.0331
  780MOL0     H 5293   3.068   4.690  11.411 -2.0872 -2.2956  1.1382
  780MOL0     H 5294   3.093   4.444  11.222  1.0524 -1.6336  0.9128
  780MOL0     H 5295   3.197   4.470  11.353  0.6074 -2.0143 -1.1217
  780MOL0     H 5296   2.832   4.354  11.538 -0.8201  1.5259 -0.2438
  780MOL0     H 5297   3.532   4.972  11.113 -1.6327 -0.0039  2.7788
  780MOL0     H 5298   3.518   5.158  10.869  0.1691 -1.3590  0.2344
  780MOL0     H 5299   3.632   5.105  10.992 -2.2663  0.7578  1.6244
  780MOL0     H 5300   3.663   5.062  10.826  0.9442  1.7460  0.2143
  781MOL0     O 5301  11.152   2.351   0.272  0.6547  0.1708 -0.6229
  781MOL0     C 5302  11.075   2.378   0.185  0.1713  0.4075  0.1388
  781MOL0     O 5303  11.097   2.356   0.049  0.2706 -0.0933 -0.5190
  781MOL0     C 5304  11.228   2.340   0.006 -0.7631  0.0804 -0.4584
  781MOL0     C 5305  11.338   2.425   0.042  0.5238  0.7479  0.3186
  781MOL0     C 5306  11.466   2.393  -0.020  0.5865 -0.8613  0.5659
  781MOL0     C 5307  11.487   2.287  -0.106  0.3858  0.5184  0.0020
  781MOL0     O 5308  11.606   2.257  -0.165 -0.0304 -0.0914 -0.0514
  781MOL0     C 5309  11.721   2.324  -0.111 -0.2282  0.5626 -0.7248
  781MOL0     C 5310  11.854   2.270  -0.159  0.4799 -0.0413 -0.0333
  781MOL0     C 5311  11.966   2.352  -0.100 -0.0089  0.2586 -0.0809
  781MOL0     C 5312  12.000   2.479  -0.182 -1.0438 -0.7358  0.6683
  781MOL0     C 5313  12.137   2.534  -0.130  0.2467  1.4602 -0.5961
  781MOL0     C 5314  12.258   2.490  -0.215  0.1852  0.1729  0.1832
  781MOL0     C 5315  12.389   2.558  -0.162  0.2536  0.2562  0.2169
  781MOL0     C 5316  12.504   2.523  -0.255 -0.1365  0.1429  0.0871
  781MOL0     N 5317  12.498   2.597  -0.376 -1.3170 -0.7481 -0.2533
  781MOL0     C 5318  12.477   2.549  -0.500 -0.0359  0.3988 -0.7656
  781MOL0     C 5319  12.497   2.660  -0.581 -0.0278 -0.0499  0.2496
  781MOL0     C 5320  12.517   2.652  -0.725 -0.1349 -0.3984  0.5510
  781MOL0     C 5321  12.654   2.717  -0.764  0.0142 -0.8828  0.1509
  781MOL0     C 5322  12.705   2.670  -0.908  0.1541 -0.9906 -0.0404
  781MOL0     C 5323  12.624   2.718  -1.027 -0.9741 -0.1115 -0.0473
  781MOL0     O 5324  12.628   2.863  -1.030  0.3541 -0.0098 -0.5099
  781MOL0     C 5325  12.738   2.942  -1.063  0.2139  0.5981 -0.4378
  781MOL0     C 5326  12.868   2.882  -1.097  0.1986  0.1327  0.1719
  781MOL0     C 5327  12.973   2.980  -1.121  0.1492  0.5738 -0.4679
  781MOL0     C 5328  12.958   3.113  -1.107 -0.4845  0.0447  0.6820
  781MOL0     C 5329  13.073   3.202  -1.145 -0.3084 -0.1707  0.4023
  781MOL0     O 5330  13.050   3.336  -1.169 -1.1619  0.0688 -0.2503
  781MOL0     C 5331  13.160   3.412  -1.208 -0.7641  0.2914 -0.2426
  781MOL0     C 5332  13.235   3.385  -1.325 -0.5673 -0.0646 -0.0509
  781MOL0     C 5333  13.345   3.454  -1.358  0.4076  0.6601  0.5633
  781MOL0     C 5334  13.388   3.564  -1.280 -0.6513 -0.4748 -0.3731
  781MOL0     O 5335  13.477   3.658  -1.345 -0.2427  0.4592 -0.9496
  781MOL0     C 5336  13.476   3.792  -1.308 -0.1170  0.3857  0.7066
  781MOL0     C 5337  13.569   3.854  -1.411 -0.1227  0.0198  0.6717
  781MOL0     C 5338  13.711   3.808  -1.397 -0.4461  0.1499 -0.5700
  781MOL0     C 5339  13.816   3.924  -1.417 -0.1420  0.4302 -0.4056
  781MOL0     C 5340  13.955   3.905  -1.354 -0.0671  0.2469  0.1480
  781MOL0     C 5341  14.037   3.813  -1.444 -0.0508  0.0028 -0.2949
  781MOL0     C 5342  14.188   3.799  -1.397 -0.1751 -0.5199  0.0291
  781MOL0     C 5343  14.259   3.684  -1.471  0.5542  0.8640 -1.1563
  781MOL0    Cl 5344  14.419   3.657  -1.403 -0.0718  0.4540  0.3161
  781MOL0     C 5345  13.318   3.589  -1.165  0.7559 -1.1058 -0.3289
  781MOL0     C 5346  13.201   3.520  -1.123 -0.2005  0.1493  0.5522
  781MOL0     O 5347  13.185   3.145  -1.144  0.1286  0.4037  0.3643
  781MOL0     C 5348  12.837   3.161  -1.072  0.6191 -0.2784  0.9749
  781MOL0     C 5349  12.729   3.078  -1.050 -0.4209  0.4531 -0.5963
  781MOL0     N 5350  12.519   2.776  -0.501 -0.8373 -0.2635 -0.5290
  781MOL0     N 5351  12.517   2.734  -0.379  0.5232  0.0665 -0.0177
  781MOL0     C 5352  11.374   2.209  -0.138 -0.8671 -0.9066 -0.0380
  781MOL0     C 5353  11.255   2.247  -0.087 -0.7082 -0.1306  0.3357
  781MOL0     C 5354  10.937   2.414   0.222  0.7196 -0.1996 -0.4256
  781MOL0     C 5355  10.843   2.452   0.124  0.1190 -0.3767  0.0715
  781MOL0     C 5356  10.711   2.471   0.149  0.3326 -0.9663 -0.8133
  781MOL0     C 5357  10.662   2.481   0.276  0.4053  0.5542 -0.0863
  781MOL0     O 5358  10.531   2.508   0.287  0.1832  0.3265 -0.3002
  781MOL0     C 5359  10.476   2.561   0.408 -0.1253 -0.0440 -0.0093
  781MOL0     C 5360  10.330   2.613   0.385 -0.3921  0.3298  0.3470
  781MOL0     C 5361  10.268   2.621   0.529  0.0569  0.1652 -0.0182
  781MOL0     C 5362  10.118   2.595   0.537  0.1096  0.0753  0.0352
  781MOL0     C 5363  10.062   2.574   0.671  1.5622  1.2166 -0.1464
  781MOL0     C 5364  10.008   2.551   0.779  0.1824  0.0109  0.2453
  781MOL0     C 5365  10.748   2.439   0.381  0.4729 -0.2779  0.7780
  781MOL0     C 5366  10.887   2.413   0.358  0.2130 -0.1396  0.8860
  781MOL0     C 5367  10.960   2.358   0.475 -0.8055 -0.1339 -0.2520
  781MOL0     H 5368  11.327   2.515   0.102 -1.0857  1.4395 -0.9098
  781MOL0     H 5369  11.536   2.470   0.012 -0.8526  0.2759  1.0740
  781MOL0     H 5370  11.721   2.431  -0.132  1.3458  1.1209  1.6775
  781MOL0     H 5371  11.719   2.301  -0.004  1.9111  2.3295 -0.2345
  781MOL0     H 5372  11.858   2.273  -0.268  1.0256 -1.0053 -0.0494
  781MOL0     H 5373  11.850   2.171  -0.114  0.5592 -0.8726 -1.7680
  781MOL0     H 5374  12.056   2.289  -0.091  1.7288  2.5275 -0.6230
  781MOL0     H 5375  11.942   2.384   0.002  3.7158  0.6527  0.8353
  781MOL0     H 5376  12.014   2.451  -0.287  0.6586 -0.1386  0.6889
  781MOL0     H 5377  11.917   2.548  -0.166 -1.5844 -1.7848  2.6607
  781MOL0     H 5378  12.131   2.643  -0.119 -1.3061  1.5001 -1.5183
  781MOL0     H 5379  12.155   2.494  -0.030 -3.6632  0.5328 -0.0654
  781MOL0     H 5380  12.259   2.380  -0.219 -4.4003 -0.1199  1.6240
  781MOL0     H 5381  12.246   2.531  -0.316 -0.5251  1.8428  0.9190
  781MOL0     H 5382  12.417   2.541  -0.058  0.2208 -0.0060  0.1845
  781MOL0     H 5383  12.372   2.665  -0.177  0.1199  0.0311 -1.4633
  781MOL0     H 5384  12.602   2.548  -0.213  0.2660 -0.9129 -0.1971
  781MOL0     H 5385  12.495   2.418  -0.285 -2.4829  0.6757 -1.2519
  781MOL0     H 5386  12.463   2.444  -0.523 -0.2749  0.0960  0.6769
  781MOL0     H 5387  12.516   2.550  -0.764 -0.2754  0.1585 -0.9443
  781MOL0     H 5388  12.433   2.711  -0.764  1.6313  2.1262  0.3695
  781MOL0     H 5389  12.644   2.824  -0.745 -2.5320 -1.3810  1.9846
  781MOL0     H 5390  12.730   2.678  -0.696  0.8612  1.0194  0.3485
  781MOL0     H 5391  12.713   2.561  -0.910  4.3984 -0.8245 -0.0372
  781MOL0     H 5392  12.804   2.709  -0.932 -0.0574 -0.2625  0.2363
  781MOL0     H 5393  12.519   2.689  -1.024 -1.2317  0.8764  0.8943
  781MOL0     H 5394  12.664   2.676  -1.120 -1.4759  2.8995 -1.7394
  781MOL0     H 5395  12.886   2.777  -1.118 -1.0647 -0.2033  0.7288
  781MOL0     H 5396  13.067   2.932  -1.145  1.2078  0.8424  2.6604
  781MOL0     H 5397  13.193   3.305  -1.384 -1.0339 -2.4031  3.1926
  781MOL0     H 5398  13.394   3.418  -1.448  2.2358  1.1520  1.3095
  781MOL0     H 5399  13.374   3.830  -1.308 -0.2591  0.0179 -0.2439
  781MOL0     H 5400  13.524   3.814  -1.212 -1.0956  1.9302  0.8715
  781MOL0     H 5401  13.540   3.812  -1.508 -1.4693  0.7278  0.7435
  781MOL0     H 5402  13.560   3.962  -1.401 -0.2373  0.2418 -1.4427
  781MOL0     H 5403  13.725   3.777  -1.292  0.5626  1.1826 -0.3807
  781MOL0     H 5404  13.728   3.724  -1.466  0.4809  0.0143 -0.1987
  781MOL0     H 5405  13.780   4.005  -1.354 -0.8832 -1.3761  1.5999
  781MOL0     H 5406  13.832   3.954  -1.521  2.9394  0.3971 -0.0180
  781MOL0     H 5407  13.945   3.869  -1.252 -0.0470  1.2853  0.5291
  781MOL0     H 5408  14.010   4.000  -1.350 -2.8595  2.1405 -2.3169
  781MOL0     H 5409  14.005   3.709  -1.434  1.1618 -0.3592  0.0021
  781MOL0     H 5410  14.034   3.836  -1.551 -2.1036  0.2800 -0.2133
  781MOL0     H 5411  14.192   3.785  -1.289  1.4715  0.3873  0.1133
  781MOL0     H 5412  14.245   3.892  -1.407 -0.3585 -0.5929 -2.1689
  781MOL0     H 5413  14.209   3.589  -1.449 -1.2050  2.2372  1.3824
  781MOL0     H 5414  14.258   3.693  -1.580 -1.2716  0.6868 -1.1879
  781MOL0     H 5415  13.348   3.670  -1.099  2.5802 -3.1843  1.5601
  781MOL0     H 5416  13.137   3.541  -1.038 -3.3600 -0.9418 -1.3829
  781MOL0     H 5417  12.824   3.267  -1.055  1.2317 -0.3563  2.0486
  781MOL0     H 5418  12.635   3.126  -1.025  0.7072  2.8674 -0.6808
  781MOL0     H 5419  11.380   2.129  -0.211 -0.8783 -0.1095 -0.9302
  781MOL0     H 5420  11.174   2.186  -0.125 -2.4794  4.0037 -3.3591
  781MOL0     H 5421  10.868   2.453   0.018 -2.5859 -0.0221 -0.6386
  781MOL0     H 5422  10.638   2.485   0.069 -1.2107 -3.0858  0.1383
  781MOL0     H 5423  10.531   2.650   0.439 -2.7866  1.3850  0.9725
  781MOL0     H 5424  10.492   2.482   0.482  1.1682  0.4800  0.3017
  781MOL0     H 5425  10.281   2.549   0.312  0.0584  0.7004 -0.2820
  781MOL0     H 5426  10.344   2.719   0.361  1.3483  0.1300  0.3647
  781MOL0     H 5427  10.279   2.719   0.575  3.2428 -0.8954  1.7374
  781MOL0     H 5428  10.333   2.560   0.593  1.8407  2.0439  0.0427
  781MOL0     H 5429  10.063   2.677   0.488 -0.2563 -1.5318 -2.4574
  781MOL0     H 5430  10.098   2.504   0.480  0.1202  1.8698 -3.0655
  781MOL0     H 5431   9.959   2.552   0.875  1.8471 -1.4837  1.1764
  781MOL0     H 5432  10.697   2.437   0.476 -1.3118  1.7372 -0.0639
  781MOL0     H 5433  10.970   2.249   0.466 -1.3839 -0.6802  3.7797
  781MOL0     H 5434  11.058   2.406   0.479  0.2174 -2.0423 -0.8524
  781MOL0     H 5435  10.911   2.368   0.572  2.4242 -1.8338  1.7267
  782MOL0     O 5436   6.410   3.655   6.541 -0.2091  0.3170 -0.0164
  782MOL0     C 5437   6.439   3.541   6.564  0.5745  0.1707  0.7604
  782MOL0     O 5438   6.387   3.435   6.498  0.0436  0.4878 -0.7180
  782MOL0     C 5439   6.281   3.459   6.421  0.8012  0.0693  0.5570
  782MOL0     C 5440   6.161   3.474   6.479  0.3223  0.1372 -0.4586
  782MOL0     C 5441   6.048   3.480   6.394 -0.2894 -1.1258 -0.5259
  782MOL0     C 5442   6.069   3.479   6.252 -0.1635  0.2869  0.4555
  782MOL0     O 5443   5.972   3.503   6.164  1.0575  0.6051 -0.1070
  782MOL0     C 5444   5.849   3.554   6.221  0.5561  0.0265 -0.7228
  782MOL0     C 5445   5.743   3.565   6.111 -0.0016  0.6008 -0.1983
  782MOL0     C 5446   5.663   3.439   6.086 -0.1330  0.1210  0.5015
  782MOL0     C 5447   5.546   3.475   5.993  0.4052 -0.2509  0.5028
  782MOL0     C 5448   5.454   3.353   5.983  0.3473  0.0872 -0.1068
  782MOL0     C 5449   5.514   3.219   5.943  0.3009  0.8850 -0.0292
  782MOL0     C 5450   5.399   3.107   5.942 -0.7746 -0.5723 -0.2341
  782MOL0     C 5451   5.448   2.980   5.864 -0.4423 -0.5273 -0.4071
  782MOL0     N 5452   5.366   2.864   5.899 -0.4655 -0.5807 -0.0775
  782MOL0     C 5453   5.230   2.854   5.892 -0.3456 -0.2774 -0.2774
  782MOL0     C 5454   5.199   2.762   5.976  1.0527  0.0594 -0.1046
  782MOL0     C 5455   5.058   2.734   6.018 -0.3131 -0.5364 -0.0399
  782MOL0     C 5456   5.041   2.678   6.165  0.2270  0.7053  0.9323
  782MOL0     C 5457   5.071   2.528   6.178 -0.5370  0.4207 -0.1322
  782MOL0     C 5458   5.031   2.441   6.057  0.3897 -0.0310  0.3607
  782MOL0     O 5459   5.040   2.297   6.086  0.0534 -0.1365  0.3570
  782MOL0     C 5460   5.169   2.234   6.079  0.5935  0.0632 -1.0778
  782MOL0     C 5461   5.172   2.095   6.117 -0.3581  0.7409 -0.2130
  782MOL0     C 5462   5.286   2.014   6.116 -0.4765 -0.4655 -0.1663
  782MOL0     C 5463   5.404   2.082   6.074 -1.1238  0.1535 -0.5365
  782MOL0     C 5464   5.533   2.010   6.071 -0.2194  1.1093 -1.4635
  782MOL0     O 5465   5.531   1.872   6.116 -0.2051  0.0520  0.3388
  782MOL0     C 5466   5.629   1.780   6.077  0.2607 -0.4631 -0.7561
  782MOL0     C 5467   5.721   1.793   5.970  0.9735 -0.6806  0.0402
  782MOL0     C 5468   5.816   1.702   5.941 -0.3740 -1.0933 -0.4125
  782MOL0     C 5469   5.817   1.585   6.015 -0.4160 -0.3852  0.2048
  782MOL0     O 5470   5.887   1.472   5.980  0.0985 -0.6566 -0.3555
  782MOL0     C 5471   5.990   1.497   5.883  1.3415  0.8352 -0.7925
  782MOL0     C 5472   6.086   1.381   5.878 -0.5157  0.4600 -0.0186
  782MOL0     C 5473   6.036   1.259   5.795  0.6646  0.7803  0.8756
  782MOL0     C 5474   6.138   1.143   5.795  0.3674 -0.1986  0.0704
  782MOL0     C 5475   6.077   1.038   5.705  0.8221 -0.1419 -0.4229
  782MOL0     C 5476   6.168   0.923   5.667  0.8261  0.3976 -0.5604
  782MOL0     C 5477   6.231   0.928   5.529  0.3601  0.6014 -0.3362
  782MOL0     C 5478   6.252   0.782   5.476 -0.2407 -0.0016 -0.4737
  782MOL0    Cl 5479   6.397   0.713   5.568 -0.1976 -0.7004 -0.1652
  782MOL0     C 5480   5.734   1.571   6.124  0.3114 -0.3201  0.6795
  782MOL0     C 5481   5.639   1.666   6.154 -0.4903 -0.3900 -0.9843
  782MOL0     O 5482   5.637   2.070   6.044 -0.0485  0.2866 -0.2281
  782MOL0     C 5483   5.405   2.221   6.035 -0.2137  0.1318 -0.6071
  782MOL0     C 5484   5.287   2.293   6.031  0.0710  0.0028  0.4822
  782MOL0     N 5485   5.307   2.718   6.042  0.0050 -0.3680 -0.1147
  782MOL0     N 5486   5.407   2.779   5.997  0.0619  0.0773  0.6053
  782MOL0     C 5487   6.195   3.455   6.192 -0.1750 -0.1694 -0.2849
  782MOL0     C 5488   6.297   3.451   6.283  0.1641 -0.2158 -0.0922
  782MOL0     C 5489   6.523   3.521   6.687 -0.2161 -0.6067 -0.1695
  782MOL0     C 5490   6.536   3.390   6.733 -0.4556 -0.2220  0.1223
  782MOL0     C 5491   6.611   3.362   6.842  0.0164 -0.3577 -0.3907
  782MOL0     C 5492   6.665   3.458   6.922 -0.6015 -0.8768 -0.0157
  782MOL0     O 5493   6.713   3.413   7.041 -0.3018 -0.6733 -0.1029
  782MOL0     C 5494   6.724   3.511   7.142 -0.3840 -0.4317  0.8778
  782MOL0     C 5495   6.797   3.437   7.258  0.0043  1.1617  0.2274
  782MOL0     C 5496   6.944   3.404   7.251 -0.7236 -0.2114  0.3332
  782MOL0     C 5497   6.999   3.326   7.369  0.3392 -0.1387 -0.5561
  782MOL0     C 5498   7.008   3.408   7.489 -0.4919  0.4035  0.1946
  782MOL0     C 5499   7.008   3.482   7.583 -1.0355 -0.4834 -0.4429
  782MOL0     C 5500   6.659   3.595   6.880 -0.6587  0.5168  0.0602
  782MOL0     C 5501   6.591   3.624   6.765 -0.3020 -0.4134  0.9823
  782MOL0     C 5502   6.619   3.762   6.712 -0.0590 -0.4736  0.2226
  782MOL0     H 5503   6.141   3.476   6.586 -5.1188 -0.5534 -1.1530
  782MOL0     H 5504   5.952   3.499   6.439 -0.0126  0.2049 -0.4519
  782MOL0     H 5505   5.804   3.487   6.294 -1.5894 -0.0827 -2.0582
  782MOL0     H 5506   5.859   3.652   6.269  2.0787  0.2305 -1.4135
  782MOL0     H 5507   5.783   3.607   6.019  0.6929  0.1624 -0.1017
  782MOL0     H 5508   5.672   3.635   6.156 -1.8314 -1.3198  0.0458
  782MOL0     H 5509   5.620   3.393   6.175  0.2109 -1.2538 -0.0220
  782MOL0     H 5510   5.732   3.367   6.041  1.2896  0.1910  2.4303
  782MOL0     H 5511   5.500   3.561   6.042  0.6332 -0.4485  1.0657
  782MOL0     H 5512   5.577   3.508   5.893 -0.1576 -0.1766  0.3511
  782MOL0     H 5513   5.404   3.344   6.080 -1.1495  2.5277 -0.5961
  782MOL0     H 5514   5.382   3.380   5.906  1.4008  3.9923  0.1005
  782MOL0     H 5515   5.562   3.234   5.846  0.8320  1.6314  0.3418
  782MOL0     H 5516   5.587   3.187   6.018  0.6516 -3.5584 -1.9588
  782MOL0     H 5517   5.300   3.136   5.905 -0.8147 -1.2273 -0.6557
  782MOL0     H 5518   5.383   3.066   6.041 -0.1446 -0.2316  0.0213
  782MOL0     H 5519   5.433   2.987   5.756 -2.3409  0.1224 -0.1327
  782MOL0     H 5520   5.549   2.954   5.899 -0.7923 -0.7756  0.4354
  782MOL0     H 5521   5.163   2.925   5.844 -2.6117 -1.1506  1.4273
  782MOL0     H 5522   5.003   2.828   6.013 -0.6656 -0.7890 -3.6302
  782MOL0     H 5523   5.022   2.663   5.943  1.9492  0.0107 -1.7522
  782MOL0     H 5524   5.111   2.725   6.234 -2.2299  0.9798  3.4211
  782MOL0     H 5525   4.935   2.693   6.189 -0.2150  0.7005 -0.8620
  782MOL0     H 5526   5.022   2.486   6.266  1.4755  0.9985  1.3435
  782MOL0     H 5527   5.177   2.507   6.198 -1.1945 -4.6010 -0.5402
  782MOL0     H 5528   5.096   2.470   5.974  1.1787 -1.7903  0.3213
  782MOL0     H 5529   4.934   2.466   6.014  0.6898  0.1166 -0.2426
  782MOL0     H 5530   5.073   2.068   6.152 -0.8048  0.9611 -1.2782
  782MOL0     H 5531   5.282   1.909   6.145  0.7207 -0.3787  0.3897
  782MOL0     H 5532   5.709   1.882   5.910  2.2145 -0.0371  0.7067
  782MOL0     H 5533   5.883   1.719   5.857  1.9824  1.2290  1.7693
  782MOL0     H 5534   5.940   1.506   5.786  1.4266  0.2698 -0.8959
  782MOL0     H 5535   6.044   1.587   5.915 -1.8852  1.9514  2.0404
  782MOL0     H 5536   6.177   1.404   5.823 -0.9154 -3.5154 -2.8175
  782MOL0     H 5537   6.117   1.341   5.975 -3.4875 -0.1962  0.7724
  782MOL0     H 5538   5.944   1.215   5.836  0.9117 -1.3376 -0.7042
  782MOL0     H 5539   6.003   1.286   5.695  1.5752 -2.2400 -0.3518
  782MOL0     H 5540   6.143   1.113   5.900  0.5996  0.6473  0.3129
  782MOL0     H 5541   6.237   1.180   5.765  0.0475  1.4038  0.8832
  782MOL0     H 5542   6.044   1.076   5.608 -0.0408 -1.5985 -0.7305
  782MOL0     H 5543   5.992   0.995   5.758  0.6198 -0.9697 -1.3770
  782MOL0     H 5544   6.248   0.910   5.742  0.6405 -0.5589 -0.5111
  782MOL0     H 5545   6.102   0.838   5.684 -0.2755  1.5895  1.4489
  782MOL0     H 5546   6.330   0.974   5.535  0.7106 -0.0797 -0.7350
  782MOL0     H 5547   6.167   0.983   5.460  0.5040 -1.5178 -2.2786
  782MOL0     H 5548   6.162   0.723   5.496  0.8483 -1.8217 -0.6803
  782MOL0     H 5549   6.267   0.776   5.368 -0.6468 -0.3702 -0.5159
  782MOL0     H 5550   5.751   1.492   6.197 -0.8906  0.7194  2.1638
  782MOL0     H 5551   5.571   1.655   6.238  2.9375  0.5573  2.1475
  782MOL0     H 5552   5.495   2.278   6.014 -0.9593  1.0440 -1.4128
  782MOL0     H 5553   5.289   2.395   5.995  1.7334  1.3379  3.9147
  782MOL0     H 5554   6.211   3.440   6.085 -0.8141 -2.1617 -0.1396
  782MOL0     H 5555   6.394   3.426   6.244 -0.6250 -1.7903 -1.1501
  782MOL0     H 5556   6.486   3.312   6.676  1.8437 -2.7578  1.3402
  782MOL0     H 5557   6.617   3.257   6.867 -0.4422 -0.9833 -2.7151
  782MOL0     H 5558   6.634   3.563   7.175 -0.3390 -0.5689  1.2279
  782MOL0     H 5559   6.800   3.577   7.100 -2.4397  0.1940 -2.1619
  782MOL0     H 5560   6.733   3.355   7.293 -0.3386  1.5339  0.4835
  782MOL0     H 5561   6.791   3.516   7.334  1.1792  1.6436 -0.1677
  782MOL0     H 5562   6.997   3.499   7.237  1.6746 -1.0739  2.8701
  782MOL0     H 5563   6.948   3.335   7.166  0.4902 -1.3257  1.2646
  782MOL0     H 5564   6.957   3.229   7.397  0.1401  0.3395  0.8881
  782MOL0     H 5565   7.103   3.306   7.342  1.2530  0.8665  1.9297
  782MOL0     H 5566   7.020   3.540   7.672  2.4765 -2.4840  0.5504
  782MOL0     H 5567   6.716   3.675   6.926 -0.8676  1.8548 -1.8719
  782MOL0     H 5568   6.632   3.767   6.604  1.9578 -0.5392  0.4105
  782MOL0     H 5569   6.533   3.819   6.747 -0.5846 -1.5985  0.8335
  782MOL0     H 5570   6.703   3.803   6.769 -1.0565 -0.4470  1.7487
  783MOL0     O 5571   4.972   0.202   2.591 -0.0669  1.1196 -0.3701
  783MOL0     C 5572   4.964   0.295   2.517  0.1560 -0.7497 -1.6512
  783MOL0     O 5573   5.055   0.320   2.416 -0.0556  0.5638  0.2397
  783MOL0     C 5574   5.174   0.260   2.407  0.7193  0.9867 -0.6135
  783MOL0     C 5575   5.215   0.231   2.279 -0.0313  0.6773  0.3226
  783MOL0     C 5576   5.343   0.171   2.268 -0.6124  0.7455 -0.3919
  783MOL0     C 5577   5.437   0.167   2.372 -0.1341 -0.3863 -0.0930
  783MOL0     O 5578   5.560   0.109   2.353  0.7438  0.1788 -0.7479
  783MOL0     C 5579   5.579   0.023   2.236  0.1039 -0.7699  0.1514
  783MOL0     C 5580   5.683  -0.079   2.269  0.3315  0.5464 -0.0906
  783MOL0     C 5581   5.624  -0.183   2.366  0.3440 -0.7064 -0.2363
  783MOL0     C 5582   5.714  -0.308   2.392  0.5229  0.3692  0.5591
  783MOL0     C 5583   5.648  -0.409   2.488  0.2903  0.8291 -0.4909
  783MOL0     C 5584   5.509  -0.458   2.441 -0.3734 -0.1161 -1.0880
  783MOL0     C 5585   5.442  -0.553   2.528  0.0169 -1.1069 -0.5704
  783MOL0     C 5586   5.412  -0.503   2.678 -0.4483  0.0149  0.0055
  783MOL0     N 5587   5.332  -0.595   2.767  0.1993 -0.3097 -0.9371
  783MOL0     C 5588   5.334  -0.732   2.748 -0.5430 -0.6712  0.4678
  783MOL0     C 5589   5.300  -0.779   2.869 -0.2889 -0.1347  0.5927
  783MOL0     C 5590   5.281  -0.926   2.897 -0.9024 -1.0042 -0.4208
  783MOL0     C 5591   5.129  -0.948   2.945  0.2063  0.5411  0.9079
  783MOL0     C 5592   5.069  -0.849   3.050 -0.3128 -0.3943 -0.1121
  783MOL0     C 5593   4.917  -0.860   3.059 -0.2167  0.3742 -0.1162
  783MOL0     O 5594   4.866  -0.803   3.183  0.6101 -0.2793 -0.3248
  783MOL0     C 5595   4.725  -0.785   3.198 -0.6872  0.3375  0.4786
  783MOL0     C 5596   4.635  -0.821   3.093 -0.3384  0.7586 -0.8969
  783MOL0     C 5597   4.496  -0.792   3.118  0.3709  0.0817  0.2321
  783MOL0     C 5598   4.455  -0.719   3.234 -0.2858 -0.5813  1.0827
  783MOL0     C 5599   4.311  -0.705   3.248 -0.5290  0.5342 -0.0874
  783MOL0     O 5600   4.271  -0.601   3.329  0.4337  0.5482 -0.1520
  783MOL0     C 5601   4.142  -0.585   3.362 -0.6491 -0.3512  0.5466
  783MOL0     C 5602   4.059  -0.541   3.259  0.7296 -0.5687 -0.0121
  783MOL0     C 5603   3.920  -0.522   3.287 -0.3897 -0.4645 -0.4414
  783MOL0     C 5604   3.870  -0.556   3.410 -0.1916  0.2113 -1.5714
  783MOL0     O 5605   3.739  -0.564   3.445 -0.3438  0.0392  0.2665
  783MOL0     C 5606   3.648  -0.578   3.332 -0.5257  0.2146  0.1081
  783MOL0     C 5607   3.570  -0.450   3.296 -0.4488 -0.6644  0.3938
  783MOL0     C 5608   3.463  -0.476   3.181 -0.6281  0.1956  0.4578
  783MOL0     C 5609   3.397  -0.349   3.140 -0.1390 -0.1837 -0.7533
  783MOL0     C 5610   3.280  -0.386   3.055  0.2284  0.9967 -0.1711
  783MOL0     C 5611   3.182  -0.275   3.021 -0.3123 -0.0129  0.2957
  783MOL0     C 5612   3.067  -0.308   2.921 -0.7194  0.2212 -0.5440
  783MOL0     C 5613   2.950  -0.216   2.945 -0.4686 -0.1284 -0.4938
  783MOL0    Cl 5614   2.962  -0.048   2.900 -0.6476  0.3222  0.1099
  783MOL0     C 5615   3.957  -0.598   3.515 -0.0355  0.2415 -0.7921
  783MOL0     C 5616   4.093  -0.608   3.490 -0.2868 -0.5282  0.6560
  783MOL0     O 5617   4.237  -0.781   3.193 -0.5176 -0.3835  0.1883
  783MOL0     C 5618   4.551  -0.687   3.326  0.4212 -0.5460 -0.0189
  783MOL0     C 5619   4.687  -0.720   3.311 -0.2344 -0.4349 -0.0344
  783MOL0     N 5620   5.294  -0.679   2.963  1.1790 -0.0926  0.6629
  783MOL0     N 5621   5.315  -0.568   2.894  0.1221 -0.1939  0.1207
  783MOL0     C 5622   5.398   0.206   2.504  0.3445 -0.3592 -0.1555
  783MOL0     C 5623   5.263   0.252   2.518 -0.5232  0.0990 -1.0468
  783MOL0     C 5624   4.844   0.382   2.529 -0.1478  0.2976  0.4118
  783MOL0     C 5625   4.830   0.478   2.427  0.8173  0.0321 -0.5038
  783MOL0     C 5626   4.724   0.562   2.417  0.2896 -0.6398  0.0742
  783MOL0     C 5627   4.624   0.555   2.515 -0.8341 -1.0391 -0.3172
  783MOL0     O 5628   4.523   0.648   2.525  0.8242 -0.1978 -0.5330
  783MOL0     C 5629   4.533   0.768   2.449 -0.4009  0.0175  0.1096
  783MOL0     C 5630   4.434   0.767   2.328  0.1182 -0.1909 -0.1287
  783MOL0     C 5631   4.291   0.744   2.377  0.7686  0.3284 -1.0210
  783MOL0     C 5632   4.211   0.878   2.375  0.8901  0.1061  0.5042
  783MOL0     C 5633   4.114   0.882   2.262 -0.6748  0.3072  0.0759
  783MOL0     C 5634   4.050   0.888   2.157 -0.4699 -0.1329 -0.0563
  783MOL0     C 5635   4.630   0.462   2.610 -0.4731 -0.0041 -0.9305
  783MOL0     C 5636   4.736   0.365   2.616  0.6329  0.3234 -0.3618
  783MOL0     C 5637   4.727   0.261   2.725 -0.4755 -0.4742  0.1513
  783MOL0     H 5638   5.143   0.246   2.200  0.5478  3.8576  0.2631
  783MOL0     H 5639   5.366   0.148   2.165  1.2445  0.4424  0.0403
  783MOL0     H 5640   5.492  -0.036   2.207 -0.4223  0.1318 -0.1463
  783MOL0     H 5641   5.602   0.084   2.149  2.9805 -0.9501  0.6905
  783MOL0     H 5642   5.764  -0.029   2.322 -1.1417  2.4437  0.5090
  783MOL0     H 5643   5.724  -0.124   2.178  0.9158  0.5651  0.1600
  783MOL0     H 5644   5.536  -0.223   2.315 -0.1169 -0.2400  0.1891
  783MOL0     H 5645   5.587  -0.143   2.461 -0.5498 -1.1656 -0.3788
  783MOL0     H 5646   5.721  -0.345   2.290 -0.5857  0.4502  0.4457
  783MOL0     H 5647   5.811  -0.281   2.435  0.4042 -0.5579  1.4465
  783MOL0     H 5648   5.708  -0.500   2.504 -0.2360  0.6061  0.2767
  783MOL0     H 5649   5.637  -0.350   2.579  0.2850  2.9099 -1.7715
  783MOL0     H 5650   5.439  -0.375   2.424 -2.2858 -1.9120 -2.4692
  783MOL0     H 5651   5.524  -0.498   2.340 -0.8236  0.6542 -1.4719
  783MOL0     H 5652   5.491  -0.649   2.543  0.4371 -0.8622 -0.3763
  783MOL0     H 5653   5.348  -0.577   2.477 -0.8921 -0.2183  0.6293
  783MOL0     H 5654   5.512  -0.498   2.723 -0.3688  0.5899 -0.2136
  783MOL0     H 5655   5.381  -0.398   2.678  0.4964  0.3128  0.1305
  783MOL0     H 5656   5.362  -0.786   2.658  2.4261  0.8545  0.3455
  783MOL0     H 5657   5.312  -0.990   2.814 -2.1556 -0.3520 -1.4190
  783MOL0     H 5658   5.354  -0.943   2.977  0.2821  1.6991 -0.8027
  783MOL0     H 5659   5.070  -0.935   2.854 -1.7673 -2.5376  1.6043
  783MOL0     H 5660   5.118  -1.055   2.967 -1.6472  0.4141 -0.4352
  783MOL0     H 5661   5.080  -0.748   3.008  3.0178 -2.5066 -5.2792
  783MOL0     H 5662   5.101  -0.862   3.154  1.4672  3.3186 -0.0333
  783MOL0     H 5663   4.876  -0.960   3.044  1.3318  0.1923 -4.8232
  783MOL0     H 5664   4.880  -0.813   2.967  2.4409  0.4350 -1.2439
  783MOL0     H 5665   4.668  -0.880   3.008  0.4985  0.6202 -0.4782
  783MOL0     H 5666   4.424  -0.828   3.046  1.3917 -0.6805 -0.4296
  783MOL0     H 5667   4.098  -0.524   3.160  2.3259  1.4353  0.8788
  783MOL0     H 5668   3.853  -0.490   3.208 -2.1152 -1.5350  0.5389
  783MOL0     H 5669   3.701  -0.603   3.240  0.9906 -0.4591  1.1187
  783MOL0     H 5670   3.584  -0.664   3.355  0.5520 -0.6094  0.0603
  783MOL0     H 5671   3.524  -0.395   3.378  1.5094  1.5358  0.1307
  783MOL0     H 5672   3.653  -0.387   3.262 -1.1283 -0.9851 -2.1033
  783MOL0     H 5673   3.505  -0.538   3.102  1.8768 -2.6008  3.6973
  783MOL0     H 5674   3.388  -0.544   3.222  0.6382 -0.8814  1.0286
  783MOL0     H 5675   3.458  -0.281   3.079 -1.0561  0.6073 -0.8100
  783MOL0     H 5676   3.365  -0.297   3.230  5.2507  2.0871  0.2752
  783MOL0     H 5677   3.218  -0.461   3.105  0.2385  0.6077 -0.7340
  783MOL0     H 5678   3.327  -0.419   2.962 -0.7831  1.8175 -0.9956
  783MOL0     H 5679   3.133  -0.227   3.106 -2.0628  0.4725 -0.9258
  783MOL0     H 5680   3.235  -0.196   2.966  0.2303  1.0238  2.1878
  783MOL0     H 5681   3.025  -0.407   2.940 -4.3961  1.6550 -0.3600
  783MOL0     H 5682   3.108  -0.298   2.820 -4.5160  1.6225 -2.1446
  783MOL0     H 5683   2.867  -0.250   2.883 -1.7582  1.0737  0.5142
  783MOL0     H 5684   2.931  -0.214   3.053 -1.7150 -1.4713 -0.6539
  783MOL0     H 5685   3.932  -0.622   3.618  0.3004  2.5004 -0.1437
  783MOL0     H 5686   4.162  -0.631   3.570 -1.2491  3.9002  3.0464
  783MOL0     H 5687   4.513  -0.659   3.423 -0.8123  0.2187 -0.6958
  783MOL0     H 5688   4.765  -0.724   3.386 -1.4595 -0.0445  1.3100
  783MOL0     H 5689   5.474   0.216   2.581  4.0688  3.5747 -3.8134
  783MOL0     H 5690   5.226   0.269   2.619  2.0603 -0.1957  0.0377
  783MOL0     H 5691   4.888   0.476   2.335 -0.0784  0.7502 -1.0996
  783MOL0     H 5692   4.726   0.620   2.325 -1.6262 -0.2745  0.2188
  783MOL0     H 5693   4.634   0.785   2.411 -0.6388  1.3618  0.0299
  783MOL0     H 5694   4.518   0.854   2.515 -0.9438  0.2076 -0.2511
  783MOL0     H 5695   4.472   0.687   2.263  2.4362  0.1717  0.6715
  783MOL0     H 5696   4.431   0.851   2.257 -1.2884 -0.9114 -0.9676
  783MOL0     H 5697   4.285   0.705   2.479  3.8511  0.8000 -0.5457
  783MOL0     H 5698   4.235   0.672   2.317  0.2071  1.6260 -2.1015
  783MOL0     H 5699   4.145   0.883   2.462  0.1567  0.6403 -0.0723
  783MOL0     H 5700   4.273   0.967   2.373 -0.2928  0.9701  0.8315
  783MOL0     H 5701   3.979   0.901   2.078 -0.5982 -0.0796  0.0675
  783MOL0     H 5702   4.551   0.454   2.684 -0.3011 -1.1274 -0.8510
  783MOL0     H 5703   4.787   0.301   2.808  0.2458 -3.9290  1.4700
  783MOL0     H 5704   4.624   0.239   2.753 -0.5372 -0.7771 -0.2999
  783MOL0     H 5705   4.759   0.159   2.701  3.6382  0.6316  0.2305
  784MOL0     O 5706  10.452  10.617   0.476 -0.2840  0.1618 -0.0896
  784MOL0     C 5707  10.399  10.708   0.540  0.5312  0.0830  0.6105
  784MOL0     O 5708  10.462  10.826   0.563  0.2307 -0.2865  0.4968
  784MOL0     C 5709  10.590  10.844   0.517 -0.5606 -0.5456  0.1204
  784MOL0     C 5710  10.707  10.796   0.583 -0.0883 -0.6779  0.4073
  784MOL0     C 5711  10.834  10.814   0.531  0.5149 -0.5656  0.9403
  784MOL0     C 5712  10.851  10.869   0.405  0.2686 -0.5254  1.0107
  784MOL0     O 5713  10.978  10.884   0.353 -0.5983  0.9702 -0.1638
  784MOL0     C 5714  10.990  10.880   0.207  0.8984  0.8674 -0.1326
  784MOL0     C 5715  10.982  10.738   0.152  0.2841 -0.0967  0.4988
  784MOL0     C 5716  11.112  10.671   0.204 -0.2512 -0.4717  0.5875
  784MOL0     C 5717  11.224  10.706   0.108 -0.7240 -0.3594 -0.1475
  784MOL0     C 5718  11.353  10.618   0.143  0.3743  0.5530 -0.7438
  784MOL0     C 5719  11.456  10.682   0.247 -0.2572  0.7197  0.5726
  784MOL0     C 5720  11.579  10.596   0.282  0.6328 -0.2422 -0.2685
  784MOL0     C 5721  11.683  10.560   0.171  0.4273 -0.3407 -0.1270
  784MOL0     N 5722  11.703  10.682   0.090  0.9132 -0.2129 -0.6041
  784MOL0     C 5723  11.817  10.759   0.112 -0.6022 -0.4551  0.4492
  784MOL0     C 5724  11.809  10.857   0.017 -0.5034 -0.7349 -0.2382
  784MOL0     C 5725  11.891  10.992   0.003 -0.3723  0.5211 -0.7379
  784MOL0     C 5726  12.047  10.977   0.004 -0.6906  0.0191 -0.0946
  784MOL0     C 5727  12.119  10.948   0.137  0.1562 -0.1821  0.0101
  784MOL0     C 5728  12.094  11.066   0.239  0.1992  0.1760  0.3264
  784MOL0     O 5729  12.105  11.195   0.181 -1.0155 -0.5154  0.3114
  784MOL0     C 5730  12.235  11.235   0.157  0.4129  0.4203  0.5798
  784MOL0     C 5731  12.246  11.364   0.099 -0.2552 -0.2249 -0.4473
  784MOL0     C 5732  12.367  11.417   0.067  0.3439 -0.8410 -0.5166
  784MOL0     C 5733  12.488  11.353   0.103  0.1020  0.6551  0.1197
  784MOL0     C 5734  12.619  11.409   0.071  0.0834 -1.0022  0.2610
  784MOL0     O 5735  12.731  11.338   0.095  0.2245 -0.8876 -0.1401
  784MOL0     C 5736  12.852  11.391   0.067  0.6346  0.2408  0.0214
  784MOL0     C 5737  12.907  11.521   0.092  0.0085  0.4587  0.0026
  784MOL0     C 5738  13.040  11.543   0.068 -1.1378  0.5363  0.6580
  784MOL0     C 5739  13.122  11.448   0.013 -0.0987  0.9134  0.2909
  784MOL0     O 5740  13.256  11.476  -0.004  0.0575 -0.1662  0.2765
  784MOL0     C 5741  13.337  11.369  -0.044  0.0755  0.0314  0.1144
  784MOL0     C 5742  13.483  11.429  -0.037  0.2705  1.0820  0.1584
  784MOL0     C 5743  13.555  11.404   0.097 -0.3161  0.7052 -0.2801
  784MOL0     C 5744  13.515  11.506   0.202 -0.4187  0.9561 -0.7666
  784MOL0     C 5745  13.572  11.444   0.338 -0.6627 -0.3111  1.1540
  784MOL0     C 5746  13.546  11.525   0.464  0.0758  0.6249 -0.4345
  784MOL0     C 5747  13.574  11.682   0.451  0.5754  0.1406  0.2836
  784MOL0     C 5748  13.720  11.720   0.410  0.4834  0.0433  1.4517
  784MOL0    Cl 5749  13.726  11.897   0.385  0.0770 -0.4585  0.1655
  784MOL0     C 5750  13.071  11.317  -0.015 -0.8529  0.6857 -0.9319
  784MOL0     C 5751  12.935  11.284   0.017  0.1263  0.1340  0.5284
  784MOL0     O 5752  12.613  11.512   0.001 -0.6722 -0.5435 -0.4602
  784MOL0     C 5753  12.481  11.224   0.153 -0.3406  0.2174 -0.3640
  784MOL0     C 5754  12.356  11.159   0.173  0.2452 -0.4447 -0.2136
  784MOL0     N 5755  11.692  10.832  -0.056 -0.3586 -0.7417  0.7568
  784MOL0     N 5756  11.639  10.717  -0.024 -0.2711 -0.3206 -0.2456
  784MOL0     C 5757  10.735  10.925   0.342 -0.7697  0.5161  0.0206
  784MOL0     C 5758  10.611  10.915   0.398 -0.4650  0.2677  0.6731
  784MOL0     C 5759  10.261  10.686   0.597  0.6042 -0.7694 -0.8984
  784MOL0     C 5760  10.210  10.790   0.673 -0.1344  0.2116  0.2344
  784MOL0     C 5761  10.078  10.788   0.710  0.0443 -0.3261 -0.7653
  784MOL0     C 5762   9.992  10.680   0.678  0.0029  0.3214 -0.0569
  784MOL0     O 5763   9.872  10.700   0.732  0.5726  0.9698 -0.4828
  784MOL0     C 5764   9.785  10.589   0.734  0.4989 -0.0314  0.6079
  784MOL0     C 5765   9.829  10.468   0.830 -0.0468 -0.8180  0.5068
  784MOL0     C 5766   9.743  10.348   0.767  0.0375  0.5414 -0.0941
  784MOL0     C 5767   9.591  10.360   0.765 -0.6002 -0.1137 -0.1554
  784MOL0     C 5768   9.551  10.370   0.905  0.7950 -0.3904 -0.9361
  784MOL0     C 5769   9.501  10.374   1.022  0.8729  0.7912  0.1804
  784MOL0     C 5770  10.041  10.568   0.610 -0.0067 -0.4059  0.7868
  784MOL0     C 5771  10.177  10.567   0.571 -1.0623  0.2816  0.4595
  784MOL0     C 5772  10.224  10.447   0.499  0.7642 -0.2718 -0.0070
  784MOL0     H 5773  10.688  10.743   0.676 -0.1981 -3.1882 -0.9617
  784MOL0     H 5774  10.922  10.764   0.572  1.3701  1.0275  1.1344
  784MOL0     H 5775  10.914  10.942   0.158 -1.3266 -0.3796  1.5437
  784MOL0     H 5776  11.077  10.937   0.173  1.2832 -0.4930 -1.5451
  784MOL0     H 5777  10.973  10.748   0.043 -0.6427 -0.4000  0.5414
  784MOL0     H 5778  10.891  10.690   0.188  1.0990 -1.6455  0.5945
  784MOL0     H 5779  11.087  10.565   0.203  0.9638 -0.7697 -0.2364
  784MOL0     H 5780  11.134  10.701   0.307  1.1291 -0.1854  0.2346
  784MOL0     H 5781  11.202  10.682   0.003 -1.8896 -2.9514  0.6296
  784MOL0     H 5782  11.254  10.811   0.093 -0.6082 -0.4944 -0.9461
  784MOL0     H 5783  11.314  10.523   0.179  0.4260  0.8592  0.1389
  784MOL0     H 5784  11.404  10.596   0.048 -1.7372  1.2351 -2.0929
  784MOL0     H 5785  11.487  10.781   0.212  1.8359 -0.7644 -2.1415
  784MOL0     H 5786  11.396  10.709   0.334  1.1704  1.4729  1.3490
  784MOL0     H 5787  11.545  10.507   0.336  1.9823 -2.0183 -2.1905
  784MOL0     H 5788  11.631  10.663   0.350 -3.6597 -0.5566  3.8869
  784MOL0     H 5789  11.775  10.518   0.213  0.0144  0.9983  2.3116
  784MOL0     H 5790  11.631  10.488   0.108 -1.8307 -1.7026  3.0302
  784MOL0     H 5791  11.890  10.745   0.191 -1.3270 -2.2226  0.8567
  784MOL0     H 5792  11.875  11.044  -0.092  2.1507  1.8236 -0.5461
  784MOL0     H 5793  11.863  11.072   0.072  1.1900  1.2759 -0.9414
  784MOL0     H 5794  12.076  10.899  -0.067  0.0959  0.9724 -0.8425
  784MOL0     H 5795  12.088  11.071  -0.033 -1.1980  1.4863  2.7866
  784MOL0     H 5796  12.226  10.949   0.116 -0.5188  0.2598 -4.2461
  784MOL0     H 5797  12.091  10.847   0.167  1.9212 -0.7535 -0.1935
  784MOL0     H 5798  12.168  11.055   0.318  0.5029  1.8703  0.3275
  784MOL0     H 5799  11.994  11.056   0.283  0.0685  1.8693  0.4776
  784MOL0     H 5800  12.154  11.418   0.076  1.2709  2.1416 -1.3876
  784MOL0     H 5801  12.371  11.511   0.012  3.9621 -1.8233 -2.2534
  784MOL0     H 5802  12.856  11.615   0.114 -1.3628 -0.6181  1.6932
  784MOL0     H 5803  13.083  11.639   0.095  0.1497  0.2699 -0.3298
  784MOL0     H 5804  13.334  11.289   0.030 -0.2691  0.0727  0.1484
  784MOL0     H 5805  13.317  11.322  -0.140 -2.5519 -0.8114  0.9861
  784MOL0     H 5806  13.549  11.367  -0.099 -0.5741 -2.1453  2.1948
  784MOL0     H 5807  13.487  11.532  -0.072  0.8588  0.4417 -1.8411
  784MOL0     H 5808  13.542  11.300   0.128 -1.7372  1.3245  1.3030
  784MOL0     H 5809  13.662  11.425   0.083  0.1604  1.1915  3.2329
  784MOL0     H 5810  13.407  11.526   0.205 -0.3051  2.2541 -3.1871
  784MOL0     H 5811  13.558  11.604   0.175 -2.7994  1.4298 -3.2661
  784MOL0     H 5812  13.681  11.433   0.331 -0.8570 -1.1386 -2.0931
  784MOL0     H 5813  13.528  11.344   0.347  0.1647 -0.6722  1.2525
  784MOL0     H 5814  13.440  11.503   0.479 -0.1326  0.0757 -2.4599
  784MOL0     H 5815  13.596  11.486   0.553 -2.1144 -0.5121  0.3628
  784MOL0     H 5816  13.555  11.730   0.547  1.3136  0.6686  0.1745
  784MOL0     H 5817  13.505  11.734   0.383  0.5057  1.4378  1.3095
  784MOL0     H 5818  13.796  11.679   0.477 -0.2503  2.2432  3.7732
  784MOL0     H 5819  13.736  11.682   0.309 -2.0763  3.5347 -0.4849
  784MOL0     H 5820  13.134  11.233  -0.045 -2.5462 -1.2684  0.6567
  784MOL0     H 5821  12.882  11.191  -0.005  0.4935 -0.3382  1.5638
  784MOL0     H 5822  12.571  11.165   0.168 -1.8495 -2.2919 -0.5541
  784MOL0     H 5823  12.358  11.061   0.219 -0.2997  0.7790  2.6999
  784MOL0     H 5824  10.739  10.979   0.247  2.8387 -1.2385 -1.0027
  784MOL0     H 5825  10.522  10.949   0.346  0.4305 -0.1307 -1.2096
  784MOL0     H 5826  10.266  10.881   0.692  0.3226 -0.0125 -0.0380
  784MOL0     H 5827  10.045  10.879   0.758  3.9933  0.8794  0.0119
  784MOL0     H 5828   9.787  10.551   0.632 -0.2043 -1.0108  0.9463
  784MOL0     H 5829   9.682  10.618   0.756 -0.0429 -2.0071  0.8665
  784MOL0     H 5830   9.812  10.503   0.932  0.2013 -1.4146  0.7603
  784MOL0     H 5831   9.934  10.439   0.827 -0.4629 -2.4185 -1.3852
  784MOL0     H 5832   9.779  10.251   0.803  1.8361  1.5961  1.1191
  784MOL0     H 5833   9.777  10.340   0.663  2.7922 -1.2819  0.8254
  784MOL0     H 5834   9.556  10.444   0.705  2.7726  0.4299 -1.6388
  784MOL0     H 5835   9.548  10.270   0.722 -1.6111  1.3741 -2.4365
  784MOL0     H 5836   9.432  10.387   1.103 -1.9979  2.0038 -2.2550
  784MOL0     H 5837   9.972  10.487   0.590 -0.0017  0.1157 -1.5788
  784MOL0     H 5838  10.314  10.401   0.541 -1.0041 -4.5849 -0.4733
  784MOL0     H 5839  10.148  10.370   0.515  0.0962  0.9831  3.9038
  784MOL0     H 5840  10.240  10.482   0.396 -0.7946 -0.1782 -0.2368
  785MOL0     O 5841   9.161   0.786   0.976  0.1021  0.3531 -0.0496
  785MOL0     C 5842   9.108   0.863   0.890 -0.2726  0.4779 -0.2264
  785MOL0     O 5843   9.179   0.907   0.781 -0.0322  0.0075 -0.1528
  785MOL0     C 5844   9.306   0.865   0.736  0.8114  0.5729  0.5366
  785MOL0     C 5845   9.412   0.827   0.819 -0.8374 -0.5726 -0.0857
  785MOL0     C 5846   9.546   0.810   0.765  0.3898 -1.1215 -0.2477
  785MOL0     C 5847   9.576   0.822   0.631 -0.1026  0.4947 -0.1453
  785MOL0     O 5848   9.709   0.801   0.601 -0.3706  0.5054  0.3196
  785MOL0     C 5849   9.734   0.715   0.483  0.0223 -0.1731  0.6443
  785MOL0     C 5850   9.866   0.645   0.500 -1.3490  0.2721 -0.3148
  785MOL0     C 5851   9.911   0.575   0.371  0.5459 -0.0726 -0.1513
  785MOL0     C 5852   9.936   0.678   0.259  0.2092  0.0716  0.7413
  785MOL0     C 5853   9.970   0.609   0.123  0.2555 -0.6950 -0.2685
  785MOL0     C 5854   9.950   0.699  -0.005  0.4542  0.4299 -0.1776
  785MOL0     C 5855  10.029   0.831   0.017 -0.1586 -0.4629 -0.2664
  785MOL0     C 5856  10.053   0.893  -0.121  0.3394  0.3307  0.1330
  785MOL0     N 5857  10.070   1.034  -0.115 -0.7852 -0.2079 -0.0459
  785MOL0     C 5858  10.170   1.098  -0.036  0.0624  0.7320 -0.7427
  785MOL0     C 5859  10.142   1.231  -0.042 -0.2151 -0.0132  0.2454
  785MOL0     C 5860  10.245   1.328   0.014 -0.6423 -1.2270  0.0402
  785MOL0     C 5861  10.196   1.410   0.138  0.0949 -0.4151 -0.4356
  785MOL0     C 5862  10.249   1.344   0.269  0.4072 -0.2553 -0.5564
  785MOL0     C 5863  10.199   1.429   0.386 -0.3832 -0.4068  0.1600
  785MOL0     O 5864  10.240   1.378   0.512  0.9777 -0.3675  0.6116
  785MOL0     C 5865  10.372   1.409   0.562 -0.1805  0.7660  0.0342
  785MOL0     C 5866  10.464   1.492   0.492 -0.2330 -0.9780 -0.0027
  785MOL0     C 5867  10.595   1.524   0.544 -0.1904 -0.0657 -0.1111
  785MOL0     C 5868  10.625   1.478   0.673 -1.4045  0.0644 -0.1559
  785MOL0     C 5869  10.762   1.510   0.736 -0.3983  0.4351 -0.4905
  785MOL0     O 5870  10.858   1.571   0.662 -0.9281  0.2846  0.3022
  785MOL0     C 5871  10.974   1.601   0.724  0.4478 -0.3135 -0.9553
  785MOL0     C 5872  11.015   1.730   0.698  0.2352 -0.2185 -0.4610
  785MOL0     C 5873  11.128   1.788   0.759 -0.2389  0.5507 -0.3633
  785MOL0     C 5874  11.214   1.711   0.841 -0.6098 -0.4618 -0.1276
  785MOL0     O 5875  11.336   1.771   0.875 -0.0215 -0.1918 -0.4015
  785MOL0     C 5876  11.322   1.884   0.965 -0.2070  0.6210  0.0738
  785MOL0     C 5877  11.455   1.940   1.013 -0.0698  1.3529  1.1590
  785MOL0     C 5878  11.438   2.076   1.079  0.5670  0.7229  0.6375
  785MOL0     C 5879  11.574   2.135   1.091 -0.7500 -0.1764 -0.1882
  785MOL0     C 5880  11.580   2.251   1.196  0.0196 -0.4703 -0.0979
  785MOL0     C 5881  11.725   2.294   1.219  0.3433 -0.7624  0.0501
  785MOL0     C 5882  11.722   2.432   1.290  0.1785 -0.6140 -0.0664
  785MOL0     C 5883  11.837   2.452   1.387  0.0648  0.4699  1.0257
  785MOL0    Cl 5884  11.821   2.600   1.473  0.0063  0.4543  0.5023
  785MOL0     C 5885  11.175   1.586   0.878  0.7315 -0.8737 -0.0452
  785MOL0     C 5886  11.051   1.529   0.816 -0.3681 -0.6801 -0.4917
  785MOL0     O 5887  10.759   1.490   0.857 -0.2470  0.0024  0.8122
  785MOL0     C 5888  10.530   1.401   0.746 -0.2120  0.3026  0.5540
  785MOL0     C 5889  10.407   1.369   0.690 -0.0104 -0.2436 -0.4236
  785MOL0     N 5890  10.025   1.244  -0.116 -0.2393  0.2321 -0.3681
  785MOL0     N 5891   9.981   1.133  -0.158  0.0561  0.2190  0.5429
  785MOL0     C 5892   9.475   0.858   0.549  0.3255 -0.6273 -0.2347
  785MOL0     C 5893   9.344   0.884   0.597  0.2891  1.0878 -0.3919
  785MOL0     C 5894   8.975   0.926   0.915 -0.4502 -0.6022  0.6835
  785MOL0     C 5895   8.929   1.032   0.835  0.5447 -0.2631 -0.5063
  785MOL0     C 5896   8.795   1.086   0.841  0.0429 -0.1851  0.2918
  785MOL0     C 5897   8.709   1.050   0.942 -0.0581 -0.4074 -0.9131
  785MOL0     O 5898   8.586   1.106   0.942  0.1111 -0.3542  0.2148
  785MOL0     C 5899   8.473   1.061   1.021  0.9182 -0.5795 -0.6212
  785MOL0     C 5900   8.346   1.074   0.924  0.2597 -0.8111 -0.1796
  785MOL0     C 5901   8.340   0.982   0.801 -0.5483 -0.4217  0.0010
  785MOL0     C 5902   8.205   0.974   0.737 -0.0686 -0.1352  0.9131
  785MOL0     C 5903   8.207   0.855   0.651  0.1322 -0.4797  0.2867
  785MOL0     C 5904   8.220   0.779   0.562 -0.5566  0.9827 -0.8069
  785MOL0     C 5905   8.765   0.955   1.040 -0.5145 -1.0374  0.9432
  785MOL0     C 5906   8.891   0.882   1.023  0.0433  0.4042 -0.5303
  785MOL0     C 5907   8.931   0.771   1.117  0.1422 -0.3289 -1.0777
  785MOL0     H 5908   9.398   0.810   0.925 -0.4812 -3.1337 -0.3961
  785MOL0     H 5909   9.623   0.782   0.837 -1.7226 -1.5573  1.9768
  785MOL0     H 5910   9.654   0.647   0.454  0.0910  0.2347 -0.5921
  785MOL0     H 5911   9.733   0.794   0.406 -1.4368 -0.3708  0.4326
  785MOL0     H 5912   9.861   0.565   0.574  0.5468 -1.4902 -1.9596
  785MOL0     H 5913   9.945   0.709   0.541 -1.0889 -0.4169  0.2763
  785MOL0     H 5914   9.857   0.486   0.336  0.9061 -0.7216  0.8952
  785MOL0     H 5915  10.007   0.529   0.397  0.9345  0.4762 -0.5923
  785MOL0     H 5916   9.845   0.739   0.246  1.0901  1.7888  2.1927
  785MOL0     H 5917  10.020   0.745   0.278  0.4044 -0.3635  1.4442
  785MOL0     H 5918  10.071   0.566   0.124 -0.3295 -2.3202 -2.6206
  785MOL0     H 5919   9.912   0.516   0.116 -1.4667  0.3594 -0.6666
  785MOL0     H 5920   9.983   0.638  -0.089 -0.8334  0.7409 -0.9459
  785MOL0     H 5921   9.841   0.713  -0.010  0.1889 -1.4570 -0.2138
  785MOL0     H 5922  10.130   0.809   0.053  0.5481  0.0354 -1.8581
  785MOL0     H 5923   9.976   0.894   0.089 -2.0058 -0.0028 -1.9569
  785MOL0     H 5924  10.135   0.849  -0.178 -0.3034 -0.7304 -0.0077
  785MOL0     H 5925   9.962   0.865  -0.175 -1.0668 -1.9668  3.3639
  785MOL0     H 5926  10.263   1.050  -0.008 -0.0409 -0.1478 -1.8694
  785MOL0     H 5927  10.340   1.274   0.020 -1.0896 -2.1418 -0.7999
  785MOL0     H 5928  10.278   1.406  -0.055  1.5950 -0.8987  1.3695
  785MOL0     H 5929  10.228   1.514   0.135 -2.2045  0.3451 -0.3012
  785MOL0     H 5930  10.088   1.417   0.152  0.0829  2.2814 -1.3155
  785MOL0     H 5931  10.359   1.338   0.267  0.6577  1.7057  1.8853
  785MOL0     H 5932  10.225   1.237   0.271  0.7128 -0.4793 -3.6815
  785MOL0     H 5933  10.089   1.433   0.386 -0.4405 -1.2402 -1.4409
  785MOL0     H 5934  10.238   1.530   0.366  0.6536 -1.3752 -3.4054
  785MOL0     H 5935  10.441   1.540   0.398  1.6961  0.4129  0.1732
  785MOL0     H 5936  10.667   1.581   0.487  1.3589 -1.7453  0.0886
  785MOL0     H 5937  10.958   1.797   0.635 -0.8170 -0.3710  0.2922
  785MOL0     H 5938  11.153   1.891   0.736 -3.0651  0.7900 -3.0505
  785MOL0     H 5939  11.263   1.958   0.912 -3.1725 -1.9162 -0.4081
  785MOL0     H 5940  11.266   1.857   1.055 -0.7219 -0.2039 -0.4809
  785MOL0     H 5941  11.492   1.862   1.082  0.4020  0.2240 -0.3139
  785MOL0     H 5942  11.530   1.952   0.935 -1.3687  1.2731 -0.1350
  785MOL0     H 5943  11.365   2.148   1.040  1.0833  1.4225  0.9355
  785MOL0     H 5944  11.399   2.045   1.176 -2.4980 -1.2237 -1.0479
  785MOL0     H 5945  11.618   2.173   0.999  4.6620 -1.5958  1.4281
  785MOL0     H 5946  11.643   2.052   1.111  2.8785  2.3765 -1.0991
  785MOL0     H 5947  11.531   2.221   1.289  0.9385  0.2022  0.6252
  785MOL0     H 5948  11.531   2.343   1.161 -1.6779 -0.6851  1.5584
  785MOL0     H 5949  11.764   2.222   1.291 -1.3350  0.7684  2.6443
  785MOL0     H 5950  11.776   2.306   1.122 -0.5340 -1.3922 -0.5066
  785MOL0     H 5951  11.631   2.460   1.343  2.3097  2.3411  2.4090
  785MOL0     H 5952  11.743   2.514   1.221  0.7923 -0.4580  0.2985
  785MOL0     H 5953  11.836   2.365   1.453  1.3443 -0.4088 -0.0560
  785MOL0     H 5954  11.933   2.453   1.335 -0.9135 -1.8540 -0.9561
  785MOL0     H 5955  11.241   1.533   0.946 -0.2611 -1.8739  0.1798
  785MOL0     H 5956  11.025   1.427   0.842 -0.4668 -0.4662  0.2565
  785MOL0     H 5957  10.550   1.349   0.839  0.6619 -0.1220  0.1434
  785MOL0     H 5958  10.330   1.320   0.748 -0.6049 -0.7776 -1.6195
  785MOL0     H 5959   9.501   0.875   0.445 -0.2808  2.4384  0.0318
  785MOL0     H 5960   9.271   0.920   0.526 -1.1148  0.8935  0.8979
  785MOL0     H 5961   8.993   1.078   0.760  0.5139 -1.0075 -0.9912
  785MOL0     H 5962   8.767   1.159   0.767  1.2330 -0.8670 -0.8718
  785MOL0     H 5963   8.466   1.116   1.115  1.1955  0.7753 -1.3608
  785MOL0     H 5964   8.488   0.957   1.049  2.7673  0.3506  2.2456
  785MOL0     H 5965   8.339   1.178   0.893 -0.6820 -0.7590  0.1629
  785MOL0     H 5966   8.260   1.043   0.984  1.1267 -2.4729  0.2896
  785MOL0     H 5967   8.378   0.887   0.840 -0.3193  0.0227  0.9133
  785MOL0     H 5968   8.412   1.021   0.728  0.3707 -3.2368 -0.7273
  785MOL0     H 5969   8.129   0.961   0.814 -0.2783  0.8619  0.8799
  785MOL0     H 5970   8.191   1.070   0.686 -2.6395 -0.2737  1.2389
  785MOL0     H 5971   8.236   0.708   0.483  0.2534 -1.4374  1.3608
  785MOL0     H 5972   8.698   0.948   1.125 -2.1467  2.2865  0.1307
  785MOL0     H 5973   8.924   0.674   1.068 -2.1274 -1.3398  1.0301
  785MOL0     H 5974   9.027   0.783   1.169 -1.0933  0.6354  1.1278
  785MOL0     H 5975   8.858   0.759   1.198  0.1007 -1.1347 -1.2331
  786MOL0     O 5976  10.156   5.295   9.054 -0.6270 -0.2344 -0.5224
  786MOL0     C 5977  10.182   5.311   9.167 -0.5974 -0.0570 -0.5327
  786MOL0     O 5978  10.101   5.366   9.258  0.3307  0.3240  0.1559
  786MOL0     C 5979   9.985   5.433   9.217 -0.4630 -0.4766 -0.4341
  786MOL0     C 5980   9.857   5.384   9.227  0.5550  0.5202  0.3716
  786MOL0     C 5981   9.739   5.450   9.181 -0.1117  0.6764  0.0998
  786MOL0     C 5982   9.751   5.578   9.125  0.5565 -0.0706  0.5177
  786MOL0     O 5983   9.641   5.637   9.066 -0.0405  0.3457  0.3405
  786MOL0     C 5984   9.521   5.583   9.087  0.0362  0.2907 -0.5817
  786MOL0     C 5985   9.411   5.682   9.033  0.3894 -0.1390 -1.8487
  786MOL0     C 5986   9.272   5.615   9.038  0.9133  0.4669 -0.2805
  786MOL0     C 5987   9.154   5.719   9.022 -0.3732  0.0141 -0.4103
  786MOL0     C 5988   9.012   5.672   9.059 -0.3067  0.1652 -0.0191
  786MOL0     C 5989   8.918   5.791   9.051  0.0238 -0.2664 -0.2080
  786MOL0     C 5990   8.773   5.771   9.085  0.5468  0.9813 -0.0355
  786MOL0     C 5991   8.692   5.681   8.992  0.3652  0.7984  0.3589
  786MOL0     N 5992   8.705   5.707   8.851  0.4553 -0.5053  0.9107
  786MOL0     C 5993   8.632   5.782   8.762  0.1013 -0.8302  0.0474
  786MOL0     C 5994   8.694   5.777   8.638  0.5076  0.7493 -0.7224
  786MOL0     C 5995   8.648   5.836   8.503  0.0530  0.5031 -0.7593
  786MOL0     C 5996   8.745   5.816   8.387 -0.2108  0.4548 -0.3103
  786MOL0     C 5997   8.730   5.678   8.327 -0.0169  0.1363 -0.0847
  786MOL0     C 5998   8.830   5.672   8.211 -0.4218  0.4479 -0.0937
  786MOL0     O 5999   8.964   5.652   8.264  0.4019  0.0803 -0.6200
  786MOL0     C 6000   9.070   5.631   8.185 -0.6602  0.8552  0.3674
  786MOL0     C 6001   9.198   5.600   8.242  0.2957 -0.6962  0.1031
  786MOL0     C 6002   9.319   5.590   8.171 -0.3235 -0.0612  0.7410
  786MOL0     C 6003   9.314   5.603   8.034  0.3928  0.3105  0.9333
  786MOL0     C 6004   9.434   5.575   7.955 -0.7769 -0.8492  0.3264
  786MOL0     O 6005   9.436   5.621   7.825 -0.1276 -0.1914  0.0227
  786MOL0     C 6006   9.551   5.612   7.758  0.4700 -0.2449 -0.6877
  786MOL0     C 6007   9.664   5.682   7.806 -0.5173  0.0364 -0.4319
  786MOL0     C 6008   9.788   5.651   7.733  0.5788  0.7931  0.2026
  786MOL0     C 6009   9.797   5.565   7.626  0.4022  0.7945  1.2098
  786MOL0     O 6010   9.905   5.548   7.542  0.1050  0.5596  0.0711
  786MOL0     C 6011   9.939   5.409   7.511 -0.4268 -0.4406  0.0821
  786MOL0     C 6012  10.076   5.388   7.579  0.4569  0.2238 -0.5967
  786MOL0     C 6013  10.175   5.500   7.550  0.0772 -0.2095 -0.2758
  786MOL0     C 6014  10.310   5.491   7.634 -0.0294 -0.8925 -0.1739
  786MOL0     C 6015  10.399   5.608   7.596 -0.1313 -0.3027  0.5568
  786MOL0     C 6016  10.515   5.618   7.695  0.2212 -0.5598 -0.6005
  786MOL0     C 6017  10.595   5.753   7.669  0.0573 -0.2754 -0.2349
  786MOL0     C 6018  10.709   5.751   7.770  0.7131  0.4297  0.4970
  786MOL0    Cl 6019  10.813   5.894   7.744  0.3681 -0.0012 -0.0274
  786MOL0     C 6020   9.675   5.516   7.578  0.1602 -0.4950  0.2287
  786MOL0     C 6021   9.550   5.532   7.642  0.1151  0.4629  0.2880
  786MOL0     O 6022   9.534   5.532   8.018  0.8789  0.5342 -0.0237
  786MOL0     C 6023   9.185   5.636   7.968 -0.5848 -0.2662 -0.1009
  786MOL0     C 6024   9.067   5.639   8.041  0.2054  0.2649 -0.8264
  786MOL0     N 6025   8.797   5.686   8.646  0.4415  0.0735 -0.0541
  786MOL0     N 6026   8.801   5.656   8.773 -0.2986 -0.0444  0.6527
  786MOL0     C 6027   9.876   5.632   9.110 -0.4140  0.0877  0.7871
  786MOL0     C 6028   9.984   5.565   9.160 -0.2344  0.2380 -0.0468
  786MOL0     C 6029  10.322   5.283   9.206  0.4974  0.0099  0.1882
  786MOL0     C 6030  10.370   5.339   9.326  0.1365 -0.1889  0.2755
  786MOL0     C 6031  10.505   5.316   9.360 -0.0970 -0.3145 -0.0533
  786MOL0     C 6032  10.582   5.232   9.283  0.3520 -1.5550 -0.7842
  786MOL0     O 6033  10.706   5.226   9.329  0.3361  0.6053  0.2286
  786MOL0     C 6034  10.796   5.134   9.279  0.4628 -0.1996  0.0179
  786MOL0     C 6035  10.929   5.127   9.345 -0.4563 -0.1093 -0.2671
  786MOL0     C 6036  11.017   5.016   9.268  0.3774 -0.1274 -0.4386
  786MOL0     C 6037  10.960   4.869   9.295  0.3925 -0.3604  0.1011
  786MOL0     C 6038  11.010   4.776   9.202 -0.3241 -0.5088 -0.7928
  786MOL0     C 6039  11.044   4.691   9.127 -0.2192 -0.1189 -0.6139
  786MOL0     C 6040  10.529   5.170   9.175  0.8760 -0.0700  0.4004
  786MOL0     C 6041  10.403   5.195   9.130 -0.0833  0.1665 -0.5510
  786MOL0     C 6042  10.359   5.113   9.015 -0.4035  0.1247  0.0174
  786MOL0     H 6043   9.844   5.286   9.271 -4.5652 -0.4158 -2.4556
  786MOL0     H 6044   9.645   5.396   9.190  0.6760 -0.6468  0.6670
  786MOL0     H 6045   9.528   5.491   9.029  3.4082 -1.0692  1.6606
  786MOL0     H 6046   9.511   5.562   9.194  0.7578 -1.1434 -0.7718
  786MOL0     H 6047   9.431   5.700   8.927 -0.2053  0.0485 -1.9301
  786MOL0     H 6048   9.415   5.777   9.086  1.4997 -0.1201 -1.9398
  786MOL0     H 6049   9.255   5.556   9.129 -2.8374 -1.7458 -2.1433
  786MOL0     H 6050   9.253   5.545   8.956  0.3328 -0.8369  0.9194
  786MOL0     H 6051   9.170   5.799   9.095  0.7972 -1.1458  0.6679
  786MOL0     H 6052   9.163   5.767   8.924  2.6585  1.0926  0.2991
  786MOL0     H 6053   8.992   5.595   8.984  2.9090  1.0622 -2.0072
  786MOL0     H 6054   8.998   5.626   9.157 -0.0474 -1.4009 -0.6856
  786MOL0     H 6055   8.943   5.858   9.133 -4.5461 -1.0327  2.1247
  786MOL0     H 6056   8.922   5.837   8.952 -2.2940  0.5665  0.0278
  786MOL0     H 6057   8.730   5.872   9.085 -0.5342  0.5531 -1.2813
  786MOL0     H 6058   8.760   5.740   9.189 -1.3775  0.4823 -0.3832
  786MOL0     H 6059   8.709   5.574   9.001  1.2135  0.9296  0.4021
  786MOL0     H 6060   8.586   5.693   9.019  0.2679  1.4874 -0.2858
  786MOL0     H 6061   8.539   5.828   8.791  0.5495 -0.0501  0.2586
  786MOL0     H 6062   8.554   5.797   8.462 -0.6620  0.4415  0.8662
  786MOL0     H 6063   8.633   5.942   8.527  0.0736 -0.1773  2.7881
  786MOL0     H 6064   8.729   5.896   8.314  1.6742  2.8691  1.7659
  786MOL0     H 6065   8.847   5.821   8.426 -0.9634 -0.1393  1.8325
  786MOL0     H 6066   8.624   5.675   8.301 -0.3409  1.2833  0.9633
  786MOL0     H 6067   8.753   5.596   8.395  0.3591 -0.1844 -0.5942
  786MOL0     H 6068   8.831   5.759   8.146 -0.1606 -0.5225 -1.4274
  786MOL0     H 6069   8.790   5.588   8.154 -3.7607 -0.2217  2.8914
  786MOL0     H 6070   9.209   5.570   8.346  0.6240  2.4325  1.0652
  786MOL0     H 6071   9.417   5.571   8.214 -0.6633  2.6820  3.0418
  786MOL0     H 6072   9.669   5.741   7.897  0.1531  2.2823 -1.8250
  786MOL0     H 6073   9.885   5.694   7.758  1.3926  1.8173 -3.9210
  786MOL0     H 6074   9.866   5.338   7.552 -3.0517  2.4553  0.8100
  786MOL0     H 6075   9.953   5.399   7.403  1.7080 -1.7435  0.4271
  786MOL0     H 6076  10.063   5.379   7.687  0.9299  0.3131 -0.5278
  786MOL0     H 6077  10.112   5.289   7.549 -2.8711 -0.5026 -2.7497
  786MOL0     H 6078  10.196   5.489   7.443 -1.9266  0.9207 -0.8308
  786MOL0     H 6079  10.135   5.598   7.577  2.0101  0.0546  1.9985
  786MOL0     H 6080  10.365   5.401   7.605 -1.6014 -1.5922 -1.1723
  786MOL0     H 6081  10.290   5.497   7.741 -0.5049  0.7376 -0.3332
  786MOL0     H 6082  10.346   5.703   7.598  1.2791  0.5093  0.6227
  786MOL0     H 6083  10.431   5.603   7.491 -1.2905  1.2375  0.1033
  786MOL0     H 6084  10.478   5.611   7.798 -0.4206 -0.6236 -0.8333
  786MOL0     H 6085  10.586   5.536   7.682  1.2361 -0.3447  2.6510
  786MOL0     H 6086  10.534   5.843   7.679  3.2781  2.3123 -1.8176
  786MOL0     H 6087  10.621   5.757   7.563 -0.6150  0.9165 -0.3701
  786MOL0     H 6088  10.667   5.748   7.871  0.2245  0.7470  0.3102
  786MOL0     H 6089  10.774   5.664   7.755 -0.3306 -0.2782 -0.0672
  786MOL0     H 6090   9.667   5.450   7.492 -0.9057  1.8319 -1.5362
  786MOL0     H 6091   9.464   5.472   7.613  0.9370 -0.4241 -0.3954
  786MOL0     H 6092   9.172   5.637   7.860 -0.1939 -0.3682 -0.1504
  786MOL0     H 6093   8.979   5.638   7.978 -0.6372 -1.6164  0.2658
  786MOL0     H 6094   9.894   5.725   9.058  0.4119 -0.2833  0.3887
  786MOL0     H 6095  10.078   5.619   9.166 -0.7450  0.9870  2.0914
  786MOL0     H 6096  10.319   5.402   9.398  0.4811  0.2264  0.1578
  786MOL0     H 6097  10.551   5.364   9.446 -0.8768 -0.9126  0.7105
  786MOL0     H 6098  10.816   5.161   9.174  2.8030 -1.5896  0.0338
  786MOL0     H 6099  10.749   5.035   9.274 -0.5019  0.2224  0.4283
  786MOL0     H 6100  10.915   5.102   9.451 -3.4099 -0.8637 -0.7357
  786MOL0     H 6101  10.992   5.215   9.341  2.6898 -2.0019  2.1763
  786MOL0     H 6102  11.118   5.016   9.309  1.9531 -2.3266 -3.8164
  786MOL0     H 6103  11.037   5.044   9.164 -0.1145 -1.8267 -1.0239
  786MOL0     H 6104  11.005   4.841   9.390  0.8325  1.4654  0.4555
  786MOL0     H 6105  10.851   4.874   9.301  0.5281  1.0346  2.8468
  786MOL0     H 6106  11.086   4.623   9.057  1.0466 -1.1747  1.0850
  786MOL0     H 6107  10.585   5.099   9.116 -0.2586  1.4098 -2.6459
  786MOL0     H 6108  10.413   5.017   9.017  3.6055  2.1445 -0.8966
  786MOL0     H 6109  10.252   5.093   9.024 -0.0614 -1.7953  0.2050
  786MOL0     H 6110  10.375   5.161   8.918 -1.3003  1.5673  0.5645
  787MOL0     O 6111   7.187   2.415   2.900 -0.6685 -0.0381 -0.4675
  787MOL0     C 6112   7.093   2.335   2.895  0.2763  0.1824 -0.6325
  787MOL0     O 6113   7.105   2.202   2.885  0.6530  0.1171  0.5727
  787MOL0     C 6114   7.228   2.146   2.882 -1.1932  0.2096  0.4265
  787MOL0     C 6115   7.294   2.102   3.006 -0.2031 -0.7102 -0.5384
  787MOL0     C 6116   7.419   2.039   3.004  0.8291  0.0492 -0.1655
  787MOL0     C 6117   7.481   2.016   2.881 -1.1575  0.1732 -0.0329
  787MOL0     O 6118   7.619   1.969   2.875  0.6485 -0.1155 -1.0887
  787MOL0     C 6119   7.708   2.044   2.957 -0.2686 -0.4639  0.4569
  787MOL0     C 6120   7.849   1.986   2.928  0.7510  0.7456  0.6385
  787MOL0     C 6121   7.877   1.963   2.779 -0.3142 -0.3659 -0.0230
  787MOL0     C 6122   8.022   1.918   2.742  0.6951 -0.1362 -0.2218
  787MOL0     C 6123   8.129   2.015   2.784 -0.0245  0.8619 -0.3123
  787MOL0     C 6124   8.105   2.162   2.758  0.5277  0.4396  0.4247
  787MOL0     C 6125   8.226   2.254   2.789 -0.7948 -0.6471 -0.0530
  787MOL0     C 6126   8.190   2.395   2.835  0.2054  0.7737 -0.1549
  787MOL0     N 6127   8.075   2.454   2.756 -0.4191  0.1933 -0.1465
  787MOL0     C 6128   7.937   2.429   2.776 -0.4707 -0.4025  0.1647
  787MOL0     C 6129   7.879   2.464   2.655  0.1587 -1.0913 -0.0246
  787MOL0     C 6130   7.737   2.454   2.602 -1.3351 -0.1661 -0.0730
  787MOL0     C 6131   7.690   2.308   2.591  0.0509  0.2205 -0.7393
  787MOL0     C 6132   7.724   2.223   2.465 -0.9041  0.4497  0.3150
  787MOL0     C 6133   7.876   2.228   2.435 -0.7052  0.5253  1.0373
  787MOL0     O 6134   7.910   2.170   2.310  0.0131 -0.3056  0.0224
  787MOL0     C 6135   8.041   2.166   2.278 -0.8649  0.0030  0.4512
  787MOL0     C 6136   8.088   2.039   2.232  0.5869 -0.1295  1.1524
  787MOL0     C 6137   8.214   2.016   2.178  0.0496  0.6988 -0.3177
  787MOL0     C 6138   8.306   2.117   2.186  0.0200 -0.7141 -0.0209
  787MOL0     C 6139   8.447   2.093   2.140 -0.0661  0.2928  0.2049
  787MOL0     O 6140   8.468   1.971   2.085  0.0636  1.3108 -0.0507
  787MOL0     C 6141   8.600   1.926   2.045 -0.2079  0.3598 -1.0060
  787MOL0     C 6142   8.617   1.789   2.034 -0.7640  0.1603  0.0452
  787MOL0     C 6143   8.733   1.736   1.995  0.3829  0.1423  0.3686
  787MOL0     C 6144   8.838   1.812   1.951 -0.5957  0.2792 -1.3792
  787MOL0     O 6145   8.956   1.755   1.922 -0.0320 -0.6251  0.2403
  787MOL0     C 6146   9.076   1.831   1.961 -0.1427 -0.2461  0.0824
  787MOL0     C 6147   9.196   1.744   1.955 -0.6909  0.1054  0.0261
  787MOL0     C 6148   9.322   1.818   1.897  0.2622 -0.1505  1.4348
  787MOL0     C 6149   9.366   1.935   1.987  0.0824  0.0260  0.4371
  787MOL0     C 6150   9.454   2.030   1.906  0.6205  0.0787  0.5932
  787MOL0     C 6151   9.494   2.161   1.968 -0.7099 -0.2739 -0.3121
  787MOL0     C 6152   9.388   2.249   2.034  0.2533  0.4732  0.0929
  787MOL0     C 6153   9.443   2.343   2.138  0.9052  0.9234 -0.9234
  787MOL0    Cl 6154   9.450   2.245   2.287  0.1758  0.0481 -0.7078
  787MOL0     C 6155   8.820   1.954   1.943 -0.7189  0.8771 -0.1417
  787MOL0     C 6156   8.700   2.008   1.997  0.0383 -0.3219  0.3082
  787MOL0     O 6157   8.535   2.172   2.169  0.1718  0.6209  0.2870
  787MOL0     C 6158   8.273   2.250   2.232  0.5368  0.2429  0.0562
  787MOL0     C 6159   8.136   2.268   2.285  0.0271 -0.2286 -0.0531
  787MOL0     N 6160   7.970   2.541   2.585 -0.0776  0.1850 -0.1274
  787MOL0     N 6161   8.084   2.526   2.645  0.0885  0.0397  0.8217
  787MOL0     C 6162   7.419   2.063   2.762 -0.8914  0.1033  0.1964
  787MOL0     C 6163   7.297   2.119   2.759  0.5344 -0.7615  0.4184
  787MOL0     C 6164   6.965   2.386   2.919  0.1273 -0.5046 -0.7936
  787MOL0     C 6165   6.866   2.298   2.969 -0.1552 -0.3881 -0.7309
  787MOL0     C 6166   6.739   2.342   3.005 -0.8203  0.1237 -0.5229
  787MOL0     C 6167   6.715   2.475   3.007 -0.0656 -0.1635 -0.9328
  787MOL0     O 6168   6.593   2.530   3.048 -0.0067 -0.2005  0.2286
  787MOL0     C 6169   6.487   2.439   3.059 -0.0291 -0.0299  0.3047
  787MOL0     C 6170   6.362   2.514   3.101  0.1973  0.7519  0.3690
  787MOL0     C 6171   6.238   2.419   3.088 -0.8111  0.3659  0.3032
  787MOL0     C 6172   6.213   2.363   2.948  0.1976 -0.2746 -0.2120
  787MOL0     C 6173   6.200   2.478   2.855 -0.1383  0.0378  0.1704
  787MOL0     C 6174   6.177   2.559   2.764 -0.5007  0.2085 -0.2309
  787MOL0     C 6175   6.805   2.563   2.969  0.6407  0.1767  0.3324
  787MOL0     C 6176   6.937   2.523   2.923  0.0096  0.0670 -0.0875
  787MOL0     C 6177   7.016   2.647   2.883 -0.1008 -0.9821  0.5710
  787MOL0     H 6178   7.241   2.125   3.098  1.2793  1.5800 -0.1627
  787MOL0     H 6179   7.472   1.992   3.087 -1.7262 -1.3284  0.7918
  787MOL0     H 6180   7.708   2.148   2.926  0.4730 -1.1923 -2.1864
  787MOL0     H 6181   7.689   2.032   3.065 -1.1766 -0.0979  0.3461
  787MOL0     H 6182   7.854   1.885   2.969 -3.5877 -0.2244 -0.6868
  787MOL0     H 6183   7.920   2.049   2.983  0.0963 -0.1792  2.6364
  787MOL0     H 6184   7.873   2.061   2.730 -1.5420 -0.1496  0.4932
  787MOL0     H 6185   7.801   1.902   2.729 -1.0413 -1.3149  2.1336
  787MOL0     H 6186   8.029   1.814   2.773  0.7066 -0.4289 -1.1830
  787MOL0     H 6187   8.031   1.922   2.633  0.5109 -1.3498 -0.2915
  787MOL0     H 6188   8.146   2.005   2.891 -0.9622 -3.0301 -0.3774
  787MOL0     H 6189   8.224   1.986   2.737 -0.0521  0.1074  0.0852
  787MOL0     H 6190   8.083   2.173   2.652 -2.0801 -1.1203  0.7369
  787MOL0     H 6191   8.017   2.198   2.813 -1.2922 -0.3755 -1.7966
  787MOL0     H 6192   8.290   2.263   2.702 -1.7931 -0.3151 -0.7744
  787MOL0     H 6193   8.277   2.219   2.879 -0.1163  1.4365  0.4330
  787MOL0     H 6194   8.175   2.377   2.942  0.1379 -2.6381 -0.6144
  787MOL0     H 6195   8.273   2.465   2.822  2.5797 -1.4058  2.0950
  787MOL0     H 6196   7.886   2.378   2.858 -2.1832 -1.7552 -1.6557
  787MOL0     H 6197   7.668   2.504   2.670 -0.1890 -0.6618  1.4968
  787MOL0     H 6198   7.725   2.511   2.510  1.3461 -1.0799 -1.0899
  787MOL0     H 6199   7.731   2.261   2.681  4.3081  2.1431 -1.4075
  787MOL0     H 6200   7.581   2.301   2.598  0.0724 -0.7526 -1.2657
  787MOL0     H 6201   7.662   2.263   2.384 -2.3193 -0.8504  0.7065
  787MOL0     H 6202   7.711   2.114   2.466  0.9918  0.1897  0.5298
  787MOL0     H 6203   7.927   2.170   2.512 -0.3039 -0.0034  0.3855
  787MOL0     H 6204   7.916   2.330   2.438 -0.8827  0.6575 -0.4290
  787MOL0     H 6205   8.011   1.967   2.208  1.6958 -0.1517 -3.2255
  787MOL0     H 6206   8.235   1.916   2.140 -2.7372 -0.1346  0.1250
  787MOL0     H 6207   8.539   1.720   2.065 -1.3226  0.3976 -0.8255
  787MOL0     H 6208   8.749   1.629   1.991 -2.7996 -0.3858 -1.7325
  787MOL0     H 6209   9.093   1.906   1.883  2.1756 -1.5048 -0.7028
  787MOL0     H 6210   9.071   1.879   2.059 -1.4561 -2.3136  1.0895
  787MOL0     H 6211   9.220   1.714   2.057  1.6023  2.0977  0.1621
  787MOL0     H 6212   9.175   1.661   1.887  1.4572  0.4247 -1.1193
  787MOL0     H 6213   9.401   1.743   1.882 -1.0133 -1.0243 -1.7301
  787MOL0     H 6214   9.290   1.853   1.799  0.4228 -2.3060  0.5634
  787MOL0     H 6215   9.422   1.892   2.071 -0.4703 -0.2849  0.6537
  787MOL0     H 6216   9.281   1.975   2.044  1.3634  1.4446  1.4407
  787MOL0     H 6217   9.387   2.063   1.826 -2.3227  0.7844  3.1678
  787MOL0     H 6218   9.538   1.983   1.854  1.7200  2.8838 -0.3846
  787MOL0     H 6219   9.563   2.137   2.050 -2.2312  0.5804  1.3004
  787MOL0     H 6220   9.543   2.224   1.894 -2.2728 -0.4014 -1.5062
  787MOL0     H 6221   9.305   2.192   2.074 -1.1204  3.4365  1.8170
  787MOL0     H 6222   9.353   2.300   1.943  2.0062 -0.2997 -1.0805
  787MOL0     H 6223   9.544   2.376   2.110  0.1694  3.0130 -1.2946
  787MOL0     H 6224   9.380   2.430   2.157 -2.8771 -1.8166  0.2711
  787MOL0     H 6225   8.898   2.017   1.902 -1.0772  0.4747 -1.5031
  787MOL0     H 6226   8.687   2.116   1.994  2.4858  0.1819  2.9226
  787MOL0     H 6227   8.341   2.334   2.250 -0.8101  1.6511 -1.1330
  787MOL0     H 6228   8.114   2.370   2.315  2.9971  0.3766  0.3858
  787MOL0     H 6229   7.463   2.032   2.668 -1.0553 -2.5357  0.9098
  787MOL0     H 6230   7.242   2.149   2.670  2.6468 -0.5866 -0.8765
  787MOL0     H 6231   6.887   2.192   2.980 -0.7059 -0.4840 -0.5727
  787MOL0     H 6232   6.667   2.266   3.032 -1.2128  0.7847  0.3552
  787MOL0     H 6233   6.512   2.370   3.141  0.1779  2.0751  2.0978
  787MOL0     H 6234   6.473   2.385   2.965  0.7977 -1.1578  0.8011
  787MOL0     H 6235   6.347   2.605   3.042 -0.2045  1.4816  1.5696
  787MOL0     H 6236   6.362   2.551   3.204 -1.1194 -1.2933  1.1801
  787MOL0     H 6237   6.148   2.473   3.118 -1.3325 -0.5059  0.3525
  787MOL0     H 6238   6.236   2.331   3.154 -5.9197 -1.6482 -1.9622
  787MOL0     H 6239   6.291   2.290   2.921 -1.0965 -2.1599  0.8890
  787MOL0     H 6240   6.119   2.308   2.958 -0.2131  0.3755 -0.5044
  787MOL0     H 6241   6.156   2.628   2.684  1.3320  0.5998 -0.4297
  787MOL0     H 6242   6.775   2.667   2.975  3.0737  0.8834  1.4692
  787MOL0     H 6243   6.954   2.724   2.837  1.1282 -0.2858  0.0378
  787MOL0     H 6244   7.069   2.697   2.964  0.3653 -0.0617 -0.2753
  787MOL0     H 6245   7.086   2.624   2.802  1.6811 -1.0742  2.0758
  788MOL0     O 6246  10.090   6.410   6.181 -0.0120  0.1068  0.2753
  788MOL0     C 6247  10.109   6.532   6.184 -0.8583 -0.1526  1.3279
  788MOL0     O 6248  10.021   6.629   6.143  0.9567 -0.0895 -0.1436
  788MOL0     C 6249   9.907   6.577   6.084  0.7461 -0.5929 -0.2539
  788MOL0     C 6250   9.804   6.519   6.157 -0.2170  0.0903 -0.5227
  788MOL0     C 6251   9.693   6.473   6.088  0.5102  0.3362 -0.6294
  788MOL0     C 6252   9.674   6.483   5.954 -0.6759 -0.4102 -0.3418
  788MOL0     O 6253   9.563   6.453   5.882 -0.2196  0.4265  0.3235
  788MOL0     C 6254   9.440   6.430   5.962  0.0030 -0.6484 -0.8926
  788MOL0     C 6255   9.315   6.399   5.886 -0.0396 -0.1137  0.7845
  788MOL0     C 6256   9.349   6.275   5.802 -0.2192 -0.1841  0.0772
  788MOL0     C 6257   9.216   6.231   5.740  0.9500 -0.4974  0.0782
  788MOL0     C 6258   9.223   6.128   5.645 -0.3936  0.1670 -0.1581
  788MOL0     C 6259   9.244   6.001   5.719  0.4236 -0.8298 -0.1431
  788MOL0     C 6260   9.208   5.879   5.633 -0.3269 -0.4695 -0.2810
  788MOL0     C 6261   9.256   5.744   5.691  0.8342  0.0686  0.0430
  788MOL0     N 6262   9.223   5.632   5.601 -0.4701 -0.3060 -0.9899
  788MOL0     C 6263   9.155   5.631   5.481 -0.1452 -0.3970  0.4061
  788MOL0     C 6264   9.171   5.504   5.434  0.9084  0.4773  1.1829
  788MOL0     C 6265   9.139   5.449   5.295  0.6091  0.3603 -0.4604
  788MOL0     C 6266   9.225   5.321   5.278 -0.9510 -0.5691 -0.4801
  788MOL0     C 6267   9.230   5.282   5.130 -0.9193  0.7695  0.5105
  788MOL0     C 6268   9.288   5.137   5.098 -0.4773  0.8256 -0.9111
  788MOL0     O 6269   9.423   5.118   5.158 -0.4479  0.1238  0.2772
  788MOL0     C 6270   9.519   5.018   5.126  0.0169 -0.4587  0.1576
  788MOL0     C 6271   9.649   5.013   5.190 -0.4332 -0.7475  0.3099
  788MOL0     C 6272   9.745   4.906   5.163 -0.2882  0.2600 -0.6698
  788MOL0     C 6273   9.708   4.798   5.081  0.2449  0.3778  0.4004
  788MOL0     C 6274   9.799   4.687   5.044 -0.3454  0.2521  0.0150
  788MOL0     O 6275   9.928   4.694   5.093  0.5753 -0.1853  0.8263
  788MOL0     C 6276  10.006   4.579   5.087  0.2527 -0.2619  0.3581
  788MOL0     C 6277  10.021   4.511   4.967  0.0665  0.3767 -0.5808
  788MOL0     C 6278  10.105   4.397   4.965  0.0762 -0.6690  0.0016
  788MOL0     C 6279  10.175   4.353   5.077 -0.9201 -0.0577 -0.2717
  788MOL0     O 6280  10.247   4.237   5.070 -0.5729  0.3100  0.2769
  788MOL0     C 6281  10.175   4.118   5.064 -0.2446  0.9144 -0.0390
  788MOL0     C 6282  10.240   4.002   5.135  0.0465 -0.8476  0.0488
  788MOL0     C 6283  10.363   3.954   5.068  0.0137 -0.2598  0.1127
  788MOL0     C 6284  10.482   4.020   5.134  0.5426  0.2239  0.4779
  788MOL0     C 6285  10.609   3.974   5.064 -0.3475 -0.0924 -0.5351
  788MOL0     C 6286  10.642   3.829   5.098 -1.0036 -0.5660  0.5795
  788MOL0     C 6287  10.792   3.793   5.096  0.8164 -0.9494 -0.1483
  788MOL0     C 6288  10.849   3.747   5.224  0.1806 -0.4742 -0.2516
  788MOL0    Cl 6289  11.027   3.738   5.216  0.3755 -0.7019 -0.1617
  788MOL0     C 6290  10.163   4.430   5.198 -0.4741  0.2327  0.1377
  788MOL0     C 6291  10.076   4.542   5.205 -1.0911 -0.1149  0.3467
  788MOL0     O 6292   9.754   4.596   4.979 -0.5232 -0.2904  0.3812
  788MOL0     C 6293   9.574   4.800   5.021 -0.1008 -0.2886 -0.4052
  788MOL0     C 6294   9.494   4.914   5.037  0.6462 -0.2795  0.3623
  788MOL0     N 6295   9.214   5.426   5.537 -0.2419 -0.3676 -0.5575
  788MOL0     N 6296   9.232   5.504   5.638  0.4435 -0.3090  0.8367
  788MOL0     C 6297   9.781   6.548   5.885  0.0845 -0.3911  1.0434
  788MOL0     C 6298   9.898   6.585   5.947 -0.5165  0.3901 -0.0801
  788MOL0     C 6299  10.239   6.580   6.229 -0.8740  0.0566  0.2430
  788MOL0     C 6300  10.295   6.694   6.167  0.1492 -0.0345  0.3568
  788MOL0     C 6301  10.429   6.732   6.196  0.0041 -0.0743  0.4416
  788MOL0     C 6302  10.500   6.661   6.293  0.2401 -0.0738  0.3535
  788MOL0     O 6303  10.616   6.722   6.334 -1.0474  0.6522  0.3190
  788MOL0     C 6304  10.723   6.648   6.404 -0.0035 -0.5156 -0.4028
  788MOL0     C 6305  10.833   6.755   6.433 -0.0268  1.3785  0.3186
  788MOL0     C 6306  10.814   6.857   6.547  0.7119 -0.3339 -0.0525
  788MOL0     C 6307  10.773   6.990   6.483 -0.2972  0.6317  0.7929
  788MOL0     C 6308  10.907   7.052   6.459 -0.1421  0.3583 -0.0066
  788MOL0     C 6309  11.017   7.104   6.441 -0.0675  0.3576  0.7146
  788MOL0     C 6310  10.447   6.549   6.356  0.7708  0.3257  0.6721
  788MOL0     C 6311  10.314   6.516   6.328 -0.3056  0.5987 -0.2520
  788MOL0     C 6312  10.259   6.418   6.428 -0.6008 -0.4820  0.0538
  788MOL0     H 6313   9.808   6.512   6.266 -0.8615  1.8108 -0.3578
  788MOL0     H 6314   9.613   6.422   6.143 -0.2927 -2.1966 -3.8208
  788MOL0     H 6315   9.464   6.345   6.026 -3.0625 -0.3341  0.8853
  788MOL0     H 6316   9.414   6.519   6.020 -0.0244 -2.0722  1.3780
  788MOL0     H 6317   9.275   6.478   5.822 -4.1243 -3.3131 -1.0731
  788MOL0     H 6318   9.237   6.376   5.960 -0.5930 -1.4961 -0.1841
  788MOL0     H 6319   9.399   6.201   5.865  0.2881  1.1159  1.2421
  788MOL0     H 6320   9.425   6.302   5.727 -0.2336  0.6828  0.3584
  788MOL0     H 6321   9.160   6.198   5.828  4.8074 -2.0030  2.2293
  788MOL0     H 6322   9.160   6.316   5.700 -0.5499 -0.2365  2.5349
  788MOL0     H 6323   9.132   6.110   5.586  1.2839 -3.5964 -1.9296
  788MOL0     H 6324   9.303   6.150   5.574 -1.5699  0.3601 -1.4767
  788MOL0     H 6325   9.343   5.988   5.763  0.2141  0.1369  0.6548
  788MOL0     H 6326   9.183   6.005   5.810  0.0957  0.2637 -0.3937
  788MOL0     H 6327   9.250   5.890   5.533  0.3607 -1.4558 -0.1222
  788MOL0     H 6328   9.100   5.876   5.615 -0.1129 -1.6618 -1.5041
  788MOL0     H 6329   9.364   5.746   5.706  0.6194  2.7707  1.8232
  788MOL0     H 6330   9.205   5.730   5.787 -1.5417  0.9450 -1.0089
  788MOL0     H 6331   9.118   5.711   5.417  1.3707 -0.1150 -0.1604
  788MOL0     H 6332   9.033   5.426   5.291  0.6368 -0.2247 -6.3415
  788MOL0     H 6333   9.154   5.527   5.220  0.0736  1.5144  0.5906
  788MOL0     H 6334   9.325   5.323   5.320 -0.9791 -1.0424 -0.3836
  788MOL0     H 6335   9.172   5.243   5.334  1.2970 -0.3065  2.1575
  788MOL0     H 6336   9.294   5.353   5.078 -1.0889  0.2804 -0.3932
  788MOL0     H 6337   9.130   5.276   5.086 -0.4658  2.2478 -0.8252
  788MOL0     H 6338   9.298   5.131   4.989 -1.4990  1.5184 -1.0533
  788MOL0     H 6339   9.220   5.064   5.142  0.5677  1.5139  2.1705
  788MOL0     H 6340   9.676   5.096   5.254 -0.5495  0.8339 -1.5832
  788MOL0     H 6341   9.843   4.911   5.209 -0.9625 -3.1982  1.4845
  788MOL0     H 6342   9.976   4.542   4.873  0.8653  0.2955 -0.9930
  788MOL0     H 6343  10.104   4.338   4.874  1.8897  1.9860 -1.8849
  788MOL0     H 6344  10.089   4.145   5.126  1.7753 -1.3556  4.2111
  788MOL0     H 6345  10.147   4.096   4.960  3.0302  3.6087 -1.6827
  788MOL0     H 6346  10.258   4.040   5.236  0.3229  1.3848 -0.7660
  788MOL0     H 6347  10.171   3.918   5.137 -1.3652  0.2699  0.6046
  788MOL0     H 6348  10.369   3.845   5.063  1.7773 -0.1293 -2.7090
  788MOL0     H 6349  10.364   3.987   4.964  2.7004  0.4636  0.2991
  788MOL0     H 6350  10.483   3.984   5.237 -1.5733  1.7442  1.0981
  788MOL0     H 6351  10.477   4.129   5.122  1.1476 -0.0295 -3.3470
  788MOL0     H 6352  10.688   4.047   5.084 -1.4664  1.6831 -2.2671
  788MOL0     H 6353  10.608   3.980   4.955  0.4534 -0.5891 -0.5812
  788MOL0     H 6354  10.595   3.803   5.193 -0.6175  3.8274  2.1950
  788MOL0     H 6355  10.602   3.767   5.017 -0.8184  1.1606 -0.8841
  788MOL0     H 6356  10.845   3.888   5.079  0.0901 -0.4091  0.5345
  788MOL0     H 6357  10.809   3.730   5.008 -0.2303 -2.0549  0.4197
  788MOL0     H 6358  10.826   3.827   5.295  1.3596  0.7643 -1.2195
  788MOL0     H 6359  10.795   3.656   5.252 -2.3023  1.3319  1.2893
  788MOL0     H 6360  10.216   4.383   5.280  2.0647  0.8514 -1.0442
  788MOL0     H 6361  10.062   4.608   5.290 -0.0831  3.7749 -2.2553
  788MOL0     H 6362   9.533   4.715   4.968 -1.0945  0.4613 -0.8688
  788MOL0     H 6363   9.397   4.908   4.989 -0.1542 -0.6609  1.9624
  788MOL0     H 6364   9.769   6.559   5.777 -0.6849 -1.7147  0.9733
  788MOL0     H 6365   9.984   6.625   5.894 -1.8320  2.8204 -0.5082
  788MOL0     H 6366  10.241   6.746   6.087  0.4057 -2.2731 -1.3628
  788MOL0     H 6367  10.472   6.824   6.156  2.5603 -1.8412 -1.1368
  788MOL0     H 6368  10.763   6.562   6.349  0.0905 -1.3875  0.9602
  788MOL0     H 6369  10.671   6.607   6.492 -2.1206 -1.4401 -1.9886
  788MOL0     H 6370  10.869   6.803   6.342  3.6444  1.6521  1.7271
  788MOL0     H 6371  10.916   6.690   6.461 -0.3693  1.1275  0.7628
  788MOL0     H 6372  10.909   6.862   6.601  1.5943  0.9183 -1.6652
  788MOL0     H 6373  10.736   6.816   6.613  0.5702  0.6011  0.3752
  788MOL0     H 6374  10.710   6.973   6.396  0.3072 -1.4835  0.7113
  788MOL0     H 6375  10.713   7.058   6.545 -0.5950  1.8376 -0.7619
  788MOL0     H 6376  11.107   7.152   6.408 -1.2932  1.3710 -1.3805
  788MOL0     H 6377  10.507   6.500   6.431  1.2829  0.0740  0.1030
  788MOL0     H 6378  10.331   6.389   6.505 -2.0133 -0.7420  1.3205
  788MOL0     H 6379  10.186   6.482   6.479  1.2533  0.8920  1.1176
  788MOL0     H 6380  10.241   6.326   6.373 -1.2205  0.2938 -1.0692
  789MOL0     O 6381   2.918   2.261   9.210  0.1062  0.5563  0.2913
  789MOL0     C 6382   2.867   2.148   9.217  0.4087 -0.0183 -0.3524
  789MOL0     O 6383   2.935   2.033   9.240  0.0856  0.0453 -0.3936
  789MOL0     C 6384   3.067   2.022   9.257 -0.6350 -0.3172  0.7087
  789MOL0     C 6385   3.134   1.962   9.361 -1.0555  0.5355  0.6106
  789MOL0     C 6386   3.273   1.946   9.361 -0.2130 -0.4191 -0.3077
  789MOL0     C 6387   3.350   2.000   9.262 -0.8094  0.9140 -0.2065
  789MOL0     O 6388   3.485   2.002   9.283 -0.0360 -0.4889  0.0771
  789MOL0     C 6389   3.568   2.102   9.217  0.8108 -0.3280  0.4050
  789MOL0     C 6390   3.704   2.120   9.289 -0.0341  0.0273 -0.0119
  789MOL0     C 6391   3.785   1.991   9.311  0.0648 -0.2868 -0.0567
  789MOL0     C 6392   3.806   1.889   9.197  0.7853 -0.1436  0.3277
  789MOL0     C 6393   3.908   1.783   9.239  0.0605 -0.4186  0.5772
  789MOL0     C 6394   3.920   1.667   9.142 -0.1116  0.2275  0.8964
  789MOL0     C 6395   4.004   1.561   9.209  0.1758 -0.1495 -0.5421
  789MOL0     C 6396   4.036   1.442   9.122 -0.1710 -0.2208 -0.3613
  789MOL0     N 6397   4.152   1.461   9.035  0.5032  0.6673  0.3452
  789MOL0     C 6398   4.276   1.487   9.082 -0.4213  0.3243 -0.3280
  789MOL0     C 6399   4.342   1.539   8.983 -0.5545  0.0550 -0.0358
  789MOL0     C 6400   4.492   1.569   8.986 -0.4664 -0.7414  1.1039
  789MOL0     C 6401   4.572   1.471   8.906 -0.4953  0.3309  1.0422
  789MOL0     C 6402   4.729   1.486   8.912 -0.0919 -0.0901  0.8067
  789MOL0     C 6403   4.786   1.601   8.827 -0.1791 -0.1415  0.6245
  789MOL0     O 6404   4.869   1.685   8.908  0.0863  0.4692  0.0491
  789MOL0     C 6405   4.998   1.645   8.933  0.1140 -0.3102 -0.5461
  789MOL0     C 6406   5.075   1.573   8.848  0.4234 -0.6585 -0.5236
  789MOL0     C 6407   5.202   1.541   8.878 -0.8227  1.1453 -0.0600
  789MOL0     C 6408   5.273   1.592   8.990  0.2582  0.6031 -0.6310
  789MOL0     C 6409   5.406   1.553   9.029  0.4764 -0.4291 -0.0257
  789MOL0     O 6410   5.454   1.442   8.970  0.1484 -0.0336  0.0423
  789MOL0     C 6411   5.579   1.398   8.998 -0.2768  0.0409 -0.7724
  789MOL0     C 6412   5.602   1.278   9.074 -0.2890 -0.6065 -1.1617
  789MOL0     C 6413   5.736   1.224   9.096 -0.6899 -0.7286  0.2293
  789MOL0     C 6414   5.849   1.297   9.053 -0.3579 -0.0595 -0.3861
  789MOL0     O 6415   5.982   1.270   9.073 -0.0830  0.2743 -0.1721
  789MOL0     C 6416   6.011   1.143   9.133 -0.5370  0.0691  0.1909
  789MOL0     C 6417   6.166   1.119   9.149 -0.3894  0.2270  0.0531
  789MOL0     C 6418   6.188   0.987   9.228 -1.0549  0.2995  0.8398
  789MOL0     C 6419   6.341   0.962   9.247  0.4172 -0.0776  0.0413
  789MOL0     C 6420   6.363   0.869   9.363  0.1571 -0.1493  0.1782
  789MOL0     C 6421   6.509   0.836   9.392 -0.7423 -0.3599  0.0146
  789MOL0     C 6422   6.603   0.770   9.286 -0.5596 -0.0458 -0.3222
  789MOL0     C 6423   6.726   0.706   9.335 -0.3715  0.8139 -0.8127
  789MOL0    Cl 6424   6.811   0.823   9.442 -0.1905 -0.2141 -0.1861
  789MOL0     C 6425   5.825   1.412   8.974  0.2454 -0.0662 -0.2522
  789MOL0     C 6426   5.696   1.459   8.952 -0.3542 -0.1782  0.5645
  789MOL0     O 6427   5.469   1.631   9.106  0.5034  0.2778  0.2532
  789MOL0     C 6428   5.196   1.670   9.075  0.5340  0.4825 -0.2738
  789MOL0     C 6429   5.059   1.695   9.048 -0.3182 -0.7374 -0.1930
  789MOL0     N 6430   4.264   1.545   8.871  0.2378  0.3068 -0.2751
  789MOL0     N 6431   4.149   1.502   8.901 -0.4182 -0.2768  0.3092
  789MOL0     C 6432   3.282   2.064   9.154  0.1387 -0.3999 -0.2981
  789MOL0     C 6433   3.146   2.071   9.150 -0.2165  0.9531 -0.5734
  789MOL0     C 6434   2.727   2.142   9.260  0.0406 -0.3404 -0.6301
  789MOL0     C 6435   2.687   2.048   9.354 -0.9753  0.1224  0.9605
  789MOL0     C 6436   2.554   2.037   9.394 -0.1619  0.4923  0.0078
  789MOL0     C 6437   2.458   2.114   9.330  0.0559  0.3724  0.9077
  789MOL0     O 6438   2.323   2.089   9.349  0.5923  0.0564 -0.3987
  789MOL0     C 6439   2.269   2.000   9.451  0.1969 -0.2354 -0.0295
  789MOL0     C 6440   2.116   2.028   9.467 -0.0745 -0.1395 -0.2444
  789MOL0     C 6441   2.066   2.167   9.504 -0.3729  0.1323 -0.9153
  789MOL0     C 6442   2.151   2.233   9.628  0.2906  0.6809  0.4456
  789MOL0     C 6443   2.152   2.151   9.750 -0.8303 -0.6500  0.0487
  789MOL0     C 6444   2.130   2.093   9.855 -0.7311 -0.2213 -0.5569
  789MOL0     C 6445   2.493   2.207   9.233  0.3208  0.1539 -0.3697
  789MOL0     C 6446   2.626   2.207   9.186  0.0924 -0.1170  0.0374
  789MOL0     C 6447   2.649   2.278   9.051 -0.0672 -0.0422 -0.3008
  789MOL0     H 6448   3.070   1.945   9.447 -0.8931 -1.2590  0.4014
  789MOL0     H 6449   3.328   1.921   9.451  3.0183  3.0306 -1.0778
  789MOL0     H 6450   3.585   2.084   9.111  1.2458  2.2346 -0.0049
  789MOL0     H 6451   3.516   2.198   9.220 -0.4512 -0.9233 -1.2343
  789MOL0     H 6452   3.699   2.171   9.385  0.4065  2.6249 -1.2844
  789MOL0     H 6453   3.760   2.188   9.224 -0.8858  0.3383 -0.4351
  789MOL0     H 6454   3.737   1.938   9.393  1.1056 -1.7390 -0.3365
  789MOL0     H 6455   3.890   2.005   9.339  0.0702 -2.7263  1.4684
  789MOL0     H 6456   3.711   1.837   9.181 -0.2143  1.9791 -1.0284
  789MOL0     H 6457   3.834   1.937   9.103  0.1885  0.5811  0.5154
  789MOL0     H 6458   4.004   1.833   9.251  0.1169  0.9660 -4.0403
  789MOL0     H 6459   3.867   1.756   9.338 -2.2113 -2.4622 -0.7988
  789MOL0     H 6460   3.818   1.632   9.128 -0.4170  1.1606  0.7485
  789MOL0     H 6461   3.978   1.696   9.054  3.3435 -1.2798  2.4915
  789MOL0     H 6462   3.956   1.523   9.299  2.8928  1.0416  1.5581
  789MOL0     H 6463   4.095   1.605   9.251  1.0067 -0.6794 -1.7174
  789MOL0     H 6464   4.047   1.361   9.195 -1.5942 -0.5242 -0.4508
  789MOL0     H 6465   3.955   1.426   9.051 -0.7846 -0.4407  0.3781
  789MOL0     H 6466   4.316   1.473   9.182  3.2635 -0.8865 -1.8110
  789MOL0     H 6467   4.508   1.666   8.937 -0.5103 -2.2070 -2.0274
  789MOL0     H 6468   4.532   1.589   9.086 -2.4154  2.8202  1.3670
  789MOL0     H 6469   4.545   1.373   8.946 -0.6324  0.1702  0.5673
  789MOL0     H 6470   4.545   1.471   8.800  0.4220 -2.7962  0.7170
  789MOL0     H 6471   4.790   1.401   8.882 -0.8656  0.6651 -3.5715
  789MOL0     H 6472   4.753   1.506   9.017 -0.2217  2.3895  0.4350
  789MOL0     H 6473   4.706   1.664   8.787  1.7416  2.3489  0.4472
  789MOL0     H 6474   4.835   1.549   8.744  0.2232  0.3650  0.5323
  789MOL0     H 6475   5.035   1.547   8.751 -2.0442 -4.0770  1.2274
  789MOL0     H 6476   5.251   1.480   8.803 -0.2257  1.5559 -0.0107
  789MOL0     H 6477   5.511   1.236   9.116  0.1984  0.0691  0.6996
  789MOL0     H 6478   5.752   1.138   9.160  0.4886 -1.1090 -0.5479
  789MOL0     H 6479   5.957   1.126   9.227  0.1793  2.6117  1.1455
  789MOL0     H 6480   5.985   1.062   9.065  0.6878  0.0340 -0.2565
  789MOL0     H 6481   6.216   1.118   9.052  0.1240  2.5381  0.2337
  789MOL0     H 6482   6.207   1.206   9.201  3.7803 -1.2324 -0.4130
  789MOL0     H 6483   6.137   1.000   9.324 -2.1869  0.5763  0.2192
  789MOL0     H 6484   6.142   0.905   9.172  1.2863 -0.1134 -0.6291
  789MOL0     H 6485   6.382   1.060   9.275  1.3919 -1.0748  2.2796
  789MOL0     H 6486   6.389   0.926   9.155 -0.4490  0.1153 -0.4946
  789MOL0     H 6487   6.314   0.774   9.338  0.0430  0.0232 -0.2670
  789MOL0     H 6488   6.298   0.904   9.444 -2.7946 -0.0024 -2.0802
  789MOL0     H 6489   6.562   0.926   9.424  4.8746 -2.6131 -1.7816
  789MOL0     H 6490   6.507   0.773   9.481 -3.0843 -1.2112 -0.5577
  789MOL0     H 6491   6.624   0.842   9.205  0.8451 -2.9736 -2.7653
  789MOL0     H 6492   6.543   0.695   9.233 -0.4822  0.9579 -1.9109
  789MOL0     H 6493   6.700   0.624   9.401  0.3315  1.8393  0.8127
  789MOL0     H 6494   6.796   0.672   9.257 -0.5926 -0.2489 -0.5577
  789MOL0     H 6495   5.910   1.463   8.929  0.2106  0.0815 -0.1496
  789MOL0     H 6496   5.681   1.552   8.898 -3.3223 -1.3706 -0.8765
  789MOL0     H 6497   5.238   1.713   9.166  2.1672  0.4321 -0.9549
  789MOL0     H 6498   4.994   1.747   9.117  0.6209  3.2008 -1.9786
  789MOL0     H 6499   3.335   2.130   9.086  0.4377  0.7025  0.9748
  789MOL0     H 6500   3.117   2.117   9.057  2.1037 -1.6022 -2.7788
  789MOL0     H 6501   2.756   1.982   9.406  0.1059  1.2007  0.9654
  789MOL0     H 6502   2.514   1.962   9.461 -1.9123  1.0843 -0.3072
  789MOL0     H 6503   2.318   2.018   9.547  1.6261 -1.5032 -0.4934
  789MOL0     H 6504   2.291   1.895   9.427  0.5892 -0.2391  0.3466
  789MOL0     H 6505   2.066   1.966   9.543 -2.5158 -1.8120 -3.0314
  789MOL0     H 6506   2.070   1.989   9.376  0.5850 -0.6670 -0.3646
  789MOL0     H 6507   1.960   2.170   9.529 -0.2417  1.1858 -0.4394
  789MOL0     H 6508   2.076   2.231   9.416 -1.7502  1.6211 -0.0475
  789MOL0     H 6509   2.254   2.251   9.596  1.6589 -3.3379  1.9945
  789MOL0     H 6510   2.112   2.333   9.646 -0.7302 -0.0266  2.4159
  789MOL0     H 6511   2.112   2.042   9.947  1.9618 -0.2279  0.0614
  789MOL0     H 6512   2.408   2.249   9.181 -0.5283 -0.1591  0.7240
  789MOL0     H 6513   2.679   2.382   9.069 -1.0237 -0.4044  4.7980
  789MOL0     H 6514   2.722   2.224   8.990 -1.3790 -2.4544  0.1288
  789MOL0     H 6515   2.557   2.289   8.993  0.4258 -0.5887 -1.2112
  790MOL0     O 6516   2.055   8.432   2.639  0.0855  0.3168 -0.4486
  790MOL0     C 6517   2.147   8.354   2.672  0.7792  0.7121  0.0793
  790MOL0     O 6518   2.156   8.304   2.800 -0.5136  0.4218 -0.0473
  790MOL0     C 6519   2.062   8.334   2.892 -0.6802 -0.4537 -0.3006
  790MOL0     C 6520   2.037   8.237   2.988  0.9635  0.7378  0.5504
  790MOL0     C 6521   1.951   8.249   3.092 -0.7818  0.0232 -0.4712
  790MOL0     C 6522   1.904   8.373   3.124  0.1179  0.5571  0.1317
  790MOL0     O 6523   1.834   8.391   3.243 -0.2932 -0.2890 -0.3807
  790MOL0     C 6524   1.749   8.510   3.257 -1.2399 -0.3715 -1.1331
  790MOL0     C 6525   1.638   8.455   3.344  0.0939 -0.5987  0.2420
  790MOL0     C 6526   1.528   8.566   3.361 -0.0138 -0.0124 -0.6922
  790MOL0     C 6527   1.437   8.540   3.482  0.2244 -0.0269  1.2323
  790MOL0     C 6528   1.328   8.657   3.495  0.7330 -0.4261 -0.2603
  790MOL0     C 6529   1.206   8.610   3.585  0.2528 -0.1095 -0.2436
  790MOL0     C 6530   1.092   8.710   3.604  0.8885 -0.3076 -0.3262
  790MOL0     C 6531   1.119   8.832   3.701 -0.3129  0.1607 -0.8042
  790MOL0     N 6532   1.197   8.938   3.631  0.6906  0.1960 -0.0146
  790MOL0     C 6533   1.174   8.970   3.499  0.6075 -0.2136 -0.9662
  790MOL0     C 6534   1.266   9.071   3.474 -0.3086  0.2684 -0.5013
  790MOL0     C 6535   1.298   9.110   3.332  0.0911 -0.1535 -0.9162
  790MOL0     C 6536   1.321   8.981   3.244  0.4243 -0.1415  0.3510
  790MOL0     C 6537   1.341   9.019   3.095  0.0811  0.2125  0.0174
  790MOL0     C 6538   1.452   9.119   3.075  0.2274  0.1960  0.2694
  790MOL0     O 6539   1.573   9.074   3.138  0.0552 -0.2072 -0.2822
  790MOL0     C 6540   1.681   9.040   3.056  0.6275  0.6164 -0.0440
  790MOL0     C 6541   1.727   9.105   2.941 -0.3579  0.1027 -0.2030
  790MOL0     C 6542   1.839   9.055   2.872 -0.1518  0.2258  0.1509
  790MOL0     C 6543   1.909   8.944   2.910 -0.1129 -0.1442  0.5738
  790MOL0     C 6544   2.045   8.922   2.847 -0.5638  0.9145 -0.0485
  790MOL0     O 6545   2.106   8.804   2.870 -0.7109 -0.3185 -0.0209
  790MOL0     C 6546   2.212   8.770   2.793 -1.2309 -0.8817  0.5838
  790MOL0     C 6547   2.345   8.797   2.841 -0.1446  0.2915  0.1546
  790MOL0     C 6548   2.456   8.772   2.761 -0.0906 -0.0372 -0.3106
  790MOL0     C 6549   2.442   8.709   2.631  0.2836  0.0688 -0.0363
  790MOL0     O 6550   2.557   8.695   2.556  0.0615 -0.1787  0.5319
  790MOL0     C 6551   2.555   8.699   2.417 -0.0002 -0.8960 -0.9844
  790MOL0     C 6552   2.698   8.689   2.389 -0.9688 -0.1218  0.1502
  790MOL0     C 6553   2.796   8.795   2.457 -0.1130  0.4822 -0.1289
  790MOL0     C 6554   2.941   8.771   2.397 -0.0065  0.1064  0.4194
  790MOL0     C 6555   3.031   8.896   2.424  0.5596  0.2483  0.2983
  790MOL0     C 6556   3.184   8.882   2.385 -0.7126  0.2235  0.5012
  790MOL0     C 6557   3.218   8.802   2.255 -1.0276  0.0282  0.5657
  790MOL0     C 6558   3.367   8.818   2.230 -0.2976 -0.3023  0.8046
  790MOL0    Cl 6559   3.456   8.763   2.378  0.0702 -0.1244  0.1178
  790MOL0     C 6560   2.307   8.682   2.584 -0.2260  0.2534 -0.5404
  790MOL0     C 6561   2.197   8.711   2.667 -0.2438  0.1705  0.5373
  790MOL0     O 6562   2.094   9.016   2.784 -0.1803  0.0983 -0.3106
  790MOL0     C 6563   1.870   8.884   3.031 -0.7273  0.1711 -0.2760
  790MOL0     C 6564   1.764   8.935   3.106  0.7154 -0.6012 -0.2784
  790MOL0     N 6565   1.337   9.102   3.589  1.2454  0.0589  0.2246
  790MOL0     N 6566   1.292   9.027   3.684  0.2322  0.4263 -0.2288
  790MOL0     C 6567   1.941   8.480   3.043  0.2198 -0.2133  0.0940
  790MOL0     C 6568   2.015   8.464   2.924  0.9433 -1.1455  0.5167
  790MOL0     C 6569   2.259   8.327   2.577  0.0126  0.1143  1.1119
  790MOL0     C 6570   2.385   8.323   2.632  0.2473  0.2265 -1.2577
  790MOL0     C 6571   2.505   8.308   2.558  0.2438 -0.1084  0.0717
  790MOL0     C 6572   2.495   8.295   2.420  0.4121  0.0269  0.2286
  790MOL0     O 6573   2.616   8.292   2.358 -0.8203  0.3034 -0.3911
  790MOL0     C 6574   2.614   8.339   2.221 -0.9168  0.4031 -0.3974
  790MOL0     C 6575   2.752   8.350   2.162 -0.1318  0.1751  0.5985
  790MOL0     C 6576   2.769   8.406   2.022 -0.3387  0.6127  1.0520
  790MOL0     C 6577   2.751   8.555   2.003 -0.0564 -0.1876  0.4686
  790MOL0     C 6578   2.807   8.611   1.878 -0.3526 -0.3694  0.5830
  790MOL0     C 6579   2.864   8.649   1.780  0.5986  0.5921  0.2268
  790MOL0     C 6580   2.367   8.293   2.358 -0.2711 -0.2223 -0.2751
  790MOL0     C 6581   2.248   8.311   2.436  0.2076  0.5521  0.2081
  790MOL0     C 6582   2.123   8.330   2.358  0.2280 -0.0731  0.0196
  790MOL0     H 6583   2.071   8.138   2.960 -0.8874  0.4188 -0.7880
  790MOL0     H 6584   1.936   8.165   3.160  1.7025 -0.1184  0.0016
  790MOL0     H 6585   1.794   8.602   3.297 -2.2255 -0.6091  0.6408
  790MOL0     H 6586   1.713   8.538   3.158  0.4042  1.7474 -1.2126
  790MOL0     H 6587   1.681   8.419   3.438  1.1089 -1.0211 -0.3689
  790MOL0     H 6588   1.582   8.371   3.301 -2.4356  1.8174 -1.5380
  790MOL0     H 6589   1.463   8.565   3.273  1.5707 -1.8118 -1.8891
  790MOL0     H 6590   1.560   8.671   3.368  2.0490 -0.6862  1.3976
  790MOL0     H 6591   1.373   8.452   3.483  0.4197 -0.1672  1.4685
  790MOL0     H 6592   1.486   8.536   3.580  2.4334  1.0438  0.2230
  790MOL0     H 6593   1.374   8.745   3.542 -1.1883  0.7217 -0.4352
  790MOL0     H 6594   1.292   8.678   3.394  1.9248  2.6736 -0.1648
  790MOL0     H 6595   1.162   8.515   3.553  1.8813 -1.6951  1.8898
  790MOL0     H 6596   1.257   8.591   3.680  1.2646  0.3467 -0.6691
  790MOL0     H 6597   1.021   8.651   3.663 -2.0979  3.5647  0.4591
  790MOL0     H 6598   1.028   8.724   3.516 -0.0213  1.0025  0.4975
  790MOL0     H 6599   1.025   8.874   3.736 -0.2500  0.1807 -0.6570
  790MOL0     H 6600   1.185   8.799   3.782 -1.4970 -2.0933 -0.6782
  790MOL0     H 6601   1.110   8.912   3.433 -1.7813  0.3807  0.6911
  790MOL0     H 6602   1.211   9.165   3.296  0.8199  1.5211 -0.1900
  790MOL0     H 6603   1.380   9.182   3.328  0.1817  0.1442  2.6586
  790MOL0     H 6604   1.407   8.927   3.284 -1.1886 -1.7114  1.9355
  790MOL0     H 6605   1.242   8.905   3.245 -0.5902  0.7729 -2.2142
  790MOL0     H 6606   1.244   9.057   3.059 -1.4883 -2.0900  1.5650
  790MOL0     H 6607   1.375   8.936   3.033 -1.3767  0.4252 -1.1490
  790MOL0     H 6608   1.430   9.219   3.114 -2.4260 -0.5034  0.7223
  790MOL0     H 6609   1.461   9.138   2.968 -1.1149  1.1250  0.3055
  790MOL0     H 6610   1.688   9.198   2.902  0.6568  1.8677  2.6408
  790MOL0     H 6611   1.880   9.125   2.800 -2.4705 -0.4837 -1.9992
  790MOL0     H 6612   2.356   8.839   2.940  2.3682  0.8873 -0.2964
  790MOL0     H 6613   2.553   8.812   2.789  0.3763 -1.2906 -0.0433
  790MOL0     H 6614   2.502   8.617   2.367  0.1060 -1.6689  0.1354
  790MOL0     H 6615   2.525   8.797   2.380 -0.4331 -0.5253  0.3256
  790MOL0     H 6616   2.727   8.584   2.395  0.4891  0.1357 -1.5078
  790MOL0     H 6617   2.703   8.696   2.280 -1.7464 -1.9766 -0.0353
  790MOL0     H 6618   2.763   8.893   2.422 -0.2139  0.2351 -0.7337
  790MOL0     H 6619   2.788   8.796   2.566  1.0818 -1.6227  0.0251
  790MOL0     H 6620   2.940   8.754   2.288  3.6345 -0.4088  0.3421
  790MOL0     H 6621   2.977   8.677   2.439 -0.1260  0.2135  0.7579
  790MOL0     H 6622   3.000   8.926   2.524 -0.6445  0.5881 -0.1578
  790MOL0     H 6623   2.991   8.973   2.357 -2.4477 -0.5459  1.0377
  790MOL0     H 6624   3.222   8.984   2.377 -0.4507  0.0318 -1.0619
  790MOL0     H 6625   3.231   8.834   2.472 -0.0085  1.9933  1.1373
  790MOL0     H 6626   3.173   8.835   2.162 -0.6029 -0.2445  0.2577
  790MOL0     H 6627   3.193   8.697   2.275  1.4399 -1.1888 -2.0731
  790MOL0     H 6628   3.400   8.775   2.135 -1.2266  3.2800 -1.3295
  790MOL0     H 6629   3.387   8.924   2.212  0.1617 -0.5100  0.0232
  790MOL0     H 6630   2.297   8.629   2.490  1.3093  1.7034 -1.5805
  790MOL0     H 6631   2.099   8.686   2.628  0.2204 -1.2381  0.2051
  790MOL0     H 6632   1.930   8.802   3.070 -2.4991 -1.9336 -1.7392
  790MOL0     H 6633   1.735   8.875   3.192 -0.7298  0.0578 -0.2732
  790MOL0     H 6634   1.897   8.579   3.057  1.7334  0.2523  2.1031
  790MOL0     H 6635   2.025   8.552   2.862 -1.3366 -0.9549  0.3251
  790MOL0     H 6636   2.392   8.345   2.738 -2.3001 -0.4840 -0.8873
  790MOL0     H 6637   2.601   8.319   2.606  0.0976 -1.7152  0.8207
  790MOL0     H 6638   2.554   8.431   2.219 -2.8490 -0.7550  0.7974
  790MOL0     H 6639   2.560   8.264   2.161 -2.2556  2.0629 -1.3626
  790MOL0     H 6640   2.799   8.252   2.173  0.6632  0.4156 -0.5039
  790MOL0     H 6641   2.820   8.401   2.231  4.1729 -2.3822 -1.3537
  790MOL0     H 6642   2.700   8.351   1.958 -0.0822  1.9143 -0.3873
  790MOL0     H 6643   2.868   8.379   1.982 -0.9556  1.2707 -1.0089
  790MOL0     H 6644   2.646   8.582   2.018 -0.0392 -1.0599  2.5972
  790MOL0     H 6645   2.793   8.599   2.095 -0.3016  0.2240  0.3873
  790MOL0     H 6646   2.932   8.676   1.702  2.7403 -2.6342  0.7621
  790MOL0     H 6647   2.361   8.299   2.250  1.5541 -2.0863 -0.5557
  790MOL0     H 6648   2.064   8.413   2.397  2.0587 -0.0229  2.9989
  790MOL0     H 6649   2.142   8.339   2.250  0.5963 -0.6159  0.0374
  790MOL0     H 6650   2.054   8.246   2.374 -1.4944  1.2085 -0.3845
  791MOL0     O 6651   7.162   2.031   5.978  0.5992  0.5680 -0.0439
  791MOL0     C 6652   7.109   2.003   6.086 -0.1289 -0.7082 -0.0677
  791MOL0     O 6653   7.167   1.919   6.179  0.0439  1.1704 -0.7259
  791MOL0     C 6654   7.304   1.908   6.174 -0.2029 -0.1992  0.0437
  791MOL0     C 6655   7.377   1.856   6.066 -0.4962  0.6181 -0.2028
  791MOL0     C 6656   7.515   1.841   6.072 -0.0133  0.6831  0.7730
  791MOL0     C 6657   7.585   1.894   6.177 -1.5223  0.9955  0.0875
  791MOL0     O 6658   7.721   1.889   6.183  0.0725 -0.0328  0.3440
  791MOL0     C 6659   7.765   1.810   6.298 -0.0344  0.0976 -0.4438
  791MOL0     C 6660   7.899   1.736   6.284 -0.9466 -0.2691 -0.5788
  791MOL0     C 6661   7.876   1.637   6.172 -0.2748 -0.3132  1.0754
  791MOL0     C 6662   8.011   1.575   6.134  0.7671 -0.5054 -0.2476
  791MOL0     C 6663   7.985   1.426   6.094 -0.5794 -0.6359  0.7392
  791MOL0     C 6664   7.871   1.406   5.990  0.2563 -0.2069 -0.3619
  791MOL0     C 6665   7.885   1.274   5.924 -0.2873 -0.4898 -0.5614
  791MOL0     C 6666   8.000   1.266   5.820  0.9067  0.0781 -0.7478
  791MOL0     N 6667   8.133   1.241   5.877  0.5753 -0.2145  0.0315
  791MOL0     C 6668   8.236   1.333   5.877 -0.0382 -0.9898 -0.0966
  791MOL0     C 6669   8.349   1.262   5.915 -0.1175  0.5533  0.2591
  791MOL0     C 6670   8.492   1.310   5.941 -0.0628  0.1703 -1.1972
  791MOL0     C 6671   8.503   1.398   6.064  0.2424  0.3867 -0.2480
  791MOL0     C 6672   8.464   1.333   6.200  0.4650 -0.1600  0.6586
  791MOL0     C 6673   8.455   1.431   6.321 -0.0986 -0.8501  0.4615
  791MOL0     O 6674   8.412   1.566   6.286 -0.4343  0.6284  0.1512
  791MOL0     C 6675   8.350   1.642   6.379  0.2227  0.0342 -0.6804
  791MOL0     C 6676   8.285   1.754   6.330  0.2347 -0.3377  0.3146
  791MOL0     C 6677   8.198   1.830   6.420 -0.0057 -0.2274 -0.1225
  791MOL0     C 6678   8.184   1.795   6.554  0.2954  0.0599  0.5050
  791MOL0     C 6679   8.083   1.852   6.642 -0.4139  0.0620  0.0769
  791MOL0     O 6680   8.104   1.834   6.766  0.9775  0.4845 -0.2468
  791MOL0     C 6681   8.010   1.893   6.855 -0.3644  1.1238  0.9392
  791MOL0     C 6682   8.055   2.004   6.935 -0.1071 -0.1091  0.4360
  791MOL0     C 6683   7.974   2.045   7.040 -0.1486 -0.1258 -0.1124
  791MOL0     C 6684   7.851   1.988   7.070 -1.1586 -0.4428 -0.0970
  791MOL0     O 6685   7.780   2.020   7.187 -0.0382 -0.3582 -0.1206
  791MOL0     C 6686   7.663   1.945   7.224 -0.6917 -0.2048  0.0909
  791MOL0     C 6687   7.625   1.985   7.367  0.1436 -0.6427  0.1878
  791MOL0     C 6688   7.504   1.892   7.421 -0.0843  0.7933  0.2927
  791MOL0     C 6689   7.450   1.933   7.557 -0.6057  0.6972  0.0774
  791MOL0     C 6690   7.361   2.052   7.543  0.0303  0.6230 -0.8558
  791MOL0     C 6691   7.258   2.082   7.658 -0.5719  0.0445  0.4364
  791MOL0     C 6692   7.187   1.961   7.714  0.1670 -0.2206  0.3302
  791MOL0     C 6693   7.043   1.995   7.754  0.2784 -0.0413  0.3899
  791MOL0    Cl 6694   6.969   1.837   7.788 -0.3548 -0.1341  0.0789
  791MOL0     C 6695   7.809   1.890   6.983  0.6749  0.4009  0.2922
  791MOL0     C 6696   7.885   1.847   6.871 -0.3575  0.3049 -0.1103
  791MOL0     O 6697   7.995   1.928   6.598 -0.3462  0.1731 -0.1388
  791MOL0     C 6698   8.263   1.695   6.607 -0.5731  0.6833 -0.1558
  791MOL0     C 6699   8.349   1.623   6.521 -0.4684  0.5049 -0.9590
  791MOL0     N 6700   8.310   1.132   5.954 -0.3363 -0.0182 -0.1489
  791MOL0     N 6701   8.185   1.124   5.927 -0.4829 -0.7296 -0.4709
  791MOL0     C 6702   7.519   1.954   6.283 -0.0788  0.4303 -0.1151
  791MOL0     C 6703   7.381   1.953   6.281  0.1133  0.6787 -0.7679
  791MOL0     C 6704   6.974   2.034   6.102  0.0404 -0.6708 -0.3269
  791MOL0     C 6705   6.892   1.941   6.170 -0.9470  0.6979  0.6381
  791MOL0     C 6706   6.761   1.969   6.199  0.5495 -0.2491  1.3944
  791MOL0     C 6707   6.706   2.097   6.157 -0.2627  0.1022 -0.2252
  791MOL0     O 6708   6.578   2.142   6.184  0.2740  0.5826  0.1974
  791MOL0     C 6709   6.531   2.104   6.311 -0.5597  0.7833  0.1028
  791MOL0     C 6710   6.402   2.171   6.340 -0.3687  0.0872 -0.8476
  791MOL0     C 6711   6.286   2.133   6.258 -0.2652  0.9475  0.0942
  791MOL0     C 6712   6.157   2.170   6.335  0.5171  0.3261  0.9639
  791MOL0     C 6713   6.042   2.179   6.244 -0.0786  1.0477 -0.9536
  791MOL0     C 6714   5.943   2.161   6.180 -0.0537 -0.6772  0.5588
  791MOL0     C 6715   6.791   2.187   6.083  0.2826 -0.3853 -0.6322
  791MOL0     C 6716   6.916   2.156   6.048 -0.0021 -0.3267  0.0216
  791MOL0     C 6717   7.001   2.264   5.976  0.1556 -0.6082 -0.0595
  791MOL0     H 6718   7.324   1.830   5.976  1.6851 -3.2471 -0.5747
  791MOL0     H 6719   7.556   1.805   5.978 -1.5636  0.7473  0.0229
  791MOL0     H 6720   7.774   1.878   6.383  0.2788 -0.2969 -0.1547
  791MOL0     H 6721   7.686   1.741   6.330  1.6574 -0.8486  1.9443
  791MOL0     H 6722   7.933   1.693   6.379 -0.1899  0.5498 -0.4717
  791MOL0     H 6723   7.978   1.805   6.254 -1.0740 -1.3161 -3.6767
  791MOL0     H 6724   7.840   1.679   6.078  2.5099 -0.9209 -0.3858
  791MOL0     H 6725   7.812   1.555   6.203 -1.6986  0.7232  0.9565
  791MOL0     H 6726   8.064   1.637   6.061  0.8214  2.2156  1.9358
  791MOL0     H 6727   8.075   1.582   6.222  0.9965  0.5877 -0.4764
  791MOL0     H 6728   8.080   1.379   6.066  0.0805  0.5597  0.9026
  791MOL0     H 6729   7.952   1.371   6.183  0.6803 -1.4043  0.7438
  791MOL0     H 6730   7.768   1.416   6.026 -0.1094 -0.9131 -1.1709
  791MOL0     H 6731   7.886   1.481   5.911 -0.6581  1.8982  1.3533
  791MOL0     H 6732   7.792   1.259   5.869 -1.1778  1.4333  0.3047
  791MOL0     H 6733   7.904   1.206   6.008 -1.6801 -0.4184 -0.1616
  791MOL0     H 6734   7.984   1.183   5.750  1.1308  0.5276 -1.3374
  791MOL0     H 6735   8.001   1.352   5.753  3.2947 -1.8114 -3.3653
  791MOL0     H 6736   8.237   1.435   5.840  0.6688 -0.8602  0.2588
  791MOL0     H 6737   8.560   1.227   5.960 -1.6985 -0.6888  1.3038
  791MOL0     H 6738   8.524   1.365   5.852 -0.4740  0.8517 -0.9291
  791MOL0     H 6739   8.603   1.441   6.053 -0.3817  1.6498 -1.3372
  791MOL0     H 6740   8.432   1.479   6.041  1.3372  1.7506  0.9772
  791MOL0     H 6741   8.523   1.245   6.230 -1.2679 -2.6428 -2.5195
  791MOL0     H 6742   8.365   1.288   6.183  1.2572 -1.6681 -0.2361
  791MOL0     H 6743   8.552   1.451   6.367  0.7313 -1.7100 -0.8257
  791MOL0     H 6744   8.384   1.385   6.391 -0.9511 -1.1869 -0.6017
  791MOL0     H 6745   8.298   1.783   6.226  0.6928 -2.6620 -0.3367
  791MOL0     H 6746   8.132   1.902   6.374  0.0536 -0.2383 -0.2239
  791MOL0     H 6747   8.152   2.051   6.928  0.5158 -1.6553 -3.2146
  791MOL0     H 6748   8.014   2.113   7.115 -1.1803  0.9842 -0.5335
  791MOL0     H 6749   7.587   1.974   7.151  0.0862 -0.6676 -0.9436
  791MOL0     H 6750   7.670   1.836   7.219 -2.9261 -0.3639 -0.5798
  791MOL0     H 6751   7.717   1.972   7.425 -1.2049  0.4206  2.6893
  791MOL0     H 6752   7.587   2.088   7.364 -0.3053 -0.7490  1.6608
  791MOL0     H 6753   7.427   1.890   7.344  0.7169 -1.5037 -0.5261
  791MOL0     H 6754   7.546   1.791   7.429 -1.1568  0.1192 -1.8828
  791MOL0     H 6755   7.528   1.953   7.632 -2.2082  1.6635  1.5902
  791MOL0     H 6756   7.393   1.848   7.596 -2.5355  1.9628  0.1488
  791MOL0     H 6757   7.306   2.048   7.448 -1.8668 -0.0279  0.2097
  791MOL0     H 6758   7.419   2.144   7.529  0.7608  0.1064 -1.2210
  791MOL0     H 6759   7.317   2.109   7.746 -0.0406  1.8127 -0.4272
  791MOL0     H 6760   7.195   2.159   7.614  0.7128 -1.2293 -4.2230
  791MOL0     H 6761   7.230   1.911   7.801 -1.1038 -0.2993  0.9286
  791MOL0     H 6762   7.181   1.887   7.634 -5.2929 -0.4423  0.6083
  791MOL0     H 6763   7.026   2.063   7.838 -0.3450 -0.5204  0.6628
  791MOL0     H 6764   6.993   2.041   7.668 -1.0298  0.8471  1.5810
  791MOL0     H 6765   7.703   1.868   6.992  0.5752  0.9112  0.4019
  791MOL0     H 6766   7.842   1.785   6.793  2.9371  0.2880 -2.1038
  791MOL0     H 6767   8.263   1.664   6.711  1.9741  3.1620  0.7119
  791MOL0     H 6768   8.404   1.542   6.569 -1.1815 -0.4244 -1.6663
  791MOL0     H 6769   7.576   1.989   6.369 -0.0457 -0.5189  0.2687
  791MOL0     H 6770   7.335   2.003   6.366  1.7711  1.0904 -0.0703
  791MOL0     H 6771   6.935   1.847   6.203 -1.2507  0.2206 -0.3056
  791MOL0     H 6772   6.701   1.901   6.259  0.6929  0.0508  1.8905
  791MOL0     H 6773   6.604   2.140   6.384  0.4172  1.1928 -1.0492
  791MOL0     H 6774   6.512   1.996   6.320  0.1495  0.5894 -0.6417
  791MOL0     H 6775   6.418   2.279   6.337  0.9781  0.0853  2.4331
  791MOL0     H 6776   6.379   2.160   6.446 -1.0408 -0.3239 -1.0241
  791MOL0     H 6777   6.294   2.031   6.220 -0.2742  0.4145  1.4819
  791MOL0     H 6778   6.301   2.197   6.170 -0.7294 -1.3598 -1.7635
  791MOL0     H 6779   6.136   2.101   6.418 -0.5788  0.4509  0.7935
  791MOL0     H 6780   6.161   2.265   6.390 -1.2507 -0.3563  2.3514
  791MOL0     H 6781   5.856   2.142   6.120  0.6261  1.2735 -1.1556
  791MOL0     H 6782   6.756   2.277   6.032  0.4715 -0.5690 -1.0856
  791MOL0     H 6783   7.029   2.213   5.883  1.7212 -3.4356  1.8086
  791MOL0     H 6784   6.951   2.359   5.955  0.7393 -0.1433  0.6021
  791MOL0     H 6785   7.089   2.296   6.033 -1.4336  3.9765  0.2322
  792MOL0     O 6786   7.930   6.894   3.077 -0.2804 -0.2912  0.4571
  792MOL0     C 6787   7.908   6.842   3.184  0.2023  0.4792  1.0871
  792MOL0     O 6788   7.953   6.711   3.221 -0.4921 -0.0378 -0.7158
  792MOL0     C 6789   8.060   6.648   3.156  0.0404  0.3988 -0.3174
  792MOL0     C 6790   8.019   6.525   3.119 -0.3774  0.7749  0.4815
  792MOL0     C 6791   8.107   6.454   3.035 -1.2094  0.7581  0.1300
  792MOL0     C 6792   8.227   6.508   2.995 -0.8271 -0.0395 -0.1877
  792MOL0     O 6793   8.328   6.446   2.922  0.1855  0.1935  0.4873
  792MOL0     C 6794   8.316   6.317   2.867  0.0751  0.1642 -0.5554
  792MOL0     C 6795   8.446   6.281   2.787  0.6646  0.2568 -0.1413
  792MOL0     C 6796   8.565   6.253   2.872  0.3906 -0.4146 -0.3503
  792MOL0     C 6797   8.697   6.301   2.800  0.3103  0.0715 -0.7250
  792MOL0     C 6798   8.820   6.279   2.892  0.9212 -0.0078 -0.1194
  792MOL0     C 6799   8.961   6.294   2.833  0.5310 -0.3238  0.7061
  792MOL0     C 6800   9.081   6.300   2.929 -0.1068  0.2318  0.2537
  792MOL0     C 6801   9.203   6.331   2.851  0.5667  0.0015 -0.1209
  792MOL0     N 6802   9.243   6.218   2.760 -0.5177  0.4091 -0.2768
  792MOL0     C 6803   9.208   6.190   2.629  0.3649  0.2755 -0.8556
  792MOL0     C 6804   9.286   6.091   2.593  1.0839  0.6692 -0.8264
  792MOL0     C 6805   9.274   6.030   2.452 -0.2771 -0.2453 -0.3747
  792MOL0     C 6806   9.353   6.093   2.330 -0.0942  0.2905 -0.4880
  792MOL0     C 6807   9.503   6.122   2.371  0.2378 -0.2131  0.5355
  792MOL0     C 6808   9.590   6.158   2.248  0.5655 -0.3117 -0.6242
  792MOL0     O 6809   9.716   6.216   2.284  0.2525 -0.2053  0.4290
  792MOL0     C 6810   9.819   6.134   2.328 -0.4531 -0.5055 -0.0996
  792MOL0     C 6811   9.822   5.995   2.313 -0.8715  0.0307  0.1308
  792MOL0     C 6812   9.926   5.923   2.361 -0.9114  0.5352 -0.3967
  792MOL0     C 6813  10.031   5.976   2.445  0.1127  0.4085  0.7533
  792MOL0     C 6814  10.132   5.885   2.496  0.5597  0.6877 -0.2042
  792MOL0     O 6815  10.124   5.751   2.465 -0.8805 -0.1341  0.0744
  792MOL0     C 6816  10.223   5.664   2.514  0.6034 -0.2296  0.3996
  792MOL0     C 6817  10.230   5.638   2.651  0.4091  0.2036 -0.3621
  792MOL0     C 6818  10.322   5.543   2.700 -0.7616 -0.4211 -0.2790
  792MOL0     C 6819  10.414   5.483   2.613 -1.2049 -0.3092  0.2249
  792MOL0     O 6820  10.507   5.399   2.678 -0.2451 -0.3751  0.0454
  792MOL0     C 6821  10.607   5.340   2.590 -0.5099 -0.2338  0.5281
  792MOL0     C 6822  10.706   5.255   2.668  0.1518 -0.4540  0.0750
  792MOL0     C 6823  10.644   5.122   2.719  0.0931 -0.3048 -0.3388
  792MOL0     C 6824  10.610   5.018   2.614  0.5436  0.4422 -0.5887
  792MOL0     C 6825  10.567   4.881   2.670 -0.7206 -1.3632  0.1723
  792MOL0     C 6826  10.536   4.770   2.573  1.3285 -0.0049  0.3747
  792MOL0     C 6827  10.455   4.656   2.639 -0.6972  0.0560  0.0834
  792MOL0     C 6828  10.421   4.540   2.548 -0.5753 -0.2372 -0.0340
  792MOL0    Cl 6829  10.377   4.400   2.646 -0.2819 -0.1362  0.4053
  792MOL0     C 6830  10.412   5.522   2.482 -0.6233 -0.0832 -0.2189
  792MOL0     C 6831  10.314   5.600   2.433 -0.7036  0.5084 -0.1339
  792MOL0     O 6832  10.221   5.936   2.553  0.9048 -0.9104  0.9065
  792MOL0     C 6833  10.033   6.116   2.454  0.8563  0.6055  0.1484
  792MOL0     C 6834   9.926   6.195   2.396 -0.6925 -0.2461 -0.3306
  792MOL0     N 6835   9.379   6.053   2.685 -0.6133 -0.6949 -0.3153
  792MOL0     N 6836   9.337   6.125   2.789 -0.2468  0.1253 -0.7500
  792MOL0     C 6837   8.259   6.630   3.029  0.6154 -1.0401  0.6911
  792MOL0     C 6838   8.169   6.710   3.104 -0.4930  0.8876 -0.9089
  792MOL0     C 6839   7.826   6.902   3.289 -0.0880  0.1904 -0.2022
  792MOL0     C 6840   7.773   6.820   3.402 -0.1322 -0.3749  0.2893
  792MOL0     C 6841   7.705   6.872   3.505 -0.7646 -0.0406  0.5509
  792MOL0     C 6842   7.699   7.009   3.529 -0.0132 -0.7443  0.0533
  792MOL0     O 6843   7.627   7.064   3.627  0.2422 -0.0762 -0.2432
  792MOL0     C 6844   7.529   7.167   3.583 -0.1962 -0.5309 -0.9729
  792MOL0     C 6845   7.450   7.157   3.452  0.1125 -0.3850 -0.1035
  792MOL0     C 6846   7.372   7.024   3.441  0.8614 -0.5898 -0.1119
  792MOL0     C 6847   7.277   7.041   3.326 -0.6340 -0.1096  0.3560
  792MOL0     C 6848   7.340   7.027   3.190 -0.3904  1.2591 -0.7678
  792MOL0     C 6849   7.398   7.021   3.088 -0.3972 -0.0715  0.2603
  792MOL0     C 6850   7.760   7.089   3.430  0.1253  0.0993 -0.3526
  792MOL0     C 6851   7.817   7.045   3.312 -0.6966  0.5344  0.0894
  792MOL0     C 6852   7.877   7.145   3.216 -0.2530 -0.3768 -0.4368
  792MOL0     H 6853   7.922   6.476   3.125  0.3714 -0.9930 -1.1153
  792MOL0     H 6854   8.084   6.354   3.000 -0.1273 -0.2075  2.0497
  792MOL0     H 6855   8.289   6.243   2.944 -0.2943  0.5429 -0.3173
  792MOL0     H 6856   8.231   6.313   2.798 -0.7604 -0.7562  0.4820
  792MOL0     H 6857   8.470   6.378   2.742  3.3254  1.7724  3.9857
  792MOL0     H 6858   8.423   6.210   2.707 -0.3971  0.3915  0.0288
  792MOL0     H 6859   8.570   6.145   2.888 -0.2926 -0.2616  1.0221
  792MOL0     H 6860   8.557   6.297   2.972  1.9428  1.0421 -0.8037
  792MOL0     H 6861   8.706   6.239   2.710 -1.0425  2.6670 -2.7746
  792MOL0     H 6862   8.686   6.406   2.772 -1.0631 -0.1566 -1.1324
  792MOL0     H 6863   8.814   6.352   2.973 -0.1784  0.7642 -0.8682
  792MOL0     H 6864   8.825   6.178   2.933  2.0082 -0.2101 -0.6954
  792MOL0     H 6865   8.964   6.204   2.770 -0.3057 -0.5386  0.9544
  792MOL0     H 6866   8.961   6.383   2.770  3.1127  1.4843  3.0489
  792MOL0     H 6867   9.089   6.198   2.969 -2.0023 -1.9445 -4.2192
  792MOL0     H 6868   9.083   6.382   3.002  3.5014  1.5348 -1.1160
  792MOL0     H 6869   9.189   6.417   2.785  1.6548 -1.9279 -3.0700
  792MOL0     H 6870   9.284   6.343   2.924  0.2411  1.3074  0.0520
  792MOL0     H 6871   9.126   6.225   2.567  0.9837  1.6819 -0.9362
  792MOL0     H 6872   9.301   5.927   2.477 -0.6848  0.2994  2.6958
  792MOL0     H 6873   9.168   6.020   2.426 -0.5698 -0.9817  1.0485
  792MOL0     H 6874   9.345   6.025   2.245  1.3826 -0.2000 -0.2703
  792MOL0     H 6875   9.299   6.183   2.301  1.1508  1.2360  0.0381
  792MOL0     H 6876   9.551   6.036   2.420  1.3481 -0.2487 -0.5789
  792MOL0     H 6877   9.506   6.200   2.448 -0.9576  0.4364 -0.0495
  792MOL0     H 6878   9.523   6.230   2.200 -1.7937 -1.2887  1.0579
  792MOL0     H 6879   9.604   6.076   2.177 -0.6866 -0.2520 -0.9717
  792MOL0     H 6880   9.738   5.948   2.262 -0.4752 -0.8497  0.2706
  792MOL0     H 6881   9.928   5.816   2.342  4.2712  0.0841  1.0585
  792MOL0     H 6882  10.151   5.665   2.720  0.5183 -1.6561  0.5329
  792MOL0     H 6883  10.332   5.517   2.805  0.8069 -0.3708 -0.3840
  792MOL0     H 6884  10.559   5.277   2.514  2.0914 -2.2910  0.4515
  792MOL0     H 6885  10.677   5.413   2.548 -1.3223 -0.1979 -0.8501
  792MOL0     H 6886  10.780   5.212   2.601  2.9661 -3.3650  4.5626
  792MOL0     H 6887  10.751   5.304   2.755 -1.3131 -0.6325  0.9704
  792MOL0     H 6888  10.718   5.076   2.786  2.4538  1.3422 -1.6584
  792MOL0     H 6889  10.551   5.152   2.767  0.2823 -1.8170  1.0821
  792MOL0     H 6890  10.699   4.994   2.554  1.1366 -1.5726  0.9995
  792MOL0     H 6891  10.533   5.051   2.545  0.0639 -0.2716 -0.4058
  792MOL0     H 6892  10.487   4.899   2.741 -0.4989 -1.3894  0.4314
  792MOL0     H 6893  10.646   4.850   2.739 -0.8691  0.4647  1.2083
  792MOL0     H 6894  10.500   4.817   2.482 -0.0063  0.6806  1.2186
  792MOL0     H 6895  10.628   4.728   2.531 -0.3170 -1.9244 -1.5331
  792MOL0     H 6896  10.362   4.702   2.673  0.3622  0.5341  2.5261
  792MOL0     H 6897  10.507   4.622   2.729  0.0911  3.5557  1.1231
  792MOL0     H 6898  10.354   4.552   2.463  1.0020 -0.3170 -1.3148
  792MOL0     H 6899  10.519   4.510   2.512 -1.4326 -0.3913 -2.3595
  792MOL0     H 6900  10.490   5.487   2.415  1.7450  0.5874  2.0101
  792MOL0     H 6901  10.316   5.612   2.325  2.6735  0.2410 -0.1978
  792MOL0     H 6902  10.110   6.152   2.522 -1.1937  1.5105  2.0982
  792MOL0     H 6903   9.931   6.304   2.399  2.3621 -0.2993  2.5126
  792MOL0     H 6904   8.352   6.681   3.004 -0.0972  1.4773  2.8353
  792MOL0     H 6905   8.192   6.813   3.129  0.2422  0.6017 -0.3674
  792MOL0     H 6906   7.791   6.713   3.394  1.1858 -0.1089 -0.7602
  792MOL0     H 6907   7.670   6.809   3.586 -1.9039  0.9744  0.8836
  792MOL0     H 6908   7.577   7.265   3.596 -2.4246  0.3290  1.8744
  792MOL0     H 6909   7.455   7.161   3.663  0.0983 -0.7151 -0.7132
  792MOL0     H 6910   7.509   7.171   3.361  0.9645  1.2999  0.6709
  792MOL0     H 6911   7.380   7.241   3.454  0.7748  0.2486 -1.7725
  792MOL0     H 6912   7.306   6.998   3.524 -1.1836 -1.8846 -2.0310
  792MOL0     H 6913   7.449   6.948   3.422 -0.3608 -1.8452 -0.1790
  792MOL0     H 6914   7.195   6.968   3.329 -1.6639  0.6666 -3.3588
  792MOL0     H 6915   7.225   7.137   3.315  0.3195  0.3388 -0.3241
  792MOL0     H 6916   7.458   7.013   3.000 -1.2664 -2.5633 -0.2012
  792MOL0     H 6917   7.760   7.195   3.453 -0.0262 -0.1542  0.8750
  792MOL0     H 6918   7.985   7.142   3.230 -0.3499 -1.6633  0.1982
  792MOL0     H 6919   7.874   7.121   3.109  1.9721 -0.7460 -0.4495
  792MOL0     H 6920   7.836   7.243   3.244 -1.6078 -0.1013 -3.0789
  793MOL0     O 6921   8.336   2.561  10.957 -0.4877  0.0895  0.3505
  793MOL0     C 6922   8.283   2.450  10.930 -0.2009 -0.4555  0.2316
  793MOL0     O 6923   8.351   2.347  10.868  0.5047  0.5420 -0.2119
  793MOL0     C 6924   8.480   2.364  10.838 -0.6154 -0.3208 -0.1457
  793MOL0     C 6925   8.575   2.329  10.936  0.3497  0.7415 -0.3915
  793MOL0     C 6926   8.706   2.365  10.911  0.1226 -0.3627 -0.1101
  793MOL0     C 6927   8.753   2.424  10.793  0.1549  1.0218 -0.8172
  793MOL0     O 6928   8.884   2.460  10.788  0.3840  0.3403  0.6224
  793MOL0     C 6929   8.906   2.599  10.803  0.0500 -0.0787 -0.0025
  793MOL0     C 6930   9.045   2.633  10.838 -0.0616  0.5618 -0.2273
  793MOL0     C 6931   9.082   2.778  10.884  0.8390 -1.1444 -0.1408
  793MOL0     C 6932   9.201   2.781  10.986 -0.4775  0.5380 -0.5642
  793MOL0     C 6933   9.239   2.926  11.020  0.7926  0.5113  0.5198
  793MOL0     C 6934   9.376   2.936  11.085 -0.6969  0.5752 -0.6774
  793MOL0     C 6935   9.413   3.090  11.106 -0.0000  0.1247 -0.4437
  793MOL0     C 6936   9.547   3.090  11.183  0.8596 -0.2472  0.1472
  793MOL0     N 6937   9.575   3.231  11.211  0.5625  0.0981  0.2819
  793MOL0     C 6938   9.590   3.340  11.125  0.2604 -0.2242 -0.0327
  793MOL0     C 6939   9.639   3.446  11.197 -0.2550  0.9322  0.4257
  793MOL0     C 6940   9.713   3.553  11.135  0.4052 -0.5599 -0.3250
  793MOL0     C 6941   9.853   3.513  11.107 -0.6938  0.4145 -0.6097
  793MOL0     C 6942   9.927   3.486  11.243 -0.3245  0.2158  0.1881
  793MOL0     C 6943  10.083   3.475  11.225  0.0195 -1.0117  0.0924
  793MOL0     O 6944  10.136   3.614  11.207  0.0430  0.9314 -0.3013
  793MOL0     C 6945  10.268   3.628  11.202 -1.1116  0.0074 -0.2609
  793MOL0     C 6946  10.315   3.764  11.207 -0.3167  0.0669  0.0583
  793MOL0     C 6947  10.453   3.785  11.215  0.5120 -0.5952  0.1851
  793MOL0     C 6948  10.550   3.685  11.221 -0.5622 -0.0111  0.1149
  793MOL0     C 6949  10.695   3.728  11.213 -0.4156  0.3961  0.0910
  793MOL0     O 6950  10.787   3.630  11.178 -1.2018  0.1155 -0.7830
  793MOL0     C 6951  10.923   3.665  11.143 -0.7869 -1.0113  0.2500
  793MOL0     C 6952  11.032   3.605  11.210 -0.7830  0.7401 -0.2299
  793MOL0     C 6953  11.167   3.636  11.181  0.2809  0.3815  0.4995
  793MOL0     C 6954  11.192   3.730  11.081  0.0791 -0.5602 -0.3622
  793MOL0     O 6955  11.314   3.764  11.056 -0.8263 -0.4630  0.0982
  793MOL0     C 6956  11.346   3.799  10.927  0.3645 -0.1487 -0.1339
  793MOL0     C 6957  11.496   3.830  10.899  0.3323 -0.5493  0.5243
  793MOL0     C 6958  11.572   3.735  10.813  0.3428  0.2028  1.2018
  793MOL0     C 6959  11.590   3.600  10.888 -1.0822 -0.1147 -0.5268
  793MOL0     C 6960  11.633   3.491  10.791  0.7817  1.6099 -0.1075
  793MOL0     C 6961  11.768   3.518  10.731  0.3019  0.5877 -0.3146
  793MOL0     C 6962  11.842   3.396  10.671 -0.2054  0.3610  0.2019
  793MOL0     C 6963  11.991   3.415  10.638  0.4926 -0.3071  0.8083
  793MOL0    Cl 6964  12.062   3.308  10.523  0.2272  0.1694  0.0311
  793MOL0     C 6965  11.080   3.801  11.021  0.0620  0.0747  0.6986
  793MOL0     C 6966  10.953   3.764  11.058 -0.4226  0.0838 -0.2475
  793MOL0     O 6967  10.730   3.847  11.226  0.3084  0.2719 -0.6346
  793MOL0     C 6968  10.510   3.556  11.212  0.9754  0.4124  0.7252
  793MOL0     C 6969  10.372   3.526  11.208  1.0441  0.2039 -0.1561
  793MOL0     N 6970   9.639   3.403  11.326  0.2665 -0.2804  0.5915
  793MOL0     N 6971   9.603   3.277  11.336  0.0525 -0.0318  0.7483
  793MOL0     C 6972   8.654   2.464  10.702 -0.2644 -0.1381  0.1491
  793MOL0     C 6973   8.517   2.448  10.731  0.0672  0.8318  0.3219
  793MOL0     C 6974   8.139   2.424  10.952  0.1380  0.5791 -1.3956
  793MOL0     C 6975   8.090   2.291  10.955  0.3177  0.0731  0.1933
  793MOL0     C 6976   7.955   2.261  10.980  0.0942 -0.1203  0.0964
  793MOL0     C 6977   7.860   2.362  10.999  0.4844  0.2113 -0.2632
  793MOL0     O 6978   7.731   2.306  11.012  0.4859 -0.3849 -0.0783
  793MOL0     C 6979   7.627   2.380  11.074 -0.2487 -0.0359 -0.4608
  793MOL0     C 6980   7.561   2.471  10.964  0.7636 -0.0227  0.3737
  793MOL0     C 6981   7.534   2.415  10.823 -0.5697 -0.4811 -0.1659
  793MOL0     C 6982   7.410   2.472  10.760  0.5862  0.0777  0.0004
  793MOL0     C 6983   7.440   2.602  10.706  0.0713 -0.5746 -0.6362
  793MOL0     C 6984   7.472   2.717  10.667 -0.1826  0.5304  0.3141
  793MOL0     C 6985   7.904   2.494  11.010 -0.2720  0.8024 -0.7518
  793MOL0     C 6986   8.038   2.521  10.981  0.4224  0.3013 -0.2484
  793MOL0     C 6987   8.066   2.669  10.988 -1.3949 -0.2884  0.8725
  793MOL0     H 6988   8.532   2.280  11.023 -2.6752  2.1037 -1.0085
  793MOL0     H 6989   8.780   2.339  10.986 -1.2563 -1.3463  0.9737
  793MOL0     H 6990   8.878   2.655  10.714  0.2635  0.2939  0.1639
  793MOL0     H 6991   8.833   2.641  10.873 -1.7099  1.6951 -2.6987
  793MOL0     H 6992   9.101   2.617  10.746  1.7739  3.3117  0.3233
  793MOL0     H 6993   9.072   2.559  10.914  1.6998 -0.4476 -1.7703
  793MOL0     H 6994   8.991   2.825  10.924 -0.7124 -1.1184 -3.3511
  793MOL0     H 6995   9.110   2.841  10.799  0.4298 -0.8888 -0.0933
  793MOL0     H 6996   9.176   2.728  11.079 -0.9641  1.5455 -0.1100
  793MOL0     H 6997   9.292   2.736  10.945  0.5120  2.6967 -0.8371
  793MOL0     H 6998   9.231   2.994  10.935 -1.2486 -1.2935 -0.8313
  793MOL0     H 6999   9.167   2.950  11.099  0.5041 -0.5005  0.5833
  793MOL0     H 7000   9.366   2.885  11.182 -0.3143 -0.4702 -1.1785
  793MOL0     H 7001   9.435   2.885  11.009 -2.6136  0.2328 -2.0108
  793MOL0     H 7002   9.339   3.153  11.155  1.8883  2.6603 -0.6657
  793MOL0     H 7003   9.426   3.141  11.010 -0.0820  0.1792 -0.4256
  793MOL0     H 7004   9.549   3.035  11.277  0.7709  2.2216  1.6593
  793MOL0     H 7005   9.623   3.044  11.119  0.3579  1.1823 -1.5676
  793MOL0     H 7006   9.588   3.328  11.018 -1.2605  0.4004 -0.0888
  793MOL0     H 7007   9.667   3.588  11.042  0.8072 -0.4030 -0.4673
  793MOL0     H 7008   9.712   3.635  11.207  1.6098  1.6943 -2.7041
  793MOL0     H 7009   9.852   3.417  11.054 -0.6711  0.0191  0.0980
  793MOL0     H 7010   9.907   3.585  11.044  2.2410 -1.1375 -0.0759
  793MOL0     H 7011   9.889   3.393  11.286 -1.1796  0.6305  0.3336
  793MOL0     H 7012   9.909   3.564  11.317  0.6025 -0.1032  0.7812
  793MOL0     H 7013  10.112   3.412  11.140  2.0406 -0.2047  0.1204
  793MOL0     H 7014  10.124   3.424  11.312 -0.3002  0.3470  1.0607
  793MOL0     H 7015  10.248   3.848  11.207 -1.3495 -0.6829 -1.9768
  793MOL0     H 7016  10.485   3.888  11.217 -3.4274  0.7962 -0.0202
  793MOL0     H 7017  10.999   3.544  11.294  1.7244  1.7860  1.6467
  793MOL0     H 7018  11.250   3.583  11.226  0.5693  0.2011 -0.2327
  793MOL0     H 7019  11.303   3.722  10.863 -3.8243 -2.1835  4.4274
  793MOL0     H 7020  11.292   3.890  10.902  0.7001 -0.0996 -0.7001
  793MOL0     H 7021  11.506   3.924  10.843  2.3295 -1.4462 -0.7026
  793MOL0     H 7022  11.546   3.841  10.996  0.7092  1.8331  0.1349
  793MOL0     H 7023  11.519   3.717  10.720  3.3872  0.5348 -0.7441
  793MOL0     H 7024  11.661   3.795  10.790 -1.7102  3.4585  1.1019
  793MOL0     H 7025  11.502   3.568  10.944 -0.3887 -1.2072 -0.0351
  793MOL0     H 7026  11.671   3.611  10.961 -0.2547 -1.8163 -1.1348
  793MOL0     H 7027  11.560   3.469  10.713  1.4905 -2.0522  0.0957
  793MOL0     H 7028  11.643   3.395  10.842 -1.3811  0.3331 -1.8736
  793MOL0     H 7029  11.740   3.584  10.648 -2.6128  0.0705  0.1626
  793MOL0     H 7030  11.832   3.579  10.797 -0.7068  1.7123 -0.3357
  793MOL0     H 7031  11.798   3.370  10.575  2.5662 -0.1065 -1.0398
  793MOL0     H 7032  11.824   3.314  10.741  0.3546  1.5708  1.8477
  793MOL0     H 7033  12.018   3.518  10.614  2.2841 -1.3454 -2.1870
  793MOL0     H 7034  12.045   3.390  10.730 -0.0973 -0.6138  1.0786
  793MOL0     H 7035  11.084   3.875  10.942 -0.6129  0.3171  0.8895
  793MOL0     H 7036  10.862   3.804  11.014 -0.1546 -0.0074 -0.8872
  793MOL0     H 7037  10.588   3.481  11.210 -1.1445 -1.9267  0.9651
  793MOL0     H 7038  10.346   3.422  11.195  0.0672  0.4693 -0.4160
  793MOL0     H 7039   8.687   2.515  10.612 -1.1888 -0.3682 -0.3346
  793MOL0     H 7040   8.447   2.473  10.651  0.1981 -0.0908 -0.0987
  793MOL0     H 7041   8.158   2.212  10.926 -0.4347 -0.3327 -0.5361
  793MOL0     H 7042   7.929   2.156  10.983  1.1099 -0.3655  2.7340
  793MOL0     H 7043   7.663   2.439  11.159  2.8528  1.6139 -2.7207
  793MOL0     H 7044   7.553   2.308  11.112 -0.9143  0.7711 -0.1878
  793MOL0     H 7045   7.617   2.563  10.945  0.3830 -0.1596 -1.6042
  793MOL0     H 7046   7.468   2.501  11.013  0.8559  1.6615 -0.4473
  793MOL0     H 7047   7.519   2.307  10.825  1.8806 -0.8855  1.7772
  793MOL0     H 7048   7.621   2.426  10.758  0.7031 -1.0662  1.3637
  793MOL0     H 7049   7.370   2.402  10.686  3.1312 -2.0371  0.4667
  793MOL0     H 7050   7.334   2.478  10.838 -0.5291 -1.5554 -0.8882
  793MOL0     H 7051   7.493   2.808  10.616 -4.9778  0.6164 -2.1211
  793MOL0     H 7052   7.823   2.563  11.029 -1.4343 -0.9516  1.1354
  793MOL0     H 7053   8.122   2.693  11.079  0.4779 -0.7657 -0.0890
  793MOL0     H 7054   8.134   2.700  10.908  0.2092 -0.9023  1.9422
  793MOL0     H 7055   7.975   2.727  10.972 -1.9480 -0.8812  1.8297
  794MOL0     O 7056   4.084   6.121   0.108 -0.7635 -0.2240  0.1976
  794MOL0     C 7057   4.025   6.148   0.217  0.9266  0.0628 -0.3148
  794MOL0     O 7058   4.056   6.260   0.297 -0.6570 -0.1285  0.5993
  794MOL0     C 7059   4.185   6.314   0.273 -0.1899  0.9321  0.3976
  794MOL0     C 7060   4.209   6.420   0.184 -0.3831 -0.2282  0.3647
  794MOL0     C 7061   4.334   6.469   0.159 -0.5656  0.3420 -0.1994
  794MOL0     C 7062   4.449   6.420   0.222 -0.6190  0.3617 -0.6118
  794MOL0     O 7063   4.569   6.477   0.195 -0.3712  0.7524  0.0348
  794MOL0     C 7064   4.623   6.540   0.312 -0.5496 -0.6292 -0.5005
  794MOL0     C 7065   4.771   6.566   0.291 -0.3203  0.6215  0.5709
  794MOL0     C 7066   4.830   6.656   0.401  0.2518  0.6448 -0.8145
  794MOL0     C 7067   4.927   6.753   0.362  0.2168 -0.1052 -0.0884
  794MOL0     C 7068   5.008   6.820   0.474 -0.4188 -0.2611 -0.6891
  794MOL0     C 7069   5.122   6.733   0.532 -1.0020 -0.0976  0.2047
  794MOL0     C 7070   5.246   6.810   0.589  0.4336 -0.4836  0.7596
  794MOL0     C 7071   5.361   6.720   0.626  0.1368 -0.8357  0.6117
  794MOL0     N 7072   5.475   6.800   0.678  0.4449 -0.2288 -0.1856
  794MOL0     C 7073   5.539   6.899   0.611  0.5914 -1.1387  0.9397
  794MOL0     C 7074   5.632   6.944   0.699 -0.3059 -0.0303 -0.6329
  794MOL0     C 7075   5.739   7.046   0.676 -0.2898 -0.0468  0.1113
  794MOL0     C 7076   5.711   7.181   0.746  0.0360 -0.3677 -0.1112
  794MOL0     C 7077   5.756   7.183   0.891 -0.5214 -0.1982 -0.7666
  794MOL0     C 7078   5.914   7.221   0.901  0.2007  0.0180 -0.4600
  794MOL0     O 7079   5.948   7.338   0.825 -0.2315 -0.2978  0.2081
  794MOL0     C 7080   6.081   7.338   0.795  0.2620 -0.6378  0.6817
  794MOL0     C 7081   6.177   7.315   0.883 -0.4090  0.8315  0.2091
  794MOL0     C 7082   6.308   7.298   0.844  0.1254  0.3935 -0.0149
  794MOL0     C 7083   6.346   7.314   0.709  1.2466  0.6939  0.5219
  794MOL0     C 7084   6.480   7.290   0.662  0.2896 -0.3896  0.7959
  794MOL0     O 7085   6.506   7.292   0.529  0.5840 -0.1667 -0.8435
  794MOL0     C 7086   6.645   7.302   0.500  0.1527 -1.1908  0.8324
  794MOL0     C 7087   6.703   7.427   0.494  0.0428 -0.1265 -0.4877
  794MOL0     C 7088   6.841   7.440   0.502  0.3467  0.0665 -0.2309
  794MOL0     C 7089   6.924   7.327   0.509 -0.0944  0.2786 -0.4174
  794MOL0     O 7090   7.062   7.330   0.506  0.4748 -0.6941 -0.3624
  794MOL0     C 7091   7.109   7.310   0.375  0.3092 -1.0739 -0.2148
  794MOL0     C 7092   7.260   7.346   0.373  0.5752  0.7230  0.3766
  794MOL0     C 7093   7.294   7.488   0.431 -0.1063  0.3427  0.0599
  794MOL0     C 7094   7.424   7.533   0.370  0.1743 -0.7424 -0.2016
  794MOL0     C 7095   7.487   7.672   0.415  0.5522 -0.4891 -0.2381
  794MOL0     C 7096   7.585   7.664   0.536 -0.0307  0.3682  0.1844
  794MOL0     C 7097   7.517   7.654   0.667 -0.0977  0.2851  0.5056
  794MOL0     C 7098   7.622   7.660   0.776  0.5930  0.0565 -0.3594
  794MOL0    Cl 7099   7.718   7.803   0.788 -0.0695  0.0535  0.3419
  794MOL0     C 7100   6.862   7.197   0.506  0.2352  0.3178 -0.5744
  794MOL0     C 7101   6.724   7.189   0.504 -0.0788 -0.0027 -0.4002
  794MOL0     O 7102   6.561   7.291   0.758  0.7640 -0.1629 -0.3270
  794MOL0     C 7103   6.246   7.344   0.621 -0.2589  0.0058  0.6789
  794MOL0     C 7104   6.116   7.361   0.664 -0.5219  0.5059  0.1873
  794MOL0     N 7105   5.630   6.865   0.812  0.4306 -0.8230  0.1044
  794MOL0     N 7106   5.534   6.783   0.797 -0.9272  0.2215  0.0545
  794MOL0     C 7107   4.435   6.316   0.311  0.0901  0.1708 -0.1974
  794MOL0     C 7108   4.305   6.261   0.332  0.7788 -0.6221 -0.5252
  794MOL0     C 7109   3.930   6.042   0.274 -0.5781 -0.5577  0.0229
  794MOL0     C 7110   3.839   6.083   0.374 -0.2832  0.0448  0.2418
  794MOL0     C 7111   3.738   5.998   0.424 -0.4666  0.4684  0.3362
  794MOL0     C 7112   3.720   5.868   0.377 -0.8669  0.1546 -0.5947
  794MOL0     O 7113   3.619   5.785   0.411  0.0908 -0.5459 -0.6993
  794MOL0     C 7114   3.497   5.839   0.458  0.3352 -0.3202 -0.0646
  794MOL0     C 7115   3.403   5.711   0.458  1.0991 -0.3604 -0.1608
  794MOL0     C 7116   3.271   5.742   0.514  0.7105 -0.2348  0.1085
  794MOL0     C 7117   3.160   5.649   0.465  0.4578 -0.0294 -1.1428
  794MOL0     C 7118   3.188   5.508   0.515 -0.0631 -0.0606  0.8600
  794MOL0     C 7119   3.228   5.400   0.547  0.8853  0.2302  0.1999
  794MOL0     C 7120   3.818   5.821   0.276 -0.0552 -0.0858 -0.7653
  794MOL0     C 7121   3.922   5.900   0.234 -0.0891  0.1848  0.2520
  794MOL0     C 7122   4.033   5.838   0.152 -0.8582  0.5699  0.2124
  794MOL0     H 7123   4.123   6.467   0.138  0.8709  0.2384 -1.5866
  794MOL0     H 7124   4.353   6.553   0.094 -1.6524  0.9936  0.3033
  794MOL0     H 7125   4.566   6.634   0.313  0.9216  0.2978 -0.8025
  794MOL0     H 7126   4.600   6.488   0.405 -0.8099  1.8044  0.8925
  794MOL0     H 7127   4.785   6.614   0.194  0.7979  0.7727  0.7909
  794MOL0     H 7128   4.829   6.474   0.300  0.9936  1.5084  1.7515
  794MOL0     H 7129   4.872   6.591   0.478 -0.3195 -0.0733 -1.0932
  794MOL0     H 7130   4.745   6.712   0.442  1.6853  1.2691  1.4968
  794MOL0     H 7131   4.996   6.707   0.291 -1.8067 -1.4340 -1.2648
  794MOL0     H 7132   4.875   6.830   0.305  0.8643 -0.7210 -1.5592
  794MOL0     H 7133   5.037   6.918   0.434 -1.9945 -0.1025 -1.5176
  794MOL0     H 7134   4.936   6.826   0.556 -0.3899  2.2346 -0.7542
  794MOL0     H 7135   5.089   6.670   0.615 -0.7728 -1.1805 -0.5008
  794MOL0     H 7136   5.159   6.674   0.447  0.4395  2.6474 -1.1973
  794MOL0     H 7137   5.211   6.857   0.682  0.4213  1.1339 -0.0250
  794MOL0     H 7138   5.286   6.888   0.523 -0.6256  0.8481  1.6266
  794MOL0     H 7139   5.325   6.644   0.697 -0.0477 -1.4146 -0.0875
  794MOL0     H 7140   5.392   6.654   0.544 -0.9331  1.3552 -1.6982
  794MOL0     H 7141   5.528   6.929   0.507  0.5644 -4.5731 -0.1857
  794MOL0     H 7142   5.838   7.016   0.713  0.0479  2.7717  1.8389
  794MOL0     H 7143   5.746   7.052   0.567  0.0801 -2.5494 -0.0474
  794MOL0     H 7144   5.764   7.263   0.697  3.1322 -1.0331  1.8706
  794MOL0     H 7145   5.602   7.194   0.746 -0.1332 -1.6113  0.9872
  794MOL0     H 7146   5.740   7.093   0.951  0.2856  1.5925  2.3695
  794MOL0     H 7147   5.696   7.257   0.946  2.9190  2.4285 -0.2582
  794MOL0     H 7148   5.969   7.143   0.847 -4.5429 -0.9686 -4.6893
  794MOL0     H 7149   5.941   7.219   1.007 -1.9923 -4.5053  0.2400
  794MOL0     H 7150   6.168   7.295   0.989  0.9788 -0.9581  0.0455
  794MOL0     H 7151   6.391   7.264   0.906  1.1173  0.9357 -1.0000
  794MOL0     H 7152   6.642   7.516   0.492 -0.6761 -0.5760  0.5719
  794MOL0     H 7153   6.885   7.539   0.501 -0.6808  0.5389 -1.5708
  794MOL0     H 7154   7.084   7.213   0.332  0.2110 -0.2498 -2.1255
  794MOL0     H 7155   7.060   7.387   0.314  0.0551 -1.3733 -0.3922
  794MOL0     H 7156   7.309   7.266   0.429 -1.1719 -0.6109  0.0991
  794MOL0     H 7157   7.305   7.324   0.275 -0.1057  1.0021 -0.0064
  794MOL0     H 7158   7.216   7.560   0.406  1.5670  2.0935 -0.3521
  794MOL0     H 7159   7.295   7.480   0.540 -0.2880  2.6771  0.2625
  794MOL0     H 7160   7.384   7.542   0.269 -2.7528 -5.2062  0.2693
  794MOL0     H 7161   7.496   7.451   0.371  0.7848 -0.2264 -0.6742
  794MOL0     H 7162   7.402   7.737   0.438  1.6265  0.1956  2.0998
  794MOL0     H 7163   7.539   7.713   0.328  1.2439 -2.8798 -1.0248
  794MOL0     H 7164   7.641   7.570   0.537 -0.0637  0.3441  1.8664
  794MOL0     H 7165   7.657   7.746   0.542  3.5570 -2.6208  1.3181
  794MOL0     H 7166   7.468   7.556   0.668 -0.5026  0.4016 -1.9133
  794MOL0     H 7167   7.447   7.737   0.681  0.2713  0.8213 -0.7557
  794MOL0     H 7168   7.562   7.641   0.865 -0.5694 -0.5631 -1.2413
  794MOL0     H 7169   7.694   7.578   0.773  0.8671  0.0772  2.6839
  794MOL0     H 7170   6.927   7.110   0.499 -0.9608 -0.5686 -0.8971
  794MOL0     H 7171   6.684   7.091   0.526  0.8983 -0.2549  0.3196
  794MOL0     H 7172   6.262   7.346   0.513 -1.8242  0.0726  0.4248
  794MOL0     H 7173   6.041   7.404   0.599 -1.7616 -1.3479  0.2819
  794MOL0     H 7174   4.522   6.276   0.359  1.3579 -0.2288 -2.6575
  794MOL0     H 7175   4.295   6.174   0.396 -2.0386  1.8486  2.7927
  794MOL0     H 7176   3.839   6.185   0.409 -3.1893 -0.2330  1.3818
  794MOL0     H 7177   3.662   6.037   0.491 -1.9459 -0.9330 -0.4441
  794MOL0     H 7178   3.465   5.922   0.396  0.5594  1.7528  2.4192
  794MOL0     H 7179   3.500   5.878   0.560  1.3683 -3.1638  1.1089
  794MOL0     H 7180   3.448   5.627   0.511  1.3836 -1.5874 -2.2276
  794MOL0     H 7181   3.387   5.680   0.354  1.0035  0.5836 -0.4391
  794MOL0     H 7182   3.236   5.838   0.474  0.9098 -0.2052  0.0034
  794MOL0     H 7183   3.279   5.743   0.623 -0.6141 -2.1976  0.2775
  794MOL0     H 7184   3.058   5.677   0.492  0.1329 -0.6535 -1.6984
  794MOL0     H 7185   3.152   5.645   0.356 -1.5444 -3.3599 -1.0097
  794MOL0     H 7186   3.244   5.295   0.551 -1.0919 -0.1632 -0.7065
  794MOL0     H 7187   3.816   5.720   0.238  3.0700 -0.3062 -0.5684
  794MOL0     H 7188   4.031   5.882   0.052  1.1048  2.7431  1.0339
  794MOL0     H 7189   4.127   5.846   0.207 -0.3059 -0.7840 -0.4823
  794MOL0     H 7190   4.025   5.729   0.147  2.6463  0.1879  0.3837
  795MOL0     O 7191   1.532   7.145  10.020  0.2982 -0.0855  0.0261
  795MOL0     C 7192   1.512   7.269  10.024 -0.1591 -0.0038  0.6802
  795MOL0     O 7193   1.591   7.352  10.099  0.5204 -0.1003  0.1590
  795MOL0     C 7194   1.720   7.316  10.137 -0.7153  0.1233  0.0252
  795MOL0     C 7195   1.765   7.183  10.173 -0.0333 -0.2094 -0.1732
  795MOL0     C 7196   1.900   7.163  10.201 -0.2758  0.2100  0.7207
  795MOL0     C 7197   1.982   7.271  10.211  0.1391 -0.2493  0.1203
  795MOL0     O 7198   2.110   7.237  10.245 -0.5971 -0.0334 -0.7134
  795MOL0     C 7199   2.216   7.333  10.260 -0.6227  0.2811 -0.2190
  795MOL0     C 7200   2.335   7.263  10.323  0.0445 -0.4972  0.8737
  795MOL0     C 7201   2.421   7.178  10.223  0.1246 -0.3870  0.8780
  795MOL0     C 7202   2.523   7.082  10.268  0.1899  0.0666  0.7244
  795MOL0     C 7203   2.549   6.957  10.174 -0.3956  0.5627  0.1693
  795MOL0     C 7204   2.621   6.990  10.048  0.7333 -0.6872 -0.0397
  795MOL0     C 7205   2.683   6.868   9.964 -0.8128  0.4461 -0.4973
  795MOL0     C 7206   2.816   6.838  10.027 -0.2481 -0.2117 -0.6004
  795MOL0     N 7207   2.921   6.943  10.027 -0.3968  0.3766 -0.5379
  795MOL0     C 7208   2.979   6.987   9.913 -0.3681 -0.9992  0.6593
  795MOL0     C 7209   3.074   7.079   9.954  1.3397  0.2260  0.3976
  795MOL0     C 7210   3.174   7.121   9.850  0.6932 -0.0375 -0.7201
  795MOL0     C 7211   3.297   7.029   9.853  0.2761 -0.5766 -0.1177
  795MOL0     C 7212   3.391   7.055   9.734 -0.4879  0.0283  0.7996
  795MOL0     C 7213   3.522   6.980   9.744  0.0846 -0.9023  0.1547
  795MOL0     O 7214   3.590   7.039   9.854  0.0580 -0.3114  0.3447
  795MOL0     C 7215   3.718   7.091   9.823  0.3934 -0.1234 -0.6677
  795MOL0     C 7216   3.753   7.226   9.849 -0.9708  0.1903 -0.0337
  795MOL0     C 7217   3.887   7.258   9.836  0.5517 -0.7135 -0.0986
  795MOL0     C 7218   3.983   7.182   9.767 -0.2235  0.2271  0.0259
  795MOL0     C 7219   4.122   7.221   9.726  0.3072 -0.8850 -0.1902
  795MOL0     O 7220   4.209   7.129   9.683  0.0350 -0.0569  0.4468
  795MOL0     C 7221   4.337   7.164   9.643 -0.5266 -0.1833 -0.2808
  795MOL0     C 7222   4.392   7.297   9.630 -0.1143 -0.0170  0.1509
  795MOL0     C 7223   4.522   7.313   9.582 -0.4407 -0.2285 -0.0106
  795MOL0     C 7224   4.602   7.204   9.549  0.1900 -0.0962  0.2691
  795MOL0     O 7225   4.723   7.229   9.496 -0.3366 -0.0895 -0.0847
  795MOL0     C 7226   4.827   7.133   9.500  0.0360  0.7509  0.2015
  795MOL0     C 7227   4.881   7.117   9.637 -1.1736  1.0278  0.1141
  795MOL0     C 7228   4.957   7.238   9.692  0.7396 -0.0186  0.6421
  795MOL0     C 7229   5.089   7.253   9.608 -0.0890  0.1604  0.4554
  795MOL0     C 7230   5.181   7.361   9.662  0.9856 -0.7290  0.3467
  795MOL0     C 7231   5.334   7.330   9.660 -0.2561 -0.5052  0.4912
  795MOL0     C 7232   5.424   7.437   9.726  0.0854  0.2642  0.9370
  795MOL0     C 7233   5.551   7.383   9.783 -0.8045 -0.8664  0.2609
  795MOL0    Cl 7234   5.670   7.514   9.816  0.0840 -0.0480 -0.0743
  795MOL0     C 7235   4.551   7.074   9.576  0.3040 -0.0378 -0.3549
  795MOL0     C 7236   4.421   7.053   9.612 -0.0648 -0.7016 -0.2312
  795MOL0     O 7237   4.150   7.334   9.767  0.2784 -0.2405  0.3051
  795MOL0     C 7238   3.944   7.049   9.745  0.1883 -0.7799  0.1639
  795MOL0     C 7239   3.820   7.007   9.774 -0.2034  0.0063 -1.4128
  795MOL0     N 7240   3.071   7.080  10.086 -0.1308 -0.3017  0.6742
  795MOL0     N 7241   2.980   7.010  10.131  0.2440 -0.5947 -0.4941
  795MOL0     C 7242   1.935   7.403  10.191 -0.0639 -0.5665  0.2193
  795MOL0     C 7243   1.807   7.431  10.151  0.2878  0.4375  0.3121
  795MOL0     C 7244   1.398   7.322   9.941 -0.2252  0.6144 -0.1796
  795MOL0     C 7245   1.308   7.227   9.889  0.5503 -0.7493 -0.0151
  795MOL0     C 7246   1.210   7.266   9.793  0.1636  0.3127 -0.5351
  795MOL0     C 7247   1.201   7.402   9.757  0.5323 -0.3646  0.5729
  795MOL0     O 7248   1.112   7.449   9.667  1.0059  0.6565  0.1510
  795MOL0     C 7249   0.983   7.385   9.647 -0.0917  0.0332  0.6806
  795MOL0     C 7250   0.905   7.466   9.533  0.0891 -0.1935 -0.5462
  795MOL0     C 7251   0.846   7.607   9.581 -0.2677 -0.0868 -0.1168
  795MOL0     C 7252   0.772   7.678   9.465 -0.9363  1.1204  0.2040
  795MOL0     C 7253   0.858   7.735   9.372  0.1914  0.5092 -0.0448
  795MOL0     C 7254   0.931   7.786   9.298 -0.5159 -0.1511  1.0521
  795MOL0     C 7255   1.293   7.491   9.798 -1.2295 -0.2120  1.0165
  795MOL0     C 7256   1.391   7.455   9.900 -0.6856 -0.3012 -0.2379
  795MOL0     C 7257   1.475   7.567   9.960  0.8728  0.4390 -0.0235
  795MOL0     H 7258   1.699   7.098  10.185  1.1522 -1.4140 -1.7561
  795MOL0     H 7259   1.925   7.063  10.233 -0.9241 -0.4804 -0.8284
  795MOL0     H 7260   2.251   7.389  10.173  2.4427  0.5818  1.0822
  795MOL0     H 7261   2.180   7.413  10.326 -3.9588 -0.4385 -0.9748
  795MOL0     H 7262   2.299   7.200  10.405 -0.9739  0.5132  1.2372
  795MOL0     H 7263   2.392   7.335  10.382 -1.0585 -0.5500  2.0663
  795MOL0     H 7264   2.473   7.240  10.149 -0.1472  0.6884  1.5682
  795MOL0     H 7265   2.351   7.111  10.173  0.1975 -0.4541  0.8657
  795MOL0     H 7266   2.621   7.130  10.259 -0.5838  1.3931 -1.3392
  795MOL0     H 7267   2.506   7.059  10.373 -0.6585 -1.2971  0.3143
  795MOL0     H 7268   2.611   6.880  10.222  1.4999 -0.1861 -3.1563
  795MOL0     H 7269   2.455   6.907  10.148  1.4903 -3.3748  0.0890
  795MOL0     H 7270   2.546   7.030   9.979  2.8828  1.3141 -1.3470
  795MOL0     H 7271   2.697   7.067  10.061 -0.1086 -0.0647  1.4546
  795MOL0     H 7272   2.695   6.912   9.864  0.2394 -1.3452 -1.2021
  795MOL0     H 7273   2.625   6.777   9.952  1.7320 -1.3053 -0.3743
  795MOL0     H 7274   2.808   6.802  10.130  1.4859  0.6674 -0.1152
  795MOL0     H 7275   2.868   6.756   9.979 -0.4645 -0.4621 -0.4132
  795MOL0     H 7276   2.951   6.959   9.812 -0.4454  2.7001 -0.5072
  795MOL0     H 7277   3.131   7.121   9.749  2.2225 -0.8341 -1.4211
  795MOL0     H 7278   3.212   7.219   9.881 -1.3571 -0.0487  2.1492
  795MOL0     H 7279   3.358   7.051   9.941 -0.5282 -1.2034  0.6117
  795MOL0     H 7280   3.263   6.925   9.848 -2.3482  0.1602  0.8975
  795MOL0     H 7281   3.416   7.161   9.728 -3.1736  0.6375 -1.6230
  795MOL0     H 7282   3.340   7.037   9.639  0.7371  0.1356  0.1051
  795MOL0     H 7283   3.577   6.988   9.650 -0.5170 -1.1339 -0.2258
  795MOL0     H 7284   3.490   6.878   9.766 -2.6182  0.0292  0.9867
  795MOL0     H 7285   3.679   7.298   9.883 -2.0288 -1.4920  1.4526
  795MOL0     H 7286   3.918   7.358   9.866 -0.4355  0.3664 -2.4446
  795MOL0     H 7287   4.341   7.391   9.641  1.8893  0.9410  2.0628
  795MOL0     H 7288   4.561   7.414   9.571 -0.2150 -0.0994  1.6330
  795MOL0     H 7289   4.802   7.039   9.449 -1.2678  2.1477 -1.8642
  795MOL0     H 7290   4.899   7.176   9.431 -1.7572  1.9140 -1.0271
  795MOL0     H 7291   4.805   7.086   9.710 -0.9998  2.1418  0.7960
  795MOL0     H 7292   4.950   7.033   9.635 -0.6803  1.3806  1.1936
  795MOL0     H 7293   4.893   7.327   9.690  0.0292 -0.4690  1.9147
  795MOL0     H 7294   4.984   7.225   9.797  0.6312  2.7582  1.0882
  795MOL0     H 7295   5.077   7.280   9.502  1.1567  0.6955  0.4297
  795MOL0     H 7296   5.152   7.165   9.626 -1.1764 -0.3484  1.9547
  795MOL0     H 7297   5.150   7.370   9.766  0.7824 -2.0619  0.4152
  795MOL0     H 7298   5.169   7.459   9.614  1.8283 -0.7505  0.0866
  795MOL0     H 7299   5.356   7.233   9.707 -0.5716 -0.3514  0.9710
  795MOL0     H 7300   5.367   7.320   9.556  0.7585 -2.1395  0.9297
  795MOL0     H 7301   5.375   7.492   9.807 -2.1957 -1.3510  0.7426
  795MOL0     H 7302   5.456   7.506   9.647  0.8931  0.8661  1.7599
  795MOL0     H 7303   5.523   7.350   9.884 -2.5515 -2.1405 -0.5742
  795MOL0     H 7304   5.588   7.300   9.723 -0.4253 -1.9153  1.9052
  795MOL0     H 7305   4.612   6.986   9.559 -0.7375 -1.2330  1.6865
  795MOL0     H 7306   4.390   6.951   9.632  0.1814 -0.9876 -1.2422
  795MOL0     H 7307   4.022   6.977   9.719  0.8075 -0.5796  1.4078
  795MOL0     H 7308   3.798   6.902   9.764  0.7577 -0.2878 -0.6349
  795MOL0     H 7309   1.996   7.492  10.188 -2.3533  1.0624 -0.7925
  795MOL0     H 7310   1.781   7.534  10.129 -1.4963  0.4644  2.2459
  795MOL0     H 7311   1.316   7.125   9.925  1.4560 -0.5696  0.3074
  795MOL0     H 7312   1.147   7.190   9.750 -3.5450  2.7822  0.1156
  795MOL0     H 7313   0.922   7.370   9.736  1.9402  1.5816  2.4420
  795MOL0     H 7314   0.997   7.288   9.600 -3.2426  0.0562 -0.5661
  795MOL0     H 7315   0.827   7.395   9.505  0.1363  0.8708 -3.8179
  795MOL0     H 7316   0.966   7.474   9.443  0.8506 -4.1616 -0.5509
  795MOL0     H 7317   0.929   7.666   9.623  0.9164 -2.1408  0.6004
  795MOL0     H 7318   0.782   7.585   9.667 -0.6716 -0.1834 -0.4389
  795MOL0     H 7319   0.717   7.600   9.411  0.8323  0.5201 -0.8109
  795MOL0     H 7320   0.690   7.742   9.497 -1.2689  3.0681 -3.8890
  795MOL0     H 7321   1.006   7.828   9.234  1.7982 -3.2042  1.5081
  795MOL0     H 7322   1.297   7.593   9.764  1.1723  0.1942  2.2359
  795MOL0     H 7323   1.441   7.661   9.916  2.5528 -0.3977 -3.3655
  795MOL0     H 7324   1.451   7.569  10.067  1.4522 -0.6917  0.1432
  795MOL0     H 7325   1.583   7.562   9.944  0.4724 -0.0054 -3.2132
  796MOL0     O 7326   4.419   0.296  10.177 -0.2988  0.0351 -0.1271
  796MOL0     C 7327   4.433   0.424  10.181  0.5895 -0.0101 -0.1471
  796MOL0     O 7328   4.548   0.489  10.215 -0.2542  0.2864  0.0844
  796MOL0     C 7329   4.665   0.420  10.242 -0.2277 -0.2963  0.0334
  796MOL0     C 7330   4.707   0.309  10.165 -0.2994  0.4550  0.1649
  796MOL0     C 7331   4.806   0.224  10.218  0.0154  0.6950 -0.4186
  796MOL0     C 7332   4.863   0.247  10.346 -0.4273  0.3646 -0.2041
  796MOL0     O 7333   4.954   0.165  10.407 -0.2545 -0.4207  0.2004
  796MOL0     C 7334   4.910   0.030  10.416  0.7075  0.1523 -0.2674
  796MOL0     C 7335   4.956  -0.031  10.551  0.2648  0.4987 -0.4437
  796MOL0     C 7336   5.106  -0.005  10.581 -0.5482  0.9344  0.8639
  796MOL0     C 7337   5.149  -0.052  10.721  0.5646  0.3188 -0.6281
  796MOL0     C 7338   5.267   0.034  10.774  0.2598 -1.0741  0.3504
  796MOL0     C 7339   5.396   0.015  10.702 -0.5572  0.1921 -0.9178
  796MOL0     C 7340   5.502   0.112  10.748 -0.1039  0.9645  0.3481
  796MOL0     C 7341   5.504   0.244  10.659 -0.3725  0.6537 -0.9976
  796MOL0     N 7342   5.633   0.308  10.662 -0.2950 -0.2981  0.1749
  796MOL0     C 7343   5.741   0.260  10.593 -0.0717  0.0981  1.0035
  796MOL0     C 7344   5.841   0.346  10.626  1.0696 -0.4048  0.1104
  796MOL0     C 7345   5.977   0.344  10.562  0.1492  0.7098  0.3815
  796MOL0     C 7346   6.092   0.377  10.660 -0.0126 -0.0873  0.7495
  796MOL0     C 7347   6.226   0.394  10.579  0.5986 -0.1123 -0.4619
  796MOL0     C 7348   6.279   0.268  10.504  0.5391  0.0542  0.6382
  796MOL0     O 7349   6.264   0.163  10.604  0.0078 -0.2541 -0.1640
  796MOL0     C 7350   6.375   0.082  10.622  1.1693 -0.1858 -0.0496
  796MOL0     C 7351   6.354  -0.050  10.590 -0.3182 -1.1272 -0.1211
  796MOL0     C 7352   6.463  -0.137  10.582 -0.6622 -0.1094 -0.3941
  796MOL0     C 7353   6.592  -0.094  10.618  0.4678  0.1905  0.2247
  796MOL0     C 7354   6.707  -0.187  10.623  0.0236 -0.4443 -0.2027
  796MOL0     O 7355   6.813  -0.157  10.707  0.9973 -0.0730 -0.6985
  796MOL0     C 7356   6.896  -0.262  10.742  0.5426 -0.4530  0.1315
  796MOL0     C 7357   6.953  -0.345  10.648  0.5303  0.9323  0.1780
  796MOL0     C 7358   7.061  -0.427  10.684 -0.3757 -0.2635  0.0979
  796MOL0     C 7359   7.108  -0.446  10.817 -0.4303  0.5282 -0.0231
  796MOL0     O 7360   7.211  -0.530  10.840  0.3038 -0.8975 -0.1508
  796MOL0     C 7361   7.263  -0.531  10.972  0.8371  0.0166 -0.4945
  796MOL0     C 7362   7.358  -0.654  10.964 -0.0423 -0.5878 -0.0035
  796MOL0     C 7363   7.467  -0.651  11.072  0.6649 -0.0914  0.7249
  796MOL0     C 7364   7.562  -0.772  11.076 -0.2292  0.0202  0.3527
  796MOL0     C 7365   7.657  -0.783  11.202 -0.2646  0.9718  0.1916
  796MOL0     C 7366   7.718  -0.917  11.212 -0.5688 -1.4883 -1.1535
  796MOL0     C 7367   7.809  -0.953  11.098 -0.4185  0.5044 -0.3734
  796MOL0     C 7368   7.814  -1.098  11.064  0.2181  0.5032  0.0101
  796MOL0    Cl 7369   7.654  -1.119  10.981 -0.4951  0.0190 -0.2963
  796MOL0     C 7370   7.034  -0.367  10.907  0.2214 -0.2974  0.3756
  796MOL0     C 7371   6.940  -0.268  10.871 -0.5907 -0.3719 -0.2297
  796MOL0     O 7372   6.692  -0.286  10.560 -0.3761  0.2138 -0.1532
  796MOL0     C 7373   6.607   0.037  10.656  0.2094  0.5461  0.2682
  796MOL0     C 7374   6.501   0.127  10.661 -0.0332 -0.2099 -0.0333
  796MOL0     N 7375   5.792   0.429  10.718  0.2033  0.1385 -0.0737
  796MOL0     N 7376   5.663   0.413  10.733 -0.2931 -0.0253  0.0205
  796MOL0     C 7377   4.836   0.369  10.402  0.8215 -0.7206  1.1390
  796MOL0     C 7378   4.729   0.452  10.356 -0.7112  0.2937 -0.0536
  796MOL0     C 7379   4.313   0.506  10.172  1.1298  0.2009 -0.5198
  796MOL0     C 7380   4.206   0.452  10.095  0.7120  0.8297 -0.7415
  796MOL0     C 7381   4.089   0.520  10.076 -0.1849 -0.5484 -1.3947
  796MOL0     C 7382   4.080   0.660  10.116 -0.1040  0.6610  0.5287
  796MOL0     O 7383   3.977   0.750  10.079 -0.9442  0.1093  0.2043
  796MOL0     C 7384   3.862   0.696  10.024 -0.4290  0.0917  0.0628
  796MOL0     C 7385   3.765   0.822  10.024  0.1667  0.4801  0.4385
  796MOL0     C 7386   3.637   0.781   9.969  0.6077  0.0119  0.1276
  796MOL0     C 7387   3.556   0.911   9.933 -0.3580  0.4540  0.2901
  796MOL0     C 7388   3.447   0.872   9.843  0.6485  0.1670  1.6017
  796MOL0     C 7389   3.355   0.842   9.767  0.0014  0.6368 -0.1296
  796MOL0     C 7390   4.187   0.715  10.190  0.2785 -0.0712  0.6718
  796MOL0     C 7391   4.299   0.638  10.217 -0.1940 -0.3174  0.7398
  796MOL0     C 7392   4.399   0.697  10.309  0.0261 -0.7102  0.5771
  796MOL0     H 7393   4.666   0.282  10.068  1.2286  1.0445 -0.6808
  796MOL0     H 7394   4.816   0.125  10.175 -2.9066 -0.3741  1.0449
  796MOL0     H 7395   4.802   0.014  10.405  0.5831  1.1092 -0.5397
  796MOL0     H 7396   4.968  -0.018  10.337  2.5137  0.3305  0.9057
  796MOL0     H 7397   4.925  -0.136  10.548  1.1726  0.2324 -0.7129
  796MOL0     H 7398   4.886   0.011  10.624 -0.8325 -1.9440  0.0080
  796MOL0     H 7399   5.128   0.101  10.566 -3.0488  1.4893  0.7220
  796MOL0     H 7400   5.173  -0.063  10.517 -1.2575 -1.2035  1.9534
  796MOL0     H 7401   5.065  -0.042  10.790  1.5250  3.1367  0.2875
  796MOL0     H 7402   5.180  -0.156  10.728  2.6928  0.9485 -0.1567
  796MOL0     H 7403   5.242   0.140  10.780  2.2927 -0.5555  0.4191
  796MOL0     H 7404   5.288   0.009  10.878  3.5379  0.0734  0.0834
  796MOL0     H 7405   5.431  -0.088  10.716 -5.1190 -1.4512  0.2285
  796MOL0     H 7406   5.379   0.024  10.595  0.5992  1.1806 -1.0515
  796MOL0     H 7407   5.596   0.065  10.718 -1.4213  0.3805 -3.3797
  796MOL0     H 7408   5.502   0.140  10.854 -0.2965 -0.8780  0.8823
  796MOL0     H 7409   5.479   0.215  10.556 -4.0405 -0.2694 -0.0010
  796MOL0     H 7410   5.425   0.316  10.683 -0.4512  0.3465 -0.3044
  796MOL0     H 7411   5.747   0.175  10.526 -1.9935  1.4682 -1.0386
  796MOL0     H 7412   5.995   0.243  10.526 -1.0614  0.1929  1.1623
  796MOL0     H 7413   5.978   0.424  10.487  1.4030 -1.3004 -1.9013
  796MOL0     H 7414   6.067   0.472  10.708  0.6905 -0.4824  1.9344
  796MOL0     H 7415   6.103   0.298  10.734 -0.1468 -0.3625  0.4808
  796MOL0     H 7416   6.302   0.430  10.649  2.5098 -2.7811 -1.0059
  796MOL0     H 7417   6.197   0.475  10.512 -0.0089 -0.7858 -1.0253
  796MOL0     H 7418   6.383   0.287  10.474  1.0279 -0.8172  1.7231
  796MOL0     H 7419   6.214   0.246  10.419 -1.9417  0.2185  2.3857
  796MOL0     H 7420   6.260  -0.090  10.553 -1.0741  0.4765 -0.0304
  796MOL0     H 7421   6.458  -0.242  10.553  2.4684 -0.6530  0.6905
  796MOL0     H 7422   6.913  -0.351  10.547 -3.3538  3.0538  1.3958
  796MOL0     H 7423   7.096  -0.493  10.605 -3.7452  0.3743 -2.1550
  796MOL0     H 7424   7.311  -0.437  11.000 -0.9493  1.3492 -1.6661
  796MOL0     H 7425   7.190  -0.560  11.048  0.6799 -0.2376 -0.7434
  796MOL0     H 7426   7.294  -0.741  10.979 -2.0066  1.4476  6.3293
  796MOL0     H 7427   7.409  -0.666  10.868  1.7997 -0.3061  0.8992
  796MOL0     H 7428   7.538  -0.577  11.034 -1.4367  1.8464  0.3762
  796MOL0     H 7429   7.427  -0.626  11.171 -1.2034 -0.2439  0.0447
  796MOL0     H 7430   7.624  -0.770  10.986 -3.0396 -1.2513 -1.7918
  796MOL0     H 7431   7.501  -0.862  11.069 -0.1827 -0.1234  1.5757
  796MOL0     H 7432   7.602  -0.766  11.295 -0.8330 -3.6464  0.9016
  796MOL0     H 7433   7.732  -0.705  11.185  0.4154 -0.2126 -2.7343
  796MOL0     H 7434   7.770  -0.927  11.308 -0.7591  1.6178 -0.6265
  796MOL0     H 7435   7.640  -0.993  11.211 -1.1542 -0.9443  0.5405
  796MOL0     H 7436   7.902  -0.924  11.148 -0.8165  0.0360  0.6675
  796MOL0     H 7437   7.808  -0.894  11.006 -0.0421  1.3545  0.1567
  796MOL0     H 7438   7.899  -1.116  10.997  0.5952  1.7099  0.1405
  796MOL0     H 7439   7.818  -1.160  11.154 -2.1950 -1.8182 -1.3595
  796MOL0     H 7440   7.055  -0.377  11.013 -1.6941 -0.9685  0.7258
  796MOL0     H 7441   6.903  -0.191  10.939 -1.2807 -0.6365 -0.2907
  796MOL0     H 7442   6.706   0.060  10.693 -0.0526  1.7203  0.2807
  796MOL0     H 7443   6.515   0.230  10.690  0.6483 -0.5406  0.8593
  796MOL0     H 7444   4.891   0.404  10.488 -1.2721  1.1077  1.8458
  796MOL0     H 7445   4.707   0.541  10.413 -0.3221  0.1764  0.2786
  796MOL0     H 7446   4.214   0.348  10.065  3.1776  1.8501 -4.3194
  796MOL0     H 7447   4.007   0.474  10.021 -0.3100  0.8403 -2.4250
  796MOL0     H 7448   3.830   0.620  10.097  3.2337  0.3586  2.1811
  796MOL0     H 7449   3.870   0.663   9.920  1.1641  2.7234 -0.7537
  796MOL0     H 7450   3.810   0.905   9.968  1.0990 -0.4113 -0.1736
  796MOL0     H 7451   3.757   0.847  10.130 -0.0865  0.4684  0.4222
  796MOL0     H 7452   3.592   0.717  10.045 -0.2796  1.4195  0.8366
  796MOL0     H 7453   3.646   0.731   9.872 -1.1652  3.1075 -1.8164
  796MOL0     H 7454   3.522   0.964  10.022 -3.4758  3.0872 -2.2215
  796MOL0     H 7455   3.622   0.972   9.870  2.5644 -2.2603  0.4305
  796MOL0     H 7456   3.282   0.803   9.699  0.5383 -2.4328  0.8652
  796MOL0     H 7457   4.192   0.815  10.233 -0.8966  0.2253  0.1533
  796MOL0     H 7458   4.354   0.780  10.365  1.1261  1.1555 -1.1713
  796MOL0     H 7459   4.428   0.623  10.385  1.1392 -3.3364 -2.1963
  796MOL0     H 7460   4.480   0.735  10.246 -0.4708 -0.4359  0.1067
  797MOL0     O 7461   0.677   2.097   1.367  0.0560 -0.8954 -0.0386
  797MOL0     C 7462   0.653   1.985   1.405  0.2521  0.0520  0.6170
  797MOL0     O 7463   0.741   1.882   1.430  0.3463  0.1175  0.1432
  797MOL0     C 7464   0.875   1.904   1.416  0.2843 -0.0210  0.6161
  797MOL0     C 7465   0.925   1.955   1.296 -0.6938  0.5243 -0.6188
  797MOL0     C 7466   1.064   1.963   1.274 -0.0041  0.4487 -0.3770
  797MOL0     C 7467   1.151   1.941   1.382  0.5775 -0.4716  0.2777
  797MOL0     O 7468   1.275   1.967   1.347 -0.6225  0.2978  0.4913
  797MOL0     C 7469   1.378   1.912   1.431  0.2191  0.2972 -0.9851
  797MOL0     C 7470   1.512   1.970   1.372  0.1502  0.3909  0.0404
  797MOL0     C 7471   1.638   1.916   1.425 -0.3326  0.3762  0.4832
  797MOL0     C 7472   1.651   1.765   1.417 -1.0652  0.3594  0.9709
  797MOL0     C 7473   1.793   1.722   1.464 -0.5328 -0.3602 -0.0885
  797MOL0     C 7474   1.906   1.747   1.360 -0.2437  0.3579  0.4538
  797MOL0     C 7475   1.862   1.720   1.206  0.3315  0.1646  0.1693
  797MOL0     C 7476   1.803   1.582   1.158  0.0206  0.3428 -0.0577
  797MOL0     N 7477   1.854   1.471   1.242  1.0692 -0.4324  0.1170
  797MOL0     C 7478   1.982   1.442   1.245 -1.3932  0.1619  0.0166
  797MOL0     C 7479   1.986   1.339   1.333 -0.8453 -0.0063  0.3896
  797MOL0     C 7480   2.108   1.251   1.363  0.6406  0.6635  0.5428
  797MOL0     C 7481   2.166   1.275   1.498 -0.5252 -0.6249 -0.3356
  797MOL0     C 7482   2.288   1.198   1.497 -0.3419  0.4634 -0.2367
  797MOL0     C 7483   2.360   1.210   1.627 -0.5564  0.4251  0.6346
  797MOL0     O 7484   2.488   1.134   1.626  0.4787  0.2040 -0.2113
  797MOL0     C 7485   2.590   1.179   1.551 -0.1801 -0.6330  0.2629
  797MOL0     C 7486   2.601   1.302   1.489  0.3289  0.7003  0.5294
  797MOL0     C 7487   2.722   1.329   1.419  0.5222 -0.4854 -0.1851
  797MOL0     C 7488   2.827   1.234   1.411  0.7244 -0.7680  0.0989
  797MOL0     C 7489   2.951   1.271   1.329 -0.1709  0.3068 -0.4495
  797MOL0     O 7490   3.050   1.180   1.310 -0.8441  0.0489  0.0612
  797MOL0     C 7491   3.164   1.219   1.249  0.1106 -0.3183  0.4789
  797MOL0     C 7492   3.206   1.166   1.121  0.0265 -0.4191 -0.0732
  797MOL0     C 7493   3.323   1.215   1.057  0.1063 -0.4562 -0.5211
  797MOL0     C 7494   3.406   1.315   1.119 -0.0513  0.0272  0.3971
  797MOL0     O 7495   3.508   1.386   1.055 -0.2773  0.3938  0.5432
  797MOL0     C 7496   3.582   1.302   0.966  0.0637  0.3028 -0.3913
  797MOL0     C 7497   3.726   1.307   0.987 -0.4037  0.4383  0.0567
  797MOL0     C 7498   3.784   1.446   0.982  0.3816  0.2104  0.8563
  797MOL0     C 7499   3.914   1.448   1.056  0.2758  0.1883 -0.0142
  797MOL0     C 7500   4.026   1.404   0.967 -0.3635  0.5317 -0.4710
  797MOL0     C 7501   4.159   1.376   1.047  0.3731 -0.4887  0.2198
  797MOL0     C 7502   4.274   1.357   0.940 -0.2799  0.5549  0.4649
  797MOL0     C 7503   4.371   1.244   0.984  0.1804  0.5195  0.4260
  797MOL0    Cl 7504   4.489   1.309   1.103  0.0989  0.1374 -0.0764
  797MOL0     C 7505   3.367   1.363   1.244 -0.3418  0.2347 -0.4193
  797MOL0     C 7506   3.251   1.315   1.305 -0.7625 -0.0035  0.2643
  797MOL0     O 7507   2.967   1.388   1.299  0.1224 -0.3085  0.0339
  797MOL0     C 7508   2.813   1.117   1.474  0.5011  0.3557  0.3748
  797MOL0     C 7509   2.693   1.089   1.538  0.5578  0.2217  0.2655
  797MOL0     N 7510   1.868   1.311   1.389 -0.3736  0.5131  0.5765
  797MOL0     N 7511   1.794   1.404   1.342  0.4336 -0.4137 -0.1193
  797MOL0     C 7512   1.099   1.905   1.507 -0.4674  0.4856  0.0798
  797MOL0     C 7513   0.959   1.891   1.528  0.1831 -0.6425 -0.2808
  797MOL0     C 7514   0.513   1.943   1.398 -0.2612  0.1375  0.2234
  797MOL0     C 7515   0.474   1.841   1.312 -0.1370  0.3002 -1.3071
  797MOL0     C 7516   0.347   1.780   1.329 -0.3429 -0.6036 -0.2586
  797MOL0     C 7517   0.254   1.833   1.419 -0.1624  0.2695 -0.4023
  797MOL0     O 7518   0.127   1.783   1.415  0.1892 -0.1281  0.6726
  797MOL0     C 7519   0.073   1.742   1.539 -0.1226  0.3578 -0.3470
  797MOL0     C 7520   0.004   1.609   1.528  0.1064 -0.8568  0.4784
  797MOL0     C 7521  -0.115   1.612   1.421  0.2054  0.3478 -0.1481
  797MOL0     C 7522  -0.199   1.485   1.407 -0.5220 -0.2558  0.6677
  797MOL0     C 7523  -0.262   1.430   1.527  0.0369  0.4622  0.5771
  797MOL0     C 7524  -0.344   1.393   1.612  0.1456 -0.2047  0.1329
  797MOL0     C 7525   0.299   1.935   1.509  0.2029  1.0495  0.4161
  797MOL0     C 7526   0.425   1.988   1.498  0.6692 -0.0302 -0.6059
  797MOL0     C 7527   0.467   2.083   1.609 -0.3218 -0.0797  0.5003
  797MOL0     H 7528   0.855   1.970   1.214  0.6481  0.6573 -1.7735
  797MOL0     H 7529   1.091   1.982   1.170 -0.0992 -2.4565 -1.0402
  797MOL0     H 7530   1.363   1.930   1.538 -0.3908 -0.9310 -0.8492
  797MOL0     H 7531   1.377   1.803   1.422 -1.9640  0.3808 -2.5032
  797MOL0     H 7532   1.513   2.077   1.396  1.5986  0.9024 -1.9987
  797MOL0     H 7533   1.510   1.970   1.262  3.0956  0.2573 -0.0735
  797MOL0     H 7534   1.643   1.963   1.524 -0.1890  3.1341 -0.7551
  797MOL0     H 7535   1.723   1.957   1.370  0.0842  0.7767  1.3982
  797MOL0     H 7536   1.582   1.718   1.488 -1.1028 -0.6931  0.2626
  797MOL0     H 7537   1.616   1.720   1.324  0.7150  1.7505 -0.4525
  797MOL0     H 7538   1.823   1.767   1.559  2.1264  1.0957 -1.5063
  797MOL0     H 7539   1.792   1.615   1.486 -0.2501 -0.0112  1.8273
  797MOL0     H 7540   1.928   1.853   1.372  2.0505 -0.1011  0.9304
  797MOL0     H 7541   2.000   1.698   1.387 -0.1686  0.7704  0.9538
  797MOL0     H 7542   1.954   1.738   1.150 -0.8105 -0.3085 -1.9743
  797MOL0     H 7543   1.789   1.799   1.187  3.3632  3.6765  2.0002
  797MOL0     H 7544   1.694   1.592   1.166 -0.1364 -0.7982 -0.6086
  797MOL0     H 7545   1.834   1.553   1.057  1.8444 -0.7175  0.7466
  797MOL0     H 7546   2.064   1.493   1.195 -0.9551 -1.6339 -1.1709
  797MOL0     H 7547   2.084   1.145   1.349 -2.0979  1.4341 -1.7383
  797MOL0     H 7548   2.176   1.272   1.280 -0.7810 -0.0583 -0.8750
  797MOL0     H 7549   2.204   1.377   1.503  2.2383 -1.6373  1.1098
  797MOL0     H 7550   2.086   1.256   1.570 -0.2242  0.6534  0.3460
  797MOL0     H 7551   2.360   1.242   1.426 -1.0082  0.6969 -0.7784
  797MOL0     H 7552   2.275   1.091   1.483  0.7168 -0.0382  2.1067
  797MOL0     H 7553   2.299   1.171   1.709 -0.2573  0.3965  0.8452
  797MOL0     H 7554   2.380   1.314   1.653 -3.1705  1.1868 -0.0928
  797MOL0     H 7555   2.513   1.365   1.490 -2.2983 -2.6020 -1.4004
  797MOL0     H 7556   2.720   1.424   1.366 -5.5574  0.7070  1.4761
  797MOL0     H 7557   3.155   1.084   1.071  1.2856 -1.6635  0.6130
  797MOL0     H 7558   3.336   1.180   0.955 -1.3198  0.2373 -0.9593
  797MOL0     H 7559   3.555   1.198   0.984 -1.1023  0.1517 -2.6406
  797MOL0     H 7560   3.560   1.331   0.863 -0.1074 -1.2685 -0.8164
  797MOL0     H 7561   3.737   1.259   1.085 -0.2180  1.7487  0.7053
  797MOL0     H 7562   3.785   1.245   0.919 -2.4518  0.0580 -1.4509
  797MOL0     H 7563   3.788   1.472   0.876 -1.8662 -1.3802  0.2819
  797MOL0     H 7564   3.718   1.530   1.007 -1.0735 -0.1315 -1.4775
  797MOL0     H 7565   3.916   1.382   1.143 -1.3473  2.8541  2.2076
  797MOL0     H 7566   3.942   1.549   1.087  0.9923  0.4538 -1.4309
  797MOL0     H 7567   4.042   1.485   0.895 -1.6086 -0.9770 -2.5733
  797MOL0     H 7568   4.002   1.312   0.913 -2.9148 -0.3603  1.9715
  797MOL0     H 7569   4.176   1.461   1.115 -1.9770 -0.3864  0.7799
  797MOL0     H 7570   4.149   1.293   1.117  0.0078  1.7796  3.0682
  797MOL0     H 7571   4.326   1.448   0.912  2.0032 -0.9439 -0.4940
  797MOL0     H 7572   4.229   1.322   0.846  0.0019 -0.9063  0.8412
  797MOL0     H 7573   4.335   1.144   1.010  3.6660 -1.3775 -1.2497
  797MOL0     H 7574   4.434   1.222   0.897  1.1048 -1.6384  1.5518
  797MOL0     H 7575   3.432   1.440   1.287 -0.5345  1.4680 -2.2319
  797MOL0     H 7576   3.208   1.363   1.392 -0.2039  0.5270  0.2503
  797MOL0     H 7577   2.896   1.048   1.468 -0.8847 -1.2877 -0.8544
  797MOL0     H 7578   2.680   0.983   1.559  0.1721  0.6739  2.6044
  797MOL0     H 7579   1.156   1.897   1.598 -0.3230 -0.0959 -0.0582
  797MOL0     H 7580   0.914   1.873   1.625 -0.9151  1.4724 -0.3299
  797MOL0     H 7581   0.530   1.813   1.224  0.9944  1.9084 -1.1518
  797MOL0     H 7582   0.311   1.699   1.266  0.2455  0.2018 -1.6860
  797MOL0     H 7583   0.018   1.832   1.570  2.5939  2.0138 -0.0343
  797MOL0     H 7584   0.151   1.743   1.616 -0.8499  1.2634  0.4104
  797MOL0     H 7585  -0.027   1.578   1.628 -2.2555 -0.7327 -0.1510
  797MOL0     H 7586   0.080   1.538   1.494  1.4835 -0.8393  3.2447
  797MOL0     H 7587  -0.076   1.627   1.320 -0.8259  1.8298 -0.3698
  797MOL0     H 7588  -0.193   1.689   1.430  1.0359  1.4066 -1.5711
  797MOL0     H 7589  -0.288   1.499   1.344  0.2588  0.2577 -0.3507
  797MOL0     H 7590  -0.130   1.410   1.367 -0.0963  0.5288 -0.1044
  797MOL0     H 7591  -0.405   1.344   1.685  0.0522 -0.9765 -0.4542
  797MOL0     H 7592   0.225   1.979   1.574  0.9399  2.1919  0.5024
  797MOL0     H 7593   0.567   2.127   1.607 -0.6650  0.6797 -1.4158
  797MOL0     H 7594   0.392   2.160   1.624  0.5042  0.7583  0.4258
  797MOL0     H 7595   0.464   2.019   1.698 -4.1452  1.2587  1.5173
  798MOL0     O 7596   2.686   0.984   4.326  0.3659 -0.6577  0.0340
  798MOL0     C 7597   2.742   0.878   4.313 -0.8731  0.7085 -0.8854
  798MOL0     O 7598   2.869   0.858   4.257  0.2938 -0.7131  0.0665
  798MOL0     C 7599   2.948   0.963   4.222  0.4583  0.3217 -0.8436
  798MOL0     C 7600   2.956   1.005   4.092  0.1643  0.2282 -0.1272
  798MOL0     C 7601   3.045   1.113   4.054 -0.4612 -0.2741 -0.1048
  798MOL0     C 7602   3.129   1.172   4.149  0.7261 -0.0218 -0.0552
  798MOL0     O 7603   3.206   1.290   4.123  0.0721  0.1433 -0.8542
  798MOL0     C 7604   3.255   1.315   3.994 -0.9985  0.0150  1.1753
  798MOL0     C 7605   3.374   1.411   4.009  0.1547 -0.0069  0.8562
  798MOL0     C 7606   3.420   1.444   3.870  0.2673  0.1447  0.6429
  798MOL0     C 7607   3.560   1.503   3.892 -0.5625 -0.5633  0.0470
  798MOL0     C 7608   3.615   1.563   3.760  0.8946 -0.3079 -0.6598
  798MOL0     C 7609   3.771   1.528   3.749  0.2019  0.5201  0.1764
  798MOL0     C 7610   3.823   1.599   3.619 -0.6185 -1.0332  0.0649
  798MOL0     C 7611   3.965   1.539   3.585 -0.9112 -0.0671 -0.7316
  798MOL0     N 7612   4.068   1.608   3.668 -0.4437 -0.0755  0.0135
  798MOL0     C 7613   4.103   1.573   3.802 -0.8121  0.7032 -0.0940
  798MOL0     C 7614   4.216   1.622   3.832 -1.1316  0.1002  0.3644
  798MOL0     C 7615   4.292   1.596   3.960  0.5064 -0.4349 -0.2185
  798MOL0     C 7616   4.443   1.606   3.950 -0.1336  0.0750 -0.3907
  798MOL0     C 7617   4.505   1.481   3.889 -0.5431  0.2590 -0.5058
  798MOL0     C 7618   4.662   1.473   3.889  0.3994  0.5639  0.1573
  798MOL0     O 7619   4.707   1.473   4.031  0.1751  0.5682  0.1797
  798MOL0     C 7620   4.828   1.529   4.050 -0.8362  0.4702  0.0142
  798MOL0     C 7621   4.932   1.519   3.950 -0.9335  0.1832 -0.2609
  798MOL0     C 7622   5.054   1.571   3.964 -0.2915  0.3679  0.0952
  798MOL0     C 7623   5.082   1.634   4.083  0.2892  1.1977 -0.6756
  798MOL0     C 7624   5.211   1.705   4.099  0.8591  0.2767  0.4410
  798MOL0     O 7625   5.304   1.704   4.000 -0.8717  0.1510  0.2598
  798MOL0     C 7626   5.424   1.770   4.005 -1.5431  0.3555 -0.5988
  798MOL0     C 7627   5.435   1.910   3.999  0.6611 -0.4772  0.3648
  798MOL0     C 7628   5.559   1.977   3.982  0.0264  0.2624 -0.6405
  798MOL0     C 7629   5.674   1.903   3.983 -0.7167  0.3613  0.7324
  798MOL0     O 7630   5.790   1.956   3.951  0.2057 -0.9217  0.3569
  798MOL0     C 7631   5.813   2.101   3.927  0.0132 -0.0142 -0.3421
  798MOL0     C 7632   5.966   2.109   3.912  0.7639  0.6008  0.6671
  798MOL0     C 7633   6.039   2.086   4.040 -0.1568 -0.2737 -0.1547
  798MOL0     C 7634   6.185   2.107   4.024 -0.4075  0.2816  0.9535
  798MOL0     C 7635   6.274   2.113   4.145  0.0885 -0.2298 -0.0603
  798MOL0     C 7636   6.262   1.989   4.231  0.1700  0.3871 -0.3885
  798MOL0     C 7637   6.386   1.985   4.325 -0.4977  0.0238  1.0540
  798MOL0     C 7638   6.437   1.840   4.353 -1.1673 -0.2125  0.1342
  798MOL0    Cl 7639   6.602   1.834   4.420  0.8897  0.2610 -0.6040
  798MOL0     C 7640   5.665   1.772   3.998 -0.0487 -0.0235 -0.3779
  798MOL0     C 7641   5.548   1.697   4.003 -0.1231  0.7342  0.1944
  798MOL0     O 7642   5.230   1.765   4.200 -0.1366 -0.5393 -0.2886
  798MOL0     C 7643   4.989   1.649   4.188 -0.3938  1.4259  0.7141
  798MOL0     C 7644   4.856   1.601   4.164  0.1129  0.1067  0.6527
  798MOL0     N 7645   4.257   1.702   3.725  0.4358  0.0367 -0.2437
  798MOL0     N 7646   4.176   1.680   3.627 -0.5020 -0.0167  0.4851
  798MOL0     C 7647   3.124   1.123   4.283  0.1971  0.6550  0.8246
  798MOL0     C 7648   3.032   1.027   4.321 -0.0266  0.3073  0.2282
  798MOL0     C 7649   2.668   0.756   4.356  0.1172 -0.0034  0.5531
  798MOL0     C 7650   2.746   0.645   4.385 -0.5395  0.1783 -0.1490
  798MOL0     C 7651   2.689   0.524   4.419  0.2318 -0.0580 -0.0421
  798MOL0     C 7652   2.550   0.511   4.428 -0.0031  1.0196 -0.6390
  798MOL0     O 7653   2.479   0.391   4.445  0.4350 -0.1541  0.0127
  798MOL0     C 7654   2.554   0.267   4.452  0.8466  0.2059 -0.5089
  798MOL0     C 7655   2.454   0.156   4.481  0.8671  0.4651  0.2033
  798MOL0     C 7656   2.359   0.116   4.365  1.0944  0.6943  0.2847
  798MOL0     C 7657   2.259   0.011   4.416 -0.4884  0.0286 -0.6250
  798MOL0     C 7658   2.118   0.033   4.378  0.4797  0.3477 -1.1500
  798MOL0     C 7659   2.005   0.065   4.346  0.0507  0.4630 -0.3070
  798MOL0     C 7660   2.474   0.627   4.411 -0.0862  0.6315  0.2880
  798MOL0     C 7661   2.526   0.742   4.358 -0.0185  0.0665 -0.1446
  798MOL0     C 7662   2.425   0.855   4.317  0.4642  0.2810 -0.2866
  798MOL0     H 7663   2.891   0.958   4.018  1.0511  1.2511 -1.5978
  798MOL0     H 7664   3.039   1.144   3.950  2.4942  0.4572 -0.1330
  798MOL0     H 7665   3.285   1.222   3.946 -3.5499 -0.4264  0.2849
  798MOL0     H 7666   3.186   1.365   3.926  0.9359 -0.1842 -1.0601
  798MOL0     H 7667   3.459   1.363   4.058  2.7870  1.6482 -1.7317
  798MOL0     H 7668   3.354   1.508   4.056  0.1183  1.1731 -1.4079
  798MOL0     H 7669   3.343   1.500   3.817  0.7419 -0.6169 -0.9101
  798MOL0     H 7670   3.434   1.352   3.812  0.7526  1.1275 -0.8424
  798MOL0     H 7671   3.568   1.577   3.972  0.8412 -2.7042  2.0075
  798MOL0     H 7672   3.628   1.422   3.921  0.1961 -0.8616 -2.3524
  798MOL0     H 7673   3.561   1.519   3.675  0.3513 -1.0240  0.0380
  798MOL0     H 7674   3.596   1.671   3.763  1.3828 -0.2392  0.8215
  798MOL0     H 7675   3.833   1.562   3.833 -2.1814  0.2665  2.1537
  798MOL0     H 7676   3.792   1.422   3.731 -0.3471  0.7158 -1.7982
  798MOL0     H 7677   3.833   1.706   3.639  1.3344 -1.2571  0.4880
  798MOL0     H 7678   3.752   1.574   3.540 -1.6342  1.8206 -0.0377
  798MOL0     H 7679   3.969   1.430   3.593 -1.3110 -0.1126 -1.1412
  798MOL0     H 7680   3.991   1.563   3.482 -0.7487 -0.6294 -0.8222
  798MOL0     H 7681   4.067   1.498   3.873  1.3602 -1.9425 -1.5927
  798MOL0     H 7682   4.257   1.681   4.020  1.4903 -0.1636 -0.0126
  798MOL0     H 7683   4.260   1.502   4.006 -3.4288  1.2395  0.9198
  798MOL0     H 7684   4.469   1.692   3.888 -1.5680  1.6848  1.1344
  798MOL0     H 7685   4.494   1.628   4.044  0.5465  0.5068 -0.8451
  798MOL0     H 7686   4.464   1.494   3.788 -2.5160  1.8072  0.4352
  798MOL0     H 7687   4.474   1.389   3.940 -1.0311 -1.0262 -2.9577
  798MOL0     H 7688   4.696   1.566   3.842 -1.1516  0.7649 -0.6389
  798MOL0     H 7689   4.692   1.378   3.844  0.7583  1.1538 -0.8778
  798MOL0     H 7690   4.911   1.448   3.871  0.4828 -0.6171  0.0441
  798MOL0     H 7691   5.125   1.542   3.887 -1.1594 -0.4006 -0.4354
  798MOL0     H 7692   5.336   1.955   3.992  0.7265 -0.1005  1.6356
  798MOL0     H 7693   5.541   2.080   3.953 -0.6601 -0.6259 -3.8311
  798MOL0     H 7694   5.771   2.144   3.835  1.0312  0.0964 -0.7684
  798MOL0     H 7695   5.780   2.156   4.015 -1.9134 -1.9724  0.2470
  798MOL0     H 7696   6.006   2.043   3.834  2.7783  0.4758  1.7461
  798MOL0     H 7697   5.989   2.210   3.875 -1.7023  0.6001 -1.1408
  798MOL0     H 7698   6.026   2.171   4.108  2.8631  1.1447 -1.1726
  798MOL0     H 7699   6.022   1.994   4.096  0.3636  0.2047  0.8218
  798MOL0     H 7700   6.208   2.193   3.960 -0.1836  1.0164  2.0146
  798MOL0     H 7701   6.211   2.021   3.961 -1.7768  1.5186 -1.4587
  798MOL0     H 7702   6.250   2.203   4.202 -0.1943  1.4300 -2.6242
  798MOL0     H 7703   6.378   2.132   4.116  1.3802 -1.5150  3.1844
  798MOL0     H 7704   6.174   2.002   4.295  0.4305  0.8304 -0.1175
  798MOL0     H 7705   6.259   1.903   4.164  0.4434 -0.4186  0.6108
  798MOL0     H 7706   6.352   2.029   4.420 -1.1513  0.6086  0.5592
  798MOL0     H 7707   6.472   2.038   4.285 -0.5717 -0.3906  0.3325
  798MOL0     H 7708   6.368   1.783   4.417 -0.4818 -1.1700  0.0448
  798MOL0     H 7709   6.454   1.790   4.257  1.7458 -0.1371  0.5422
  798MOL0     H 7710   5.760   1.719   4.007 -0.9263 -1.5218  0.4218
  798MOL0     H 7711   5.534   1.590   4.016 -3.8670  1.0006 -0.3422
  798MOL0     H 7712   5.026   1.714   4.267  0.1403  0.1626  1.5382
  798MOL0     H 7713   4.770   1.604   4.231 -2.2576 -1.4255 -2.0860
  798MOL0     H 7714   3.204   1.156   4.349  0.6448  1.3513 -0.0380
  798MOL0     H 7715   3.025   0.979   4.417 -0.2730 -4.5634 -1.9437
  798MOL0     H 7716   2.855   0.641   4.385 -0.5815 -1.6530 -0.6479
  798MOL0     H 7717   2.745   0.432   4.409  0.4522  0.2054 -1.4160
  798MOL0     H 7718   2.622   0.252   4.537 -0.8760 -1.0335  0.7180
  798MOL0     H 7719   2.606   0.239   4.360 -0.6684 -2.0379 -0.7659
  798MOL0     H 7720   2.402   0.176   4.575 -1.3057 -2.3450 -0.2877
  798MOL0     H 7721   2.519   0.072   4.508  0.2684  0.9565  3.5829
  798MOL0     H 7722   2.413   0.088   4.274  1.0262  0.8845  0.1867
  798MOL0     H 7723   2.302   0.205   4.341  2.5107  1.7590  0.7272
  798MOL0     H 7724   2.295  -0.081   4.370 -0.7618  0.2599 -1.3245
  798MOL0     H 7725   2.262  -0.020   4.521 -1.4618 -1.0882 -0.9088
  798MOL0     H 7726   1.900   0.085   4.333  0.1935  0.7791 -1.0227
  798MOL0     H 7727   2.367   0.635   4.420 -0.0150  0.0386  1.8475
  798MOL0     H 7728   2.466   0.911   4.232  1.8058  0.3443  0.3855
  798MOL0     H 7729   2.320   0.828   4.298  0.8317 -3.5646  2.0946
  798MOL0     H 7730   2.421   0.925   4.401 -1.3219  1.2194 -1.0880
  799MOL0     O 7731   5.997   1.819   9.457  0.1534  0.0120 -0.1457
  799MOL0     C 7732   5.922   1.899   9.523 -0.2702  0.3630 -0.3979
  799MOL0     O 7733   5.966   1.982   9.635  0.2114 -0.1723 -0.2664
  799MOL0     C 7734   6.098   1.964   9.659 -0.3379 -0.0009  0.1074
  799MOL0     C 7735   6.187   2.073   9.654  0.2381 -0.5912 -0.4904
  799MOL0     C 7736   6.319   2.058   9.689  0.3321 -0.6722 -0.4851
  799MOL0     C 7737   6.364   1.933   9.736 -0.6247  0.1919 -0.2610
  799MOL0     O 7738   6.489   1.910   9.778 -0.1831 -0.4204 -0.9544
  799MOL0     C 7739   6.608   1.967   9.719  0.0128  0.0159  0.0549
  799MOL0     C 7740   6.719   1.981   9.819  1.1399 -0.1477  0.1885
  799MOL0     C 7741   6.688   2.096   9.920  0.9283  0.8317  0.0999
  799MOL0     C 7742   6.676   2.240   9.864  0.6382  1.1082 -0.7827
  799MOL0     C 7743   6.551   2.296   9.930  0.5120  0.0143 -0.3324
  799MOL0     C 7744   6.573   2.313  10.077 -0.5367 -0.1441  0.3440
  799MOL0     C 7745   6.469   2.419  10.108  0.1409 -0.2251  0.7190
  799MOL0     C 7746   6.426   2.435  10.253  0.1707 -0.1172  0.5022
  799MOL0     N 7747   6.341   2.552  10.259  1.5539 -0.3936 -0.0671
  799MOL0     C 7748   6.209   2.558  10.218  0.6401 -0.3198 -0.0216
  799MOL0     C 7749   6.169   2.680  10.258 -0.2465 -0.3191  0.3219
  799MOL0     C 7750   6.030   2.737  10.236 -0.7799  0.6164 -0.1558
  799MOL0     C 7751   6.012   2.795  10.095  0.0490 -0.2713  1.0716
  799MOL0     C 7752   6.032   2.689   9.977  1.1272 -0.0559 -0.6312
  799MOL0     C 7753   5.975   2.733   9.835 -0.1541  0.9953  0.2606
  799MOL0     O 7754   6.012   2.634   9.739 -0.9939  0.0458  0.1591
  799MOL0     C 7755   6.150   2.622   9.704  1.1044  0.6116 -0.1619
  799MOL0     C 7756   6.257   2.714   9.733 -0.1552  0.0821  0.3846
  799MOL0     C 7757   6.388   2.680   9.701  0.4376  0.0099  0.5135
  799MOL0     C 7758   6.416   2.561   9.630 -0.9263  0.1921 -0.1870
  799MOL0     C 7759   6.556   2.527   9.605  0.1676 -0.2024 -0.3362
  799MOL0     O 7760   6.565   2.426   9.516 -0.5702 -0.1445  0.1866
  799MOL0     C 7761   6.679   2.370   9.461  0.2880 -0.2087 -0.1708
  799MOL0     C 7762   6.677   2.338   9.323  0.7484  0.8112  0.6550
  799MOL0     C 7763   6.791   2.301   9.246  0.2684  0.5014  0.1881
  799MOL0     C 7764   6.911   2.283   9.306 -0.2123 -0.2821  0.1748
  799MOL0     O 7765   7.019   2.273   9.231 -0.5851 -0.6993  0.2744
  799MOL0     C 7766   7.009   2.165   9.139  0.0222  0.7808 -0.0268
  799MOL0     C 7767   7.155   2.110   9.118 -0.2641  0.1113  0.1462
  799MOL0     C 7768   7.219   2.202   9.013  0.2417 -0.2207 -0.4509
  799MOL0     C 7769   7.361   2.161   8.984 -0.0207  0.0627  0.0336
  799MOL0     C 7770   7.427   2.255   8.889 -0.6945 -0.2625  0.5999
  799MOL0     C 7771   7.570   2.203   8.857 -1.7555  0.7453  0.2249
  799MOL0     C 7772   7.662   2.285   8.760  0.3104  0.4411 -0.6430
  799MOL0     C 7773   7.805   2.213   8.748 -0.2245  0.2281  0.1249
  799MOL0    Cl 7774   7.783   2.075   8.631 -0.1535 -0.3442  0.1797
  799MOL0     C 7775   6.927   2.327   9.437 -0.3028 -0.0600  0.1451
  799MOL0     C 7776   6.812   2.374   9.516  0.5494  0.3372  0.9219
  799MOL0     O 7777   6.647   2.591   9.655  0.4082 -0.3003 -0.1551
  799MOL0     C 7778   6.311   2.474   9.598 -0.5608 -0.3947  0.7072
  799MOL0     C 7779   6.178   2.508   9.625 -0.3658 -0.9032  0.1320
  799MOL0     N 7780   6.272   2.750  10.310  0.5440 -0.0026 -0.9552
  799MOL0     N 7781   6.374   2.675  10.311  0.2588 -1.2655  0.5609
  799MOL0     C 7782   6.272   1.827   9.748  0.3486 -0.1508 -0.3582
  799MOL0     C 7783   6.134   1.841   9.720 -0.7093 -0.0579  0.1063
  799MOL0     C 7784   5.775   1.889   9.509 -0.1991 -0.5036 -0.1342
  799MOL0     C 7785   5.697   1.927   9.620  0.1171 -0.8507  0.6044
  799MOL0     C 7786   5.556   1.943   9.598 -0.9728 -0.2730  0.4253
  799MOL0     C 7787   5.499   1.915   9.475  0.5163 -0.2674  1.2624
  799MOL0     O 7788   5.365   1.926   9.458 -0.0078  0.8403 -0.8330
  799MOL0     C 7789   5.307   2.055   9.475 -0.3404 -0.0672  0.1446
  799MOL0     C 7790   5.170   2.063   9.420  0.5404  0.2997  0.5916
  799MOL0     C 7791   5.094   1.943   9.478  0.1617 -0.4571 -0.2115
  799MOL0     C 7792   4.948   1.954   9.435 -0.5591  0.6257  0.1067
  799MOL0     C 7793   4.883   1.850   9.507 -0.3643  0.3239 -0.5545
  799MOL0     C 7794   4.827   1.752   9.560  0.1045  0.4824  0.7050
  799MOL0     C 7795   5.565   1.875   9.370 -0.1840  0.6876  0.7760
  799MOL0     C 7796   5.703   1.860   9.384 -0.0858 -0.7403  0.4446
  799MOL0     C 7797   5.778   1.830   9.251 -0.7718 -0.8537  0.5880
  799MOL0     H 7798   6.155   2.173   9.625  1.1710  0.1470  0.9342
  799MOL0     H 7799   6.385   2.143   9.701  0.7565 -0.8662 -1.4107
  799MOL0     H 7800   6.638   1.906   9.633  0.2317 -1.6842  1.2871
  799MOL0     H 7801   6.580   2.065   9.680  2.7008  0.2704 -1.5160
  799MOL0     H 7802   6.812   1.995   9.763  0.8150 -0.8619 -0.5566
  799MOL0     H 7803   6.736   1.882   9.863 -0.1665 -1.7564 -2.6122
  799MOL0     H 7804   6.765   2.098   9.999  1.6145 -4.4255 -0.0732
  799MOL0     H 7805   6.597   2.062   9.971  3.1051 -0.1713  3.7666
  799MOL0     H 7806   6.766   2.289   9.902  0.4506 -0.0315  1.3157
  799MOL0     H 7807   6.660   2.250   9.757 -0.1090 -0.8402 -0.9024
  799MOL0     H 7808   6.539   2.388   9.872 -0.5191 -0.5492 -1.0604
  799MOL0     H 7809   6.455   2.244   9.918  2.0784 -3.5837  1.3018
  799MOL0     H 7810   6.542   2.225  10.134  0.0348 -0.6392 -0.1029
  799MOL0     H 7811   6.671   2.357  10.098 -1.3701  1.5226  0.9520
  799MOL0     H 7812   6.378   2.389  10.054  1.7920  1.1601 -3.1649
  799MOL0     H 7813   6.493   2.516  10.063  0.2476 -0.7043 -0.2843
  799MOL0     H 7814   6.384   2.339  10.282  3.8932 -1.6158  1.6086
  799MOL0     H 7815   6.505   2.456  10.325 -0.4246  0.0543  1.1072
  799MOL0     H 7816   6.153   2.483  10.163  0.0116  0.8106 -0.9792
  799MOL0     H 7817   5.956   2.658  10.252  1.3044 -1.1978  1.2186
  799MOL0     H 7818   5.995   2.805  10.313 -0.0038 -0.6930  1.4210
  799MOL0     H 7819   5.910   2.836  10.084  1.2663  2.6211 -0.7574
  799MOL0     H 7820   6.081   2.878  10.078 -1.6164  1.2681  1.4574
  799MOL0     H 7821   5.973   2.601  10.006  0.8411  0.8264  1.6511
  799MOL0     H 7822   6.138   2.663   9.972  1.1410  0.2251 -3.9550
  799MOL0     H 7823   6.019   2.827   9.801  0.2198  1.8100  2.8006
  799MOL0     H 7824   5.866   2.743   9.842 -0.1092  1.3414  0.4812
  799MOL0     H 7825   6.237   2.800   9.795  2.4735  0.6375  0.5463
  799MOL0     H 7826   6.470   2.750   9.714  0.0211  0.7837 -0.8219
  799MOL0     H 7827   6.589   2.362   9.264  1.2642 -0.2099 -0.5664
  799MOL0     H 7828   6.792   2.291   9.138  1.7946 -0.6143  0.2735
  799MOL0     H 7829   6.958   2.088   9.198  0.3613  0.6658  0.1260
  799MOL0     H 7830   6.955   2.180   9.045  3.4061 -1.4833 -2.5754
  799MOL0     H 7831   7.209   2.111   9.213 -1.8618 -0.0450  1.0895
  799MOL0     H 7832   7.150   2.008   9.079 -1.2191  0.9497 -2.1274
  799MOL0     H 7833   7.158   2.183   8.924 -2.6359  1.8269  0.9292
  799MOL0     H 7834   7.210   2.308   9.037 -0.6458  0.0402 -1.8243
  799MOL0     H 7835   7.367   2.055   8.955 -3.9342 -0.6581  1.2971
  799MOL0     H 7836   7.409   2.177   9.080  1.4348  2.7609 -1.0313
  799MOL0     H 7837   7.429   2.358   8.927 -2.5944 -0.3435  1.0320
  799MOL0     H 7838   7.376   2.260   8.793  1.0967 -3.0149 -0.6094
  799MOL0     H 7839   7.633   2.172   8.941  0.9704  3.3773 -0.6559
  799MOL0     H 7840   7.561   2.106   8.808 -0.2911  0.5355  0.3230
  799MOL0     H 7841   7.688   2.386   8.793 -0.5323  1.1264 -1.9537
  799MOL0     H 7842   7.623   2.302   8.659 -1.6829  3.5544  0.4938
  799MOL0     H 7843   7.884   2.282   8.716 -1.3249  1.8605  0.7795
  799MOL0     H 7844   7.844   2.170   8.841 -2.7944  0.3647  1.3504
  799MOL0     H 7845   7.024   2.333   9.484 -0.7035  2.4627  0.7842
  799MOL0     H 7846   6.833   2.425   9.610  2.6938  1.4887 -0.1004
  799MOL0     H 7847   6.338   2.386   9.541  0.8985  0.2063  0.4319
  799MOL0     H 7848   6.097   2.443   9.593 -1.2849  1.0042 -1.7283
  799MOL0     H 7849   6.306   1.745   9.810 -2.0709  0.6522  2.2356
  799MOL0     H 7850   6.061   1.762   9.735 -1.6829  0.2719 -2.4444
  799MOL0     H 7851   5.742   1.954   9.715  0.7791  3.5993 -0.7460
  799MOL0     H 7852   5.491   1.961   9.684  0.8325  0.6787  1.6734
  799MOL0     H 7853   5.370   2.135   9.435 -0.4712 -0.6156 -1.1896
  799MOL0     H 7854   5.308   2.068   9.584  1.5083  1.0490  0.0473
  799MOL0     H 7855   5.157   2.048   9.312 -2.8805 -1.9469  1.1397
  799MOL0     H 7856   5.123   2.160   9.438  0.0775  0.4998 -1.3884
  799MOL0     H 7857   5.098   1.952   9.587  0.8343  2.3836 -0.3929
  799MOL0     H 7858   5.144   1.853   9.442  1.1167  0.1246 -0.3782
  799MOL0     H 7859   4.913   2.051   9.472 -3.1309  0.8560 -2.5826
  799MOL0     H 7860   4.933   1.945   9.328  1.9923 -3.8379 -0.1092
  799MOL0     H 7861   4.788   1.664   9.607  0.3610 -0.2152 -0.3703
  799MOL0     H 7862   5.514   1.853   9.277 -0.3143  0.6481  0.8575
  799MOL0     H 7863   5.807   1.725   9.239  2.5529 -0.0679  0.7820
  799MOL0     H 7864   5.723   1.868   9.165  0.7950  0.1283 -0.0366
  799MOL0     H 7865   5.870   1.888   9.240  0.0213 -1.9837  1.0600
  800MOL0     O 7866   6.661   3.972   7.072 -0.1147 -0.0709  0.1040
  800MOL0     C 7867   6.540   3.999   7.071  1.7843  0.2759  0.8324
  800MOL0     O 7868   6.486   4.057   6.955  0.5371 -0.2795 -0.0536
  800MOL0     C 7869   6.574   4.114   6.870  0.6528  0.5425 -0.0744
  800MOL0     C 7870   6.567   4.085   6.733  0.3529 -0.0753 -0.1967
  800MOL0     C 7871   6.666   4.146   6.648 -0.4977  0.1481  0.4689
  800MOL0     C 7872   6.771   4.237   6.693 -0.1188  0.4308 -0.0658
  800MOL0     O 7873   6.857   4.322   6.617  0.2299  1.2735 -0.0139
  800MOL0     C 7874   6.834   4.324   6.476 -0.2345  0.8145 -0.0190
  800MOL0     C 7875   6.906   4.433   6.407  0.7366  0.7394  0.6738
  800MOL0     C 7876   7.061   4.401   6.411  0.1536  0.5198  0.0563
  800MOL0     C 7877   7.132   4.484   6.305 -1.4940  0.1300 -0.7380
  800MOL0     C 7878   7.286   4.451   6.302 -0.7459 -0.3861 -0.0557
  800MOL0     C 7879   7.349   4.538   6.190 -0.2533  0.0169 -0.0863
  800MOL0     C 7880   7.497   4.519   6.159 -0.6526  0.2445 -0.8404
  800MOL0     C 7881   7.582   4.530   6.293  0.0440 -0.3450  0.2390
  800MOL0     N 7882   7.726   4.545   6.269 -1.2009 -1.0124 -0.0266
  800MOL0     C 7883   7.807   4.446   6.210  0.0166  0.7729 -0.1711
  800MOL0     C 7884   7.926   4.502   6.188  0.6439 -0.1671 -0.5448
  800MOL0     C 7885   8.051   4.445   6.116  0.0452 -0.5628 -0.1936
  800MOL0     C 7886   8.104   4.538   6.012 -0.1141 -0.2406  0.3059
  800MOL0     C 7887   8.249   4.494   5.969 -0.9105 -0.2159  1.1019
  800MOL0     C 7888   8.332   4.601   5.889 -0.5823 -0.2840 -0.1581
  800MOL0     O 7889   8.467   4.554   5.873  0.0608 -0.1772  0.7513
  800MOL0     C 7890   8.560   4.576   5.970  0.1055  0.0053 -0.1979
  800MOL0     C 7891   8.602   4.709   5.996 -0.1464 -0.5982 -0.4225
  800MOL0     C 7892   8.691   4.727   6.095  0.0613 -0.2593 -0.1093
  800MOL0     C 7893   8.746   4.628   6.171  0.0258  0.3507 -0.7100
  800MOL0     C 7894   8.851   4.657   6.274 -0.4506 -0.5442 -0.0711
  800MOL0     O 7895   8.892   4.543   6.348  0.7679 -0.1322  0.1350
  800MOL0     C 7896   8.966   4.584   6.457 -0.2848 -0.1735 -0.3360
  800MOL0     C 7897   8.928   4.666   6.562 -0.1637  0.8524  0.0883
  800MOL0     C 7898   9.010   4.693   6.666 -0.1310  0.7569  0.2638
  800MOL0     C 7899   9.147   4.651   6.660 -0.4097  0.0743 -0.6806
  800MOL0     O 7900   9.230   4.686   6.772  0.3311 -0.8356  0.1531
  800MOL0     C 7901   9.353   4.624   6.787 -0.1283 -0.2311  0.4876
  800MOL0     C 7902   9.393   4.665   6.926 -0.0848 -0.0468  0.5782
  800MOL0     C 7903   9.531   4.611   6.963 -0.3410  0.4089  0.9389
  800MOL0     C 7904   9.641   4.682   6.876 -0.4764  0.0708  0.2707
  800MOL0     C 7905   9.782   4.667   6.937  0.1893  0.1481 -0.2373
  800MOL0     C 7906   9.886   4.763   6.858 -0.4948  0.1400 -0.5844
  800MOL0     C 7907  10.032   4.712   6.848  0.4909  0.1562 -0.9688
  800MOL0     C 7908  10.120   4.782   6.740 -0.6905  0.1899  0.4553
  800MOL0    Cl 7909  10.128   4.960   6.772  0.9166  0.0344 -0.3969
  800MOL0     C 7910   9.189   4.582   6.551 -0.6396  0.5387 -0.4293
  800MOL0     C 7911   9.102   4.551   6.448 -0.4763 -0.4401 -0.1122
  800MOL0     O 7912   8.893   4.770   6.283 -0.0912  0.1544  0.2804
  800MOL0     C 7913   8.710   4.489   6.150  0.3584 -0.2192 -0.7066
  800MOL0     C 7914   8.616   4.469   6.048  0.4233 -0.1016  0.1324
  800MOL0     N 7915   7.919   4.633   6.223  0.6666  0.4989 -0.0511
  800MOL0     N 7916   7.801   4.659   6.272  0.2802  0.5934 -0.1521
  800MOL0     C 7917   6.760   4.272   6.825  0.7615 -0.2886 -0.3839
  800MOL0     C 7918   6.663   4.218   6.920  0.1560  0.7813 -0.6823
  800MOL0     C 7919   6.448   3.966   7.182 -0.3837 -0.2518  0.7530
  800MOL0     C 7920   6.305   3.962   7.159  0.0735 -0.6280  0.2284
  800MOL0     C 7921   6.214   3.948   7.263 -0.1703  0.7550 -0.2456
  800MOL0     C 7922   6.261   3.934   7.394 -0.4771 -0.2214  1.1936
  800MOL0     O 7923   6.165   3.914   7.488 -1.1732  0.7225  0.1723
  800MOL0     C 7924   6.202   3.896   7.626 -0.4413 -0.0156 -0.1342
  800MOL0     C 7925   6.079   3.873   7.715  0.5750 -0.5814 -0.2861
  800MOL0     C 7926   6.121   3.834   7.867  0.0793 -1.1794  0.5633
  800MOL0     C 7927   6.169   3.951   7.951  0.2741  0.0433 -0.4718
  800MOL0     C 7928   6.043   4.031   7.973 -0.7062  0.2721  0.1040
  800MOL0     C 7929   5.953   4.100   7.999 -0.0454  0.0862 -0.7155
  800MOL0     C 7930   6.403   3.931   7.420 -0.2523  0.3392 -0.4786
  800MOL0     C 7931   6.493   3.948   7.315 -0.2603 -0.5204 -0.4402
  800MOL0     C 7932   6.634   3.939   7.359 -0.2744 -0.0999 -0.1404
  800MOL0     H 7933   6.487   4.020   6.701  1.7375 -1.4715 -0.9461
  800MOL0     H 7934   6.664   4.119   6.543 -0.8735 -0.1666  0.5559
  800MOL0     H 7935   6.853   4.231   6.422  0.5484  1.8623 -1.6017
  800MOL0     H 7936   6.728   4.350   6.463 -0.2866  0.8495  0.4389
  800MOL0     H 7937   6.884   4.532   6.448  0.1585 -0.1064  2.5345
  800MOL0     H 7938   6.871   4.431   6.303 -1.6616  1.0689  1.4057
  800MOL0     H 7939   7.056   4.297   6.379 -0.5674  0.7969 -0.7712
  800MOL0     H 7940   7.103   4.405   6.512 -0.7829  1.1353  0.4307
  800MOL0     H 7941   7.083   4.456   6.212 -3.1804 -0.7298  0.3550
  800MOL0     H 7942   7.109   4.588   6.331 -3.1776 -0.3482 -0.2410
  800MOL0     H 7943   7.334   4.483   6.395 -3.0754  2.6577  0.2471
  800MOL0     H 7944   7.303   4.343   6.295 -0.2359 -0.4531  1.7216
  800MOL0     H 7945   7.292   4.507   6.103  1.0324 -2.5503 -0.0907
  800MOL0     H 7946   7.336   4.644   6.217 -0.1215 -0.1729  0.7630
  800MOL0     H 7947   7.531   4.590   6.084 -1.2591  2.1369  0.5879
  800MOL0     H 7948   7.506   4.416   6.123  3.3917 -0.5284  1.7535
  800MOL0     H 7949   7.550   4.617   6.351 -0.7358  0.3968 -1.2477
  800MOL0     H 7950   7.571   4.435   6.346  0.6402 -0.9581 -0.7041
  800MOL0     H 7951   7.794   4.341   6.184  1.2567  0.4133  0.5979
  800MOL0     H 7952   8.126   4.430   6.193 -0.6278 -0.0474  0.5796
  800MOL0     H 7953   8.006   4.360   6.064 -1.1527  0.0008 -0.1256
  800MOL0     H 7954   8.045   4.526   5.920  0.6883 -0.3012 -0.2088
  800MOL0     H 7955   8.099   4.641   6.049  1.7144  0.5836 -1.5602
  800MOL0     H 7956   8.240   4.406   5.905 -1.1357  1.2211 -0.9628
  800MOL0     H 7957   8.317   4.473   6.051  0.3316 -1.3204 -0.1693
  800MOL0     H 7958   8.333   4.699   5.937 -0.7255 -2.0265  3.8367
  800MOL0     H 7959   8.289   4.612   5.789  3.8900  0.3749 -2.2948
  800MOL0     H 7960   8.561   4.789   5.935  0.4755  1.3988  1.6518
  800MOL0     H 7961   8.724   4.829   6.109  2.0000 -0.8056 -0.4530
  800MOL0     H 7962   8.830   4.712   6.566  0.0736  1.2996  1.1519
  800MOL0     H 7963   8.972   4.752   6.749 -2.4495 -2.5524  1.7698
  800MOL0     H 7964   9.338   4.517   6.772 -0.4274 -0.0729 -0.3719
  800MOL0     H 7965   9.425   4.655   6.711  3.0751 -2.5021  2.3557
  800MOL0     H 7966   9.401   4.772   6.947  1.7997 -0.3080  1.4481
  800MOL0     H 7967   9.326   4.613   6.996 -2.0404 -0.0512 -1.2227
  800MOL0     H 7968   9.557   4.638   7.066  0.7286  3.6604 -0.0535
  800MOL0     H 7969   9.529   4.503   6.944  1.9154  0.4695 -0.0439
  800MOL0     H 7970   9.625   4.790   6.861  1.9246  0.2642 -1.5313
  800MOL0     H 7971   9.636   4.639   6.776 -1.4652 -3.7832  1.8243
  800MOL0     H 7972   9.805   4.560   6.926  0.5135 -0.0844  2.0949
  800MOL0     H 7973   9.778   4.696   7.042 -0.2263  1.5266 -0.6096
  800MOL0     H 7974   9.846   4.781   6.758 -0.7699 -0.2593 -0.5496
  800MOL0     H 7975   9.895   4.857   6.913  0.4984  1.0607 -2.2435
  800MOL0     H 7976  10.046   4.604   6.838  0.9868  0.2289 -1.1091
  800MOL0     H 7977  10.072   4.727   6.949 -2.2030 -2.7536  0.6968
  800MOL0     H 7978  10.222   4.744   6.730  1.3727  5.0234  0.6047
  800MOL0     H 7979  10.073   4.774   6.642  0.6344  1.1759 -0.2940
  800MOL0     H 7980   9.294   4.552   6.550 -0.5874  0.6460 -2.5050
  800MOL0     H 7981   9.137   4.496   6.361 -1.2997 -3.7004  1.4723
  800MOL0     H 7982   8.749   4.405   6.205  2.4576  1.5582  0.6924
  800MOL0     H 7983   8.586   4.366   6.029  0.4421 -0.1043  0.1164
  800MOL0     H 7984   6.829   4.351   6.854 -0.5435  0.4140  0.9951
  800MOL0     H 7985   6.660   4.260   7.020  0.5625 -1.1327  0.1822
  800MOL0     H 7986   6.271   3.983   7.057  2.7449  0.4153 -0.5363
  800MOL0     H 7987   6.109   3.939   7.238 -0.5015  0.3755  1.1936
  800MOL0     H 7988   6.264   3.980   7.659  1.6434 -0.8973 -1.5683
  800MOL0     H 7989   6.266   3.807   7.632  1.4775  1.3861  2.8860
  800MOL0     H 7990   6.017   3.794   7.671 -3.3439  2.0336  0.0574
  800MOL0     H 7991   6.013   3.959   7.717 -1.4298 -1.9953 -1.8775
  800MOL0     H 7992   6.201   3.760   7.869 -0.4752 -1.7920  0.2386
  800MOL0     H 7993   6.026   3.803   7.912 -1.3170 -0.1164 -1.4696
  800MOL0     H 7994   6.222   3.920   8.042  0.8932 -0.2988 -0.9447
  800MOL0     H 7995   6.239   4.019   7.901  2.7627 -0.5269  1.9766
  800MOL0     H 7996   5.863   4.159   8.008 -0.0900 -0.1928  0.9726
  800MOL0     H 7997   6.432   3.910   7.523  0.4202  1.7650 -0.3515
  800MOL0     H 7998   6.652   3.873   7.445 -0.1493  0.2717  0.1214
  800MOL0     H 7999   6.694   3.868   7.301 -0.8798 -1.0116  0.3176
  800MOL0     H 8000   6.681   4.036   7.377 -2.3687  1.3649 -2.0452
  801MOL0     O 8001   2.182   4.935   2.048 -0.3727 -0.2186 -0.4018
  801MOL0     C 8002   2.115   4.869   2.126  0.2690 -0.8260 -0.0038
  801MOL0     O 8003   2.139   4.848   2.256 -0.0358 -0.2530 -0.4746
  801MOL0     C 8004   2.242   4.923   2.297  0.2405 -0.4795 -0.5184
  801MOL0     C 8005   2.381   4.906   2.259 -0.6199 -0.5108  0.1364
  801MOL0     C 8006   2.470   5.001   2.300 -0.6906  0.4604 -0.9769
  801MOL0     C 8007   2.446   5.119   2.372 -0.6496  0.5253 -0.2826
  801MOL0     O 8008   2.546   5.206   2.405  0.1215  0.2405  0.4141
  801MOL0     C 8009   2.512   5.315   2.490  0.0193  0.1847 -0.1302
  801MOL0     C 8010   2.634   5.387   2.546 -0.5306 -0.9668 -0.7925
  801MOL0     C 8011   2.654   5.519   2.476 -0.2491  0.6626 -0.7626
  801MOL0     C 8012   2.671   5.498   2.321 -0.8027 -0.9275 -0.4115
  801MOL0     C 8013   2.636   5.633   2.252  0.1798  0.4745  0.2049
  801MOL0     C 8014   2.732   5.751   2.277  0.0481 -1.0869  0.5378
  801MOL0     C 8015   2.876   5.730   2.234 -1.1020  0.1286 -0.6698
  801MOL0     C 8016   2.888   5.736   2.079 -1.0167  0.9524  0.1084
  801MOL0     N 8017   3.026   5.699   2.033  0.6989  0.1021  0.2360
  801MOL0     C 8018   3.085   5.572   2.036 -0.8006  0.0857  0.3775
  801MOL0     C 8019   3.212   5.593   1.985 -0.1853 -1.7971 -0.4499
  801MOL0     C 8020   3.308   5.478   1.975 -0.4708 -0.2526 -0.3386
  801MOL0     C 8021   3.412   5.492   2.086  0.5312  1.0379  0.3901
  801MOL0     C 8022   3.346   5.450   2.219 -0.3416 -0.3903 -0.1617
  801MOL0     C 8023   3.446   5.448   2.333 -0.0884  0.0677 -0.2088
  801MOL0     O 8024   3.555   5.351   2.325  0.2296 -0.5202  0.4747
  801MOL0     C 8025   3.668   5.390   2.384  0.3705  0.5430  0.3604
  801MOL0     C 8026   3.684   5.492   2.470 -0.5606  0.0888  0.1591
  801MOL0     C 8027   3.806   5.508   2.530 -0.4414  0.1126 -1.5625
  801MOL0     C 8028   3.917   5.428   2.502 -0.2694 -0.5061  0.1809
  801MOL0     C 8029   4.054   5.451   2.559  0.5380  0.4948 -0.3154
  801MOL0     O 8030   4.151   5.357   2.524  0.1888  0.2608 -0.4463
  801MOL0     C 8031   4.278   5.378   2.565 -0.8762 -1.0182 -0.0110
  801MOL0     C 8032   4.368   5.321   2.470 -0.0991 -0.0265 -0.9056
  801MOL0     C 8033   4.508   5.330   2.498  0.1778  0.9657  0.3183
  801MOL0     C 8034   4.561   5.399   2.615 -0.4704 -0.2465 -0.8746
  801MOL0     O 8035   4.694   5.408   2.654 -0.4838  0.3310  0.3337
  801MOL0     C 8036   4.789   5.371   2.550 -0.3478 -0.5411 -0.8487
  801MOL0     C 8037   4.920   5.433   2.585  0.3727 -0.3315  0.3578
  801MOL0     C 8038   5.025   5.406   2.474  0.9441 -0.5739 -0.3352
  801MOL0     C 8039   5.162   5.463   2.519  0.0116  0.0827 -0.3969
  801MOL0     C 8040   5.274   5.461   2.413 -0.0845 -0.9266  0.1326
  801MOL0     C 8041   5.417   5.488   2.471  0.0095 -0.7758  0.9539
  801MOL0     C 8042   5.530   5.483   2.365  0.2085  0.3081  0.5383
  801MOL0     C 8043   5.659   5.447   2.429 -0.3397  0.7576  0.1901
  801MOL0    Cl 8044   5.698   5.582   2.550 -0.5273 -0.0261  0.1520
  801MOL0     C 8045   4.467   5.454   2.704  0.1370 -0.6256 -0.2112
  801MOL0     C 8046   4.327   5.446   2.679 -0.5852  0.4135  0.0074
  801MOL0     O 8047   4.065   5.548   2.632  0.1904 -0.4113 -0.0391
  801MOL0     C 8048   3.899   5.321   2.409 -0.3557  1.0605 -0.4611
  801MOL0     C 8049   3.779   5.301   2.353 -0.0643 -0.4439  0.6598
  801MOL0     N 8050   3.218   5.722   1.948  0.5201  0.5739  0.2962
  801MOL0     N 8051   3.107   5.785   1.975  0.6403 -0.0608 -0.0240
  801MOL0     C 8052   2.315   5.140   2.388  0.4859  0.2846  0.5129
  801MOL0     C 8053   2.214   5.044   2.369 -0.1480 -0.7399 -0.0975
  801MOL0     C 8054   1.992   4.810   2.061 -0.2556  0.1190  0.4263
  801MOL0     C 8055   1.872   4.824   2.131  0.3301  0.2280 -0.6261
  801MOL0     C 8056   1.752   4.780   2.074 -0.2177 -0.2341 -0.1839
  801MOL0     C 8057   1.755   4.711   1.955  1.4608 -0.3312  0.2635
  801MOL0     O 8058   1.631   4.672   1.904  0.1266  0.0887 -0.6345
  801MOL0     C 8059   1.626   4.572   1.802 -0.5629  0.3010 -0.5161
  801MOL0     C 8060   1.650   4.433   1.852  1.2726 -0.0432 -0.1149
  801MOL0     C 8061   1.530   4.384   1.938 -0.4306 -0.3890  0.1661
  801MOL0     C 8062   1.406   4.366   1.850  0.3834  0.3336  0.4335
  801MOL0     C 8063   1.307   4.471   1.871 -0.7612  0.5568 -0.0692
  801MOL0     C 8064   1.219   4.556   1.873  0.8344  0.1582  0.2824
  801MOL0     C 8065   1.867   4.693   1.885  0.3633 -0.2312  1.0214
  801MOL0     C 8066   1.987   4.735   1.940 -0.5741  0.1107 -0.6951
  801MOL0     C 8067   2.104   4.693   1.868 -1.3283 -0.3646  0.5472
  801MOL0     H 8068   2.411   4.815   2.207 -0.2884 -1.0739  1.2849
  801MOL0     H 8069   2.574   4.987   2.270 -0.7476 -1.4303 -0.4275
  801MOL0     H 8070   2.445   5.388   2.446  1.8821  3.9883  2.7841
  801MOL0     H 8071   2.452   5.270   2.570 -4.3398  0.8914 -2.7043
  801MOL0     H 8072   2.728   5.332   2.555  0.5365  1.0714  1.6052
  801MOL0     H 8073   2.613   5.417   2.649  1.6779  0.7752 -0.7911
  801MOL0     H 8074   2.747   5.558   2.519  0.6109 -1.0266 -0.9887
  801MOL0     H 8075   2.575   5.592   2.497  0.0468  1.1891 -1.4351
  801MOL0     H 8076   2.770   5.461   2.293  0.7175  1.8829  0.8757
  801MOL0     H 8077   2.595   5.436   2.273 -0.2531 -2.5575  0.7518
  801MOL0     H 8078   2.636   5.612   2.145  0.2290  2.3488 -0.1836
  801MOL0     H 8079   2.532   5.652   2.280  0.7367  0.7648  2.2676
  801MOL0     H 8080   2.692   5.832   2.215 -1.7309 -1.8407  0.6376
  801MOL0     H 8081   2.724   5.784   2.381 -0.4563  1.8847 -0.3597
  801MOL0     H 8082   2.922   5.638   2.271  2.0367  1.1666 -1.7210
  801MOL0     H 8083   2.943   5.808   2.271 -0.8639 -1.2602  2.0814
  801MOL0     H 8084   2.824   5.664   2.027  0.6368 -1.7263  1.5147
  801MOL0     H 8085   2.859   5.834   2.042  3.1513  1.8099 -1.4203
  801MOL0     H 8086   3.031   5.484   2.070  0.6232  0.1626  3.1635
  801MOL0     H 8087   3.249   5.386   1.975 -3.8242  1.6993 -0.9767
  801MOL0     H 8088   3.349   5.484   1.874  0.9422 -0.5699  0.1992
  801MOL0     H 8089   3.489   5.419   2.059 -1.3506 -1.0063  0.3009
  801MOL0     H 8090   3.460   5.590   2.090  2.5061  0.0942  1.1947
  801MOL0     H 8091   3.310   5.348   2.206  2.4825 -1.2484 -2.4721
  801MOL0     H 8092   3.261   5.515   2.241  0.6673  1.7522 -2.1619
  801MOL0     H 8093   3.396   5.427   2.428  2.0492  0.0428  0.9803
  801MOL0     H 8094   3.490   5.548   2.344  2.6773 -1.1046  0.1623
  801MOL0     H 8095   3.602   5.554   2.505 -0.3593  2.9349 -3.7065
  801MOL0     H 8096   3.808   5.602   2.585  0.3912 -0.8147  0.0848
  801MOL0     H 8097   4.340   5.280   2.374  3.3435 -0.5117 -1.8587
  801MOL0     H 8098   4.566   5.279   2.422 -3.1867 -2.3814 -0.2698
  801MOL0     H 8099   4.799   5.263   2.538  3.9425 -0.3315 -0.5350
  801MOL0     H 8100   4.751   5.421   2.460  1.7917 -2.2702 -2.8038
  801MOL0     H 8101   4.896   5.537   2.609 -3.8900 -0.8726 -0.7646
  801MOL0     H 8102   4.957   5.396   2.681  2.5161  1.8643  0.4821
  801MOL0     H 8103   5.020   5.298   2.457 -2.9395 -0.5419 -0.2161
  801MOL0     H 8104   4.989   5.457   2.383  0.0675  0.9199  0.7984
  801MOL0     H 8105   5.185   5.393   2.600  0.9449 -2.5138 -2.7397
  801MOL0     H 8106   5.149   5.570   2.532  1.8432  0.4390 -1.1855
  801MOL0     H 8107   5.260   5.534   2.332  0.3326  0.3484  1.1680
  801MOL0     H 8108   5.281   5.365   2.360 -1.2816 -0.2902 -1.2508
  801MOL0     H 8109   5.417   5.582   2.527 -1.9368 -1.0707  1.5271
  801MOL0     H 8110   5.442   5.408   2.540 -0.0496  0.5121  2.5154
  801MOL0     H 8111   5.539   5.578   2.313 -1.1499  0.4743  0.5585
  801MOL0     H 8112   5.496   5.400   2.301 -0.2736 -0.5536  1.8670
  801MOL0     H 8113   5.647   5.350   2.478  0.3263 -0.3273 -1.6502
  801MOL0     H 8114   5.743   5.439   2.359 -0.2729  5.0611 -0.4503
  801MOL0     H 8115   4.506   5.493   2.798  1.1830 -0.8079 -0.5519
  801MOL0     H 8116   4.258   5.496   2.746 -2.0550 -0.7498 -0.5825
  801MOL0     H 8117   3.978   5.250   2.385 -1.7961 -0.0468 -2.1659
  801MOL0     H 8118   3.760   5.207   2.301  1.1209  1.1396 -2.9283
  801MOL0     H 8119   2.269   5.234   2.414  0.1412  0.0535  0.7480
  801MOL0     H 8120   2.107   5.058   2.379 -0.1670 -1.7085  1.4855
  801MOL0     H 8121   1.874   4.876   2.226 -1.1173  2.9510 -1.9548
  801MOL0     H 8122   1.656   4.797   2.123  1.0616  0.5319  2.2230
  801MOL0     H 8123   1.701   4.596   1.726  1.4442 -0.3006  1.2074
  801MOL0     H 8124   1.531   4.580   1.747 -0.4911 -0.3959 -0.7511
  801MOL0     H 8125   1.739   4.425   1.916 -1.0971 -1.2610  3.3043
  801MOL0     H 8126   1.653   4.371   1.763 -0.4103 -0.4785  0.0954
  801MOL0     H 8127   1.501   4.458   2.013  0.5344  0.8502 -0.6406
  801MOL0     H 8128   1.554   4.289   1.985 -0.9478  0.4189  2.1524
  801MOL0     H 8129   1.439   4.359   1.746 -3.1890 -3.9293 -0.7167
  801MOL0     H 8130   1.359   4.271   1.874  1.8022 -0.4385  0.2729
  801MOL0     H 8131   1.139   4.628   1.879  2.4980  2.1313 -0.0780
  801MOL0     H 8132   1.873   4.637   1.792 -1.2558  1.3378 -0.1076
  801MOL0     H 8133   2.184   4.661   1.935 -0.5351 -3.9125 -1.8029
  801MOL0     H 8134   2.077   4.611   1.800  1.5455 -2.0791  1.3324
  801MOL0     H 8135   2.131   4.771   1.797  0.3417 -1.3027  0.0929
  802MOL0     O 8136   4.241   7.927  10.086 -0.0854 -0.4896  0.5766
  802MOL0     C 8137   4.147   8.010  10.080 -0.6014 -0.3898  0.3047
  802MOL0     O 8138   4.107   8.075   9.973  0.7803 -0.1787  0.4265
  802MOL0     C 8139   4.176   8.086   9.851  0.1971 -0.1188 -0.1538
  802MOL0     C 8140   4.318   8.102   9.843  0.4876  0.3331 -0.0843
  802MOL0     C 8141   4.384   8.128   9.716  0.0545  0.5256  0.0700
  802MOL0     C 8142   4.309   8.129   9.593  0.0914 -0.4482  0.6132
  802MOL0     O 8143   4.358   8.155   9.463 -0.4884 -0.3875  0.4079
  802MOL0     C 8144   4.488   8.191   9.432  0.1007 -0.0868 -0.1730
  802MOL0     C 8145   4.513   8.282   9.308  0.5543 -0.6271  0.4685
  802MOL0     C 8146   4.508   8.220   9.166 -0.3050 -0.7322 -0.0530
  802MOL0     C 8147   4.631   8.137   9.134  0.0330  0.7969  0.4688
  802MOL0     C 8148   4.758   8.222   9.102  0.5293  0.1323 -0.9523
  802MOL0     C 8149   4.882   8.147   9.051 -1.2130 -0.1953 -1.4927
  802MOL0     C 8150   4.861   8.102   8.908 -0.3608 -0.0569  0.3810
  802MOL0     C 8151   4.989   8.095   8.829 -0.9269  0.6213  0.5975
  802MOL0     N 8152   5.058   7.961   8.839  0.6395 -0.9421  0.2301
  802MOL0     C 8153   5.098   7.902   8.957  0.6416 -0.4026  0.8288
  802MOL0     C 8154   5.156   7.780   8.923 -0.7182  0.0509  0.2442
  802MOL0     C 8155   5.187   7.669   9.018 -0.2158  0.3314  1.2576
  802MOL0     C 8156   5.330   7.658   9.038 -0.3492  0.8678 -1.2755
  802MOL0     C 8157   5.365   7.552   9.138  0.2040  0.6233  0.1808
  802MOL0     C 8158   5.514   7.532   9.146 -1.4903 -0.5468  0.2141
  802MOL0     O 8159   5.564   7.538   9.017 -0.3146 -0.5800  0.0878
  802MOL0     C 8160   5.694   7.538   9.000 -0.1543 -0.2959 -1.0815
  802MOL0     C 8161   5.736   7.574   8.872  0.2766 -0.8484  0.1383
  802MOL0     C 8162   5.874   7.577   8.837 -0.0351 -0.9712  0.0335
  802MOL0     C 8163   5.975   7.558   8.937  0.3985 -0.3677  0.1393
  802MOL0     C 8164   6.111   7.591   8.896 -0.0218 -0.2905  1.0232
  802MOL0     O 8165   6.201   7.616   8.996  0.2439 -0.0034  0.7136
  802MOL0     C 8166   6.331   7.638   8.961  0.0268  0.3328 -0.0037
  802MOL0     C 8167   6.400   7.556   8.880  0.2579 -0.1909 -0.1280
  802MOL0     C 8168   6.537   7.578   8.848  0.5137 -0.2052  0.3484
  802MOL0     C 8169   6.616   7.685   8.909  0.5229  0.2661 -0.0435
  802MOL0     O 8170   6.745   7.711   8.902 -0.2187 -0.8625  0.5612
  802MOL0     C 8171   6.827   7.603   8.888 -0.5315 -0.6149 -0.0935
  802MOL0     C 8172   6.967   7.652   8.872  0.2619 -0.7411 -0.0855
  802MOL0     C 8173   6.982   7.728   8.734 -1.0752 -0.4484  0.5458
  802MOL0     C 8174   7.134   7.758   8.721 -0.0330 -0.0078  0.2883
  802MOL0     C 8175   7.162   7.825   8.590 -0.7854 -0.0421 -0.3746
  802MOL0     C 8176   7.310   7.879   8.578  0.4652  0.3138  0.2517
  802MOL0     C 8177   7.417   7.772   8.566 -0.3235  0.4453  0.0379
  802MOL0     C 8178   7.558   7.830   8.564 -0.0978 -0.2235 -0.0701
  802MOL0    Cl 8179   7.598   7.917   8.722 -0.0273 -0.2860  0.0552
  802MOL0     C 8180   6.541   7.771   8.993 -0.2456 -0.0816  0.4485
  802MOL0     C 8181   6.403   7.752   9.016  0.8171 -0.0845  0.5622
  802MOL0     O 8182   6.130   7.610   8.773 -0.0702  0.0786  0.3045
  802MOL0     C 8183   5.930   7.538   9.070 -0.4539  0.4803  0.8538
  802MOL0     C 8184   5.792   7.524   9.097  0.4376 -0.1545 -0.2006
  802MOL0     N 8185   5.148   7.772   8.784 -0.5763 -0.3159 -0.0263
  802MOL0     N 8186   5.091   7.876   8.735  0.3059 -0.0956 -0.3487
  802MOL0     C 8187   4.169   8.098   9.600 -0.5067 -0.6019  0.2803
  802MOL0     C 8188   4.105   8.078   9.727  0.3388 -0.1392 -0.8555
  802MOL0     C 8189   4.073   8.023  10.204 -0.5215 -0.2863 -0.2604
  802MOL0     C 8190   3.941   8.067  10.193 -0.7542  1.0623  0.6690
  802MOL0     C 8191   3.856   8.081  10.301 -0.0513 -0.2485  0.9631
  802MOL0     C 8192   3.901   8.047  10.426 -0.0783 -0.2006 -0.4681
  802MOL0     O 8193   3.831   8.034  10.540  0.5478  0.3365 -0.6671
  802MOL0     C 8194   3.689   8.049  10.534  0.0110 -0.1855 -0.4818
  802MOL0     C 8195   3.624   8.105  10.671  0.2803  0.1836 -0.4607
  802MOL0     C 8196   3.475   8.048  10.680 -0.0340 -0.2146  0.0965
  802MOL0     C 8197   3.469   7.896  10.735  0.1853 -0.3124 -0.3934
  802MOL0     C 8198   3.529   7.888  10.869  0.0212  0.0585 -0.0293
  802MOL0     C 8199   3.569   7.894  10.981 -0.2138  0.0976 -0.6715
  802MOL0     C 8200   4.040   8.017  10.442  0.5339 -0.5456 -0.0281
  802MOL0     C 8201   4.125   8.002  10.332  0.1328 -0.5527 -0.3834
  802MOL0     C 8202   4.264   7.955  10.365  0.2627  0.9703 -0.4798
  802MOL0     H 8203   4.378   8.097   9.934 -1.4228 -1.0311  1.1942
  802MOL0     H 8204   4.491   8.144   9.717  0.0064  0.8423  0.5000
  802MOL0     H 8205   4.536   8.253   9.508  1.8613 -1.9360  0.3125
  802MOL0     H 8206   4.552   8.104   9.415  0.7710  0.5418 -0.9508
  802MOL0     H 8207   4.614   8.321   9.323  0.3274  1.0009 -1.7713
  802MOL0     H 8208   4.442   8.365   9.309  1.2790  0.2009 -3.1337
  802MOL0     H 8209   4.486   8.287   9.082  2.3156  0.4318  0.1012
  802MOL0     H 8210   4.428   8.146   9.169 -0.0784 -1.0701 -1.4511
  802MOL0     H 8211   4.641   8.069   9.220  1.5752 -2.4487 -2.0443
  802MOL0     H 8212   4.607   8.075   9.047 -1.9717  2.1285  0.0167
  802MOL0     H 8213   4.722   8.300   9.035 -2.8932 -0.8770 -0.4667
  802MOL0     H 8214   4.789   8.263   9.199  2.1995 -0.0042 -1.3990
  802MOL0     H 8215   4.964   8.220   9.043 -0.3077 -1.3112 -2.8303
  802MOL0     H 8216   4.911   8.064   9.117  2.1036 -0.6365 -3.2818
  802MOL0     H 8217   4.796   8.172   8.856 -1.3468 -0.8360  0.5371
  802MOL0     H 8218   4.804   8.009   8.900  0.8416 -0.8754  1.0537
  802MOL0     H 8219   4.956   8.110   8.726 -0.4009 -1.5854  0.0547
  802MOL0     H 8220   5.064   8.171   8.852 -2.0783  0.8831  4.0002
  802MOL0     H 8221   5.094   7.941   9.058  2.5904 -2.6363  1.8710
  802MOL0     H 8222   5.128   7.674   9.111 -1.3588 -4.7196  1.0975
  802MOL0     H 8223   5.153   7.573   8.978  2.9576 -1.2369  1.9428
  802MOL0     H 8224   5.370   7.639   8.938 -1.9311  1.5972 -2.0872
  802MOL0     H 8225   5.361   7.756   9.078 -0.6621 -0.4363  2.5980
  802MOL0     H 8226   5.327   7.457   9.099  1.6558  0.3323 -0.6164
  802MOL0     H 8227   5.315   7.574   9.233 -1.1453 -0.6083 -0.2074
  802MOL0     H 8228   5.537   7.431   9.181  0.1553 -1.0029 -1.9880
  802MOL0     H 8229   5.557   7.611   9.208  0.4452 -0.0947 -1.5975
  802MOL0     H 8230   5.663   7.602   8.796  0.7467  1.6284  0.4961
  802MOL0     H 8231   5.904   7.606   8.737 -0.7659  0.8067  0.3079
  802MOL0     H 8232   6.340   7.472   8.845 -2.3174  1.2358  0.5410
  802MOL0     H 8233   6.594   7.513   8.782 -2.2787 -0.2328 -2.2676
  802MOL0     H 8234   6.815   7.557   8.987 -2.4072  1.7727  0.9059
  802MOL0     H 8235   6.816   7.532   8.805 -0.9205  0.6099 -1.1119
  802MOL0     H 8236   6.996   7.718   8.955  1.2358 -0.4625 -0.6217
  802MOL0     H 8237   7.031   7.563   8.866  0.5747 -0.4394 -2.0270
  802MOL0     H 8238   6.942   7.663   8.657  0.2978 -1.8786  0.9881
  802MOL0     H 8239   6.921   7.819   8.731 -3.0477 -1.7248 -2.9496
  802MOL0     H 8240   7.194   7.667   8.732  1.9982  1.5456  4.6694
  802MOL0     H 8241   7.165   7.818   8.808 -2.0449 -0.8269  1.6350
  802MOL0     H 8242   7.096   7.912   8.586  0.3032  0.8273  0.2806
  802MOL0     H 8243   7.134   7.765   8.502 -1.5238  1.0744 -0.9249
  802MOL0     H 8244   7.305   7.935   8.484 -3.9064  0.8382  0.6118
  802MOL0     H 8245   7.328   7.950   8.660  1.6785 -0.2674  0.5201
  802MOL0     H 8246   7.407   7.713   8.475  0.6633 -0.2374  0.3558
  802MOL0     H 8247   7.406   7.702   8.649  0.6253 -1.0680 -1.0766
  802MOL0     H 8248   7.634   7.753   8.552 -1.6981 -2.3498  2.3055
  802MOL0     H 8249   7.562   7.904   8.484  0.5729  0.5456  0.6488
  802MOL0     H 8250   6.596   7.852   9.041  0.2631 -0.8876  1.2540
  802MOL0     H 8251   6.358   7.817   9.091  2.0981  3.4320 -1.4488
  802MOL0     H 8252   5.999   7.517   9.152  0.0334 -2.2673 -0.1580
  802MOL0     H 8253   5.757   7.497   9.196  1.5925  1.1017  0.5742
  802MOL0     H 8254   4.102   8.116   9.517  0.0494 -1.3380 -0.3480
  802MOL0     H 8255   3.997   8.074   9.736  0.4004  0.2739  0.2232
  802MOL0     H 8256   3.913   8.106  10.096  2.1426 -0.7984 -1.0383
  802MOL0     H 8257   3.761   8.128  10.278  0.8880  1.9952  1.3975
  802MOL0     H 8258   3.642   7.953  10.513 -4.6612  1.7154  0.0364
  802MOL0     H 8259   3.659   8.118  10.454 -1.8661  0.2515  0.5352
  802MOL0     H 8260   3.608   8.213  10.676 -0.6206  0.0991 -1.1810
  802MOL0     H 8261   3.686   8.077  10.757  3.0811 -0.7009 -2.6053
  802MOL0     H 8262   3.426   8.051  10.582 -1.7007  0.3346  0.9072
  802MOL0     H 8263   3.408   8.114  10.736 -0.9896  0.3405 -1.6284
  802MOL0     H 8264   3.363   7.884  10.758  0.5441  2.2288  3.5262
  802MOL0     H 8265   3.494   7.814  10.667  1.9593  0.5552 -0.8593
  802MOL0     H 8266   3.603   7.909  11.081  0.7014 -0.5966 -0.8582
  802MOL0     H 8267   4.076   7.997  10.543  1.2795 -1.0581 -0.3852
  802MOL0     H 8268   4.343   8.014  10.318  0.7031  0.2190 -0.6842
  802MOL0     H 8269   4.282   7.964  10.473 -0.9767 -2.4838  0.1294
  802MOL0     H 8270   4.270   7.848  10.346  0.1333  0.5496  1.6241
  803MOL0     O 8271   9.065   4.861   1.174 -0.1937  0.2183 -0.9994
  803MOL0     C 8272   9.032   4.802   1.070 -0.8428 -0.4238  0.3285
  803MOL0     O 8273   9.114   4.747   0.980  0.1525  0.8379 -0.0373
  803MOL0     C 8274   9.249   4.749   1.001 -0.0076 -0.2998 -0.2776
  803MOL0     C 8275   9.334   4.775   0.897  1.6078  1.0247 -0.0220
  803MOL0     C 8276   9.469   4.773   0.908  0.0418 -0.3343  0.4648
  803MOL0     C 8277   9.535   4.732   1.021 -0.5045  0.0125  0.3747
  803MOL0     O 8278   9.673   4.722   1.040 -0.2488  0.6275  0.6649
  803MOL0     C 8279   9.743   4.708   0.912 -0.4163  0.0565  0.1853
  803MOL0     C 8280   9.887   4.662   0.951 -0.3367  0.3531 -0.4284
  803MOL0     C 8281   9.937   4.716   1.084  0.6296  0.5591  0.1696
  803MOL0     C 8282  10.091   4.673   1.093 -0.2851  0.8820 -0.3533
  803MOL0     C 8283  10.153   4.717   1.228  0.1889 -0.1451  0.1147
  803MOL0     C 8284  10.304   4.719   1.239  0.5672  0.1307 -0.3218
  803MOL0     C 8285  10.370   4.584   1.211  0.2703 -0.7425  0.7111
  803MOL0     C 8286  10.337   4.467   1.312  0.3258 -0.8549  0.1494
  803MOL0     N 8287  10.434   4.356   1.309 -1.3058  0.0602 -0.3551
  803MOL0     C 8288  10.432   4.274   1.203  0.3731 -0.6539 -0.0682
  803MOL0     C 8289  10.480   4.157   1.253  0.7566  0.2785  0.6321
  803MOL0     C 8290  10.510   4.028   1.189  0.2130  0.7566  0.9742
  803MOL0     C 8291  10.660   3.990   1.209  0.1598  0.8813  0.2688
  803MOL0     C 8292  10.710   3.894   1.102 -0.6782  0.4610 -0.1485
  803MOL0     C 8293  10.845   3.828   1.138  0.5917  0.2169 -0.3520
  803MOL0     O 8294  10.919   3.799   1.013 -0.0358  0.4329 -0.4047
  803MOL0     C 8295  11.059   3.814   1.015  0.2447 -1.0799 -0.0232
  803MOL0     C 8296  11.126   3.930   1.058  0.9870  0.3562 -0.2095
  803MOL0     C 8297  11.267   3.946   1.044  1.2382  0.2213 -0.1317
  803MOL0     C 8298  11.347   3.848   0.993  0.3571 -0.6135  0.4479
  803MOL0     C 8299  11.493   3.868   0.981  0.4608 -0.3491  0.2020
  803MOL0     O 8300  11.579   3.759   0.985  0.4037  0.3513  0.0921
  803MOL0     C 8301  11.709   3.765   0.954  0.1518 -0.1054  0.0169
  803MOL0     C 8302  11.764   3.824   0.832 -0.0251 -0.0413  0.5503
  803MOL0     C 8303  11.898   3.826   0.813 -0.8553 -0.0332 -0.2669
  803MOL0     C 8304  11.990   3.776   0.910  0.2031 -0.4443  0.6638
  803MOL0     O 8305  12.120   3.804   0.893 -0.1585  0.5631  0.0803
  803MOL0     C 8306  12.201   3.683   0.896 -0.0340  0.1810 -0.3757
  803MOL0     C 8307  12.346   3.729   0.903  0.8459 -0.0308  0.0637
  803MOL0     C 8308  12.445   3.608   0.917 -0.6440 -0.4655 -0.1415
  803MOL0     C 8309  12.589   3.658   0.879  0.1558 -0.0232 -0.2788
  803MOL0     C 8310  12.696   3.560   0.926 -0.2458  0.4505  0.7407
  803MOL0     C 8311  12.700   3.424   0.845  0.4865 -0.2572 -0.0345
  803MOL0     C 8312  12.766   3.314   0.936 -0.0838  0.1323  0.1411
  803MOL0     C 8313  12.909   3.357   0.968  0.5594 -0.2856  0.2576
  803MOL0    Cl 8314  13.007   3.414   0.830  0.0183 -0.4189 -0.0256
  803MOL0     C 8315  11.936   3.715   1.030  0.0638  0.1112  0.0930
  803MOL0     C 8316  11.795   3.710   1.044  0.3243 -0.4423  0.1252
  803MOL0     O 8317  11.531   3.986   0.973 -0.5348 -0.0524 -0.1632
  803MOL0     C 8318  11.278   3.734   0.942  0.0362 -0.1739  0.2560
  803MOL0     C 8319  11.146   3.721   0.963  0.9465 -0.6660  0.5166
  803MOL0     N 8320  10.504   4.157   1.387 -0.1233 -0.0198 -0.9051
  803MOL0     N 8321  10.485   4.287   1.413  1.0449  0.2850 -0.0757
  803MOL0     C 8322   9.449   4.699   1.126  0.1867 -0.0605 -0.6955
  803MOL0     C 8323   9.313   4.710   1.118  0.2481  0.6638  0.0286
  803MOL0     C 8324   8.884   4.811   1.043  0.7850  0.0934 -0.2491
  803MOL0     C 8325   8.839   4.830   0.913  0.2923 -1.0805 -0.3861
  803MOL0     C 8326   8.704   4.848   0.880  0.5644  0.2999 -0.0747
  803MOL0     C 8327   8.602   4.844   0.977  0.1896  0.4252 -0.2260
  803MOL0     O 8328   8.473   4.865   0.935 -0.4970 -0.0674 -0.3110
  803MOL0     C 8329   8.359   4.855   1.025  0.1147 -0.7013  0.7626
  803MOL0     C 8330   8.229   4.847   0.963  0.0081  0.9236  0.4408
  803MOL0     C 8331   8.225   4.704   0.882  0.1544  0.0654  0.5355
  803MOL0     C 8332   8.085   4.669   0.834  0.2110 -0.3004 -0.7217
  803MOL0     C 8333   8.029   4.769   0.738  0.1737  0.2072  0.6791
  803MOL0     C 8334   7.992   4.853   0.656  0.0829 -0.2988 -0.0187
  803MOL0     C 8335   8.645   4.820   1.107  0.0906 -0.1667  0.1726
  803MOL0     C 8336   8.781   4.809   1.145  0.0867 -0.0709  0.2131
  803MOL0     C 8337   8.802   4.768   1.284 -0.1573 -0.3808 -0.1208
  803MOL0     H 8338   9.292   4.783   0.798  0.4868 -2.2758  0.0677
  803MOL0     H 8339   9.518   4.812   0.820 -0.2691  0.9970  0.8565
  803MOL0     H 8340   9.704   4.631   0.845  1.8905  0.6774 -2.0498
  803MOL0     H 8341   9.745   4.801   0.854  1.3459 -0.3933 -0.5415
  803MOL0     H 8342   9.959   4.699   0.877 -0.3072  0.5506 -0.3031
  803MOL0     H 8343   9.891   4.554   0.967  1.6564  0.3519 -0.7009
  803MOL0     H 8344   9.880   4.680   1.170 -0.2431 -1.2539 -1.1184
  803MOL0     H 8345   9.932   4.826   1.086  2.8182  0.7150  0.0181
  803MOL0     H 8346  10.093   4.564   1.085 -0.8695  0.8930 -0.7053
  803MOL0     H 8347  10.148   4.724   1.015  2.2642 -1.5078 -0.2360
  803MOL0     H 8348  10.103   4.812   1.248  1.7671  0.4996  1.2821
  803MOL0     H 8349  10.119   4.645   1.303 -1.3890  0.7624  0.3082
  803MOL0     H 8350  10.339   4.784   1.159 -0.3641  1.4214  0.2935
  803MOL0     H 8351  10.332   4.765   1.334  2.9568  0.6989 -1.2296
  803MOL0     H 8352  10.478   4.595   1.200  0.5173 -2.8784  0.5872
  803MOL0     H 8353  10.332   4.552   1.114 -0.9656  0.7589  0.6437
  803MOL0     H 8354  10.341   4.497   1.417  2.1166 -1.9977  0.4631
  803MOL0     H 8355  10.239   4.429   1.284  0.8281 -1.0989 -1.4024
  803MOL0     H 8356  10.391   4.300   1.106  0.2335 -1.0923 -0.1305
  803MOL0     H 8357  10.445   3.953   1.235  0.2495  0.9874  1.4194
  803MOL0     H 8358  10.480   4.028   1.084 -0.6396  1.3150  1.2039
  803MOL0     H 8359  10.719   4.082   1.208 -0.6444  1.4104 -0.8075
  803MOL0     H 8360  10.670   3.944   1.308  0.4822 -0.8695 -0.5393
  803MOL0     H 8361  10.733   3.955   1.014  0.2203 -0.0812 -0.3095
  803MOL0     H 8362  10.640   3.813   1.077  0.7376 -0.8729  0.0269
  803MOL0     H 8363  10.838   3.733   1.192  2.3810 -0.2914 -0.9468
  803MOL0     H 8364  10.901   3.900   1.198 -1.0903  0.6019  0.8161
  803MOL0     H 8365  11.067   4.012   1.097  2.4045  0.5427  1.7311
  803MOL0     H 8366  11.310   4.039   1.078  1.8958  1.3437 -3.6385
  803MOL0     H 8367  11.706   3.871   0.753  3.5475  0.6044 -1.9323
  803MOL0     H 8368  11.928   3.864   0.716  0.4843  0.9617  0.4874
  803MOL0     H 8369  12.172   3.618   0.979  2.0445 -2.7621 -1.7563
  803MOL0     H 8370  12.177   3.623   0.807  0.0745  1.1149 -1.0502
  803MOL0     H 8371  12.358   3.794   0.817 -2.6822 -0.7720 -1.1511
  803MOL0     H 8372  12.362   3.795   0.989  5.2246 -1.5294  0.6660
  803MOL0     H 8373  12.449   3.562   1.016 -2.0014 -1.7481 -0.6561
  803MOL0     H 8374  12.418   3.527   0.848  1.0556 -0.1994 -1.1859
  803MOL0     H 8375  12.608   3.756   0.924  0.3246 -0.9901  1.9158
  803MOL0     H 8376  12.607   3.670   0.772  2.4072 -0.7243 -0.0478
  803MOL0     H 8377  12.683   3.535   1.031  0.1598  0.7769  0.8691
  803MOL0     H 8378  12.794   3.609   0.919 -0.0631 -0.0999 -2.8472
  803MOL0     H 8379  12.600   3.386   0.821  0.3326 -0.8318  1.4474
  803MOL0     H 8380  12.758   3.436   0.753 -0.6133 -0.6382 -0.7936
  803MOL0     H 8381  12.775   3.216   0.888  3.7726 -1.5647  3.6469
  803MOL0     H 8382  12.714   3.296   1.031  0.6514 -1.8862  0.2132
  803MOL0     H 8383  12.907   3.428   1.050  1.2277 -1.5191  1.3831
  803MOL0     H 8384  12.954   3.265   1.006  0.2007 -0.6627 -0.2149
  803MOL0     H 8385  12.003   3.689   1.112  1.3405 -1.2132 -1.3123
  803MOL0     H 8386  11.756   3.663   1.134 -1.5891 -4.3216 -2.4565
  803MOL0     H 8387  11.331   3.660   0.883 -0.3498  0.1276 -0.4747
  803MOL0     H 8388  11.106   3.633   0.913 -1.2508  0.0960  0.8234
  803MOL0     H 8389   9.509   4.681   1.215 -0.0460  0.9378 -0.3271
  803MOL0     H 8390   9.246   4.704   1.203  0.8875  1.0245  0.5802
  803MOL0     H 8391   8.902   4.839   0.826 -2.8119  4.1982 -2.5971
  803MOL0     H 8392   8.672   4.890   0.784 -1.6317 -1.1866 -0.0893
  803MOL0     H 8393   8.354   4.935   1.100 -1.5098  0.3380 -0.3931
  803MOL0     H 8394   8.367   4.765   1.087  1.8075 -0.0286  1.5906
  803MOL0     H 8395   8.220   4.929   0.891 -0.2948  0.1110 -0.4715
  803MOL0     H 8396   8.151   4.849   1.040 -1.1066 -0.4400 -0.5922
  803MOL0     H 8397   8.258   4.622   0.947 -0.0913 -0.6474 -0.2274
  803MOL0     H 8398   8.298   4.712   0.801  1.9925 -3.1520  1.7032
  803MOL0     H 8399   8.087   4.570   0.787  2.0171  0.1133 -1.5670
  803MOL0     H 8400   8.021   4.664   0.923 -2.0585  0.3881 -2.2297
  803MOL0     H 8401   7.963   4.929   0.586 -0.2940  0.3664  0.8556
  803MOL0     H 8402   8.560   4.818   1.175 -0.0001  0.5841  0.0889
  803MOL0     H 8403   8.703   4.768   1.330  0.0002 -0.6961  0.2269
  803MOL0     H 8404   8.843   4.667   1.299 -0.3706  0.0412  5.1192
  803MOL0     H 8405   8.872   4.833   1.337 -2.0015  0.3900  1.5095
  804MOL0     O 8406   2.777   5.432   5.292 -0.3909  0.6373 -0.1891
  804MOL0     C 8407   2.785   5.313   5.324  0.4429 -0.0491 -0.0848
  804MOL0     O 8408   2.895   5.228   5.285  0.4059  0.0462 -0.6365
  804MOL0     C 8409   2.992   5.292   5.211  0.7781 -0.6969  0.5529
  804MOL0     C 8410   3.096   5.367   5.269  0.6359 -0.9211 -0.5003
  804MOL0     C 8411   3.213   5.407   5.192 -0.3865  0.7016  0.4548
  804MOL0     C 8412   3.215   5.365   5.058 -0.0804  0.0699  0.3333
  804MOL0     O 8413   3.316   5.409   4.974  0.0582 -0.2534  0.1894
  804MOL0     C 8414   3.430   5.479   5.034 -0.3502  0.2799  0.7586
  804MOL0     C 8415   3.523   5.519   4.920 -0.9574 -0.2455  0.3920
  804MOL0     C 8416   3.578   5.389   4.850 -0.0543  1.2733 -0.0206
  804MOL0     C 8417   3.724   5.388   4.798  0.5250 -0.5077  0.3367
  804MOL0     C 8418   3.771   5.243   4.792 -0.0005 -0.8655  0.0219
  804MOL0     C 8419   3.913   5.240   4.736 -0.4526 -0.4078  0.3924
  804MOL0     C 8420   4.024   5.283   4.839 -0.4781  0.0954 -0.1431
  804MOL0     C 8421   4.160   5.253   4.785  0.2605  0.9367 -0.0450
  804MOL0     N 8422   4.260   5.290   4.886  0.1666  0.3251 -0.4192
  804MOL0     C 8423   4.304   5.413   4.921 -0.0575 -0.4813 -0.6327
  804MOL0     C 8424   4.404   5.392   5.018 -0.2641 -0.4178 -0.0892
  804MOL0     C 8425   4.484   5.503   5.091 -0.0162 -0.2241 -0.4282
  804MOL0     C 8426   4.628   5.522   5.047  0.1733  0.1974  0.6571
  804MOL0     C 8427   4.722   5.399   5.092  0.6208 -0.3450  0.3339
  804MOL0     C 8428   4.871   5.417   5.065  0.2614 -0.0940 -0.5835
  804MOL0     O 8429   4.926   5.293   5.103 -1.0054 -0.4317  0.0032
  804MOL0     C 8430   5.066   5.274   5.092 -0.1547  0.0800 -0.4139
  804MOL0     C 8431   5.115   5.156   5.137 -0.8253 -0.2678  0.5506
  804MOL0     C 8432   5.242   5.127   5.111  0.1700 -0.0032 -0.5015
  804MOL0     C 8433   5.333   5.218   5.041  0.4326  0.6245 -0.5400
  804MOL0     C 8434   5.473   5.184   4.999  0.8589 -0.1177  0.1598
  804MOL0     O 8435   5.498   5.049   4.996  0.5311  0.0157  0.5042
  804MOL0     C 8436   5.628   5.025   4.987 -0.4790  0.1752 -0.7188
  804MOL0     C 8437   5.690   5.035   4.867 -0.7112  0.4573 -0.6051
  804MOL0     C 8438   5.827   5.012   4.864  0.4830  1.0872  0.1462
  804MOL0     C 8439   5.901   4.982   4.977  0.7346  0.0110  0.5104
  804MOL0     O 8440   6.038   4.968   4.963 -0.5354  0.6917  0.4448
  804MOL0     C 8441   6.103   4.972   5.090  0.1146 -0.1890 -0.2343
  804MOL0     C 8442   6.256   4.994   5.066  0.1745  0.7152  0.1061
  804MOL0     C 8443   6.325   5.059   5.188  0.5434  0.0807  0.6092
  804MOL0     C 8444   6.330   4.958   5.303 -0.2597  0.3673  0.2217
  804MOL0     C 8445   6.399   5.030   5.425 -0.4803 -0.3264 -0.0013
  804MOL0     C 8446   6.301   5.075   5.537 -0.1113 -0.1580 -1.1049
  804MOL0     C 8447   6.199   4.974   5.590  0.5898 -0.2840  0.0804
  804MOL0     C 8448   6.108   5.025   5.699  0.4593 -0.8925 -0.5131
  804MOL0    Cl 8449   6.000   4.893   5.747 -0.2177 -0.0325  0.1638
  804MOL0     C 8450   5.828   4.962   5.101  0.5736  0.1718  0.3712
  804MOL0     C 8451   5.692   4.986   5.100 -0.0003  0.8105 -0.4111
  804MOL0     O 8452   5.544   5.277   4.976  0.0583  0.1479  0.0525
  804MOL0     C 8453   5.285   5.344   5.013 -0.2494  0.2176  0.3282
  804MOL0     C 8454   5.147   5.367   5.037 -0.5808  0.5656 -0.1097
  804MOL0     N 8455   4.414   5.255   5.040 -0.4404 -0.1702  0.2903
  804MOL0     N 8456   4.330   5.200   4.958 -0.3797 -0.3299 -0.2891
  804MOL0     C 8457   3.104   5.302   5.002 -0.0432 -0.4658 -0.1960
  804MOL0     C 8458   2.994   5.270   5.077  1.1689 -0.2070 -0.0712
  804MOL0     C 8459   2.669   5.256   5.404  0.6759  0.2418 -0.6793
  804MOL0     C 8460   2.613   5.141   5.356  0.4920  0.3155  0.3216
  804MOL0     C 8461   2.515   5.071   5.428 -0.0401 -0.9265  0.2225
  804MOL0     C 8462   2.462   5.125   5.549  0.4216 -0.0443  0.1657
  804MOL0     O 8463   2.372   5.050   5.617  0.3491 -0.0076 -0.6911
  804MOL0     C 8464   2.314   5.107   5.739 -0.5624 -0.1109 -0.7860
  804MOL0     C 8465   2.202   5.022   5.800  0.7075 -0.9408  0.0942
  804MOL0     C 8466   2.078   5.049   5.716 -0.1562 -0.3499 -0.9238
  804MOL0     C 8467   1.990   4.924   5.724  0.3698 -0.6660 -0.4653
  804MOL0     C 8468   1.954   4.876   5.858 -0.7147 -0.3714  0.0449
  804MOL0     C 8469   1.912   4.832   5.969 -0.2517 -0.7016 -0.4514
  804MOL0     C 8470   2.512   5.246   5.589  0.2896  0.4694 -0.1104
  804MOL0     C 8471   2.620   5.315   5.522 -0.1983 -0.0476  0.0161
  804MOL0     C 8472   2.679   5.438   5.585  0.0807 -0.4190 -0.3550
  804MOL0     H 8473   3.089   5.389   5.375  0.8342 -1.0957 -0.4518
  804MOL0     H 8474   3.292   5.458   5.247  0.4982 -0.8794  0.7153
  804MOL0     H 8475   3.390   5.564   5.090 -2.9170 -0.0616 -0.4480
  804MOL0     H 8476   3.491   5.419   5.103 -0.3740 -0.1167  0.4353
  804MOL0     H 8477   3.606   5.575   4.963 -2.7905  1.8945  1.3331
  804MOL0     H 8478   3.480   5.591   4.849  1.9760 -1.0572 -2.4451
  804MOL0     H 8479   3.503   5.370   4.773 -1.4882  1.3289  1.2930
  804MOL0     H 8480   3.557   5.311   4.925 -2.3931  2.0860  0.2676
  804MOL0     H 8481   3.720   5.418   4.693  0.7072 -1.8425 -0.0744
  804MOL0     H 8482   3.791   5.454   4.854  2.1873  1.3365 -3.4398
  804MOL0     H 8483   3.782   5.193   4.889  1.0431  0.9050  0.8760
  804MOL0     H 8484   3.712   5.185   4.721  0.8069 -0.5331 -0.9429
  804MOL0     H 8485   3.940   5.139   4.704 -1.9478 -0.9672  0.8259
  804MOL0     H 8486   3.920   5.299   4.645 -0.8404 -0.0479  0.5951
  804MOL0     H 8487   4.007   5.231   4.934 -2.7203  2.4183  0.8704
  804MOL0     H 8488   4.005   5.388   4.865  0.6087  0.1010  0.7117
  804MOL0     H 8489   4.155   5.145   4.773 -2.4823  1.0215 -0.2823
  804MOL0     H 8490   4.169   5.315   4.695 -3.9932 -1.7546 -2.7231
  804MOL0     H 8491   4.280   5.505   4.868  1.0283 -0.6540 -1.4788
  804MOL0     H 8492   4.419   5.591   5.098 -0.9727 -0.8236 -1.3306
  804MOL0     H 8493   4.497   5.468   5.194  0.7498  2.8129  0.6206
  804MOL0     H 8494   4.637   5.528   4.938  2.1960 -0.3084  0.7568
  804MOL0     H 8495   4.672   5.616   5.082  4.5805 -1.6720  0.7011
  804MOL0     H 8496   4.701   5.302   5.045 -0.1231  0.3707 -0.8698
  804MOL0     H 8497   4.719   5.373   5.198 -1.9393  1.3364  0.7653
  804MOL0     H 8498   4.908   5.492   5.136 -3.6510  0.2697  1.3472
  804MOL0     H 8499   4.883   5.431   4.958  0.4858 -0.6517 -0.6369
  804MOL0     H 8500   5.046   5.083   5.179  1.0453 -0.9659  2.5585
  804MOL0     H 8501   5.288   5.032   5.138 -0.3786 -0.0131  0.4527
  804MOL0     H 8502   5.638   5.068   4.778  2.4486  0.4074 -2.6340
  804MOL0     H 8503   5.888   5.006   4.773  0.6474 -0.8172  0.3508
  804MOL0     H 8504   6.068   5.047   5.161  2.1020  0.7250 -0.1641
  804MOL0     H 8505   6.079   4.874   5.133 -2.5977 -0.9363 -3.0802
  804MOL0     H 8506   6.304   4.897   5.051 -0.9671 -0.1431  1.6013
  804MOL0     H 8507   6.273   5.059   4.980 -0.9423 -0.6899 -1.2338
  804MOL0     H 8508   6.425   5.096   5.161 -0.1949  2.2458  0.6204
  804MOL0     H 8509   6.271   5.151   5.210 -2.2911 -2.1559  4.0460
  804MOL0     H 8510   6.403   4.889   5.259  1.1389  2.3989 -0.8266
  804MOL0     H 8511   6.233   4.914   5.323  0.6094 -3.7562 -3.0777
  804MOL0     H 8512   6.464   5.113   5.396  1.5869 -1.6503  0.6444
  804MOL0     H 8513   6.467   4.956   5.467  0.3078 -1.7295 -3.4499
  804MOL0     H 8514   6.363   5.111   5.619  0.1749 -1.2944 -0.8078
  804MOL0     H 8515   6.249   5.163   5.499  0.3963  1.5845  1.9544
  804MOL0     H 8516   6.249   4.882   5.622 -0.9342 -1.6813 -1.3265
  804MOL0     H 8517   6.136   4.942   5.507  2.0702  0.5458 -1.4182
  804MOL0     H 8518   6.178   5.047   5.780 -1.6837  0.4579  1.0942
  804MOL0     H 8519   6.057   5.114   5.659  1.7989  0.8193  1.3604
  804MOL0     H 8520   5.860   4.937   5.202  0.6891  2.1208  0.8605
  804MOL0     H 8521   5.637   4.974   5.193  1.4317 -0.3472  0.3418
  804MOL0     H 8522   5.343   5.417   4.958 -0.3754 -1.0464 -1.5746
  804MOL0     H 8523   5.120   5.460   4.989  0.4009  1.7143  1.4712
  804MOL0     H 8524   3.117   5.286   4.895  5.5975 -1.3737  0.3214
  804MOL0     H 8525   2.910   5.223   5.028  0.4104  0.1061  0.8799
  804MOL0     H 8526   2.657   5.107   5.263  0.7336 -0.4318  0.7015
  804MOL0     H 8527   2.478   4.975   5.393 -0.9171 -1.4151  2.2911
  804MOL0     H 8528   2.283   5.209   5.715 -0.0682 -0.0473 -1.1650
  804MOL0     H 8529   2.401   5.114   5.805  0.3356  1.1540 -2.0440
  804MOL0     H 8530   2.177   5.051   5.903 -1.5952  0.5443 -0.8066
  804MOL0     H 8531   2.229   4.916   5.800  0.6460 -1.0601 -3.4723
  804MOL0     H 8532   2.107   5.064   5.612 -0.3328 -1.5364 -1.1620
  804MOL0     H 8533   2.020   5.134   5.755 -0.1071 -0.6463 -0.1937
  804MOL0     H 8534   1.898   4.949   5.671  0.0330  0.1550  0.4739
  804MOL0     H 8535   2.030   4.838   5.670  0.1128 -1.6233  0.8236
  804MOL0     H 8536   1.863   4.799   6.058 -0.7432 -1.9140 -1.1359
  804MOL0     H 8537   2.477   5.282   5.686 -0.6846 -0.2423 -0.1867
  804MOL0     H 8538   2.625   5.473   5.673  0.0091 -1.2974 -0.0363
  804MOL0     H 8539   2.783   5.440   5.619 -0.5198  1.3252  1.5344
  804MOL0     H 8540   2.674   5.516   5.508  0.9777 -0.0362 -0.0414
  805MOL0     O 8541   6.051   2.192   3.332 -0.3115 -0.3619 -0.1531
  805MOL0     C 8542   5.974   2.203   3.426  0.3795  0.9527  0.6452
  805MOL0     O 8543   6.010   2.200   3.554  0.3141  0.0965 -0.4485
  805MOL0     C 8544   6.140   2.167   3.578  0.6169 -0.0997  0.8606
  805MOL0     C 8545   6.178   2.049   3.632  0.2601  0.0352  0.1441
  805MOL0     C 8546   6.308   2.030   3.663 -1.0637  0.8562  0.9333
  805MOL0     C 8547   6.404   2.131   3.660 -0.3624  0.4437  0.2185
  805MOL0     O 8548   6.536   2.107   3.701 -0.2405 -0.1169  0.4372
  805MOL0     C 8549   6.606   2.200   3.790 -0.2904  0.6969  0.0852
  805MOL0     C 8550   6.727   2.117   3.857 -0.4205 -0.6195 -0.1840
  805MOL0     C 8551   6.681   2.004   3.949  0.2172 -0.8694 -0.4132
  805MOL0     C 8552   6.747   2.009   4.085  0.0535  0.1391  0.2561
  805MOL0     C 8553   6.892   1.964   4.081 -0.7207  0.3712  0.8836
  805MOL0     C 8554   6.954   1.996   4.215 -0.4824  0.1332  0.5879
  805MOL0     C 8555   7.104   1.966   4.206  0.0359 -0.4230  0.1922
  805MOL0     C 8556   7.169   1.987   4.341  0.5972 -0.1904 -0.0876
  805MOL0     N 8557   7.114   1.889   4.436 -0.4537 -0.1896  0.3512
  805MOL0     C 8558   7.014   1.898   4.527  0.4671  1.2520  0.2538
  805MOL0     C 8559   7.001   1.764   4.567  0.2627  0.2817 -0.3465
  805MOL0     C 8560   6.895   1.718   4.666 -0.4617 -0.5495  1.0834
  805MOL0     C 8561   6.919   1.782   4.793  0.0938  0.0881  0.2746
  805MOL0     C 8562   7.055   1.739   4.861  0.9656  0.2960 -0.5897
  805MOL0     C 8563   7.084   1.834   4.977  0.2501  0.0722  0.6576
  805MOL0     O 8564   7.192   1.778   5.053 -0.2443 -1.0455  0.5963
  805MOL0     C 8565   7.329   1.792   5.022  0.3588 -0.1389  0.8778
  805MOL0     C 8566   7.388   1.910   4.965  0.0969 -0.0092  0.1459
  805MOL0     C 8567   7.520   1.905   4.918  0.0302  1.0711 -0.0629
  805MOL0     C 8568   7.599   1.791   4.946 -0.3840 -0.3992  0.5376
  805MOL0     C 8569   7.740   1.797   4.922 -0.4513  0.1825  0.1644
  805MOL0     O 8570   7.783   1.875   4.813 -0.5141  0.1436 -0.2468
  805MOL0     C 8571   7.919   1.906   4.787  0.0308  0.6079  1.0134
  805MOL0     C 8572   7.964   1.940   4.656 -0.3235  0.6965  0.0223
  805MOL0     C 8573   8.103   1.970   4.624  0.4590  0.6989  0.2428
  805MOL0     C 8574   8.199   1.968   4.722 -0.2236 -0.7710  0.7787
  805MOL0     O 8575   8.337   2.002   4.693  0.2762  0.2839  0.1211
  805MOL0     C 8576   8.375   1.951   4.569 -0.3376 -0.2712  0.1338
  805MOL0     C 8577   8.525   1.953   4.559 -0.6595  0.2796 -0.4815
  805MOL0     C 8578   8.570   1.895   4.422  0.4172  0.3438 -0.0216
  805MOL0     C 8579   8.721   1.907   4.419 -0.7119 -0.5964 -0.3983
  805MOL0     C 8580   8.770   2.035   4.344 -0.2359  0.8398 -0.0065
  805MOL0     C 8581   8.840   2.145   4.423 -0.9383 -0.9799  0.0536
  805MOL0     C 8582   8.917   2.239   4.321 -0.1085  0.8282 -0.3029
  805MOL0     C 8583   9.060   2.277   4.350  0.3249  0.2525  0.0073
  805MOL0    Cl 8584   9.175   2.135   4.353 -0.0950  0.0082 -0.3816
  805MOL0     C 8585   8.163   1.953   4.856 -0.7484  0.7471  0.2445
  805MOL0     C 8586   8.021   1.913   4.885 -0.5674  0.0734  1.1348
  805MOL0     O 8587   7.819   1.733   4.998  0.4138  0.0020  0.1491
  805MOL0     C 8588   7.544   1.682   5.003  0.0964 -0.0238  0.0288
  805MOL0     C 8589   7.414   1.679   5.043  0.5956 -0.2526  0.7394
  805MOL0     N 8590   7.107   1.687   4.522  0.2295 -0.6055  0.2276
  805MOL0     N 8591   7.175   1.765   4.439  0.6312 -0.6508 -0.2457
  805MOL0     C 8592   6.365   2.255   3.614 -0.0202  0.0851  0.3363
  805MOL0     C 8593   6.236   2.277   3.571  0.7625 -0.6198  0.3662
  805MOL0     C 8594   5.838   2.225   3.395 -0.0728 -0.4731  1.2838
  805MOL0     C 8595   5.735   2.187   3.494  0.2193 -0.1531  0.2846
  805MOL0     C 8596   5.601   2.213   3.473 -0.4512 -0.5120 -0.1596
  805MOL0     C 8597   5.552   2.273   3.350  0.1894  0.8652  0.3867
  805MOL0     O 8598   5.418   2.280   3.312 -0.2210  0.2762  0.4092
  805MOL0     C 8599   5.322   2.243   3.416  0.3194  0.5619  0.3154
  805MOL0     C 8600   5.183   2.279   3.363  0.7243  0.0971  0.2094
  805MOL0     C 8601   5.104   2.158   3.340  0.4426 -0.4806 -0.2487
  805MOL0     C 8602   4.955   2.182   3.348  0.2575  0.6330  0.0789
  805MOL0     C 8603   4.899   2.051   3.326 -0.1330 -0.5106 -0.6171
  805MOL0     C 8604   4.848   1.945   3.316 -0.2722  0.0040 -0.4436
  805MOL0     C 8605   5.649   2.300   3.255 -0.3479  0.3008  0.4104
  805MOL0     C 8606   5.787   2.268   3.266  0.2088  0.5470 -0.0662
  805MOL0     C 8607   5.867   2.310   3.148 -0.1880  0.8021  0.1180
  805MOL0     H 8608   6.102   1.973   3.647 -0.7807  0.8027 -1.0536
  805MOL0     H 8609   6.342   1.940   3.713  1.3014 -0.1779 -2.2588
  805MOL0     H 8610   6.664   2.272   3.731 -0.7980  0.7525 -0.3467
  805MOL0     H 8611   6.551   2.256   3.865 -0.8373 -0.4321  0.5521
  805MOL0     H 8612   6.791   2.194   3.902  0.7159 -1.6103 -0.0668
  805MOL0     H 8613   6.790   2.070   3.781  0.9722 -1.6835  1.5472
  805MOL0     H 8614   6.706   1.906   3.908  0.0333 -2.9081  3.7824
  805MOL0     H 8615   6.573   2.012   3.958  0.2124  1.4405 -1.7795
  805MOL0     H 8616   6.743   2.113   4.120 -0.6352  1.1153 -2.4482
  805MOL0     H 8617   6.697   1.944   4.157  2.0288 -0.9735  0.7035
  805MOL0     H 8618   6.898   1.858   4.056  1.1658  0.1634  2.0114
  805MOL0     H 8619   6.948   2.020   4.005  4.4837 -0.4532  3.6465
  805MOL0     H 8620   6.937   2.098   4.249 -1.9542 -0.3701  1.4345
  805MOL0     H 8621   6.910   1.927   4.288 -0.1559  0.5587  1.1938
  805MOL0     H 8622   7.148   2.037   4.136 -0.6548  0.1830  0.3587
  805MOL0     H 8623   7.118   1.863   4.171 -1.5943 -0.9337  0.9258
  805MOL0     H 8624   7.278   1.978   4.335  0.6527  0.3333  0.1075
  805MOL0     H 8625   7.145   2.090   4.369 -0.0047  0.5368 -2.8785
  805MOL0     H 8626   6.952   1.985   4.546 -0.9486  0.6233 -1.2733
  805MOL0     H 8627   6.796   1.756   4.643 -0.5180 -0.4208  1.5229
  805MOL0     H 8628   6.882   1.611   4.681 -2.7627 -0.4628  0.0048
  805MOL0     H 8629   6.913   1.891   4.782  1.6152  0.2333  0.6896
  805MOL0     H 8630   6.845   1.753   4.868  0.6758  0.3013  0.9429
  805MOL0     H 8631   7.131   1.750   4.783 -0.7111  0.2194 -2.2931
  805MOL0     H 8632   7.048   1.636   4.896  4.2629  0.2355  0.2744
  805MOL0     H 8633   6.995   1.847   5.039  1.1534  1.3301  1.7439
  805MOL0     H 8634   7.098   1.926   4.920  1.5247 -0.0295  0.7757
  805MOL0     H 8635   7.323   1.996   4.950  1.3116  0.8694 -0.2947
  805MOL0     H 8636   7.556   1.990   4.861  1.9264  0.6003  0.3724
  805MOL0     H 8637   7.891   1.938   4.576 -2.7235 -1.7219  2.0599
  805MOL0     H 8638   8.114   1.994   4.518  0.4014 -2.6967 -0.6339
  805MOL0     H 8639   8.336   1.850   4.551 -0.6232  0.0025 -0.8527
  805MOL0     H 8640   8.334   2.008   4.484  0.9603 -0.7582 -0.8468
  805MOL0     H 8641   8.563   2.053   4.580  0.4270  0.3079 -2.3220
  805MOL0     H 8642   8.568   1.885   4.634 -0.1565  1.1044 -0.0127
  805MOL0     H 8643   8.534   1.793   4.406 -1.9162  0.9121  1.2173
  805MOL0     H 8644   8.529   1.949   4.337 -0.7230  0.0677  0.3378
  805MOL0     H 8645   8.763   1.821   4.367  1.2828 -0.0072  0.1366
  805MOL0     H 8646   8.766   1.905   4.519 -1.3843 -0.3120 -0.0878
  805MOL0     H 8647   8.678   2.081   4.308 -0.5666  0.3793  0.2529
  805MOL0     H 8648   8.826   2.013   4.252 -1.2585 -1.6795 -0.0978
  805MOL0     H 8649   8.767   2.202   4.481 -0.1080  0.8868 -0.6462
  805MOL0     H 8650   8.916   2.112   4.495  1.6533  0.9395 -1.6405
  805MOL0     H 8651   8.861   2.331   4.302 -0.6533  0.1287 -2.3796
  805MOL0     H 8652   8.921   2.189   4.223 -3.6214  0.0395 -0.1460
  805MOL0     H 8653   9.106   2.346   4.278  2.4344 -0.3612  0.6762
  805MOL0     H 8654   9.058   2.332   4.444 -1.3663  0.0570  0.1081
  805MOL0     H 8655   8.231   1.950   4.941 -0.3939 -0.9916 -0.0608
  805MOL0     H 8656   8.002   1.876   4.985 -1.1756 -2.3304  0.1990
  805MOL0     H 8657   7.618   1.605   5.024 -0.7859 -0.4785  1.6799
  805MOL0     H 8658   7.375   1.595   5.100 -0.0038  0.4595  1.4059
  805MOL0     H 8659   6.440   2.333   3.611 -1.4440  1.6870  2.6942
  805MOL0     H 8660   6.194   2.369   3.532 -3.2829 -1.7889  1.4240
  805MOL0     H 8661   5.768   2.140   3.586 -1.7354  0.2832  1.2643
  805MOL0     H 8662   5.537   2.188   3.557  1.8667  1.4531  2.3779
  805MOL0     H 8663   5.338   2.310   3.501 -3.6975  0.4103  1.4093
  805MOL0     H 8664   5.327   2.139   3.449  0.6761  0.1577 -0.9553
  805MOL0     H 8665   5.206   2.317   3.263  3.4131  0.0577  0.7333
  805MOL0     H 8666   5.125   2.352   3.421 -2.5301 -0.1905 -2.3462
  805MOL0     H 8667   5.121   2.096   3.430 -2.0970  0.7893  1.2144
  805MOL0     H 8668   5.138   2.115   3.246  1.7622 -1.7379  0.7421
  805MOL0     H 8669   4.933   2.224   3.447  0.8180  2.7599 -0.6445
  805MOL0     H 8670   4.911   2.243   3.269 -1.7465 -1.2607 -0.3636
  805MOL0     H 8671   4.808   1.848   3.294  0.3424 -0.4010  0.1935
  805MOL0     H 8672   5.613   2.349   3.165  0.1430  0.7970  0.4788
  805MOL0     H 8673   5.960   2.358   3.180  0.4577 -1.3546  1.6425
  805MOL0     H 8674   5.896   2.222   3.090  3.7245  1.3463  0.9986
  805MOL0     H 8675   5.830   2.387   3.079 -0.8645 -0.6086 -1.1333
  806MOL0     O 8676   1.370   1.752  10.126  0.7639 -0.0882 -0.7927
  806MOL0     C 8677   1.324   1.732  10.013  0.3725 -1.2877  0.2635
  806MOL0     O 8678   1.388   1.678   9.913 -0.4100  0.2547  0.0269
  806MOL0     C 8679   1.500   1.597   9.937  0.9884 -0.9947  0.4555
  806MOL0     C 8680   1.490   1.468   9.981  0.2610  0.1775  0.4207
  806MOL0     C 8681   1.604   1.390  10.001  0.5617  0.3344  0.5318
  806MOL0     C 8682   1.734   1.423   9.951  0.1494  0.2525  0.4912
  806MOL0     O 8683   1.839   1.340   9.963  0.2508  0.8658 -0.1255
  806MOL0     C 8684   1.823   1.208  10.016 -1.1872  0.3425 -0.3657
  806MOL0     C 8685   1.966   1.155   9.996 -0.0051  0.5973  0.2815
  806MOL0     C 8686   1.998   1.036  10.101 -0.3834  0.0887 -0.0977
  806MOL0     C 8687   2.136   0.973  10.076 -0.4372 -0.6725 -0.0682
  806MOL0     C 8688   2.246   1.066  10.125 -0.6308  0.0378 -0.4224
  806MOL0     C 8689   2.386   1.010  10.075  0.4659 -0.3347  0.6184
  806MOL0     C 8690   2.494   1.123  10.079  0.1918  0.1120 -0.3222
  806MOL0     C 8691   2.615   1.061  10.013  0.5355 -0.4241  0.1913
  806MOL0     N 8692   2.692   0.960  10.089 -0.5105 -0.4074 -0.4950
  806MOL0     C 8693   2.786   1.009  10.184 -0.6203  0.1046  0.2820
  806MOL0     C 8694   2.835   0.888  10.238  0.1365  0.0313  0.6641
  806MOL0     C 8695   2.950   0.863  10.319 -0.2078 -0.9150  0.0823
  806MOL0     C 8696   2.927   0.774  10.451 -0.4474  0.5292 -0.1449
  806MOL0     C 8697   3.054   0.761  10.533  0.2655 -0.0570 -0.4449
  806MOL0     C 8698   3.140   0.649  10.476  0.5322 -0.5272 -0.3943
  806MOL0     O 8699   3.257   0.665  10.555 -0.2537 -0.0413 -0.1326
  806MOL0     C 8700   3.357   0.582  10.524  0.2586  0.3499 -0.1691
  806MOL0     C 8701   3.367   0.510  10.398  0.7513 -0.8590  0.0248
  806MOL0     C 8702   3.488   0.442  10.365 -0.1647 -0.2014 -0.5361
  806MOL0     C 8703   3.596   0.448  10.460  0.0789  0.0211 -0.2806
  806MOL0     C 8704   3.713   0.370  10.438 -0.9343 -0.0283 -0.1580
  806MOL0     O 8705   3.783   0.328  10.546  0.1048 -0.3187 -0.2617
  806MOL0     C 8706   3.916   0.288  10.537 -0.2986 -0.0863 -1.0197
  806MOL0     C 8707   4.016   0.293  10.434 -0.9147  0.5128  0.2948
  806MOL0     C 8708   4.150   0.255  10.455  0.4488  0.3885  0.7453
  806MOL0     C 8709   4.191   0.200  10.578  0.2078 -0.7005  0.2159
  806MOL0     O 8710   4.312   0.154  10.599  0.0551 -0.1132 -0.1312
  806MOL0     C 8711   4.419   0.190  10.510  0.3018 -0.5845  0.6393
  806MOL0     C 8712   4.545   0.156  10.573 -0.0219  0.5421 -0.5096
  806MOL0     C 8713   4.568   0.228  10.704 -0.5595 -0.1331  0.1050
  806MOL0     C 8714   4.716   0.246  10.744  0.3168  0.0394  0.7743
  806MOL0     C 8715   4.743   0.316  10.879  0.7528 -0.0216  0.0800
  806MOL0     C 8716   4.893   0.307  10.905  0.4651  0.5994  0.2219
  806MOL0     C 8717   4.936   0.452  10.945  0.1434 -0.3349 -0.1008
  806MOL0     C 8718   5.073   0.450  11.004  0.3472 -0.7996 -0.0081
  806MOL0    Cl 8719   5.195   0.399  10.883  0.0698  0.1833  0.3940
  806MOL0     C 8720   4.084   0.179  10.666  0.6975 -0.1933 -0.3550
  806MOL0     C 8721   3.954   0.220  10.655 -0.7030  0.3107 -0.0701
  806MOL0     O 8722   3.757   0.357  10.331 -0.4214 -0.2519  0.3976
  806MOL0     C 8723   3.583   0.522  10.585 -0.5239 -0.2993  0.4935
  806MOL0     C 8724   3.471   0.594  10.612  0.3514 -0.1380  0.5015
  806MOL0     N 8725   2.766   0.787  10.179 -0.0751  0.2468 -0.2599
  806MOL0     N 8726   2.675   0.825  10.099  0.0618 -0.2947 -0.1013
  806MOL0     C 8727   1.743   1.546   9.883  0.5263  0.0284  0.1760
  806MOL0     C 8728   1.629   1.640   9.884  0.3175 -0.2784 -0.0495
  806MOL0     C 8729   1.174   1.731   9.980  0.2199 -0.6766 -0.3158
  806MOL0     C 8730   1.121   1.647   9.881 -0.4238  0.1249 -1.0897
  806MOL0     C 8731   0.986   1.642   9.849 -0.7284  0.1349  0.2024
  806MOL0     C 8732   0.893   1.722   9.916 -1.2404 -0.0069 -0.2251
  806MOL0     O 8733   0.766   1.709   9.873 -0.3623 -0.5450  0.5394
  806MOL0     C 8734   0.667   1.791   9.937  0.5917 -0.2240  0.7633
  806MOL0     C 8735   0.594   1.733  10.056 -0.0467  0.1847  0.2537
  806MOL0     C 8736   0.569   1.580  10.044 -0.5799 -0.5191 -0.2146
  806MOL0     C 8737   0.475   1.547   9.932  0.3304  0.4006 -0.6485
  806MOL0     C 8738   0.459   1.397   9.926  0.5551 -0.5132 -0.3424
  806MOL0     C 8739   0.445   1.274   9.936 -0.5144 -0.5857  0.0060
  806MOL0     C 8740   0.942   1.816  10.014  0.7242 -0.2619  0.7363
  806MOL0     C 8741   1.081   1.823  10.041  0.1779  0.9064 -0.2482
  806MOL0     C 8742   1.126   1.936  10.137  0.7555 -0.3499 -0.4866
  806MOL0     H 8743   1.392   1.438  10.016  0.1483 -0.7177 -0.6082
  806MOL0     H 8744   1.589   1.299  10.058 -1.3654  2.0676  3.0425
  806MOL0     H 8745   1.803   1.215  10.123  0.8648 -2.4740  0.2930
  806MOL0     H 8746   1.745   1.153   9.962 -3.9215  2.3220  1.3431
  806MOL0     H 8747   2.030   1.237  10.030 -0.0453 -0.6007  3.5915
  806MOL0     H 8748   1.978   1.144   9.888 -2.2209 -0.0876  0.0490
  806MOL0     H 8749   1.917   0.965  10.084  0.1643  0.2150 -3.9603
  806MOL0     H 8750   2.005   1.075  10.203 -0.2746  3.1307 -1.1817
  806MOL0     H 8751   2.139   0.876  10.126 -1.6914 -0.4781  0.4288
  806MOL0     H 8752   2.141   0.949   9.970  0.3139  1.5404 -0.5899
  806MOL0     H 8753   2.240   1.166  10.082  0.3340 -0.3410 -1.5166
  806MOL0     H 8754   2.249   1.075  10.234  0.9066 -0.0302 -0.4333
  806MOL0     H 8755   2.419   0.920  10.127  2.5362 -1.3024 -2.0815
  806MOL0     H 8756   2.364   0.966   9.977 -0.4541 -0.7666  1.0112
  806MOL0     H 8757   2.514   1.161  10.180 -1.1186  0.7031 -0.2521
  806MOL0     H 8758   2.451   1.211  10.029  0.2008  1.6274  2.1705
  806MOL0     H 8759   2.586   1.020   9.916 -0.1784  0.0017  0.2157
  806MOL0     H 8760   2.681   1.148  10.001  1.6892 -1.3152 -0.1437
  806MOL0     H 8761   2.822   1.108  10.209 -1.1236  1.0719 -2.5008
  806MOL0     H 8762   3.025   0.820  10.252  0.8084  1.2682 -0.2772
  806MOL0     H 8763   2.995   0.959  10.345  1.0632 -1.2699 -0.6582
  806MOL0     H 8764   2.858   0.833  10.512 -2.1548  0.2172 -1.6835
  806MOL0     H 8765   2.883   0.677  10.428  0.5857  0.0847 -0.3257
  806MOL0     H 8766   3.025   0.727  10.633 -1.8753 -0.1894 -1.0775
  806MOL0     H 8767   3.101   0.860  10.543 -1.2838  0.6130  0.6094
  806MOL0     H 8768   3.158   0.678  10.372  1.0487 -0.7193 -0.3618
  806MOL0     H 8769   3.097   0.550  10.490  1.1066 -0.4195  3.1045
  806MOL0     H 8770   3.289   0.510  10.323 -0.1440  3.2131  0.6922
  806MOL0     H 8771   3.501   0.391  10.270  2.0986 -0.6449 -0.0487
  806MOL0     H 8772   3.997   0.310  10.328  1.3931 -0.4084 -0.3269
  806MOL0     H 8773   4.219   0.263  10.371  0.9770 -2.7124  0.7603
  806MOL0     H 8774   4.412   0.131  10.419 -0.4793 -1.1224  1.0281
  806MOL0     H 8775   4.408   0.297  10.486  3.7433 -0.2666  0.0495
  806MOL0     H 8776   4.558   0.049  10.594  1.4681  0.9677  0.9356
  806MOL0     H 8777   4.617   0.192  10.499 -1.5076 -1.1698 -2.9714
  806MOL0     H 8778   4.525   0.329  10.698  0.9554  0.4852 -4.0955
  806MOL0     H 8779   4.522   0.173  10.787  1.2716 -1.4876  0.2611
  806MOL0     H 8780   4.783   0.300  10.677  0.5412 -0.8911  0.2358
  806MOL0     H 8781   4.755   0.145  10.763  0.1706  0.0299  1.0419
  806MOL0     H 8782   4.683   0.287  10.966  1.4836  0.1206  0.6475
  806MOL0     H 8783   4.704   0.417  10.865 -1.8657 -0.8704  0.7974
  806MOL0     H 8784   4.905   0.227  10.978 -2.1176 -1.2328 -1.2047
  806MOL0     H 8785   4.951   0.278  10.817 -2.5009  1.4510 -2.1797
  806MOL0     H 8786   4.865   0.485  11.022  1.9091  1.9034  0.6956
  806MOL0     H 8787   4.937   0.525  10.863  0.8483 -4.2065 -3.9262
  806MOL0     H 8788   5.089   0.555  11.028 -4.3963  0.8932 -2.8365
  806MOL0     H 8789   5.093   0.388  11.092 -2.6966 -0.1460  1.2688
  806MOL0     H 8790   4.103   0.130  10.761 -3.1275  1.3108  1.4131
  806MOL0     H 8791   3.885   0.202  10.736 -1.7358  2.7391 -0.3103
  806MOL0     H 8792   3.667   0.535  10.652 -0.5443  0.1171  0.4428
  806MOL0     H 8793   3.455   0.645  10.707 -1.6991  0.9034 -0.3617
  806MOL0     H 8794   1.839   1.572   9.840  0.8205 -2.2598 -0.6787
  806MOL0     H 8795   1.639   1.740   9.845  1.4218  0.8207  2.8165
  806MOL0     H 8796   1.177   1.571   9.828  1.0228  0.9666 -0.8242
  806MOL0     H 8797   0.958   1.572   9.770  1.3797 -0.0114 -0.4642
  806MOL0     H 8798   0.595   1.793   9.855 -0.0441  0.8696  1.3211
  806MOL0     H 8799   0.686   1.896   9.963  1.2804 -0.0145 -0.5242
  806MOL0     H 8800   0.497   1.782  10.068 -1.0113 -1.6687  0.3800
  806MOL0     H 8801   0.654   1.745  10.147  3.0236 -0.1622 -1.5694
  806MOL0     H 8802   0.535   1.525  10.132 -0.3894 -1.4840 -0.7243
  806MOL0     H 8803   0.668   1.535  10.028  0.1690  0.7659  0.7088
  806MOL0     H 8804   0.383   1.606   9.938 -0.2736 -0.4720 -1.1947
  806MOL0     H 8805   0.512   1.562   9.830 -4.6445  0.6654 -2.6772
  806MOL0     H 8806   0.437   1.168   9.948  3.4598 -0.8585  1.7305
  806MOL0     H 8807   0.893   1.899  10.062  1.0312  0.5733 -0.3462
  806MOL0     H 8808   1.184   1.903  10.224 -2.0333 -1.6150  1.0291
  806MOL0     H 8809   1.177   2.008  10.072  1.1371 -1.2744 -1.2272
  806MOL0     H 8810   1.046   1.995  10.183  1.2956 -1.3362  1.8999
  807MOL0     O 8811   7.811   8.608   5.429 -0.7213 -0.2858 -0.7338
  807MOL0     C 8812   7.707   8.591   5.366 -0.0912 -0.2865  0.6908
  807MOL0     O 8813   7.582   8.667   5.381  0.4396 -0.3530 -0.0496
  807MOL0     C 8814   7.585   8.769   5.481 -0.3705  0.3192 -0.3149
  807MOL0     C 8815   7.497   8.771   5.592 -0.2208  0.3300  0.7405
  807MOL0     C 8816   7.480   8.884   5.673  0.5581 -0.1307 -0.5020
  807MOL0     C 8817   7.559   9.000   5.647 -0.2982  0.1346  0.0813
  807MOL0     O 8818   7.541   9.116   5.722 -0.1842 -0.6463 -0.1258
  807MOL0     C 8819   7.626   9.225   5.697 -0.7342 -0.2285  0.4306
  807MOL0     C 8820   7.591   9.341   5.784  0.1715  0.0238 -0.3511
  807MOL0     C 8821   7.442   9.373   5.774 -1.0309 -0.3214 -0.1035
  807MOL0     C 8822   7.415   9.519   5.796 -0.1966 -0.8060 -1.0291
  807MOL0     C 8823   7.264   9.551   5.822 -1.1592 -0.2209  0.4799
  807MOL0     C 8824   7.235   9.700   5.839  1.0311  0.0016 -0.6915
  807MOL0     C 8825   7.266   9.731   5.986 -0.0185  0.2395 -0.0663
  807MOL0     C 8826   7.300   9.880   6.001 -0.2791  0.2798  0.1658
  807MOL0     N 8827   7.341   9.901   6.146  0.2533  0.2784 -0.1552
  807MOL0     C 8828   7.389  10.013   6.190 -0.1227 -0.2067 -0.2694
  807MOL0     C 8829   7.395  10.001   6.327  0.1230  0.2342  0.0878
  807MOL0     C 8830   7.450  10.100   6.435 -0.5107 -0.1048  0.2479
  807MOL0     C 8831   7.609  10.113   6.426 -0.7904  0.1485 -0.4611
  807MOL0     C 8832   7.668  10.202   6.541  0.4328  0.3596 -0.1265
  807MOL0     C 8833   7.681  10.110   6.660 -0.1388  0.5289 -0.1411
  807MOL0     O 8834   7.781  10.004   6.637 -0.1268  0.1871 -0.3839
  807MOL0     C 8835   7.911  10.046   6.648 -0.4293 -0.1275 -0.2805
  807MOL0     C 8836   7.956  10.171   6.701  0.5647  0.3492  0.6163
  807MOL0     C 8837   8.089  10.207   6.706 -0.4374  0.3345 -0.8730
  807MOL0     C 8838   8.188  10.117   6.666  0.1281 -0.3158  0.1691
  807MOL0     C 8839   8.332  10.153   6.666 -0.1490  0.6152 -0.3176
  807MOL0     O 8840   8.421  10.061   6.638 -0.3699 -0.5440  1.0069
  807MOL0     C 8841   8.555  10.080   6.618 -0.6617 -0.5759 -0.0292
  807MOL0     C 8842   8.645   9.974   6.610  0.5440  0.2158  0.6996
  807MOL0     C 8843   8.780   9.984   6.591  0.5320 -0.3235 -0.2079
  807MOL0     C 8844   8.837  10.109   6.575 -1.4980 -0.1923 -0.5295
  807MOL0     O 8845   8.975  10.130   6.552 -0.3732  0.1800 -1.0265
  807MOL0     C 8846   9.057  10.017   6.536  0.2487 -0.5137  0.4661
  807MOL0     C 8847   9.198  10.064   6.521  0.0162 -0.6862  0.6869
  807MOL0     C 8848   9.276  10.058   6.658 -0.1907  1.1018 -0.9723
  807MOL0     C 8849   9.415  10.121   6.658 -0.4459 -0.7502  0.7992
  807MOL0     C 8850   9.513  10.100   6.781 -0.3479 -0.3470  0.0197
  807MOL0     C 8851   9.546   9.958   6.838  0.6593 -0.1732 -0.3719
  807MOL0     C 8852   9.569   9.851   6.733 -0.3008 -0.1213 -0.1813
  807MOL0     C 8853   9.668   9.900   6.618 -0.3669  0.0511 -0.0712
  807MOL0    Cl 8854   9.670   9.804   6.468  0.6264 -0.0454  0.0300
  807MOL0     C 8855   8.759  10.225   6.571 -0.5898 -0.4301 -0.3514
  807MOL0     C 8856   8.619  10.208   6.588 -0.1508 -0.2952  0.7276
  807MOL0     O 8857   8.361  10.268   6.704  0.6310  0.3898  0.0152
  807MOL0     C 8858   8.146   9.993   6.618 -0.1507 -0.4186  1.0137
  807MOL0     C 8859   8.013   9.955   6.606 -0.7821  0.3390 -0.8219
  807MOL0     N 8860   7.340   9.878   6.362 -0.5098  0.2559 -0.4255
  807MOL0     N 8861   7.310   9.821   6.248  0.9772 -0.0218 -1.1417
  807MOL0     C 8862   7.648   8.997   5.538  0.5575 -0.9477  0.1207
  807MOL0     C 8863   7.651   8.882   5.458 -0.6511 -0.1893 -0.6778
  807MOL0     C 8864   7.709   8.497   5.245  0.3543  0.5864  0.5478
  807MOL0     C 8865   7.595   8.503   5.165 -0.0768  0.6023 -0.5902
  807MOL0     C 8866   7.580   8.425   5.047 -0.7990 -0.0095 -0.3077
  807MOL0     C 8867   7.678   8.331   5.018  0.3045  1.0795  0.1399
  807MOL0     O 8868   7.673   8.237   4.917  0.4168  0.0927  0.1753
  807MOL0     C 8869   7.581   8.246   4.795  0.8213 -0.4971 -0.9523
  807MOL0     C 8870   7.658   8.181   4.684  0.2188  0.1386  0.8669
  807MOL0     C 8871   7.797   8.241   4.642 -0.4255  0.3820 -0.6121
  807MOL0     C 8872   7.891   8.121   4.608 -0.3852  0.0724 -0.0693
  807MOL0     C 8873   7.860   8.068   4.481  0.3997  0.3407 -0.0424
  807MOL0     C 8874   7.826   8.020   4.372 -0.5832 -0.8411  0.2498
  807MOL0     C 8875   7.792   8.316   5.098  0.1589 -0.2617 -0.4289
  807MOL0     C 8876   7.802   8.398   5.212 -0.6529  0.6004 -0.3371
  807MOL0     C 8877   7.923   8.384   5.295 -0.6808  0.4356 -0.2612
  807MOL0     H 8878   7.438   8.680   5.600  0.0943 -0.2468 -2.2508
  807MOL0     H 8879   7.399   8.894   5.744  0.8051  0.7161 -0.3207
  807MOL0     H 8880   7.733   9.212   5.712  0.1361  3.5637 -1.4166
  807MOL0     H 8881   7.615   9.255   5.593 -3.1122  1.0079  0.9555
  807MOL0     H 8882   7.654   9.424   5.751 -0.7533  0.5795 -0.7745
  807MOL0     H 8883   7.616   9.325   5.889  1.2922  2.5762 -0.1366
  807MOL0     H 8884   7.389   9.328   5.859 -2.9368 -0.3711 -1.2530
  807MOL0     H 8885   7.401   9.339   5.678  1.1937  1.6485 -1.8864
  807MOL0     H 8886   7.474   9.562   5.878 -2.6824  1.0511 -0.0510
  807MOL0     H 8887   7.454   9.568   5.706  0.6558  0.7396  0.1320
  807MOL0     H 8888   7.213   9.531   5.727  0.1419  0.2503 -0.3382
  807MOL0     H 8889   7.226   9.487   5.903 -1.6625 -1.0447 -0.3822
  807MOL0     H 8890   7.286   9.769   5.772  1.4700  1.6514  1.2360
  807MOL0     H 8891   7.129   9.724   5.826  1.5868  2.1900 -1.7013
  807MOL0     H 8892   7.348   9.665   6.017 -0.2981 -1.9629 -3.3992
  807MOL0     H 8893   7.183   9.700   6.050 -0.8514  0.7684 -0.8492
  807MOL0     H 8894   7.384   9.890   5.932 -2.4777 -2.5769 -3.2789
  807MOL0     H 8895   7.220   9.945   5.964 -0.2284  2.0780  2.9613
  807MOL0     H 8896   7.423  10.094   6.127  3.9302 -1.0998  0.5162
  807MOL0     H 8897   7.407  10.200   6.448 -0.1484 -0.2500  3.6053
  807MOL0     H 8898   7.435  10.052   6.533 -0.4044 -2.0438 -0.6485
  807MOL0     H 8899   7.650  10.012   6.429  1.7299  1.0900 -1.1966
  807MOL0     H 8900   7.627  10.166   6.332  1.1052  1.6493  0.6859
  807MOL0     H 8901   7.616  10.294   6.570  2.5846  1.4021  0.6636
  807MOL0     H 8902   7.763  10.246   6.508  0.3776  2.6631  2.4050
  807MOL0     H 8903   7.584  10.069   6.691  0.3024  0.4329  1.1674
  807MOL0     H 8904   7.699  10.171   6.748 -1.5571  0.5650  0.1517
  807MOL0     H 8905   7.890  10.252   6.732  2.1254  2.8079 -2.0328
  807MOL0     H 8906   8.127  10.303   6.737  0.4529  0.4954 -2.3362
  807MOL0     H 8907   8.601   9.878   6.633  2.7652 -1.2168 -0.6490
  807MOL0     H 8908   8.838   9.893   6.595  0.8427 -0.1826 -1.2934
  807MOL0     H 8909   9.050   9.953   6.624  4.3202 -0.2726  1.1770
  807MOL0     H 8910   9.022   9.978   6.441 -2.6245 -3.6205  2.5982
  807MOL0     H 8911   9.258  10.014   6.444  0.9452 -1.6976  2.0210
  807MOL0     H 8912   9.192  10.169   6.489 -1.6578 -0.6305  1.1128
  807MOL0     H 8913   9.221  10.100   6.742 -1.3985  0.7324 -1.5602
  807MOL0     H 8914   9.295   9.956   6.693 -3.3114  0.7498  0.0060
  807MOL0     H 8915   9.405  10.230   6.661  2.6730 -0.3119 -0.9371
  807MOL0     H 8916   9.469  10.099   6.566  1.1803  1.7248  1.0646
  807MOL0     H 8917   9.475  10.164   6.861 -3.4610  0.3396 -1.8181
  807MOL0     H 8918   9.610  10.140   6.750  0.0332 -0.0973  1.4742
  807MOL0     H 8919   9.630   9.977   6.904 -0.7220 -0.1942  1.4819
  807MOL0     H 8920   9.467   9.927   6.907 -0.8220 -1.4664 -2.5255
  807MOL0     H 8921   9.477   9.829   6.679 -1.1911 -1.0513  1.6238
  807MOL0     H 8922   9.617   9.763   6.777  2.9374  2.2917  1.5116
  807MOL0     H 8923   9.645  10.002   6.589 -0.5300 -0.1693 -0.7318
  807MOL0     H 8924   9.772   9.889   6.650 -0.5229  2.6343  1.6389
  807MOL0     H 8925   8.807  10.322   6.563 -1.8321  0.5256  2.4076
  807MOL0     H 8926   8.556  10.296   6.579  1.8240  1.0357 -1.1369
  807MOL0     H 8927   8.229   9.931   6.588  1.4299  2.5101 -1.2248
  807MOL0     H 8928   7.992   9.860   6.558 -0.4288  1.0354 -2.3894
  807MOL0     H 8929   7.712   9.076   5.499 -0.4069 -1.2058 -2.1438
  807MOL0     H 8930   7.713   8.895   5.370 -2.1686  1.3613 -1.5798
  807MOL0     H 8931   7.504   8.554   5.194 -1.4721 -2.4608  0.9218
  807MOL0     H 8932   7.486   8.433   4.994 -2.3857  0.7577  2.4251
  807MOL0     H 8933   7.564   8.350   4.765 -0.2539 -0.2319  0.4546
  807MOL0     H 8934   7.487   8.199   4.824 -0.5437  2.2645 -0.5498
  807MOL0     H 8935   7.602   8.174   4.590 -1.9092  2.0799  1.8914
  807MOL0     H 8936   7.664   8.082   4.729 -0.7492 -0.5529 -0.4715
  807MOL0     H 8937   7.850   8.288   4.725 -3.4980 -0.5165  2.1345
  807MOL0     H 8938   7.774   8.317   4.568 -3.1133  1.9860  1.6259
  807MOL0     H 8939   7.992   8.162   4.605 -0.7428  1.0037 -2.9125
  807MOL0     H 8940   7.880   8.043   4.684  0.6363 -1.8409 -1.7925
  807MOL0     H 8941   7.809   7.966   4.281 -1.3094  1.6080 -1.1716
  807MOL0     H 8942   7.876   8.255   5.065 -0.4469 -1.7695  0.6814
  807MOL0     H 8943   7.967   8.284   5.284 -2.2183 -0.2082 -0.7338
  807MOL0     H 8944   7.992   8.458   5.253  1.0172 -0.5812  0.6409
  807MOL0     H 8945   7.899   8.398   5.401 -3.0355  4.0103 -1.0892
  808MOL0     O 8946   5.992   0.227   6.708  0.1449  0.4642 -0.2763
  808MOL0     C 8947   5.944   0.131   6.650 -0.5761  0.2005  0.1176
  808MOL0     O 8948   6.017   0.029   6.589 -0.1111  0.3405 -0.3529
  808MOL0     C 8949   6.155   0.053   6.568  0.3651  1.2223  0.6343
  808MOL0     C 8950   6.200   0.180   6.509  0.8330 -0.4145  0.8676
  808MOL0     C 8951   6.331   0.200   6.481 -0.5792 -0.5854 -0.9448
  808MOL0     C 8952   6.421   0.091   6.492  0.4896 -0.2668 -1.0990
  808MOL0     O 8953   6.551   0.108   6.463 -0.0742  0.1173  0.5547
  808MOL0     C 8954   6.584   0.146   6.328 -0.3845 -0.1924 -0.9331
  808MOL0     C 8955   6.517   0.043   6.234 -0.0839  0.5926 -0.1193
  808MOL0     C 8956   6.559   0.056   6.092  0.4618  0.6516 -0.2007
  808MOL0     C 8957   6.506  -0.055   6.003  0.5056  0.5229 -0.2907
  808MOL0     C 8958   6.533  -0.026   5.861  0.6419 -0.3364 -0.1844
  808MOL0     C 8959   6.681  -0.031   5.810  0.0093  0.7415 -1.2019
  808MOL0     C 8960   6.771  -0.149   5.864  0.2779 -0.1900 -0.9158
  808MOL0     C 8961   6.902  -0.187   5.780  1.0707 -0.3924 -0.1501
  808MOL0     N 8962   7.012  -0.083   5.792 -0.4125 -0.8011 -0.0582
  808MOL0     C 8963   7.042   0.025   5.710  1.0151  0.9632  0.3325
  808MOL0     C 8964   7.169   0.054   5.730 -0.2684  0.1217  0.8877
  808MOL0     C 8965   7.239   0.166   5.654  0.0391  0.3112 -0.3870
  808MOL0     C 8966   7.392   0.173   5.687 -0.6356 -0.2037 -0.4767
  808MOL0     C 8967   7.468   0.276   5.605 -0.2293 -0.1444  0.6214
  808MOL0     C 8968   7.613   0.289   5.656 -0.5440 -0.4510  0.8175
  808MOL0     O 8969   7.679   0.401   5.581  0.3999 -0.0039  0.6787
  808MOL0     C 8970   7.810   0.446   5.604  0.3997 -0.2630 -0.7740
  808MOL0     C 8971   7.882   0.415   5.725  0.2042 -0.3910  0.3408
  808MOL0     C 8972   8.014   0.454   5.761  1.1901  0.5122  0.2371
  808MOL0     C 8973   8.081   0.532   5.664  1.0970 -0.1483 -0.2596
  808MOL0     C 8974   8.221   0.584   5.692  0.3057  0.8239 -0.6767
  808MOL0     O 8975   8.278   0.651   5.588 -0.3954 -0.0028  0.5144
  808MOL0     C 8976   8.403   0.711   5.614 -0.2512 -0.1276 -0.2894
  808MOL0     C 8977   8.436   0.775   5.734 -0.0016  0.4977 -0.2926
  808MOL0     C 8978   8.566   0.831   5.741 -0.0551  0.4687  0.7311
  808MOL0     C 8979   8.662   0.820   5.635 -0.1487  0.1483 -0.6016
  808MOL0     O 8980   8.787   0.875   5.635 -0.1212  0.2200  0.1508
  808MOL0     C 8981   8.875   0.845   5.748  0.2824 -0.5612  1.0318
  808MOL0     C 8982   9.009   0.925   5.724 -0.0294  1.3266  0.5960
  808MOL0     C 8983   8.980   1.081   5.725 -0.5150  0.1884 -0.8347
  808MOL0     C 8984   9.118   1.151   5.746 -0.1124 -0.3294 -0.1347
  808MOL0     C 8985   9.105   1.303   5.778  0.2270 -0.7945  0.1349
  808MOL0     C 8986   9.031   1.379   5.669 -0.1592  0.6295  0.0587
  808MOL0     C 8987   9.000   1.528   5.710 -0.4395  0.6918 -0.0258
  808MOL0     C 8988   8.944   1.605   5.591  0.5037 -0.7134  0.0832
  808MOL0    Cl 8989   8.911   1.770   5.638  0.0949  0.0371 -0.5152
  808MOL0     C 8990   8.623   0.758   5.519 -0.7018 -0.2188 -0.1948
  808MOL0     C 8991   8.498   0.700   5.509  0.5935  0.7500  0.0260
  808MOL0     O 8992   8.279   0.541   5.794  0.8324  0.3924  0.3404
  808MOL0     C 8993   8.011   0.578   5.550  0.5636 -1.1724 -0.1694
  808MOL0     C 8994   7.878   0.538   5.519 -0.0597 -0.2112  0.1492
  808MOL0     N 8995   7.217  -0.022   5.835  0.6073 -1.1464  0.0739
  808MOL0     N 8996   7.123  -0.095   5.878 -0.1730  0.1866 -0.7672
  808MOL0     C 8997   6.378  -0.040   6.535  0.1609 -0.0028  0.1595
  808MOL0     C 8998   6.245  -0.056   6.574  0.7496 -0.2748 -0.3910
  808MOL0     C 8999   5.796   0.110   6.658 -1.1071  0.6701 -0.6154
  808MOL0     C 9000   5.738  -0.006   6.596 -0.5137 -0.7493  0.6102
  808MOL0     C 9001   5.597  -0.021   6.590  0.5438 -0.1415  0.9180
  808MOL0     C 9002   5.512   0.078   6.639 -0.0436  0.4553  0.1790
  808MOL0     O 9003   5.384   0.050   6.648  0.6375  0.0877 -0.3532
  808MOL0     C 9004   5.291   0.158   6.629 -0.5042 -0.0127 -0.0060
  808MOL0     C 9005   5.164   0.084   6.579 -0.8463 -0.0049  0.7552
  808MOL0     C 9006   5.107   0.008   6.695 -0.3403 -0.1872  0.9482
  808MOL0     C 9007   4.990  -0.083   6.652  0.1691 -0.5626 -0.7262
  808MOL0     C 9008   5.046  -0.196   6.581 -0.2910  0.5151 -0.8746
  808MOL0     C 9009   5.108  -0.283   6.523  0.0390  0.3339 -0.2953
  808MOL0     C 9010   5.577   0.187   6.706 -0.3317  0.4818  1.1009
  808MOL0     C 9011   5.711   0.200   6.720 -0.2395 -0.9977 -0.5633
  808MOL0     C 9012   5.757   0.309   6.814  0.7782  0.2924  0.5787
  808MOL0     H 9013   6.134   0.265   6.501  0.3585 -0.9733 -3.3083
  808MOL0     H 9014   6.355   0.297   6.440 -0.9574 -0.1463 -0.1404
  808MOL0     H 9015   6.556   0.251   6.315 -0.2990 -0.0242  0.1367
  808MOL0     H 9016   6.693   0.141   6.315 -0.1219 -1.7725  1.2981
  808MOL0     H 9017   6.408   0.056   6.229 -0.1865  0.0101  0.3733
  808MOL0     H 9018   6.533  -0.058   6.273  0.6010  0.3312 -1.0650
  808MOL0     H 9019   6.668   0.052   6.082  0.3830  0.2339 -0.9688
  808MOL0     H 9020   6.523   0.149   6.047  0.2577 -0.2768 -2.0247
  808MOL0     H 9021   6.547  -0.155   6.019  2.0111  0.5840 -3.1781
  808MOL0     H 9022   6.398  -0.066   6.020  0.4277  0.5905 -0.7361
  808MOL0     H 9023   6.481  -0.095   5.794 -0.0862  0.3229 -0.3158
  808MOL0     H 9024   6.494   0.076   5.848  3.3256  0.5915 -1.7205
  808MOL0     H 9025   6.676  -0.032   5.701  1.1506  0.0323 -1.2721
  808MOL0     H 9026   6.738   0.056   5.843  1.9815 -1.2759  1.0625
  808MOL0     H 9027   6.715  -0.242   5.878  1.2701 -0.4820  1.5554
  808MOL0     H 9028   6.808  -0.119   5.962  1.4798  2.4773 -2.0917
  808MOL0     H 9029   6.944  -0.277   5.825  3.1123  0.1858 -0.7833
  808MOL0     H 9030   6.875  -0.206   5.675  1.1969  1.1088 -0.4742
  808MOL0     H 9031   6.959   0.059   5.649 -1.9383 -1.0874  2.8928
  808MOL0     H 9032   7.219   0.152   5.548 -2.1858  0.3888 -0.0301
  808MOL0     H 9033   7.186   0.258   5.682 -0.7864 -0.5389  0.9620
  808MOL0     H 9034   7.396   0.209   5.790  0.7572  2.4533 -1.3555
  808MOL0     H 9035   7.445   0.080   5.670 -0.8820 -0.4906  0.2713
  808MOL0     H 9036   7.418   0.373   5.609  0.0471  0.0016  0.5555
  808MOL0     H 9037   7.466   0.237   5.502  0.9784  1.9291 -0.2424
  808MOL0     H 9038   7.655   0.193   5.626 -1.2425 -0.3667 -0.5304
  808MOL0     H 9039   7.619   0.315   5.762 -0.8261  0.8088  0.5414
  808MOL0     H 9040   7.835   0.351   5.798 -2.6925  0.4124 -0.6843
  808MOL0     H 9041   8.054   0.427   5.858  0.8742 -0.6576  0.0571
  808MOL0     H 9042   8.355   0.784   5.805 -2.1388  0.1534 -2.5539
  808MOL0     H 9043   8.592   0.895   5.825  1.3426  1.8782 -0.6897
  808MOL0     H 9044   8.825   0.881   5.839  0.9694  1.9399  0.4990
  808MOL0     H 9045   8.889   0.737   5.756 -0.3883 -0.8008 -0.6329
  808MOL0     H 9046   9.078   0.900   5.806 -1.2652  0.1395  1.3173
  808MOL0     H 9047   9.051   0.882   5.632 -1.0904 -2.4889  1.7065
  808MOL0     H 9048   8.937   1.109   5.628 -1.1417 -0.7604 -0.8465
  808MOL0     H 9049   8.914   1.104   5.809 -1.3864  1.6960 -1.8909
  808MOL0     H 9050   9.182   1.135   5.659 -0.7443 -1.8708 -0.3422
  808MOL0     H 9051   9.173   1.109   5.832 -3.0885 -1.1697  1.5050
  808MOL0     H 9052   9.202   1.353   5.780 -0.3645  0.5632 -2.1454
  808MOL0     H 9053   9.046   1.309   5.870 -2.1837  2.0573 -1.4219
  808MOL0     H 9054   9.094   1.381   5.580  0.6861  0.6339  0.6373
  808MOL0     H 9055   8.940   1.322   5.648  1.8469 -3.3185  0.9995
  808MOL0     H 9056   9.100   1.565   5.736  0.1889  1.2526 -2.8862
  808MOL0     H 9057   8.933   1.527   5.796 -1.3308 -1.7330 -0.6773
  808MOL0     H 9058   9.021   1.610   5.513  0.1035 -0.3882 -0.2986
  808MOL0     H 9059   8.852   1.560   5.551  0.4881 -0.8169  0.2396
  808MOL0     H 9060   8.690   0.745   5.434  0.1143 -2.5549  0.7113
  808MOL0     H 9061   8.483   0.634   5.424  0.5289 -0.0827  0.6778
  808MOL0     H 9062   8.055   0.641   5.474 -3.7941  1.4322 -0.8806
  808MOL0     H 9063   7.820   0.563   5.430 -1.7544 -0.9146  1.0123
  808MOL0     H 9064   6.447  -0.122   6.551 -1.0508 -0.5682  3.0758
  808MOL0     H 9065   6.200  -0.154   6.591 -0.0861 -0.0106 -1.0178
  808MOL0     H 9066   5.802  -0.081   6.551  0.2528 -0.9189  1.9217
  808MOL0     H 9067   5.547  -0.109   6.553  3.0307 -0.4054 -2.2565
  808MOL0     H 9068   5.335   0.224   6.553 -1.5105 -0.8047 -1.3385
  808MOL0     H 9069   5.273   0.214   6.721  0.1949  1.5643 -0.7977
  808MOL0     H 9070   5.191   0.025   6.491 -2.3897 -1.8737  1.4463
  808MOL0     H 9071   5.087   0.155   6.548 -0.9904 -0.3963  0.2108
  808MOL0     H 9072   5.067   0.079   6.768  0.1949 -0.2317  1.2911
  808MOL0     H 9073   5.189  -0.043   6.746  1.2826  0.8064 -0.5645
  808MOL0     H 9074   4.940  -0.120   6.742 -0.9550  0.3830 -0.9367
  808MOL0     H 9075   4.916  -0.037   6.586 -0.4089 -0.0722  0.2315
  808MOL0     H 9076   5.171  -0.341   6.458 -0.1765  2.7032 -2.8041
  808MOL0     H 9077   5.511   0.255   6.759  2.9542  3.8491  1.2496
  808MOL0     H 9078   5.806   0.386   6.753  0.7000 -2.2937 -3.0351
  808MOL0     H 9079   5.669   0.358   6.857  0.7095 -0.2350  1.0529
  808MOL0     H 9080   5.814   0.263   6.895 -2.0087 -0.3074  2.3646
  809MOL0     O 9081  11.015   2.685   8.208 -0.0663 -0.6968  0.5456
  809MOL0     C 9082  11.032   2.626   8.313 -0.2708 -0.6696  0.7858
  809MOL0     O 9083  11.145   2.613   8.374  0.1197  0.6294  0.2656
  809MOL0     C 9084  11.264   2.618   8.313 -1.0905 -0.0243  0.0409
  809MOL0     C 9085  11.378   2.609   8.385  1.1014 -0.7277  0.9321
  809MOL0     C 9086  11.500   2.623   8.324  0.2491  0.0980 -0.9409
  809MOL0     C 9087  11.522   2.642   8.188  0.8579 -0.4248 -0.0462
  809MOL0     O 9088  11.649   2.660   8.144 -0.2317  0.3221 -0.3255
  809MOL0     C 9089  11.661   2.744   8.032  0.8166  0.3398  0.0279
  809MOL0     C 9090  11.778   2.829   8.032 -0.6660  0.6884  0.4899
  809MOL0     C 9091  11.911   2.740   8.024 -0.5024 -0.0614  0.7385
  809MOL0     C 9092  12.039   2.827   8.024  0.3668 -0.5435  0.1176
  809MOL0     C 9093  12.169   2.754   8.022  0.1436  0.4996  0.8453
  809MOL0     C 9094  12.287   2.852   7.974  1.2672 -0.5480 -0.1309
  809MOL0     C 9095  12.426   2.792   8.013 -0.4400 -0.0662 -0.2796
  809MOL0     C 9096  12.523   2.890   7.970  0.1312  0.4178  0.6192
  809MOL0     N 9097  12.656   2.832   7.985 -0.7720  0.0395 -0.3505
  809MOL0     C 9098  12.719   2.799   8.107 -0.2286 -0.8608  0.1544
  809MOL0     C 9099  12.818   2.715   8.070  0.0610 -0.5322 -0.2425
  809MOL0     C 9100  12.919   2.648   8.165  0.4897 -0.2479  0.4087
  809MOL0     C 9101  13.065   2.671   8.130  0.1899  0.7779  0.4014
  809MOL0     C 9102  13.146   2.585   8.228 -0.1032 -0.4481  0.6817
  809MOL0     C 9103  13.298   2.558   8.220 -0.4263 -0.4378  0.2824
  809MOL0     O 9104  13.320   2.478   8.095 -0.4637 -0.4422  0.2611
  809MOL0     C 9105  13.442   2.493   8.040 -0.2993 -0.4567 -0.3016
  809MOL0     C 9106  13.497   2.623   7.998 -0.8095 -0.5067  0.0677
  809MOL0     C 9107  13.629   2.627   7.956 -0.5060 -0.5877  0.6811
  809MOL0     C 9108  13.717   2.511   7.962  0.1172 -0.3693 -0.1779
  809MOL0     C 9109  13.855   2.512   7.913  0.8585 -0.7857  1.0252
  809MOL0     O 9110  13.912   2.637   7.882  0.6345 -0.1971 -0.8932
  809MOL0     C 9111  14.046   2.637   7.856 -0.9630 -0.3183  0.1854
  809MOL0     C 9112  14.093   2.729   7.767 -0.4531 -0.1496  0.5189
  809MOL0     C 9113  14.231   2.740   7.737  0.2321 -0.2648 -0.3126
  809MOL0     C 9114  14.326   2.658   7.796 -0.3903  0.1748  0.6630
  809MOL0     O 9115  14.467   2.656   7.779  0.7679  0.3714 -0.0602
  809MOL0     C 9116  14.518   2.731   7.664 -0.4308  0.5478 -0.2060
  809MOL0     C 9117  14.658   2.670   7.649  0.0097 -1.1380  0.4173
  809MOL0     C 9118  14.725   2.737   7.525  0.8619  0.1220  0.2832
  809MOL0     C 9119  14.871   2.720   7.510 -0.3809 -0.4461 -0.3773
  809MOL0     C 9120  14.926   2.750   7.368  0.0672  0.0554  0.1286
  809MOL0     C 9121  14.898   2.888   7.326  0.4079  0.5060 -0.7371
  809MOL0     C 9122  14.992   2.941   7.215  0.2873 -0.1278 -0.1720
  809MOL0     C 9123  14.942   3.086   7.184 -0.7805 -0.3418 -0.2784
  809MOL0    Cl 9124  14.802   3.081   7.087  0.3445  0.1222 -0.3421
  809MOL0     C 9125  14.280   2.577   7.896 -0.0310  0.1078  0.0292
  809MOL0     C 9126  14.147   2.561   7.915  0.4989  0.3121 -0.5931
  809MOL0     O 9127  13.916   2.410   7.914  0.1343 -0.3650  0.0622
  809MOL0     C 9128  13.663   2.385   7.996 -0.0301  0.1416 -0.5849
  809MOL0     C 9129  13.532   2.381   8.037 -0.1548  0.6718 -0.6427
  809MOL0     N 9130  12.809   2.685   7.940  0.5278  0.9363 -0.4633
  809MOL0     N 9131  12.717   2.758   7.887  0.1262  0.5797 -0.5872
  809MOL0     C 9132  11.406   2.647   8.109  0.2444  0.1175 -0.3878
  809MOL0     C 9133  11.277   2.635   8.166  0.1154  0.1950 -0.2379
  809MOL0     C 9134  10.912   2.594   8.387 -0.8674 -0.2721  0.4887
  809MOL0     C 9135  10.919   2.579   8.526  0.4323  0.8469 -0.1265
  809MOL0     C 9136  10.809   2.544   8.597 -0.1167 -0.0553 -0.2907
  809MOL0     C 9137  10.690   2.524   8.538 -0.6177  0.8079  0.4872
  809MOL0     O 9138  10.576   2.484   8.600  0.0108  0.0121  0.6184
  809MOL0     C 9139  10.579   2.395   8.715 -0.1621 -0.5157  0.7731
  809MOL0     C 9140  10.617   2.259   8.656  0.9421 -0.5908 -0.5916
  809MOL0     C 9141  10.594   2.135   8.736 -0.5887  0.3757 -0.1542
  809MOL0     C 9142  10.670   2.022   8.671  0.2969  0.4026  0.6024
  809MOL0     C 9143  10.618   1.976   8.546  0.0192  0.2875 -0.2839
  809MOL0     C 9144  10.592   1.935   8.438 -1.1943 -0.4846  0.9102
  809MOL0     C 9145  10.669   2.532   8.401 -0.6596 -0.5180 -1.1061
  809MOL0     C 9146  10.783   2.571   8.328 -0.4340  0.5865  0.8560
  809MOL0     C 9147  10.764   2.555   8.178 -0.2455 -0.4173  0.4510
  809MOL0     H 9148  11.376   2.589   8.492  0.1071 -0.7469  0.9163
  809MOL0     H 9149  11.584   2.612   8.392 -0.3871 -0.1389 -0.1871
  809MOL0     H 9150  11.648   2.674   7.949 -2.4333 -0.9832  1.4753
  809MOL0     H 9151  11.568   2.801   8.025 -1.8379 -3.7186 -1.3907
  809MOL0     H 9152  11.778   2.882   8.128  0.6669 -0.6019  1.2502
  809MOL0     H 9153  11.779   2.906   7.955  0.7470  1.3007  1.0746
  809MOL0     H 9154  11.914   2.665   7.945  0.7810 -0.6321  1.2986
  809MOL0     H 9155  11.911   2.685   8.118 -0.2809 -1.0511  0.1729
  809MOL0     H 9156  12.043   2.884   7.930  3.8976  1.0330  1.0676
  809MOL0     H 9157  12.035   2.901   8.104 -0.0602  0.4135 -0.7592
  809MOL0     H 9158  12.193   2.701   8.115 -2.3183 -2.6062 -0.1238
  809MOL0     H 9159  12.155   2.676   7.947 -2.6056  2.8095 -1.3187
  809MOL0     H 9160  12.286   2.875   7.867  0.5765  0.7558  0.1295
  809MOL0     H 9161  12.272   2.941   8.037 -0.0325 -1.0162  0.2697
  809MOL0     H 9162  12.441   2.693   7.970 -0.7587 -0.0702 -0.3778
  809MOL0     H 9163  12.432   2.782   8.122 -2.2721  2.1054  0.0971
  809MOL0     H 9164  12.504   2.930   7.870 -0.9002  0.1391  0.6963
  809MOL0     H 9165  12.518   2.980   8.031  1.1590  0.9799 -0.0924
  809MOL0     H 9166  12.708   2.839   8.207  2.1288 -1.1171  0.5813
  809MOL0     H 9167  12.890   2.686   8.263 -0.7105 -0.0635 -0.0066
  809MOL0     H 9168  12.894   2.542   8.159  2.0295 -0.6211  0.0700
  809MOL0     H 9169  13.089   2.648   8.026 -1.1493  0.4589  0.1347
  809MOL0     H 9170  13.076   2.780   8.137  0.2540  0.6911  1.9637
  809MOL0     H 9171  13.100   2.487   8.216 -1.0035 -0.0937  1.1130
  809MOL0     H 9172  13.134   2.622   8.330  5.6498  0.4573  1.3797
  809MOL0     H 9173  13.341   2.502   8.303  3.4498  1.1137 -0.4322
  809MOL0     H 9174  13.342   2.658   8.216  0.6345 -0.9113 -0.4184
  809MOL0     H 9175  13.437   2.712   7.987 -1.9456 -1.5596 -3.6689
  809MOL0     H 9176  13.657   2.724   7.915 -3.9533 -0.7296 -2.5509
  809MOL0     H 9177  14.031   2.803   7.716  0.8234  0.1028 -0.7205
  809MOL0     H 9178  14.262   2.822   7.674 -0.1626  0.9771  1.0492
  809MOL0     H 9179  14.466   2.720   7.569 -1.1322  2.5879 -0.1022
  809MOL0     H 9180  14.521   2.838   7.685 -0.5851  0.2427  1.5208
  809MOL0     H 9181  14.713   2.703   7.738  1.5121  1.4963 -1.3513
  809MOL0     H 9182  14.654   2.561   7.646  1.1887 -1.2293  1.6052
  809MOL0     H 9183  14.668   2.703   7.438  2.0388 -1.3309  0.0509
  809MOL0     H 9184  14.688   2.840   7.521 -1.0927 -0.5820 -2.2181
  809MOL0     H 9185  14.904   2.619   7.535  1.3563 -0.2883 -1.8434
  809MOL0     H 9186  14.919   2.786   7.582 -0.6231 -1.1762  0.4715
  809MOL0     H 9187  14.894   2.677   7.293 -0.2227  1.1835 -0.8868
  809MOL0     H 9188  15.035   2.740   7.372  0.0001 -0.3790  0.8896
  809MOL0     H 9189  14.793   2.898   7.300 -0.1509 -0.2200  1.0335
  809MOL0     H 9190  14.926   2.951   7.411  3.1023 -1.4536  0.0040
  809MOL0     H 9191  14.992   2.878   7.126 -0.6757  0.9180 -0.9449
  809MOL0     H 9192  15.093   2.955   7.252 -0.3764  1.4512  1.1612
  809MOL0     H 9193  14.912   3.151   7.267 -3.3445  0.1868 -1.5291
  809MOL0     H 9194  15.016   3.145   7.130 -2.4422  1.6577 -0.5048
  809MOL0     H 9195  14.333   2.499   7.949 -0.5209 -0.0576  0.2839
  809MOL0     H 9196  14.124   2.487   7.990  1.1156  1.8517  1.1958
  809MOL0     H 9197  13.717   2.291   8.002 -1.1074 -0.4132  2.0173
  809MOL0     H 9198  13.503   2.288   8.084  1.8125  0.5136  0.3718
  809MOL0     H 9199  11.415   2.659   8.002  0.3496  2.7324 -0.1632
  809MOL0     H 9200  11.206   2.639   8.084  1.3975 -1.9988 -1.5513
  809MOL0     H 9201  11.010   2.587   8.584  0.4256 -2.8755  0.6048
  809MOL0     H 9202  10.820   2.523   8.703  2.7327 -0.0894 -0.5295
  809MOL0     H 9203  10.482   2.382   8.764 -0.7351 -0.0608 -0.2109
  809MOL0     H 9204  10.651   2.429   8.790 -0.4389 -1.5814  1.5397
  809MOL0     H 9205  10.725   2.267   8.641  1.5007 -0.8749  2.4797
  809MOL0     H 9206  10.559   2.243   8.565 -2.1313  1.8834  0.7341
  809MOL0     H 9207  10.488   2.116   8.720 -0.2231 -2.0280 -0.0862
  809MOL0     H 9208  10.633   2.151   8.837  1.2773  1.1426 -0.9440
  809MOL0     H 9209  10.776   2.048   8.661 -0.6396  3.9409 -2.5756
  809MOL0     H 9210  10.670   1.942   8.745  2.1880  0.3603  0.6073
  809MOL0     H 9211  10.576   1.895   8.340  1.9463 -1.8407  0.8330
  809MOL0     H 9212  10.576   2.504   8.353 -0.7293 -1.4256 -0.4624
  809MOL0     H 9213  10.689   2.478   8.157 -0.9920  0.2098  0.7692
  809MOL0     H 9214  10.733   2.654   8.142  1.9786  0.6826  1.3886
  809MOL0     H 9215  10.854   2.516   8.130 -0.1755 -1.3835  1.3349
  810MOL0     O 9216   8.209  10.810   6.937  1.2896  0.2204 -0.0206
  810MOL0     C 9217   8.285  10.760   6.852 -0.2275 -0.0662 -0.3673
  810MOL0     O 9218   8.239  10.683   6.741  0.0194  0.4461 -0.0557
  810MOL0     C 9219   8.118  10.623   6.755  0.0476  0.0505 -0.8109
  810MOL0     C 9220   8.104  10.521   6.844  0.0772 -0.4433  0.2879
  810MOL0     C 9221   7.981  10.463   6.871 -0.7398  0.3258  0.0301
  810MOL0     C 9222   7.864  10.516   6.820  0.7226  0.0383 -0.1479
  810MOL0     O 9223   7.744  10.451   6.859  0.2058  0.3456 -0.3671
  810MOL0     C 9224   7.617  10.492   6.796  0.2278  0.0498 -0.9379
  810MOL0     C 9225   7.544  10.585   6.890 -0.6886  0.1583  0.2559
  810MOL0     C 9226   7.459  10.511   7.004  0.3089 -0.5393 -0.6969
  810MOL0     C 9227   7.548  10.435   7.111 -0.1529 -0.3648  0.5423
  810MOL0     C 9228   7.491  10.434   7.250 -0.1137  0.2078 -0.8138
  810MOL0     C 9229   7.402  10.311   7.279  0.9506 -0.6052 -0.1436
  810MOL0     C 9230   7.301  10.353   7.388  0.0156  0.3030 -0.1857
  810MOL0     C 9231   7.235  10.237   7.453  0.2392  0.7979 -0.5214
  810MOL0     N 9232   7.325  10.165   7.542  0.2145 -0.6740  0.2122
  810MOL0     C 9233   7.421  10.068   7.525  0.0064  1.1210  0.3222
  810MOL0     C 9234   7.479  10.040   7.642  0.2910 -0.4731  0.6417
  810MOL0     C 9235   7.576   9.932   7.678 -0.0238  0.1246  0.2972
  810MOL0     C 9236   7.713   9.989   7.641 -0.2719 -0.1420  0.4092
  810MOL0     C 9237   7.823   9.893   7.679  0.3700 -0.2118 -0.1505
  810MOL0     C 9238   7.953   9.966   7.686 -0.6346  0.6526 -1.0885
  810MOL0     O 9239   8.062   9.877   7.723  0.0466  0.2080 -0.5333
  810MOL0     C 9240   8.186   9.928   7.737 -0.4347  0.4818  0.6636
  810MOL0     C 9241   8.299   9.840   7.757  0.5681 -0.9736 -0.2920
  810MOL0     C 9242   8.426   9.901   7.772 -0.1614 -0.1583  0.4846
  810MOL0     C 9243   8.452  10.037   7.786  0.4549 -0.0239 -0.5431
  810MOL0     C 9244   8.591  10.080   7.803 -0.7102 -0.6259  0.5172
  810MOL0     O 9245   8.632  10.204   7.771  0.6458  0.2607 -0.2622
  810MOL0     C 9246   8.760  10.240   7.791 -1.1049 -0.0132 -0.4997
  810MOL0     C 9247   8.799  10.300   7.910  1.1159 -1.2291  0.6879
  810MOL0     C 9248   8.934  10.324   7.929  0.2766  0.8608 -0.1781
  810MOL0     C 9249   9.033  10.292   7.836 -0.6591 -0.1217  0.4219
  810MOL0     O 9250   9.166  10.297   7.867 -0.2510  0.3202  0.1034
  810MOL0     C 9251   9.208  10.318   8.000 -0.8521  0.1324 -0.4159
  810MOL0     C 9252   9.360  10.339   8.014 -0.4318  0.1877  0.1566
  810MOL0     C 9253   9.448  10.234   7.944 -0.2305 -0.7260 -0.5082
  810MOL0     C 9254   9.598  10.242   7.959 -0.9388  0.4103 -0.4727
  810MOL0     C 9255   9.647  10.377   7.909 -0.5697  0.0388 -1.1775
  810MOL0     C 9256   9.809  10.376   7.916  0.5338 -0.2172  0.3174
  810MOL0     C 9257   9.858  10.522   7.897  0.0238  0.1676  0.3784
  810MOL0     C 9258  10.003  10.523   7.851 -0.0624  0.1277  0.0064
  810MOL0    Cl 9259  10.062  10.686   7.867 -0.0248 -0.5296 -0.4309
  810MOL0     C 9260   8.991  10.245   7.710  0.3456  0.0301  0.1655
  810MOL0     C 9261   8.855  10.214   7.690 -0.2390  0.4124 -0.5947
  810MOL0     O 9262   8.662   9.998   7.859  0.0590  0.5399  0.2279
  810MOL0     C 9263   8.351  10.121   7.753  0.1875 -0.0641  0.3488
  810MOL0     C 9264   8.221  10.066   7.726 -0.1582 -1.1623 -0.2723
  810MOL0     N 9265   7.421  10.129   7.734  0.6226  0.1038 -0.0499
  810MOL0     N 9266   7.340  10.208   7.672 -0.2171  0.0820 -0.1110
  810MOL0     C 9267   7.878  10.631   6.736  1.4964  0.2771  0.4428
  810MOL0     C 9268   8.006  10.675   6.698  0.5708 -1.2842 -0.0882
  810MOL0     C 9269   8.429  10.788   6.841 -0.9409 -0.3047 -0.3051
  810MOL0     C 9270   8.465  10.925   6.849 -0.7760 -0.2362 -0.8548
  810MOL0     C 9271   8.596  10.969   6.843  0.1547  0.4278  0.9146
  810MOL0     C 9272   8.703  10.879   6.822  0.5679  0.7692 -0.1550
  810MOL0     O 9273   8.828  10.933   6.823  0.0666 -0.3681 -0.5023
  810MOL0     C 9274   8.941  10.845   6.820  0.1146 -0.6292  0.1880
  810MOL0     C 9275   9.071  10.927   6.820  0.3541 -0.7639  0.0663
  810MOL0     C 9276   9.184  10.838   6.790  0.3896  0.1211  0.0746
  810MOL0     C 9277   9.302  10.925   6.745 -0.4977  0.3386  0.3696
  810MOL0     C 9278   9.338  11.024   6.849  0.2237 -0.5208  0.0049
  810MOL0     C 9279   9.359  11.112   6.929 -0.6187  0.3275 -0.3721
  810MOL0     C 9280   8.670  10.739   6.811 -0.8411  0.8579  0.4081
  810MOL0     C 9281   8.534  10.696   6.818  0.7498 -1.5121  0.1105
  810MOL0     C 9282   8.503  10.556   6.788  1.0531  0.3232  0.1874
  810MOL0     H 9283   8.187  10.483   6.902  0.0675 -0.8315  0.0465
  810MOL0     H 9284   7.982  10.375   6.934 -0.1667  1.8183  2.2251
  810MOL0     H 9285   7.635  10.533   6.697  0.9506 -2.8073 -2.0850
  810MOL0     H 9286   7.565  10.397   6.786 -0.0264 -0.1573  1.5763
  810MOL0     H 9287   7.474  10.632   6.821  2.2940 -0.1293 -3.2407
  810MOL0     H 9288   7.612  10.658   6.936 -1.1302 -2.3258  5.7406
  810MOL0     H 9289   7.390  10.438   6.961 -0.8493 -0.0079  0.1935
  810MOL0     H 9290   7.393  10.586   7.049  1.7672  1.5191 -1.8600
  810MOL0     H 9291   7.567  10.334   7.072  1.5440  0.4955 -0.9987
  810MOL0     H 9292   7.646  10.482   7.115 -0.7821  1.0928 -0.4954
  810MOL0     H 9293   7.571  10.414   7.322  0.6827  2.4107 -1.0299
  810MOL0     H 9294   7.446  10.527   7.285  1.3954  0.3252  0.9442
  810MOL0     H 9295   7.336  10.296   7.192  2.5034  0.0620 -1.4804
  810MOL0     H 9296   7.464  10.225   7.306 -0.5759 -1.8465 -0.3984
  810MOL0     H 9297   7.223  10.424   7.357  1.8317  0.9837 -3.7616
  810MOL0     H 9298   7.356  10.405   7.467  2.8084 -0.8918 -1.2542
  810MOL0     H 9299   7.144  10.265   7.505  1.2085  0.1550  1.6297
  810MOL0     H 9300   7.199  10.162   7.382  0.5116 -2.5718  2.5817
  810MOL0     H 9301   7.443  10.009   7.436  2.3876 -1.1571  2.2669
  810MOL0     H 9302   7.576   9.919   7.787  3.5772 -1.5094  0.2721
  810MOL0     H 9303   7.563   9.835   7.630  1.9242  0.8102 -1.7779
  810MOL0     H 9304   7.705   9.996   7.532  3.2160  1.8418  0.1512
  810MOL0     H 9305   7.733  10.084   7.689  2.0155 -0.5308  0.3391
  810MOL0     H 9306   7.831   9.796   7.629 -0.8131 -1.2055  1.4823
  810MOL0     H 9307   7.799   9.863   7.782  3.0749 -2.6520 -0.1023
  810MOL0     H 9308   7.944  10.039   7.766  1.6503 -0.1290 -0.0428
  810MOL0     H 9309   7.966  10.013   7.588  0.6097  1.2753 -0.6435
  810MOL0     H 9310   8.284   9.735   7.778 -0.5662 -0.6455  0.6796
  810MOL0     H 9311   8.513   9.841   7.796  1.1516  1.5727  0.2644
  810MOL0     H 9312   8.724  10.318   7.986  1.1788 -1.6060  0.8411
  810MOL0     H 9313   8.964  10.364   8.026  1.5275 -1.3361  0.4138
  810MOL0     H 9314   9.159  10.401   8.051 -1.1857 -0.9905  1.1355
  810MOL0     H 9315   9.188  10.227   8.057 -0.0492  0.2367  0.0498
  810MOL0     H 9316   9.375  10.441   7.977 -1.5535  1.1561  2.1670
  810MOL0     H 9317   9.393  10.347   8.118  1.6453  1.2266 -0.5389
  810MOL0     H 9318   9.411  10.137   7.977 -0.3335  0.1790  2.2806
  810MOL0     H 9319   9.431  10.246   7.836 -0.0983  0.2693 -0.4278
  810MOL0     H 9320   9.630  10.164   7.890 -1.4421  1.5029 -1.9928
  810MOL0     H 9321   9.641  10.218   8.057  2.1842 -2.3820 -2.3201
  810MOL0     H 9322   9.612  10.458   7.974  1.0234 -0.0875 -0.1001
  810MOL0     H 9323   9.612  10.400   7.808 -1.4997  0.9375 -0.6645
  810MOL0     H 9324   9.858  10.336   8.005 -1.0966  1.2924  1.9797
  810MOL0     H 9325   9.847  10.320   7.830  3.5722 -2.1166  2.6716
  810MOL0     H 9326   9.847  10.596   7.977 -0.0908  2.0577 -1.2983
  810MOL0     H 9327   9.792  10.543   7.812 -0.5852 -2.7975  0.0243
  810MOL0     H 9328  10.070  10.458   7.907  0.7468  0.2930 -0.7436
  810MOL0     H 9329  10.020  10.497   7.746  1.3455  0.6295  0.0891
  810MOL0     H 9330   9.058  10.234   7.625 -0.5631  0.1408 -0.5808
  810MOL0     H 9331   8.822  10.160   7.602 -0.1854 -0.6188  0.0052
  810MOL0     H 9332   8.384  10.220   7.722  1.0968 -0.3518  0.3563
  810MOL0     H 9333   8.151  10.145   7.703  0.5920 -1.1793 -2.9084
  810MOL0     H 9334   7.797  10.687   6.690  0.0789 -0.9594  1.3262
  810MOL0     H 9335   8.009  10.761   6.633 -2.4082 -0.7240  0.3751
  810MOL0     H 9336   8.395  11.003   6.876  1.7404  1.5043  1.0430
  810MOL0     H 9337   8.618  11.074   6.858  3.5807 -0.4605  3.5409
  810MOL0     H 9338   8.939  10.779   6.733  1.7994  1.2077 -1.3290
  810MOL0     H 9339   8.939  10.766   6.896 -1.0105 -0.2309  0.6000
  810MOL0     H 9340   9.068  10.975   6.919 -1.7847  0.5679 -0.5726
  810MOL0     H 9341   9.073  11.011   6.749 -0.2635 -2.2852 -1.8316
  810MOL0     H 9342   9.161  10.760   6.717  1.3949 -0.6328  0.5375
  810MOL0     H 9343   9.219  10.791   6.882  1.2936 -0.8921 -0.7676
  810MOL0     H 9344   9.388  10.866   6.714 -2.0913 -1.9023 -0.0494
  810MOL0     H 9345   9.275  10.984   6.657 -0.0599  1.5300  1.0119
  810MOL0     H 9346   9.383  11.193   6.996 -0.7236 -1.9837  2.6996
  810MOL0     H 9347   8.740  10.662   6.781 -3.5304 -2.1711  1.3716
  810MOL0     H 9348   8.484  10.536   6.682 -0.3080 -0.7544  0.6090
  810MOL0     H 9349   8.586  10.491   6.819  0.4637  0.7628  2.9659
  810MOL0     H 9350   8.421  10.515   6.847  1.9141  0.4269  1.4898
  811MOL0     O 9351   0.309   8.207  10.895 -0.7348 -0.4092  0.0370
  811MOL0     C 9352   0.330   8.089  10.923  0.2649 -0.2232  0.3651
  811MOL0     O 9353   0.399   8.047  11.028 -0.0105 -0.5923 -1.2700
  811MOL0     C 9354   0.408   8.128  11.143 -0.1273 -1.3050 -0.1202
  811MOL0     C 9355   0.531   8.173  11.185  0.2106  0.3317 -0.5221
  811MOL0     C 9356   0.545   8.246  11.308 -0.0591 -0.0284  0.3053
  811MOL0     C 9357   0.431   8.281  11.376  0.2958  0.4754 -0.7644
  811MOL0     O 9358   0.464   8.358  11.489  0.4271  0.1063  0.1630
  811MOL0     C 9359   0.365   8.375  11.587 -0.1812  0.1644 -0.6991
  811MOL0     C 9360   0.436   8.408  11.710 -0.0268 -0.1846 -0.3065
  811MOL0     C 9361   0.564   8.332  11.744 -0.5366  0.2259 -0.4241
  811MOL0     C 9362   0.622   8.391  11.875 -0.8982  0.5058  0.1456
  811MOL0     C 9363   0.748   8.327  11.923 -0.7698 -0.5793  0.3099
  811MOL0     C 9364   0.796   8.375  12.061  0.2224  0.1254  0.9506
  811MOL0     C 9365   0.930   8.311  12.087 -0.3774  0.3909 -0.0701
  811MOL0     C 9366   0.977   8.355  12.230 -0.4429 -0.0780  0.3476
  811MOL0     N 9367   1.077   8.265  12.292  0.0031  0.0204  0.4403
  811MOL0     C 9368   1.213   8.267  12.252 -1.1009  0.1591  0.4236
  811MOL0     C 9369   1.275   8.171  12.330  1.3928  0.2775 -0.7305
  811MOL0     C 9370   1.411   8.141  12.339 -0.1751  0.4796  0.0530
  811MOL0     C 9371   1.485   8.220  12.449 -0.4208  0.2938 -0.6949
  811MOL0     C 9372   1.632   8.249  12.399  0.3406  0.0662 -0.1629
  811MOL0     C 9373   1.708   8.334  12.504  0.1287 -1.0617 -0.3131
  811MOL0     O 9374   1.717   8.473  12.462  0.0655 -0.1142  0.1023
  811MOL0     C 9375   1.823   8.555  12.502 -0.2878  0.3146  0.4262
  811MOL0     C 9376   1.932   8.512  12.588  0.7393  0.5661  0.6282
  811MOL0     C 9377   2.026   8.595  12.638 -1.0122  0.0069 -0.0300
  811MOL0     C 9378   2.039   8.729  12.601 -0.2946  0.0672 -0.3419
  811MOL0     C 9379   2.138   8.830  12.661 -0.1103 -0.1047 -0.2597
  811MOL0     O 9380   2.117   8.959  12.625  0.6724 -0.0500  0.4919
  811MOL0     C 9381   2.216   9.063  12.635 -0.3860 -0.1926  0.3096
  811MOL0     C 9382   2.175   9.192  12.685 -0.3238  0.0121 -0.4935
  811MOL0     C 9383   2.257   9.302  12.685 -0.1955  0.1590 -0.2629
  811MOL0     C 9384   2.394   9.290  12.646  0.2907  0.3661 -0.1919
  811MOL0     O 9385   2.488   9.396  12.658 -0.0849  0.2740 -0.1350
  811MOL0     C 9386   2.450   9.525  12.702 -0.5455 -0.1975  0.8853
  811MOL0     C 9387   2.575   9.628  12.686 -0.0926 -1.1897  0.2845
  811MOL0     C 9388   2.544   9.770  12.727 -0.5952 -0.0493 -0.0110
  811MOL0     C 9389   2.470   9.846  12.621  0.4103  0.2307  0.3328
  811MOL0     C 9390   2.472   9.996  12.649 -0.4759  0.4893 -0.0784
  811MOL0     C 9391   2.388  10.076  12.555 -0.3850  0.0422  0.4976
  811MOL0     C 9392   2.378  10.225  12.594  0.1060  0.0593  0.5849
  811MOL0     C 9393   2.519  10.295  12.597  0.2573  0.5136  0.3074
  811MOL0    Cl 9394   2.501  10.467  12.602  0.3545 -0.1345 -0.0233
  811MOL0     C 9395   2.430   9.171  12.585  0.4242  0.6507 -0.1624
  811MOL0     C 9396   2.347   9.057  12.586  0.1408 -0.2134  0.2795
  811MOL0     O 9397   2.236   8.795  12.728 -0.8978  0.4684  0.1693
  811MOL0     C 9398   1.943   8.775  12.498  1.1865  0.8514  0.4596
  811MOL0     C 9399   1.832   8.693  12.453  1.0993 -0.0269 -0.4766
  811MOL0     N 9400   1.173   8.108  12.408  0.1835 -0.2401 -0.3455
  811MOL0     N 9401   1.054   8.165  12.380 -0.0988  0.1571  0.2385
  811MOL0     C 9402   0.307   8.237  11.338 -0.7418  0.5827 -0.5894
  811MOL0     C 9403   0.297   8.165  11.223 -0.2337  0.6843 -0.3514
  811MOL0     C 9404   0.277   7.993  10.831 -0.2989 -0.3018 -0.6266
  811MOL0     C 9405   0.330   7.858  10.834 -0.0742  0.9405 -0.0054
  811MOL0     C 9406   0.287   7.756  10.743  0.4811 -0.8486 -0.9875
  811MOL0     C 9407   0.185   7.783  10.654  0.3661 -0.2886  0.1879
  811MOL0     O 9408   0.157   7.677  10.579 -0.0394  0.2259  0.4783
  811MOL0     C 9409   0.083   7.694  10.456 -0.4968 -1.0036 -0.6077
  811MOL0     C 9410  -0.051   7.637  10.472  0.0606  0.2494  0.4340
  811MOL0     C 9411  -0.051   7.472  10.471  0.1913  0.5535  0.2987
  811MOL0     C 9412  -0.072   7.406  10.600 -0.3828 -0.5098  0.4852
  811MOL0     C 9413   0.023   7.408  10.702  0.8283 -0.1743  0.3054
  811MOL0     C 9414   0.085   7.397  10.804  0.3501  0.0640 -0.5645
  811MOL0     C 9415   0.116   7.907  10.653 -0.3072 -0.0833 -0.6408
  811MOL0     C 9416   0.165   8.013  10.734  0.0667  0.1796  0.5748
  811MOL0     C 9417   0.079   8.135  10.727 -0.4117  0.2255 -0.0125
  811MOL0     H 9418   0.626   8.132  11.153  2.5622  3.4698  1.7549
  811MOL0     H 9419   0.649   8.269  11.332  0.2522  0.0089 -0.9978
  811MOL0     H 9420   0.299   8.456  11.555 -0.5749 -0.4323 -1.4545
  811MOL0     H 9421   0.304   8.284  11.600  0.3517 -0.4110 -2.0256
  811MOL0     H 9422   0.372   8.388  11.796 -1.4604  0.0719 -1.2898
  811MOL0     H 9423   0.455   8.516  11.715  2.1580 -0.5396 -0.0934
  811MOL0     H 9424   0.643   8.360  11.673 -2.1739 -0.2097 -2.5397
  811MOL0     H 9425   0.552   8.224  11.755 -0.0715  0.1100 -0.9638
  811MOL0     H 9426   0.633   8.499  11.863 -2.9002  0.6454 -0.8678
  811MOL0     H 9427   0.549   8.390  11.956  2.2771 -1.7150  3.2942
  811MOL0     H 9428   0.747   8.217  11.928 -3.1833 -0.5517  2.1643
  811MOL0     H 9429   0.834   8.353  11.860  1.1730  0.0177  3.0198
  811MOL0     H 9430   0.811   8.483  12.065  3.0698 -0.1422 -0.0884
  811MOL0     H 9431   0.724   8.348  12.139  0.4835  2.2379  1.9951
  811MOL0     H 9432   1.007   8.339  12.015  0.8606 -0.5804  0.8172
  811MOL0     H 9433   0.924   8.202  12.085  1.4182  0.1880  2.0041
  811MOL0     H 9434   1.022   8.453  12.211 -3.5015  1.4523  0.4286
  811MOL0     H 9435   0.895   8.377  12.299 -1.6973  0.7626 -1.3545
  811MOL0     H 9436   1.267   8.338  12.190 -0.4425 -1.6302 -1.1509
  811MOL0     H 9437   1.426   8.033  12.356 -0.2103  0.4854  0.1239
  811MOL0     H 9438   1.442   8.169  12.238 -1.1612  1.5620  0.0333
  811MOL0     H 9439   1.440   8.312  12.488  0.9534  1.3166 -1.4594
  811MOL0     H 9440   1.486   8.167  12.545  1.0873  4.0513  1.5947
  811MOL0     H 9441   1.627   8.301  12.303 -1.6395 -1.4876 -0.9805
  811MOL0     H 9442   1.674   8.149  12.385 -1.3448 -1.1170  2.4991
  811MOL0     H 9443   1.811   8.298  12.497  0.7848  0.2015  1.7337
  811MOL0     H 9444   1.665   8.318  12.604  4.5083  2.5146  2.5845
  811MOL0     H 9445   1.934   8.408  12.619  0.2843 -0.3042 -1.9987
  811MOL0     H 9446   2.102   8.546  12.699  0.7952  2.2168 -0.3706
  811MOL0     H 9447   2.079   9.201  12.735 -0.7966  3.7831 -1.7470
  811MOL0     H 9448   2.229   9.405  12.707  1.3621  0.6346 -0.3710
  811MOL0     H 9449   2.365   9.560  12.643  0.4518  0.8492  0.0179
  811MOL0     H 9450   2.419   9.526  12.806 -0.4093 -0.1640  0.9259
  811MOL0     H 9451   2.662   9.587  12.737  0.8164 -0.5916 -0.7523
  811MOL0     H 9452   2.606   9.626  12.581  1.4587 -2.5167  0.7354
  811MOL0     H 9453   2.484   9.779  12.819  0.3549  2.8310  0.4255
  811MOL0     H 9454   2.637   9.825  12.746  1.0798 -1.5708 -3.0999
  811MOL0     H 9455   2.367   9.808  12.623  0.7463 -1.2692 -2.8417
  811MOL0     H 9456   2.508   9.826  12.520 -0.8983  1.4000 -0.4443
  811MOL0     H 9457   2.576  10.028  12.646  0.1360 -1.4052 -0.4309
  811MOL0     H 9458   2.420  10.011  12.744 -2.2556  0.4549 -0.9972
  811MOL0     H 9459   2.442  10.074  12.460  1.8371  2.1246  1.6246
  811MOL0     H 9460   2.288  10.032  12.551 -1.9501  3.1357  2.2251
  811MOL0     H 9461   2.320  10.243  12.685 -2.0896 -1.8928 -0.3487
  811MOL0     H 9462   2.320  10.276  12.517  1.9728  0.6262 -0.5118
  811MOL0     H 9463   2.578  10.272  12.687  0.8839 -4.5563 -1.0895
  811MOL0     H 9464   2.564  10.250  12.508  1.1109 -0.7164  1.3150
  811MOL0     H 9465   2.529   9.152  12.545  0.3276 -1.3591  0.4154
  811MOL0     H 9466   2.390   8.970  12.536  0.4422 -2.0781  3.5252
  811MOL0     H 9467   1.948   8.877  12.461  2.9547  0.0299 -1.8448
  811MOL0     H 9468   1.758   8.728  12.382  2.7138  0.4027 -2.0342
  811MOL0     H 9469   0.214   8.270  11.382 -0.8737  1.9418 -1.7979
  811MOL0     H 9470   0.204   8.125  11.184 -0.0440  0.4168 -0.5349
  811MOL0     H 9471   0.417   7.849  10.899  1.1672  6.1608 -0.4420
  811MOL0     H 9472   0.345   7.664  10.747  0.6368 -0.9752 -4.0113
  811MOL0     H 9473   0.144   7.637  10.386  3.3656  1.1012  0.7336
  811MOL0     H 9474   0.079   7.800  10.426 -2.4676 -1.5031 -2.3169
  811MOL0     H 9475  -0.116   7.683  10.396  2.5091  1.0942 -1.2775
  811MOL0     H 9476  -0.088   7.674  10.568 -3.0584  1.1976 -1.0015
  811MOL0     H 9477   0.048   7.456  10.428  0.6805  5.0394 -0.6974
  811MOL0     H 9478  -0.133   7.435  10.410 -1.6351  0.5696  2.5855
  811MOL0     H 9479  -0.170   7.439  10.635 -0.3468 -1.5006  1.5748
  811MOL0     H 9480  -0.066   7.299  10.580  1.5473 -0.3146 -0.2346
  811MOL0     H 9481   0.148   7.390  10.890 -0.3360 -1.2016 -0.1326
  811MOL0     H 9482   0.030   7.917  10.588 -1.7685 -0.3565  1.1492
  811MOL0     H 9483   0.019   8.121  10.817  0.0418 -0.4115  0.1918
  811MOL0     H 9484   0.138   8.227  10.737 -0.0303 -0.2497  3.5146
  811MOL0     H 9485   0.014   8.149  10.640 -0.3871  0.3671 -0.0100
  812MOL0     O 9486   9.490   4.444   5.959  0.6992  0.2671 -0.4047
  812MOL0     C 9487   9.548   4.551   5.962  1.1511  0.5192 -0.5464
  812MOL0     O 9488   9.671   4.576   5.913  0.0279 -0.5999 -0.0082
  812MOL0     C 9489   9.706   4.519   5.792  0.1664 -0.3460  0.3925
  812MOL0     C 9490   9.622   4.459   5.698 -0.4899 -0.3189 -0.5555
  812MOL0     C 9491   9.662   4.392   5.580  0.2941 -0.4021 -0.0613
  812MOL0     C 9492   9.799   4.380   5.554  0.4304 -0.0514 -0.2569
  812MOL0     O 9493   9.827   4.305   5.437 -0.0411  0.0839 -0.3466
  812MOL0     C 9494   9.958   4.237   5.439  0.8310  0.0946 -0.8350
  812MOL0     C 9495   9.963   4.128   5.549 -0.3305  0.0357 -0.6440
  812MOL0     C 9496  10.100   4.052   5.546  0.0690  0.0726  0.6203
  812MOL0     C 9497  10.209   4.145   5.548 -1.0275  1.0377  0.5148
  812MOL0     C 9498  10.345   4.093   5.586 -0.1777 -0.4531  0.6525
  812MOL0     C 9499  10.438   4.211   5.618  1.0112 -0.3317  0.8532
  812MOL0     C 9500  10.584   4.162   5.639  0.6719  0.0645 -0.4947
  812MOL0     C 9501  10.662   4.136   5.512 -0.0174 -0.7566 -1.0651
  812MOL0     N 9502  10.808   4.110   5.531 -0.3203  1.4002 -0.7191
  812MOL0     C 9503  10.860   3.983   5.548  0.0917  0.4058 -0.0306
  812MOL0     C 9504  10.998   4.008   5.527 -0.4321 -0.6909 -0.9122
  812MOL0     C 9505  11.108   3.905   5.532 -0.4706  0.0218 -0.2516
  812MOL0     C 9506  11.242   3.954   5.469 -0.4166  0.3669  0.2765
  812MOL0     C 9507  11.326   4.055   5.549  0.3870 -0.3917  0.5296
  812MOL0     C 9508  11.339   4.020   5.696 -0.1978  0.2009  0.5921
  812MOL0     O 9509  11.416   3.903   5.707 -0.2104  0.0803 -0.0135
  812MOL0     C 9510  11.550   3.900   5.692 -0.6986 -0.0771  0.1379
  812MOL0     C 9511  11.603   3.770   5.694 -0.9899  0.2579  0.4127
  812MOL0     C 9512  11.741   3.758   5.681 -0.3996  0.4794 -0.4322
  812MOL0     C 9513  11.821   3.870   5.655 -0.0950 -0.5428  0.5098
  812MOL0     C 9514  11.964   3.843   5.644 -0.0481 -0.6380  0.6072
  812MOL0     O 9515  12.005   3.719   5.599 -0.4740 -0.0059 -0.4110
  812MOL0     C 9516  12.138   3.697   5.584  0.4245  0.6674 -0.5411
  812MOL0     C 9517  12.185   3.643   5.461  0.1022 -0.1556 -0.0903
  812MOL0     C 9518  12.320   3.614   5.441  0.0122  0.4534 -0.2998
  812MOL0     C 9519  12.403   3.607   5.552  0.5452 -0.0223 -0.3247
  812MOL0     O 9520  12.526   3.554   5.536 -0.1616  0.0572  0.1798
  812MOL0     C 9521  12.599   3.498   5.646  0.2418  0.4976  0.1393
  812MOL0     C 9522  12.697   3.595   5.694  0.2462 -0.6655 -0.1262
  812MOL0     C 9523  12.799   3.520   5.778 -0.0939 -0.2816  0.0196
  812MOL0     C 9524  12.871   3.603   5.870  0.4302  0.3430 -0.4416
  812MOL0     C 9525  12.966   3.521   5.960  0.2830  0.5464 -0.2301
  812MOL0     C 9526  13.049   3.622   6.047  0.2170 -0.5474 -0.1698
  812MOL0     C 9527  13.147   3.537   6.126 -0.5969  0.4663  0.1675
  812MOL0     C 9528  13.242   3.612   6.219  0.4308 -0.0562  0.8161
  812MOL0    Cl 9529  13.301   3.764   6.148  0.1590  0.0654  0.2548
  812MOL0     C 9530  12.355   3.653   5.676 -0.5858  0.4395  1.2286
  812MOL0     C 9531  12.221   3.695   5.693  0.0666  0.1966  0.5414
  812MOL0     O 9532  12.038   3.934   5.682  0.0288 -0.3552  0.0399
  812MOL0     C 9533  11.764   3.986   5.625 -0.6144 -0.3814  0.1370
  812MOL0     C 9534  11.631   4.007   5.660 -0.3288  0.2778  0.4661
  812MOL0     N 9535  11.019   4.149   5.513 -0.3029  0.0571  0.2585
  812MOL0     N 9536  10.902   4.202   5.507 -0.4224  0.6688 -1.3631
  812MOL0     C 9537   9.889   4.443   5.641 -0.1619 -0.4729 -0.3086
  812MOL0     C 9538   9.845   4.515   5.749  0.5943 -0.3171  0.2666
  812MOL0     C 9539   9.488   4.666   6.039  0.3927 -0.2653 -0.1633
  812MOL0     C 9540   9.568   4.770   6.099 -0.1603 -1.0232  0.6612
  812MOL0     C 9541   9.507   4.874   6.173  0.1274 -0.2513  0.5108
  812MOL0     C 9542   9.367   4.892   6.175 -0.0420 -0.4389  0.7714
  812MOL0     O 9543   9.306   4.991   6.257 -0.0663 -0.4754 -0.1760
  812MOL0     C 9544   9.296   4.932   6.392 -0.3877 -0.2577  0.5923
  812MOL0     C 9545   9.360   5.037   6.488 -0.5434 -0.8636 -0.3345
  812MOL0     C 9546   9.394   4.968   6.631 -0.2538  1.2688  1.3158
  812MOL0     C 9547   9.430   5.058   6.738  0.9572  0.1411  0.6483
  812MOL0     C 9548   9.566   5.113   6.720 -1.2354 -0.8872 -0.5269
  812MOL0     C 9549   9.681   5.149   6.714  0.1039 -0.5937  0.3981
  812MOL0     C 9550   9.290   4.797   6.103  0.3148  0.1307 -0.5141
  812MOL0     C 9551   9.351   4.689   6.036  0.6082  0.5287  0.1764
  812MOL0     C 9552   9.257   4.619   5.936  0.1732 -0.0460 -0.1974
  812MOL0     H 9553   9.517   4.463   5.724  0.2133  0.4798  2.5384
  812MOL0     H 9554   9.582   4.349   5.521 -0.1988  1.7512 -1.0448
  812MOL0     H 9555   9.964   4.176   5.348 -1.0904  1.8341 -2.2104
  812MOL0     H 9556  10.044   4.305   5.441  0.4542  0.5842  2.1067
  812MOL0     H 9557   9.880   4.056   5.546  2.1879 -3.0433 -2.3333
  812MOL0     H 9558   9.959   4.186   5.642 -0.3830  3.4520 -2.5948
  812MOL0     H 9559  10.101   3.989   5.457  1.2719  0.2464  0.4877
  812MOL0     H 9560  10.113   3.977   5.625  1.7564  0.6204  0.9070
  812MOL0     H 9561  10.223   4.184   5.447  2.3424 -1.5657 -0.2236
  812MOL0     H 9562  10.184   4.224   5.619  1.4216  0.5894  1.9891
  812MOL0     H 9563  10.323   4.043   5.681 -1.9247  1.6119  1.4346
  812MOL0     H 9564  10.383   4.023   5.512 -1.1118  1.7179 -2.0553
  812MOL0     H 9565  10.426   4.289   5.542 -0.5453 -2.7038 -1.5138
  812MOL0     H 9566  10.401   4.250   5.713 -0.1563 -1.7790  1.0365
  812MOL0     H 9567  10.586   4.072   5.701  0.5827 -2.9240 -4.5162
  812MOL0     H 9568  10.638   4.240   5.694  0.1848 -0.9360  1.4906
  812MOL0     H 9569  10.620   4.054   5.453  2.0903 -1.7825 -1.2550
  812MOL0     H 9570  10.653   4.228   5.453  0.4876  0.9817  1.4377
  812MOL0     H 9571  10.818   3.885   5.571 -1.4334  1.0011 -0.1851
  812MOL0     H 9572  11.113   3.876   5.637 -1.0454 -2.6343 -0.8915
  812MOL0     H 9573  11.080   3.819   5.470 -2.6995  0.1301  0.5034
  812MOL0     H 9574  11.306   3.868   5.449  0.1374  1.0391 -1.0017
  812MOL0     H 9575  11.218   3.998   5.371  1.5751 -1.1230 -0.9456
  812MOL0     H 9576  11.291   4.156   5.529  0.2213 -0.6865 -0.7551
  812MOL0     H 9577  11.419   4.050   5.493  0.3348  2.3563  0.0814
  812MOL0     H 9578  11.242   4.002   5.743 -0.7250 -1.9167 -1.1076
  812MOL0     H 9579  11.380   4.109   5.743 -0.9689  1.8626 -1.7320
  812MOL0     H 9580  11.545   3.678   5.700  0.6249 -0.9802 -1.4347
  812MOL0     H 9581  11.787   3.663   5.702 -1.1057  0.1960 -0.1304
  812MOL0     H 9582  12.121   3.630   5.374  0.6314  0.2835 -0.5570
  812MOL0     H 9583  12.363   3.579   5.348 -0.0458  1.8481 -0.8769
  812MOL0     H 9584  12.523   3.462   5.716 -0.2028 -1.2041 -1.1509
  812MOL0     H 9585  12.650   3.406   5.615 -0.3887 -0.9825  3.1184
  812MOL0     H 9586  12.752   3.646   5.615  1.1728  1.3496  1.7219
  812MOL0     H 9587  12.643   3.672   5.749 -1.0158 -0.2436 -1.8736
  812MOL0     H 9588  12.746   3.454   5.847 -1.3599  0.6743  0.0129
  812MOL0     H 9589  12.867   3.466   5.711 -0.2884  0.0511 -0.4536
  812MOL0     H 9590  12.802   3.661   5.932  2.2644  3.8853 -1.4437
  812MOL0     H 9591  12.930   3.674   5.811  3.4652 -1.1524  0.5591
  812MOL0     H 9592  13.033   3.463   5.896  0.6315 -0.2444  0.8327
  812MOL0     H 9593  12.909   3.449   6.018 -0.0131 -0.2446 -1.4616
  812MOL0     H 9594  13.104   3.688   5.979  0.9388 -0.8963  0.0718
  812MOL0     H 9595  12.975   3.672   6.110  0.4461  0.3740 -0.6124
  812MOL0     H 9596  13.201   3.481   6.049 -0.1891  3.2686 -1.7444
  812MOL0     H 9597  13.095   3.464   6.188  3.9199 -2.6715  0.7012
  812MOL0     H 9598  13.186   3.641   6.309 -2.1721 -2.6330  0.1567
  812MOL0     H 9599  13.323   3.544   6.248  0.2607 -0.7354 -0.2636
  812MOL0     H 9600  12.408   3.672   5.768 -0.5579 -0.4452  1.4023
  812MOL0     H 9601  12.187   3.736   5.787 -0.7538  0.2604  0.2262
  812MOL0     H 9602  11.813   4.073   5.583 -1.6001 -0.7247 -1.8372
  812MOL0     H 9603  11.595   4.108   5.646 -2.4735 -0.7490 -2.3008
  812MOL0     H 9604   9.995   4.454   5.623  0.1734 -0.7198  1.3936
  812MOL0     H 9605   9.918   4.551   5.820 -0.9803 -0.1674  1.9054
  812MOL0     H 9606   9.675   4.770   6.084  0.1838 -1.1257  2.8257
  812MOL0     H 9607   9.575   4.936   6.231  1.0476 -0.4286 -0.3479
  812MOL0     H 9608   9.329   4.829   6.408 -1.8950 -1.4845 -3.1211
  812MOL0     H 9609   9.190   4.929   6.416 -1.1112  2.4099 -1.7670
  812MOL0     H 9610   9.288   5.116   6.512  2.6610  2.7658 -1.6933
  812MOL0     H 9611   9.453   5.081   6.450 -0.3500 -2.1700 -1.4428
  812MOL0     H 9612   9.479   4.903   6.608 -0.3927  1.5854 -0.2053
  812MOL0     H 9613   9.302   4.912   6.650  0.5849 -0.7603 -0.1454
  812MOL0     H 9614   9.354   5.136   6.737 -2.0314 -2.5476 -1.6547
  812MOL0     H 9615   9.427   5.013   6.838  1.9247 -1.0833  0.1564
  812MOL0     H 9616   9.781   5.186   6.699  0.4196 -1.3670  0.5558
  812MOL0     H 9617   9.183   4.816   6.101  0.2942  0.0867 -0.0931
  812MOL0     H 9618   9.217   4.530   5.986 -1.6050  0.5138 -0.5513
  812MOL0     H 9619   9.173   4.683   5.906 -0.8166  0.0771  2.5129
  812MOL0     H 9620   9.305   4.576   5.848 -1.3537 -2.4203  0.0355
  813MOL0     O 9621   2.120   7.518  10.607 -0.0633  0.0270 -0.5129
  813MOL0     C 9622   2.145   7.448  10.703  0.2347  0.2244  0.2682
  813MOL0     O 9623   2.266   7.445  10.773 -0.5308  0.8362 -0.4056
  813MOL0     C 9624   2.374   7.532  10.759  1.2785 -0.1998  0.6493
  813MOL0     C 9625   2.371   7.655  10.689  0.3760 -1.0146 -0.2342
  813MOL0     C 9626   2.485   7.733  10.683 -0.6553 -0.0485 -0.3811
  813MOL0     C 9627   2.604   7.690  10.722  0.2945 -0.4537  0.3259
  813MOL0     O 9628   2.712   7.774  10.717 -0.3021  0.0247  0.2781
  813MOL0     C 9629   2.787   7.741  10.595  0.3709 -0.8415  0.2017
  813MOL0     C 9630   2.916   7.821  10.605 -0.4855 -0.0439  0.4553
  813MOL0     C 9631   3.012   7.776  10.499 -0.0847  0.0733 -0.1033
  813MOL0     C 9632   3.112   7.884  10.467 -0.3208  0.3271 -0.7335
  813MOL0     C 9633   3.198   7.829  10.348 -0.5177  0.0994  1.0625
  813MOL0     C 9634   3.300   7.929  10.319 -0.1417 -1.4384 -0.4367
  813MOL0     C 9635   3.368   7.909  10.182 -0.3463  0.6144  0.2259
  813MOL0     C 9636   3.515   7.937  10.190  0.3106  0.4749  0.7717
  813MOL0     N 9637   3.576   7.936  10.051 -0.1693  0.2756  0.4436
  813MOL0     C 9638   3.537   7.862   9.937  0.5364 -0.2934  0.7141
  813MOL0     C 9639   3.602   7.929   9.839 -0.3210  0.1002  0.2083
  813MOL0     C 9640   3.585   7.894   9.693  0.1020 -0.2936 -0.2541
  813MOL0     C 9641   3.711   7.896   9.602 -0.6037 -0.1357  0.6474
  813MOL0     C 9642   3.698   7.843   9.461  0.3465 -0.3488 -0.9383
  813MOL0     C 9643   3.811   7.766   9.418 -0.6040  0.0275 -0.5942
  813MOL0     O 9644   3.930   7.853   9.410 -0.3971  0.2706 -0.1539
  813MOL0     C 9645   3.959   7.911   9.291 -0.1424  0.4302  0.7947
  813MOL0     C 9646   3.862   7.918   9.182 -0.7161 -0.5259  0.6460
  813MOL0     C 9647   3.896   7.988   9.061 -0.5712 -0.1748  0.0973
  813MOL0     C 9648   4.026   8.055   9.052  0.5693  0.2315 -0.7577
  813MOL0     C 9649   4.059   8.140   8.936 -0.2487 -0.1574 -0.6367
  813MOL0     O 9650   4.178   8.203   8.946  1.1871  0.1994 -0.3796
  813MOL0     C 9651   4.228   8.277   8.843  0.2724  0.3580  0.1018
  813MOL0     C 9652   4.156   8.376   8.771  0.0185  0.2285 -0.1148
  813MOL0     C 9653   4.219   8.459   8.681 -0.0725 -0.4066  0.5302
  813MOL0     C 9654   4.353   8.430   8.648  0.6261 -0.1108  1.0689
  813MOL0     O 9655   4.433   8.485   8.547 -1.3394  0.4550  0.8740
  813MOL0     C 9656   4.356   8.557   8.451  0.2491 -0.1996  0.3496
  813MOL0     C 9657   4.453   8.603   8.338  0.3233  0.3703 -0.0564
  813MOL0     C 9658   4.566   8.504   8.311  0.1814  0.0188  0.4959
  813MOL0     C 9659   4.633   8.539   8.182 -0.1260 -0.3671 -0.5490
  813MOL0     C 9660   4.554   8.513   8.052  0.3936  0.5561 -0.8868
  813MOL0     C 9661   4.644   8.456   7.940  0.7367  0.1884  0.1512
  813MOL0     C 9662   4.600   8.523   7.812 -0.2789  0.0677 -0.1365
  813MOL0     C 9663   4.675   8.453   7.701  0.4006  0.4221  0.5246
  813MOL0    Cl 9664   4.655   8.557   7.554 -0.2624 -0.3989 -0.2870
  813MOL0     C 9665   4.416   8.323   8.713  0.5152  0.0093  0.2343
  813MOL0     C 9666   4.363   8.257   8.822  0.1678  0.3351  0.3007
  813MOL0     O 9667   3.973   8.156   8.844 -0.5612 -0.4187 -0.0075
  813MOL0     C 9668   4.115   8.043   9.159 -0.0875 -0.2065  0.7166
  813MOL0     C 9669   4.082   7.975   9.270  0.1381  0.2813 -0.3357
  813MOL0     N 9670   3.683   8.024   9.894  0.1943 -0.6267 -0.1897
  813MOL0     N 9671   3.658   8.036  10.013  0.5684  0.6728  0.0304
  813MOL0     C 9672   2.609   7.569  10.785  0.0262 -0.0961  0.4410
  813MOL0     C 9673   2.496   7.487  10.799  0.2301 -0.2779  0.2974
  813MOL0     C 9674   2.038   7.366  10.758 -0.6285  0.4624 -0.3943
  813MOL0     C 9675   2.031   7.353  10.901  0.0270  0.4688  0.2006
  813MOL0     C 9676   1.916   7.302  10.959 -0.2131 -0.3086 -0.2173
  813MOL0     C 9677   1.813   7.246  10.890 -0.3618  0.1363  0.0889
  813MOL0     O 9678   1.705   7.207  10.965  0.7180  0.1121  0.3217
  813MOL0     C 9679   1.611   7.120  10.907 -0.0497 -0.2990 -0.0184
  813MOL0     C 9680   1.539   7.032  11.014 -0.3034  0.0437 -0.4935
  813MOL0     C 9681   1.429   6.955  10.944  0.1828  0.9565 -0.4751
  813MOL0     C 9682   1.348   6.880  11.051  0.0758  0.2540  0.7855
  813MOL0     C 9683   1.281   6.775  10.971  0.5933  0.2264 -0.0775
  813MOL0     C 9684   1.214   6.691  10.911 -0.8171 -0.2318  0.3945
  813MOL0     C 9685   1.822   7.249  10.750  0.3304  0.3442 -0.7596
  813MOL0     C 9686   1.933   7.303  10.685  0.8450 -0.2468  1.0030
  813MOL0     C 9687   1.925   7.328  10.539  1.2120 -0.3313 -0.2519
  813MOL0     H 9688   2.280   7.706  10.659  0.8075 -0.2630 -0.2888
  813MOL0     H 9689   2.479   7.838  10.659 -0.7568  0.0107 -0.1036
  813MOL0     H 9690   2.800   7.632  10.589 -0.5993 -0.8939 -2.0830
  813MOL0     H 9691   2.721   7.783  10.518 -0.4547  2.0682  2.3399
  813MOL0     H 9692   2.966   7.816  10.703  1.9203  0.4253 -0.6785
  813MOL0     H 9693   2.896   7.927  10.583  2.4498  0.8411  1.5072
  813MOL0     H 9694   2.956   7.759  10.407 -2.1553  2.4087  0.6091
  813MOL0     H 9695   3.064   7.685  10.528  0.9211  0.7310  0.2217
  813MOL0     H 9696   3.058   7.976  10.444  1.9984  2.5884  2.1824
  813MOL0     H 9697   3.179   7.910  10.549  0.6908 -1.9362 -0.7649
  813MOL0     H 9698   3.252   7.737  10.374  0.9071  0.2713 -1.0508
  813MOL0     H 9699   3.129   7.825  10.263 -2.1549  2.9525  2.1034
  813MOL0     H 9700   3.250   8.025  10.333  0.3215 -1.6395  4.3621
  813MOL0     H 9701   3.375   7.920  10.399 -2.2306 -1.5570  1.5979
  813MOL0     H 9702   3.326   7.972  10.103  1.3250  2.3153  0.6306
  813MOL0     H 9703   3.360   7.807  10.145 -0.0569  1.1003 -1.2506
  813MOL0     H 9704   3.542   8.030  10.240 -0.1952  1.6693 -1.0533
  813MOL0     H 9705   3.556   7.859  10.254  0.4361  1.8341  2.4030
  813MOL0     H 9706   3.455   7.791   9.929 -0.9150  1.3050  0.7888
  813MOL0     H 9707   3.523   7.804   9.683 -0.2742 -0.1809  0.8440
  813MOL0     H 9708   3.522   7.973   9.651 -0.3332  1.3138  3.1060
  813MOL0     H 9709   3.758   7.995   9.603 -2.6802  0.9226 -0.1890
  813MOL0     H 9710   3.786   7.834   9.652 -0.1975  0.8359  1.2746
  813MOL0     H 9711   3.677   7.928   9.396  1.5503  1.5851  1.0404
  813MOL0     H 9712   3.612   7.775   9.456 -0.6511  0.3051  3.0959
  813MOL0     H 9713   3.778   7.715   9.327  0.3233 -1.0434 -0.3517
  813MOL0     H 9714   3.830   7.687   9.491 -1.0229 -1.1020 -1.6798
  813MOL0     H 9715   3.763   7.874   9.171 -0.7900 -0.1211 -0.3890
  813MOL0     H 9716   3.824   8.005   8.981 -0.8264  2.2253  0.7606
  813MOL0     H 9717   4.050   8.385   8.793  0.7755  3.6491  3.3557
  813MOL0     H 9718   4.180   8.549   8.634  2.3048  0.4640  0.0849
  813MOL0     H 9719   4.274   8.491   8.419 -2.1606  0.8359  3.7897
  813MOL0     H 9720   4.309   8.648   8.490  0.6916  0.1926 -0.0369
  813MOL0     H 9721   4.392   8.620   8.249 -1.5886 -0.8765  0.9160
  813MOL0     H 9722   4.492   8.702   8.361  0.0263  0.5664 -0.3845
  813MOL0     H 9723   4.645   8.516   8.386 -0.0481  2.3224  0.4515
  813MOL0     H 9724   4.535   8.399   8.309  1.4021 -0.3494 -0.1367
  813MOL0     H 9725   4.717   8.468   8.184  0.7185  0.6102 -0.7040
  813MOL0     H 9726   4.674   8.640   8.181  1.0823 -0.7086  2.5856
  813MOL0     H 9727   4.497   8.602   8.024 -1.2814 -0.6358 -1.4506
  813MOL0     H 9728   4.484   8.430   8.070 -0.4339  2.0265  4.0215
  813MOL0     H 9729   4.747   8.491   7.955  0.5960 -0.2724  2.7587
  813MOL0     H 9730   4.646   8.347   7.935 -1.5563  0.0693  0.8007
  813MOL0     H 9731   4.627   8.629   7.814  1.0381 -0.2458 -0.5247
  813MOL0     H 9732   4.491   8.517   7.801 -0.1919 -1.9595 -0.1937
  813MOL0     H 9733   4.779   8.432   7.726 -0.0059 -1.9673  0.3951
  813MOL0     H 9734   4.623   8.359   7.684  0.1880  0.4486  1.0122
  813MOL0     H 9735   4.512   8.300   8.668 -0.4584 -1.6089 -1.1625
  813MOL0     H 9736   4.422   8.185   8.878  1.5808 -2.2417 -4.0089
  813MOL0     H 9737   4.215   8.083   9.147  0.0252 -1.1508 -2.3299
  813MOL0     H 9738   4.154   7.978   9.351  3.2925 -0.9340 -2.9151
  813MOL0     H 9739   2.702   7.537  10.831  1.3548  1.4656 -1.0556
  813MOL0     H 9740   2.498   7.390  10.848  0.0162  0.0158  0.8959
  813MOL0     H 9741   2.098   7.422  10.953 -0.8267  2.2426 -0.9669
  813MOL0     H 9742   1.908   7.314  11.067  5.0499 -0.1778  0.4543
  813MOL0     H 9743   1.661   7.051  10.838 -0.2363 -0.5454  0.0916
  813MOL0     H 9744   1.538   7.182  10.856  0.7881  0.3136 -0.5037
  813MOL0     H 9745   1.494   7.090  11.095 -0.5415 -0.9350  0.0914
  813MOL0     H 9746   1.606   6.961  11.063 -0.0045  1.0136  0.5437
  813MOL0     H 9747   1.480   6.888  10.874  2.6493  2.3938 -0.1501
  813MOL0     H 9748   1.367   7.015  10.877  1.7587  0.9285 -2.0202
  813MOL0     H 9749   1.414   6.837  11.127  0.2959  1.3331  1.2393
  813MOL0     H 9750   1.280   6.939  11.114 -0.2764 -0.8161  1.4241
  813MOL0     H 9751   1.173   6.606  10.860  1.1626 -0.6020 -0.7250
  813MOL0     H 9752   1.739   7.216  10.688  0.1340  2.3272 -1.6576
  813MOL0     H 9753   1.861   7.261  10.481  0.0468  0.9142 -0.4596
  813MOL0     H 9754   1.890   7.431  10.530  1.4510 -0.3435 -1.4183
  813MOL0     H 9755   2.026   7.318  10.498  2.5555 -0.0923  2.7471
  814MOL0     O 9756   3.654   8.392   4.218  0.0191  0.2940 -0.5844
  814MOL0     C 9757   3.707   8.280   4.231  0.4883  0.3824 -0.0835
  814MOL0     O 9758   3.790   8.216   4.139 -0.2612 -0.5316  0.4746
  814MOL0     C 9759   3.806   8.272   4.011 -0.5811  0.2847 -0.4451
  814MOL0     C 9760   3.706   8.306   3.925  0.4057  0.0796  0.2646
  814MOL0     C 9761   3.734   8.327   3.782 -0.4116 -0.3720 -0.4401
  814MOL0     C 9762   3.868   8.331   3.743  0.3176  0.1093  0.3130
  814MOL0     O 9763   3.899   8.363   3.608  0.1891  0.4580  0.2618
  814MOL0     C 9764   3.801   8.322   3.509 -0.0098 -0.4683  0.1540
  814MOL0     C 9765   3.871   8.307   3.380 -1.1308 -1.0039 -0.1164
  814MOL0     C 9766   3.979   8.200   3.391 -0.2261 -0.0677 -0.6834
  814MOL0     C 9767   4.032   8.190   3.250  0.4705 -0.3460  0.7298
  814MOL0     C 9768   4.169   8.124   3.256 -0.1721 -0.0178  0.1404
  814MOL0     C 9769   4.223   8.092   3.113 -0.9226  0.3338 -0.4144
  814MOL0     C 9770   4.342   7.998   3.120  0.3245 -0.7366 -0.9234
  814MOL0     C 9771   4.288   7.853   3.115  0.0973  0.3428  0.3525
  814MOL0     N 9772   4.388   7.750   3.142  0.4906  0.2527 -0.4526
  814MOL0     C 9773   4.471   7.680   3.055  0.3797  0.1477  0.0398
  814MOL0     C 9774   4.557   7.607   3.133 -0.9983  0.3682 -0.8382
  814MOL0     C 9775   4.668   7.523   3.076  0.6860 -1.1059 -0.2016
  814MOL0     C 9776   4.664   7.381   3.132  0.1406  0.9169 -0.4399
  814MOL0     C 9777   4.739   7.272   3.044  0.1321 -0.4043 -0.2975
  814MOL0     C 9778   4.889   7.289   3.042  0.6120  0.4695  0.7928
  814MOL0     O 9779   4.959   7.197   2.953 -0.3434 -0.3098  0.5243
  814MOL0     C 9780   5.083   7.228   2.913  0.6446  0.3171  0.3532
  814MOL0     C 9781   5.122   7.218   2.777  1.1462 -0.0276 -0.2273
  814MOL0     C 9782   5.258   7.230   2.741 -0.4042  0.0321  0.3882
  814MOL0     C 9783   5.358   7.239   2.836 -0.7041 -0.2551  0.3346
  814MOL0     C 9784   5.499   7.259   2.804  0.6586 -0.0805  1.3004
  814MOL0     O 9785   5.590   7.324   2.889 -0.1579  0.2228 -0.0252
  814MOL0     C 9786   5.720   7.325   2.845 -0.9311 -0.7982 -0.3493
  814MOL0     C 9787   5.766   7.401   2.747  0.4629 -0.3866  0.2956
  814MOL0     C 9788   5.902   7.405   2.708  0.8916 -0.4577  0.1302
  814MOL0     C 9789   5.992   7.331   2.788  0.5067 -0.0394 -0.1356
  814MOL0     O 9790   6.132   7.322   2.778  0.1553 -0.7204 -0.9625
  814MOL0     C 9791   6.187   7.421   2.694 -0.1727  0.0287 -0.2674
  814MOL0     C 9792   6.341   7.405   2.682 -0.0256 -0.1286  0.4184
  814MOL0     C 9793   6.405   7.292   2.589  0.5219  0.0621 -0.1540
  814MOL0     C 9794   6.386   7.150   2.639  0.2553  0.0109 -0.4960
  814MOL0     C 9795   6.410   7.045   2.531 -0.2792 -0.8645  0.3473
  814MOL0     C 9796   6.475   6.916   2.582 -0.8542  0.1674  0.2855
  814MOL0     C 9797   6.626   6.920   2.627  1.2115 -0.3726  0.8413
  814MOL0     C 9798   6.659   6.804   2.712 -0.2605  0.0926 -0.5473
  814MOL0    Cl 9799   6.613   6.652   2.627 -0.5986  0.0587  0.1229
  814MOL0     C 9800   5.944   7.248   2.890 -0.1913  0.0301  0.5142
  814MOL0     C 9801   5.810   7.253   2.923 -0.4209 -0.0838  0.0165
  814MOL0     O 9802   5.522   7.216   2.689 -0.1278 -0.9697  0.4362
  814MOL0     C 9803   5.319   7.250   2.971 -0.0311  1.3555  0.9962
  814MOL0     C 9804   5.186   7.234   3.008  0.1312  0.0364  0.2332
  814MOL0     N 9805   4.528   7.626   3.269 -0.0686  0.6112  0.4112
  814MOL0     N 9806   4.429   7.713   3.267  0.5201 -0.3688 -0.5153
  814MOL0     C 9807   3.974   8.320   3.831  0.4425  0.0918  0.0876
  814MOL0     C 9808   3.940   8.287   3.967  0.2993 -1.0086  0.0954
  814MOL0     C 9809   3.664   8.209   4.350  0.0653  0.0494 -0.4419
  814MOL0     C 9810   3.636   8.286   4.471 -0.3620 -0.3576  0.1232
  814MOL0     C 9811   3.608   8.216   4.586 -0.4678  0.1770 -1.0491
  814MOL0     C 9812   3.564   8.089   4.584  0.5040  0.1923 -0.2222
  814MOL0     O 9813   3.508   8.032   4.690 -1.3623  0.0845  0.1016
  814MOL0     C 9814   3.405   8.094   4.760  0.8133 -0.2928  0.3125
  814MOL0     C 9815   3.456   8.136   4.894  0.5856  0.4437 -0.6442
  814MOL0     C 9816   3.343   8.185   4.986 -0.4387  0.4230 -0.3585
  814MOL0     C 9817   3.400   8.211   5.129  0.1210 -0.1098 -0.2698
  814MOL0     C 9818   3.285   8.210   5.220 -0.3443 -0.0711 -0.1433
  814MOL0     C 9819   3.184   8.203   5.288 -0.2030 -0.6660 -0.2871
  814MOL0     C 9820   3.575   8.020   4.466  0.2403  0.3215  0.5833
  814MOL0     C 9821   3.635   8.071   4.352 -0.5544 -0.3029  0.4196
  814MOL0     C 9822   3.644   7.987   4.233  0.1108  0.6679 -0.2716
  814MOL0     H 9823   3.601   8.295   3.950  0.3535 -2.0040 -0.6776
  814MOL0     H 9824   3.654   8.360   3.716  1.0249  3.7026 -0.4225
  814MOL0     H 9825   3.746   8.231   3.535 -0.6855 -0.1158 -0.0066
  814MOL0     H 9826   3.726   8.400   3.490  1.1061  0.2698 -1.4671
  814MOL0     H 9827   3.914   8.402   3.347  0.5403 -0.9745  1.9318
  814MOL0     H 9828   3.800   8.275   3.303 -1.7914  1.3828 -0.5818
  814MOL0     H 9829   3.936   8.107   3.431 -2.3724  0.8955 -0.6172
  814MOL0     H 9830   4.060   8.226   3.459  1.4364  1.2696 -3.0365
  814MOL0     H 9831   3.966   8.123   3.194  0.5450  0.0339  0.1674
  814MOL0     H 9832   4.033   8.285   3.195 -3.7611 -0.7091 -0.2776
  814MOL0     H 9833   4.237   8.198   3.299 -2.1286  2.8153 -1.3295
  814MOL0     H 9834   4.159   8.030   3.312 -0.7230 -0.0612 -0.0209
  814MOL0     H 9835   4.146   8.054   3.045  0.3183 -0.5700 -1.3646
  814MOL0     H 9836   4.269   8.183   3.074  2.0852 -0.7639  0.2779
  814MOL0     H 9837   4.388   8.015   3.217  0.0135 -0.5649 -0.8047
  814MOL0     H 9838   4.411   8.017   3.038  3.4244 -1.9539  1.2299
  814MOL0     H 9839   4.209   7.833   3.189  1.2466  1.3107  1.8936
  814MOL0     H 9840   4.247   7.860   3.014  1.4873  3.7936 -0.0879
  814MOL0     H 9841   4.463   7.686   2.946 -2.1456 -0.0116  0.1672
  814MOL0     H 9842   4.651   7.525   2.968 -0.4602  0.0366 -0.0248
  814MOL0     H 9843   4.770   7.560   3.094 -0.1385  2.8400 -2.4436
  814MOL0     H 9844   4.723   7.394   3.223  0.5975 -0.1694 -0.5631
  814MOL0     H 9845   4.565   7.349   3.165  0.5752  1.3705  1.4499
  814MOL0     H 9846   4.689   7.272   2.947 -0.8054  0.6651  0.1650
  814MOL0     H 9847   4.712   7.177   3.091 -2.3965 -1.4014 -3.4052
  814MOL0     H 9848   4.930   7.285   3.143  1.0870 -1.4277  0.5629
  814MOL0     H 9849   4.900   7.388   2.998  1.5984  0.2549  0.5362
  814MOL0     H 9850   5.044   7.211   2.701  0.2458 -0.4379  0.7157
  814MOL0     H 9851   5.292   7.231   2.638  1.8651  2.1032  1.0647
  814MOL0     H 9852   5.690   7.447   2.684 -0.6535 -1.9651  0.4622
  814MOL0     H 9853   5.927   7.471   2.626 -2.0169  0.1250 -0.4194
  814MOL0     H 9854   6.144   7.428   2.593  0.3603  3.7026 -0.3727
  814MOL0     H 9855   6.165   7.514   2.746 -0.3453  0.6234 -1.3739
  814MOL0     H 9856   6.368   7.502   2.640 -1.4304  0.7032  1.3749
  814MOL0     H 9857   6.391   7.396   2.779 -1.3217 -1.9654  0.9723
  814MOL0     H 9858   6.361   7.294   2.488 -0.2897 -3.1799  0.0369
  814MOL0     H 9859   6.509   7.323   2.582 -0.1891  2.6899 -0.3650
  814MOL0     H 9860   6.286   7.133   2.679  0.4855 -1.3876 -0.4934
  814MOL0     H 9861   6.459   7.148   2.720  0.1997  0.5364 -0.4262
  814MOL0     H 9862   6.473   7.096   2.458  0.1181  2.1645  2.5937
  814MOL0     H 9863   6.325   7.011   2.472  0.7594  0.2365 -1.8785
  814MOL0     H 9864   6.411   6.881   2.663 -1.3220 -3.1772 -1.3520
  814MOL0     H 9865   6.461   6.843   2.501 -1.3622  0.3776  0.1762
  814MOL0     H 9866   6.651   7.013   2.678 -0.1771 -0.7023  2.2076
  814MOL0     H 9867   6.676   6.924   2.530  0.5469  1.9305  0.5491
  814MOL0     H 9868   6.766   6.802   2.738 -0.1969  0.2619 -0.7954
  814MOL0     H 9869   6.618   6.807   2.814  1.7282 -2.8801  0.4805
  814MOL0     H 9870   6.019   7.190   2.943  0.7374  0.1946 -0.5843
  814MOL0     H 9871   5.762   7.206   3.008  0.1533  0.9236  0.9291
  814MOL0     H 9872   5.410   7.264   3.029  0.1528  2.3465  0.4881
  814MOL0     H 9873   5.158   7.218   3.111 -1.7272  3.3949  0.3754
  814MOL0     H 9874   4.077   8.325   3.797 -0.4215  1.6773 -2.6486
  814MOL0     H 9875   4.022   8.283   4.038  0.8954  0.1467 -0.4954
  814MOL0     H 9876   3.659   8.392   4.469  2.9370 -0.9722 -1.0985
  814MOL0     H 9877   3.598   8.266   4.682  0.4201 -1.0347 -0.3019
  814MOL0     H 9878   3.323   8.023   4.773  2.4951 -2.5223 -0.7530
  814MOL0     H 9879   3.365   8.173   4.696 -0.6818 -1.7935 -0.6796
  814MOL0     H 9880   3.532   8.214   4.889 -0.8437  2.1324  1.9073
  814MOL0     H 9881   3.495   8.042   4.935 -1.6571  0.1118  0.8854
  814MOL0     H 9882   3.264   8.110   4.986 -1.0122  0.7841  4.0530
  814MOL0     H 9883   3.296   8.279   4.954 -1.1270  0.4814  0.7881
  814MOL0     H 9884   3.484   8.154   5.169 -0.4395 -0.0500  1.0455
  814MOL0     H 9885   3.434   8.314   5.141  0.7597 -0.4750  1.2552
  814MOL0     H 9886   3.107   8.189   5.360 -0.2217  1.2236  0.1101
  814MOL0     H 9887   3.535   7.920   4.467 -0.3385  0.2718 -3.9661
  814MOL0     H 9888   3.582   7.899   4.250  1.0095  0.5329  2.8140
  814MOL0     H 9889   3.600   8.039   4.147 -1.1964  0.2011  0.0907
  814MOL0     H 9890   3.744   7.952   4.205 -0.7375 -1.6016 -0.6945
  815MOL0     O 9891  10.330  10.437   7.864 -0.0858  0.0763 -0.4377
  815MOL0     C 9892  10.439  10.407   7.822  0.3168 -0.1714  0.9207
  815MOL0     O 9893  10.464  10.308   7.735  0.6337  0.0492 -0.5802
  815MOL0     C 9894  10.369  10.214   7.717  0.3361 -0.1371  0.1974
  815MOL0     C 9895  10.300  10.216   7.598  0.8090 -0.6552 -0.0608
  815MOL0     C 9896  10.198  10.120   7.567 -0.2263  0.6809 -0.0243
  815MOL0     C 9897  10.158  10.037   7.667  0.2579 -0.4985 -0.6376
  815MOL0     O 9898  10.065   9.939   7.637 -0.6140  0.9855 -0.6752
  815MOL0     C 9899  10.008   9.845   7.736  0.3807 -0.1462 -0.2702
  815MOL0     C 9900   9.901   9.750   7.677  0.3311 -1.2039  0.3155
  815MOL0     C 9901   9.988   9.649   7.607 -0.0192 -0.3353 -0.4327
  815MOL0     C 9902   9.906   9.556   7.525  0.4753  0.1279 -0.3924
  815MOL0     C 9903   9.994   9.438   7.479 -0.0519 -0.7410 -0.3556
  815MOL0     C 9904   9.998   9.327   7.590 -0.1553 -0.0763  0.2084
  815MOL0     C 9905  10.097   9.221   7.546 -0.4284 -0.1808  0.0071
  815MOL0     C 9906  10.063   9.141   7.428  0.8845  0.2402  0.8553
  815MOL0     N 9907  10.173   9.053   7.384  1.1270  0.1546  0.4762
  815MOL0     C 9908  10.280   9.089   7.309 -0.0228  0.1102 -0.4218
  815MOL0     C 9909  10.339   8.970   7.281  0.4969 -0.1214 -0.9742
  815MOL0     C 9910  10.468   8.944   7.209 -0.3262  0.1369  0.1888
  815MOL0     C 9911  10.576   9.026   7.275  0.1285  0.0390 -0.3927
  815MOL0     C 9912  10.718   8.988   7.229  1.3131 -0.2398  0.0719
  815MOL0     C 9913  10.838   9.066   7.290 -0.1177  0.8877 -0.5414
  815MOL0     O 9914  10.843   9.059   7.430  0.2028 -0.4274 -0.1542
  815MOL0     C 9915  10.958   9.099   7.498 -0.5620  0.3910 -0.1783
  815MOL0     C 9916  10.959   9.076   7.635  0.2100  0.2343 -0.3224
  815MOL0     C 9917  11.064   9.128   7.721 -0.0504  0.3848  0.4397
  815MOL0     C 9918  11.177   9.188   7.661 -0.2604 -0.4083  0.7207
  815MOL0     C 9919  11.296   9.233   7.732  0.2480 -0.3373 -0.2688
  815MOL0     O 9920  11.321   9.165   7.849 -0.5645  0.0644 -0.2379
  815MOL0     C 9921  11.443   9.177   7.912 -0.4380 -0.0912 -0.0863
  815MOL0     C 9922  11.522   9.298   7.931  0.0515  0.4956 -0.6426
  815MOL0     C 9923  11.637   9.300   8.010  0.1281 -1.0160  0.6082
  815MOL0     C 9924  11.694   9.185   8.061  0.5276  0.3283 -0.3882
  815MOL0     O 9925  11.799   9.175   8.143  0.6321  0.2342  0.0327
  815MOL0     C 9926  11.903   9.268   8.124  0.6563 -0.0849 -0.4133
  815MOL0     C 9927  11.992   9.265   8.246  0.0537  0.5706 -0.5811
  815MOL0     C 9928  12.111   9.358   8.241  0.1739  0.5163 -0.2451
  815MOL0     C 9929  12.192   9.348   8.364 -0.9223 -0.0938  0.2002
  815MOL0     C 9930  12.342   9.370   8.334  0.8607 -0.4469 -1.0015
  815MOL0     C 9931  12.419   9.356   8.463 -0.5679  0.2372  0.3436
  815MOL0     C 9932  12.569   9.383   8.422 -0.8032 -0.0925  0.6038
  815MOL0     C 9933  12.667   9.347   8.530  0.0284 -0.5685 -0.4549
  815MOL0    Cl 9934  12.649   9.181   8.553  0.0981  0.0075 -0.1306
  815MOL0     C 9935  11.631   9.068   8.027 -0.0841  0.1217 -0.0018
  815MOL0     C 9936  11.503   9.059   7.961 -1.1195  0.0417  0.1354
  815MOL0     O 9937  11.367   9.320   7.675 -0.0295 -0.3601  0.0843
  815MOL0     C 9938  11.182   9.196   7.520  0.6700  0.0661  0.3606
  815MOL0     C 9939  11.077   9.144   7.439 -0.4903 -0.3373  0.1505
  815MOL0     N 9940  10.275   8.869   7.346  0.2231  0.0326 -0.3726
  815MOL0     N 9941  10.170   8.918   7.399  0.9981 -0.6380 -0.1874
  815MOL0     C 9942  10.219  10.039   7.796 -0.0576  0.6990  0.2277
  815MOL0     C 9943  10.327  10.132   7.821  0.3522  0.2463 -0.3568
  815MOL0     C 9944  10.553  10.490   7.866  0.1183  0.2106 -0.4155
  815MOL0     C 9945  10.681  10.422   7.883  0.5372  0.5610 -0.0787
  815MOL0     C 9946  10.789  10.498   7.902 -0.1195  0.0234  0.9893
  815MOL0     C 9947  10.788  10.639   7.916  0.2794 -0.3792  0.3239
  815MOL0     O 9948  10.901  10.717   7.943  0.7106  0.2343 -0.4143
  815MOL0     C 9949  11.030  10.664   7.975  0.5839  0.7630  0.6174
  815MOL0     C 9950  11.096  10.777   8.057  0.3568  0.4852 -1.2854
  815MOL0     C 9951  11.104  10.911   7.990  0.1740 -0.2383 -0.1585
  815MOL0     C 9952  11.236  10.973   7.978 -0.9017 -0.1928  0.0846
  815MOL0     C 9953  11.283  11.029   8.106  0.3607  0.2252  0.2029
  815MOL0     C 9954  11.319  11.084   8.212 -0.5048 -0.1529 -0.2811
  815MOL0     C 9955  10.664  10.705   7.889 -0.1886  0.0857  0.0871
  815MOL0     C 9956  10.546  10.630   7.865  0.5189  0.3910 -0.4326
  815MOL0     C 9957  10.420  10.713   7.828 -0.7059 -0.3968 -0.5640
  815MOL0     H 9958  10.335  10.292   7.529 -3.8547  1.2887 -0.6532
  815MOL0     H 9959  10.149  10.099   7.473 -0.1223 -2.2344  0.4819
  815MOL0     H 9960  10.081   9.792   7.798 -1.6571 -1.3820  1.2102
  815MOL0     H 9961   9.961   9.913   7.808 -0.7984 -0.5941 -0.6073
  815MOL0     H 9962   9.835   9.815   7.620 -0.8724 -2.1213  0.6162
  815MOL0     H 9963   9.842   9.703   7.757 -1.4861 -0.1900 -0.3658
  815MOL0     H 9964  10.049   9.595   7.680  2.7490 -0.4296 -2.6410
  815MOL0     H 9965  10.065   9.700   7.549 -0.1933  2.8046  1.9005
  815MOL0     H 9966   9.818   9.516   7.576  0.2109  1.2761  0.0940
  815MOL0     H 9967   9.861   9.595   7.432 -1.2671 -0.6394  0.0855
  815MOL0     H 9968   9.957   9.399   7.383  0.7466  1.3310 -1.5558
  815MOL0     H 9969  10.090   9.476   7.443 -0.2588 -1.3524 -1.5934
  815MOL0     H 9970  10.032   9.364   7.687 -0.9223  2.5133 -0.4007
  815MOL0     H 9971   9.901   9.280   7.605  0.9729 -1.8858  2.3018
  815MOL0     H 9972  10.108   9.150   7.629  2.7054  0.3774  0.1975
  815MOL0     H 9973  10.197   9.263   7.536 -0.3472 -0.6609 -1.3076
  815MOL0     H 9974   9.979   9.080   7.462 -0.4488  1.6723  0.2482
  815MOL0     H 9975  10.014   9.197   7.348  0.7407 -0.2317  0.6054
  815MOL0     H 9976  10.308   9.190   7.280 -0.8923  0.1973 -0.9823
  815MOL0     H 9977  10.494   8.838   7.219  0.7348 -0.1515 -3.9026
  815MOL0     H 9978  10.463   8.957   7.100 -1.1406  0.0760  0.2118
  815MOL0     H 9979  10.568   9.132   7.245  2.8053 -0.1561 -2.1611
  815MOL0     H 9980  10.561   9.022   7.383 -1.3910 -0.1453 -0.5967
  815MOL0     H 9981  10.723   8.999   7.120  0.8979  2.2366  0.2620
  815MOL0     H 9982  10.724   8.879   7.237  0.6696 -0.3060 -0.2566
  815MOL0     H 9983  10.828   9.169   7.255 -2.4936  0.8846 -0.0914
  815MOL0     H 9984  10.927   9.016   7.249 -0.6420  0.4271 -1.1561
  815MOL0     H 9985  10.881   9.016   7.680 -1.1958  0.8948 -1.7704
  815MOL0     H 9986  11.060   9.116   7.829 -0.3202  0.1976  0.4112
  815MOL0     H 9987  11.473   9.387   7.894 -0.7401  0.0671 -0.6487
  815MOL0     H 9988  11.680   9.396   8.036 -0.7567  1.3453 -5.1179
  815MOL0     H 9989  11.956   9.244   8.032  1.0552 -1.2992  0.1177
  815MOL0     H 9990  11.861   9.369   8.111 -1.0839 -0.7475 -0.1793
  815MOL0     H 9991  11.928   9.286   8.332 -1.1170  0.4555 -1.4005
  815MOL0     H 9992  12.030   9.163   8.260  1.0610  1.3751  4.3654
  815MOL0     H 9993  12.181   9.333   8.160 -0.4771  1.5320 -1.1465
  815MOL0     H 9994  12.073   9.459   8.226 -1.1385  0.1032  0.1750
  815MOL0     H 9995  12.182   9.246   8.403 -0.0035 -0.6147 -0.8677
  815MOL0     H 9996  12.161   9.415   8.445 -1.5449 -1.7993  1.4325
  815MOL0     H 9997  12.345   9.471   8.293 -2.6882  0.4448  0.5758
  815MOL0     H 9998  12.376   9.290   8.267 -3.6410 -3.6722  0.1103
  815MOL0     H 9999  12.387   9.429   8.538 -2.0885  2.5828 -2.3877
  815MOL0     H10000  12.409   9.254   8.502  3.0738 -0.9362 -1.3367
  815MOL0     H10001  12.578   9.492   8.415 -1.1744 -0.0447  0.8555
  815MOL0     H10002  12.614   9.363   8.324  1.7894  1.3493  1.3956
  815MOL0     H10003  12.768   9.366   8.492 -0.0798  2.2193  0.4121
  815MOL0     H10004  12.662   9.414   8.617  1.2884 -0.6562 -0.2943
  815MOL0     H10005  11.684   8.980   8.064 -0.3344 -0.0558 -0.0658
  815MOL0     H10006  11.451   8.965   7.947 -0.6631 -0.5538  2.0777
  815MOL0     H10007  11.268   9.246   7.476  0.6079  2.3966  2.6439
  815MOL0     H10008  11.084   9.162   7.332 -0.2241 -2.6951 -0.2682
  815MOL0     H10009  10.192   9.969   7.875  1.0458 -0.7057 -0.5901
  815MOL0     H10010  10.371  10.133   7.920 -0.9285 -0.1874  0.2383
  815MOL0     H10011  10.695  10.316   7.870  0.6379 -0.0824  3.9835
  815MOL0     H10012  10.883  10.446   7.919  0.4984  1.2053  1.2222
  815MOL0     H10013  11.077  10.649   7.878 -2.9908 -2.2442 -0.8888
  815MOL0     H10014  11.019  10.578   8.041 -3.3092  0.5475 -0.0822
  815MOL0     H10015  11.197  10.736   8.066  0.1162 -1.3273 -4.8699
  815MOL0     H10016  11.054  10.796   8.156  2.2812 -1.0381 -0.1186
  815MOL0     H10017  11.032  10.979   8.035  0.1701 -1.4808  1.8331
  815MOL0     H10018  11.070  10.891   7.888 -1.4551 -2.6782  0.7511
  815MOL0     H10019  11.313  10.908   7.934 -0.4245  0.0467  0.5520
  815MOL0     H10020  11.222  11.054   7.906 -1.9085 -3.2373 -3.4453
  815MOL0     H10021  11.376  11.112   8.298 -1.3219  0.5111  0.0549
  815MOL0     H10022  10.665  10.813   7.895 -2.2404  0.1762 -0.4055
  815MOL0     H10023  10.446  10.813   7.793 -2.8708  1.6335  3.0539
  815MOL0     H10024  10.371  10.659   7.746  0.7502 -2.0516 -0.3995
  815MOL0     H10025  10.341  10.729   7.902 -0.0737  1.7026 -0.2897
  816MOL0     O10026   9.210  11.101  11.169 -0.2768  0.2143  0.0873
  816MOL0     C10027   9.147  11.047  11.261 -0.5427 -0.0760  1.4218
  816MOL0     O10028   9.188  11.039  11.390 -0.7574  0.5414  0.4267
  816MOL0     C10029   9.289  11.123  11.427  1.1348  0.2335 -0.5769
  816MOL0     C10030   9.424  11.116  11.388 -0.5921  0.0986 -0.2499
  816MOL0     C10031   9.519  11.211  11.427 -0.3457  0.1102  0.6412
  816MOL0     C10032   9.487  11.331  11.502  1.0800  0.4324  0.0574
  816MOL0     O10033   9.580  11.417  11.543  0.1202  0.3126 -0.6375
  816MOL0     C10034   9.719  11.397  11.527  0.1321 -0.0856 -1.0292
  816MOL0     C10035   9.790  11.533  11.550 -0.5835 -0.5955 -0.8050
  816MOL0     C10036   9.931  11.516  11.605  0.5489 -0.5187  0.2642
  816MOL0     C10037  10.019  11.437  11.505  0.1170 -0.1551 -0.0330
  816MOL0     C10038  10.159  11.403  11.550  0.3466  0.8285 -0.4951
  816MOL0     C10039  10.247  11.520  11.607 -0.1145  0.2619  1.3752
  816MOL0     C10040  10.250  11.648  11.514  0.6777 -0.0283 -0.0749
  816MOL0     C10041  10.382  11.724  11.522 -0.0435  0.7187 -0.0693
  816MOL0     N10042  10.367  11.872  11.512  0.1865 -0.0433 -0.4361
  816MOL0     C10043  10.319  11.950  11.615 -0.7531  0.3219 -0.4700
  816MOL0     C10044  10.335  12.072  11.565 -0.2613 -0.4445 -0.5009
  816MOL0     C10045  10.307  12.201  11.634 -0.1273  0.5022  0.5283
  816MOL0     C10046  10.433  12.268  11.672 -0.0891  0.4082  0.0542
  816MOL0     C10047  10.408  12.328  11.809 -0.1981 -0.4043  0.3270
  816MOL0     C10048  10.526  12.396  11.864  0.3110 -0.4627  0.4299
  816MOL0     O10049  10.627  12.297  11.882  0.4074  0.0051 -0.0973
  816MOL0     C10050  10.744  12.341  11.932 -0.3889 -0.1693  1.1364
  816MOL0     C10051  10.852  12.259  11.890  0.3362  1.5660 -0.6634
  816MOL0     C10052  10.983  12.297  11.911  0.2331 -0.0493  0.1314
  816MOL0     C10053  11.014  12.410  11.991 -0.4709 -0.2719 -0.6309
  816MOL0     C10054  11.154  12.435  12.042 -0.0445  0.0884  0.3705
  816MOL0     O10055  11.252  12.349  11.991 -0.0209  0.2545 -0.5473
  816MOL0     C10056  11.371  12.341  12.066 -0.5186 -1.5078 -0.0527
  816MOL0     C10057  11.371  12.294  12.196  0.5903  0.3017  0.3556
  816MOL0     C10058  11.491  12.289  12.271  0.3433 -0.1502 -1.0242
  816MOL0     C10059  11.613  12.312  12.214  0.2520 -0.0572  0.4161
  816MOL0     O10060  11.721  12.310  12.297  0.1342 -0.3063 -0.1036
  816MOL0     C10061  11.846  12.314  12.230 -0.3933  1.0322  0.8437
  816MOL0     C10062  11.967  12.332  12.334 -0.4962  1.7750  0.2888
  816MOL0     C10063  12.032  12.472  12.311 -0.2264 -0.3729  0.8115
  816MOL0     C10064  12.132  12.475  12.195  0.0600 -1.2670  0.5918
  816MOL0     C10065  12.256  12.386  12.203 -0.7407  0.3363  0.9293
  816MOL0     C10066  12.386  12.449  12.138  0.2891 -1.3727  0.1976
  816MOL0     C10067  12.462  12.545  12.228 -0.9338 -0.5468  0.2337
  816MOL0     C10068  12.579  12.633  12.165 -0.4337  0.4562  0.4907
  816MOL0    Cl10069  12.499  12.775  12.101  0.2166  0.2029 -0.1517
  816MOL0     C10070  11.611  12.360  12.076 -0.8755 -0.0983 -0.4958
  816MOL0     C10071  11.497  12.375  12.004  0.2328 -0.0241  0.0083
  816MOL0     O10072  11.169  12.526  12.129 -0.2730  0.4996  0.0272
  816MOL0     C10073  10.906  12.480  12.045  0.2317  0.3651  0.3664
  816MOL0     C10074  10.774  12.439  12.015 -0.2225 -0.3333 -0.6632
  816MOL0     N10075  10.372  12.067  11.430  0.2306  0.2333  0.3868
  816MOL0     N10076  10.401  11.943  11.403 -0.5212 -0.5704 -0.1402
  816MOL0     C10077   9.349  11.350  11.528 -0.0942  0.2869 -0.1488
  816MOL0     C10078   9.251  11.250  11.492 -0.4748 -0.6719 -0.2096
  816MOL0     C10079   9.013  10.989  11.223 -0.5587  0.7525  0.0883
  816MOL0     C10080   8.912  10.975  11.316  0.1064  0.0053 -0.3860
  816MOL0     C10081   8.780  10.940  11.277 -0.3003 -0.1876  0.0124
  816MOL0     C10082   8.751  10.899  11.152  0.0625 -0.7341  1.0317
  816MOL0     O10083   8.628  10.854  11.107  0.1140 -0.6998  0.0309
  816MOL0     C10084   8.535  10.827  11.208  0.0091  0.5624 -0.6297
  816MOL0     C10085   8.413  10.779  11.137 -0.4535 -0.5938 -0.5426
  816MOL0     C10086   8.305  10.727  11.238  0.1354 -0.0458 -0.3256
  816MOL0     C10087   8.190  10.669  11.160 -0.3716 -0.8842 -0.6973
  816MOL0     C10088   8.086  10.635  11.249 -0.4039 -0.3778  1.4845
  816MOL0     C10089   7.992  10.613  11.323  0.2186 -0.3124 -1.0878
  816MOL0     C10090   8.854  10.900  11.054 -1.0742 -0.5664  0.6262
  816MOL0     C10091   8.981  10.948  11.085  0.1661 -0.2283 -0.6155
  816MOL0     C10092   9.084  10.949  10.968  1.3785  0.4718 -0.2350
  816MOL0     H10093   9.471  11.038  11.329  1.2856  2.1251 -1.5798
  816MOL0     H10094   9.621  11.202  11.392 -0.2285  0.0772  0.9840
  816MOL0     H10095   9.749  11.336  11.613 -2.7594 -0.8875 -0.4839
  816MOL0     H10096   9.755  11.355  11.433 -0.0928 -0.5914 -0.8943
  816MOL0     H10097   9.732  11.593  11.621  0.6918  0.5514 -0.6771
  816MOL0     H10098   9.785  11.593  11.459 -1.8314  0.7988  0.1349
  816MOL0     H10099   9.928  11.467  11.703 -1.7628  1.6407  1.4113
  816MOL0     H10100   9.984  11.610  11.622  2.3360 -1.9546  3.4407
  816MOL0     H10101   9.964  11.345  11.486 -0.4077  0.4995 -1.8882
  816MOL0     H10102  10.030  11.491  11.410 -0.1416 -4.1179 -2.5226
  816MOL0     H10103  10.154  11.321  11.622  0.4772  0.2928 -1.0874
  816MOL0     H10104  10.206  11.351  11.466  0.5148 -0.1458  0.1842
  816MOL0     H10105  10.200  11.537  11.704  0.2816  3.0455  1.1555
  816MOL0     H10106  10.347  11.477  11.620 -0.6659 -1.9426 -0.9168
  816MOL0     H10107  10.169  11.713  11.550  0.3326 -0.6136  0.2379
  816MOL0     H10108  10.223  11.631  11.410  1.7933 -1.3018 -0.1764
  816MOL0     H10109  10.422  11.694  11.619 -1.4493  1.7176  0.8581
  816MOL0     H10110  10.448  11.678  11.448  0.7094 -1.7476  1.9881
  816MOL0     H10111  10.271  11.924  11.709  0.5875  0.4371  0.2699
  816MOL0     H10112  10.240  12.266  11.578  0.3796  1.8987  1.5012
  816MOL0     H10113  10.249  12.169  11.721  0.7936 -0.7010  0.7268
  816MOL0     H10114  10.519  12.201  11.675 -0.8116 -0.5439 -0.2455
  816MOL0     H10115  10.446  12.342  11.593 -0.6895 -1.9138 -2.3358
  816MOL0     H10116  10.360  12.254  11.875  0.8897 -3.8184 -2.3993
  816MOL0     H10117  10.335  12.408  11.794  1.0061  0.7366  0.4039
  816MOL0     H10118  10.505  12.433  11.964  1.1947  0.8796  0.1477
  816MOL0     H10119  10.540  12.474  11.788  2.1453 -2.8308 -1.8047
  816MOL0     H10120  10.821  12.170  11.837 -0.8509  0.9745  0.9429
  816MOL0     H10121  11.049  12.215  11.885 -2.5765 -2.0952 -0.9522
  816MOL0     H10122  11.277  12.252  12.229  0.4096  0.7868  0.4612
  816MOL0     H10123  11.489  12.256  12.374 -2.1120 -0.3352 -1.0632
  816MOL0     H10124  11.857  12.216  12.183 -0.2483  1.6739 -0.4932
  816MOL0     H10125  11.869  12.385  12.150  1.2032  0.4187  0.7127
  816MOL0     H10126  11.928  12.319  12.435  0.8027 -1.2273  0.4878
  816MOL0     H10127  12.053  12.266  12.326 -0.9030  1.2765  0.0016
  816MOL0     H10128  11.960  12.553  12.295  1.9734  1.8393  1.3634
  816MOL0     H10129  12.091  12.506  12.397  2.1422  1.7577 -1.4763
  816MOL0     H10130  12.163  12.579  12.186  0.9069 -1.5643 -0.1780
  816MOL0     H10131  12.094  12.463  12.094  0.8520 -0.3654  0.1754
  816MOL0     H10132  12.225  12.291  12.158 -2.0052  0.9825  0.3776
  816MOL0     H10133  12.268  12.369  12.310  1.9472  0.4790  0.7126
  816MOL0     H10134  12.450  12.363  12.117 -1.2257 -2.2455 -1.0346
  816MOL0     H10135  12.372  12.487  12.037  2.8762  1.7175  0.8050
  816MOL0     H10136  12.518  12.480  12.297  0.9860  0.0667 -0.6905
  816MOL0     H10137  12.386  12.607  12.278 -1.9402 -1.6261  0.0814
  816MOL0     H10138  12.654  12.658  12.240  2.5331 -4.8835 -0.2149
  816MOL0     H10139  12.624  12.581  12.080 -0.4529 -0.7473  1.1995
  816MOL0     H10140  11.694  12.399  12.019  0.3249  0.3150  1.4535
  816MOL0     H10141  11.497  12.419  11.905  2.3364 -0.9714 -0.4491
  816MOL0     H10142  10.922  12.554  12.124 -0.8837  0.9872  0.0427
  816MOL0     H10143  10.691  12.493  12.061  0.8547 -0.4869  1.6050
  816MOL0     H10144   9.330  11.439  11.588  1.3554 -0.9246  2.2661
  816MOL0     H10145   9.147  11.276  11.510  0.0250  0.5454  0.9907
  816MOL0     H10146   8.938  10.991  11.420  1.9685  2.0905 -1.1057
  816MOL0     H10147   8.713  10.935  11.362  1.9024 -2.7469  1.7942
  816MOL0     H10148   8.525  10.909  11.279  0.8686 -2.5028  3.3763
  816MOL0     H10149   8.568  10.749  11.278  0.0218  0.0234 -1.2171
  816MOL0     H10150   8.430  10.695  11.069  3.0894 -1.6235  1.3338
  816MOL0     H10151   8.374  10.861  11.076  0.2388  0.2641  0.1383
  816MOL0     H10152   8.271  10.804  11.308 -2.2589 -0.6515 -0.7464
  816MOL0     H10153   8.344  10.651  11.306  0.5512 -0.6179 -1.1951
  816MOL0     H10154   8.157  10.752  11.097 -1.4985  0.2569  1.3056
  816MOL0     H10155   8.213  10.582  11.097  0.6474 -1.7209  0.7805
  816MOL0     H10156   7.926  10.594  11.405  1.8196 -2.9464 -0.3237
  816MOL0     H10157   8.826  10.867  10.954  0.8006  0.5685 -0.3543
  816MOL0     H10158   9.175  10.904  11.010  0.7053 -1.4501 -0.7426
  816MOL0     H10159   9.056  10.885  10.885 -0.1977 -0.3695  0.8894
  816MOL0     H10160   9.102  11.047  10.924  1.4520  0.0960 -1.0553
  817MOL0     O10161   7.399   0.828   4.630 -0.0959 -0.8734  0.2753
  817MOL0     C10162   7.414   0.837   4.749 -0.6463 -0.9966  0.4332
  817MOL0     O10163   7.528   0.887   4.804  0.2407  0.4089 -0.4398
  817MOL0     C10164   7.614   0.958   4.726 -0.0639 -1.1980 -0.0123
  817MOL0     C10165   7.679   0.906   4.614 -0.3195  0.2318  0.3770
  817MOL0     C10166   7.758   0.979   4.525  0.4193  1.1132  0.1948
  817MOL0     C10167   7.776   1.116   4.543 -0.4080 -0.0179 -0.2536
  817MOL0     O10168   7.855   1.191   4.454 -0.3472  0.1635 -0.3145
  817MOL0     C10169   7.812   1.327   4.423  0.0404  0.2494 -0.0897
  817MOL0     C10170   7.836   1.370   4.277 -0.9463 -0.2988  0.2964
  817MOL0     C10171   7.980   1.336   4.223  0.5951 -0.5796  0.1948
  817MOL0     C10172   7.997   1.402   4.082 -0.0731  0.3763 -0.1442
  817MOL0     C10173   8.125   1.374   4.013 -0.6641 -0.6788  0.0096
  817MOL0     C10174   8.155   1.471   3.899 -0.5231  0.1344 -0.2026
  817MOL0     C10175   8.292   1.430   3.839 -1.2995  0.5474  0.2605
  817MOL0     C10176   8.342   1.543   3.741  0.4346  1.0263  0.0490
  817MOL0     N10177   8.466   1.510   3.686 -0.1653  0.3687 -0.4466
  817MOL0     C10178   8.488   1.387   3.627  0.0632 -0.8823  0.4746
  817MOL0     C10179   8.620   1.396   3.593 -0.3774 -0.2237 -1.0699
  817MOL0     C10180   8.694   1.283   3.518  0.6463  0.3722  0.8923
  817MOL0     C10181   8.780   1.205   3.618  0.4817 -0.0688  0.0305
  817MOL0     C10182   8.855   1.087   3.562 -0.1892 -0.5100 -0.1507
  817MOL0     C10183   8.942   1.127   3.448 -0.9920  0.1671 -0.1877
  817MOL0     O10184   9.035   1.228   3.482  0.2871 -0.3360 -0.6873
  817MOL0     C10185   9.165   1.200   3.540  0.4357 -0.4245 -1.0971
  817MOL0     C10186   9.258   1.306   3.538 -0.5235  0.3380  0.1045
  817MOL0     C10187   9.389   1.284   3.585  0.5295 -0.2900 -0.2414
  817MOL0     C10188   9.435   1.158   3.634 -0.8446 -0.0502  0.0102
  817MOL0     C10189   9.567   1.135   3.687  0.0510  0.1726  0.1345
  817MOL0     O10190   9.668   1.226   3.668 -0.2030  0.2815  0.7763
  817MOL0     C10191   9.790   1.208   3.746 -0.5841 -0.8234  1.3786
  817MOL0     C10192   9.865   1.099   3.752 -0.7362 -0.1737  0.1996
  817MOL0     C10193   9.976   1.104   3.838  0.7744 -0.4897  0.6504
  817MOL0     C10194  10.011   1.207   3.920  0.9527 -0.2073 -0.0846
  817MOL0     O10195  10.108   1.183   4.011  0.4520  0.7017  0.1781
  817MOL0     C10196  10.111   1.267   4.126  0.5158  1.3974 -0.4885
  817MOL0     C10197  10.234   1.249   4.220 -1.1997  0.1511  0.3376
  817MOL0     C10198  10.368   1.251   4.149 -0.0862 -0.6879  0.7003
  817MOL0     C10199  10.478   1.202   4.242 -0.4723 -0.7036  0.0513
  817MOL0     C10200  10.599   1.140   4.171 -0.2215 -0.4069 -0.5401
  817MOL0     C10201  10.677   1.056   4.275  0.3940 -0.3003 -1.3483
  817MOL0     C10202  10.822   1.040   4.245  0.6036 -0.6862  0.9781
  817MOL0     C10203  10.902   0.984   4.363  0.5396 -0.6022  1.6031
  817MOL0    Cl10204  11.063   0.923   4.302  0.0652  0.1499 -0.3292
  817MOL0     C10205   9.937   1.330   3.905 -0.0642  0.5475  0.3170
  817MOL0     C10206   9.826   1.332   3.811  0.7817 -0.2888  0.1443
  817MOL0     O10207   9.583   1.041   3.766  0.4465 -0.1020  0.2468
  817MOL0     C10208   9.337   1.058   3.630 -0.1594  0.4210 -0.0793
  817MOL0     C10209   9.213   1.069   3.581 -1.0111 -0.9232 -0.5747
  817MOL0     N10210   8.681   1.500   3.655  0.3218 -0.1077  0.8190
  817MOL0     N10211   8.584   1.568   3.705 -0.1344  0.7041 -0.3358
  817MOL0     C10212   7.728   1.177   4.657  0.4330  0.1695  0.0642
  817MOL0     C10213   7.647   1.095   4.754  0.6501 -0.5908 -0.1566
  817MOL0     C10214   7.301   0.824   4.838  0.2063  0.7485  0.1796
  817MOL0     C10215   7.293   0.906   4.949 -0.5403 -1.2609  0.2818
  817MOL0     C10216   7.184   0.902   5.039 -0.2326 -0.2303 -0.2124
  817MOL0     C10217   7.084   0.812   5.022 -0.3458  0.9388 -0.2485
  817MOL0     O10218   6.984   0.800   5.114 -0.5490 -0.5138  0.2953
  817MOL0     C10219   6.856   0.825   5.059 -0.3719  0.5212  0.8430
  817MOL0     C10220   6.778   0.920   5.155  0.5158  0.2713 -0.2300
  817MOL0     C10221   6.763   0.882   5.303 -0.2178 -0.3497 -0.5546
  817MOL0     C10222   6.641   0.938   5.370  0.0043 -0.9804 -0.5651
  817MOL0     C10223   6.629   1.084   5.372 -0.0871 -0.4096 -0.5613
  817MOL0     C10224   6.615   1.207   5.390  0.0492  0.5717 -0.2360
  817MOL0     C10225   7.092   0.740   4.908 -0.5471  0.2428  0.3346
  817MOL0     C10226   7.188   0.744   4.815  0.5668 -0.0093  0.1549
  817MOL0     C10227   7.160   0.656   4.688 -0.1796 -0.2092 -0.1118
  817MOL0     H10228   7.661   0.800   4.600 -2.7636  0.4654  1.2026
  817MOL0     H10229   7.805   0.924   4.444  2.8018  1.7624  1.0322
  817MOL0     H10230   7.705   1.339   4.441 -0.0665 -0.8975  0.1789
  817MOL0     H10231   7.865   1.390   4.494  1.3412 -1.1848  0.2827
  817MOL0     H10232   7.818   1.478   4.269 -1.5160 -0.1440  2.8080
  817MOL0     H10233   7.760   1.324   4.213 -0.0442  0.9018 -1.7483
  817MOL0     H10234   8.007   1.230   4.228 -1.5088 -1.1308  1.2336
  817MOL0     H10235   8.045   1.389   4.293 -1.0927  0.4020  1.0893
  817MOL0     H10236   7.913   1.364   4.024  0.1710  0.4441 -0.5448
  817MOL0     H10237   7.988   1.511   4.094 -5.1293  0.1719  0.1803
  817MOL0     H10238   8.209   1.389   4.082  0.5636  4.6813 -2.1931
  817MOL0     H10239   8.132   1.268   3.986 -2.0508 -0.6215 -0.6232
  817MOL0     H10240   8.080   1.463   3.819 -3.0734  0.7889  1.9863
  817MOL0     H10241   8.168   1.575   3.931  2.7345  0.1649 -1.2572
  817MOL0     H10242   8.291   1.334   3.786  0.6924  0.6258 -0.0215
  817MOL0     H10243   8.371   1.428   3.915 -0.3542 -0.6327 -0.6905
  817MOL0     H10244   8.271   1.545   3.658  0.8542  0.8172 -0.3183
  817MOL0     H10245   8.353   1.642   3.787 -0.4286  0.5637  1.3127
  817MOL0     H10246   8.422   1.306   3.597  0.6884 -1.2016 -0.0856
  817MOL0     H10247   8.619   1.223   3.465  0.1826  1.6379  0.0515
  817MOL0     H10248   8.757   1.331   3.441 -0.5683  0.0579 -0.3335
  817MOL0     H10249   8.855   1.268   3.667  0.4990 -0.4452  0.4940
  817MOL0     H10250   8.711   1.178   3.698 -0.4662  2.3060  0.0715
  817MOL0     H10251   8.799   0.994   3.544  0.9398 -1.4004  0.7802
  817MOL0     H10252   8.923   1.050   3.640  2.4048  3.5759 -0.1559
  817MOL0     H10253   8.886   1.159   3.360  0.2750  1.5351 -0.5403
  817MOL0     H10254   9.000   1.046   3.404  1.1895  1.3153  0.3788
  817MOL0     H10255   9.215   1.401   3.507 -3.1024 -0.7667  0.0510
  817MOL0     H10256   9.453   1.371   3.589  3.2381 -2.1186 -0.7162
  817MOL0     H10257   9.850   1.002   3.706 -2.5105 -0.1654  0.6916
  817MOL0     H10258  10.027   1.008   3.846 -1.5775 -1.7644  1.2424
  817MOL0     H10259  10.103   1.374   4.104 -2.1889  1.8823  2.1614
  817MOL0     H10260  10.025   1.242   4.190  1.1356  2.2600  0.7378
  817MOL0     H10261  10.232   1.333   4.291  0.5741  1.8111 -1.4463
  817MOL0     H10262  10.221   1.159   4.280  0.5641  0.2442  0.9107
  817MOL0     H10263  10.362   1.189   4.059  1.2296  0.7187 -0.4229
  817MOL0     H10264  10.383   1.354   4.115 -2.0322 -0.6351 -0.1765
  817MOL0     H10265  10.436   1.122   4.305  0.9997 -1.5254  0.0415
  817MOL0     H10266  10.524   1.284   4.297  1.9609 -1.5216 -0.6171
  817MOL0     H10267  10.660   1.224   4.135 -0.5733 -0.4375 -1.2259
  817MOL0     H10268  10.573   1.076   4.086  1.6780 -1.4789 -0.3717
  817MOL0     H10269  10.666   1.108   4.370 -3.6981 -1.5677 -0.9513
  817MOL0     H10270  10.627   0.960   4.293  0.2902 -0.1295 -0.7088
  817MOL0     H10271  10.865   1.138   4.222 -1.2417 -0.0443  0.0621
  817MOL0     H10272  10.843   0.975   4.159  1.8715  0.7097  0.1857
  817MOL0     H10273  10.906   1.058   4.443 -0.4204  0.1760  0.9541
  817MOL0     H10274  10.857   0.893   4.406  2.2032 -2.2136  0.1010
  817MOL0     H10275   9.950   1.425   3.956 -1.6361  1.1265 -0.3254
  817MOL0     H10276   9.769   1.420   3.782  0.3326 -1.0476 -1.3965
  817MOL0     H10277   9.360   0.956   3.659  1.2482 -0.0190 -2.4659
  817MOL0     H10278   9.148   0.983   3.572 -1.9386 -0.2575 -0.4087
  817MOL0     H10279   7.746   1.279   4.692  0.4636  0.2655 -0.2354
  817MOL0     H10280   7.600   1.138   4.842  1.4696  0.9315 -0.4262
  817MOL0     H10281   7.358   0.987   4.981 -2.3972  0.3946 -0.0110
  817MOL0     H10282   7.179   0.968   5.125 -3.5440  0.5999 -0.8982
  817MOL0     H10283   6.812   0.725   5.060  4.9224 -2.1683  0.2846
  817MOL0     H10284   6.864   0.873   4.962  0.1445  1.1259  1.1831
  817MOL0     H10285   6.676   0.934   5.117  0.2746  2.5687  1.0844
  817MOL0     H10286   6.833   1.014   5.162  1.0937  0.0933 -1.8513
  817MOL0     H10287   6.857   0.912   5.351 -0.4584 -1.2548  0.5018
  817MOL0     H10288   6.758   0.773   5.307 -2.5957 -0.2988 -0.8221
  817MOL0     H10289   6.549   0.894   5.330  0.1501  1.4771 -4.0765
  817MOL0     H10290   6.643   0.907   5.475 -0.4055 -1.3750 -0.6704
  817MOL0     H10291   6.603   1.312   5.404 -1.1587  0.4594 -0.2923
  817MOL0     H10292   7.022   0.657   4.904  1.5826 -1.5815 -1.9932
  817MOL0     H10293   7.112   0.561   4.711  1.1513 -1.5790 -2.6207
  817MOL0     H10294   7.101   0.705   4.610  3.2304  4.2661 -0.3130
  817MOL0     H10295   7.245   0.613   4.635 -0.1948  1.5624 -1.6752
  818MOL0     O10296  10.620   4.972   7.131  0.9134 -0.3416 -0.3564
  818MOL0     C10297  10.555   5.006   7.232  1.0429  0.3955 -0.3826
  818MOL0     O10298  10.617   5.049   7.350 -0.1311  0.1911  0.4584
  818MOL0     C10299  10.754   5.072   7.342 -0.1130 -0.2412  0.0407
  818MOL0     C10300  10.784   5.184   7.261  0.8151  0.8671  0.8049
  818MOL0     C10301  10.916   5.226   7.255 -0.7501  0.3525  0.5836
  818MOL0     C10302  11.019   5.154   7.312 -0.3378 -0.2944 -0.9959
  818MOL0     O10303  11.150   5.199   7.295  0.3009 -0.2563  0.7100
  818MOL0     C10304  11.255   5.133   7.355  0.0572 -0.0275  0.1043
  818MOL0     C10305  11.376   5.233   7.354 -0.9052  0.0015 -0.5017
  818MOL0     C10306  11.494   5.161   7.419 -0.2009  0.5581 -0.2353
  818MOL0     C10307  11.625   5.242   7.425 -0.6820 -0.4969  0.0318
  818MOL0     C10308  11.722   5.199   7.531  0.6722  0.2166 -0.4159
  818MOL0     C10309  11.793   5.071   7.485 -0.5615  0.6373  0.7228
  818MOL0     C10310  11.914   5.091   7.391 -0.3141 -0.4372  0.2403
  818MOL0     C10311  12.040   5.145   7.457  0.5283 -0.0313  0.3021
  818MOL0     N10312  12.109   5.052   7.545  0.3558 -0.4995 -0.7169
  818MOL0     C10313  12.153   4.926   7.515 -0.2483 -0.0326  0.2442
  818MOL0     C10314  12.246   4.887   7.609  0.5345  0.0732 -0.0852
  818MOL0     C10315  12.314   4.760   7.635 -0.0144  0.2226  0.1638
  818MOL0     C10316  12.289   4.693   7.766  0.4195  0.9685 -0.3392
  818MOL0     C10317  12.328   4.778   7.893  0.1658  1.2866 -0.5461
  818MOL0     C10318  12.397   4.687   7.993 -0.4413 -0.3176 -0.1762
  818MOL0     O10319  12.330   4.566   8.018 -0.4107  0.4022 -0.1883
  818MOL0     C10320  12.197   4.568   8.046  0.5209 -1.1059  0.2571
  818MOL0     C10321  12.135   4.681   8.113  0.2462 -0.3765  0.8606
  818MOL0     C10322  12.004   4.669   8.157 -0.1180  0.6172 -0.8064
  818MOL0     C10323  11.924   4.561   8.120 -0.9046 -0.1028 -0.5374
  818MOL0     C10324  11.783   4.528   8.180 -0.0211  0.0851 -0.4668
  818MOL0     O10325  11.729   4.634   8.251 -0.1214 -0.2773  0.4954
  818MOL0     C10326  11.605   4.617   8.312  0.2244  0.1696  0.1466
  818MOL0     C10327  11.520   4.726   8.328 -0.6340 -0.5630 -1.0652
  818MOL0     C10328  11.393   4.730   8.381  0.8274 -0.3375 -0.5911
  818MOL0     C10329  11.341   4.609   8.435  0.2723 -0.5406  0.2008
  818MOL0     O10330  11.219   4.621   8.495  0.0763 -0.6628  0.4717
  818MOL0     C10331  11.173   4.503   8.552 -0.8413  0.2010  0.0168
  818MOL0     C10332  11.024   4.521   8.567  0.9484 -0.0079  0.9296
  818MOL0     C10333  10.975   4.480   8.709  0.8641 -0.6123 -0.6596
  818MOL0     C10334  10.828   4.493   8.717 -0.3784  0.5954  0.4814
  818MOL0     C10335  10.772   4.399   8.827  0.3636 -1.3052 -0.7978
  818MOL0     C10336  10.623   4.453   8.850  0.0048  0.4598  0.8418
  818MOL0     C10337  10.544   4.354   8.933  0.1354 -0.0615 -0.5057
  818MOL0     C10338  10.407   4.420   8.956 -0.1489  0.4680  0.0882
  818MOL0    Cl10339  10.313   4.468   8.809 -0.0508 -0.3190  0.2754
  818MOL0     C10340  11.419   4.493   8.420 -0.0989 -0.2045 -0.5038
  818MOL0     C10341  11.547   4.502   8.362  0.4234 -0.1843 -0.0412
  818MOL0     O10342  11.731   4.422   8.163  0.5035 -0.2275  0.7810
  818MOL0     C10343  11.986   4.461   8.048 -0.5770 -0.6500  0.0039
  818MOL0     C10344  12.119   4.460   8.018 -0.0926  0.9923 -0.0605
  818MOL0     N10345  12.259   4.998   7.689 -0.3217  0.6607  0.7626
  818MOL0     N10346  12.183   5.097   7.652 -0.0202 -0.4554 -0.8163
  818MOL0     C10347  10.984   5.041   7.399 -0.3809 -0.8853  0.0563
  818MOL0     C10348  10.851   5.010   7.422 -0.8034  0.5046  0.3351
  818MOL0     C10349  10.403   4.991   7.234 -0.3804  0.2069  0.3843
  818MOL0     C10350  10.340   5.068   7.340  0.9698  0.1713  1.1249
  818MOL0     C10351  10.194   5.074   7.341  0.1125  0.0867 -0.7917
  818MOL0     C10352  10.121   5.009   7.242 -0.1250  0.3083  0.6578
  818MOL0     O10353   9.982   5.011   7.248 -0.3479  0.1272  0.5926
  818MOL0     C10354   9.912   5.101   7.156 -0.4561 -0.0241  0.0556
  818MOL0     C10355   9.754   5.087   7.167 -0.0861  0.2404  0.2172
  818MOL0     C10356   9.720   5.147   7.311 -0.3800  1.1433  0.3566
  818MOL0     C10357   9.575   5.185   7.335 -0.7306  0.1563 -0.8626
  818MOL0     C10358   9.490   5.062   7.344 -0.0146  0.6644  0.1395
  818MOL0     C10359   9.410   4.976   7.349 -0.1079 -0.3443 -0.8591
  818MOL0     C10360  10.183   4.929   7.150 -0.1731  0.0412  0.0797
  818MOL0     C10361  10.323   4.922   7.136 -0.2670  0.6845 -0.0844
  818MOL0     C10362  10.377   4.840   7.025 -0.3912  0.2372  0.5743
  818MOL0     H10363  10.714   5.245   7.206  0.1454 -0.0154  0.6532
  818MOL0     H10364  10.947   5.317   7.206 -2.3577  0.2482 -0.7145
  818MOL0     H10365  11.227   5.102   7.456 -0.2062  0.1400  0.0831
  818MOL0     H10366  11.282   5.050   7.289 -2.4652 -0.0509 -1.0173
  818MOL0     H10367  11.359   5.322   7.415  2.4245 -0.4563  1.4063
  818MOL0     H10368  11.412   5.253   7.253  2.0838 -2.8538 -0.1995
  818MOL0     H10369  11.523   5.069   7.368  0.8132 -0.2162  1.6484
  818MOL0     H10370  11.465   5.134   7.521 -0.5171  0.7404 -0.2750
  818MOL0     H10371  11.671   5.243   7.326 -1.0231  1.2231 -0.1442
  818MOL0     H10372  11.606   5.349   7.442 -2.8106 -0.0028 -4.0181
  818MOL0     H10373  11.801   5.275   7.536  0.4338  0.3666  2.0259
  818MOL0     H10374  11.661   5.192   7.621  0.3158  0.8093 -0.6099
  818MOL0     H10375  11.822   5.011   7.572 -1.7454 -3.5874 -1.4885
  818MOL0     H10376  11.734   5.003   7.423  2.8425  0.9981 -3.3673
  818MOL0     H10377  11.878   5.167   7.321 -0.4694 -0.4424  0.3126
  818MOL0     H10378  11.941   5.004   7.330  5.2276  0.2024  1.2763
  818MOL0     H10379  12.108   5.188   7.383  0.1129 -0.2139 -0.1937
  818MOL0     H10380  12.005   5.226   7.522  0.5298 -1.1867  1.7898
  818MOL0     H10381  12.119   4.855   7.440  1.7110 -1.3555  0.5251
  818MOL0     H10382  12.273   4.687   7.565  0.6093  0.9707 -1.0148
  818MOL0     H10383  12.420   4.767   7.609  0.4426  0.8301  2.0640
  818MOL0     H10384  12.180   4.679   7.770  0.7097 -1.5180  2.6633
  818MOL0     H10385  12.346   4.600   7.754 -1.0735  0.0299 -0.5690
  818MOL0     H10386  12.235   4.826   7.923  0.3232  0.9813  0.4591
  818MOL0     H10387  12.402   4.853   7.863 -0.4988  2.3850  0.4999
  818MOL0     H10388  12.414   4.729   8.092  0.2109  0.3748 -0.5710
  818MOL0     H10389  12.493   4.662   7.947 -0.2647 -1.4288  0.7778
  818MOL0     H10390  12.188   4.773   8.138  1.0979 -0.5312 -0.3251
  818MOL0     H10391  11.977   4.748   8.226  0.2324  0.8061 -0.8851
  818MOL0     H10392  11.568   4.821   8.304 -1.7488 -0.0855 -1.4786
  818MOL0     H10393  11.327   4.816   8.389  2.1985  0.5306  3.3250
  818MOL0     H10394  11.193   4.419   8.485  3.4363  0.3477  0.8465
  818MOL0     H10395  11.230   4.481   8.642 -0.1752 -2.3223 -0.9374
  818MOL0     H10396  10.987   4.623   8.551 -0.4011  0.0310  3.6318
  818MOL0     H10397  10.963   4.461   8.499  1.3446  0.4996  0.1182
  818MOL0     H10398  11.005   4.376   8.726 -2.7583 -1.5854  0.8572
  818MOL0     H10399  11.007   4.537   8.796 -1.3950 -1.1186  0.5813
  818MOL0     H10400  10.777   4.465   8.624  1.5399  3.3499 -1.5549
  818MOL0     H10401  10.802   4.600   8.717  1.6304  1.1173  0.5492
  818MOL0     H10402  10.830   4.408   8.919  0.4003 -1.8585 -0.7645
  818MOL0     H10403  10.775   4.294   8.796 -1.8771 -1.5350 -0.3902
  818MOL0     H10404  10.626   4.552   8.898  1.1726  0.3844  0.9614
  818MOL0     H10405  10.575   4.462   8.753 -0.6421  1.1818  1.2172
  818MOL0     H10406  10.583   4.326   9.031 -2.7523 -1.4227  0.3876
  818MOL0     H10407  10.542   4.268   8.866 -0.6552 -0.4237 -0.0425
  818MOL0     H10408  10.342   4.342   8.999  0.1851  0.8510  1.3284
  818MOL0     H10409  10.408   4.502   9.028  2.5831 -0.3565  1.1393
  818MOL0     H10410  11.400   4.396   8.466  1.4442 -0.5327 -0.5125
  818MOL0     H10411  11.605   4.410   8.362  1.4690  0.4412  0.6975
  818MOL0     H10412  11.934   4.368   8.031 -2.1196  0.1820 -0.0165
  818MOL0     H10413  12.177   4.385   7.966 -0.7632  0.7905 -0.5377
  818MOL0     H10414  11.054   4.974   7.448  0.7283  0.9357  1.1116
  818MOL0     H10415  10.820   4.930   7.489 -3.4889  0.6843 -0.5597
  818MOL0     H10416  10.391   5.110   7.427 -1.0536 -1.9137  3.5013
  818MOL0     H10417  10.135   5.131   7.412 -0.8524 -0.8425 -0.8340
  818MOL0     H10418   9.948   5.088   7.054  0.3768  1.5634  0.1056
  818MOL0     H10419   9.939   5.206   7.170 -0.5450 -0.2123  1.9440
  818MOL0     H10420   9.747   4.979   7.157  4.0980 -0.2363  0.5539
  818MOL0     H10421   9.699   5.141   7.089 -2.4454 -0.8670  1.0337
  818MOL0     H10422   9.783   5.237   7.314 -0.3114  1.1678 -1.2617
  818MOL0     H10423   9.755   5.078   7.388 -1.0342  0.3139 -0.0817
  818MOL0     H10424   9.564   5.248   7.424  1.3066  0.5836 -0.8731
  818MOL0     H10425   9.551   5.244   7.246 -1.2323 -3.0107 -3.0049
  818MOL0     H10426   9.332   4.903   7.351 -0.9333  0.3991 -2.9563
  818MOL0     H10427  10.117   4.881   7.079 -0.3917 -1.9240  1.5404
  818MOL0     H10428  10.404   4.740   7.060  1.0526  0.0464 -0.9617
  818MOL0     H10429  10.297   4.815   6.955  1.9161 -1.9861 -1.4813
  818MOL0     H10430  10.468   4.870   6.972 -0.4619  0.2935  0.4828
  819MOL0     O10431   6.962   0.944   6.721 -0.4639 -0.7862  0.1328
  819MOL0     C10432   6.940   1.038   6.643  0.4616 -0.3691  1.0653
  819MOL0     O10433   7.028   1.088   6.551 -0.2401  0.2292 -0.3028
  819MOL0     C10434   7.167   1.066   6.576  1.1256  0.0163 -0.9035
  819MOL0     C10435   7.221   1.064   6.706 -0.8358 -0.1406  0.0002
  819MOL0     C10436   7.365   1.041   6.715  0.0298  0.1707  0.5113
  819MOL0     C10437   7.440   1.000   6.599  0.5307  0.1090  0.0420
  819MOL0     O10438   7.572   0.967   6.592 -0.8319 -0.5959 -0.2712
  819MOL0     C10439   7.658   0.961   6.714 -0.6055  0.5574  0.5468
  819MOL0     C10440   7.786   0.901   6.654  0.0240 -0.7799  0.2380
  819MOL0     C10441   7.909   0.887   6.746 -0.3688 -0.1303 -0.9333
  819MOL0     C10442   8.013   0.804   6.674 -0.2949  0.0369  0.1056
  819MOL0     C10443   8.146   0.790   6.767  0.1922 -0.5979 -0.3771
  819MOL0     C10444   8.256   0.724   6.684 -0.5235  0.6471  0.1364
  819MOL0     C10445   8.382   0.693   6.761 -0.2018  0.3181 -0.2670
  819MOL0     C10446   8.493   0.617   6.673 -0.1572  0.3410  0.8702
  819MOL0     N10447   8.625   0.649   6.720  0.5337 -0.1680 -0.5838
  819MOL0     C10448   8.699   0.762   6.696  0.5912  0.6636 -0.4858
  819MOL0     C10449   8.803   0.751   6.782 -0.1091 -1.1093 -0.3283
  819MOL0     C10450   8.918   0.845   6.789 -1.1821  0.0496  0.1483
  819MOL0     C10451   9.041   0.798   6.703  0.1546 -0.7407  0.3331
  819MOL0     C10452   9.007   0.774   6.554 -0.2821  0.7614  1.2049
  819MOL0     C10453   9.126   0.749   6.475  0.1204  1.1383 -0.5946
  819MOL0     O10454   9.210   0.861   6.465  0.5655  0.1176  0.3386
  819MOL0     C10455   9.343   0.855   6.439 -0.1015 -0.2923 -0.0139
  819MOL0     C10456   9.418   0.980   6.440  0.7339  0.9951 -0.6405
  819MOL0     C10457   9.555   0.982   6.416 -0.0498  0.1138 -0.4727
  819MOL0     C10458   9.631   0.864   6.394  0.2823 -0.2996 -0.5181
  819MOL0     C10459   9.777   0.877   6.366 -0.1383 -0.5671 -0.2773
  819MOL0     O10460   9.838   0.995   6.375  0.3423  0.4773  0.2732
  819MOL0     C10461   9.968   0.979   6.352 -0.2360  0.0061  0.0018
  819MOL0     C10462  10.038   1.030   6.239 -0.6938 -0.3653 -0.0577
  819MOL0     C10463  10.178   1.038   6.226 -0.3069  0.4225 -0.2239
  819MOL0     C10464  10.256   0.965   6.323  0.7405  0.1056  1.1274
  819MOL0     O10465  10.391   0.946   6.296 -0.0143  0.3721  0.1419
  819MOL0     C10466  10.486   1.056   6.314  0.2484  0.7037 -0.0228
  819MOL0     C10467  10.624   1.001   6.302 -1.1781 -0.4293  0.9944
  819MOL0     C10468  10.737   1.094   6.269 -0.9412  0.3190  0.4837
  819MOL0     C10469  10.875   1.025   6.236  1.2745  0.1135  0.0593
  819MOL0     C10470  10.992   1.122   6.226  0.2367 -0.3060  0.6134
  819MOL0     C10471  11.110   1.039   6.177  0.5825 -1.3833  0.0990
  819MOL0     C10472  11.243   1.117   6.185  0.2190  0.8863 -0.4117
  819MOL0     C10473  11.302   1.153   6.042  0.2542 -0.0627  0.1506
  819MOL0    Cl10474  11.462   1.234   6.057  0.0311 -0.1249  0.1413
  819MOL0     C10475  10.192   0.911   6.437 -0.4765  0.1624  0.4974
  819MOL0     C10476  10.050   0.928   6.452 -0.1369  0.1103 -0.4010
  819MOL0     O10477   9.830   0.773   6.343  0.5548  0.1140  0.1812
  819MOL0     C10478   9.559   0.743   6.378  0.2320 -0.6159  0.1634
  819MOL0     C10479   9.414   0.742   6.393 -0.2098  0.1416 -0.6717
  819MOL0     N10480   8.802   0.630   6.850 -1.0081  0.2167 -0.8954
  819MOL0     N10481   8.694   0.571   6.810  0.1014  0.3651  0.4824
  819MOL0     C10482   7.380   1.015   6.471 -0.6944  0.0667  0.0816
  819MOL0     C10483   7.250   1.049   6.463  0.1144 -0.5754  0.0770
  819MOL0     C10484   6.795   1.073   6.614  0.3909  0.5188  0.3337
  819MOL0     C10485   6.757   1.128   6.490 -0.4182  0.5810 -0.4245
  819MOL0     C10486   6.625   1.167   6.460  0.8619 -0.9863  0.0818
  819MOL0     C10487   6.526   1.133   6.555 -0.1129 -0.0168 -0.2215
  819MOL0     O10488   6.398   1.157   6.534  0.7246  0.4633 -0.1947
  819MOL0     C10489   6.341   1.279   6.584  0.1536  0.2309 -0.7234
  819MOL0     C10490   6.269   1.356   6.487 -0.4200 -0.0696  0.0707
  819MOL0     C10491   6.148   1.280   6.438 -0.3865 -0.3357 -0.3567
  819MOL0     C10492   6.072   1.365   6.334 -0.0883 -0.6193 -0.5006
  819MOL0     C10493   5.979   1.282   6.262  0.0174  0.3046  0.2151
  819MOL0     C10494   5.905   1.209   6.202  0.3675  0.1181  0.2387
  819MOL0     C10495   6.562   1.076   6.672  0.4293 -0.2634 -0.1281
  819MOL0     C10496   6.692   1.056   6.710 -0.6767 -0.3172 -1.0606
  819MOL0     C10497   6.716   1.017   6.859 -0.1102 -1.1482  0.3485
  819MOL0     H10498   7.175   1.070   6.804  1.0551 -0.0238  0.9271
  819MOL0     H10499   7.414   1.055   6.811  0.8711  1.1533 -0.0459
  819MOL0     H10500   7.691   1.054   6.761 -0.3944  0.1395  1.2560
  819MOL0     H10501   7.605   0.896   6.785 -0.5099  1.1361  1.1568
  819MOL0     H10502   7.817   0.964   6.570 -0.5163  1.2701  1.5162
  819MOL0     H10503   7.764   0.801   6.615  1.2078 -1.8441  2.1295
  819MOL0     H10504   7.877   0.837   6.838  0.1911  2.9777  1.0873
  819MOL0     H10505   7.944   0.986   6.775  0.2236 -0.0093 -1.9778
  819MOL0     H10506   7.974   0.703   6.661 -0.6340 -0.3679  3.3755
  819MOL0     H10507   8.031   0.858   6.580  0.6259 -0.9470 -0.3009
  819MOL0     H10508   8.183   0.886   6.804 -1.0949 -0.5572  0.8969
  819MOL0     H10509   8.125   0.729   6.855  0.3051  1.1831  0.9491
  819MOL0     H10510   8.219   0.631   6.641 -2.6575  2.4450 -2.2313
  819MOL0     H10511   8.286   0.783   6.597 -0.7502  2.9610  1.5434
  819MOL0     H10512   8.359   0.632   6.849  0.1442 -1.1757 -1.1752
  819MOL0     H10513   8.419   0.789   6.798 -0.4020 -0.1805  1.2886
  819MOL0     H10514   8.476   0.509   6.676  1.9272 -0.0013  2.6600
  819MOL0     H10515   8.479   0.654   6.571 -3.0575 -0.5651  0.8493
  819MOL0     H10516   8.683   0.842   6.625  0.3395 -0.3916 -1.6301
  819MOL0     H10517   8.892   0.949   6.765  3.3125  0.9923 -1.5973
  819MOL0     H10518   8.953   0.851   6.893  2.1410  3.2498 -0.9121
  819MOL0     H10519   9.122   0.871   6.715 -1.3139  1.2790 -1.4281
  819MOL0     H10520   9.087   0.707   6.744  2.6425  0.8553  1.3125
  819MOL0     H10521   8.965   0.870   6.523  1.4211  1.4769  1.0134
  819MOL0     H10522   8.939   0.691   6.536  0.9958  0.0222 -0.3914
  819MOL0     H10523   9.096   0.719   6.374  0.6904 -1.8197  0.0141
  819MOL0     H10524   9.182   0.663   6.513  1.8018  1.2708 -2.6164
  819MOL0     H10525   9.355   1.066   6.458 -3.8385 -2.2374  0.4520
  819MOL0     H10526   9.604   1.079   6.418  1.0220 -0.2164 -3.7701
  819MOL0     H10527   9.977   1.062   6.155  2.4429 -1.1521 -2.8161
  819MOL0     H10528  10.229   1.085   6.142  0.0292 -0.6856 -0.6511
  819MOL0     H10529  10.470   1.127   6.233 -0.5530  0.5435 -0.0129
  819MOL0     H10530  10.469   1.115   6.404  1.9075  3.0088 -1.1344
  819MOL0     H10531  10.651   0.948   6.394 -1.2426 -2.4755 -0.1164
  819MOL0     H10532  10.626   0.925   6.224 -0.4830 -0.3909  0.9656
  819MOL0     H10533  10.711   1.144   6.175 -1.1740  0.8169  0.8097
  819MOL0     H10534  10.762   1.165   6.348  1.8316 -1.5849  1.4470
  819MOL0     H10535  10.863   0.976   6.140  2.0567 -2.1934  1.0829
  819MOL0     H10536  10.899   0.950   6.312  0.4810  0.9403  1.1718
  819MOL0     H10537  11.016   1.167   6.323  4.1451  2.1414 -1.2759
  819MOL0     H10538  10.977   1.195   6.146 -0.1863 -3.4980 -2.4811
  819MOL0     H10539  11.116   0.953   6.244 -1.0832  0.5687  3.0013
  819MOL0     H10540  11.093   1.026   6.070 -1.9993  0.5447  0.1757
  819MOL0     H10541  11.320   1.050   6.224  0.1796  0.9152 -0.2805
  819MOL0     H10542  11.226   1.206   6.246 -0.2900 -0.8474  2.1363
  819MOL0     H10543  11.322   1.063   5.983  3.7061  0.8141 -0.2573
  819MOL0     H10544  11.231   1.215   5.986 -0.8891 -0.6899  0.8692
  819MOL0     H10545  10.241   0.861   6.520  1.7929  0.2757 -0.6994
  819MOL0     H10546  10.008   0.892   6.546  1.7358 -2.5750 -0.4748
  819MOL0     H10547   9.608   0.647   6.359 -0.2950 -0.5380 -1.8174
  819MOL0     H10548   9.352   0.655   6.377 -1.9426  0.4584  3.2601
  819MOL0     H10549   7.423   0.983   6.376 -1.6316 -0.2475 -0.2486
  819MOL0     H10550   7.195   1.060   6.370  0.7696  0.0279 -0.2538
  819MOL0     H10551   6.831   1.126   6.411 -0.0805 -2.9027 -0.1731
  819MOL0     H10552   6.595   1.206   6.364 -0.4806  0.8715  1.1815
  819MOL0     H10553   6.421   1.350   6.608  0.8461  0.1878 -2.7180
  819MOL0     H10554   6.281   1.271   6.675  1.3724 -0.2010  0.0686
  819MOL0     H10555   6.329   1.387   6.401  0.6873  1.4788  1.3480
  819MOL0     H10556   6.230   1.447   6.533  1.3533  1.0534 -0.5579
  819MOL0     H10557   6.077   1.266   6.520 -3.4221 -0.5214 -2.8406
  819MOL0     H10558   6.180   1.183   6.400 -0.6747 -0.7968  0.5290
  819MOL0     H10559   6.023   1.448   6.386  2.4231  0.1546  0.7983
  819MOL0     H10560   6.134   1.412   6.257 -1.7962  3.0764  0.1969
  819MOL0     H10561   5.837   1.149   6.144  0.7088  1.2975 -1.4574
  819MOL0     H10562   6.484   1.050   6.743 -0.5617  0.4655 -0.9046
  819MOL0     H10563   6.715   0.909   6.870 -2.8246 -1.0552  1.9983
  819MOL0     H10564   6.804   1.060   6.908 -0.8473 -1.7410  2.2767
  819MOL0     H10565   6.629   1.052   6.915  0.5563 -0.1568  0.7873
  820MOL0     O10566   6.647   0.146   7.828 -0.0937  0.0046  0.2486
  820MOL0     C10567   6.657   0.109   7.944 -1.2832  0.6400  0.7125
  820MOL0     O10568   6.762   0.127   8.012 -0.3457  0.0570 -0.8117
  820MOL0     C10569   6.876   0.208   7.998  0.5099  0.1297  0.0427
  820MOL0     C10570   6.971   0.195   8.101 -0.6070  0.6862 -0.7093
  820MOL0     C10571   7.093   0.264   8.099  0.3790  0.6462  0.2241
  820MOL0     C10572   7.123   0.359   8.004 -0.9179 -0.2004  0.0891
  820MOL0     O10573   7.227   0.446   8.000  0.0131 -0.3218 -0.1000
  820MOL0     C10574   7.325   0.441   8.098 -0.5264  0.4553 -0.6390
  820MOL0     C10575   7.358   0.578   8.145  0.1752  0.1139  0.2985
  820MOL0     C10576   7.463   0.549   8.252  0.7567 -0.8344 -0.7513
  820MOL0     C10577   7.508   0.686   8.300 -0.4566  1.3339 -0.6220
  820MOL0     C10578   7.590   0.664   8.427 -0.7236  0.0313  0.2546
  820MOL0     C10579   7.743   0.639   8.383  0.2268 -0.2367 -0.3696
  820MOL0     C10580   7.837   0.622   8.505  0.2111  0.8337 -0.5848
  820MOL0     C10581   7.829   0.737   8.605 -0.2194 -0.2492 -0.0779
  820MOL0     N10582   7.960   0.742   8.688 -0.3908 -0.7644 -0.2698
  820MOL0     C10583   8.030   0.642   8.747 -0.3120  0.7307 -0.8608
  820MOL0     C10584   8.139   0.703   8.794  0.1254 -0.7335 -0.4808
  820MOL0     C10585   8.245   0.628   8.851 -0.2804 -0.5538 -0.5575
  820MOL0     C10586   8.345   0.576   8.749 -0.3043 -0.2353 -0.0832
  820MOL0     C10587   8.416   0.678   8.662  0.0970 -0.6549 -0.4459
  820MOL0     C10588   8.509   0.767   8.759  0.0429 -0.2249 -0.1235
  820MOL0     O10589   8.586   0.841   8.664 -0.6468  0.8384  0.0114
  820MOL0     C10590   8.691   0.909   8.723  0.1864 -0.4352  1.0196
  820MOL0     C10591   8.805   0.922   8.646  0.2040  1.3068 -0.7946
  820MOL0     C10592   8.903   1.015   8.692  0.0046 -0.0834 -0.1924
  820MOL0     C10593   8.896   1.076   8.815 -0.1628 -0.5704 -0.3894
  820MOL0     C10594   8.996   1.175   8.857 -0.7580  0.8371  0.1072
  820MOL0     O10595   9.065   1.235   8.751 -0.0848  0.8253  0.1498
  820MOL0     C10596   9.166   1.323   8.771  0.3753 -0.1673 -0.3457
  820MOL0     C10597   9.161   1.440   8.695 -0.5853 -0.3995 -0.1996
  820MOL0     C10598   9.261   1.533   8.708 -0.6169  0.0431 -0.0296
  820MOL0     C10599   9.370   1.518   8.792 -0.1105  0.1210 -0.3963
  820MOL0     O10600   9.468   1.608   8.803 -0.0157  0.0015  0.0531
  820MOL0     C10601   9.549   1.627   8.922 -0.0178 -0.9310 -0.2209
  820MOL0     C10602   9.475   1.697   9.032  1.0735  0.7184  0.9183
  820MOL0     C10603   9.570   1.747   9.124  0.1765  0.7741  0.1343
  820MOL0     C10604   9.524   1.826   9.245  0.0530  0.6379 -0.4600
  820MOL0     C10605   9.439   1.952   9.234  0.0832 -0.3048  1.0535
  820MOL0     C10606   9.294   1.930   9.203  0.0884  0.1724 -0.4058
  820MOL0     C10607   9.205   2.053   9.224  0.1011 -0.5719 -1.1349
  820MOL0     C10608   9.227   2.147   9.107  0.4110  0.3128  0.2981
  820MOL0    Cl10609   9.145   2.300   9.160  0.1947 -0.6560 -0.5395
  820MOL0     C10610   9.377   1.400   8.858  0.2649 -1.0764 -0.6905
  820MOL0     C10611   9.276   1.303   8.855 -0.7128 -0.2398  0.5303
  820MOL0     O10612   9.016   1.184   8.977  0.0632  0.1747  0.4084
  820MOL0     C10613   8.782   1.058   8.896 -0.3018 -0.6487  0.7107
  820MOL0     C10614   8.677   0.979   8.855 -0.3392  0.5518  1.2623
  820MOL0     N10615   8.134   0.837   8.768 -0.5683 -0.5793 -0.0374
  820MOL0     N10616   8.023   0.863   8.703  0.7451 -0.1587 -0.2432
  820MOL0     C10617   7.036   0.361   7.892  0.0044 -0.4478 -0.7389
  820MOL0     C10618   6.914   0.300   7.897  0.1744  0.2094  0.0226
  820MOL0     C10619   6.552   0.025   8.005 -0.6594  0.1603 -0.5024
  820MOL0     C10620   6.582  -0.017   8.135  0.0861  0.3370  0.4002
  820MOL0     C10621   6.486  -0.093   8.198 -0.1109  0.3470 -1.0859
  820MOL0     C10622   6.371  -0.137   8.138  0.1958 -0.5976 -0.3401
  820MOL0     O10623   6.291  -0.227   8.202 -0.4218  0.3807 -0.3493
  820MOL0     C10624   6.267  -0.356   8.144  0.4030 -0.7892 -0.5044
  820MOL0     C10625   6.140  -0.418   8.201  0.2664  0.4874 -0.3109
  820MOL0     C10626   6.016  -0.411   8.104 -0.2891 -0.0471 -0.1496
  820MOL0     C10627   5.954  -0.269   8.134 -0.4667  0.0681 -0.3289
  820MOL0     C10628   5.844  -0.236   8.043  0.1091  0.5742 -0.1714
  820MOL0     C10629   5.750  -0.222   7.964  0.2583  0.5888 -0.2921
  820MOL0     C10630   6.339  -0.101   8.011 -0.4181 -0.2080  0.4024
  820MOL0     C10631   6.429  -0.021   7.942 -0.5186 -0.6565 -1.0856
  820MOL0     C10632   6.390   0.015   7.799  0.4135  0.0436  0.2884
  820MOL0     H10633   6.954   0.128   8.185  0.0433  4.0287  2.3130
  820MOL0     H10634   7.155   0.247   8.186  3.9622  2.7377 -1.6905
  820MOL0     H10635   7.294   0.374   8.179  0.8752  1.4564  0.7946
  820MOL0     H10636   7.415   0.396   8.055 -0.0401  2.0879 -1.4153
  820MOL0     H10637   7.278   0.639   8.187  1.6977  0.6042  2.7002
  820MOL0     H10638   7.407   0.639   8.068  0.2571 -1.3407 -0.8335
  820MOL0     H10639   7.551   0.500   8.210 -0.2651 -1.7519 -1.8853
  820MOL0     H10640   7.417   0.490   8.332 -0.9182  1.1392 -0.1409
  820MOL0     H10641   7.564   0.745   8.228  1.4922  1.0604  0.5999
  820MOL0     H10642   7.418   0.739   8.333 -2.1433 -1.2378 -0.7667
  820MOL0     H10643   7.583   0.747   8.498 -0.2043  1.3338 -1.1627
  820MOL0     H10644   7.558   0.573   8.478  1.8900  0.3577  2.7011
  820MOL0     H10645   7.750   0.547   8.324  1.7622 -1.7616  2.0578
  820MOL0     H10646   7.775   0.728   8.327 -0.8706 -0.4458 -1.3789
  820MOL0     H10647   7.943   0.606   8.485 -0.0556  0.5978 -1.9892
  820MOL0     H10648   7.804   0.532   8.558  0.1223  2.7710  2.9469
  820MOL0     H10649   7.833   0.826   8.542 -0.1329 -0.2676 -0.0969
  820MOL0     H10650   7.746   0.732   8.676  2.4786 -0.6577  3.2931
  820MOL0     H10651   7.997   0.539   8.752  0.0672  0.6711  1.1902
  820MOL0     H10652   8.311   0.684   8.917  0.0780 -2.0265  0.3771
  820MOL0     H10653   8.213   0.546   8.916  1.1878  0.0078  0.9294
  820MOL0     H10654   8.424   0.523   8.803  1.5726  2.6105  0.2108
  820MOL0     H10655   8.293   0.498   8.694  0.5010 -2.6641  2.3292
  820MOL0     H10656   8.343   0.736   8.605  0.2218  0.6142  0.6433
  820MOL0     H10657   8.475   0.634   8.581 -0.5669 -2.7562  0.1417
  820MOL0     H10658   8.564   0.692   8.817 -1.8206 -0.8303  0.9564
  820MOL0     H10659   8.454   0.827   8.832  1.1303  0.1200  0.4270
  820MOL0     H10660   8.812   0.862   8.555 -0.0717 -0.9925  0.6405
  820MOL0     H10661   8.984   1.037   8.623  0.2510 -2.2471 -0.6631
  820MOL0     H10662   9.083   1.462   8.622 -0.9660  1.7986  0.7912
  820MOL0     H10663   9.263   1.610   8.632  1.5273 -3.8781 -4.4568
  820MOL0     H10664   9.601   1.538   8.959  3.1925  0.5812 -0.7269
  820MOL0     H10665   9.638   1.681   8.888  0.6247 -0.7070  1.6856
  820MOL0     H10666   9.419   1.773   8.977 -0.2809 -0.8119  0.1207
  820MOL0     H10667   9.398   1.635   9.077 -0.6575  2.5858  0.6499
  820MOL0     H10668   9.619   1.658   9.166 -2.9262 -1.6536 -1.0304
  820MOL0     H10669   9.658   1.787   9.072  0.9863 -0.7544  0.2538
  820MOL0     H10670   9.611   1.852   9.307 -1.7554  0.7732  2.1473
  820MOL0     H10671   9.468   1.760   9.312  1.0139 -0.4721 -0.7127
  820MOL0     H10672   9.476   2.026   9.162 -0.7679 -0.7445  0.1444
  820MOL0     H10673   9.445   2.007   9.329 -0.5982  1.4717  0.1238
  820MOL0     H10674   9.288   1.906   9.097  2.5173 -0.1058 -0.5549
  820MOL0     H10675   9.258   1.840   9.254  0.3814  1.9680  3.2819
  820MOL0     H10676   9.225   2.107   9.317  1.0635 -4.9947  1.5166
  820MOL0     H10677   9.098   2.031   9.227  0.1506 -0.7729  1.4586
  820MOL0     H10678   9.331   2.174   9.090  0.3317  0.7648  0.4988
  820MOL0     H10679   9.191   2.110   9.011  1.3220 -0.6097  0.3029
  820MOL0     H10680   9.464   1.381   8.919  1.0004 -2.9452 -2.2343
  820MOL0     H10681   9.277   1.214   8.916 -3.1763 -1.3644 -0.9230
  820MOL0     H10682   8.769   1.120   8.984 -0.2390 -0.2640  0.4512
  820MOL0     H10683   8.583   0.982   8.909  0.3736 -0.6966  2.6247
  820MOL0     H10684   7.062   0.422   7.806  0.3804 -1.8462 -1.6318
  820MOL0     H10685   6.839   0.326   7.822 -1.1248  2.3230  1.9225
  820MOL0     H10686   6.680   0.005   8.177  0.7005  1.1874 -1.3482
  820MOL0     H10687   6.504  -0.133   8.298  2.1246 -0.8658 -1.8803
  820MOL0     H10688   6.352  -0.421   8.163 -0.4218 -3.0355 -3.7348
  820MOL0     H10689   6.258  -0.358   8.035  1.9087 -4.3315 -0.6760
  820MOL0     H10690   6.125  -0.377   8.301 -0.0274  0.2834 -0.2701
  820MOL0     H10691   6.164  -0.525   8.211 -0.2107  0.5978  3.0917
  820MOL0     H10692   5.936  -0.483   8.121 -2.0560  1.9551  0.4332
  820MOL0     H10693   6.040  -0.410   7.998 -0.2638 -0.5025 -0.1487
  820MOL0     H10694   5.922  -0.259   8.238  0.5970  0.3316 -0.0164
  820MOL0     H10695   6.027  -0.189   8.121 -0.7039  0.5534  1.1323
  820MOL0     H10696   5.657  -0.214   7.909 -0.7969 -0.9115  1.1982
  820MOL0     H10697   6.253  -0.148   7.965 -0.3680 -0.4185  0.5228
  820MOL0     H10698   6.285  -0.008   7.780  0.9247 -0.7876 -1.7668
  820MOL0     H10699   6.406   0.121   7.780  2.4401 -0.2301  0.2683
  820MOL0     H10700   6.445  -0.050   7.730 -1.2089  1.1502 -2.1911
  821MOL0     O10701   2.512   8.480   9.055 -0.5196 -0.0325  0.5185
  821MOL0     C10702   2.414   8.499   8.989 -0.1691 -0.0520 -0.2383
  821MOL0     O10703   2.404   8.580   8.873  0.0555 -0.4152 -0.0922
  821MOL0     C10704   2.509   8.678   8.869  0.7167  0.1336 -0.4166
  821MOL0     C10705   2.610   8.662   8.780  0.2484  0.2182 -0.3109
  821MOL0     C10706   2.718   8.742   8.777 -0.6039 -0.1332  0.9767
  821MOL0     C10707   2.719   8.851   8.859  0.3331 -0.3766  0.0804
  821MOL0     O10708   2.829   8.930   8.850 -0.0086 -0.5552  0.2738
  821MOL0     C10709   2.878   8.965   8.975 -0.4561 -0.4292  0.5380
  821MOL0     C10710   3.028   9.000   8.954 -0.2255  0.0509  0.5041
  821MOL0     C10711   3.035   9.134   8.873 -0.6913  0.0589 -0.3225
  821MOL0     C10712   3.164   9.142   8.804 -0.2941 -0.5397 -0.0625
  821MOL0     C10713   3.173   9.272   8.733  0.2114 -0.3237 -0.0216
  821MOL0     C10714   3.295   9.287   8.644 -0.2688  0.2029 -0.4213
  821MOL0     C10715   3.417   9.323   8.725  0.7880 -1.0843 -0.4864
  821MOL0     C10716   3.537   9.360   8.640 -0.2827  0.2766 -0.3307
  821MOL0     N10717   3.632   9.432   8.718  0.3664 -0.2433 -0.2796
  821MOL0     C10718   3.769   9.408   8.709 -0.4375 -0.1140 -0.2394
  821MOL0     C10719   3.829   9.493   8.803  0.8296  0.6525  0.2904
  821MOL0     C10720   3.974   9.489   8.837 -0.3546  0.7612 -0.0302
  821MOL0     C10721   4.037   9.602   8.911 -0.0766 -0.5416  0.7927
  821MOL0     C10722   4.193   9.596   8.918 -0.9821 -0.1051  0.5952
  821MOL0     C10723   4.256   9.646   8.789 -0.2155 -0.0859 -0.4118
  821MOL0     O10724   4.398   9.652   8.827  0.1700 -0.0688  0.3458
  821MOL0     C10725   4.471   9.695   8.722 -0.2318  0.1602 -0.5352
  821MOL0     C10726   4.428   9.758   8.602  0.1255  0.1495  0.2511
  821MOL0     C10727   4.509   9.770   8.490  0.1258 -0.4689  0.8032
  821MOL0     C10728   4.648   9.749   8.501 -0.0534  1.1816  0.2386
  821MOL0     C10729   4.742   9.797   8.392 -0.5761  0.6394  0.2832
  821MOL0     O10730   4.865   9.731   8.377 -0.1287  0.1383  0.4190
  821MOL0     C10731   4.944   9.760   8.268 -0.1696  0.7116  0.6075
  821MOL0     C10732   5.031   9.655   8.223 -0.0359  0.6732  0.4077
  821MOL0     C10733   5.136   9.686   8.138  0.2755 -0.1909 -0.1869
  821MOL0     C10734   5.160   9.816   8.098  0.3726 -0.2842 -0.0420
  821MOL0     O10735   5.269   9.832   8.019  0.1135  0.2471  0.2732
  821MOL0     C10736   5.329   9.960   8.013  0.2506 -0.0559  0.2639
  821MOL0     C10737   5.477   9.950   7.996 -0.6326 -0.6272  0.3603
  821MOL0     C10738   5.527   9.872   7.872 -0.0848 -0.0597 -0.1970
  821MOL0     C10739   5.459   9.930   7.744  0.0114 -0.3101 -0.2082
  821MOL0     C10740   5.501   9.872   7.609  0.3775 -0.1947 -0.0515
  821MOL0     C10741   5.449   9.960   7.493 -1.0456 -0.4727  0.1905
  821MOL0     C10742   5.491   9.895   7.360  0.1574  0.2788  0.4344
  821MOL0     C10743   5.481   9.987   7.236  1.2337  0.4896  0.0754
  821MOL0    Cl10744   5.321  10.077   7.223 -0.5191  0.3900 -0.2447
  821MOL0     C10745   5.076   9.922   8.141  0.6569  0.8032  0.3201
  821MOL0     C10746   4.965   9.889   8.220  0.7509  0.0971 -0.4811
  821MOL0     O10747   4.695   9.873   8.309 -0.1926  0.3935  0.0037
  821MOL0     C10748   4.695   9.702   8.620  0.1416 -0.6847 -0.1848
  821MOL0     C10749   4.614   9.677   8.728  0.4093 -0.2872 -0.1012
  821MOL0     N10750   3.733   9.573   8.849 -0.5216 -0.0210 -0.2414
  821MOL0     N10751   3.619   9.538   8.799 -1.2888  0.4953 -0.1355
  821MOL0     C10752   2.614   8.879   8.945  0.0793 -0.9957  0.0895
  821MOL0     C10753   2.513   8.790   8.952  0.3399 -0.4461 -0.8122
  821MOL0     C10754   2.288   8.438   9.042  0.5971  0.1582  0.6949
  821MOL0     C10755   2.189   8.530   9.057  0.8846 -0.9542  0.3077
  821MOL0     C10756   2.065   8.485   9.111  0.1533 -0.4934 -0.9183
  821MOL0     C10757   2.054   8.358   9.174 -0.6139  0.6613 -0.5425
  821MOL0     O10758   1.942   8.336   9.251 -0.1339 -0.4874  0.1893
  821MOL0     C10759   1.901   8.196   9.280 -0.2361 -0.3266 -0.2639
  821MOL0     C10760   1.747   8.201   9.331  0.3438 -1.5873 -0.3714
  821MOL0     C10761   1.717   8.311   9.434 -0.8070  0.1856  0.1993
  821MOL0     C10762   1.586   8.291   9.509  0.9185 -0.5737  0.2649
  821MOL0     C10763   1.573   8.367   9.630  0.0024  0.4157 -0.3116
  821MOL0     C10764   1.590   8.421   9.740  0.6770 -0.4343 -0.5951
  821MOL0     C10765   2.158   8.276   9.165  0.0769  0.5280 -0.0446
  821MOL0     C10766   2.274   8.303   9.087  0.3141 -0.2108 -0.0186
  821MOL0     C10767   2.377   8.197   9.062  0.7533  0.0332 -0.2102
  821MOL0     H10768   2.614   8.568   8.725  0.4647  0.1173 -0.1237
  821MOL0     H10769   2.800   8.707   8.713 -0.8126  0.3740  0.4247
  821MOL0     H10770   2.823   9.051   9.012  1.2119  0.7581  0.3538
  821MOL0     H10771   2.861   8.881   9.043 -0.1151 -2.1190 -1.3730
  821MOL0     H10772   3.076   8.921   8.895 -0.5807 -0.2327  0.5926
  821MOL0     H10773   3.077   9.019   9.050  1.4400  0.6788 -0.4337
  821MOL0     H10774   3.025   9.217   8.943  0.4292 -0.5094  0.5449
  821MOL0     H10775   2.955   9.129   8.798  0.2431 -2.2178 -1.2483
  821MOL0     H10776   3.248   9.124   8.872 -0.7828  1.5095  1.1939
  821MOL0     H10777   3.167   9.064   8.728 -0.0847 -0.2808 -0.3183
  821MOL0     H10778   3.082   9.277   8.673  1.1168 -0.5620 -1.4733
  821MOL0     H10779   3.173   9.346   8.814  2.4099 -2.8949  2.5572
  821MOL0     H10780   3.320   9.203   8.577  1.4456 -0.7592  1.3256
  821MOL0     H10781   3.287   9.375   8.579 -1.0922 -0.4000 -1.1608
  821MOL0     H10782   3.442   9.230   8.776  1.8503 -1.9915 -2.5169
  821MOL0     H10783   3.396   9.404   8.795  0.1709 -1.6395 -0.0187
  821MOL0     H10784   3.589   9.272   8.603 -0.5348 -0.1954  0.4151
  821MOL0     H10785   3.518   9.418   8.549  1.7012  1.0967 -0.2789
  821MOL0     H10786   3.819   9.338   8.643  2.2455  1.7387 -0.3427
  821MOL0     H10787   3.993   9.403   8.903  0.1082  1.0550  0.2177
  821MOL0     H10788   4.017   9.458   8.741 -1.7887 -3.1293  0.4053
  821MOL0     H10789   4.017   9.703   8.872 -0.1940 -0.3437  1.3613
  821MOL0     H10790   3.996   9.601   9.012 -0.3728 -1.2408  0.6694
  821MOL0     H10791   4.218   9.492   8.942 -2.8365 -0.9104 -0.7046
  821MOL0     H10792   4.237   9.658   8.997  0.1252 -0.0828 -0.0158
  821MOL0     H10793   4.212   9.744   8.767  0.1245  0.5339  1.5101
  821MOL0     H10794   4.237   9.579   8.705  1.9018  1.0782 -1.9103
  821MOL0     H10795   4.323   9.775   8.580 -0.1061 -0.9932  0.4276
  821MOL0     H10796   4.459   9.812   8.404  2.2279 -1.3616 -0.9611
  821MOL0     H10797   5.015   9.553   8.257 -1.0131 -0.3995 -2.9134
  821MOL0     H10798   5.209   9.611   8.109  0.8690  0.4121 -0.2959
  821MOL0     H10799   5.279  10.012   7.930 -0.2039 -0.5127  0.2477
  821MOL0     H10800   5.301  10.014   8.105  1.3324 -0.8915  1.1088
  821MOL0     H10801   5.517  10.052   8.005 -3.1999  0.5461 -0.6546
  821MOL0     H10802   5.526   9.897   8.078  3.2114  0.7399 -0.8155
  821MOL0     H10803   5.636   9.877   7.870  0.1086 -1.2483  2.6370
  821MOL0     H10804   5.495   9.767   7.872 -0.1568 -0.0569  1.1121
  821MOL0     H10805   5.480  10.037   7.736 -0.6136 -0.2222 -0.8171
  821MOL0     H10806   5.351   9.914   7.755  0.2438 -0.6862  2.1536
  821MOL0     H10807   5.451   9.776   7.595  0.0188 -0.1885  1.0666
  821MOL0     H10808   5.609   9.852   7.608  0.1788 -1.4214 -2.0566
  821MOL0     H10809   5.340   9.970   7.497 -0.9964 -0.3936  1.6681
  821MOL0     H10810   5.496  10.058   7.493  1.5800 -1.5762 -2.7037
  821MOL0     H10811   5.418   9.815   7.344  1.9337 -1.2235 -0.5536
  821MOL0     H10812   5.591   9.852   7.365 -1.1601 -3.7795 -2.4943
  821MOL0     H10813   5.564  10.058   7.236 -0.1013  2.1862 -2.1421
  821MOL0     H10814   5.508   9.930   7.147  1.6617  1.7830 -0.6499
  821MOL0     H10815   5.096  10.024   8.109  1.5358  0.1261 -1.4270
  821MOL0     H10816   4.909   9.976   8.253  2.7015  0.3288  2.5816
  821MOL0     H10817   4.801   9.676   8.626  0.3262  0.1267  0.1001
  821MOL0     H10818   4.672   9.647   8.815  1.6849 -1.7904 -1.4057
  821MOL0     H10819   2.621   8.967   9.009  1.4897 -1.4797  0.6544
  821MOL0     H10820   2.443   8.825   9.028 -0.9840 -2.6298 -0.9234
  821MOL0     H10821   2.206   8.634   9.030  2.2404 -0.6099  2.2475
  821MOL0     H10822   1.972   8.538   9.129  1.4904  1.5957  0.2841
  821MOL0     H10823   1.969   8.161   9.358  0.5833  2.5245  0.4342
  821MOL0     H10824   1.912   8.131   9.193  2.3646  1.7226 -1.6353
  821MOL0     H10825   1.707   8.107   9.370 -0.3673 -1.7716 -1.5179
  821MOL0     H10826   1.695   8.226   9.239  2.7552  4.1344 -0.6128
  821MOL0     H10827   1.696   8.409   9.388 -0.0046  2.1807  3.6860
  821MOL0     H10828   1.798   8.319   9.506 -0.9023 -3.5324  0.8830
  821MOL0     H10829   1.503   8.320   9.443 -0.2895  2.5976  2.8949
  821MOL0     H10830   1.570   8.186   9.534 -1.5920 -0.2001  0.5701
  821MOL0     H10831   1.617   8.476   9.828 -2.3460  0.7158 -0.2633
  821MOL0     H10832   2.152   8.179   9.214 -0.2222  0.2020 -0.7180
  821MOL0     H10833   2.396   8.157   9.162 -1.0988  1.3275  0.7188
  821MOL0     H10834   2.342   8.116   8.997  0.1814  2.1612 -2.7170
  821MOL0     H10835   2.472   8.238   9.025  0.2652 -0.4411 -2.0722
  822MOL0     O10836   4.064   4.361   0.429  0.4272  0.0220 -0.3958
  822MOL0     C10837   4.015   4.470   0.413 -0.1755  0.1800 -1.3092
  822MOL0     O10838   3.890   4.506   0.457  0.1811  0.6725 -0.2525
  822MOL0     C10839   3.835   4.442   0.568 -0.3721 -0.9065  0.2340
  822MOL0     C10840   3.891   4.360   0.667 -0.5839  0.3430 -0.5263
  822MOL0     C10841   3.805   4.299   0.763  0.4416  0.3346 -0.2112
  822MOL0     C10842   3.669   4.319   0.763  0.3982 -0.5809 -0.0956
  822MOL0     O10843   3.599   4.250   0.854 -0.5052  0.2694  0.4000
  822MOL0     C10844   3.458   4.220   0.831 -0.7150 -0.2577  0.3042
  822MOL0     C10845   3.410   4.156   0.956  0.2389 -0.3341 -0.6151
  822MOL0     C10846   3.290   4.054   0.939  0.6483 -0.2759 -0.4078
  822MOL0     C10847   3.271   3.965   1.060  0.1017  0.4009 -0.1773
  822MOL0     C10848   3.383   3.868   1.092 -0.9672  0.4317  0.2792
  822MOL0     C10849   3.326   3.749   1.167 -0.3716  0.1701 -0.8009
  822MOL0     C10850   3.433   3.645   1.207  0.0943 -0.1061  0.1207
  822MOL0     C10851   3.543   3.703   1.293  0.7160 -0.2364 -0.0070
  822MOL0     N10852   3.495   3.749   1.419  0.2132 -0.8566  0.2330
  822MOL0     C10853   3.485   3.672   1.534 -0.3041 -0.1715 -0.2658
  822MOL0     C10854   3.437   3.757   1.622  0.4265  0.5569  0.7894
  822MOL0     C10855   3.433   3.721   1.772  0.0642 -0.5611 -0.1793
  822MOL0     C10856   3.298   3.741   1.840  0.3848 -0.5007 -1.0655
  822MOL0     C10857   3.192   3.634   1.801  0.1521  0.3041  0.1576
  822MOL0     C10858   3.053   3.661   1.871 -0.4891  0.7835  0.3381
  822MOL0     O10859   2.994   3.541   1.926 -0.2541  0.3317 -0.1672
  822MOL0     C10860   2.870   3.540   1.988 -0.2409 -0.6516  0.1412
  822MOL0     C10861   2.793   3.661   2.003  0.7711  0.2364 -0.4069
  822MOL0     C10862   2.666   3.658   2.060  0.8567 -0.0331 -0.0676
  822MOL0     C10863   2.619   3.545   2.124 -0.0614  0.0297  0.2025
  822MOL0     C10864   2.493   3.541   2.202  1.2716 -0.0349 -0.2884
  822MOL0     O10865   2.471   3.429   2.283  0.0850 -0.1765 -0.5648
  822MOL0     C10866   2.355   3.434   2.353 -1.2450 -0.8695 -0.1420
  822MOL0     C10867   2.255   3.353   2.314 -0.2272  0.6998  1.0003
  822MOL0     C10868   2.141   3.335   2.393 -0.0420  0.0288 -0.9533
  822MOL0     C10869   2.142   3.402   2.521 -0.0014  0.0395 -0.6989
  822MOL0     O10870   2.027   3.405   2.599  0.1917  0.5508 -0.0736
  822MOL0     C10871   1.971   3.281   2.648  0.5951 -0.3664 -0.2284
  822MOL0     C10872   1.824   3.287   2.705  0.7905  0.4915 -0.1139
  822MOL0     C10873   1.747   3.357   2.588 -0.5613 -0.1076  0.3121
  822MOL0     C10874   1.600   3.351   2.612  0.4970 -0.4188  0.7139
  822MOL0     C10875   1.526   3.447   2.516  0.6607 -0.2765  0.9889
  822MOL0     C10876   1.375   3.435   2.522  0.4238 -0.6473  0.1316
  822MOL0     C10877   1.302   3.504   2.403  0.1861  0.4574  0.8908
  822MOL0     C10878   1.251   3.641   2.440  0.0836 -0.1107 -0.2289
  822MOL0    Cl10879   1.098   3.631   2.531  0.5087 -0.0442 -0.3967
  822MOL0     C10880   2.243   3.488   2.561  0.5869 -0.0025 -0.7757
  822MOL0     C10881   2.349   3.508   2.470 -0.0055  0.7697  0.3404
  822MOL0     O10882   2.415   3.633   2.189  0.3568  0.1808 -0.7402
  822MOL0     C10883   2.700   3.426   2.126  0.0344 -0.4866 -0.3515
  822MOL0     C10884   2.826   3.432   2.054 -0.2387  0.0972  0.2853
  822MOL0     N10885   3.412   3.883   1.564 -0.3449 -0.2770  0.5660
  822MOL0     N10886   3.441   3.878   1.440 -0.4754  0.0112  0.1409
  822MOL0     C10887   3.620   4.415   0.680  0.1605  0.3198 -0.1703
  822MOL0     C10888   3.701   4.474   0.578 -0.1852 -0.6518 -0.5628
  822MOL0     C10889   4.080   4.574   0.322 -0.9119  0.0868 -0.9832
  822MOL0     C10890   4.015   4.697   0.285  0.1180 -0.2521 -0.0502
  822MOL0     C10891   4.066   4.797   0.202 -0.8499  0.6842  0.3892
  822MOL0     C10892   4.188   4.775   0.141 -0.6565 -0.4448  0.5425
  822MOL0     O10893   4.239   4.857   0.050  0.0710 -0.2584  0.1353
  822MOL0     C10894   4.175   4.973  -0.001 -0.2276 -0.0856  0.8383
  822MOL0     C10895   4.240   5.032  -0.128 -0.2568  0.3020 -0.2239
  822MOL0     C10896   4.390   5.034  -0.119  0.4619  0.5540  1.4501
  822MOL0     C10897   4.449   5.148  -0.203  0.5996 -0.3329  0.4102
  822MOL0     C10898   4.434   5.126  -0.350  0.0869 -0.4306 -0.4406
  822MOL0     C10899   4.414   5.097  -0.469  0.1945  0.7168 -0.2752
  822MOL0     C10900   4.253   4.654   0.169 -0.1099 -0.3730  0.7735
  822MOL0     C10901   4.207   4.555   0.255  0.0285 -0.0653  0.0969
  822MOL0     C10902   4.295   4.434   0.272 -0.4144  0.0596  0.2450
  822MOL0     H10903   3.997   4.335   0.664 -1.0855 -2.4648  1.4410
  822MOL0     H10904   3.851   4.237   0.839  2.0697 -0.8527 -2.0363
  822MOL0     H10905   3.399   4.310   0.816 -2.0158 -0.4856  3.3088
  822MOL0     H10906   3.432   4.178   0.733  0.3120 -0.4208  0.0869
  822MOL0     H10907   3.376   4.235   1.023  0.8490  0.5527 -1.3229
  822MOL0     H10908   3.492   4.108   1.010  1.3777  2.4190  0.2835
  822MOL0     H10909   3.295   3.987   0.853 -0.5803  1.0894 -1.6061
  822MOL0     H10910   3.201   4.117   0.928  2.4600  2.6078  0.2437
  822MOL0     H10911   3.237   4.013   1.153 -1.3771 -0.6425 -0.1346
  822MOL0     H10912   3.178   3.909   1.044  0.0131  0.2608  0.7373
  822MOL0     H10913   3.427   3.830   1.000  0.9953  3.3783 -0.1600
  822MOL0     H10914   3.463   3.908   1.155  0.5813 -1.3585 -0.4604
  822MOL0     H10915   3.275   3.782   1.257  1.2856  0.8010 -0.0547
  822MOL0     H10916   3.248   3.713   1.099 -1.6548  0.8163  0.2936
  822MOL0     H10917   3.475   3.606   1.114 -1.9390 -1.2854 -0.3520
  822MOL0     H10918   3.388   3.563   1.264 -1.4176 -0.8337 -1.9941
  822MOL0     H10919   3.624   3.634   1.317  2.7224  1.6416 -0.9956
  822MOL0     H10920   3.597   3.782   1.239  2.1140 -1.9985 -1.3240
  822MOL0     H10921   3.523   3.571   1.547  0.4060  0.1064 -0.0947
  822MOL0     H10922   3.465   3.618   1.786 -3.4440 -1.4680  2.7571
  822MOL0     H10923   3.507   3.781   1.825  0.9541 -1.7811 -0.0189
  822MOL0     H10924   3.300   3.738   1.950 -7.3625 -0.2479 -0.3727
  822MOL0     H10925   3.261   3.835   1.800  1.6227  0.2701 -0.4728
  822MOL0     H10926   3.231   3.534   1.822  1.8257  1.3756  2.7191
  822MOL0     H10927   3.178   3.637   1.693  0.7565 -0.4142  0.0489
  822MOL0     H10928   2.989   3.716   1.802  0.7215  1.6494 -0.1366
  822MOL0     H10929   3.072   3.720   1.962 -0.4930  0.7567  0.3565
  822MOL0     H10930   2.810   3.760   1.962  1.0618  0.2987 -0.1431
  822MOL0     H10931   2.600   3.744   2.062 -1.1847 -1.4826 -1.0463
  822MOL0     H10932   2.276   3.299   2.222 -2.7134  2.8741 -1.0130
  822MOL0     H10933   2.058   3.270   2.369 -1.2400  1.2530 -0.2802
  822MOL0     H10934   1.977   3.204   2.571 -1.1882 -0.3664 -0.3984
  822MOL0     H10935   2.032   3.245   2.732 -2.5660 -0.8414  2.0359
  822MOL0     H10936   1.788   3.186   2.726  2.3445 -0.3891 -1.4512
  822MOL0     H10937   1.807   3.347   2.795 -0.4196 -0.0106  0.0141
  822MOL0     H10938   1.780   3.460   2.577  0.1038 -0.3750 -0.2651
  822MOL0     H10939   1.769   3.304   2.495  3.7790  0.8423  0.5830
  822MOL0     H10940   1.568   3.370   2.715 -0.9338 -1.4946  0.4956
  822MOL0     H10941   1.562   3.253   2.583 -1.5155  0.9923 -1.8602
  822MOL0     H10942   1.567   3.415   2.420 -3.2136  1.3906 -1.4710
  822MOL0     H10943   1.557   3.550   2.533 -1.6734  0.3202  2.1226
  822MOL0     H10944   1.343   3.332   2.540 -0.9134 -0.5827 -1.5736
  822MOL0     H10945   1.332   3.483   2.610  3.2124  0.9767  0.7407
  822MOL0     H10946   1.215   3.449   2.367 -1.2199  2.5133  0.9722
  822MOL0     H10947   1.367   3.516   2.316  0.1683  0.2689  0.8513
  822MOL0     H10948   1.332   3.691   2.493 -1.4278  1.6266  0.5478
  822MOL0     H10949   1.230   3.704   2.352 -1.2403  0.2656  0.3389
  822MOL0     H10950   2.230   3.534   2.658  3.4897 -1.7568  0.6052
  822MOL0     H10951   2.434   3.570   2.497  0.4699  0.7391 -1.0182
  822MOL0     H10952   2.680   3.344   2.193  0.5711  0.7899  1.4341
  822MOL0     H10953   2.898   3.351   2.054 -1.8762 -1.5709 -2.9928
  822MOL0     H10954   3.513   4.435   0.685  0.0165 -0.2849 -0.6601
  822MOL0     H10955   3.670   4.542   0.499  0.5396 -0.9880 -1.1453
  822MOL0     H10956   3.916   4.706   0.328  0.8472 -3.7006  2.7946
  822MOL0     H10957   4.009   4.888   0.188 -0.1577  0.7186 -2.8948
  822MOL0     H10958   4.170   5.045   0.082 -0.0665  1.2143 -0.2478
  822MOL0     H10959   4.073   4.953  -0.037  0.5495 -1.7734 -0.5398
  822MOL0     H10960   4.210   5.136  -0.140 -1.6730 -0.3290 -3.2483
  822MOL0     H10961   4.206   4.968  -0.210  0.7851 -2.4017  1.3194
  822MOL0     H10962   4.428   4.941  -0.163  0.6740  1.1312  0.3565
  822MOL0     H10963   4.426   5.031  -0.016  1.0202  3.0675  1.4082
  822MOL0     H10964   4.398   5.240  -0.174 -1.6497 -1.4936  0.3961
  822MOL0     H10965   4.554   5.156  -0.174 -0.3155  0.1805  4.0923
  822MOL0     H10966   4.405   5.061  -0.569 -0.2200 -0.8067  0.2732
  822MOL0     H10967   4.352   4.646   0.125 -0.3464 -1.7966  0.4455
  822MOL0     H10968   4.393   4.449   0.226 -0.2132  2.3966  1.2800
  822MOL0     H10969   4.311   4.416   0.379 -0.7483 -0.3005  0.2362
  822MOL0     H10970   4.243   4.347   0.232 -1.6658 -0.0972  2.0736
  823MOL0     O10971   9.495  10.718   9.803 -1.0376  0.5370 -0.1412
  823MOL0     C10972   9.545  10.668   9.705  0.0676  0.0981 -0.8547
  823MOL0     O10973   9.483  10.633   9.592 -0.2692 -0.8390  0.4312
  823MOL0     C10974   9.352  10.669   9.582  0.1746 -0.2016 -0.6017
  823MOL0     C10975   9.255  10.575   9.624  0.3686  0.3865  0.8188
  823MOL0     C10976   9.119  10.608   9.621 -0.9237 -0.5125 -0.5271
  823MOL0     C10977   9.079  10.740   9.596 -0.6927 -0.2940  0.2990
  823MOL0     O10978   8.949  10.776   9.626  0.1181 -0.7490  0.0978
  823MOL0     C10979   8.882  10.868   9.541  1.2694 -0.2870  0.2397
  823MOL0     C10980   8.735  10.832   9.544 -0.1084  0.5300 -0.0999
  823MOL0     C10981   8.665  10.930   9.445  0.6287 -1.2098 -0.3512
  823MOL0     C10982   8.514  10.902   9.424  0.2020  0.0387  0.0076
  823MOL0     C10983   8.447  10.968   9.294 -0.3785 -0.1223 -0.0256
  823MOL0     C10984   8.395  11.116   9.308  1.1601 -1.1462 -0.2946
  823MOL0     C10985   8.307  11.176   9.210  0.1222 -0.1298  0.4653
  823MOL0     C10986   8.340  11.123   9.066 -0.6448  0.2912 -0.3243
  823MOL0     N10987   8.460  11.187   9.004  0.8551  0.2286 -0.7281
  823MOL0     C10988   8.590  11.125   9.001  0.4340  0.5290 -0.4988
  823MOL0     C10989   8.664  11.226   8.954  0.0079 -0.4006  0.4949
  823MOL0     C10990   8.811  11.215   8.929 -1.2366 -0.8404 -0.4104
  823MOL0     C10991   8.897  11.347   8.939 -0.3854 -0.1497  0.2337
  823MOL0     C10992   9.043  11.329   8.884  0.5136  0.8930  0.4138
  823MOL0     C10993   9.124  11.261   8.997 -0.2593  0.3952  0.2364
  823MOL0     O10994   9.246  11.225   8.941 -0.2106  0.8083  0.7379
  823MOL0     C10995   9.352  11.313   8.936 -0.4755 -0.3927  0.1274
  823MOL0     C10996   9.354  11.445   8.981 -0.3174 -0.2808 -0.6711
  823MOL0     C10997   9.461  11.529   8.975  0.6119  0.2606 -0.1621
  823MOL0     C10998   9.585  11.480   8.928 -0.5076  0.4252  1.2937
  823MOL0     C10999   9.708  11.561   8.922 -0.0592 -0.0875 -0.1149
  823MOL0     O11000   9.821  11.499   8.868  0.2655 -0.8317  0.3310
  823MOL0     C11001   9.944  11.569   8.850 -0.5773  0.4811  0.9852
  823MOL0     C11002   9.962  11.709   8.828  0.7091 -0.4508 -0.0297
  823MOL0     C11003  10.097  11.750   8.813 -0.2768  0.3732  0.7704
  823MOL0     C11004  10.206  11.663   8.803 -0.4635  0.6945 -0.0732
  823MOL0     O11005  10.324  11.730   8.785 -0.1427 -0.2821 -0.1573
  823MOL0     C11006  10.440  11.665   8.721  0.1152 -0.5426 -0.6535
  823MOL0     C11007  10.543  11.776   8.665 -0.1825  0.6314  0.6123
  823MOL0     C11008  10.661  11.701   8.610  0.3371 -0.3057 -0.2550
  823MOL0     C11009  10.760  11.799   8.541  0.5713 -1.3792 -0.0087
  823MOL0     C11010  10.896  11.733   8.500  0.9726 -0.2349  0.3159
  823MOL0     C11011  10.892  11.596   8.442  0.8691 -0.0112 -0.0961
  823MOL0     C11012  11.015  11.555   8.373 -0.3819 -0.3525 -0.1131
  823MOL0     C11013  11.044  11.412   8.365  1.2229  0.1237  0.4713
  823MOL0    Cl11014  10.951  11.343   8.226 -0.1181  0.8966 -0.2227
  823MOL0     C11015  10.184  11.523   8.818  0.1754 -0.5480  0.7547
  823MOL0     C11016  10.055  11.479   8.850  0.0737 -0.0521 -0.1533
  823MOL0     O11017   9.694  11.676   8.965 -0.0329  0.0459  0.4172
  823MOL0     C11018   9.581  11.357   8.873 -0.0001 -0.0367 -0.6960
  823MOL0     C11019   9.471  11.272   8.874  0.3496 -0.3612  0.6491
  823MOL0     N11020   8.590  11.338   8.922 -0.1754  0.5636  0.1975
  823MOL0     N11021   8.465  11.312   8.950  1.5076  0.7270  0.5513
  823MOL0     C11022   9.180  10.827   9.550 -0.3331  0.2768 -0.6368
  823MOL0     C11023   9.314  10.796   9.534  0.2187  0.4543  0.6731
  823MOL0     C11024   9.691  10.650   9.711 -1.1168  0.3800  0.5827
  823MOL0     C11025   9.756  10.600   9.585 -0.1198 -0.7115 -1.4772
  823MOL0     C11026   9.900  10.597   9.585  0.6525 -0.1252  0.9687
  823MOL0     C11027   9.975  10.632   9.692 -0.1225  0.5903  1.1390
  823MOL0     O11028  10.107  10.618   9.664 -0.0616 -0.2963  0.4269
  823MOL0     C11029  10.206  10.612   9.768 -0.4692 -0.8283 -0.1139
  823MOL0     C11030  10.195  10.492   9.863 -0.1112 -0.1485 -0.2699
  823MOL0     C11031  10.325  10.469   9.948  0.3687  0.3090 -0.1689
  823MOL0     C11032  10.355  10.566  10.073  0.0191 -0.5551  0.4419
  823MOL0     C11033  10.243  10.580  10.166 -0.3737 -0.9707 -0.0850
  823MOL0     C11034  10.136  10.602  10.225 -0.1885 -0.4876 -0.1357
  823MOL0     C11035   9.915  10.669   9.811 -0.8251  0.7468 -0.1994
  823MOL0     C11036   9.778  10.674   9.825 -0.2933 -0.2164 -0.2170
  823MOL0     C11037   9.726  10.693   9.967 -0.7297  0.1834  0.3655
  823MOL0     H11038   9.277  10.474   9.657 -2.6166 -0.5022  0.4319
  823MOL0     H11039   9.043  10.534   9.644 -1.4424  0.5659  1.4735
  823MOL0     H11040   8.886  10.967   9.588 -1.7218  0.5005 -0.9684
  823MOL0     H11041   8.919  10.865   9.438  2.1555 -0.7156  0.5583
  823MOL0     H11042   8.679  10.842   9.637 -0.4228  0.1048 -0.2384
  823MOL0     H11043   8.717  10.730   9.511  0.3940  1.0796 -2.2327
  823MOL0     H11044   8.721  10.921   9.352 -0.6982  1.4837 -1.5008
  823MOL0     H11045   8.672  11.037   9.466  2.6113 -0.8331 -2.5080
  823MOL0     H11046   8.500  10.793   9.423  3.2243 -0.4906  1.3262
  823MOL0     H11047   8.455  10.933   9.510 -0.9137 -1.3392 -0.2178
  823MOL0     H11048   8.517  10.963   9.210 -1.0736 -1.9366 -0.5583
  823MOL0     H11049   8.358  10.908   9.273 -0.4296  0.1317 -0.5427
  823MOL0     H11050   8.335  11.105   9.399  0.1135 -2.2610 -1.0776
  823MOL0     H11051   8.475  11.189   9.326  0.1159  0.4456 -1.8171
  823MOL0     H11052   8.325  11.284   9.204 -1.4005  0.2869  2.3212
  823MOL0     H11053   8.204  11.168   9.247  0.2308 -0.4058  0.7154
  823MOL0     H11054   8.340  11.014   9.057 -2.9994  0.1256  0.8167
  823MOL0     H11055   8.259  11.151   8.998 -1.2294 -0.3517  0.0944
  823MOL0     H11056   8.622  11.024   9.027 -0.1086  0.8500  1.5523
  823MOL0     H11057   8.850  11.152   9.009 -1.7543  0.2107  0.7086
  823MOL0     H11058   8.837  11.180   8.828 -1.2407  0.5297 -0.9139
  823MOL0     H11059   8.852  11.418   8.869  0.0635 -0.3741 -0.2879
  823MOL0     H11060   8.892  11.404   9.033  1.9553 -0.1836  0.4325
  823MOL0     H11061   9.086  11.425   8.853  1.9992 -0.4879 -2.1134
  823MOL0     H11062   9.027  11.271   8.793  1.1817  0.7185  0.4007
  823MOL0     H11063   9.068  11.178   9.041  0.1731 -0.5980 -1.0396
  823MOL0     H11064   9.127  11.339   9.073  0.5185  0.0145  0.6122
  823MOL0     H11065   9.258  11.481   9.015 -2.9582 -2.3000 -5.0746
  823MOL0     H11066   9.438  11.626   9.019 -0.0413  0.2593 -0.4956
  823MOL0     H11067   9.878  11.777   8.820  1.5232  0.4390 -1.6888
  823MOL0     H11068  10.116  11.857   8.810 -2.1817  0.7195 -0.9928
  823MOL0     H11069  10.500  11.600   8.785  0.3431 -2.4609 -2.6734
  823MOL0     H11070  10.404  11.617   8.629 -1.2643 -0.5545 -0.1401
  823MOL0     H11071  10.495  11.832   8.584 -0.2462 -0.7519 -0.3416
  823MOL0     H11072  10.567  11.847   8.745 -0.5770 -0.2471  1.5300
  823MOL0     H11073  10.710  11.651   8.694  0.1465  1.1314  0.7584
  823MOL0     H11074  10.630  11.628   8.534  2.2188 -0.7213 -0.6663
  823MOL0     H11075  10.787  11.872   8.617 -2.0093 -0.1997 -0.1430
  823MOL0     H11076  10.717  11.857   8.459  0.2863 -0.7888  0.5507
  823MOL0     H11077  10.958  11.726   8.590 -0.2429  0.3070  1.2218
  823MOL0     H11078  10.924  11.804   8.422  1.9101  0.0294  0.8731
  823MOL0     H11079  10.863  11.513   8.508  0.6504 -1.2004 -1.6137
  823MOL0     H11080  10.824  11.597   8.356  0.6239  0.5630  0.1001
  823MOL0     H11081  11.101  11.603   8.422  0.5118 -0.2320 -1.7210
  823MOL0     H11082  11.019  11.596   8.272  1.8407  0.8886  0.3976
  823MOL0     H11083  11.151  11.407   8.343  1.3606  0.3690  1.0750
  823MOL0     H11084  11.023  11.367   8.463  2.9335 -1.9479 -0.0365
  823MOL0     H11085  10.267  11.454   8.829 -0.9406 -2.0637 -0.0317
  823MOL0     H11086  10.035  11.374   8.867 -0.0985  0.1366  0.8644
  823MOL0     H11087   9.666  11.315   8.821 -0.4880 -0.7751 -0.9111
  823MOL0     H11088   9.461  11.184   8.811 -0.5348  0.3726 -0.2653
  823MOL0     H11089   9.155  10.932   9.537  2.1396  0.9180 -0.7558
  823MOL0     H11090   9.381  10.875   9.500  1.3214 -0.1090  1.4707
  823MOL0     H11091   9.708  10.569   9.493  2.3220  0.6249 -3.3273
  823MOL0     H11092   9.945  10.576   9.489  0.4993 -1.4857  1.1848
  823MOL0     H11093  10.219  10.705   9.823 -0.3350  0.9047 -2.8770
  823MOL0     H11094  10.297  10.600   9.708  0.9390 -0.8409  1.9144
  823MOL0     H11095  10.178  10.406   9.798  0.1581 -1.5360  1.4053
  823MOL0     H11096  10.111  10.494   9.934 -0.1249 -2.8704 -0.1249
  823MOL0     H11097  10.411  10.470   9.880 -1.3444 -1.9287 -2.5928
  823MOL0     H11098  10.313  10.366   9.982  2.7801  0.5145  1.5276
  823MOL0     H11099  10.442  10.530  10.128 -0.0290 -1.9343 -0.3255
  823MOL0     H11100  10.376  10.668  10.038  0.3779  0.8809  4.4027
  823MOL0     H11101  10.043  10.637  10.266 -0.3901  0.2300 -1.1792
  823MOL0     H11102   9.973  10.661   9.902  1.0606 -0.3408 -1.4189
  823MOL0     H11103   9.797  10.667  10.046  0.2272  1.8911  0.1105
  823MOL0     H11104   9.721  10.800   9.990  1.0819 -0.2638  3.4437
  823MOL0     H11105   9.635  10.635   9.982  0.3095 -1.8877 -0.9623
  824MOL0     O11106   3.369   5.397  11.159 -0.1770  0.9086  0.2550
  824MOL0     C11107   3.271   5.464  11.173  0.8619  0.0805 -0.5158
  824MOL0     O11108   3.266   5.600  11.196 -0.2605  0.3024 -0.6523
  824MOL0     C11109   3.385   5.668  11.199  1.2789  0.6061 -1.0208
  824MOL0     C11110   3.469   5.664  11.090  0.5623 -0.3361  0.8456
  824MOL0     C11111   3.589   5.733  11.089 -0.2495 -0.0625  0.0921
  824MOL0     C11112   3.621   5.812  11.200  0.2355 -0.4654  0.3420
  824MOL0     O11113   3.735   5.886  11.205 -0.2096  0.3905 -0.0009
  824MOL0     C11114   3.847   5.843  11.127 -0.1134 -0.4237  0.4907
  824MOL0     C11115   3.844   5.923  10.996  0.4640 -0.1552  0.6781
  824MOL0     C11116   3.929   5.847  10.881 -0.6886  0.0098 -0.3647
  824MOL0     C11117   3.920   5.944  10.771  1.0983 -0.7417  0.9238
  824MOL0     C11118   3.969   5.860  10.646  0.4370  0.5531 -0.6395
  824MOL0     C11119   3.970   5.931  10.509 -0.2985  0.2516  0.0711
  824MOL0     C11120   4.087   6.031  10.515 -0.2430  0.3519  0.1708
  824MOL0     C11121   4.090   6.142  10.413  0.1605  0.4706 -0.7386
  824MOL0     N11122   4.105   6.090  10.281  0.3523 -0.2988  0.3107
  824MOL0     C11123   4.014   6.023  10.202 -0.5626  0.8801  0.8077
  824MOL0     C11124   4.076   6.005  10.084 -0.0222  0.0417 -0.2128
  824MOL0     C11125   4.019   5.936   9.963 -0.0600  0.2610  0.2510
  824MOL0     C11126   4.109   5.845   9.875  0.4363  0.0296 -0.2587
  824MOL0     C11127   4.080   5.695   9.873 -0.2367 -1.0449 -0.3560
  824MOL0     C11128   4.093   5.635  10.014 -0.0875 -0.1930  0.1927
  824MOL0     O11129   4.222   5.668  10.068  0.1120 -0.4060 -0.3857
  824MOL0     C11130   4.249   5.619  10.188  0.1025  0.3411 -0.1797
  824MOL0     C11131   4.295   5.711  10.277  1.0781 -0.6028 -0.9918
  824MOL0     C11132   4.315   5.680  10.413 -0.0338  0.0519 -0.6912
  824MOL0     C11133   4.314   5.551  10.463 -0.0912  0.4063 -1.2793
  824MOL0     C11134   4.352   5.509  10.602 -0.6957  0.4285  0.4151
  824MOL0     O11135   4.358   5.604  10.704  0.4128  0.1734 -0.2186
  824MOL0     C11136   4.339   5.546  10.827 -0.0350 -1.2275  0.4022
  824MOL0     C11137   4.450   5.519  10.913 -0.3577 -0.4081 -0.0282
  824MOL0     C11138   4.427   5.488  11.049 -0.7382 -0.6609 -0.4034
  824MOL0     C11139   4.302   5.500  11.104  0.7025  0.1746  0.0997
  824MOL0     O11140   4.295   5.490  11.244 -0.8102  0.1863  1.4738
  824MOL0     C11141   4.169   5.489  11.308 -0.0305 -0.0632 -0.0414
  824MOL0     C11142   4.190   5.481  11.458 -0.0481 -0.1395  0.1189
  824MOL0     C11143   4.278   5.363  11.495 -0.7586 -0.0845 -0.1971
  824MOL0     C11144   4.320   5.371  11.645  0.8983  0.8432  0.0621
  824MOL0     C11145   4.414   5.265  11.709  0.2779 -0.3059  0.2600
  824MOL0     C11146   4.341   5.132  11.757 -0.0982  0.0835 -0.0332
  824MOL0     C11147   4.419   5.037  11.849 -0.1273 -0.0355 -0.2776
  824MOL0     C11148   4.356   4.903  11.862 -0.2625  0.2745 -0.1809
  824MOL0    Cl11149   4.452   4.804  11.971  0.1094  0.2666 -0.1367
  824MOL0     C11150   4.195   5.518  11.014  0.6392  0.4420  0.3098
  824MOL0     C11151   4.205   5.538  10.875 -0.3338 -0.4935 -0.5367
  824MOL0     O11152   4.341   5.386  10.613 -0.2632  0.0810  0.3215
  824MOL0     C11153   4.268   5.459  10.364 -0.3274 -0.6157 -0.2717
  824MOL0     C11154   4.243   5.485  10.227  0.8500  0.0749 -0.4876
  824MOL0     N11155   4.203   6.053  10.081  0.4682 -0.2121 -0.5229
  824MOL0     N11156   4.217   6.104  10.201 -0.0085 -0.2736 -0.2063
  824MOL0     C11157   3.537   5.819  11.310 -0.0270  0.8581  0.1065
  824MOL0     C11158   3.407   5.754  11.305 -0.3343 -0.2075 -0.3472
  824MOL0     C11159   3.145   5.389  11.129 -0.2006  0.8388  0.4409
  824MOL0     C11160   3.043   5.487  11.095  0.1486 -0.6528  0.2817
  824MOL0     C11161   2.919   5.438  11.058 -0.4286  0.2655  1.0120
  824MOL0     C11162   2.892   5.298  11.047 -0.3407  0.7423 -0.1945
  824MOL0     O11163   2.777   5.236  11.000 -0.1913 -0.1611  0.5581
  824MOL0     C11164   2.646   5.294  11.007  1.0965  0.1128 -0.2829
  824MOL0     C11165   2.603   5.336  11.145 -0.2280 -0.0164  1.3709
  824MOL0     C11166   2.613   5.213  11.237 -0.7342 -0.0923 -0.1898
  824MOL0     C11167   2.611   5.258  11.387 -0.0570  0.4224 -0.4826
  824MOL0     C11168   2.473   5.287  11.430 -0.4768 -0.9003  0.5721
  824MOL0     C11169   2.360   5.320  11.464  0.5910  0.3685  0.2726
  824MOL0     C11170   2.995   5.212  11.081 -0.0764  0.3734 -1.4979
  824MOL0     C11171   3.113   5.251  11.133 -0.0971 -0.2119 -0.2137
  824MOL0     C11172   3.206   5.145  11.190 -0.0567  0.1285 -0.4254
  824MOL0     H11173   3.435   5.600  11.010 -2.6219  0.3866  1.5101
  824MOL0     H11174   3.645   5.724  10.996 -1.8143  2.5127 -1.2093
  824MOL0     H11175   3.944   5.857  11.176 -1.7477  3.2454  3.1147
  824MOL0     H11176   3.845   5.734  11.122  0.1753 -0.5969  2.8425
  824MOL0     H11177   3.881   6.026  11.006 -0.0985  0.0851  0.2750
  824MOL0     H11178   3.738   5.930  10.972 -0.5292 -0.2003  4.4303
  824MOL0     H11179   3.888   5.751  10.849 -0.5738  0.5894 -2.3668
  824MOL0     H11180   4.033   5.836  10.912 -0.6701  1.4239  0.1810
  824MOL0     H11181   3.818   5.979  10.758  1.6316  0.7321  0.5304
  824MOL0     H11182   3.986   6.031  10.783  1.1466 -0.4308 -1.2311
  824MOL0     H11183   4.063   5.807  10.664  0.3744  0.2883 -1.0833
  824MOL0     H11184   3.893   5.782  10.634  0.7099  0.3689 -1.2229
  824MOL0     H11185   3.991   5.863  10.427 -1.5246  0.9760 -0.8774
  824MOL0     H11186   3.874   5.981  10.493 -0.7083  0.7423  3.3318
  824MOL0     H11187   4.179   5.972  10.520 -0.0625  0.5386 -0.7394
  824MOL0     H11188   4.091   6.081  10.612 -0.1587 -1.8919  1.4031
  824MOL0     H11189   3.999   6.202  10.424 -0.8141 -1.0213 -0.3794
  824MOL0     H11190   4.183   6.195  10.438 -0.7336  0.7676  2.4128
  824MOL0     H11191   3.918   5.987  10.237 -0.3870  0.5475  0.9492
  824MOL0     H11192   3.935   5.885  10.010 -0.3678  1.2924  0.8306
  824MOL0     H11193   3.966   6.008   9.899  2.8012  0.7908 -1.7432
  824MOL0     H11194   4.094   5.892   9.778  0.3978  1.9531  0.6259
  824MOL0     H11195   4.215   5.865   9.895  0.3158 -1.4740  2.3890
  824MOL0     H11196   4.130   5.645   9.790 -1.7299  0.3495 -2.1696
  824MOL0     H11197   3.974   5.691   9.846 -0.6941  2.7090  0.3127
  824MOL0     H11198   4.080   5.527  10.012 -0.7728 -0.0994 -1.2487
  824MOL0     H11199   4.013   5.668  10.081 -1.5752 -1.5770 -0.8475
  824MOL0     H11200   4.316   5.811  10.241  0.1795  0.9564  2.4458
  824MOL0     H11201   4.342   5.764  10.476  0.3886  0.3801 -1.2992
  824MOL0     H11202   4.555   5.534  10.891  0.2309  0.1116  2.7997
  824MOL0     H11203   4.510   5.462  11.114  1.8637  1.8756 -2.4126
  824MOL0     H11204   4.110   5.579  11.288 -3.5181 -1.6522  2.0189
  824MOL0     H11205   4.105   5.405  11.281 -3.5694  2.7040 -1.1410
  824MOL0     H11206   4.236   5.574  11.494  0.5999 -0.2094 -0.4966
  824MOL0     H11207   4.097   5.472  11.514  0.4239  0.6462  1.0590
  824MOL0     H11208   4.228   5.267  11.480  0.7656 -1.1224  1.0278
  824MOL0     H11209   4.362   5.365  11.424 -2.3030  2.6866 -2.1594
  824MOL0     H11210   4.225   5.369  11.699  1.9953  1.5548  2.1337
  824MOL0     H11211   4.365   5.468  11.667  0.4323  1.3606 -1.1745
  824MOL0     H11212   4.467   5.305  11.796 -0.0086 -0.7210  0.6281
  824MOL0     H11213   4.490   5.246  11.633 -2.8111 -0.1546 -3.1084
  824MOL0     H11214   4.245   5.159  11.802 -1.1079 -2.4748 -0.5116
  824MOL0     H11215   4.314   5.078  11.666  2.2688 -3.5101  1.1551
  824MOL0     H11216   4.424   5.092  11.944  0.6215 -1.2913  0.4407
  824MOL0     H11217   4.523   5.027  11.817  1.0139  3.0436  1.9455
  824MOL0     H11218   4.256   4.912  11.907 -0.3436 -0.4423 -0.2052
  824MOL0     H11219   4.351   4.851  11.766 -0.7096 -3.1685  1.5712
  824MOL0     H11220   4.095   5.519  11.057  0.2040  4.0449 -0.5245
  824MOL0     H11221   4.120   5.566  10.814  1.1685  1.1400 -2.0184
  824MOL0     H11222   4.263   5.354  10.390 -1.7593  0.1466  2.9981
  824MOL0     H11223   4.220   5.413  10.150  2.2220 -1.5415  0.5376
  824MOL0     H11224   3.568   5.866  11.402 -0.5751  0.8032  0.3202
  824MOL0     H11225   3.340   5.748  11.390 -0.4657 -0.8736 -0.4922
  824MOL0     H11226   3.064   5.593  11.104  2.4546 -1.1641  1.6943
  824MOL0     H11227   2.840   5.500  11.017  0.5887 -0.2830 -2.0269
  824MOL0     H11228   2.580   5.225  10.955  0.8264 -0.0311  0.2401
  824MOL0     H11229   2.658   5.378  10.939  0.1525 -1.3084 -2.2843
  824MOL0     H11230   2.508   5.391  11.150 -0.4967  0.0525 -2.1029
  824MOL0     H11231   2.672   5.416  11.175 -0.1288  1.6567 -2.6742
  824MOL0     H11232   2.707   5.159  11.222  0.0471  1.1108  0.2131
  824MOL0     H11233   2.534   5.144  11.208 -1.8588  0.5952  1.0873
  824MOL0     H11234   2.648   5.174  11.446 -2.8010  1.3878  2.9945
  824MOL0     H11235   2.677   5.345  11.386 -0.5497  0.8386  0.8272
  824MOL0     H11236   2.259   5.334  11.498 -0.1501 -1.5518 -0.9835
  824MOL0     H11237   2.982   5.104  11.076 -1.4032  0.5529 -2.2667
  824MOL0     H11238   3.285   5.192  11.250 -0.7759 -1.1959  1.6786
  824MOL0     H11239   3.146   5.079  11.253 -0.5561 -0.0848 -1.1062
  824MOL0     H11240   3.250   5.081  11.113 -2.6701 -2.5574  0.1298
  825MOL0     O11241   7.051   6.640   0.285  0.0202 -0.2079  0.0172
  825MOL0     C11242   6.962   6.722   0.277  0.1807  0.1125 -0.0526
  825MOL0     O11243   6.977   6.854   0.315 -0.1166 -0.2120 -0.6145
  825MOL0     C11244   7.099   6.896   0.350 -1.6424  0.1427  0.0084
  825MOL0     C11245   7.200   6.922   0.251 -0.3544  0.5853 -0.3272
  825MOL0     C11246   7.331   6.965   0.286  0.4516 -0.2790 -1.0908
  825MOL0     C11247   7.368   6.974   0.425  0.3943  0.3733  0.0999
  825MOL0     O11248   7.480   7.027   0.482  0.9479 -0.8361 -0.1241
  825MOL0     C11249   7.595   6.994   0.414  0.4650 -0.1486  0.4649
  825MOL0     C11250   7.728   7.028   0.492  0.7566 -1.2012  0.0991
  825MOL0     C11251   7.847   7.012   0.391 -0.0646 -0.1689 -0.7076
  825MOL0     C11252   7.987   7.023   0.451  0.4876 -0.8346 -0.5230
  825MOL0     C11253   8.105   6.989   0.357  0.2573  0.6384 -0.8056
  825MOL0     C11254   8.236   7.057   0.405 -0.4848 -0.4905  0.3182
  825MOL0     C11255   8.275   7.029   0.554  0.6865  0.0495  0.3701
  825MOL0     C11256   8.403   7.115   0.578  0.7285 -0.0061  0.4099
  825MOL0     N11257   8.525   7.057   0.524 -0.6874  0.4149  0.1371
  825MOL0     C11258   8.620   6.986   0.593  0.1735  0.0529 -0.3588
  825MOL0     C11259   8.727   6.990   0.514 -0.4619  0.1558 -0.8137
  825MOL0     C11260   8.859   6.919   0.533  0.4380  0.9751 -0.3318
  825MOL0     C11261   8.966   6.997   0.599  0.3218  0.2869 -0.1998
  825MOL0     C11262   9.036   7.102   0.509 -0.0690  0.0703  0.2619
  825MOL0     C11263   9.147   7.165   0.595  0.2357  0.0555 -0.4769
  825MOL0     O11264   9.258   7.079   0.606  0.1839  0.4028  0.0647
  825MOL0     C11265   9.377   7.133   0.656  0.3075 -0.2034  0.4077
  825MOL0     C11266   9.495   7.062   0.640 -0.3851 -0.1168  0.2250
  825MOL0     C11267   9.618   7.116   0.694 -0.1908 -0.9367 -0.1555
  825MOL0     C11268   9.623   7.231   0.775  0.1749 -0.0379  0.0406
  825MOL0     C11269   9.739   7.270   0.848 -0.1466  0.5672 -0.1712
  825MOL0     O11270   9.721   7.356   0.960 -0.3291 -0.2662  0.2888
  825MOL0     C11271   9.836   7.367   1.033 -0.1260 -0.6512 -0.6476
  825MOL0     C11272   9.900   7.487   1.025  0.3631 -0.3255 -0.0700
  825MOL0     C11273  10.003   7.515   1.110 -0.6447  0.1245  0.5678
  825MOL0     C11274  10.051   7.416   1.208  0.2594 -0.0939 -0.4903
  825MOL0     O11275  10.161   7.444   1.285  0.3369 -0.0931 -0.4491
  825MOL0     C11276  10.204   7.341   1.384 -0.4126 -0.9239  0.4664
  825MOL0     C11277  10.344   7.374   1.452 -0.1729  0.0123 -0.8265
  825MOL0     C11278  10.451   7.431   1.344 -0.4867  0.0577 -0.0295
  825MOL0     C11279  10.566   7.490   1.426  0.8233 -0.0802 -0.3473
  825MOL0     C11280  10.684   7.504   1.321  0.1790 -0.6289 -0.3079
  825MOL0     C11281  10.817   7.531   1.402  0.8405  1.0986  0.5649
  825MOL0     C11282  10.934   7.532   1.305 -0.3402  0.3264 -0.0980
  825MOL0     C11283  11.064   7.544   1.387  0.3326  0.1972  0.2417
  825MOL0    Cl11284  11.203   7.526   1.277 -0.5873 -0.1832 -0.0689
  825MOL0     C11285   9.980   7.291   1.207  0.7294 -0.9763 -0.0826
  825MOL0     C11286   9.865   7.268   1.124  0.0940 -0.1567 -0.5599
  825MOL0     O11287   9.846   7.218   0.810 -0.2193  0.7225 -0.6634
  825MOL0     C11288   9.502   7.308   0.776  0.2379  0.3435 -1.1526
  825MOL0     C11289   9.384   7.262   0.718  0.1905  0.3902 -0.5016
  825MOL0     N11290   8.695   7.039   0.385  1.0857  0.3533 -0.3766
  825MOL0     N11291   8.571   7.086   0.400  0.1196 -0.1075  0.1162
  825MOL0     C11292   7.271   6.937   0.521  0.2413  0.6885  0.1798
  825MOL0     C11293   7.137   6.907   0.484  0.3587  0.4606  0.0844
  825MOL0     C11294   6.824   6.672   0.247  0.0978 -0.4804  0.7247
  825MOL0     C11295   6.804   6.532   0.219  0.5755 -0.4431 -0.5012
  825MOL0     C11296   6.674   6.475   0.200 -0.2604  0.7137  0.5540
  825MOL0     C11297   6.562   6.558   0.194  0.2869 -0.3457  0.4562
  825MOL0     O11298   6.441   6.500   0.163 -0.3938 -0.6772  0.8961
  825MOL0     C11299   6.343   6.502   0.265  0.2231  0.4316 -0.2304
  825MOL0     C11300   6.235   6.406   0.226 -0.0984  0.2986 -0.7098
  825MOL0     C11301   6.130   6.381   0.328  0.7085 -0.5777 -1.0832
  825MOL0     C11302   6.063   6.507   0.386 -0.0581 -0.2506 -0.2656
  825MOL0     C11303   5.969   6.559   0.292  0.6535 -0.2527  0.2928
  825MOL0     C11304   5.892   6.597   0.200  0.6926 -0.2989  0.1650
  825MOL0     C11305   6.572   6.694   0.214 -0.4046 -0.1726 -0.6014
  825MOL0     C11306   6.704   6.750   0.253 -0.2896  0.0392  0.1778
  825MOL0     C11307   6.696   6.901   0.272 -0.3620 -0.5419  0.2543
  825MOL0     H11308   7.175   6.909   0.146  0.5417  3.4456 -0.9735
  825MOL0     H11309   7.399   7.001   0.210  0.8605 -0.9326 -1.0367
  825MOL0     H11310   7.598   6.887   0.393  0.0299 -0.0967  0.1253
  825MOL0     H11311   7.603   7.047   0.319  0.2718 -1.0988 -0.0873
  825MOL0     H11312   7.722   6.972   0.586  0.2162  0.9709  1.4159
  825MOL0     H11313   7.730   7.133   0.521 -0.2793  0.4675 -4.8474
  825MOL0     H11314   7.844   7.087   0.311  0.3343  0.5662 -0.0509
  825MOL0     H11315   7.842   6.910   0.352  0.6264 -0.8987  1.0197
  825MOL0     H11316   8.000   7.127   0.484 -0.3854 -0.4468 -1.3525
  825MOL0     H11317   7.990   6.971   0.547  0.2920  0.7317  0.3723
  825MOL0     H11318   8.120   6.880   0.357 -0.3719  0.4666  1.9732
  825MOL0     H11319   8.080   7.028   0.258 -1.4821  0.2063 -0.5736
  825MOL0     H11320   8.310   7.018   0.334 -0.5542 -0.7846  0.4042
  825MOL0     H11321   8.247   7.163   0.382  1.8680 -0.2520  2.1853
  825MOL0     H11322   8.291   6.922   0.570  1.2833  0.0050 -0.4821
  825MOL0     H11323   8.201   7.068   0.624  1.1648 -0.0269  0.9240
  825MOL0     H11324   8.378   7.206   0.524  0.0718 -0.6651 -0.4280
  825MOL0     H11325   8.417   7.126   0.686  0.2585 -2.8841  0.8415
  825MOL0     H11326   8.602   6.948   0.693 -1.5489  2.0633  0.1690
  825MOL0     H11327   8.831   6.831   0.592 -1.5421  0.0191 -2.5385
  825MOL0     H11328   8.895   6.883   0.436  0.4500  1.7563 -0.6244
  825MOL0     H11329   8.905   7.037   0.681 -1.7568 -1.7299 -0.6509
  825MOL0     H11330   9.041   6.931   0.643  0.1776 -0.5801 -1.2218
  825MOL0     H11331   8.959   7.178   0.494  0.6538  0.9212  0.7548
  825MOL0     H11332   9.068   7.054   0.416  1.9225 -2.3031  2.0337
  825MOL0     H11333   9.101   7.191   0.691  1.0153 -0.6484  0.0994
  825MOL0     H11334   9.167   7.251   0.531  0.2268 -0.8381 -1.7337
  825MOL0     H11335   9.509   6.962   0.602  1.2389 -0.9632  2.7831
  825MOL0     H11336   9.712   7.064   0.687  0.1886 -1.0443  3.5419
  825MOL0     H11337   9.874   7.556   0.946 -1.2484 -2.2764 -1.3349
  825MOL0     H11338  10.055   7.610   1.109  2.4228 -1.4375 -1.7334
  825MOL0     H11339  10.135   7.332   1.468 -0.0276 -0.1637  0.8704
  825MOL0     H11340  10.216   7.252   1.321  2.3479 -0.7138  0.5900
  825MOL0     H11341  10.328   7.449   1.530  0.4433  2.0485 -2.5596
  825MOL0     H11342  10.378   7.283   1.502 -0.3399 -0.2554 -1.1932
  825MOL0     H11343  10.491   7.358   1.273 -2.5842  0.2293 -1.4895
  825MOL0     H11344  10.418   7.510   1.276 -0.1622  1.1620  1.0647
  825MOL0     H11345  10.594   7.433   1.515  1.6122  1.1196  0.2143
  825MOL0     H11346  10.539   7.587   1.469  1.1472  0.5772 -1.5913
  825MOL0     H11347  10.670   7.594   1.260 -2.5546 -0.7978 -0.0564
  825MOL0     H11348  10.678   7.418   1.254  1.5188 -0.2995 -0.9016
  825MOL0     H11349  10.799   7.625   1.454 -4.3654  0.8384 -0.1639
  825MOL0     H11350  10.828   7.449   1.473 -2.3025 -4.1385 -4.1644
  825MOL0     H11351  10.919   7.620   1.243 -0.0180 -0.2644 -1.0395
  825MOL0     H11352  10.930   7.442   1.242 -2.2253 -2.6127  3.7469
  825MOL0     H11353  11.059   7.640   1.438 -0.8371 -1.6250  3.9835
  825MOL0     H11354  11.073   7.470   1.468  0.0356  2.3280  2.3371
  825MOL0     H11355  10.011   7.221   1.284  1.8739 -0.0808  0.2986
  825MOL0     H11356   9.800   7.181   1.121 -0.9729  0.5966  0.0121
  825MOL0     H11357   9.491   7.399   0.833  0.0988 -0.3758  0.0072
  825MOL0     H11358   9.289   7.310   0.736 -0.0766  0.1830 -1.3489
  825MOL0     H11359   7.290   6.933   0.628 -1.6807 -2.9374  0.5641
  825MOL0     H11360   7.068   6.885   0.565 -1.3056  2.2750 -0.7495
  825MOL0     H11361   6.880   6.455   0.222 -0.0525 -1.1126 -1.3184
  825MOL0     H11362   6.657   6.368   0.188 -0.0370  0.8803 -1.5011
  825MOL0     H11363   6.316   6.607   0.275  4.3752  1.7884 -1.1847
  825MOL0     H11364   6.387   6.450   0.351  0.0158  0.0284 -0.3686
  825MOL0     H11365   6.276   6.310   0.192 -1.6308 -0.2340 -1.1279
  825MOL0     H11366   6.194   6.456   0.138 -0.5558  3.2424  1.0521
  825MOL0     H11367   6.177   6.322   0.408 -1.8743 -0.0535  0.9686
  825MOL0     H11368   6.052   6.317   0.286  1.2362 -2.3355  0.4420
  825MOL0     H11369   6.024   6.492   0.487  1.8419  4.4207  1.4324
  825MOL0     H11370   6.145   6.578   0.399  0.6028 -1.4680  3.3949
  825MOL0     H11371   5.839   6.610   0.108  2.7372 -0.0885 -1.0414
  825MOL0     H11372   6.485   6.758   0.203 -0.8809 -0.8693 -0.9341
  825MOL0     H11373   6.593   6.932   0.289 -0.5004 -0.2080 -1.1082
  825MOL0     H11374   6.763   6.938   0.351  2.0617 -1.6351 -1.1649
  825MOL0     H11375   6.724   6.951   0.178  1.3340 -0.2703  0.8700
  826MOL0     O11376   3.725   9.114   0.319  0.5749 -0.1117 -0.3461
  826MOL0     C11377   3.679   9.143   0.429 -0.4272 -0.6918  0.1175
  826MOL0     O11378   3.756   9.200   0.534  0.1039  0.1028 -0.1303
  826MOL0     C11379   3.887   9.230   0.495 -0.0440  0.0526 -0.5361
  826MOL0     C11380   3.918   9.330   0.394 -0.4616  0.0056 -0.0082
  826MOL0     C11381   4.046   9.373   0.375  0.0727  0.1828 -0.4155
  826MOL0     C11382   4.140   9.315   0.448  0.2099  0.7477 -0.3903
  826MOL0     O11383   4.269   9.362   0.436 -0.0583 -0.6703 -0.1399
  826MOL0     C11384   4.334   9.326   0.315  0.5881  0.5042 -0.0099
  826MOL0     C11385   4.487   9.331   0.347  0.3504  0.1108  0.6707
  826MOL0     C11386   4.531   9.213   0.413 -0.3887  0.4382 -0.5332
  826MOL0     C11387   4.680   9.219   0.448  0.5448 -0.3220  0.4170
  826MOL0     C11388   4.768   9.203   0.319 -0.0560  0.0048 -0.3170
  826MOL0     C11389   4.919   9.217   0.345  0.4306 -0.4591 -1.0293
  826MOL0     C11390   5.010   9.203   0.221 -0.0133  0.0508 -0.1223
  826MOL0     C11391   4.983   9.323   0.136 -0.7751 -0.1241  1.1848
  826MOL0     N11392   5.097   9.360   0.053 -0.2255 -0.0407  0.1653
  826MOL0     C11393   5.193   9.455   0.083  0.2533 -0.0083 -0.5242
  826MOL0     C11394   5.292   9.433  -0.004  0.2736 -0.1772 -0.2058
  826MOL0     C11395   5.412   9.525  -0.003  0.0810  0.2386  0.3626
  826MOL0     C11396   5.519   9.449   0.068 -0.5231 -0.2970  0.2227
  826MOL0     C11397   5.547   9.310  -0.001  0.8767 -0.0873  0.1703
  826MOL0     C11398   5.682   9.264   0.044 -0.2090 -0.3606 -0.6439
  826MOL0     O11399   5.785   9.336  -0.024  0.5731 -0.1319 -0.3226
  826MOL0     C11400   5.891   9.354   0.058 -0.7664 -0.4864  0.5152
  826MOL0     C11401   5.911   9.452   0.160  0.5421  0.5747  0.2347
  826MOL0     C11402   6.032   9.464   0.235  0.1260  0.3441 -0.1280
  826MOL0     C11403   6.146   9.387   0.204 -0.4609  0.9946 -0.0267
  826MOL0     C11404   6.266   9.407   0.283  0.4447  0.0372  0.3316
  826MOL0     O11405   6.261   9.491   0.389 -0.1374 -0.4807 -0.1868
  826MOL0     C11406   6.360   9.512   0.477  0.0106 -0.8286 -0.7401
  826MOL0     C11407   6.495   9.473   0.476  0.4467  0.8757 -0.2742
  826MOL0     C11408   6.587   9.526   0.572 -0.8987 -0.6482 -1.1335
  826MOL0     C11409   6.537   9.600   0.681  0.4231  1.0679  0.4620
  826MOL0     O11410   6.616   9.645   0.781 -0.2393 -0.4952 -0.2052
  826MOL0     C11411   6.754   9.608   0.794  0.5202  0.5445 -0.2796
  826MOL0     C11412   6.818   9.673   0.918  0.1724 -0.2129 -0.7391
  826MOL0     C11413   6.956   9.621   0.951  0.2962  0.4960 -0.6077
  826MOL0     C11414   7.015   9.707   1.066  0.2474 -0.3476 -0.3028
  826MOL0     C11415   7.169   9.682   1.090 -0.3416 -0.2184  0.8427
  826MOL0     C11416   7.233   9.734   1.229  0.2425  0.6040  0.8368
  826MOL0     C11417   7.228   9.882   1.224  0.3278  0.3868  0.4749
  826MOL0     C11418   7.307   9.943   1.333  0.1760 -0.0273 -0.6659
  826MOL0    Cl11419   7.486   9.926   1.307  0.3596  0.4555  0.3746
  826MOL0     C11420   6.401   9.634   0.682  0.0945  0.2108  0.0363
  826MOL0     C11421   6.314   9.586   0.584  0.3885 -0.2565  0.3460
  826MOL0     O11422   6.371   9.355   0.242  0.9799 -0.1071  1.1819
  826MOL0     C11423   6.129   9.293   0.099 -0.1305  0.4660  0.1334
  826MOL0     C11424   6.007   9.287   0.021 -0.4893  0.6431  0.6499
  826MOL0     N11425   5.254   9.338  -0.097 -0.9095  0.6718 -0.3515
  826MOL0     N11426   5.143   9.294  -0.052  0.3942  0.9824 -0.0349
  826MOL0     C11427   4.117   9.222   0.554 -0.0712 -0.5569  0.1096
  826MOL0     C11428   3.988   9.189   0.583  0.1520 -0.5623  0.3754
  826MOL0     C11429   3.554   9.082   0.467  0.3308 -0.2543 -0.3370
  826MOL0     C11430   3.521   9.088   0.597  0.6896 -0.3604 -0.2688
  826MOL0     C11431   3.400   9.044   0.641  0.4551 -0.6097  0.0310
  826MOL0     C11432   3.294   9.002   0.555 -0.3288  0.2609  0.0911
  826MOL0     O11433   3.168   8.953   0.598 -0.7048  0.9184 -0.2766
  826MOL0     C11434   3.101   9.042   0.682  0.2243 -0.5904 -0.1139
  826MOL0     C11435   2.959   9.071   0.623 -0.4980  0.0811  0.3845
  826MOL0     C11436   2.845   8.986   0.662  1.1230  0.0449 -0.9677
  826MOL0     C11437   2.726   9.021   0.565 -0.5699 -0.4897  0.2636
  826MOL0     C11438   2.605   8.945   0.587  0.6309 -0.5126  0.4195
  826MOL0     C11439   2.506   8.881   0.598  0.7744 -0.0326  0.8358
  826MOL0     C11440   3.328   8.990   0.428  0.0101 -0.7688 -0.2661
  826MOL0     C11441   3.454   9.035   0.378  1.0170 -0.1890  0.1282
  826MOL0     C11442   3.473   9.012   0.231  1.1228  1.0795 -0.8285
  826MOL0     H11443   3.834   9.370   0.337 -1.6334  3.1309  3.4857
  826MOL0     H11444   4.081   9.443   0.300 -2.3281  0.7917 -1.0745
  826MOL0     H11445   4.305   9.225   0.282 -1.9715  1.5927 -1.3643
  826MOL0     H11446   4.309   9.397   0.236  0.6445 -0.5656 -1.0371
  826MOL0     H11447   4.510   9.423   0.400  0.5511 -0.3240  1.3422
  826MOL0     H11448   4.543   9.334   0.253 -0.7528  0.3978 -0.0065
  826MOL0     H11449   4.504   9.127   0.351 -2.8244 -0.5457  1.6766
  826MOL0     H11450   4.470   9.202   0.503  1.4846 -0.0848  0.7492
  826MOL0     H11451   4.702   9.316   0.493  1.4921  0.6310 -1.9029
  826MOL0     H11452   4.700   9.145   0.526  0.7659 -2.3976 -1.4969
  826MOL0     H11453   4.753   9.101   0.282  0.0646 -0.3178  0.5173
  826MOL0     H11454   4.744   9.274   0.239  0.2562  2.0054  1.2764
  826MOL0     H11455   4.938   9.315   0.390  0.4787 -0.6976 -0.5173
  826MOL0     H11456   4.941   9.142   0.421  2.6554 -3.0699 -4.0171
  826MOL0     H11457   4.989   9.113   0.162 -4.0387  0.4545  0.4138
  826MOL0     H11458   5.116   9.199   0.248  0.0641 -3.5122 -0.4301
  826MOL0     H11459   4.898   9.304   0.070 -1.1020  2.6371  0.6983
  826MOL0     H11460   4.948   9.409   0.193 -4.3223  1.3524 -2.6846
  826MOL0     H11461   5.191   9.526   0.166  1.0692 -2.5000  1.7780
  826MOL0     H11462   5.447   9.549  -0.103 -1.0981 -0.0911 -0.1453
  826MOL0     H11463   5.392   9.623   0.043  1.2746  1.8623 -2.3361
  826MOL0     H11464   5.608   9.513   0.071 -0.4518 -0.3707 -0.2003
  826MOL0     H11465   5.499   9.435   0.174  1.7642  0.7217  0.8653
  826MOL0     H11466   5.535   9.321  -0.109 -2.4446 -0.1175  0.4120
  826MOL0     H11467   5.477   9.228   0.016 -0.9026  0.5144 -3.2857
  826MOL0     H11468   5.688   9.163   0.004  0.7563 -0.8967  0.8053
  826MOL0     H11469   5.691   9.274   0.152  1.7428  1.1628 -0.8895
  826MOL0     H11470   5.819   9.503   0.184 -0.7546 -1.3613 -0.3448
  826MOL0     H11471   6.034   9.524   0.326  2.2231  3.1057 -1.8784
  826MOL0     H11472   6.529   9.407   0.397 -2.1412 -0.4771 -0.3414
  826MOL0     H11473   6.695   9.520   0.566 -0.4413  3.9235 -0.2837
  826MOL0     H11474   6.767   9.500   0.800 -0.3378  0.3131 -2.0433
  826MOL0     H11475   6.807   9.646   0.705  2.1425 -1.0690 -0.0687
  826MOL0     H11476   6.836   9.780   0.902  1.3527 -0.4274 -1.0024
  826MOL0     H11477   6.758   9.668   1.008 -1.0928 -1.5440 -1.6127
  826MOL0     H11478   6.964   9.516   0.982 -1.0196  0.2588 -1.0355
  826MOL0     H11479   7.011   9.620   0.856 -1.1959 -1.3353 -1.5198
  826MOL0     H11480   6.972   9.677   1.162  0.7684  0.8335  0.3189
  826MOL0     H11481   6.997   9.814   1.053 -1.0631 -0.4272  0.6636
  826MOL0     H11482   7.224   9.719   1.003  0.4432  1.9713  2.1795
  826MOL0     H11483   7.185   9.574   1.094  1.6135  0.0561  1.5926
  826MOL0     H11484   7.179   9.688   1.313 -0.7859 -0.6509 -0.4611
  826MOL0     H11485   7.334   9.692   1.233  0.7896  1.6014 -1.2142
  826MOL0     H11486   7.122   9.906   1.241  0.5307 -0.0595  2.7331
  826MOL0     H11487   7.254   9.931   1.130 -0.1678  1.1739  0.7331
  826MOL0     H11488   7.280  10.049   1.328  1.5157  0.4049  0.7931
  826MOL0     H11489   7.272   9.903   1.429 -0.3050  0.6633 -0.5413
  826MOL0     H11490   6.364   9.699   0.760 -0.3112  3.2329 -2.4505
  826MOL0     H11491   6.214   9.628   0.581  1.3028  2.0612 -0.1675
  826MOL0     H11492   6.209   9.223   0.076 -1.4736 -1.8000  1.8931
  826MOL0     H11493   6.018   9.214  -0.058 -0.1351  3.1705 -1.7716
  826MOL0     H11494   4.190   9.199   0.631 -0.5298 -3.4258 -0.2034
  826MOL0     H11495   3.958   9.133   0.671 -0.7393 -0.9187 -0.1328
  826MOL0     H11496   3.595   9.106   0.674 -2.5598 -1.0732  3.3199
  826MOL0     H11497   3.378   9.040   0.748  1.2150  3.9081  0.5521
  826MOL0     H11498   3.151   9.138   0.693 -0.6221 -0.4164  2.9281
  826MOL0     H11499   3.104   9.006   0.785  1.0878 -1.6833 -0.4892
  826MOL0     H11500   2.969   9.071   0.514  1.6039 -0.1745  0.5261
  826MOL0     H11501   2.935   9.177   0.642 -0.4973  0.5694 -2.0297
  826MOL0     H11502   2.824   9.009   0.767 -0.1391  3.3214 -1.7978
  826MOL0     H11503   2.855   8.878   0.654  1.1306 -0.0863  0.4543
  826MOL0     H11504   2.705   9.129   0.570  2.1461  0.2549 -1.8126
  826MOL0     H11505   2.764   8.997   0.465 -0.0483 -0.0946  0.3616
  826MOL0     H11506   2.424   8.811   0.594  0.6575  0.0859  1.1490
  826MOL0     H11507   3.248   8.952   0.366 -1.3254 -0.0801  0.9917
  826MOL0     H11508   3.558   8.946   0.214  0.8686  0.3430  0.6168
  826MOL0     H11509   3.386   8.973   0.178  2.7835 -1.4095 -1.8974
  826MOL0     H11510   3.495   9.112   0.191 -0.5052  2.1490  0.7734
  827MOL0     O11511   8.745   5.683   7.913 -0.4957 -0.7556  0.8104
  827MOL0     C11512   8.682   5.775   7.844 -0.5456  0.3526 -0.2776
  827MOL0     O11513   8.746   5.865   7.764  0.2565 -0.2328 -0.2999
  827MOL0     C11514   8.878   5.857   7.730  0.2848  0.0198  0.3655
  827MOL0     C11515   8.953   5.974   7.712 -0.5348 -0.1957 -0.2069
  827MOL0     C11516   9.084   5.967   7.674  1.2173  0.3629 -0.3259
  827MOL0     C11517   9.143   5.843   7.642 -0.1887  0.0576  0.3300
  827MOL0     O11518   9.275   5.828   7.622 -0.1192  0.0669  0.4293
  827MOL0     C11519   9.338   5.918   7.542 -0.3973 -0.7740  0.6942
  827MOL0     C11520   9.465   5.863   7.482  0.3020 -0.1099  0.2374
  827MOL0     C11521   9.591   5.913   7.562  0.1133  0.3479 -0.5102
  827MOL0     C11522   9.712   5.886   7.479  0.2343 -0.2334  0.2036
  827MOL0     C11523   9.838   5.945   7.544  0.6468  0.1862  0.3605
  827MOL0     C11524   9.968   5.929   7.466 -0.6080 -0.7445 -1.1388
  827MOL0     C11525  10.087   5.952   7.563 -0.7442 -0.6721 -0.7427
  827MOL0     C11526  10.112   6.108   7.590  0.0230  0.0380 -0.5428
  827MOL0     N11527  10.254   6.124   7.630  0.3668  0.3957  0.3402
  827MOL0     C11528  10.299   6.129   7.760 -0.3687 -0.7294 -0.1417
  827MOL0     C11529  10.429   6.109   7.753  0.2648 -0.1626  0.9667
  827MOL0     C11530  10.532   6.097   7.853  0.5568  0.2596  0.3296
  827MOL0     C11531  10.485   6.151   7.988  0.3804  0.1049 -0.2976
  827MOL0     C11532  10.588   6.144   8.093 -0.7106 -0.1171  0.4639
  827MOL0     C11533  10.662   6.010   8.100 -0.1052  0.6420 -0.1479
  827MOL0     O11534  10.761   5.998   8.207  0.7435 -0.3622  0.2769
  827MOL0     C11535  10.883   6.052   8.196 -0.6426 -0.1770 -0.3582
  827MOL0     C11536  10.977   6.030   8.297  0.8423 -0.0485  0.3357
  827MOL0     C11537  11.115   6.065   8.274 -0.7439  0.3727  0.6952
  827MOL0     C11538  11.155   6.139   8.162  0.0785  0.5633  0.4190
  827MOL0     C11539  11.289   6.148   8.114 -0.3256 -0.0192  0.4538
  827MOL0     O11540  11.310   6.206   7.995 -0.2135 -0.4239  0.2003
  827MOL0     C11541  11.431   6.267   7.982  0.7639 -0.3305  0.5049
  827MOL0     C11542  11.523   6.208   7.895 -0.5917 -0.3787 -0.2945
  827MOL0     C11543  11.651   6.258   7.895 -0.4373  0.6451  0.0111
  827MOL0     C11544  11.691   6.374   7.978 -0.3682 -0.0783  0.9316
  827MOL0     O11545  11.821   6.420   7.959  0.1094 -0.3882  0.1325
  827MOL0     C11546  11.859   6.530   8.036 -0.1062  1.1701  0.2596
  827MOL0     C11547  12.012   6.551   8.001  0.0157  0.7884 -0.6269
  827MOL0     C11548  12.068   6.682   8.069 -0.3577  0.5456  0.5110
  827MOL0     C11549  12.226   6.680   8.087  0.2105 -0.2818 -0.9000
  827MOL0     C11550  12.324   6.614   7.991 -0.7697 -0.1532  0.1102
  827MOL0     C11551  12.306   6.704   7.858 -0.1527 -0.0827 -0.3586
  827MOL0     C11552  12.431   6.699   7.758  0.5872  1.0239 -0.9654
  827MOL0     C11553  12.567   6.728   7.829 -0.3739 -0.1017  0.0016
  827MOL0    Cl11554  12.541   6.851   7.946 -0.5318 -0.6993  0.0539
  827MOL0     C11555  11.593   6.433   8.053 -0.1400  0.0798 -0.4335
  827MOL0     C11556  11.463   6.382   8.058  0.3939 -0.0390  0.7192
  827MOL0     O11557  11.376   6.133   8.201 -0.2344  0.6886 -0.7583
  827MOL0     C11558  11.057   6.192   8.086  0.5568  0.0992  0.2008
  827MOL0     C11559  10.926   6.152   8.102 -0.0835  0.0381  0.3563
  827MOL0     N11560  10.460   6.085   7.618 -0.8590 -0.5004 -1.1563
  827MOL0     N11561  10.358   6.107   7.547  0.8799  0.0787  0.6737
  827MOL0     C11562   9.067   5.728   7.641 -0.2564  0.7585 -0.2383
  827MOL0     C11563   8.935   5.735   7.694 -0.4028 -0.4631  0.5732
  827MOL0     C11564   8.536   5.802   7.866 -0.5646  0.4065  0.0064
  827MOL0     C11565   8.505   5.933   7.830  1.0539  0.1590  0.2187
  827MOL0     C11566   8.376   5.983   7.838  0.0402  0.8908  0.2188
  827MOL0     C11567   8.278   5.900   7.899 -0.5996  0.1980 -0.8284
  827MOL0     O11568   8.154   5.937   7.937  0.7453  0.3348 -0.0559
  827MOL0     C11569   8.107   6.070   7.910  0.0167 -0.3817  0.2032
  827MOL0     C11570   7.972   6.101   7.968  0.2451 -0.7205 -0.3619
  827MOL0     C11571   7.925   6.016   8.091  0.0786  0.0757 -0.7365
  827MOL0     C11572   8.024   6.009   8.210  0.4534  0.1428  0.0824
  827MOL0     C11573   8.071   6.143   8.263  0.1935  0.8912  0.8177
  827MOL0     C11574   8.109   6.243   8.315  0.4907  0.0398  0.5764
  827MOL0     C11575   8.312   5.770   7.946 -1.0656 -1.1877  0.4295
  827MOL0     C11576   8.444   5.721   7.933  0.2098  0.0991  0.0993
  827MOL0     C11577   8.473   5.579   7.996  0.2308  0.4468  0.7170
  827MOL0     H11578   8.895   6.064   7.729 -1.7514 -1.3493  2.4162
  827MOL0     H11579   9.144   6.057   7.669 -0.8187  1.8027 -0.1738
  827MOL0     H11580   9.279   5.939   7.452 -0.2950  0.2235  0.8448
  827MOL0     H11581   9.362   6.009   7.598  1.1526 -1.3386  0.9938
  827MOL0     H11582   9.476   5.883   7.375  1.9069 -1.9005  0.0277
  827MOL0     H11583   9.458   5.754   7.483  3.5170 -0.5788 -3.7780
  827MOL0     H11584   9.605   5.881   7.665  0.0979 -0.1561 -0.6605
  827MOL0     H11585   9.579   6.021   7.561  0.5955  0.4056 -1.4190
  827MOL0     H11586   9.715   5.777   7.477  0.7523 -0.2883  1.9956
  827MOL0     H11587   9.681   5.925   7.382 -0.8980  0.8701  0.9765
  827MOL0     H11588   9.819   6.051   7.561 -2.2705 -0.3784  1.0687
  827MOL0     H11589   9.848   5.889   7.637  0.3731 -1.0942 -0.3578
  827MOL0     H11590   9.974   5.823   7.440  2.0474 -0.8442 -0.4183
  827MOL0     H11591   9.972   6.001   7.384  1.5965  0.5250 -0.0215
  827MOL0     H11592  10.183   5.917   7.523 -0.2139 -1.4825  1.1331
  827MOL0     H11593  10.084   5.891   7.654  2.5147  1.1574  0.8079
  827MOL0     H11594  10.099   6.151   7.491  0.6365 -2.5565 -1.8259
  827MOL0     H11595  10.039   6.145   7.663  1.5427 -2.6530  2.6305
  827MOL0     H11596  10.242   6.143   7.851  3.1757 -2.5454  2.6328
  827MOL0     H11597  10.560   5.991   7.854 -1.2402 -0.3111 -1.6486
  827MOL0     H11598  10.609   6.160   7.809 -0.2605 -0.6075 -2.5907
  827MOL0     H11599  10.450   6.253   7.970 -1.3521 -0.1586  1.2399
  827MOL0     H11600  10.403   6.091   8.028  1.7991 -1.2820  0.6729
  827MOL0     H11601  10.532   6.165   8.184  2.1431 -1.4557  2.6948
  827MOL0     H11602  10.657   6.228   8.078  1.7006 -2.3327 -1.9371
  827MOL0     H11603  10.709   5.986   8.005  1.4226 -2.5741  1.2842
  827MOL0     H11604  10.589   5.929   8.104 -1.2581  1.3980 -3.0274
  827MOL0     H11605  10.941   5.976   8.384 -0.8282 -1.7276 -1.3306
  827MOL0     H11606  11.188   6.016   8.338 -1.2588 -0.1036  0.9295
  827MOL0     H11607  11.490   6.120   7.841 -0.7464 -1.5420  1.6122
  827MOL0     H11608  11.724   6.204   7.836 -2.2829 -4.5718  1.9109
  827MOL0     H11609  11.812   6.620   7.995  3.7730  1.3762 -4.8852
  827MOL0     H11610  11.837   6.505   8.140  0.7388 -1.4387 -0.1298
  827MOL0     H11611  12.072   6.472   8.049  2.0905  1.6547 -1.6631
  827MOL0     H11612  12.029   6.545   7.893  0.8551 -0.4521 -0.4538
  827MOL0     H11613  12.041   6.768   8.007 -1.0007 -1.1080 -1.6348
  827MOL0     H11614  12.019   6.699   8.165  0.5449  1.5499  0.8197
  827MOL0     H11615  12.240   6.629   8.183  2.9333  4.5292  1.6937
  827MOL0     H11616  12.272   6.779   8.103  2.7188 -1.6367  1.0290
  827MOL0     H11617  12.300   6.508   7.976 -0.9936  0.1211 -1.7934
  827MOL0     H11618  12.427   6.613   8.026 -0.3862 -1.3977 -0.9707
  827MOL0     H11619  12.216   6.678   7.801 -0.6895  0.2132  0.3575
  827MOL0     H11620  12.296   6.808   7.889  3.5955  0.1818  0.4665
  827MOL0     H11621  12.410   6.772   7.680 -2.0005  0.4061 -0.9622
  827MOL0     H11622  12.423   6.603   7.705  2.1264  1.8521 -2.7959
  827MOL0     H11623  12.591   6.635   7.881 -2.1117 -0.8409 -0.4423
  827MOL0     H11624  12.644   6.753   7.754  2.0129 -0.2014  2.2592
  827MOL0     H11625  11.599   6.519   8.119 -4.5998 -0.3861  0.9410
  827MOL0     H11626  11.385   6.429   8.117  1.7358  1.8499  1.0692
  827MOL0     H11627  11.078   6.262   8.006 -0.1652 -0.2239 -0.2841
  827MOL0     H11628  10.856   6.198   8.033 -1.1106  0.7929  1.8489
  827MOL0     H11629   9.112   5.634   7.610  2.0794  1.5260  0.6326
  827MOL0     H11630   8.868   5.650   7.694  0.6716 -1.3278  0.9619
  827MOL0     H11631   8.575   5.989   7.770  1.5066  0.8041  1.3162
  827MOL0     H11632   8.353   6.083   7.803  1.3613  1.7883  1.7654
  827MOL0     H11633   8.105   6.091   7.803 -1.3527  2.8194  0.7575
  827MOL0     H11634   8.178   6.135   7.961  1.0647 -2.5061  1.6229
  827MOL0     H11635   7.900   6.090   7.887 -1.9338 -1.0901  1.5266
  827MOL0     H11636   7.970   6.206   7.996 -2.2867 -0.1924 -2.1989
  827MOL0     H11637   7.902   5.913   8.064 -0.0479 -0.3579  0.8761
  827MOL0     H11638   7.833   6.073   8.110  0.5108  0.3229  0.7450
  827MOL0     H11639   7.977   5.946   8.286  1.0447  0.6373  0.8786
  827MOL0     H11640   8.116   5.962   8.175  0.5251  2.1751 -2.9209
  827MOL0     H11641   8.134   6.326   8.380 -0.1723  0.9396 -0.2902
  827MOL0     H11642   8.241   5.712   8.003  0.2584 -2.1203  1.1767
  827MOL0     H11643   8.375   5.530   8.002  0.0814  0.8955  4.6520
  827MOL0     H11644   8.537   5.515   7.936 -1.0101 -0.2574  0.1094
  827MOL0     H11645   8.519   5.593   8.094  1.0921  1.7171  0.1625
  828MOL0     O11646   1.314   9.489   8.993 -0.4326 -0.5887  0.0008
  828MOL0     C11647   1.262   9.604   8.977  0.4566  0.7978  0.5621
  828MOL0     O11648   1.316   9.716   9.030  0.1427  0.4207  0.1340
  828MOL0     C11649   1.450   9.724   9.055  0.0802  0.4991 -0.1169
  828MOL0     C11650   1.491   9.663   9.175  0.5494  0.5934 -0.1376
  828MOL0     C11651   1.627   9.661   9.203  0.1238  0.3590 -0.4496
  828MOL0     C11652   1.721   9.723   9.117 -0.1599  0.2777  0.6416
  828MOL0     O11653   1.858   9.715   9.146 -0.1628 -0.2254 -0.4770
  828MOL0     C11654   1.959   9.736   9.041  0.1968  0.7058  0.4887
  828MOL0     C11655   2.098   9.725   9.096  0.1998  0.6970 -0.4053
  828MOL0     C11656   2.196   9.743   8.980 -1.5610 -0.4334  0.8064
  828MOL0     C11657   2.338   9.796   9.028 -0.7037 -0.0852  0.3056
  828MOL0     C11658   2.409   9.876   8.916 -0.3072  0.2759  0.6363
  828MOL0     C11659   2.359  10.025   8.918 -0.6567 -0.2957  1.1021
  828MOL0     C11660   2.456  10.122   8.839 -0.6310 -0.0398  0.5319
  828MOL0     C11661   2.408  10.269   8.861 -0.6228  0.8479  0.1574
  828MOL0     N11662   2.459  10.360   8.764 -0.0332 -0.5257 -0.4025
  828MOL0     C11663   2.582  10.428   8.764  0.3803  0.0243  0.0267
  828MOL0     C11664   2.609  10.442   8.636  0.1686 -0.5945  0.5467
  828MOL0     C11665   2.747  10.468   8.582  0.1889 -0.3276  0.6161
  828MOL0     C11666   2.783  10.618   8.548 -0.3543  0.3342  0.3148
  828MOL0     C11667   2.762  10.722   8.662  0.6179 -0.9800  0.1490
  828MOL0     C11668   2.800  10.859   8.621 -0.7349 -0.9111 -0.0322
  828MOL0     O11669   2.930  10.873   8.558 -0.1415  0.9634  0.3340
  828MOL0     C11670   3.054  10.863   8.621  0.3731  0.5021  0.2013
  828MOL0     C11671   3.168  10.881   8.542 -0.2706  0.3186 -0.3668
  828MOL0     C11672   3.289  10.859   8.601 -0.5547 -0.9866  0.2002
  828MOL0     C11673   3.317  10.842   8.735  0.9902 -0.2498 -0.6557
  828MOL0     C11674   3.441  10.846   8.800  0.5760  0.1059  0.0537
  828MOL0     O11675   3.548  10.841   8.721  0.2270  0.0965 -1.1680
  828MOL0     C11676   3.671  10.878   8.773  0.2909 -0.6878  0.2704
  828MOL0     C11677   3.690  11.017   8.802  0.7717  0.2760  0.5744
  828MOL0     C11678   3.815  11.072   8.818  0.3522 -0.7879 -0.1592
  828MOL0     C11679   3.929  10.989   8.815 -0.4175 -0.2327  0.2776
  828MOL0     O11680   4.051  11.034   8.847 -0.4799  0.0557 -0.4110
  828MOL0     C11681   4.070  11.168   8.878  0.2888  0.5409 -0.6759
  828MOL0     C11682   4.207  11.180   8.930 -0.2065 -0.2517 -0.3990
  828MOL0     C11683   4.231  11.145   9.075 -0.8254 -0.2724  0.1074
  828MOL0     C11684   4.382  11.151   9.130  0.0351 -0.3992  0.3714
  828MOL0     C11685   4.464  11.024   9.091 -0.1432  0.2330  0.5931
  828MOL0     C11686   4.609  11.043   9.127 -0.4632 -0.3038  0.2324
  828MOL0     C11687   4.683  10.922   9.093  0.6358  1.2635 -0.1421
  828MOL0     C11688   4.813  10.954   9.003 -0.2373  0.8377 -0.0723
  828MOL0    Cl11689   4.941  11.015   9.096 -0.5227  0.2121 -0.0913
  828MOL0     C11690   3.912  10.855   8.797 -0.4711  0.0405  0.0329
  828MOL0     C11691   3.784  10.803   8.772 -0.1378  0.3340 -0.4323
  828MOL0     O11692   3.438  10.850   8.927 -0.3185  0.3276  0.8656
  828MOL0     C11693   3.197  10.839   8.818 -1.3180 -0.2627  0.0130
  828MOL0     C11694   3.070  10.838   8.755 -0.0912 -0.2494 -0.0214
  828MOL0     N11695   2.495  10.410   8.569 -0.6564  0.0780  0.7782
  828MOL0     N11696   2.407  10.353   8.636 -0.2665 -0.0522 -0.1810
  828MOL0     C11697   1.676   9.803   9.008 -0.9673 -0.0576 -0.7831
  828MOL0     C11698   1.538   9.805   8.980 -0.5800  0.5411 -0.4452
  828MOL0     C11699   1.150   9.617   8.883 -0.5860 -0.0449  0.4610
  828MOL0     C11700   1.114   9.747   8.844  0.6389 -0.4259  0.5445
  828MOL0     C11701   0.998   9.777   8.776  1.1789 -0.2924  0.1422
  828MOL0     C11702   0.910   9.678   8.741  0.6354  0.4535 -0.1668
  828MOL0     O11703   0.797   9.696   8.664  0.3663  0.0741 -0.0329
  828MOL0     C11704   0.732   9.823   8.665  0.4073 -0.4075  0.3630
  828MOL0     C11705   0.635   9.815   8.546  0.2536 -0.4476  1.4112
  828MOL0     C11706   0.570   9.676   8.524  0.7071  1.0140  0.8172
  828MOL0     C11707   0.448   9.688   8.440  0.0906  0.8000  0.5188
  828MOL0     C11708   0.381   9.556   8.412  0.3520 -1.3208  0.4042
  828MOL0     C11709   0.329   9.452   8.386 -0.0977 -0.5075  0.2811
  828MOL0     C11710   0.942   9.545   8.778  0.3892 -0.6642  0.3493
  828MOL0     C11711   1.053   9.514   8.856 -0.0229 -0.1692  0.2420
  828MOL0     C11712   1.051   9.367   8.910  0.4411  0.2465  0.1989
  828MOL0     H11713   1.412   9.630   9.242  1.5879  0.4882  1.0908
  828MOL0     H11714   1.672   9.621   9.293 -0.6629  1.5899  0.5302
  828MOL0     H11715   1.942   9.663   8.961  0.4300  1.4107 -0.2179
  828MOL0     H11716   1.948   9.838   9.002  3.2268  1.1975  0.6716
  828MOL0     H11717   2.103   9.629   9.150 -2.3084  0.9442  0.4006
  828MOL0     H11718   2.104   9.805   9.170 -0.4233  0.9626 -0.6395
  828MOL0     H11719   2.167   9.820   8.908  0.5370 -1.3759 -1.1275
  828MOL0     H11720   2.216   9.645   8.937  2.7691 -0.4359  2.2932
  828MOL0     H11721   2.317   9.859   9.116  2.6043  2.8641 -0.7764
  828MOL0     H11722   2.410   9.719   9.055  3.2077  3.7436  2.0113
  828MOL0     H11723   2.517   9.872   8.928  0.1486  3.4171 -1.3064
  828MOL0     H11724   2.380   9.835   8.819 -0.1003  1.9215 -0.1573
  828MOL0     H11725   2.262  10.021   8.867 -0.0092 -4.0405 -0.1385
  828MOL0     H11726   2.354  10.075   9.015  0.3454 -0.9285  1.4904
  828MOL0     H11727   2.466  10.110   8.730  2.6550 -1.1658  0.8396
  828MOL0     H11728   2.552  10.103   8.887 -0.2794  5.2644  2.6766
  828MOL0     H11729   2.300  10.273   8.875 -1.2483 -1.1000 -3.1205
  828MOL0     H11730   2.448  10.296   8.960  0.9114  0.1087 -0.2205
  828MOL0     H11731   2.657  10.444   8.841  0.0811 -1.5704  0.6889
  828MOL0     H11732   2.817  10.414   8.647 -0.5467 -1.0449  0.8330
  828MOL0     H11733   2.761  10.418   8.486 -2.7704 -0.2648  0.0586
  828MOL0     H11734   2.887  10.609   8.514  1.2280  0.7032  4.4451
  828MOL0     H11735   2.728  10.652   8.460  2.6216  3.1363 -0.6773
  828MOL0     H11736   2.806  10.702   8.760 -0.2750 -0.5177  0.6594
  828MOL0     H11737   2.656  10.717   8.690  0.5215 -2.1416 -0.3679
  828MOL0     H11738   2.784  10.926   8.707  1.0684 -2.5412  1.6794
  828MOL0     H11739   2.731  10.894   8.544  0.3564 -2.1047 -1.6126
  828MOL0     H11740   3.160  10.902   8.435 -0.6135 -0.3830 -0.4903
  828MOL0     H11741   3.369  10.866   8.528 -2.6616 -0.2089 -2.1532
  828MOL0     H11742   3.600  11.076   8.795  0.7984  0.3903  1.1670
  828MOL0     H11743   3.821  11.177   8.846 -0.6150 -0.7820  0.0647
  828MOL0     H11744   4.043  11.240   8.800 -2.7247  0.4898  0.1977
  828MOL0     H11745   4.010  11.195   8.965  1.0224 -2.6549  0.9687
  828MOL0     H11746   4.290  11.128   8.880  0.1203 -0.5268  0.4141
  828MOL0     H11747   4.235  11.284   8.912 -0.7137 -0.3584 -1.9638
  828MOL0     H11748   4.177  11.211   9.143  2.7204  1.6541  1.3253
  828MOL0     H11749   4.190  11.045   9.093 -0.3255 -0.7394 -1.2336
  828MOL0     H11750   4.388  11.166   9.238 -2.0397 -3.5649  1.0813
  828MOL0     H11751   4.425  11.242   9.088 -1.0165 -0.4463 -0.8675
  828MOL0     H11752   4.449  11.019   8.983  1.0625 -0.5851  0.4448
  828MOL0     H11753   4.423  10.937   9.141 -0.2442 -0.9777 -1.4690
  828MOL0     H11754   4.664  11.127   9.084 -1.7186  1.1635  1.3675
  828MOL0     H11755   4.616  11.058   9.236  1.0808 -0.3216  0.1538
  828MOL0     H11756   4.619  10.847   9.046 -0.4234  0.8557  1.8265
  828MOL0     H11757   4.717  10.865   9.180  0.1107  0.7405 -0.2705
  828MOL0     H11758   4.842  10.863   8.949  0.0657  0.3759  0.8238
  828MOL0     H11759   4.803  11.031   8.927  1.8830  0.3044 -0.9916
  828MOL0     H11760   3.989  10.779   8.811 -0.6852 -0.3566 -0.8951
  828MOL0     H11761   3.776  10.697   8.748 -1.3807  0.7204 -1.8928
  828MOL0     H11762   3.209  10.822   8.924  0.9605 -1.9894 -0.4490
  828MOL0     H11763   2.979  10.837   8.815  0.8631 -0.0361  1.4855
  828MOL0     H11764   1.752   9.855   8.950  0.8964 -1.8335 -0.0719
  828MOL0     H11765   1.499   9.852   8.890 -0.6068  0.0309 -0.7062
  828MOL0     H11766   1.188   9.824   8.859  0.9910  0.0341 -2.7777
  828MOL0     H11767   0.975   9.881   8.754 -2.5209 -0.5677  1.8602
  828MOL0     H11768   0.800   9.908   8.659  1.1980 -1.0989 -1.0283
  828MOL0     H11769   0.677   9.843   8.757  3.1433  0.2640  1.9627
  828MOL0     H11770   0.691   9.844   8.457 -0.6092  1.9165  1.5695
  828MOL0     H11771   0.564   9.895   8.568 -1.5489 -1.4511 -0.5226
  828MOL0     H11772   0.536   9.635   8.619 -0.1419  2.1856  1.0408
  828MOL0     H11773   0.647   9.608   8.485  0.3528  0.7039  0.6545
  828MOL0     H11774   0.380   9.758   8.489 -0.1050  0.4035  0.8295
  828MOL0     H11775   0.481   9.730   8.345  1.3215 -1.6069 -0.1962
  828MOL0     H11776   0.283   9.356   8.378  1.6339 -1.3776  0.2174
  828MOL0     H11777   0.873   9.468   8.743 -0.4680 -0.0583  0.6759
  828MOL0     H11778   1.140   9.316   8.871 -1.6472 -1.5298 -2.6268
  828MOL0     H11779   1.049   9.363   9.020 -1.5928 -1.2467  0.1619
  828MOL0     H11780   0.964   9.315   8.869  0.8100 -0.4916  0.3279
  829MOL0     O11781   7.213   8.541   9.744 -0.6207 -0.5108  0.2433
  829MOL0     C11782   7.172   8.431   9.702  0.1246  0.5170  0.4043
  829MOL0     O11783   7.239   8.345   9.615 -0.9154 -0.1174 -0.2969
  829MOL0     C11784   7.323   8.412   9.524  0.1633  0.2856  0.5506
  829MOL0     C11785   7.273   8.458   9.401 -0.6281 -0.1746 -0.4875
  829MOL0     C11786   7.357   8.500   9.294 -0.7767 -0.3811 -0.1579
  829MOL0     C11787   7.504   8.502   9.306 -0.1891 -0.4042 -1.0393
  829MOL0     O11788   7.594   8.546   9.212  0.0483 -0.1016 -0.4008
  829MOL0     C11789   7.535   8.548   9.081  0.4348  0.0982  0.0561
  829MOL0     C11790   7.646   8.551   8.985  0.0643 -0.4792 -0.3843
  829MOL0     C11791   7.748   8.677   8.988 -0.3258 -0.1383  0.1203
  829MOL0     C11792   7.832   8.655   8.858  0.3417 -0.0365  1.0356
  829MOL0     C11793   7.926   8.773   8.855  0.8763  0.2038 -0.5881
  829MOL0     C11794   8.045   8.740   8.753  0.8494  0.1151 -0.0790
  829MOL0     C11795   8.149   8.856   8.746  0.2550  0.0007  0.0393
  829MOL0     C11796   8.263   8.809   8.664 -0.1162  0.0121  0.4208
  829MOL0     N11797   8.372   8.901   8.700  0.5196  0.6192 -0.7158
  829MOL0     C11798   8.430   9.001   8.629  0.8340 -0.2619 -0.1197
  829MOL0     C11799   8.542   9.038   8.701  0.0595  0.0690 -0.0455
  829MOL0     C11800   8.643   9.136   8.654 -0.5578  0.5924 -0.2111
  829MOL0     C11801   8.778   9.115   8.725 -0.3172  0.0348  0.0544
  829MOL0     C11802   8.871   9.196   8.645 -0.4049 -0.7773 -0.1803
  829MOL0     C11803   9.002   9.204   8.722  0.2928 -0.0722 -0.6711
  829MOL0     O11804   8.979   9.297   8.820 -0.2081 -0.3210 -0.2576
  829MOL0     C11805   9.087   9.343   8.889 -1.0548  0.0842  0.3486
  829MOL0     C11806   9.055   9.450   8.966 -0.4159 -0.1548  0.1640
  829MOL0     C11807   9.167   9.513   9.036  0.8005 -0.2820  0.3903
  829MOL0     C11808   9.293   9.467   9.038 -0.4069 -0.2831  0.0641
  829MOL0     C11809   9.390   9.531   9.128  0.0676  0.6466 -1.0153
  829MOL0     O11810   9.520   9.483   9.114  0.2882 -0.2634  0.3913
  829MOL0     C11811   9.623   9.531   9.193  0.7178 -0.2465  0.1969
  829MOL0     C11812   9.678   9.455   9.285  0.5692 -0.1364 -0.6517
  829MOL0     C11813   9.772   9.516   9.374  0.3445  0.9502  0.2335
  829MOL0     C11814   9.817   9.649   9.363 -0.9064  0.2622  0.6695
  829MOL0     O11815   9.902   9.711   9.446 -0.8304 -0.0416 -0.0833
  829MOL0     C11816   9.958   9.624   9.553  0.0508 -0.0513  0.4897
  829MOL0     C11817  10.022   9.712   9.659 -0.3621 -1.2260 -0.1105
  829MOL0     C11818   9.923   9.731   9.784 -0.4879 -0.3051  0.3995
  829MOL0     C11819   9.955   9.858   9.872  1.2586  0.6782 -0.4227
  829MOL0     C11820  10.074   9.818   9.952  0.2905  0.0046  0.5667
  829MOL0     C11821  10.128   9.931  10.045 -0.9809  0.5098  0.2337
  829MOL0     C11822  10.278   9.893  10.082 -0.0135  0.0146  1.3042
  829MOL0     C11823  10.351   9.974  10.194 -0.3349 -0.0307 -0.5750
  829MOL0    Cl11824  10.515   9.899  10.230 -0.3021 -0.4594 -0.4257
  829MOL0     C11825   9.755   9.723   9.266  0.3840  0.0314  0.8884
  829MOL0     C11826   9.666   9.665   9.175 -0.0104 -1.0269  0.4280
  829MOL0     O11827   9.356   9.613   9.211 -0.2083 -0.2336  0.3444
  829MOL0     C11828   9.328   9.365   8.949 -0.6731  0.2267 -0.5066
  829MOL0     C11829   9.223   9.303   8.876 -0.3378 -0.9197 -0.5528
  829MOL0     N11830   8.546   8.954   8.813  0.1799  0.0585  0.7293
  829MOL0     N11831   8.445   8.877   8.812 -0.3061  0.3668 -0.0822
  829MOL0     C11832   7.548   8.450   9.430 -0.0154 -0.3697  0.2119
  829MOL0     C11833   7.463   8.407   9.538 -0.5722  0.2590 -0.1842
  829MOL0     C11834   7.041   8.375   9.759 -0.0738 -0.7650  0.1757
  829MOL0     C11835   7.000   8.244   9.725 -0.3431 -0.0996 -0.9631
  829MOL0     C11836   6.882   8.187   9.768  0.5312  0.2319 -0.0930
  829MOL0     C11837   6.792   8.258   9.844 -0.3267 -0.4398 -0.5688
  829MOL0     O11838   6.668   8.201   9.886 -0.0386 -0.0795 -0.7068
  829MOL0     C11839   6.644   8.060   9.871  1.5940 -0.2904  0.2347
  829MOL0     C11840   6.526   8.017   9.958 -0.0364  0.2851 -0.1555
  829MOL0     C11841   6.400   8.084   9.920  0.3367 -0.8431 -0.0306
  829MOL0     C11842   6.326   8.109  10.044 -0.2013  0.4523  0.4558
  829MOL0     C11843   6.200   8.174  10.000  0.1558 -0.1923  0.3803
  829MOL0     C11844   6.110   8.239   9.956  0.0858 -0.4241  0.8049
  829MOL0     C11845   6.832   8.390   9.878 -1.4108  0.7153 -0.2680
  829MOL0     C11846   6.960   8.452   9.845  0.7043  0.9195  0.9418
  829MOL0     C11847   6.981   8.597   9.898  0.2092  0.7778 -0.2040
  829MOL0     H11848   7.165   8.470   9.394 -0.7074 -1.3481 -1.6587
  829MOL0     H11849   7.310   8.542   9.206  1.2944  2.6709  0.0413
  829MOL0     H11850   7.458   8.472   9.062  1.0758 -1.0906  1.9222
  829MOL0     H11851   7.481   8.642   9.070  0.0406 -0.0306  0.7910
  829MOL0     H11852   7.606   8.548   8.884  1.8677  0.3304 -1.1754
  829MOL0     H11853   7.703   8.458   8.994  0.7904  0.1075  1.7407
  829MOL0     H11854   7.820   8.670   9.070  1.9081 -1.7204 -1.8362
  829MOL0     H11855   7.707   8.778   8.999 -2.3122 -1.1569  3.4108
  829MOL0     H11856   7.879   8.556   8.857 -2.2960 -1.6094 -4.0240
  829MOL0     H11857   7.767   8.657   8.769 -0.2719  2.0240  1.4858
  829MOL0     H11858   7.873   8.864   8.824  0.2170  0.8664  2.1700
  829MOL0     H11859   7.982   8.793   8.947 -1.2816  1.2452  0.5956
  829MOL0     H11860   8.084   8.647   8.795 -2.2149 -0.7169  1.2279
  829MOL0     H11861   8.008   8.728   8.651 -2.7991 -3.3165  1.3988
  829MOL0     H11862   8.188   8.863   8.848 -1.8397 -1.4014  1.0292
  829MOL0     H11863   8.099   8.942   8.701  1.8695  1.4310  0.8612
  829MOL0     H11864   8.283   8.705   8.693 -2.8739 -0.4605  0.8807
  829MOL0     H11865   8.241   8.815   8.557  0.0767  1.5801  0.4490
  829MOL0     H11866   8.381   9.047   8.544 -0.8453 -1.2430  0.2870
  829MOL0     H11867   8.663   9.124   8.547  3.5406  1.6002  0.2495
  829MOL0     H11868   8.606   9.238   8.671 -1.9885  0.2462 -1.0990
  829MOL0     H11869   8.759   9.150   8.827  1.9144 -2.0654  1.2918
  829MOL0     H11870   8.809   9.011   8.727  1.0028  0.3825 -1.2279
  829MOL0     H11871   8.841   9.297   8.617  1.5791 -0.3630 -1.0181
  829MOL0     H11872   8.887   9.151   8.547 -0.6536 -0.7696 -0.2238
  829MOL0     H11873   9.084   9.222   8.652 -0.5018 -1.0535 -1.8846
  829MOL0     H11874   9.002   9.105   8.769 -2.7736  0.1019 -0.1267
  829MOL0     H11875   8.954   9.489   8.970 -1.1097 -1.5143 -2.1025
  829MOL0     H11876   9.135   9.600   9.092 -1.2820 -0.6468 -0.1520
  829MOL0     H11877   9.640   9.355   9.306 -0.3058  0.5204  1.1155
  829MOL0     H11878   9.811   9.454   9.455 -0.4507  0.4912  0.2721
  829MOL0     H11879   9.880   9.569   9.605 -0.4816  2.4148  2.5088
  829MOL0     H11880  10.034   9.563   9.503 -0.0505 -1.0681  1.5433
  829MOL0     H11881  10.113   9.660   9.691  1.4227  2.2957  1.0029
  829MOL0     H11882  10.058   9.806   9.616  1.5027 -1.3379  1.1001
  829MOL0     H11883   9.824   9.744   9.738 -1.3198  1.4666  2.5081
  829MOL0     H11884   9.919   9.643   9.849  0.3896 -1.4731 -1.0731
  829MOL0     H11885   9.875   9.878   9.944  1.8302  0.6059  0.2449
  829MOL0     H11886   9.975   9.944   9.808  0.5803 -0.2297 -1.9195
  829MOL0     H11887  10.156   9.786   9.886 -0.2195  1.2033 -0.6918
  829MOL0     H11888  10.044   9.735  10.016 -1.2804 -0.4323 -0.6811
  829MOL0     H11889  10.126  10.023   9.986 -0.0823 -0.6583 -1.7430
  829MOL0     H11890  10.058   9.943  10.128 -1.7640  2.8581 -0.6916
  829MOL0     H11891  10.347   9.907   9.998  3.4751  4.0123  4.3717
  829MOL0     H11892  10.276   9.789  10.116 -2.1291 -1.4697 -2.7135
  829MOL0     H11893  10.358  10.078  10.162 -3.9122  0.0090 -1.6523
  829MOL0     H11894  10.286   9.975  10.283  0.2027  1.2781 -0.1742
  829MOL0     H11895   9.783   9.828   9.260 -2.2137  0.7334 -0.8519
  829MOL0     H11896   9.630   9.728   9.095  1.5641 -0.6501 -0.0080
  829MOL0     H11897   9.427   9.321   8.947 -1.4011 -1.7387  1.9107
  829MOL0     H11898   9.255   9.223   8.811  5.3681  2.7349 -3.1077
  829MOL0     H11899   7.654   8.464   9.449  0.1679 -0.3377 -0.7614
  829MOL0     H11900   7.519   8.368   9.622  2.4322 -0.3133 -2.2790
  829MOL0     H11901   7.056   8.193   9.648  0.1887  2.1712 -2.1605
  829MOL0     H11902   6.850   8.092   9.724 -0.7196  1.2516 -1.4936
  829MOL0     H11903   6.726   8.001   9.914  1.8606  0.2113  0.4195
  829MOL0     H11904   6.632   8.029   9.766  2.9235  4.5836 -1.6230
  829MOL0     H11905   6.568   8.038  10.057  2.7292 -2.1575 -0.6814
  829MOL0     H11906   6.510   7.910   9.945 -2.4092  0.8692 -3.0919
  829MOL0     H11907   6.344   8.020   9.851 -2.1956  1.4978 -0.3217
  829MOL0     H11908   6.404   8.177   9.862 -0.3726  1.8927  3.9218
  829MOL0     H11909   6.302   8.018  10.100  2.9613 -0.5593  0.3758
  829MOL0     H11910   6.375   8.177  10.114 -2.7129 -0.0195  2.8752
  829MOL0     H11911   6.024   8.296   9.928  1.3876  1.9054  1.2788
  829MOL0     H11912   6.759   8.441   9.939 -0.5522  0.7816  0.7281
  829MOL0     H11913   7.079   8.624   9.939  0.6423 -0.6170 -0.2467
  829MOL0     H11914   6.951   8.678   9.831 -1.9233 -1.5796 -2.3056
  829MOL0     H11915   6.911   8.609   9.981 -1.3448  1.1081 -1.5191
  830MOL0     O11916   9.923   6.086   9.188  0.0355  0.4323 -0.4593
  830MOL0     C11917   9.878   6.176   9.126  0.3278  0.1238 -0.3064
  830MOL0     O11918   9.944   6.247   9.015  0.7704  0.1898  0.0669
  830MOL0     C11919  10.075   6.222   8.976  0.2570  0.6223  0.3582
  830MOL0     C11920  10.167   6.119   9.016 -0.0215 -0.7818 -0.2449
  830MOL0     C11921  10.299   6.110   8.960  0.6679 -0.0739 -0.6260
  830MOL0     C11922  10.349   6.188   8.862 -0.1698 -0.2128  0.2045
  830MOL0     O11923  10.469   6.160   8.810 -0.4725  1.5415 -0.1666
  830MOL0     C11924  10.530   6.256   8.729  0.1938  0.5612  0.4656
  830MOL0     C11925  10.664   6.200   8.685 -0.5534 -0.2840  0.3303
  830MOL0     C11926  10.735   6.311   8.599 -0.4942 -0.3061 -0.0058
  830MOL0     C11927  10.888   6.288   8.605  0.6138 -0.5201 -0.0863
  830MOL0     C11928  10.960   6.389   8.519 -0.2436 -0.3765  0.6390
  830MOL0     C11929  11.118   6.383   8.529 -0.3571  0.3535 -0.3949
  830MOL0     C11930  11.199   6.514   8.507  0.6550  0.2608  0.5176
  830MOL0     C11931  11.344   6.483   8.480 -0.2733 -0.4903 -0.2703
  830MOL0     N11932  11.413   6.610   8.448  0.6557  0.0072 -0.5220
  830MOL0     C11933  11.504   6.672   8.531 -0.5181  0.3900  0.4226
  830MOL0     C11934  11.594   6.736   8.443  0.1553  0.8202 -0.3634
  830MOL0     C11935  11.722   6.801   8.488  0.2027 -0.0013  0.6520
  830MOL0     C11936  11.788   6.745   8.630  0.0866  0.0564  0.8068
  830MOL0     C11937  11.918   6.818   8.663 -0.5651 -0.3543  0.1043
  830MOL0     C11938  12.037   6.795   8.564  0.8559 -0.4962 -0.4949
  830MOL0     O11939  12.156   6.814   8.638  0.2357 -0.4587 -0.0046
  830MOL0     C11940  12.274   6.808   8.561 -0.4548  0.1887  0.0004
  830MOL0     C11941  12.372   6.890   8.600 -0.3165  0.4478 -0.3713
  830MOL0     C11942  12.493   6.915   8.523  0.3594 -0.0222 -0.5551
  830MOL0     C11943  12.524   6.834   8.411 -0.4223 -0.6412 -1.1116
  830MOL0     C11944  12.662   6.839   8.354 -0.2483 -0.2049  0.6329
  830MOL0     O11945  12.702   6.972   8.355  0.0082  0.2448  0.2517
  830MOL0     C11946  12.830   6.990   8.314 -1.1624 -0.6484 -0.6529
  830MOL0     C11947  12.932   7.017   8.404  0.5327 -0.0457  0.0364
  830MOL0     C11948  13.066   7.039   8.363  0.0035 -0.6643 -0.2103
  830MOL0     C11949  13.096   7.031   8.228  0.7359  0.4124  0.6899
  830MOL0     O11950  13.229   7.047   8.181  0.0156  0.0667  0.1925
  830MOL0     C11951  13.274   7.179   8.179  0.0511  0.7625 -0.0374
  830MOL0     C11952  13.402   7.196   8.263  0.0422  0.5607  0.1548
  830MOL0     C11953  13.522   7.145   8.183  0.8016  0.3451  0.0919
  830MOL0     C11954  13.655   7.163   8.262 -0.5298  1.0026  0.1780
  830MOL0     C11955  13.772   7.165   8.164 -1.0876  0.1685  1.0110
  830MOL0     C11956  13.825   7.304   8.145  0.2286  0.4631  0.2403
  830MOL0     C11957  13.907   7.319   8.015 -0.0212  0.0236  0.2636
  830MOL0     C11958  14.054   7.377   8.048  1.2070  0.0234  0.5932
  830MOL0    Cl11959  14.147   7.269   8.162 -0.0487 -0.1471  0.1110
  830MOL0     C11960  12.996   7.009   8.137  0.8834 -0.4822  0.3739
  830MOL0     C11961  12.861   6.996   8.177  0.6825  0.0470  0.3886
  830MOL0     O11962  12.718   6.738   8.311  0.7748  0.1376 -0.3997
  830MOL0     C11963  12.432   6.735   8.377 -0.3648  0.7265  0.2053
  830MOL0     C11964  12.307   6.724   8.449 -0.9364  0.3881 -0.2947
  830MOL0     N11965  11.541   6.731   8.320  0.2560  0.5060 -0.1083
  830MOL0     N11966  11.431   6.660   8.325  0.4320 -0.2320  0.3584
  830MOL0     C11967  10.260   6.293   8.815  0.3242  0.5541 -0.3555
  830MOL0     C11968  10.135   6.313   8.881 -1.0882  0.3879 -0.1162
  830MOL0     C11969   9.756   6.247   9.175 -0.1490 -1.5182 -0.5576
  830MOL0     C11970   9.708   6.353   9.085 -0.6204  0.5360  0.0809
  830MOL0     C11971   9.604   6.432   9.120  0.1906 -0.7549 -0.4013
  830MOL0     C11972   9.538   6.417   9.246 -0.4938  0.4304  0.1363
  830MOL0     O11973   9.445   6.506   9.292  0.0893 -0.4776 -0.4169
  830MOL0     C11974   9.353   6.556   9.192  0.5298  0.1581  0.5805
  830MOL0     C11975   9.238   6.635   9.257  0.6611 -0.2736 -0.1020
  830MOL0     C11976   9.129   6.562   9.328 -0.1969  0.5518 -0.4747
  830MOL0     C11977   9.007   6.661   9.348 -1.4260 -0.3771  1.0656
  830MOL0     C11978   8.937   6.705   9.224  0.1974  0.0690  0.2998
  830MOL0     C11979   8.856   6.741   9.136 -0.3981 -0.3658 -0.6234
  830MOL0     C11980   9.589   6.328   9.338  0.7461 -0.9280  0.3270
  830MOL0     C11981   9.694   6.240   9.303  0.2518 -0.3112  0.0863
  830MOL0     C11982   9.746   6.156   9.415  0.4160  0.2505  0.1892
  830MOL0     H11983  10.135   6.043   9.087  2.8782 -0.3863  1.6775
  830MOL0     H11984  10.356   6.028   9.001 -2.6833 -2.0437  0.4438
  830MOL0     H11985  10.471   6.284   8.641  0.7766  0.3243 -0.0111
  830MOL0     H11986  10.542   6.340   8.798  0.6941 -0.6553  1.9053
  830MOL0     H11987  10.660   6.105   8.631  1.4247 -0.8640  1.1373
  830MOL0     H11988  10.731   6.171   8.766  1.5898 -2.6527 -2.0895
  830MOL0     H11989  10.713   6.407   8.645  1.6719 -0.5213  1.6795
  830MOL0     H11990  10.689   6.313   8.500 -1.6760 -0.5619  0.5238
  830MOL0     H11991  10.904   6.306   8.711  0.6137 -1.2864  0.0438
  830MOL0     H11992  10.916   6.189   8.568  1.5313  0.0083 -0.8601
  830MOL0     H11993  10.936   6.358   8.418 -1.1583 -1.6086  1.2091
  830MOL0     H11994  10.928   6.489   8.551  0.9596  0.0344  0.6356
  830MOL0     H11995  11.144   6.352   8.630  0.0307  0.8942 -0.3283
  830MOL0     H11996  11.150   6.308   8.455  0.9528  0.1109  0.3810
  830MOL0     H11997  11.183   6.587   8.586  1.6489  1.4914 -0.3831
  830MOL0     H11998  11.150   6.551   8.417 -0.7763  1.3576  1.7129
  830MOL0     H11999  11.375   6.436   8.573 -2.2996  0.2392  0.8336
  830MOL0     H12000  11.365   6.411   8.400 -0.5551 -2.5458  1.4233
  830MOL0     H12001  11.517   6.667   8.639 -0.3621  0.7326  0.4201
  830MOL0     H12002  11.790   6.794   8.402 -2.5374  0.5940 -1.7311
  830MOL0     H12003  11.706   6.909   8.492  0.5932  0.0186  2.1435
  830MOL0     H12004  11.717   6.762   8.712 -0.6140 -1.5631  0.5746
  830MOL0     H12005  11.807   6.638   8.622 -0.9853 -0.0217 -1.2070
  830MOL0     H12006  11.950   6.781   8.761  3.2345 -1.4406 -1.3601
  830MOL0     H12007  11.906   6.927   8.671  1.1053  0.0604 -2.0760
  830MOL0     H12008  12.039   6.861   8.477  0.8938  0.8990  0.5311
  830MOL0     H12009  12.027   6.693   8.527  0.4499 -0.7034  0.1566
  830MOL0     H12010  12.365   6.952   8.689  0.1307  0.0185 -0.0302
  830MOL0     H12011  12.562   6.988   8.563  0.1004 -1.0470  1.9413
  830MOL0     H12012  12.898   7.020   8.507  0.6805  1.9776  0.0660
  830MOL0     H12013  13.143   7.062   8.436 -0.3322 -1.2685  0.3429
  830MOL0     H12014  13.301   7.204   8.075  1.3991  1.7514  0.5199
  830MOL0     H12015  13.198   7.246   8.221 -3.0647 -3.1282  1.1262
  830MOL0     H12016  13.418   7.297   8.304 -0.0584  0.7235 -0.2040
  830MOL0     H12017  13.386   7.132   8.351  0.4728 -0.2756 -0.3660
  830MOL0     H12018  13.500   7.039   8.169 -0.3511  0.1387  2.8465
  830MOL0     H12019  13.523   7.195   8.086 -3.2187 -0.6406 -0.6655
  830MOL0     H12020  13.664   7.073   8.323 -0.2502  1.0909  0.2707
  830MOL0     H12021  13.637   7.251   8.324 -1.3953  1.5448 -0.8213
  830MOL0     H12022  13.744   7.113   8.072 -0.0525  2.4031 -0.6577
  830MOL0     H12023  13.854   7.105   8.204 -1.4046 -0.4000  0.8173
  830MOL0     H12024  13.733   7.360   8.125 -1.3627 -2.0187  0.1905
  830MOL0     H12025  13.880   7.343   8.232  0.5512  1.6276 -0.4562
  830MOL0     H12026  13.858   7.399   7.959  1.8068  0.6135 -0.5603
  830MOL0     H12027  13.905   7.228   7.954  0.6430  1.4796 -2.0442
  830MOL0     H12028  14.096   7.389   7.948  1.1626 -0.2533  0.5413
  830MOL0     H12029  14.056   7.479   8.089  0.1327  2.0283 -3.6626
  830MOL0     H12030  13.013   7.017   8.030  0.6401  3.5003  0.5136
  830MOL0     H12031  12.789   6.986   8.097  1.3686 -1.8249 -0.0657
  830MOL0     H12032  12.450   6.665   8.296  1.9177 -1.5229  2.4558
  830MOL0     H12033  12.232   6.655   8.412  0.5734 -1.3531 -0.2606
  830MOL0     H12034  10.304   6.363   8.744  0.9573  0.7325  0.2073
  830MOL0     H12035  10.088   6.407   8.855 -0.4468 -0.4169 -5.1801
  830MOL0     H12036   9.764   6.370   8.994  2.4257  1.0570  1.9050
  830MOL0     H12037   9.573   6.506   9.046  1.3502  1.4374  1.1806
  830MOL0     H12038   9.326   6.467   9.134  2.9202  0.1530 -0.6552
  830MOL0     H12039   9.402   6.625   9.123 -0.5561  1.0985  0.7210
  830MOL0     H12040   9.196   6.697   9.178 -0.0877  1.3682  1.5098
  830MOL0     H12041   9.279   6.699   9.335 -2.2386 -1.2741  2.4509
  830MOL0     H12042   9.163   6.543   9.430 -2.7731 -1.2198  0.1495
  830MOL0     H12043   9.087   6.475   9.276 -0.2631 -0.0695  0.5943
  830MOL0     H12044   8.939   6.599   9.409 -3.4560  1.2517  0.5678
  830MOL0     H12045   9.048   6.747   9.402  3.5092 -1.3613 -0.5910
  830MOL0     H12046   8.783   6.774   9.065 -2.4160 -2.4619  0.3403
  830MOL0     H12047   9.548   6.316   9.438 -0.7293  1.0596  0.0138
  830MOL0     H12048   9.690   6.178   9.507  1.9769  0.2806  1.1688
  830MOL0     H12049   9.736   6.051   9.388 -2.1616  0.4068  0.3126
  830MOL0     H12050   9.847   6.192   9.435  0.0915  0.9016  0.7005
  831MOL0     O12051   0.727   9.843   9.178  0.9866 -0.8994 -0.2266
  831MOL0     C12052   0.615   9.825   9.225  0.3182  0.0330  0.6946
  831MOL0     O12053   0.584   9.865   9.354  0.2457 -0.1746 -0.5128
  831MOL0     C12054   0.680   9.929   9.424 -0.8078  0.0439 -0.3929
  831MOL0     C12055   0.722  10.054   9.392  0.2355  1.1119 -0.2746
  831MOL0     C12056   0.830  10.121   9.457 -0.1997 -0.7017  0.4953
  831MOL0     C12057   0.879  10.065   9.574 -0.3534 -0.5200 -0.1989
  831MOL0     O12058   0.964  10.125   9.665  0.2905 -0.0166  0.3330
  831MOL0     C12059   0.983  10.262   9.641  0.6791  0.7751  0.6901
  831MOL0     C12060   1.099  10.300   9.548 -0.0545 -0.5090  0.1252
  831MOL0     C12061   1.239  10.258   9.580  0.0592  0.0436 -0.1860
  831MOL0     C12062   1.294  10.325   9.708 -0.9282 -0.7198  0.1438
  831MOL0     C12063   1.440  10.276   9.749  1.1922  0.6538  0.3542
  831MOL0     C12064   1.523  10.224   9.637  0.0565 -0.4974 -0.2327
  831MOL0     C12065   1.668  10.199   9.677  1.0018 -0.1036  0.8721
  831MOL0     C12066   1.757  10.185   9.555  0.0204  0.3835  0.4180
  831MOL0     N12067   1.880  10.103   9.590  0.1305 -0.4380 -0.1093
  831MOL0     C12068   1.962  10.142   9.695 -0.3104  0.3905  0.4290
  831MOL0     C12069   2.058  10.048   9.696  0.2924 -0.2174  0.3495
  831MOL0     C12070   2.162  10.049   9.803  0.2217 -0.3603 -0.3197
  831MOL0     C12071   2.229   9.915   9.829 -0.4203  0.1083 -0.3818
  831MOL0     C12072   2.327   9.930   9.940 -0.0972 -0.7826  0.1305
  831MOL0     C12073   2.417   9.808   9.955  0.5103 -0.3528  0.0511
  831MOL0     O12074   2.518   9.840  10.049  0.0793  0.2764  0.4469
  831MOL0     C12075   2.643   9.856  10.000 -0.0263 -1.2129  0.2000
  831MOL0     C12076   2.696   9.857   9.867  0.1880 -0.6779 -0.2452
  831MOL0     C12077   2.824   9.886   9.841  0.2872  1.0084 -0.4324
  831MOL0     C12078   2.913   9.910   9.948 -0.6679  0.9575  1.0928
  831MOL0     C12079   3.056   9.938   9.924  0.3764  1.2583 -0.2296
  831MOL0     O12080   3.101   9.921   9.801 -0.2847  0.0390 -0.1776
  831MOL0     C12081   3.233   9.957   9.774 -0.3431  0.3415 -0.4574
  831MOL0     C12082   3.337   9.890   9.832 -0.6394 -0.0461 -0.1636
  831MOL0     C12083   3.474   9.926   9.808  0.6074 -0.1535  0.1731
  831MOL0     C12084   3.511  10.019   9.714  0.3856  0.1184 -0.2719
  831MOL0     O12085   3.644  10.039   9.684 -0.0045 -0.5555 -0.1507
  831MOL0     C12086   3.679  10.145   9.589  0.1029 -0.0106  0.1294
  831MOL0     C12087   3.830  10.159   9.603 -0.1648  0.9994  0.6207
  831MOL0     C12088   3.879  10.254   9.494 -0.3692 -0.2680  1.1026
  831MOL0     C12089   3.857  10.216   9.346 -0.6802 -0.5176  0.1563
  831MOL0     C12090   3.973  10.277   9.269 -0.3009  0.6125  0.1005
  831MOL0     C12091   4.093  10.182   9.242 -0.4142 -0.0962 -0.8265
  831MOL0     C12092   4.203  10.239   9.154 -0.0542  0.0243 -0.0758
  831MOL0     C12093   4.349  10.194   9.187  0.3318  0.1651  0.5259
  831MOL0    Cl12094   4.359  10.015   9.153 -0.0043 -0.4066  0.3352
  831MOL0     C12095   3.399  10.066   9.638  0.1867 -0.1446 -0.1066
  831MOL0     C12096   3.269  10.040   9.670  0.7625  0.2957 -0.5931
  831MOL0     O12097   3.120   9.971  10.025  0.5893  0.0539  0.4084
  831MOL0     C12098   2.864   9.905  10.079  0.5450 -0.5416 -0.4323
  831MOL0     C12099   2.731   9.887  10.108  0.2018 -0.0411  0.5205
  831MOL0     N12100   2.029   9.958   9.598  0.3268 -0.1951 -0.0411
  831MOL0     N12101   1.930   9.998   9.520  0.6022 -0.2371  0.0975
  831MOL0     C12102   0.835   9.933   9.603  0.1993  0.1330  0.1075
  831MOL0     C12103   0.748   9.855   9.523 -0.2655 -1.2170 -0.3157
  831MOL0     C12104   0.508   9.767   9.144  1.0849 -0.5242 -0.5019
  831MOL0     C12105   0.373   9.797   9.163  0.7024 -0.0680 -0.7113
  831MOL0     C12106   0.273   9.751   9.077  0.7245  0.2135  0.1741
  831MOL0     C12107   0.303   9.673   8.964 -0.9218  0.9068  0.5498
  831MOL0     O12108   0.202   9.632   8.891 -0.0895 -0.7024  0.2131
  831MOL0     C12109   0.238   9.539   8.783  0.3039 -0.6534 -0.0649
  831MOL0     C12110   0.096   9.500   8.731 -0.2620  0.5522  0.1206
  831MOL0     C12111   0.021   9.619   8.686  0.2448 -0.2701 -0.4962
  831MOL0     C12112  -0.102   9.594   8.598 -0.3794 -0.0627 -0.9884
  831MOL0     C12113  -0.069   9.558   8.461 -0.1034  0.4753  0.5716
  831MOL0     C12114  -0.041   9.525   8.348 -0.3398  0.0309  0.3102
  831MOL0     C12115   0.436   9.630   8.953 -0.4298  0.3028 -0.5701
  831MOL0     C12116   0.540   9.679   9.031 -1.0545  0.3494  0.4782
  831MOL0     C12117   0.680   9.620   9.005 -0.2207 -0.6426 -0.3528
  831MOL0     H12118   0.670  10.091   9.304 -1.3959  0.3831  0.3394
  831MOL0     H12119   0.854  10.221   9.422 -0.1400 -0.1370  2.0717
  831MOL0     H12120   0.896  10.313   9.599  0.3655  0.4511  0.9489
  831MOL0     H12121   1.005  10.306   9.738 -1.2786  3.2772  0.1172
  831MOL0     H12122   1.110  10.408   9.556 -2.7810 -0.2770  2.0002
  831MOL0     H12123   1.076  10.280   9.442  0.6628  1.9586 -0.5663
  831MOL0     H12124   1.307  10.277   9.497 -0.0096 -0.5030 -0.3738
  831MOL0     H12125   1.228  10.152   9.601 -1.6593  0.3655  0.7167
  831MOL0     H12126   1.320  10.427   9.678  2.2438 -1.0292  1.4137
  831MOL0     H12127   1.236  10.298   9.797  2.1756  0.8368  2.8430
  831MOL0     H12128   1.502  10.356   9.791 -0.7856  1.8376  1.1569
  831MOL0     H12129   1.429  10.200   9.826  0.1237  1.5073  1.0635
  831MOL0     H12130   1.492  10.129   9.593  2.6985 -2.0060  0.9214
  831MOL0     H12131   1.525  10.300   9.559 -0.0930 -1.9400 -1.6976
  831MOL0     H12132   1.651  10.108   9.737  0.5220 -0.7985 -0.2851
  831MOL0     H12133   1.720  10.272   9.739  2.2596  2.0269 -2.4284
  831MOL0     H12134   1.700  10.151   9.468 -0.2555  1.3080  0.2204
  831MOL0     H12135   1.797  10.280   9.517  1.7268 -1.3512 -2.4722
  831MOL0     H12136   1.961  10.222   9.768  1.0109 -0.5647  1.5520
  831MOL0     H12137   2.247  10.108   9.768 -2.5137  3.1493 -1.6639
  831MOL0     H12138   2.130  10.101   9.893  0.2871  1.6193 -1.3908
  831MOL0     H12139   2.148   9.849   9.861 -2.3562  1.9747 -1.1705
  831MOL0     H12140   2.285   9.865   9.749  0.8197 -2.1301  1.7729
  831MOL0     H12141   2.258   9.947  10.023  0.0864 -1.5237  0.4457
  831MOL0     H12142   2.387  10.020   9.924  0.0790 -0.9598 -0.2272
  831MOL0     H12143   2.459   9.763   9.864  2.0789  0.1064  0.5116
  831MOL0     H12144   2.358   9.730  10.003  1.0554 -0.3227  0.7849
  831MOL0     H12145   2.636   9.831   9.779  3.3127 -0.7732 -2.5114
  831MOL0     H12146   2.846   9.902   9.736  3.6169  1.7213  0.2572
  831MOL0     H12147   3.310   9.815   9.906  0.4697 -0.4650 -0.1625
  831MOL0     H12148   3.558   9.877   9.856  1.5479  1.6371  0.4619
  831MOL0     H12149   3.652  10.129   9.484  2.3311  3.6910 -1.2179
  831MOL0     H12150   3.642  10.243   9.623 -2.4718 -0.0260 -2.1954
  831MOL0     H12151   3.855  10.200   9.701 -0.8623  0.3406  1.0803
  831MOL0     H12152   3.871  10.059   9.587  0.4964  1.2709  0.6015
  831MOL0     H12153   3.843  10.354   9.520  0.5421  0.2180  0.5537
  831MOL0     H12154   3.987  10.244   9.505 -0.7197 -3.4458  2.9872
  831MOL0     H12155   3.759  10.252   9.312  0.6351  0.3476 -3.0224
  831MOL0     H12156   3.855  10.107   9.341 -2.8935 -0.5293  0.1321
  831MOL0     H12157   4.018  10.367   9.313  0.4996 -0.2410  1.0582
  831MOL0     H12158   3.938  10.288   9.166 -0.8553 -1.2762  0.0604
  831MOL0     H12159   4.147  10.170   9.336  3.4323  1.7535 -2.5608
  831MOL0     H12160   4.049  10.086   9.214 -1.6795 -0.8894  3.2439
  831MOL0     H12161   4.191  10.348   9.150 -1.1698 -0.1110 -0.7036
  831MOL0     H12162   4.161  10.198   9.062 -0.3068 -2.8205  1.2054
  831MOL0     H12163   4.422  10.254   9.132  1.4700 -0.3168  1.4712
  831MOL0     H12164   4.368  10.219   9.291 -0.1700 -0.0145  0.6655
  831MOL0     H12165   3.418  10.123   9.548  0.2438 -0.6622 -0.4262
  831MOL0     H12166   3.190  10.108   9.640 -0.7174 -0.4808  1.2915
  831MOL0     H12167   2.930   9.915  10.164  0.1874 -1.4975 -0.0271
  831MOL0     H12168   2.690   9.896  10.208  0.7442 -1.2839  0.8753
  831MOL0     H12169   0.882   9.882   9.686  0.0816  1.1644  0.8328
  831MOL0     H12170   0.725   9.754   9.557 -1.3409 -1.1299 -0.7384
  831MOL0     H12171   0.347   9.851   9.254 -2.9328 -0.2947 -1.4614
  831MOL0     H12172   0.169   9.778   9.087  0.8537  1.0715 -0.7076
  831MOL0     H12173   0.282   9.447   8.822 -1.2317 -0.9120  1.1785
  831MOL0     H12174   0.304   9.577   8.705 -0.6406  2.8857  0.7085
  831MOL0     H12175   0.036   9.445   8.804 -0.4195  2.9339  1.8917
  831MOL0     H12176   0.100   9.438   8.640  3.2670  1.3274 -0.3949
  831MOL0     H12177   0.087   9.693   8.641  0.8740  0.1988  1.1275
  831MOL0     H12178  -0.013   9.665   8.779 -0.4357 -1.3891 -0.1637
  831MOL0     H12179  -0.152   9.509   8.645  0.2960  0.6722  1.2077
  831MOL0     H12180  -0.180   9.669   8.613  0.4353  0.5776  0.3143
  831MOL0     H12181   0.001   9.489   8.257  1.0336  0.5684  0.7063
  831MOL0     H12182   0.461   9.555   8.879  0.1527 -0.8602  0.7507
  831MOL0     H12183   0.721   9.572   9.094  0.8688 -1.4594 -1.2620
  831MOL0     H12184   0.674   9.540   8.931  2.0438 -2.6756  1.4956
  831MOL0     H12185   0.748   9.704   8.989  1.0927 -0.7662  3.5662
  832MOL0     O12186   9.196   8.046   4.031 -0.1847  0.1479  0.0844
  832MOL0     C12187   9.077   8.030   4.054  0.5603  0.1214  0.2397
  832MOL0     O12188   9.028   7.948   4.148  0.4205  0.3713  0.4601
  832MOL0     C12189   9.124   7.867   4.216  1.5386  0.3778  0.3144
  832MOL0     C12190   9.196   7.766   4.145 -0.2929  0.0658  1.1019
  832MOL0     C12191   9.301   7.701   4.208  0.2007 -0.2599 -0.7002
  832MOL0     C12192   9.341   7.735   4.335 -0.0458  0.6388  0.3279
  832MOL0     O12193   9.448   7.677   4.402 -0.1647 -0.5878 -0.9686
  832MOL0     C12194   9.542   7.586   4.335 -0.2926 -0.4093 -0.2310
  832MOL0     C12195   9.643   7.527   4.429  0.3212  0.1405  0.2890
  832MOL0     C12196   9.762   7.456   4.360 -0.0085 -0.3001 -0.4483
  832MOL0     C12197   9.883   7.443   4.459 -0.2965 -0.5290  0.3866
  832MOL0     C12198  10.013   7.403   4.386 -0.5676 -0.8105  0.0985
  832MOL0     C12199  10.138   7.391   4.477 -0.3944 -0.6337  0.4072
  832MOL0     C12200  10.270   7.412   4.399 -0.0285 -0.0819 -0.2131
  832MOL0     C12201  10.391   7.460   4.482  0.8158 -0.7521  0.4820
  832MOL0     N12202  10.509   7.483   4.402  0.6061 -0.2666  0.1851
  832MOL0     C12203  10.589   7.393   4.333  0.7894 -0.1490 -0.1158
  832MOL0     C12204  10.679   7.469   4.259  0.5395 -0.2071  0.6042
  832MOL0     C12205  10.789   7.406   4.171  0.2516 -1.0580  0.0035
  832MOL0     C12206  10.929   7.466   4.194 -0.0731  0.2633  0.2537
  832MOL0     C12207  10.982   7.442   4.340  0.4062 -0.9750  0.3579
  832MOL0     C12208  11.103   7.516   4.367 -0.6969  0.6540 -0.6802
  832MOL0     O12209  11.194   7.460   4.273 -0.3883  0.6845  0.1180
  832MOL0     C12210  11.287   7.547   4.219 -0.0625 -0.1412  0.0003
  832MOL0     C12211  11.313   7.551   4.086 -0.0303 -0.2425 -0.7042
  832MOL0     C12212  11.408   7.638   4.033 -0.0280 -0.3353 -0.4091
  832MOL0     C12213  11.487   7.723   4.114 -0.8381 -0.4424 -0.3102
  832MOL0     C12214  11.589   7.817   4.054  0.2656 -1.0310  0.5531
  832MOL0     O12215  11.571   7.845   3.924  0.3280  0.1641  0.3001
  832MOL0     C12216  11.662   7.923   3.858  0.5803  0.0236 -0.6965
  832MOL0     C12217  11.795   7.893   3.849  0.4792 -0.0959  0.8493
  832MOL0     C12218  11.881   7.992   3.810  0.1553 -0.1812  0.4466
  832MOL0     C12219  11.832   8.117   3.780 -0.3312 -0.4157 -0.4835
  832MOL0     O12220  11.918   8.216   3.762 -0.3837  0.3444  0.3271
  832MOL0     C12221  11.897   8.305   3.647 -0.1487  0.2410  0.8086
  832MOL0     C12222  12.016   8.394   3.636 -0.0539  0.5102  0.6193
  832MOL0     C12223  12.162   8.336   3.611  0.3496 -0.5099  0.1162
  832MOL0     C12224  12.171   8.235   3.489  0.3486  0.2622  0.9392
  832MOL0     C12225  12.322   8.198   3.454  0.2211  0.6737 -0.0087
  832MOL0     C12226  12.382   8.112   3.564 -0.2203 -0.2190 -0.5873
  832MOL0     C12227  12.523   8.074   3.521 -0.2978 -0.3444 -0.4776
  832MOL0     C12228  12.586   7.991   3.638 -0.0473 -0.3279 -0.5516
  832MOL0    Cl12229  12.761   8.016   3.599  0.2742  0.4862 -0.5524
  832MOL0     C12230  11.695   8.141   3.788 -0.9990  0.6984  0.4252
  832MOL0     C12231  11.609   8.049   3.833  0.1622 -0.4117  0.2505
  832MOL0     O12232  11.678   7.855   4.124 -0.1789  0.1784  0.2303
  832MOL0     C12233  11.460   7.717   4.241 -0.6601  0.1503 -0.7055
  832MOL0     C12234  11.359   7.632   4.298  0.3492  0.2353 -0.5215
  832MOL0     N12235  10.652   7.606   4.271  0.6403 -1.7529 -0.4853
  832MOL0     N12236  10.556   7.607   4.363 -0.3221  0.3495 -0.3415
  832MOL0     C12237   9.270   7.822   4.403  0.4233  0.0104  0.3493
  832MOL0     C12238   9.151   7.882   4.354 -0.1679 -0.0108  0.0155
  832MOL0     C12239   8.976   8.111   3.989  0.0552  0.4420  0.4072
  832MOL0     C12240   8.999   8.151   3.856 -0.3995  0.0162 -0.2609
  832MOL0     C12241   8.906   8.222   3.781 -0.1093 -0.0566  0.2200
  832MOL0     C12242   8.777   8.226   3.824 -0.1504 -1.1919 -0.8921
  832MOL0     O12243   8.694   8.280   3.740  1.0108 -0.4735  1.2099
  832MOL0     C12244   8.579   8.206   3.700  0.3830  0.0356 -1.1561
  832MOL0     C12245   8.536   8.255   3.562 -0.3832 -0.1158 -0.3436
  832MOL0     C12246   8.647   8.298   3.461  0.0554  0.6921  0.6154
  832MOL0     C12247   8.710   8.172   3.394 -0.4831  0.3268  0.2065
  832MOL0     C12248   8.788   8.202   3.275  0.9799 -0.3535 -0.1836
  832MOL0     C12249   8.848   8.237   3.172 -0.2565  0.7247 -0.6585
  832MOL0     C12250   8.747   8.196   3.963 -0.6384 -0.0635  0.3043
  832MOL0     C12251   8.847   8.141   4.047  0.3512  0.5181  0.5143
  832MOL0     C12252   8.798   8.102   4.187  0.0409  0.6863 -0.7299
  832MOL0     H12253   9.166   7.746   4.043 -0.6242  3.6771  0.3320
  832MOL0     H12254   9.369   7.637   4.153  1.5662 -0.3169  0.9867
  832MOL0     H12255   9.483   7.507   4.288 -1.0555  0.6419 -1.0790
  832MOL0     H12256   9.591   7.657   4.268  0.3538  0.9888  1.6224
  832MOL0     H12257   9.600   7.449   4.492 -0.5859 -0.5424 -1.1217
  832MOL0     H12258   9.686   7.611   4.485  1.6086  3.0429 -4.4449
  832MOL0     H12259   9.802   7.516   4.278  3.3190  0.7919  1.7421
  832MOL0     H12260   9.732   7.356   4.328 -1.0082  0.5274 -2.1925
  832MOL0     H12261   9.896   7.538   4.512  2.1723 -0.7750  0.3433
  832MOL0     H12262   9.861   7.373   4.540  2.7637 -2.5669 -0.3771
  832MOL0     H12263   9.998   7.317   4.321  0.2668 -0.9466  0.0683
  832MOL0     H12264  10.039   7.485   4.319 -0.3026 -1.7038 -0.9100
  832MOL0     H12265  10.138   7.479   4.543  2.0087 -0.3969  0.1921
  832MOL0     H12266  10.147   7.301   4.538  1.4917 -1.0589 -0.4139
  832MOL0     H12267  10.265   7.492   4.324  1.7607  1.9599  1.7060
  832MOL0     H12268  10.299   7.316   4.354  1.1079 -0.2457  0.8114
  832MOL0     H12269  10.372   7.562   4.517  0.6535  0.8291 -3.6254
  832MOL0     H12270  10.414   7.387   4.560  1.2349 -0.8396  0.2820
  832MOL0     H12271  10.585   7.285   4.319 -2.3553  0.1038 -2.2099
  832MOL0     H12272  10.796   7.303   4.207 -0.5764 -0.5609  1.6511
  832MOL0     H12273  10.759   7.421   4.067  0.3592 -1.9318 -0.1617
  832MOL0     H12274  11.003   7.415   4.132  0.3359  2.4324 -1.1554
  832MOL0     H12275  10.924   7.573   4.173  1.6359  1.0417  3.1887
  832MOL0     H12276  10.989   7.333   4.340 -1.2635 -1.1208 -0.5737
  832MOL0     H12277  10.902   7.471   4.409 -0.1163 -1.3694 -0.0719
  832MOL0     H12278  11.139   7.489   4.466  1.3913  0.1547 -1.5260
  832MOL0     H12279  11.096   7.625   4.361 -1.4780  0.7760  1.5500
  832MOL0     H12280  11.262   7.498   4.006  3.6438  0.4539 -3.7438
  832MOL0     H12281  11.430   7.647   3.927 -0.7270  2.4764 -0.4098
  832MOL0     H12282  11.844   7.807   3.893  1.0574  0.0935  0.5819
  832MOL0     H12283  11.985   7.964   3.825  0.8304  1.6701 -0.4775
  832MOL0     H12284  11.878   8.252   3.553 -1.1092  0.7631  0.6922
  832MOL0     H12285  11.804   8.360   3.666 -0.3090 -0.3062  1.6343
  832MOL0     H12286  12.001   8.462   3.552 -0.4730  2.4577  2.2134
  832MOL0     H12287  12.020   8.453   3.728  3.1608 -0.2823  1.1128
  832MOL0     H12288  12.238   8.413   3.598 -1.1774  0.8797 -1.0131
  832MOL0     H12289  12.186   8.275   3.699 -1.7938 -0.7047  0.6205
  832MOL0     H12290  12.125   8.267   3.395  0.2054 -0.8989  0.5942
  832MOL0     H12291  12.117   8.146   3.521  1.0188 -0.0233  1.3159
  832MOL0     H12292  12.377   8.292   3.447  3.1175 -0.6614  2.4344
  832MOL0     H12293  12.320   8.137   3.364 -1.1537 -0.8928  1.0214
  832MOL0     H12294  12.391   8.173   3.654  1.0540  1.2944 -1.6855
  832MOL0     H12295  12.324   8.021   3.583  0.5094 -0.5018  0.3929
  832MOL0     H12296  12.588   8.158   3.493  3.1328 -1.5482  2.9266
  832MOL0     H12297  12.514   8.003   3.438 -1.9040 -0.6670 -0.0556
  832MOL0     H12298  12.573   8.022   3.742  1.6442  3.8122 -1.3436
  832MOL0     H12299  12.552   7.888   3.630  0.4569 -0.8129  2.4741
  832MOL0     H12300  11.649   8.237   3.765 -0.9793  0.5455 -0.2591
  832MOL0     H12301  11.502   8.064   3.845  0.0949 -1.4286  1.0683
  832MOL0     H12302  11.509   7.775   4.319 -2.4133 -0.6206  1.0577
  832MOL0     H12303  11.331   7.643   4.402 -2.2221 -0.3406 -1.0765
  832MOL0     H12304   9.296   7.840   4.507  1.8969  0.1618 -0.0267
  832MOL0     H12305   9.085   7.950   4.407  0.1187  2.0056 -2.0623
  832MOL0     H12306   9.093   8.130   3.805 -1.5697  1.1607 -3.1177
  832MOL0     H12307   8.932   8.258   3.682 -2.6994  1.5562  0.0285
  832MOL0     H12308   8.502   8.225   3.776  1.9751  2.6926 -0.0596
  832MOL0     H12309   8.597   8.098   3.696 -0.4637 -0.2064  0.4923
  832MOL0     H12310   8.459   8.330   3.586  0.3935 -0.1180  2.5422
  832MOL0     H12311   8.486   8.178   3.503 -1.1607  0.9905 -1.1613
  832MOL0     H12312   8.729   8.360   3.499  1.7517  0.2246 -2.0206
  832MOL0     H12313   8.610   8.367   3.384 -0.0271 -1.6065 -1.5053
  832MOL0     H12314   8.756   8.098   3.460  1.4258  1.5596  0.3145
  832MOL0     H12315   8.621   8.117   3.359 -0.0886  1.2633 -2.5091
  832MOL0     H12316   8.887   8.264   3.077 -0.3741  0.7579 -0.6979
  832MOL0     H12317   8.648   8.215   4.002 -1.1093 -2.9935  0.7872
  832MOL0     H12318   8.765   7.998   4.189 -2.3458  1.2552 -3.7515
  832MOL0     H12319   8.869   8.124   4.267  1.3690  0.6677 -1.8633
  832MOL0     H12320   8.715   8.169   4.211  0.2949  1.0100 -0.7455
  833MOL0     O12321   9.926   1.632  10.706  0.2045  0.0925 -0.0725
  833MOL0     C12322   9.925   1.514  10.655  0.3926 -0.1476  0.4876
  833MOL0     O12323  10.017   1.414  10.682 -0.4893  0.0128  0.4059
  833MOL0     C12324  10.133   1.449  10.746 -0.3251  0.7490 -0.1647
  833MOL0     C12325  10.160   1.382  10.869 -0.1210  0.5053 -0.6404
  833MOL0     C12326  10.279   1.420  10.941  0.3605 -0.2981  0.2045
  833MOL0     C12327  10.363   1.521  10.890 -0.0329 -0.2059 -0.4287
  833MOL0     O12328  10.484   1.550  10.939 -0.5208  0.0277  0.1108
  833MOL0     C12329  10.552   1.472  11.040  0.1211 -0.0526  0.7250
  833MOL0     C12330  10.689   1.526  11.078 -0.3325  0.0124  0.6606
  833MOL0     C12331  10.709   1.671  11.081  0.4877 -0.3786 -0.1301
  833MOL0     C12332  10.836   1.699  11.155 -0.4099 -0.6549 -0.3255
  833MOL0     C12333  10.873   1.844  11.163 -0.3050  0.0670  0.1868
  833MOL0     C12334  10.987   1.884  11.262 -0.3597 -0.5549  0.4111
  833MOL0     C12335  11.125   1.831  11.228 -0.2731 -0.0215  0.4341
  833MOL0     C12336  11.215   1.786  11.339 -0.9114 -0.8455  0.5597
  833MOL0     N12337  11.352   1.819  11.297 -0.3829 -0.2049  0.2883
  833MOL0     C12338  11.440   1.891  11.382 -0.0019  0.0248  0.8471
  833MOL0     C12339  11.561   1.869  11.332  0.4461  0.0284 -0.8035
  833MOL0     C12340  11.680   1.934  11.397 -0.2105 -0.1313  0.1559
  833MOL0     C12341  11.723   1.868  11.529 -0.8551  0.3912 -0.6060
  833MOL0     C12342  11.776   1.720  11.512 -1.1111  0.4586 -0.3429
  833MOL0     C12343  11.874   1.702  11.397  0.2093  0.1215  0.0823
  833MOL0     O12344  11.976   1.802  11.407 -0.4821  0.3132  0.3446
  833MOL0     C12345  12.039   1.843  11.296  0.0716  0.3409  0.9799
  833MOL0     C12346  12.066   1.977  11.265  1.1804  0.4504 -0.5751
  833MOL0     C12347  12.114   2.023  11.145 -0.0269 -0.4941 -0.7167
  833MOL0     C12348  12.129   1.933  11.044  0.2811  1.0351 -0.6280
  833MOL0     C12349  12.180   1.987  10.918 -0.1307  0.0240  0.1683
  833MOL0     O12350  12.184   2.123  10.910 -0.5638  0.7372  0.6079
  833MOL0     C12351  12.215   2.171  10.785  0.0290 -0.2649 -0.2466
  833MOL0     C12352  12.137   2.254  10.703 -0.0058 -0.1302  0.1882
  833MOL0     C12353  12.179   2.307  10.584 -0.5653 -0.6349 -0.0102
  833MOL0     C12354  12.309   2.287  10.538 -0.2031  0.3016 -0.5057
  833MOL0     O12355  12.373   2.349  10.434  0.0004  0.2476  0.8759
  833MOL0     C12356  12.301   2.431  10.337 -0.6806  0.5625  0.0051
  833MOL0     C12357  12.226   2.327  10.239  0.7933 -0.9484 -0.5542
  833MOL0     C12358  12.319   2.294  10.122  0.4001  0.0566 -0.6484
  833MOL0     C12359  12.238   2.220  10.011  0.5734  0.1925  0.3034
  833MOL0     C12360  12.325   2.186   9.889  0.9486  0.3232 -0.6325
  833MOL0     C12361  12.411   2.299   9.839 -0.1908 -0.7763  0.5947
  833MOL0     C12362  12.467   2.264   9.701 -0.5489 -0.4623  0.4847
  833MOL0     C12363  12.381   2.319   9.591 -0.5112 -0.0707  0.5983
  833MOL0    Cl12364  12.444   2.261   9.430  0.6989 -0.1925  0.3262
  833MOL0     C12365  12.393   2.207  10.615 -0.1687 -0.3374 -0.0626
  833MOL0     C12366  12.350   2.148  10.734  0.2744 -0.4490  0.6602
  833MOL0     O12367  12.182   1.913  10.821 -0.1725  0.0673  0.2335
  833MOL0     C12368  12.094   1.792  11.061 -0.0707 -1.2839  0.3654
  833MOL0     C12369  12.060   1.756  11.191  0.7715  0.7702  0.0708
  833MOL0     N12370  11.555   1.784  11.226  0.2105 -0.8592 -0.2954
  833MOL0     N12371  11.432   1.754  11.203 -0.1542 -0.7933 -0.1723
  833MOL0     C12372  10.328   1.583  10.767 -0.5015  0.0274 -0.2298
  833MOL0     C12373  10.213   1.551  10.687 -0.1991 -0.3954 -0.0511
  833MOL0     C12374   9.796   1.464  10.585 -1.1978  0.8721  0.5629
  833MOL0     C12375   9.758   1.331  10.609  0.2369  0.2651 -0.2618
  833MOL0     C12376   9.644   1.287  10.546  0.5975  1.3575  0.0245
  833MOL0     C12377   9.577   1.356  10.449 -0.0201  0.0770  0.5264
  833MOL0     O12378   9.463   1.317  10.372 -0.0230  0.0923  0.2275
  833MOL0     C12379   9.421   1.181  10.370  0.4148  0.2230 -0.9961
  833MOL0     C12380   9.468   1.098  10.241 -0.4097  0.1126 -0.9539
  833MOL0     C12381   9.411   0.950  10.252  0.8106  0.1830 -0.6487
  833MOL0     C12382   9.465   0.881  10.127  1.2172  0.3319  0.8551
  833MOL0     C12383   9.491   0.733  10.141  0.9120 -0.3347  0.4739
  833MOL0     C12384   9.500   0.619  10.175 -0.2430  0.5217  0.5416
  833MOL0     C12385   9.618   1.488  10.430 -0.1780 -0.3666  0.1515
  833MOL0     C12386   9.727   1.542  10.491 -0.7809  0.5906 -0.5383
  833MOL0     C12387   9.763   1.678  10.453  0.2011  0.1356 -1.0458
  833MOL0     H12388  10.086   1.318  10.914 -1.3612  0.0631 -3.1570
  833MOL0     H12389  10.290   1.394  11.046  1.9150 -3.7212 -0.6713
  833MOL0     H12390  10.504   1.460  11.137  4.9960  1.2840  3.6692
  833MOL0     H12391  10.561   1.369  11.003 -6.0608 -0.9216  0.5766
  833MOL0     H12392  10.758   1.489  11.001 -0.4591 -2.0504  1.4532
  833MOL0     H12393  10.711   1.483  11.176  0.1888 -1.1333  0.0636
  833MOL0     H12394  10.624   1.722  11.128  0.2557  2.0038 -2.8831
  833MOL0     H12395  10.717   1.706  10.978  2.3102  0.4406  0.2463
  833MOL0     H12396  10.810   1.684  11.260 -0.6826  0.6870 -0.1835
  833MOL0     H12397  10.912   1.634  11.111  0.5355  0.4664 -0.3989
  833MOL0     H12398  10.899   1.874  11.061 -0.6793  2.0178  0.6180
  833MOL0     H12399  10.783   1.905  11.174 -0.1739  0.5967 -1.3814
  833MOL0     H12400  10.992   1.993  11.256  1.9604 -0.6756 -0.6976
  833MOL0     H12401  10.946   1.869  11.363 -2.0113 -0.9542 -0.2750
  833MOL0     H12402  11.178   1.916  11.183  1.2388 -1.2386 -0.1908
  833MOL0     H12403  11.114   1.751  11.153  1.6613  0.1425 -0.0662
  833MOL0     H12404  11.197   1.838  11.434  2.0958  3.1830 -0.7790
  833MOL0     H12405  11.198   1.679  11.353 -0.1428 -0.9054  1.0970
  833MOL0     H12406  11.408   1.949  11.468 -0.0332 -2.0366  2.2766
  833MOL0     H12407  11.758   1.942  11.320 -2.3056  0.8710 -2.0002
  833MOL0     H12408  11.655   2.038  11.422  0.2709 -0.5412  2.6082
  833MOL0     H12409  11.803   1.932  11.568  0.4623 -0.4097 -1.9592
  833MOL0     H12410  11.649   1.874  11.610  0.0337  2.6729  0.1250
  833MOL0     H12411  11.694   1.647  11.503 -0.5191 -0.4344  1.1601
  833MOL0     H12412  11.828   1.694  11.604  0.3532  0.3129 -1.1819
  833MOL0     H12413  11.818   1.711  11.303 -0.0622  0.0725  0.2391
  833MOL0     H12414  11.917   1.602  11.391 -2.1358 -1.0201  0.8694
  833MOL0     H12415  12.051   2.053  11.341  1.1670 -1.4253  1.3987
  833MOL0     H12416  12.127   2.130  11.135  1.4127 -0.6918 -1.1688
  833MOL0     H12417  12.033   2.257  10.731  0.0600  1.0087  0.3509
  833MOL0     H12418  12.106   2.367  10.531 -0.5135 -1.3221 -0.8807
  833MOL0     H12419  12.229   2.495  10.390 -1.1670  2.4088 -2.6495
  833MOL0     H12420  12.358   2.498  10.271  2.4493 -0.9946  0.9246
  833MOL0     H12421  12.186   2.243  10.296 -2.3309  0.6735 -0.1695
  833MOL0     H12422  12.139   2.377  10.196  1.2776 -0.4440 -0.9683
  833MOL0     H12423  12.358   2.391  10.088 -2.5559  2.5089  2.2332
  833MOL0     H12424  12.407   2.236  10.150  0.6597  0.4785 -0.5765
  833MOL0     H12425  12.153   2.282   9.981 -1.9585 -2.9615  0.3276
  833MOL0     H12426  12.203   2.122  10.045  1.6399 -0.4002 -0.2888
  833MOL0     H12427  12.260   2.156   9.807 -0.1565 -0.0336  0.3525
  833MOL0     H12428  12.398   2.107   9.906  0.1867 -0.5866 -1.4920
  833MOL0     H12429  12.353   2.390   9.825 -0.0040 -0.6239  0.8070
  833MOL0     H12430  12.491   2.315   9.912 -0.2328 -2.2295  1.0018
  833MOL0     H12431  12.488   2.158   9.683 -0.7381 -0.2890 -0.8531
  833MOL0     H12432  12.566   2.310   9.694 -0.4937 -0.7148 -0.5485
  833MOL0     H12433  12.277   2.290   9.603 -0.6050 -1.2798 -2.2055
  833MOL0     H12434  12.387   2.428   9.585 -0.4689 -0.1481 -1.5246
  833MOL0     H12435  12.497   2.209  10.585 -0.3302 -1.2397 -0.7387
  833MOL0     H12436  12.419   2.096  10.800  0.1027 -1.0989  0.3436
  833MOL0     H12437  12.100   1.711  10.989  1.8288  0.6521 -1.8412
  833MOL0     H12438  12.035   1.651  11.201 -1.9729  1.2784 -0.6590
  833MOL0     H12439  10.396   1.665  10.746  0.0711  0.0842  1.6585
  833MOL0     H12440  10.184   1.601  10.595  0.6102 -2.0815 -1.2606
  833MOL0     H12441   9.808   1.261  10.675 -2.1477 -0.4990  0.8236
  833MOL0     H12442   9.618   1.184  10.570  1.0539  1.3837  0.6736
  833MOL0     H12443   9.313   1.199  10.358  0.0262 -0.8905  0.4389
  833MOL0     H12444   9.442   1.121  10.459  0.5461  0.8230 -0.6125
  833MOL0     H12445   9.576   1.103  10.229 -0.4900  1.4088 -1.3059
  833MOL0     H12446   9.440   1.143  10.145  0.4459  0.7372 -0.9232
  833MOL0     H12447   9.303   0.938  10.263  1.3144 -3.8260  2.3726
  833MOL0     H12448   9.444   0.903  10.345 -1.5977 -2.3524 -0.9453
  833MOL0     H12449   9.403   0.912  10.043 -0.1581  1.4370  2.2152
  833MOL0     H12450   9.555   0.938  10.101  0.2045  0.4553 -3.0011
  833MOL0     H12451   9.514   0.519  10.213  2.0065  0.8850  0.7921
  833MOL0     H12452   9.560   1.549  10.361  0.2772  0.1513  0.2219
  833MOL0     H12453   9.871   1.683  10.468  0.1404 -2.3649  0.8324
  833MOL0     H12454   9.728   1.707  10.354  2.2422 -0.2222 -1.9202
  833MOL0     H12455   9.727   1.755  10.522  0.5061 -0.3938 -0.2777
  834MOL0     O12456   8.127   3.048   9.510  0.2583 -0.2872 -0.8701
  834MOL0     C12457   8.124   3.027   9.396  0.8703  1.3172  0.0890
  834MOL0     O12458   8.232   3.020   9.317 -0.1815  0.6784  0.8558
  834MOL0     C12459   8.352   3.080   9.341 -0.2187  0.7221 -0.1606
  834MOL0     C12460   8.379   3.195   9.413  0.7173  0.3682  0.0475
  834MOL0     C12461   8.510   3.252   9.431 -0.0939 -0.1486 -0.1365
  834MOL0     C12462   8.606   3.192   9.349 -0.2178  0.0300 -1.0511
  834MOL0     O12463   8.734   3.239   9.348  0.3802 -0.0420 -0.2369
  834MOL0     C12464   8.771   3.323   9.239  0.6095 -0.8907  0.1593
  834MOL0     C12465   8.917   3.353   9.227  0.2327 -0.3582  0.0329
  834MOL0     C12466   8.988   3.416   9.354 -0.6523 -0.5014  0.0392
  834MOL0     C12467   9.132   3.441   9.316  0.3970  0.2619 -0.6106
  834MOL0     C12468   9.207   3.513   9.423 -0.0518  0.6955 -0.2544
  834MOL0     C12469   9.230   3.435   9.560 -0.4089  0.4165 -0.6149
  834MOL0     C12470   9.310   3.515   9.656 -0.4145 -0.5203 -0.8904
  834MOL0     C12471   9.349   3.438   9.785 -0.8172  0.2974  1.5051
  834MOL0     N12472   9.475   3.485   9.844  0.0983  0.2261 -0.3484
  834MOL0     C12473   9.488   3.546   9.969  0.5893  0.0497  0.6499
  834MOL0     C12474   9.615   3.542  10.000  0.9356 -0.5542  0.1387
  834MOL0     C12475   9.658   3.608  10.129  0.4569  0.0171  0.0329
  834MOL0     C12476   9.807   3.601  10.149  0.7147 -1.3054 -0.0365
  834MOL0     C12477   9.846   3.680  10.271 -0.3302  0.2294 -0.2256
  834MOL0     C12478   9.990   3.716  10.268 -0.0069 -0.4461 -0.8222
  834MOL0     O12479  10.065   3.607  10.223 -0.0178 -0.4716 -0.9911
  834MOL0     C12480  10.198   3.592  10.251  0.0597 -0.0649  1.0554
  834MOL0     C12481  10.248   3.460  10.251  0.1636 -0.1526  0.4934
  834MOL0     C12482  10.384   3.430  10.279 -0.2128  0.2853  0.2258
  834MOL0     C12483  10.463   3.542  10.327  0.4051 -0.8409 -0.0628
  834MOL0     C12484  10.597   3.514  10.377  0.0347 -0.0491 -0.1843
  834MOL0     O12485  10.668   3.403  10.335  0.3865 -0.0978 -0.3031
  834MOL0     C12486  10.796   3.389  10.374  1.0677  0.8893 -0.5510
  834MOL0     C12487  10.821   3.338  10.501  0.0576  0.0717 -0.4800
  834MOL0     C12488  10.948   3.319  10.559  0.3090  0.3296 -0.4006
  834MOL0     C12489  11.059   3.335  10.482 -0.9926 -0.2764 -0.2399
  834MOL0     O12490  11.190   3.315  10.522 -0.1698 -0.3220  0.2799
  834MOL0     C12491  11.218   3.312  10.661 -0.9730 -0.3989  0.1391
  834MOL0     C12492  11.209   3.176  10.728  0.3609  0.5745  0.0852
  834MOL0     C12493  11.293   3.075  10.651  0.5957 -0.1340  0.9607
  834MOL0     C12494  11.446   3.090  10.654 -0.0784  0.0980 -0.8100
  834MOL0     C12495  11.503   3.029  10.779  0.7930 -0.6850 -0.4331
  834MOL0     C12496  11.491   2.872  10.788  1.1742 -0.6608  0.2070
  834MOL0     C12497  11.587   2.808  10.888  0.4683 -0.1095  0.2334
  834MOL0     C12498  11.591   2.659  10.884  0.7471  0.9289 -0.3104
  834MOL0    Cl12499  11.649   2.582  11.033  0.0251 -0.0587 -0.2163
  834MOL0     C12500  11.046   3.390  10.359  0.6623 -0.8463  0.1951
  834MOL0     C12501  10.913   3.409  10.299  0.1214  0.6055 -0.1352
  834MOL0     O12502  10.639   3.591  10.463 -0.9127  0.3748 -1.0156
  834MOL0     C12503  10.406   3.672  10.332 -0.2182  0.0417 -0.5141
  834MOL0     C12504  10.276   3.702  10.293 -0.2566  0.0432  0.2564
  834MOL0     N12505   9.690   3.490   9.890  0.1091 -0.0398  0.1386
  834MOL0     N12506   9.604   3.459   9.796 -0.5551  0.4440 -0.3328
  834MOL0     C12507   8.581   3.085   9.265 -0.7710 -0.5179  0.4247
  834MOL0     C12508   8.450   3.032   9.256 -0.3705  0.2614  0.7209
  834MOL0     C12509   7.997   2.957   9.352  0.1166 -0.3017  0.1683
  834MOL0     C12510   7.938   2.869   9.434  0.1870  0.0146 -0.5130
  834MOL0     C12511   7.835   2.788   9.390 -0.2823 -0.2763  0.7137
  834MOL0     C12512   7.780   2.790   9.261  0.1240 -0.3581 -0.3229
  834MOL0     O12513   7.682   2.706   9.226  1.2513  0.9581  0.7796
  834MOL0     C12514   7.702   2.632   9.101 -0.1441  0.0045 -0.0123
  834MOL0     C12515   7.830   2.543   9.087 -0.0991  0.3627 -0.4267
  834MOL0     C12516   7.837   2.403   9.159 -0.4632  1.1195  1.4273
  834MOL0     C12517   7.792   2.410   9.309 -0.2112  0.5057  0.4356
  834MOL0     C12518   7.643   2.407   9.316 -0.3582 -0.4952 -0.8670
  834MOL0     C12519   7.520   2.408   9.329 -0.2966 -0.4076 -0.2940
  834MOL0     C12520   7.837   2.881   9.174  0.0078 -0.1800  0.3161
  834MOL0     C12521   7.944   2.970   9.218  0.6663 -1.3492  0.0943
  834MOL0     C12522   8.008   3.071   9.123  1.0283  0.4396  0.0152
  834MOL0     H12523   8.293   3.237   9.463 -1.3345 -3.2931 -0.1069
  834MOL0     H12524   8.532   3.349   9.475  0.1587 -0.3375  0.1557
  834MOL0     H12525   8.744   3.271   9.146  0.9973 -1.1749  0.2012
  834MOL0     H12526   8.707   3.411   9.238  0.0410 -1.3027  0.1372
  834MOL0     H12527   8.927   3.427   9.147  0.9838  0.2356  0.6555
  834MOL0     H12528   8.974   3.263   9.201  1.6043  0.4583  0.1001
  834MOL0     H12529   8.967   3.360   9.446 -0.4748  0.2452  0.5443
  834MOL0     H12530   8.951   3.516   9.380 -0.1919 -0.5527  0.9431
  834MOL0     H12531   9.190   3.352   9.292  2.5503  1.5248 -0.3644
  834MOL0     H12532   9.124   3.494   9.221  0.6746  0.4155 -0.5494
  834MOL0     H12533   9.304   3.533   9.376  0.6490  1.7165  1.4790
  834MOL0     H12534   9.166   3.612   9.448 -1.8684  0.1772 -1.0744
  834MOL0     H12535   9.134   3.406   9.601 -1.3544 -0.9423 -3.5008
  834MOL0     H12536   9.281   3.344   9.528 -0.3956 -0.5150  1.8879
  834MOL0     H12537   9.262   3.607   9.689  1.6392 -0.0978  1.2025
  834MOL0     H12538   9.404   3.546   9.610  0.9074 -0.2661  1.7819
  834MOL0     H12539   9.265   3.441   9.856 -2.6326  2.7769 -0.5825
  834MOL0     H12540   9.371   3.338   9.749  0.2720  1.1722 -0.3779
  834MOL0     H12541   9.410   3.579  10.037  0.6542  1.6091 -0.0026
  834MOL0     H12542   9.621   3.711  10.140 -1.4089 -0.4517 -1.4326
  834MOL0     H12543   9.613   3.555  10.213 -1.5449  2.5164  0.6701
  834MOL0     H12544   9.842   3.497  10.147  1.1348 -1.1519 -1.6931
  834MOL0     H12545   9.842   3.660  10.065 -1.5351  2.2404  1.2933
  834MOL0     H12546   9.832   3.625  10.364  1.2924  0.2208  0.0396
  834MOL0     H12547   9.789   3.773  10.278 -2.0109 -0.4635 -2.9937
  834MOL0     H12548  10.019   3.750  10.367  0.5541 -0.8410 -0.8483
  834MOL0     H12549  10.001   3.803  10.203 -0.7152  0.1114 -0.2217
  834MOL0     H12550  10.176   3.383  10.226 -0.8450  0.1729  2.2083
  834MOL0     H12551  10.423   3.329  10.279 -0.0441  0.3439 -0.6570
  834MOL0     H12552  10.728   3.322  10.555 -1.3235 -2.1619 -3.2891
  834MOL0     H12553  10.961   3.280  10.659 -0.7751 -1.2413 -0.8377
  834MOL0     H12554  11.316   3.355  10.681 -0.0375 -1.5557 -1.7412
  834MOL0     H12555  11.150   3.378  10.716  0.2883  1.0553 -0.0077
  834MOL0     H12556  11.244   3.179  10.831  0.2644  0.0446  0.1346
  834MOL0     H12557  11.103   3.152  10.740  0.7620 -0.6441  1.5165
  834MOL0     H12558  11.264   2.974  10.681  1.5359 -0.7515 -0.1274
  834MOL0     H12559  11.253   3.077  10.549 -1.4347  1.4036  1.7142
  834MOL0     H12560  11.460   3.198  10.643 -3.9556  1.2142  2.5931
  834MOL0     H12561  11.494   3.036  10.572  0.7477 -0.1626 -0.1727
  834MOL0     H12562  11.453   3.075  10.865 -1.6985 -0.7648 -1.7320
  834MOL0     H12563  11.611   3.045  10.780  0.6876  0.3470 -2.2715
  834MOL0     H12564  11.390   2.838  10.812 -0.3810  2.1624 -1.7140
  834MOL0     H12565  11.520   2.847  10.685  1.4119  0.7940 -0.1066
  834MOL0     H12566  11.542   2.822  10.986 -1.9391 -2.6006 -0.4094
  834MOL0     H12567  11.687   2.850  10.872  0.5877 -0.3725  0.2732
  834MOL0     H12568  11.491   2.623  10.855  0.8982  0.8630 -0.7504
  834MOL0     H12569  11.662   2.631  10.806  0.0410 -0.6864 -0.4242
  834MOL0     H12570  11.137   3.402  10.300  0.7984 -1.4950  0.2574
  834MOL0     H12571  10.905   3.451  10.199 -4.2874 -0.1970 -0.3334
  834MOL0     H12572  10.469   3.756  10.361 -0.3032  0.0870 -0.4621
  834MOL0     H12573  10.236   3.801  10.273  1.9030  0.6155 -1.5637
  834MOL0     H12574   8.662   3.045   9.205 -1.6867  0.8869 -1.9260
  834MOL0     H12575   8.426   2.955   9.184 -0.3852  1.6059 -0.7435
  834MOL0     H12576   7.989   2.839   9.525  1.9913  2.0550 -0.7563
  834MOL0     H12577   7.800   2.707   9.453  0.5920 -0.1662  1.3581
  834MOL0     H12578   7.696   2.713   9.027 -3.1903 -1.1402 -1.1765
  834MOL0     H12579   7.623   2.567   9.064  0.2025  0.6091 -1.9350
  834MOL0     H12580   7.917   2.606   9.108 -1.9336  2.9316 -0.0668
  834MOL0     H12581   7.828   2.524   8.979  1.5910  4.0194 -1.2508
  834MOL0     H12582   7.941   2.372   9.165  0.1062  2.4726 -0.6353
  834MOL0     H12583   7.780   2.323   9.110 -0.2732  1.9847 -0.2505
  834MOL0     H12584   7.822   2.325   9.370  1.7660  0.5390 -0.4376
  834MOL0     H12585   7.831   2.496   9.364 -3.3194  1.7883  0.8622
  834MOL0     H12586   7.414   2.411   9.343 -0.4818 -0.4594 -1.5875
  834MOL0     H12587   7.793   2.906   9.078  0.0164  0.8688  0.5756
  834MOL0     H12588   8.017   3.165   9.179  1.4692  0.1426  0.4495
  834MOL0     H12589   8.106   3.034   9.092  0.4806 -1.0605  0.0001
  834MOL0     H12590   7.946   3.083   9.033 -0.3183 -1.0632  0.6945
  835MOL0     O12591   8.524   1.396  10.007  0.5900  0.3985  0.1053
  835MOL0     C12592   8.477   1.474   9.922 -0.4546  0.0786  0.3524
  835MOL0     O12593   8.553   1.545   9.835  0.5923  0.1616  1.0069
  835MOL0     C12594   8.678   1.508   9.800 -0.4897  0.7874 -0.0303
  835MOL0     C12595   8.709   1.416   9.698 -0.0841 -0.3128  0.3129
  835MOL0     C12596   8.838   1.383   9.653  0.5431  0.0927 -0.3008
  835MOL0     C12597   8.948   1.443   9.720 -0.6046 -0.4095  0.2132
  835MOL0     O12598   9.084   1.412   9.692  0.7639 -0.2864 -0.3604
  835MOL0     C12599   9.115   1.394   9.558 -0.2425 -0.5382  0.3092
  835MOL0     C12600   9.259   1.445   9.537  1.3904 -0.8764  0.8888
  835MOL0     C12601   9.324   1.359   9.437  0.4374 -0.0673 -0.0506
  835MOL0     C12602   9.473   1.363   9.462 -0.1910 -0.0107  0.1877
  835MOL0     C12603   9.553   1.265   9.366 -0.2054  0.2990 -0.6860
  835MOL0     C12604   9.706   1.253   9.400  0.2490  1.3682  0.6192
  835MOL0     C12605   9.722   1.215   9.545 -0.2276  0.1436 -0.1516
  835MOL0     C12606   9.865   1.168   9.561  0.0841  0.0129  0.0863
  835MOL0     N12607   9.898   1.141   9.694  0.0530  0.0565 -0.6871
  835MOL0     C12608   9.834   1.048   9.767 -0.9379  0.4697  0.2116
  835MOL0     C12609   9.916   1.025   9.873  0.2074  0.0845 -0.5706
  835MOL0     C12610   9.880   0.921   9.974 -0.4529  0.3032  0.1333
  835MOL0     C12611   9.976   0.933  10.084 -0.2225  0.6047 -1.0841
  835MOL0     C12612   9.964   0.837  10.197  0.9306 -0.2493 -0.1601
  835MOL0     C12613  10.092   0.836  10.293 -0.4726  0.1612  0.3198
  835MOL0     O12614  10.121   0.964  10.349 -0.2210  0.2652 -0.1831
  835MOL0     C12615  10.235   0.977  10.429 -0.1519  0.1499 -0.2344
  835MOL0     C12616  10.260   1.102  10.489  0.1430  0.5611  0.3891
  835MOL0     C12617  10.372   1.124  10.569 -0.2902  0.7467 -0.5515
  835MOL0     C12618  10.464   1.021  10.585 -0.6374 -0.1986 -0.1523
  835MOL0     C12619  10.587   1.049  10.656  0.7640 -0.7504 -0.8199
  835MOL0     O12620  10.587   1.145  10.753 -0.3756 -0.0083  0.0738
  835MOL0     C12621  10.703   1.177  10.832  0.6051  0.2426  0.6524
  835MOL0     C12622  10.718   1.145  10.968  0.7079  0.1004 -0.7203
  835MOL0     C12623  10.838   1.184  11.039  0.5665 -0.8073 -0.3685
  835MOL0     C12624  10.936   1.256  10.974 -0.1750  0.4567 -0.4599
  835MOL0     O12625  11.053   1.307  11.031  0.6107 -0.2324 -0.1239
  835MOL0     C12626  11.046   1.356  11.162  0.2316 -0.0289 -0.0197
  835MOL0     C12627  11.171   1.422  11.202 -0.0635 -0.0596  0.0481
  835MOL0     C12628  11.296   1.353  11.139 -0.6423 -0.3216  0.8270
  835MOL0     C12629  11.424   1.399  11.199 -0.7038 -0.1921 -0.0259
  835MOL0     C12630  11.548   1.327  11.137  0.3665  0.2548 -0.1061
  835MOL0     C12631  11.668   1.342  11.225 -0.3138  0.2563  0.5596
  835MOL0     C12632  11.793   1.268  11.166 -0.3864  0.5293  0.3975
  835MOL0     C12633  11.926   1.356  11.179 -0.4489 -0.2167  0.5849
  835MOL0    Cl12634  12.079   1.286  11.103  0.2901  0.0503  0.2385
  835MOL0     C12635  10.927   1.284  10.841 -0.2228  0.6841  0.1577
  835MOL0     C12636  10.807   1.248  10.770  0.0301  0.2716  0.3178
  835MOL0     O12637  10.689   0.994  10.623  0.2585  0.2458  0.7628
  835MOL0     C12638  10.437   0.892  10.533 -0.4323  1.0545  0.0088
  835MOL0     C12639  10.330   0.878  10.451 -0.6139  0.2834  0.5695
  835MOL0     N12640  10.017   1.113   9.866 -0.1389 -1.2884  0.8892
  835MOL0     N12641  10.007   1.189   9.761  0.2732  0.5614  0.0527
  835MOL0     C12642   8.917   1.521   9.835 -0.0219 -0.3734 -0.4200
  835MOL0     C12643   8.788   1.552   9.882  0.1612  0.6338 -0.4807
  835MOL0     C12644   8.329   1.494   9.909  0.1904 -0.3095 -0.7054
  835MOL0     C12645   8.287   1.537   9.784  0.1966 -0.4309 -0.2332
  835MOL0     C12646   8.150   1.553   9.761 -0.1940 -0.3416 -0.2752
  835MOL0     C12647   8.055   1.533   9.869  0.3986  0.3159 -0.0089
  835MOL0     O12648   7.926   1.532   9.827  0.2511  0.0455 -0.7903
  835MOL0     C12649   7.853   1.403   9.846 -0.3997  0.1735  0.0333
  835MOL0     C12650   7.771   1.383   9.720 -0.5649  0.4950 -0.2129
  835MOL0     C12651   7.652   1.488   9.717  0.0664 -0.1204 -0.1768
  835MOL0     C12652   7.611   1.524   9.572  0.0908 -0.3742 -0.6591
  835MOL0     C12653   7.513   1.423   9.531 -0.5069  0.3928 -0.5812
  835MOL0     C12654   7.418   1.351   9.515 -0.3311  0.6530  0.3869
  835MOL0     C12655   8.099   1.492   9.992  0.4639  1.3476 -0.3133
  835MOL0     C12656   8.237   1.472  10.019  0.5372  0.0312  0.1745
  835MOL0     C12657   8.279   1.446  10.150 -0.3829  0.6512 -0.8387
  835MOL0     H12658   8.629   1.364   9.646  0.4744 -1.6385  0.7290
  835MOL0     H12659   8.844   1.321   9.564 -1.1967  2.2170 -2.0050
  835MOL0     H12660   9.093   1.292   9.528  1.5765 -1.9227  3.2104
  835MOL0     H12661   9.055   1.463   9.498 -0.1797 -1.4044 -0.7800
  835MOL0     H12662   9.317   1.453   9.629  2.4706  2.1142  0.0770
  835MOL0     H12663   9.246   1.546   9.496 -0.9024 -1.2819  0.5077
  835MOL0     H12664   9.308   1.400   9.337 -0.0339  1.0170  0.4577
  835MOL0     H12665   9.288   1.256   9.449  1.0187 -0.0784  2.0732
  835MOL0     H12666   9.510   1.465   9.466  1.5774 -0.6632  1.9187
  835MOL0     H12667   9.499   1.321   9.560  1.7804  0.6498 -0.0079
  835MOL0     H12668   9.515   1.163   9.361  1.4952 -0.3408 -1.6217
  835MOL0     H12669   9.543   1.305   9.265 -0.7832 -1.7668 -1.4997
  835MOL0     H12670   9.756   1.177   9.340 -1.3120  2.0210 -1.6251
  835MOL0     H12671   9.745   1.353   9.381 -1.9606  2.2754  0.4633
  835MOL0     H12672   9.657   1.129   9.562 -0.6311  0.5781  0.5324
  835MOL0     H12673   9.701   1.300   9.610 -1.1491  0.6647 -1.1157
  835MOL0     H12674   9.874   1.070   9.513 -2.2185  0.2157 -0.8856
  835MOL0     H12675   9.940   1.240   9.525 -1.1192  2.6934  2.5035
  835MOL0     H12676   9.742   0.995   9.746  0.9974 -2.1245 -2.5606
  835MOL0     H12677   9.780   0.946  10.011  0.3346  2.8378  0.7278
  835MOL0     H12678   9.889   0.817   9.942  2.7135  0.3257  0.6741
  835MOL0     H12679  10.079   0.921  10.049  0.0418 -0.4954  0.0124
  835MOL0     H12680   9.974   1.036  10.121  0.8280  1.0415 -2.1320
  835MOL0     H12681   9.947   0.739  10.153 -0.8233 -0.4012  0.8039
  835MOL0     H12682   9.878   0.868  10.257  2.1186  1.9844  0.5345
  835MOL0     H12683  10.177   0.805  10.231 -1.5364 -0.1842 -1.0129
  835MOL0     H12684  10.064   0.781  10.383 -5.5162  1.8025  0.0338
  835MOL0     H12685  10.186   1.176  10.460 -1.8037 -0.9354  1.2785
  835MOL0     H12686  10.379   1.221  10.616 -3.8113  0.0174  1.9145
  835MOL0     H12687  10.625   1.118  11.017 -0.1343 -0.6676 -2.6223
  835MOL0     H12688  10.843   1.164  11.145  0.8005 -1.2726 -0.4640
  835MOL0     H12689  10.964   1.429  11.168  0.8885  0.6923  0.3401
  835MOL0     H12690  11.013   1.278  11.232 -2.5280 -0.7862 -1.9740
  835MOL0     H12691  11.169   1.530  11.185 -1.3436  0.1983  1.6043
  835MOL0     H12692  11.183   1.406  11.309  1.3154  1.5604  0.1718
  835MOL0     H12693  11.290   1.243  11.138 -2.1408 -0.2712  1.0395
  835MOL0     H12694  11.306   1.363  11.030 -1.6638 -2.5907  0.4646
  835MOL0     H12695  11.438   1.384  11.307  4.4190  2.0531 -0.0764
  835MOL0     H12696  11.426   1.507  11.183  2.7443 -0.2362 -0.6141
  835MOL0     H12697  11.573   1.360  11.036 -0.3446 -2.8173 -1.3986
  835MOL0     H12698  11.520   1.221  11.134  0.7273  0.1650 -3.1749
  835MOL0     H12699  11.684   1.448  11.246  2.6974 -0.6629  3.8759
  835MOL0     H12700  11.649   1.281  11.314 -1.3824 -1.9368 -1.0692
  835MOL0     H12701  11.779   1.252  11.059 -0.0498 -1.4296  0.6279
  835MOL0     H12702  11.797   1.166  11.205 -0.4534  0.2264 -0.3683
  835MOL0     H12703  11.915   1.458  11.143 -0.6646 -0.6013 -0.5086
  835MOL0     H12704  11.954   1.366  11.284 -1.1781 -0.1410  0.7793
  835MOL0     H12705  10.998   1.345  10.785 -2.3839 -0.8102 -4.7008
  835MOL0     H12706  10.789   1.259  10.664  3.7842 -0.0418 -0.4600
  835MOL0     H12707  10.505   0.809  10.551  0.4599  1.8707  0.4456
  835MOL0     H12708  10.316   0.780  10.406 -0.7909  0.6167 -0.1051
  835MOL0     H12709   8.994   1.581   9.883 -0.2009  0.5912 -1.2990
  835MOL0     H12710   8.780   1.616   9.969  4.3103 -1.2609  1.5696
  835MOL0     H12711   8.363   1.550   9.708  3.4466 -2.2658  2.4238
  835MOL0     H12712   8.117   1.580   9.662 -0.8589  0.0339  0.0401
  835MOL0     H12713   7.781   1.421   9.926 -1.0885  0.7997 -0.7153
  835MOL0     H12714   7.916   1.317   9.871  1.8309  1.5432 -0.6061
  835MOL0     H12715   7.727   1.283   9.712 -0.8150  0.5629  0.2881
  835MOL0     H12716   7.840   1.418   9.643  0.0773 -0.2761  0.0038
  835MOL0     H12717   7.686   1.582   9.762 -5.3928  1.6156  1.1197
  835MOL0     H12718   7.579   1.440   9.782  2.1421 -1.9988  0.9018
  835MOL0     H12719   7.571   1.626   9.573 -1.1021 -0.8309 -1.0113
  835MOL0     H12720   7.694   1.523   9.501  0.9238 -4.3525  0.1610
  835MOL0     H12721   7.339   1.279   9.505 -0.2175  0.5965 -0.1047
  835MOL0     H12722   8.031   1.477  10.075  0.3045  2.1653 -0.2888
  835MOL0     H12723   8.198   1.471  10.218  0.1243  2.2732 -0.7832
  835MOL0     H12724   8.304   1.340  10.160 -1.5096  0.5683  1.5564
  835MOL0     H12725   8.358   1.511  10.190 -0.7105  0.9180 -0.6183
  836MOL0     O12726   1.118   9.807  10.540  0.4737 -0.2005  0.1160
  836MOL0     C12727   1.090   9.689  10.550  0.6726  0.4124  0.8005
  836MOL0     O12728   1.159   9.607  10.633  0.4719 -0.0642  0.4561
  836MOL0     C12729   1.244   9.666  10.721 -0.0078  0.3568 -0.1507
  836MOL0     C12730   1.204   9.751  10.827  0.2395  0.1626 -0.4235
  836MOL0     C12731   1.298   9.799  10.922 -0.6670 -0.2172  1.1391
  836MOL0     C12732   1.433   9.763  10.912  0.7522 -0.1500 -0.0352
  836MOL0     O12733   1.529   9.809  10.993  0.1401 -0.2937 -0.2949
  836MOL0     C12734   1.496   9.889  11.100  0.0339  0.3924 -0.1532
  836MOL0     C12735   1.623   9.960  11.143  0.0712  0.6750 -0.9647
  836MOL0     C12736   1.719   9.872  11.227 -0.6393 -0.3740 -0.1189
  836MOL0     C12737   1.843   9.955  11.282 -0.0839 -0.2080  0.1236
  836MOL0     C12738   1.808  10.017  11.412 -0.3541 -0.6383 -0.3344
  836MOL0     C12739   1.926  10.099  11.469 -0.3613  0.0440 -0.1341
  836MOL0     C12740   1.891  10.174  11.599  0.2468  0.2240 -0.4261
  836MOL0     C12741   2.005  10.239  11.674  0.2570  0.0321  0.9905
  836MOL0     N12742   2.120  10.146  11.701  0.7843  0.4683 -1.0467
  836MOL0     C12743   2.213  10.112  11.611 -0.2590 -0.3228  0.5629
  836MOL0     C12744   2.297  10.022  11.662  0.2351  0.2677  0.3207
  836MOL0     C12745   2.418   9.953  11.598  0.0540 -0.3439 -1.1707
  836MOL0     C12746   2.546  10.012  11.665  0.5813  0.3085  0.0496
  836MOL0     C12747   2.672   9.957  11.600  0.4756 -0.3682  0.2544
  836MOL0     C12748   2.715  10.027  11.468  0.0398  0.3298  0.9096
  836MOL0     O12749   2.813   9.961  11.389 -0.1888  0.0344 -0.0234
  836MOL0     C12750   2.949   9.960  11.426 -0.3207 -0.3055 -0.1597
  836MOL0     C12751   3.045   9.896  11.345  0.1521 -0.2301  0.6822
  836MOL0     C12752   3.184   9.906  11.374 -0.2916 -0.1108  0.8262
  836MOL0     C12753   3.225   9.984  11.480 -0.0948  0.5072  0.0799
  836MOL0     C12754   3.375  10.003  11.511  0.5345  0.2804  0.1451
  836MOL0     O12755   3.460   9.943  11.422 -0.2089  0.1110  0.4985
  836MOL0     C12756   3.597   9.954  11.425  0.0476  0.0489  0.5873
  836MOL0     C12757   3.670  10.047  11.498  0.2759  0.2415  0.0183
  836MOL0     C12758   3.805  10.071  11.469  0.0297  0.5504  0.4547
  836MOL0     C12759   3.877   9.995  11.382  0.5263  0.3888  0.2415
  836MOL0     O12760   4.009  10.022  11.384  0.1350  0.6340  0.5396
  836MOL0     C12761   4.102   9.950  11.301 -0.6537 -0.0408  0.0307
  836MOL0     C12762   4.241  10.015  11.309 -0.5441 -0.4900 -0.4232
  836MOL0     C12763   4.350   9.927  11.231  1.0138  0.3353 -0.2910
  836MOL0     C12764   4.326   9.907  11.076  0.4322 -0.9270  0.4621
  836MOL0     C12765   4.447   9.861  10.991  0.9852 -1.3162 -0.9253
  836MOL0     C12766   4.399   9.772  10.872  1.1096  0.5188  0.1641
  836MOL0     C12767   4.363   9.851  10.746  0.5086 -0.1630  0.4686
  836MOL0     C12768   4.485   9.902  10.674 -0.4375  0.8502 -0.0896
  836MOL0    Cl12769   4.598   9.775  10.611 -0.2528  0.0585  0.0434
  836MOL0     C12770   3.813   9.892  11.317  0.5539  0.1285  0.1073
  836MOL0     C12771   3.677   9.877  11.337  0.1951 -0.3793  0.2978
  836MOL0     O12772   3.407  10.074  11.607  0.1682  0.4104 -0.8511
  836MOL0     C12773   3.121  10.049  11.558  0.4262  0.5897  0.3078
  836MOL0     C12774   2.988  10.036  11.538 -0.5461  0.4543 -0.0017
  836MOL0     N12775   2.248  10.008  11.792 -0.3759  0.5346  0.0944
  836MOL0     N12776   2.143  10.079  11.823 -0.2505 -0.7409  0.6244
  836MOL0     C12777   1.470   9.677  10.809 -0.4191 -0.0671  0.1952
  836MOL0     C12778   1.379   9.626  10.718 -0.4765  0.4875 -1.1123
  836MOL0     C12779   0.990   9.639  10.460  0.6373  0.3993  0.3527
  836MOL0     C12780   1.012   9.510  10.400  0.0800 -0.1487 -0.1685
  836MOL0     C12781   0.920   9.453  10.313  0.0112  0.4156  0.5530
  836MOL0     C12782   0.810   9.526  10.259 -0.1935  1.0664 -0.2309
  836MOL0     O12783   0.731   9.459  10.172  0.0140  0.0278  0.5958
  836MOL0     C12784   0.599   9.493  10.120  0.0172  0.4413  0.0078
  836MOL0     C12785   0.481   9.413  10.174 -0.2733 -0.4196  0.0601
  836MOL0     C12786   0.383   9.498  10.247  0.0439  0.0261 -0.0838
  836MOL0     C12787   0.423   9.519  10.395 -0.1929 -0.4372 -0.9386
  836MOL0     C12788   0.302   9.546  10.479 -0.0638 -0.2076  0.1675
  836MOL0     C12789   0.195   9.565  10.535 -0.7599 -0.4051 -0.0209
  836MOL0     C12790   0.781   9.647  10.320  0.5898 -0.2779 -0.5173
  836MOL0     C12791   0.867   9.699  10.413 -0.1831  0.0255 -0.5206
  836MOL0     C12792   0.821   9.822  10.483 -1.0577  0.0266  0.2788
  836MOL0     H12793   1.096   9.763  10.837 -0.2546 -1.6402 -2.6324
  836MOL0     H12794   1.264   9.859  11.006 -1.3840 -2.1622  2.3045
  836MOL0     H12795   1.426   9.971  11.081 -0.5486 -0.4200 -1.7363
  836MOL0     H12796   1.441   9.844  11.184 -2.6368  4.0773  0.3471
  836MOL0     H12797   1.600  10.050  11.202 -1.2072  0.9596 -1.8795
  836MOL0     H12798   1.671   9.995  11.051 -0.7613  1.7670 -1.0019
  836MOL0     H12799   1.754   9.806  11.147 -0.7964  0.2232 -0.6929
  836MOL0     H12800   1.671   9.814  11.307  0.8812  0.2084  1.2793
  836MOL0     H12801   1.924   9.884  11.298 -0.4838 -0.4913  0.9636
  836MOL0     H12802   1.882  10.036  11.220 -2.6411  1.0050 -0.0331
  836MOL0     H12803   1.717  10.077  11.404 -0.5783 -1.2545 -3.9048
  836MOL0     H12804   1.780   9.935  11.479  2.0895 -0.0606  1.5457
  836MOL0     H12805   2.016  10.037  11.476 -0.3797 -0.7035 -4.0755
  836MOL0     H12806   1.958  10.175  11.397 -0.0719 -1.7703 -2.0384
  836MOL0     H12807   1.843  10.099  11.664  0.5114 -0.6613 -1.2275
  836MOL0     H12808   1.814  10.247  11.573  0.4375 -0.0571 -1.8437
  836MOL0     H12809   2.040  10.329  11.624  1.6596  1.0850  3.6705
  836MOL0     H12810   1.971  10.272  11.773  0.6249  2.6483  0.3098
  836MOL0     H12811   2.220  10.145  11.508 -0.1980  0.6607  0.8641
  836MOL0     H12812   2.417   9.846  11.620  1.6123 -0.0912  0.4074
  836MOL0     H12813   2.415   9.968  11.490 -1.6999  3.9111 -0.7265
  836MOL0     H12814   2.541  10.121  11.658  0.1022  0.3805  1.2458
  836MOL0     H12815   2.550   9.990  11.772  3.0873  0.7094  0.0938
  836MOL0     H12816   2.656   9.850  11.585  0.1081 -0.5623  1.8569
  836MOL0     H12817   2.750   9.977  11.674  1.5193  0.0444 -0.9271
  836MOL0     H12818   2.746  10.130  11.487 -1.8205  1.1144 -0.0616
  836MOL0     H12819   2.626  10.036  11.406  1.0528 -1.2567 -0.8887
  836MOL0     H12820   3.007   9.860  11.250  0.3198  0.4302  0.3649
  836MOL0     H12821   3.256   9.863  11.305 -1.1313  0.3296 -0.3421
  836MOL0     H12822   3.635  10.115  11.575  0.4666 -0.1118  0.4205
  836MOL0     H12823   3.849  10.158  11.516  0.3393  1.1357 -0.8777
  836MOL0     H12824   4.105   9.846  11.334 -1.2766 -0.1977 -0.4018
  836MOL0     H12825   4.080   9.938  11.195 -3.1640  1.5797  0.3079
  836MOL0     H12826   4.240  10.113  11.261  1.1006 -0.2468 -0.0299
  836MOL0     H12827   4.270  10.034  11.413 -0.3419  2.9767 -1.0003
  836MOL0     H12828   4.449   9.972  11.247  1.5126 -1.9818  5.5435
  836MOL0     H12829   4.360   9.828  11.276 -0.6585 -0.7461 -2.1002
  836MOL0     H12830   4.305  10.008  11.040  3.3925 -0.0839  0.8690
  836MOL0     H12831   4.235   9.851  11.053 -0.2972  0.6944 -0.8211
  836MOL0     H12832   4.498   9.786  11.052 -1.9186 -2.9155 -0.3046
  836MOL0     H12833   4.517   9.942  10.969 -0.9928  0.5476 -0.6652
  836MOL0     H12834   4.476   9.702  10.839 -0.2484 -1.2473  0.5765
  836MOL0     H12835   4.310   9.712  10.892  1.1837 -1.4028 -4.2221
  836MOL0     H12836   4.312   9.945  10.767  1.6098  0.9666 -1.5961
  836MOL0     H12837   4.299   9.790  10.682 -1.6394  0.7039  1.6796
  836MOL0     H12838   4.452   9.966  10.592 -2.3513  0.2784  0.1859
  836MOL0     H12839   4.541   9.965  10.745 -0.8243  1.6736 -0.4995
  836MOL0     H12840   3.865   9.824  11.251 -0.3904 -0.8194  0.3089
  836MOL0     H12841   3.632   9.802  11.274  1.5866 -1.2510  0.3067
  836MOL0     H12842   3.152  10.119  11.636  0.4826  2.5210 -1.3483
  836MOL0     H12843   2.923  10.093  11.604  0.0431  2.1424 -0.8279
  836MOL0     H12844   1.574   9.648  10.801 -0.2572  0.4037  0.5635
  836MOL0     H12845   1.414   9.564  10.636 -1.9974 -1.9422 -0.0518
  836MOL0     H12846   1.104   9.455  10.419  0.6494 -0.0380 -2.3812
  836MOL0     H12847   0.938   9.354  10.272 -2.5261 -0.4552  1.3455
  836MOL0     H12848   0.614   9.461  10.017  2.1256 -0.7248  0.6339
  836MOL0     H12849   0.586   9.602  10.122  1.6298  0.6766  2.5519
  836MOL0     H12850   0.507   9.326  10.235 -0.7141 -0.5766  0.0331
  836MOL0     H12851   0.421   9.377  10.091 -2.6571  0.9768  1.0454
  836MOL0     H12852   0.284   9.452  10.250  0.4852 -1.0757 -1.0353
  836MOL0     H12853   0.360   9.594  10.201 -3.9470 -0.6072  0.2086
  836MOL0     H12854   0.480   9.433  10.432 -2.4215 -1.6971 -0.3012
  836MOL0     H12855   0.485   9.610  10.400 -1.6695  0.6214 -1.2680
  836MOL0     H12856   0.097   9.549  10.575 -2.5087 -3.0737 -4.5861
  836MOL0     H12857   0.698   9.709  10.286  0.3602  0.5498  1.4393
  836MOL0     H12858   0.792   9.894  10.406  0.2014 -1.2938 -1.5238
  836MOL0     H12859   0.740   9.797  10.552  1.6772 -0.6453  3.4931
  836MOL0     H12860   0.900   9.867  10.544 -1.1178  0.4264  0.0659
  837MOL0     O12861   5.713   6.285   0.402 -0.7453  0.2211  0.3705
  837MOL0     C12862   5.638   6.190   0.406  0.3001 -0.3788  0.3485
  837MOL0     O12863   5.670   6.060   0.366 -0.0653  0.1863 -0.0710
  837MOL0     C12864   5.800   6.037   0.347 -0.3286  0.1204 -0.4335
  837MOL0     C12865   5.888   6.053   0.455  0.6369  0.3928  0.8464
  837MOL0     C12866   6.022   6.013   0.444 -0.0071 -0.4386  0.6359
  837MOL0     C12867   6.071   5.950   0.325  0.9453 -0.2539  0.3645
  837MOL0     O12868   6.195   5.890   0.318  0.1788  0.2108  0.3632
  837MOL0     C12869   6.271   5.882   0.441  0.2428 -0.4190 -0.2609
  837MOL0     C12870   6.391   5.784   0.423  0.8464  0.6421 -0.1211
  837MOL0     C12871   6.481   5.841   0.311 -0.7064 -0.2331 -0.1920
  837MOL0     C12872   6.611   5.759   0.309  0.3351 -0.3290 -0.0887
  837MOL0     C12873   6.695   5.768   0.178 -0.6131 -0.3963  0.0950
  837MOL0     C12874   6.830   5.689   0.192 -0.1023 -0.5221 -0.3999
  837MOL0     C12875   6.924   5.691   0.073 -1.0050  0.3745  0.5407
  837MOL0     C12876   7.046   5.603   0.102 -0.8559  0.3882  0.2076
  837MOL0     N12877   7.126   5.582  -0.023  0.0888 -0.1849 -0.1892
  837MOL0     C12878   7.255   5.634  -0.053  0.4231  0.6410  0.8541
  837MOL0     C12879   7.272   5.595  -0.181 -0.1215  0.9577 -0.5222
  837MOL0     C12880   7.385   5.640  -0.261  0.4938 -0.4714  0.0795
  837MOL0     C12881   7.458   5.505  -0.282 -0.8045  0.6865 -0.6105
  837MOL0     C12882   7.578   5.520  -0.381  0.7579  0.7887 -0.8789
  837MOL0     C12883   7.655   5.390  -0.358  0.0472 -0.3845 -0.4625
  837MOL0     O12884   7.770   5.392  -0.278 -0.6469  0.2560 -0.0408
  837MOL0     C12885   7.873   5.476  -0.311 -0.0392  0.9133 -0.1712
  837MOL0     C12886   7.969   5.487  -0.218 -0.8817  1.2258  0.5726
  837MOL0     C12887   8.085   5.568  -0.237  0.0891  0.3134  0.0436
  837MOL0     C12888   8.097   5.639  -0.356 -1.7034  0.2554 -0.0488
  837MOL0     C12889   8.216   5.718  -0.388  1.1658  0.3131 -0.6977
  837MOL0     O12890   8.234   5.757  -0.521  0.4999  0.8677 -0.7643
  837MOL0     C12891   8.324   5.840  -0.568 -0.4867  0.1040 -0.6347
  837MOL0     C12892   8.367   5.830  -0.706  0.8190 -0.3759  0.1257
  837MOL0     C12893   8.457   5.917  -0.767 -0.2226  0.1334 -1.1463
  837MOL0     C12894   8.528   5.999  -0.681 -0.2530  0.1726 -0.4767
  837MOL0     O12895   8.613   6.096  -0.728 -0.3357 -0.0354  0.1868
  837MOL0     C12896   8.753   6.072  -0.706 -0.5346  0.5826 -0.3589
  837MOL0     C12897   8.823   6.183  -0.781  0.6731 -0.1469 -0.0589
  837MOL0     C12898   8.968   6.187  -0.749 -0.3758 -0.0602 -0.0923
  837MOL0     C12899   9.013   6.213  -0.605  0.1783  0.1847 -0.6005
  837MOL0     C12900   9.165   6.201  -0.596  0.0938 -0.2964  0.1576
  837MOL0     C12901   9.224   6.246  -0.462  0.2417  0.3359  0.2425
  837MOL0     C12902   9.381   6.247  -0.464  0.8296 -0.0857 -0.2839
  837MOL0     C12903   9.438   6.109  -0.493 -0.0358  1.1080  0.6507
  837MOL0    Cl12904   9.614   6.133  -0.476  0.3102  0.1359 -0.1303
  837MOL0     C12905   8.505   6.000  -0.546  1.0542 -0.5580 -0.2138
  837MOL0     C12906   8.400   5.924  -0.492 -0.0881  0.4816  0.2137
  837MOL0     O12907   8.306   5.724  -0.301  0.2713 -0.2838  0.6838
  837MOL0     C12908   8.003   5.617  -0.457  0.2153 -0.7561  0.3617
  837MOL0     C12909   7.894   5.527  -0.433 -0.1021 -0.2057  0.7818
  837MOL0     N12910   7.161   5.527  -0.227 -0.3859  0.0952  0.3502
  837MOL0     N12911   7.077   5.509  -0.131  0.3643 -0.2194  0.1753
  837MOL0     C12912   5.977   5.944   0.211  0.3721 -0.1491 -0.2981
  837MOL0     C12913   5.839   5.983   0.228 -0.4346 -0.0716  0.1242
  837MOL0     C12914   5.498   6.202   0.451  0.3650  0.3867  0.3412
  837MOL0     C12915   5.400   6.121   0.388 -0.1323  0.0473 -0.2524
  837MOL0     C12916   5.268   6.131   0.428  0.7240 -0.4050 -0.5371
  837MOL0     C12917   5.226   6.210   0.536  0.6424 -0.1578 -0.1553
  837MOL0     O12918   5.089   6.219   0.557  0.3670 -0.0125 -0.4313
  837MOL0     C12919   5.032   6.319   0.636 -0.6436  0.3514 -0.0725
  837MOL0     C12920   4.887   6.297   0.641  0.4549 -1.1921 -0.2037
  837MOL0     C12921   4.831   6.163   0.703 -0.1954  0.3144  0.1915
  837MOL0     C12922   4.700   6.203   0.785 -0.9475  0.3927 -0.5479
  837MOL0     C12923   4.599   6.280   0.708  1.2039 -0.2140 -0.0532
  837MOL0     C12924   4.506   6.340   0.655  0.0154  0.2423 -0.0191
  837MOL0     C12925   5.324   6.300   0.583  0.9590 -0.4522 -0.3325
  837MOL0     C12926   5.460   6.296   0.547  0.4590 -0.4461  0.7360
  837MOL0     C12927   5.550   6.392   0.615  0.9197  0.2510  0.4296
  837MOL0     H12928   5.844   6.071   0.553 -0.8356 -1.3347  0.5565
  837MOL0     H12929   6.081   6.025   0.534  2.1157  1.6100 -0.9058
  837MOL0     H12930   6.313   5.980   0.466 -1.4215  0.0203  1.0540
  837MOL0     H12931   6.206   5.839   0.518 -1.4107  1.3642 -0.5613
  837MOL0     H12932   6.344   5.693   0.384  0.9935  1.0975 -1.3809
  837MOL0     H12933   6.434   5.749   0.517  0.2744  0.0416 -0.0761
  837MOL0     H12934   6.496   5.949   0.305 -1.8084 -0.0953 -0.6414
  837MOL0     H12935   6.429   5.823   0.216 -0.4088 -0.3962 -0.3235
  837MOL0     H12936   6.666   5.797   0.396 -1.4215  0.9921  0.4992
  837MOL0     H12937   6.582   5.654   0.312 -0.7623 -0.0946 -1.4000
  837MOL0     H12938   6.642   5.721   0.095  0.3903 -3.1578  0.9225
  837MOL0     H12939   6.707   5.872   0.145 -0.9331 -0.4127 -0.0809
  837MOL0     H12940   6.877   5.728   0.283 -1.8414  3.1895 -0.9003
  837MOL0     H12941   6.815   5.582   0.210  2.6114 -1.0860 -0.9821
  837MOL0     H12942   6.969   5.789   0.056 -0.6373  0.2403  0.7240
  837MOL0     H12943   6.873   5.655  -0.017 -3.2407 -1.0210  2.2530
  837MOL0     H12944   7.111   5.655   0.173  3.0539  0.0218 -2.7582
  837MOL0     H12945   7.016   5.508   0.148  1.8121 -1.0697 -0.8371
  837MOL0     H12946   7.329   5.686   0.009  2.1510  3.3360 -3.0357
  837MOL0     H12947   7.346   5.678  -0.356  1.8292  0.0447 -0.2726
  837MOL0     H12948   7.438   5.719  -0.208 -1.1299  0.8389 -0.1450
  837MOL0     H12949   7.469   5.442  -0.193 -0.1592  1.2245 -0.3075
  837MOL0     H12950   7.382   5.446  -0.335  0.1605  0.7688 -2.1284
  837MOL0     H12951   7.630   5.616  -0.376  0.8853  0.6546  1.6820
  837MOL0     H12952   7.529   5.520  -0.480 -1.6375 -1.5745  0.1611
  837MOL0     H12953   7.679   5.355  -0.459 -2.6427 -1.8998 -0.6521
  837MOL0     H12954   7.587   5.310  -0.328 -0.5235  0.1991 -0.1808
  837MOL0     H12955   7.952   5.431  -0.126 -2.8720  2.2102  0.8373
  837MOL0     H12956   8.158   5.578  -0.157 -0.2081 -2.9340  0.8742
  837MOL0     H12957   8.304   5.764  -0.764  0.4205  0.7775 -0.7985
  837MOL0     H12958   8.477   5.912  -0.873  2.1636  1.5484 -0.8404
  837MOL0     H12959   8.767   6.087  -0.598 -3.7739  1.3894  0.0676
  837MOL0     H12960   8.769   5.972  -0.746 -4.0233  0.1814 -1.1283
  837MOL0     H12961   8.803   6.180  -0.889  0.5215  1.7211 -0.1119
  837MOL0     H12962   8.776   6.275  -0.746 -1.7662 -0.5136 -2.0648
  837MOL0     H12963   8.998   6.087  -0.779 -0.7764 -0.2310  0.0567
  837MOL0     H12964   9.016   6.260  -0.815 -1.9957  0.3383 -0.8808
  837MOL0     H12965   8.957   6.135  -0.553  2.1846 -1.2460 -0.4475
  837MOL0     H12966   8.987   6.312  -0.566 -1.8926 -0.0449 -1.2835
  837MOL0     H12967   9.206   6.259  -0.679  0.8949 -2.2045 -0.8264
  837MOL0     H12968   9.203   6.100  -0.614  2.4487  0.8582 -1.8760
  837MOL0     H12969   9.193   6.347  -0.433  2.2973  1.3992 -1.0195
  837MOL0     H12970   9.182   6.182  -0.384  0.9449 -2.0096 -1.1841
  837MOL0     H12971   9.417   6.275  -0.364 -2.0273  1.1968  0.4879
  837MOL0     H12972   9.416   6.318  -0.539 -1.4074  2.1721  0.6592
  837MOL0     H12973   9.410   6.032  -0.421  3.1091 -2.4708 -1.5636
  837MOL0     H12974   9.421   6.063  -0.592  2.6618  1.4022 -0.0166
  837MOL0     H12975   8.564   6.063  -0.480 -0.1473  0.1698  0.1838
  837MOL0     H12976   8.385   5.940  -0.385  1.2347 -0.5999  0.5940
  837MOL0     H12977   8.008   5.664  -0.555 -1.0198 -1.4560 -0.0454
  837MOL0     H12978   7.824   5.502  -0.511  0.6414  1.7579 -0.5840
  837MOL0     H12979   6.011   5.879   0.130  2.2102 -2.1748  1.9610
  837MOL0     H12980   5.760   5.964   0.156  0.6237  0.1991 -1.1631
  837MOL0     H12981   5.425   6.064   0.300  1.1129  2.1356 -1.3316
  837MOL0     H12982   5.194   6.078   0.370  1.4289  0.7463 -2.5830
  837MOL0     H12983   5.053   6.420   0.601  0.3220 -0.3832 -1.7574
  837MOL0     H12984   5.071   6.316   0.739  0.4391 -1.6014 -0.4874
  837MOL0     H12985   4.842   6.306   0.542  0.9991  0.4038 -0.3303
  837MOL0     H12986   4.859   6.377   0.711  0.0110 -2.0827  0.6603
  837MOL0     H12987   4.908   6.125   0.771  3.7826  3.7704 -1.9075
  837MOL0     H12988   4.822   6.087   0.625  1.2318  0.2961  0.0173
  837MOL0     H12989   4.659   6.110   0.826  0.6861 -1.2148 -2.3902
  837MOL0     H12990   4.728   6.268   0.869 -1.6793  3.0848 -2.2460
  837MOL0     H12991   4.419   6.388   0.615 -0.6825 -1.2470 -0.3875
  837MOL0     H12992   5.294   6.381   0.649  2.1872  0.3328 -0.6986
  837MOL0     H12993   5.656   6.366   0.625  1.1628  1.5686  1.7490
  837MOL0     H12994   5.545   6.495   0.577 -1.7024  0.0123 -0.0860
  837MOL0     H12995   5.517   6.388   0.719 -1.8000  2.2263 -0.2494
  838MOL0     O12996   9.941   0.762   3.827  0.5767  0.8798 -0.1113
  838MOL0     C12997   9.929   0.696   3.939 -0.5370 -0.3677  1.1639
  838MOL0     O12998  10.033   0.634   4.003  0.5339 -0.2894  0.1554
  838MOL0     C12999  10.157   0.624   3.946 -0.5575 -0.3375 -0.5247
  838MOL0     C13000  10.234   0.515   3.990  0.0481  0.0332  0.6826
  838MOL0     C13001  10.369   0.509   3.950  0.0609  0.8178  0.0466
  838MOL0     C13002  10.425   0.599   3.856 -0.6122 -0.5276  0.1870
  838MOL0     O13003  10.549   0.578   3.795 -0.2595 -0.0820  0.1690
  838MOL0     C13004  10.638   0.484   3.855 -0.4998  0.2472  0.0585
  838MOL0     C13005  10.775   0.479   3.792  0.9772  0.2191 -0.0707
  838MOL0     C13006  10.885   0.427   3.887  0.1751 -0.0607  0.0814
  838MOL0     C13007  10.994   0.351   3.807 -0.5173 -0.0481  0.1445
  838MOL0     C13008  10.953   0.209   3.759  0.2398 -0.1176  0.8490
  838MOL0     C13009  11.051   0.145   3.657 -0.7177 -0.6323 -0.5729
  838MOL0     C13010  11.009  -0.001   3.637  0.8440  0.1575  0.2541
  838MOL0     C13011  11.098  -0.093   3.561  0.2963 -0.6218  0.1692
  838MOL0     N13012  11.205  -0.168   3.638 -0.2332 -0.2377 -0.4285
  838MOL0     C13013  11.224  -0.176   3.779 -0.4194  0.1442  0.8052
  838MOL0     C13014  11.347  -0.232   3.794  0.5315  0.2818 -1.0638
  838MOL0     C13015  11.411  -0.259   3.932  0.3829  0.1773 -0.7839
  838MOL0     C13016  11.559  -0.262   3.926  0.4551  0.4207 -0.0717
  838MOL0     C13017  11.595  -0.396   3.871  0.0764 -0.6101  0.6575
  838MOL0     C13018  11.746  -0.391   3.822  0.3055  0.6063 -0.8597
  838MOL0     O13019  11.834  -0.329   3.914 -0.4727 -1.0557  0.0379
  838MOL0     C13020  11.967  -0.345   3.902 -0.5573 -0.3699 -0.5456
  838MOL0     C13021  12.041  -0.312   4.015  0.6392  0.3178  0.0194
  838MOL0     C13022  12.176  -0.325   4.012 -0.2726 -0.4921 -0.0332
  838MOL0     C13023  12.239  -0.389   3.904 -0.4302 -0.3563  0.2816
  838MOL0     C13024  12.387  -0.420   3.902  0.3534 -0.0195 -0.4999
  838MOL0     O13025  12.448  -0.442   3.777  0.9381 -0.1628 -0.3375
  838MOL0     C13026  12.580  -0.450   3.776  0.7582  0.3219 -0.1847
  838MOL0     C13027  12.646  -0.566   3.717  0.1921  0.2803 -0.0728
  838MOL0     C13028  12.782  -0.565   3.721  0.6795 -0.0121  0.6243
  838MOL0     C13029  12.860  -0.469   3.781 -0.2078 -0.4197 -0.6174
  838MOL0     O13030  12.998  -0.493   3.776 -0.0133  0.7036 -0.5796
  838MOL0     C13031  13.089  -0.388   3.820  0.1174 -0.4476  0.0602
  838MOL0     C13032  13.236  -0.421   3.775  0.9895 -0.5903 -0.4696
  838MOL0     C13033  13.311  -0.528   3.858 -0.7659 -0.2815  0.1320
  838MOL0     C13034  13.447  -0.483   3.922  0.4031 -0.8030  0.6524
  838MOL0     C13035  13.501  -0.546   4.049 -0.5016  0.1574 -0.1854
  838MOL0     C13036  13.533  -0.694   4.032  0.5027  0.1559 -0.5370
  838MOL0     C13037  13.608  -0.748   3.912  0.0145  0.1873  0.0026
  838MOL0     C13038  13.749  -0.695   3.909  0.1980  0.6624 -0.0907
  838MOL0    Cl13039  13.854  -0.741   3.775 -0.2424 -0.8758 -0.0612
  838MOL0     C13040  12.796  -0.357   3.838  0.8196  0.0838 -0.4875
  838MOL0     C13041  12.653  -0.349   3.831 -0.3428  0.1172  0.1792
  838MOL0     O13042  12.446  -0.403   4.013  0.3211 -0.4385  0.8965
  838MOL0     C13043  12.166  -0.428   3.794  0.7768 -0.2150 -0.1575
  838MOL0     C13044  12.028  -0.404   3.790  0.5166 -0.4353  0.8771
  838MOL0     N13045  11.397  -0.267   3.674  0.0587  0.2139  0.1335
  838MOL0     N13046  11.312  -0.230   3.584  0.0786 -0.1204  0.1795
  838MOL0     C13047  10.349   0.710   3.812 -0.5128  0.1405 -0.3184
  838MOL0     C13048  10.217   0.722   3.864 -0.0745  0.0241 -0.7152
  838MOL0     C13049   9.795   0.698   3.994  0.2025 -0.3778 -0.8415
  838MOL0     C13050   9.692   0.756   3.920  0.9710 -0.1210  0.5455
  838MOL0     C13051   9.562   0.774   3.972  0.3470  0.4021 -0.4457
  838MOL0     C13052   9.533   0.713   4.089  0.4264 -0.5318  0.5959
  838MOL0     O13053   9.414   0.741   4.153  0.3559 -0.2327  0.6327
  838MOL0     C13054   9.293   0.767   4.080 -0.4983 -0.7322 -0.8061
  838MOL0     C13055   9.167   0.764   4.171 -0.3346  0.1716  0.4172
  838MOL0     C13056   9.162   0.637   4.263 -0.8596 -0.2001 -0.0271
  838MOL0     C13057   9.157   0.503   4.202 -0.3056  0.2920  0.1548
  838MOL0     C13058   9.075   0.509   4.078  0.2918  0.0305 -0.5921
  838MOL0     C13059   9.002   0.514   3.977 -0.4884 -0.4121  0.4445
  838MOL0     C13060   9.628   0.654   4.161 -0.1323  0.4223 -0.0052
  838MOL0     C13061   9.755   0.645   4.116 -0.4690 -0.4664 -0.3762
  838MOL0     C13062   9.849   0.584   4.216 -1.5303  0.3386  0.2872
  838MOL0     H13063  10.196   0.444   4.063  2.9439 -2.3818  0.0084
  838MOL0     H13064  10.429   0.430   3.994  1.8626 -0.4076 -4.0664
  838MOL0     H13065  10.652   0.517   3.959  3.3804  2.3728 -0.9395
  838MOL0     H13066  10.616   0.377   3.848  0.5888 -0.0219  0.5504
  838MOL0     H13067  10.796   0.581   3.760 -1.1911  0.1632 -1.9049
  838MOL0     H13068  10.778   0.411   3.706  1.4736  0.7155 -0.4535
  838MOL0     H13069  10.850   0.358   3.965  1.6237  1.3056  2.0417
  838MOL0     H13070  10.935   0.514   3.931  1.2189  2.0575 -4.7082
  838MOL0     H13071  11.024   0.421   3.728  2.1903  0.9224  1.9099
  838MOL0     H13072  11.086   0.342   3.864 -0.3141 -1.8164 -0.4158
  838MOL0     H13073  10.945   0.150   3.851  0.1109 -0.5279  0.5771
  838MOL0     H13074  10.853   0.216   3.716  0.1530  1.8443  1.2537
  838MOL0     H13075  11.050   0.189   3.557 -2.7113 -3.8537 -2.1263
  838MOL0     H13076  11.153   0.147   3.697 -0.6839  0.7244 -0.6671
  838MOL0     H13077  10.914   0.009   3.583  0.1012 -2.3801  0.9603
  838MOL0     H13078  10.989  -0.063   3.724  2.8835 -2.1535 -0.8270
  838MOL0     H13079  11.037  -0.162   3.501  0.4328 -0.1537 -0.5194
  838MOL0     H13080  11.156  -0.032   3.491  0.0707 -0.3347  0.2337
  838MOL0     H13081  11.153  -0.141   3.853  0.3063 -1.8190  2.5171
  838MOL0     H13082  11.379  -0.172   3.989 -1.4734 -0.3959 -0.8884
  838MOL0     H13083  11.360  -0.348   3.970 -1.7594  1.5515 -0.2929
  838MOL0     H13084  11.599  -0.178   3.869  1.8818  1.7444  2.6974
  838MOL0     H13085  11.603  -0.247   4.025  1.5649 -0.7823 -0.3415
  838MOL0     H13086  11.532  -0.421   3.786  2.2504 -0.4183 -1.0947
  838MOL0     H13087  11.587  -0.473   3.949 -2.2068 -2.2306 -1.0625
  838MOL0     H13088  11.738  -0.335   3.729  2.5516  0.3859 -1.2531
  838MOL0     H13089  11.784  -0.493   3.805  0.7313  0.2161  1.9606
  838MOL0     H13090  11.999  -0.262   4.101 -0.8042  0.6905 -0.8727
  838MOL0     H13091  12.234  -0.277   4.090 -0.4321 -0.2466 -0.0648
  838MOL0     H13092  12.585  -0.647   3.677 -0.1179 -0.0212  0.9869
  838MOL0     H13093  12.828  -0.652   3.675  2.8745  1.1458  0.5242
  838MOL0     H13094  13.058  -0.296   3.769 -2.2392 -2.0824 -1.7243
  838MOL0     H13095  13.078  -0.358   3.924  1.0290 -0.4387  0.1624
  838MOL0     H13096  13.225  -0.464   3.675 -2.1924 -3.2203  0.8310
  838MOL0     H13097  13.283  -0.322   3.778  0.2789 -0.2327 -0.8944
  838MOL0     H13098  13.254  -0.575   3.939  2.3170 -3.7630  0.5439
  838MOL0     H13099  13.339  -0.605   3.786  1.3505  0.3799  0.1899
  838MOL0     H13100  13.435  -0.376   3.939  1.5100 -1.0061  3.2163
  838MOL0     H13101  13.514  -0.501   3.837 -0.0333  0.5003  0.0126
  838MOL0     H13102  13.426  -0.534   4.129  0.8288  1.2702  0.9416
  838MOL0     H13103  13.584  -0.485   4.086 -1.9721  0.8233  2.2800
  838MOL0     H13104  13.588  -0.716   4.124  1.2462 -0.1491 -1.0489
  838MOL0     H13105  13.438  -0.748   4.033  0.5379  0.0421 -1.6694
  838MOL0     H13106  13.551  -0.728   3.821  0.8762  2.0568 -0.1704
  838MOL0     H13107  13.600  -0.854   3.936  1.0446 -0.1791 -1.2305
  838MOL0     H13108  13.751  -0.587   3.924  0.3857  0.3855  2.3358
  838MOL0     H13109  13.802  -0.739   3.993  1.7082 -0.1754 -1.4314
  838MOL0     H13110  12.862  -0.294   3.895  1.1030 -0.6509  0.0110
  838MOL0     H13111  12.600  -0.264   3.872 -1.9730 -1.4817  1.5369
  838MOL0     H13112  12.215  -0.491   3.719  1.9662  1.2356 -0.6515
  838MOL0     H13113  11.969  -0.431   3.702 -0.4045  1.7549  0.7531
  838MOL0     H13114  10.390   0.778   3.738  1.9822 -1.6718 -0.7474
  838MOL0     H13115  10.157   0.809   3.837 -1.6473 -0.8955 -0.2959
  838MOL0     H13116   9.702   0.799   3.821 -1.9272 -0.0523  0.1818
  838MOL0     H13117   9.491   0.839   3.922 -0.7491 -2.1193 -2.3579
  838MOL0     H13118   9.273   0.696   3.999  0.2266  0.4917 -2.0897
  838MOL0     H13119   9.296   0.867   4.036 -0.6041 -0.7289 -0.8063
  838MOL0     H13120   9.079   0.754   4.107 -0.9989 -3.8906  1.6805
  838MOL0     H13121   9.170   0.859   4.227 -2.2133  1.2210 -1.1129
  838MOL0     H13122   9.082   0.637   4.338 -0.4676  2.4024  0.4936
  838MOL0     H13123   9.255   0.643   4.322  0.0645 -3.3682 -0.9712
  838MOL0     H13124   9.259   0.474   4.177 -0.0639  0.3829  1.0146
  838MOL0     H13125   9.114   0.425   4.266 -1.3501  1.5543  1.0595
  838MOL0     H13126   8.922   0.520   3.907 -0.3050 -2.7777 -0.0556
  838MOL0     H13127   9.604   0.621   4.262 -1.2025  4.1049  1.0745
  838MOL0     H13128   9.930   0.652   4.243  0.2319 -1.5768  0.1134
  838MOL0     H13129   9.806   0.539   4.306 -2.5269 -0.6051 -0.6239
  838MOL0     H13130   9.889   0.501   4.157 -1.0032 -0.1379  1.2989
  839MOL0     O13131   2.612   6.877   5.548  0.0093  0.2247  1.0640
  839MOL0     C13132   2.510   6.949   5.516 -0.9211  1.4413  0.3486
  839MOL0     O13133   2.515   7.051   5.430  0.0889 -0.3885  0.7610
  839MOL0     C13134   2.624   7.049   5.352 -0.5413 -0.2139 -0.8328
  839MOL0     C13135   2.713   7.157   5.370  0.2802 -0.5443  0.5918
  839MOL0     C13136   2.831   7.160   5.300 -0.2104  0.3300 -0.4234
  839MOL0     C13137   2.869   7.068   5.205 -0.4331 -0.3702 -0.3811
  839MOL0     O13138   2.983   7.089   5.138  0.4350 -0.9509 -0.1919
  839MOL0     C13139   2.987   7.020   5.013  0.5339 -0.1161  0.0235
  839MOL0     C13140   3.090   7.087   4.926 -0.2064  0.3961 -0.0892
  839MOL0     C13141   3.034   7.226   4.884 -0.7778  0.3592  0.5485
  839MOL0     C13142   3.126   7.272   4.768 -0.1711 -0.4007  0.1811
  839MOL0     C13143   3.101   7.414   4.722 -0.0261 -0.2190 -0.4535
  839MOL0     C13144   3.210   7.465   4.624  0.1878 -0.5772  0.3589
  839MOL0     C13145   3.173   7.602   4.566  0.2756  0.0704 -0.2678
  839MOL0     C13146   3.306   7.694   4.536 -0.4963 -0.1997  0.1703
  839MOL0     N13147   3.251   7.811   4.468 -0.5707 -0.4195  0.8615
  839MOL0     C13148   3.273   7.844   4.336 -0.0003 -0.6830 -0.1158
  839MOL0     C13149   3.233   7.973   4.327  0.0112 -0.2355 -0.1309
  839MOL0     C13150   3.239   8.055   4.205  0.3423  0.1806  0.0080
  839MOL0     C13151   3.272   8.190   4.234  0.2255  0.5072  0.1832
  839MOL0     C13152   3.231   8.265   4.102 -0.0372  0.8284  0.2282
  839MOL0     C13153   3.274   8.407   4.105  0.0502  0.4541 -0.5675
  839MOL0     O13154   3.181   8.475   4.193  0.1768  0.0658 -0.2177
  839MOL0     C13155   3.180   8.611   4.185 -0.6557  0.4637  0.5636
  839MOL0     C13156   3.268   8.697   4.103  0.0059 -0.4292  1.5680
  839MOL0     C13157   3.251   8.836   4.081 -0.1006  0.5117 -1.2213
  839MOL0     C13158   3.140   8.895   4.151 -0.0434 -0.7490  0.4939
  839MOL0     C13159   3.128   9.035   4.119 -0.2298 -0.5513 -0.7826
  839MOL0     O13160   3.089   9.108   4.233  0.0867  0.5836 -0.4666
  839MOL0     C13161   3.127   9.241   4.224  0.3242  0.1676 -0.4020
  839MOL0     C13162   3.052   9.316   4.134 -0.1434 -0.5913  0.5800
  839MOL0     C13163   3.077   9.450   4.123 -0.0363 -1.1090  0.0878
  839MOL0     C13164   3.185   9.518   4.191 -0.7800 -0.4236 -0.5927
  839MOL0     O13165   3.213   9.652   4.174  0.2664 -0.3997  0.9844
  839MOL0     C13166   3.341   9.704   4.207 -0.0278  0.6200  0.4827
  839MOL0     C13167   3.334   9.854   4.187  0.2186  0.2729 -0.6737
  839MOL0     C13168   3.286   9.899   4.041 -0.2092 -0.4404 -0.7443
  839MOL0     C13169   3.295  10.051   4.046  0.0504 -0.6104 -0.2090
  839MOL0     C13170   3.256  10.117   3.910  0.2105  0.0040  0.2306
  839MOL0     C13171   3.332  10.064   3.790 -0.3274 -0.3068 -0.2842
  839MOL0     C13172   3.285  10.144   3.668 -0.1542  0.3418  0.8911
  839MOL0     C13173   3.367  10.120   3.541 -0.3663 -0.7145  0.3444
  839MOL0    Cl13174   3.303  10.227   3.401  0.0306 -0.4107  0.1159
  839MOL0     C13175   3.258   9.437   4.283  0.5036  0.1146 -0.4853
  839MOL0     C13176   3.222   9.302   4.308 -0.1763 -0.7767  0.9569
  839MOL0     O13177   3.167   9.081   4.015 -0.1944 -1.0599  0.1132
  839MOL0     C13178   3.060   8.823   4.236  0.0580  0.0586 -0.3399
  839MOL0     C13179   3.086   8.683   4.258  1.0113 -0.6467 -0.3282
  839MOL0     N13180   3.178   8.011   4.447  0.1330 -0.3253 -0.1208
  839MOL0     N13181   3.193   7.915   4.533 -0.2637  0.6780  0.2446
  839MOL0     C13182   2.771   6.963   5.179  0.5060  0.0140  0.0805
  839MOL0     C13183   2.652   6.953   5.253 -0.3320  0.8083  0.7277
  839MOL0     C13184   2.371   6.902   5.571 -0.2920 -1.0546  0.6653
  839MOL0     C13185   2.374   6.822   5.683  1.0438 -0.4833 -0.0108
  839MOL0     C13186   2.257   6.754   5.736  0.1602  0.1048 -0.3785
  839MOL0     C13187   2.135   6.778   5.675 -0.5258  0.4718 -0.2570
  839MOL0     O13188   2.032   6.714   5.729 -0.2609 -0.3895  0.3565
  839MOL0     C13189   1.939   6.650   5.644  0.1860  0.1557 -0.2216
  839MOL0     C13190   1.844   6.548   5.720  0.4853 -0.3998  1.3639
  839MOL0     C13191   1.837   6.407   5.642 -0.6499 -0.1851  0.4653
  839MOL0     C13192   1.948   6.308   5.690 -0.4218  0.1872 -0.0639
  839MOL0     C13193   2.085   6.358   5.673 -1.0309 -0.1361 -0.6816
  839MOL0     C13194   2.193   6.411   5.649  0.2115 -0.7366 -0.0670
  839MOL0     C13195   2.127   6.863   5.566  1.0134 -0.4127  0.2905
  839MOL0     C13196   2.244   6.916   5.509  0.9448 -0.2312 -0.2243
  839MOL0     C13197   2.228   6.995   5.386  0.2805 -0.7538  0.4285
  839MOL0     H13198   2.692   7.245   5.430 -0.1337  2.1308 -3.1626
  839MOL0     H13199   2.912   7.230   5.320  1.2452 -1.2217 -0.5946
  839MOL0     H13200   3.027   6.919   5.032  0.8107  0.0875  0.5438
  839MOL0     H13201   2.888   7.021   4.967  1.8994  1.4100 -3.1630
  839MOL0     H13202   3.111   7.028   4.836  1.2909 -0.4622  0.7821
  839MOL0     H13203   3.179   7.093   4.989 -0.5817 -0.3322  0.5274
  839MOL0     H13204   3.040   7.289   4.973 -1.0616 -1.6894  2.0981
  839MOL0     H13205   2.928   7.212   4.860 -1.6827  0.7024  3.8448
  839MOL0     H13206   3.231   7.263   4.799  0.4828 -1.3673 -2.1256
  839MOL0     H13207   3.112   7.204   4.684 -1.0584 -1.4962  1.1770
  839MOL0     H13208   3.006   7.420   4.668 -0.7170 -1.2198  0.5786
  839MOL0     H13209   3.090   7.480   4.809  1.2677  0.8042 -1.0312
  839MOL0     H13210   3.307   7.473   4.674  2.4046  1.5416 -3.7764
  839MOL0     H13211   3.229   7.396   4.541 -2.3743 -1.2205  0.2448
  839MOL0     H13212   3.108   7.649   4.639 -3.0918  0.6722 -3.3641
  839MOL0     H13213   3.110   7.602   4.477 -1.2632  1.9931  0.7404
  839MOL0     H13214   3.353   7.727   4.629  2.5187  0.5649 -1.4871
  839MOL0     H13215   3.373   7.636   4.472 -1.3096 -1.7706  0.6849
  839MOL0     H13216   3.325   7.794   4.255  2.2234  1.5916 -0.1961
  839MOL0     H13217   3.326   8.011   4.155  1.8728  3.7892 -0.8206
  839MOL0     H13218   3.151   8.031   4.145 -0.0226  0.4587  0.4230
  839MOL0     H13219   3.207   8.222   4.316 -0.2622  1.5067 -0.5822
  839MOL0     H13220   3.375   8.205   4.267 -0.0495  2.1195  0.3647
  839MOL0     H13221   3.126   8.258   4.072 -0.0182 -0.9149  0.4911
  839MOL0     H13222   3.283   8.213   4.021 -3.2356  1.4082 -2.4044
  839MOL0     H13223   3.254   8.454   4.008 -2.5158  0.3629 -0.1723
  839MOL0     H13224   3.378   8.408   4.137  0.4710  0.2143 -1.8782
  839MOL0     H13225   3.343   8.657   4.036  0.6243  2.3767  0.4703
  839MOL0     H13226   3.318   8.893   4.018  1.6826 -0.1575 -0.0174
  839MOL0     H13227   2.978   9.271   4.068  0.3897 -1.8574  0.8197
  839MOL0     H13228   3.005   9.502   4.061  0.6875  1.6510  1.4157
  839MOL0     H13229   3.376   9.673   4.306 -2.1547 -1.5186  0.6546
  839MOL0     H13230   3.412   9.656   4.140 -2.1269 -0.8310 -0.8197
  839MOL0     H13231   3.254   9.895   4.250  0.7529  0.7782 -0.3243
  839MOL0     H13232   3.427   9.900   4.221 -1.7722  1.9305  3.0701
  839MOL0     H13233   3.352   9.862   3.962  3.4481  1.4607  1.1597
  839MOL0     H13234   3.184   9.863   4.026 -0.7342 -0.0230  1.4725
  839MOL0     H13235   3.395  10.088   4.068  0.0738 -1.4605  1.2459
  839MOL0     H13236   3.224  10.082   4.123 -0.5865 -1.5861 -0.3814
  839MOL0     H13237   3.274  10.225   3.911  0.3374  0.0982  4.4238
  839MOL0     H13238   3.149  10.103   3.892  0.7626 -1.8094 -2.0962
  839MOL0     H13239   3.442  10.065   3.793 -0.3383  1.2217  1.7482
  839MOL0     H13240   3.293   9.963   3.778 -1.0282 -0.4953  2.7675
  839MOL0     H13241   3.295  10.251   3.687 -0.5028  0.3067  1.2651
  839MOL0     H13242   3.179  10.126   3.645 -0.2064  0.8033  0.7565
  839MOL0     H13243   3.468  10.157   3.559 -0.5339  0.4894 -1.0010
  839MOL0     H13244   3.367  10.018   3.502  0.6522  0.0597 -1.8040
  839MOL0     H13245   3.345   9.479   4.332 -0.5041  2.3948 -0.5205
  839MOL0     H13246   3.288   9.238   4.366 -0.6846 -1.0612  1.2273
  839MOL0     H13247   2.978   8.870   4.290 -1.1641 -2.4424  0.1072
  839MOL0     H13248   3.022   8.632   4.328  1.2615 -0.2601  0.1902
  839MOL0     H13249   2.776   6.885   5.104  2.2259  0.5063 -0.3628
  839MOL0     H13250   2.580   6.877   5.223 -0.4822  2.2453 -3.0395
  839MOL0     H13251   2.470   6.810   5.732  2.4996  2.4668 -1.8087
  839MOL0     H13252   2.268   6.700   5.830  4.3748  0.8579 -0.2607
  839MOL0     H13253   1.987   6.595   5.563  1.2590 -0.4216  0.7808
  839MOL0     H13254   1.885   6.736   5.602  0.7247  2.3779  3.2371
  839MOL0     H13255   1.738   6.577   5.719 -0.4308 -3.2993 -0.6666
  839MOL0     H13256   1.875   6.535   5.824  1.7323 -0.3608  1.0082
  839MOL0     H13257   1.830   6.425   5.535  1.1361  1.4010  0.5554
  839MOL0     H13258   1.754   6.346   5.678 -0.8520 -1.2313 -1.6572
  839MOL0     H13259   1.928   6.296   5.797  1.2323  1.3696  0.4092
  839MOL0     H13260   1.932   6.212   5.639 -0.2713  1.5083 -2.8058
  839MOL0     H13261   2.282   6.459   5.615 -0.5915 -0.6706 -2.2328
  839MOL0     H13262   2.037   6.856   5.506 -2.3455 -1.5456  4.9692
  839MOL0     H13263   2.230   7.101   5.414 -1.2477 -0.5340 -0.2224
  839MOL0     H13264   2.303   6.976   5.308  2.2713 -0.5756  2.2161
  839MOL0     H13265   2.126   6.990   5.347  0.7805 -1.1331 -0.8891
  840MOL0     O13266   1.801   3.052   2.310  0.5696  0.3107 -0.0110
  840MOL0     C13267   1.804   2.940   2.357  0.2731 -0.4257  0.2361
  840MOL0     O13268   1.891   2.839   2.325 -0.6774 -0.3406  0.1270
  840MOL0     C13269   2.010   2.861   2.253  0.0984 -0.0335  1.2853
  840MOL0     C13270   2.076   2.980   2.228  0.6683 -0.2899 -0.9483
  840MOL0     C13271   2.193   2.977   2.150  0.6924  0.1978 -0.6480
  840MOL0     C13272   2.238   2.854   2.105 -0.5958 -0.0966  0.7020
  840MOL0     O13273   2.337   2.841   2.005 -0.0137  0.2129 -0.6350
  840MOL0     C13274   2.391   2.953   1.942 -0.0160 -0.4808  0.0015
  840MOL0     C13275   2.290   3.013   1.834 -0.9070 -0.0471 -0.4009
  840MOL0     C13276   2.351   3.144   1.774 -0.5192  0.5478 -0.1689
  840MOL0     C13277   2.360   3.271   1.861 -0.3877  0.7456 -0.4326
  840MOL0     C13278   2.423   3.392   1.795 -0.2227 -0.0242 -0.2957
  840MOL0     C13279   2.570   3.370   1.753 -0.1887 -0.1836 -0.4709
  840MOL0     C13280   2.637   3.500   1.714 -0.7810 -0.7028  0.1026
  840MOL0     C13281   2.740   3.475   1.597  0.5692 -0.2253  0.2725
  840MOL0     N13282   2.829   3.591   1.563  0.3261  0.0266 -0.1050
  840MOL0     C13283   2.791   3.722   1.553  0.9925  0.1112 -0.0203
  840MOL0     C13284   2.898   3.792   1.519 -0.0687 -0.0099  0.3210
  840MOL0     C13285   2.902   3.939   1.501 -0.9921  0.0855  1.2355
  840MOL0     C13286   2.825   3.986   1.375  0.5440 -0.2889 -0.3672
  840MOL0     C13287   2.892   3.948   1.248 -0.2764  0.2868  0.0954
  840MOL0     C13288   2.819   4.007   1.127  0.2459 -0.8429 -0.4716
  840MOL0     O13289   2.691   3.941   1.097  0.1622  0.2613 -0.9435
  840MOL0     C13290   2.648   3.983   0.973 -0.3008 -0.5439  0.3394
  840MOL0     C13291   2.535   4.068   0.961  0.1208  0.5038 -0.3829
  840MOL0     C13292   2.503   4.133   0.842  0.2093  0.4371  0.4037
  840MOL0     C13293   2.576   4.115   0.724 -0.1702  0.4066  0.5788
  840MOL0     C13294   2.538   4.190   0.598 -0.2890 -0.0716  0.1309
  840MOL0     O13295   2.635   4.210   0.495  0.2822  0.0229  0.7645
  840MOL0     C13296   2.612   4.305   0.402 -0.1396  0.0911  0.0414
  840MOL0     C13297   2.646   4.438   0.436 -0.4739 -0.7930 -0.1805
  840MOL0     C13298   2.603   4.543   0.353 -0.2054 -0.4783  1.0430
  840MOL0     C13299   2.529   4.521   0.232 -0.2328  0.3255 -0.0729
  840MOL0     O13300   2.502   4.623   0.155  0.7497 -0.1234  0.2515
  840MOL0     C13301   2.464   4.616   0.021 -0.1642 -0.1937  0.0036
  840MOL0     C13302   2.590   4.616  -0.069  0.3004  0.3710 -0.2244
  840MOL0     C13303   2.671   4.752  -0.059 -0.4144  1.5869  0.2062
  840MOL0     C13304   2.581   4.868  -0.104  0.4403 -0.0704 -0.7194
  840MOL0     C13305   2.524   4.854  -0.243  0.5376  0.2267 -0.0896
  840MOL0     C13306   2.616   4.894  -0.346 -0.5394  0.3301  0.4730
  840MOL0     C13307   2.545   4.877  -0.472 -0.7005 -0.4086 -0.1137
  840MOL0     C13308   2.628   4.950  -0.586  0.0284  0.3282 -1.0439
  840MOL0    Cl13309   2.513   5.031  -0.697  0.0919  0.0458  0.0845
  840MOL0     C13310   2.489   4.387   0.203  0.4559 -0.0177 -0.7285
  840MOL0     C13311   2.534   4.279   0.287  0.7653 -0.3815 -0.2564
  840MOL0     O13312   2.431   4.240   0.605  0.2850 -0.4776 -0.0188
  840MOL0     C13313   2.692   4.030   0.729 -0.2766 -0.4938 -0.3078
  840MOL0     C13314   2.719   3.965   0.852  0.1321 -0.3977 -0.1851
  840MOL0     N13315   3.002   3.702   1.495  0.1485  0.9537 -0.4263
  840MOL0     N13316   2.959   3.583   1.524 -0.3150 -0.3152 -0.0562
  840MOL0     C13317   2.164   2.738   2.123  0.0060 -0.5590 -0.8787
  840MOL0     C13318   2.045   2.743   2.197  0.7190 -0.3055 -0.0197
  840MOL0     C13319   1.691   2.905   2.454  0.7248 -0.3820 -0.5685
  840MOL0     C13320   1.594   3.005   2.481 -0.0567 -0.0756 -0.1476
  840MOL0     C13321   1.486   2.984   2.561 -0.2409  0.5751  0.3954
  840MOL0     C13322   1.471   2.862   2.634  0.3292 -0.1175 -0.5264
  840MOL0     O13323   1.375   2.827   2.722  0.3138  0.1929 -0.9505
  840MOL0     C13324   1.256   2.898   2.699 -0.1659  0.6198 -0.5969
  840MOL0     C13325   1.143   2.840   2.783  0.3660  0.3633  0.8364
  840MOL0     C13326   1.007   2.874   2.706 -0.4385 -0.3631  0.6572
  840MOL0     C13327   0.890   2.832   2.786 -0.0449  0.1754  0.5389
  840MOL0     C13328   0.876   2.681   2.796  0.4865 -0.5052  0.1270
  840MOL0     C13329   0.866   2.559   2.801  0.1028  0.6176 -0.0679
  840MOL0     C13330   1.576   2.765   2.615  0.3685  0.2804 -0.1295
  840MOL0     C13331   1.681   2.781   2.531 -1.1969 -0.8524 -0.0463
  840MOL0     C13332   1.790   2.670   2.522  0.0043  0.7809  0.0691
  840MOL0     H13333   2.042   3.078   2.260  1.6087 -0.2924  0.0980
  840MOL0     H13334   2.232   3.075   2.123  0.2993  0.6013  0.1988
  840MOL0     H13335   2.420   3.030   2.014  0.0875 -1.7548  1.3611
  840MOL0     H13336   2.488   2.931   1.895  0.0090  1.2514 -0.8349
  840MOL0     H13337   2.189   3.023   1.873 -1.1791 -1.1804 -0.7705
  840MOL0     H13338   2.288   2.935   1.757  1.3591 -0.3258 -0.2513
  840MOL0     H13339   2.283   3.181   1.696 -0.9133 -0.9060 -0.5504
  840MOL0     H13340   2.454   3.116   1.754 -1.1146 -1.7877 -0.2639
  840MOL0     H13341   2.257   3.292   1.892 -0.8666 -1.2289 -0.5505
  840MOL0     H13342   2.413   3.247   1.953 -1.6672  0.8128  0.3471
  840MOL0     H13343   2.366   3.417   1.705  0.9416  0.9647 -0.7897
  840MOL0     H13344   2.421   3.468   1.874  0.8672 -0.4379  0.1462
  840MOL0     H13345   2.636   3.333   1.832  2.7026  0.5327 -2.3792
  840MOL0     H13346   2.568   3.301   1.669 -0.9000  0.4940 -1.0263
  840MOL0     H13347   2.684   3.546   1.802 -0.8287 -1.6924  0.6665
  840MOL0     H13348   2.563   3.571   1.676  0.2684  1.6491  2.1557
  840MOL0     H13349   2.808   3.392   1.619  1.5914  0.6889  0.6277
  840MOL0     H13350   2.699   3.451   1.499 -0.1006  3.5389 -0.5259
  840MOL0     H13351   2.698   3.769   1.584  0.3024 -0.8240 -0.6220
  840MOL0     H13352   2.853   3.993   1.582  2.7689  2.8467  1.9359
  840MOL0     H13353   3.007   3.970   1.491 -1.1038  0.3510  0.8706
  840MOL0     H13354   2.723   3.948   1.371  0.5852 -0.2829 -2.3899
  840MOL0     H13355   2.819   4.095   1.375  0.0533 -0.3138 -0.3349
  840MOL0     H13356   2.906   3.841   1.234 -2.2237 -0.7821  4.6041
  840MOL0     H13357   2.995   3.985   1.253  0.2892 -1.3565  1.5849
  840MOL0     H13358   2.887   4.010   1.041 -1.3176 -1.4923 -1.7903
  840MOL0     H13359   2.798   4.112   1.147  1.4949 -0.3884 -1.4009
  840MOL0     H13360   2.489   4.100   1.054 -0.8518 -1.9783  0.0897
  840MOL0     H13361   2.413   4.193   0.847  2.3963  3.9323  2.7970
  840MOL0     H13362   2.686   4.464   0.534 -2.2509  0.3594  0.2783
  840MOL0     H13363   2.624   4.646   0.380 -0.6500 -0.5118  1.5458
  840MOL0     H13364   2.407   4.526  -0.006 -1.1383  1.0124 -2.2461
  840MOL0     H13365   2.405   4.706   0.000  1.8570  1.1142 -0.3407
  840MOL0     H13366   2.664   4.539  -0.045  0.0897  0.1787 -0.1820
  840MOL0     H13367   2.558   4.601  -0.172  0.0087  2.0286 -0.4023
  840MOL0     H13368   2.696   4.768   0.046  1.2565  1.1400 -0.0979
  840MOL0     H13369   2.757   4.752  -0.127 -1.1992 -1.2434 -0.9151
  840MOL0     H13370   2.642   4.958  -0.108  0.6936 -0.2562 -1.0675
  840MOL0     H13371   2.500   4.889  -0.034  0.6767  2.6870 -1.1597
  840MOL0     H13372   2.435   4.918  -0.239 -0.3666 -0.9065 -1.3593
  840MOL0     H13373   2.485   4.753  -0.256  1.9730 -0.3040 -0.5007
  840MOL0     H13374   2.648   4.996  -0.325 -1.1655  0.4378  0.9141
  840MOL0     H13375   2.703   4.828  -0.356 -0.2890  0.8779 -1.3944
  840MOL0     H13376   2.451   4.930  -0.455  0.8198  1.7263  2.1849
  840MOL0     H13377   2.522   4.772  -0.492 -0.1194 -0.1099 -2.8633
  840MOL0     H13378   2.689   5.034  -0.552 -3.4081  3.2252 -1.5155
  840MOL0     H13379   2.694   4.873  -0.627 -1.4311 -1.6059  0.0724
  840MOL0     H13380   2.429   4.375   0.113 -0.8424  2.9048 -0.3598
  840MOL0     H13381   2.512   4.176   0.264 -1.5584  0.2398 -1.0519
  840MOL0     H13382   2.759   4.019   0.644  1.5694  1.8396  0.7175
  840MOL0     H13383   2.806   3.902   0.863  2.6356  2.6721 -1.0218
  840MOL0     H13384   2.199   2.652   2.067  5.7808  1.1773 -0.6329
  840MOL0     H13385   1.984   2.654   2.206 -0.1618  0.3938  1.2609
  840MOL0     H13386   1.596   3.092   2.417 -0.1559 -0.1920 -0.3109
  840MOL0     H13387   1.417   3.068   2.563 -0.8372  0.3522 -3.4348
  840MOL0     H13388   1.233   2.908   2.592 -0.9163  3.9794 -0.2315
  840MOL0     H13389   1.268   3.003   2.727 -0.0199  0.7404 -1.0965
  840MOL0     H13390   1.141   2.872   2.888 -0.0967  1.4744  0.5062
  840MOL0     H13391   1.151   2.731   2.778 -1.9158  0.1286 -4.4723
  840MOL0     H13392   1.001   2.811   2.617 -1.3227 -1.7281  1.6513
  840MOL0     H13393   0.995   2.979   2.676  2.0212 -0.0937  0.4281
  840MOL0     H13394   0.893   2.869   2.889  0.7678  0.9343  0.2491
  840MOL0     H13395   0.796   2.868   2.743  0.4843 -0.5375 -1.2831
  840MOL0     H13396   0.850   2.453   2.799 -2.0072  0.8963 -0.0384
  840MOL0     H13397   1.562   2.671   2.668  1.0637 -0.2326 -0.8206
  840MOL0     H13398   1.884   2.709   2.563  0.8739 -0.8285 -0.3013
  840MOL0     H13399   1.781   2.576   2.578  2.7416  1.9630  2.8288
  840MOL0     H13400   1.803   2.652   2.415 -0.1131  2.1992 -0.1973
  841MOL0     O13401   5.508   0.407   0.556  0.5140  0.6620 -0.0819
  841MOL0     C13402   5.447   0.361   0.655 -0.1094  0.0640  0.5645
  841MOL0     O13403   5.510   0.320   0.772  0.1087  0.0499 -0.4043
  841MOL0     C13404   5.628   0.253   0.749  0.7739  0.0458  0.1410
  841MOL0     C13405   5.630   0.125   0.694  0.6379 -0.5835  1.4820
  841MOL0     C13406   5.756   0.063   0.661 -0.4558  0.1624 -0.1242
  841MOL0     C13407   5.881   0.135   0.684  0.4388 -0.0620 -0.9362
  841MOL0     O13408   6.004   0.092   0.659  0.2847  0.0144  0.1366
  841MOL0     C13409   6.010  -0.054   0.669 -0.3158  0.2442  0.3302
  841MOL0     C13410   6.153  -0.086   0.633  0.4864  0.2960 -0.5799
  841MOL0     C13411   6.205  -0.046   0.495  0.0816  0.4367 -0.6700
  841MOL0     C13412   6.185  -0.137   0.367 -0.3363  0.1077  0.0224
  841MOL0     C13413   6.230  -0.065   0.237 -0.0422  0.7874 -0.2291
  841MOL0     C13414   6.173  -0.117   0.099  0.4688 -0.4272  0.3363
  841MOL0     C13415   6.178  -0.269   0.084  0.6006  0.4439 -0.1518
  841MOL0     C13416   6.322  -0.325   0.044  0.2837 -0.4282 -0.0700
  841MOL0     N13417   6.418  -0.328   0.159 -0.2723 -0.2438 -0.5648
  841MOL0     C13418   6.421  -0.421   0.260 -0.0226  0.3725  0.0189
  841MOL0     C13419   6.532  -0.390   0.338 -0.3357  0.2979 -0.2107
  841MOL0     C13420   6.565  -0.449   0.480  0.6033 -1.4907  0.4752
  841MOL0     C13421   6.479  -0.391   0.592 -0.2457  0.3814 -0.5152
  841MOL0     C13422   6.516  -0.248   0.646  0.5153  0.0157  1.1588
  841MOL0     C13423   6.658  -0.241   0.696  0.6574  0.7097  0.5708
  841MOL0     O13424   6.689  -0.342   0.792 -0.3910 -0.0861 -0.3904
  841MOL0     C13425   6.814  -0.332   0.850 -0.3859 -1.6102 -0.5856
  841MOL0     C13426   6.846  -0.414   0.960  1.2020 -0.3530  0.2392
  841MOL0     C13427   6.973  -0.417   1.019  0.5075  0.4893  1.3602
  841MOL0     C13428   7.077  -0.342   0.965 -0.2329  0.0168  0.0143
  841MOL0     C13429   7.209  -0.341   1.033  0.6756 -0.0741  1.0054
  841MOL0     O13430   7.216  -0.432   1.136 -0.4445 -0.4278 -0.1132
  841MOL0     C13431   7.336  -0.450   1.199 -0.0435 -0.3368  0.2156
  841MOL0     C13432   7.407  -0.566   1.178  0.0771  0.7131 -0.5494
  841MOL0     C13433   7.542  -0.581   1.215 -0.0874 -1.7090 -0.0776
  841MOL0     C13434   7.612  -0.470   1.276  0.8886  1.1181  0.7610
  841MOL0     O13435   7.734  -0.501   1.314 -0.4071  0.7359  0.2159
  841MOL0     C13436   7.817  -0.410   1.375 -0.7417 -0.0957  0.1552
  841MOL0     C13437   7.943  -0.483   1.433 -0.3880  0.8229  0.5630
  841MOL0     C13438   7.898  -0.577   1.542 -0.0881  0.2147  1.6043
  841MOL0     C13439   7.888  -0.511   1.680  0.1704 -0.3154 -0.6007
  841MOL0     C13440   7.880  -0.616   1.794  0.5425 -0.1196 -0.0015
  841MOL0     C13441   7.818  -0.547   1.916  0.2897 -0.0397 -0.2529
  841MOL0     C13442   7.836  -0.620   2.056 -0.6614  1.3877  0.7452
  841MOL0     C13443   7.759  -0.754   2.064 -0.9127 -0.9417 -0.0690
  841MOL0    Cl13444   7.582  -0.755   2.040  0.5019  0.2650 -0.5339
  841MOL0     C13445   7.538  -0.356   1.302 -0.3945  0.9175  0.0177
  841MOL0     C13446   7.410  -0.341   1.251  0.2558 -0.2137 -0.7155
  841MOL0     O13447   7.301  -0.271   0.989  0.1317  0.0885  0.4697
  841MOL0     C13448   7.047  -0.263   0.854 -0.5251  0.5003  1.2375
  841MOL0     C13449   6.919  -0.253   0.794 -0.4670  0.0009 -0.3924
  841MOL0     N13450   6.595  -0.287   0.269  0.1131  0.3755 -0.2140
  841MOL0     N13451   6.521  -0.243   0.168 -0.7262  0.3176 -0.9837
  841MOL0     C13452   5.870   0.257   0.746 -0.4682  1.1068 -0.5784
  841MOL0     C13453   5.748   0.319   0.770  0.5694  0.2693 -0.0330
  841MOL0     C13454   5.298   0.349   0.642 -0.7704 -1.0199 -0.1451
  841MOL0     C13455   5.238   0.422   0.539  0.2355  0.7572  0.2628
  841MOL0     C13456   5.097   0.405   0.517 -0.1534  0.0166 -0.9030
  841MOL0     C13457   5.020   0.331   0.606  0.4886  0.0835 -0.1291
  841MOL0     O13458   4.889   0.313   0.582  0.4852 -0.8158 -0.7102
  841MOL0     C13459   4.806   0.406   0.652 -0.1074  0.0710  0.4015
  841MOL0     C13460   4.670   0.338   0.683  0.4278 -0.0787  0.4501
  841MOL0     C13461   4.568   0.433   0.758  0.8593 -0.4216  0.1395
  841MOL0     C13462   4.452   0.338   0.809  0.3871 -0.1331  0.2389
  841MOL0     C13463   4.384   0.256   0.705  0.2384 -1.1516  0.0228
  841MOL0     C13464   4.339   0.169   0.629  0.0674 -1.2063  1.0889
  841MOL0     C13465   5.080   0.262   0.709 -0.1035  0.0967  1.3755
  841MOL0     C13466   5.218   0.262   0.721  0.5299 -0.0594 -0.5738
  841MOL0     C13467   5.273   0.196   0.845 -0.4262 -0.7715  0.3932
  841MOL0     H13468   5.540   0.071   0.665  0.4073  0.8711 -0.7516
  841MOL0     H13469   5.755  -0.032   0.608  1.2788  0.8924 -1.5801
  841MOL0     H13470   6.002  -0.078   0.776  3.1371  0.6984  0.8085
  841MOL0     H13471   5.939  -0.106   0.604 -0.1986  0.4164  0.0655
  841MOL0     H13472   6.149  -0.194   0.620 -1.9860  0.2090  0.4697
  841MOL0     H13473   6.212  -0.055   0.720  0.6684  0.9201 -0.9190
  841MOL0     H13474   6.311  -0.021   0.496  0.2130 -0.0992 -0.7480
  841MOL0     H13475   6.156   0.049   0.474 -1.6510 -0.2378  0.1167
  841MOL0     H13476   6.232  -0.232   0.392  1.4447  0.5171 -1.5655
  841MOL0     H13477   6.076  -0.146   0.362 -0.7017  0.7192  3.8436
  841MOL0     H13478   6.205   0.041   0.244  0.8033  0.9868 -0.0648
  841MOL0     H13479   6.339  -0.057   0.236 -0.0228  1.3282  1.8160
  841MOL0     H13480   6.070  -0.084   0.079  1.2136  0.0888 -3.5706
  841MOL0     H13481   6.223  -0.080   0.008 -1.7441 -2.7601 -2.0194
  841MOL0     H13482   6.111  -0.288  -0.001  0.9044  1.1688 -0.5646
  841MOL0     H13483   6.136  -0.308   0.177  1.4685 -0.6451 -0.2037
  841MOL0     H13484   6.308  -0.430   0.017 -2.0737  0.1813 -1.4956
  841MOL0     H13485   6.364  -0.276  -0.044  0.7192 -1.3150 -0.3686
  841MOL0     H13486   6.356  -0.505   0.280  1.3013 -1.0044 -1.1923
  841MOL0     H13487   6.548  -0.557   0.478 -3.6419 -1.0099  0.7154
  841MOL0     H13488   6.669  -0.421   0.500  0.3720  0.2419 -0.5141
  841MOL0     H13489   6.374  -0.385   0.563 -0.2482 -0.1306 -0.6347
  841MOL0     H13490   6.485  -0.465   0.672 -0.9570 -2.9644 -3.3078
  841MOL0     H13491   6.436  -0.217   0.713  0.2697  1.3705  0.2713
  841MOL0     H13492   6.521  -0.170   0.569  1.7192 -0.2388  0.9498
  841MOL0     H13493   6.678  -0.145   0.744  2.6921 -0.1063  1.4542
  841MOL0     H13494   6.725  -0.257   0.611  0.9573 -5.0010  1.5414
  841MOL0     H13495   6.765  -0.474   1.001  1.4788 -0.6920  0.2942
  841MOL0     H13496   6.987  -0.477   1.109  0.4363 -2.4304 -0.4205
  841MOL0     H13497   7.364  -0.653   1.129 -1.4080 -0.5122  2.7090
  841MOL0     H13498   7.594  -0.667   1.173 -0.6776 -1.7351 -0.7627
  841MOL0     H13499   7.852  -0.349   1.291 -4.7760 -1.6319 -2.9968
  841MOL0     H13500   7.765  -0.345   1.446 -1.9391 -2.7530  1.8781
  841MOL0     H13501   8.000  -0.538   1.358 -0.4960  0.9094  0.4156
  841MOL0     H13502   7.999  -0.395   1.466 -0.4265  0.7234  0.8956
  841MOL0     H13503   7.804  -0.627   1.520  0.1517  0.1055  0.7960
  841MOL0     H13504   7.977  -0.652   1.538 -1.1447 -0.9462 -2.7379
  841MOL0     H13505   7.808  -0.437   1.684  3.2776  3.3025  1.0207
  841MOL0     H13506   7.975  -0.450   1.702 -1.1406  1.3998  0.0018
  841MOL0     H13507   7.985  -0.644   1.809  1.3618  1.0953 -2.7123
  841MOL0     H13508   7.835  -0.712   1.766  0.6633 -0.0431 -0.4786
  841MOL0     H13509   7.860  -0.446   1.925 -2.6017  1.0706  2.8042
  841MOL0     H13510   7.710  -0.542   1.907 -0.0297 -2.6342  1.0985
  841MOL0     H13511   7.812  -0.552   2.138 -1.9916  1.4479  0.3247
  841MOL0     H13512   7.942  -0.647   2.065 -0.1528  1.3873 -3.3212
  841MOL0     H13513   7.798  -0.828   1.993 -1.5644 -1.5199  0.1588
  841MOL0     H13514   7.766  -0.801   2.163  1.2870 -1.6125 -0.4930
  841MOL0     H13515   7.597  -0.288   1.362  1.3405 -1.9040  1.7250
  841MOL0     H13516   7.353  -0.248   1.257 -1.1007 -0.9949 -1.1842
  841MOL0     H13517   7.126  -0.207   0.805 -1.5272  0.3750 -0.6101
  841MOL0     H13518   6.898  -0.195   0.704 -2.6268 -0.5237 -0.2819
  841MOL0     H13519   5.964   0.310   0.766  0.3582 -0.5026 -0.0329
  841MOL0     H13520   5.752   0.421   0.808  0.5145  0.1544  0.2873
  841MOL0     H13521   5.287   0.493   0.473  0.3466 -1.4214 -2.1564
  841MOL0     H13522   5.063   0.463   0.432  1.7700  1.5042 -0.7473
  841MOL0     H13523   4.789   0.491   0.585 -0.0087 -1.1612 -1.2342
  841MOL0     H13524   4.849   0.445   0.745 -1.1818 -0.2697  1.0541
  841MOL0     H13525   4.695   0.244   0.735 -1.2169 -2.6922 -3.0727
  841MOL0     H13526   4.628   0.304   0.588  1.8875 -2.4573  0.5769
  841MOL0     H13527   4.523   0.513   0.698  0.2463 -0.1258  0.9698
  841MOL0     H13528   4.618   0.482   0.842  1.6170  3.8063 -2.4609
  841MOL0     H13529   4.500   0.268   0.878  2.0673 -0.3693 -1.1245
  841MOL0     H13530   4.380   0.405   0.858  1.7229  0.6679  1.1707
  841MOL0     H13531   4.319   0.086   0.564  0.8924 -1.6641  1.3978
  841MOL0     H13532   5.027   0.207   0.786  1.6819 -3.4237  0.3003
  841MOL0     H13533   5.200   0.137   0.900  0.0705 -3.0227 -1.1991
  841MOL0     H13534   5.346   0.121   0.812  1.3803  0.4597  1.4448
  841MOL0     H13535   5.319   0.264   0.917 -3.8166  1.2689  0.8397
  842MOL0     O13536   2.146   6.169   3.256 -1.2514  1.1520 -1.0267
  842MOL0     C13537   2.039   6.106   3.271  0.6986 -0.3107  0.9599
  842MOL0     O13538   2.011   5.973   3.237 -0.2435  0.1703  0.7968
  842MOL0     C13539   2.112   5.906   3.173  0.5473  0.7943 -0.6508
  842MOL0     C13540   2.225   5.866   3.249 -0.6481 -0.2341 -0.3844
  842MOL0     C13541   2.337   5.814   3.180 -0.2946  0.7092  0.7368
  842MOL0     C13542   2.335   5.786   3.036  0.2816 -0.3549 -0.2051
  842MOL0     O13543   2.434   5.745   2.955 -0.5327  0.0082 -0.4368
  842MOL0     C13544   2.567   5.738   3.013 -0.3469 -0.2017 -0.1978
  842MOL0     C13545   2.677   5.727   2.900  0.9133 -0.4977  0.2417
  842MOL0     C13546   2.715   5.869   2.853  0.0768  0.3059  0.9631
  842MOL0     C13547   2.786   5.861   2.714  0.2299 -0.3662  0.4552
  842MOL0     C13548   2.923   5.792   2.727  0.4757 -1.2495  0.5416
  842MOL0     C13549   2.989   5.785   2.586  0.8288 -0.4118  0.0885
  842MOL0     C13550   3.146   5.801   2.595 -0.3010 -0.7754  0.5656
  842MOL0     C13551   3.209   5.779   2.452 -0.2547 -0.6269  0.2223
  842MOL0     N13552   3.355   5.805   2.443 -0.4955 -0.2049 -0.2050
  842MOL0     C13553   3.409   5.869   2.326 -0.6493  0.6067 -0.5021
  842MOL0     C13554   3.538   5.892   2.361  0.6920  0.1903  0.0277
  842MOL0     C13555   3.644   5.953   2.279  0.2249  0.0487  0.1755
  842MOL0     C13556   3.789   5.916   2.312  0.6957  0.5290 -0.7257
  842MOL0     C13557   3.839   5.780   2.256  0.0533 -0.1876  1.4666
  842MOL0     C13558   3.978   5.750   2.306 -0.0135 -0.3313  0.2152
  842MOL0     O13559   4.066   5.859   2.272  0.2442 -0.8106  0.9667
  842MOL0     C13560   4.207   5.859   2.283 -0.0985  0.2276  0.1448
  842MOL0     C13561   4.272   5.902   2.173 -0.7032 -0.6373  0.6982
  842MOL0     C13562   4.406   5.898   2.168 -0.1357  0.0400 -0.2842
  842MOL0     C13563   4.485   5.850   2.272 -0.1216 -0.1293  0.3682
  842MOL0     C13564   4.631   5.874   2.269 -0.3062  0.4666  0.0292
  842MOL0     O13565   4.697   5.840   2.384 -0.8367  0.0893 -0.7305
  842MOL0     C13566   4.834   5.834   2.404 -0.3479 -0.1627 -1.1009
  842MOL0     C13567   4.916   5.774   2.311 -0.2479  0.2109 -0.5440
  842MOL0     C13568   5.054   5.771   2.321 -0.6415 -0.1043 -0.5453
  842MOL0     C13569   5.114   5.815   2.445 -0.2074 -0.0725 -0.9309
  842MOL0     O13570   5.249   5.821   2.446 -0.2275 -0.2568  1.1570
  842MOL0     C13571   5.324   5.863   2.557  0.5948 -0.9393  0.3911
  842MOL0     C13572   5.464   5.886   2.506 -0.5122  0.3232 -0.3615
  842MOL0     C13573   5.476   5.990   2.398  0.2766  0.2202  0.3929
  842MOL0     C13574   5.622   6.026   2.342  0.2657  0.8742 -0.3638
  842MOL0     C13575   5.639   6.172   2.299  0.3182  0.4986 -0.1055
  842MOL0     C13576   5.532   6.226   2.197  0.2748 -0.1502 -0.1060
  842MOL0     C13577   5.565   6.371   2.135  0.0995  1.1154 -0.7679
  842MOL0     C13578   5.455   6.465   2.156  0.2021  0.1539 -0.7037
  842MOL0    Cl13579   5.512   6.623   2.093  0.3859  0.0797  0.0561
  842MOL0     C13580   5.023   5.867   2.536  0.1202  0.0867  0.4477
  842MOL0     C13581   4.882   5.879   2.529  0.1846  0.7552  0.5433
  842MOL0     O13582   4.679   5.931   2.167 -0.0736  1.0443 -0.9160
  842MOL0     C13583   4.421   5.801   2.385 -0.5605  0.5726  0.0348
  842MOL0     C13584   4.281   5.802   2.386  0.4198 -0.1552 -0.1131
  842MOL0     N13585   3.562   5.847   2.495 -0.0797  0.0874  0.3455
  842MOL0     N13586   3.456   5.785   2.538  0.3439  0.2013  0.2995
  842MOL0     C13587   2.212   5.829   2.972  0.2335  0.3669  0.1339
  842MOL0     C13588   2.105   5.887   3.039 -0.0425  0.1152  0.0372
  842MOL0     C13589   1.920   6.194   3.306  1.0578 -0.3646  0.1150
  842MOL0     C13590   1.790   6.146   3.266 -0.1614  0.0661  1.6210
  842MOL0     C13591   1.679   6.226   3.277 -0.2278  0.3025 -0.2067
  842MOL0     C13592   1.687   6.353   3.331  0.8216  0.2059  0.2722
  842MOL0     O13593   1.577   6.438   3.346  0.8162  0.3060  0.0969
  842MOL0     C13594   1.445   6.377   3.345 -0.2119 -0.4582 -0.1209
  842MOL0     C13595   1.336   6.488   3.354  0.6007  0.1886 -0.1372
  842MOL0     C13596   1.349   6.589   3.232 -0.3707 -0.6690  0.2742
  842MOL0     C13597   1.208   6.611   3.173  0.5196 -0.3605  0.7971
  842MOL0     C13598   1.226   6.712   3.062  0.7549  0.7326 -0.5076
  842MOL0     C13599   1.230   6.797   2.985 -0.7272 -0.1442 -0.5013
  842MOL0     C13600   1.806   6.394   3.396 -0.0652 -0.4218  0.2036
  842MOL0     C13601   1.925   6.318   3.380  0.0652 -0.0948  0.5417
  842MOL0     C13602   2.049   6.372   3.446 -0.1576  1.0411  0.3901
  842MOL0     H13603   2.236   5.885   3.356  1.5809 -0.4777 -0.5208
  842MOL0     H13604   2.428   5.796   3.238  0.8629  0.0825 -1.1742
  842MOL0     H13605   2.592   5.814   3.087  1.7853 -3.8763  3.2259
  842MOL0     H13606   2.568   5.644   3.069  1.6105 -0.4558 -0.5774
  842MOL0     H13607   2.639   5.666   2.818 -1.2520 -1.2856  1.7352
  842MOL0     H13608   2.757   5.673   2.952  1.6260 -0.2680 -0.5929
  842MOL0     H13609   2.771   5.924   2.929 -0.5636 -0.0236  1.6833
  842MOL0     H13610   2.629   5.926   2.818  1.0937  0.8784 -0.7257
  842MOL0     H13611   2.718   5.812   2.645  1.8500 -0.4158 -1.1935
  842MOL0     H13612   2.788   5.966   2.684 -0.1876 -0.5926 -0.3935
  842MOL0     H13613   2.981   5.852   2.797 -1.9996  1.1969  0.7049
  842MOL0     H13614   2.926   5.690   2.766 -0.7806 -1.1995  0.8070
  842MOL0     H13615   2.978   5.688   2.538  1.2550  0.1058 -1.0847
  842MOL0     H13616   2.945   5.849   2.508  0.7375 -0.3774  0.1675
  842MOL0     H13617   3.184   5.730   2.669 -3.5805 -2.5249  0.7616
  842MOL0     H13618   3.166   5.906   2.621  0.2542 -0.0656 -2.3395
  842MOL0     H13619   3.192   5.675   2.422 -0.8385 -0.7598  0.9569
  842MOL0     H13620   3.151   5.839   2.381 -2.0586  1.0121  2.8979
  842MOL0     H13621   3.350   5.894   2.238 -1.3340  3.9841  0.7763
  842MOL0     H13622   3.627   5.922   2.175  0.5210 -1.5920  0.5906
  842MOL0     H13623   3.632   6.060   2.297  1.1884  0.6943 -2.5563
  842MOL0     H13624   3.850   6.002   2.285  1.6727  0.9052  2.3114
  842MOL0     H13625   3.801   5.896   2.419 -1.0069 -1.3212 -0.8116
  842MOL0     H13626   3.847   5.785   2.147 -2.4400  0.2427  1.2315
  842MOL0     H13627   3.760   5.707   2.278 -0.5807  0.7064  2.2300
  842MOL0     H13628   4.023   5.659   2.266  3.8554  0.8718  1.4116
  842MOL0     H13629   3.974   5.743   2.415  0.6395 -3.0693  0.1286
  842MOL0     H13630   4.224   5.941   2.084 -0.9211 -0.1967  1.0062
  842MOL0     H13631   4.453   5.930   2.076 -2.4444 -1.6841 -2.1936
  842MOL0     H13632   4.864   5.739   2.222  0.6952 -2.0167 -0.2800
  842MOL0     H13633   5.122   5.733   2.245 -0.2041 -4.7300  1.7707
  842MOL0     H13634   5.279   5.948   2.610  1.7946 -0.5435  0.8112
  842MOL0     H13635   5.325   5.789   2.637  0.8570 -4.1048 -2.3230
  842MOL0     H13636   5.515   5.912   2.599  3.0708 -2.5385 -1.2835
  842MOL0     H13637   5.506   5.788   2.481 -0.7894 -0.0470  0.6018
  842MOL0     H13638   5.425   5.951   2.310 -0.4512 -0.9005  1.2819
  842MOL0     H13639   5.427   6.084   2.423  1.2174  0.4823  1.3131
  842MOL0     H13640   5.648   5.964   2.257  1.1095 -0.0375  0.5341
  842MOL0     H13641   5.696   6.006   2.420 -0.3623 -0.0785  0.0064
  842MOL0     H13642   5.733   6.194   2.247 -1.2439 -0.0016 -3.4360
  842MOL0     H13643   5.626   6.236   2.387 -1.4745  1.1781 -0.8155
  842MOL0     H13644   5.507   6.153   2.119  2.5162 -2.4494  1.1504
  842MOL0     H13645   5.433   6.227   2.243  0.0391 -3.6357 -0.2539
  842MOL0     H13646   5.590   6.365   2.029  0.3563 -0.2972 -0.6395
  842MOL0     H13647   5.639   6.415   2.203 -0.7620 -2.2424  2.6815
  842MOL0     H13648   5.370   6.433   2.096  0.7425 -0.8879 -0.9324
  842MOL0     H13649   5.420   6.474   2.260  0.6912 -0.0009 -0.5237
  842MOL0     H13650   5.052   5.882   2.640 -0.8492 -0.1260  0.7617
  842MOL0     H13651   4.822   5.922   2.608 -4.5161 -0.0965 -2.1742
  842MOL0     H13652   4.483   5.752   2.459 -0.4966  2.7383  1.5094
  842MOL0     H13653   4.232   5.765   2.476  0.7557  0.2478  0.2399
  842MOL0     H13654   2.219   5.822   2.864  1.6925  0.5878  0.1967
  842MOL0     H13655   2.021   5.928   2.985 -1.2403  0.7074  2.2432
  842MOL0     H13656   1.768   6.064   3.197  0.3890  1.9782 -1.0101
  842MOL0     H13657   1.586   6.195   3.229 -1.1368  0.8970  1.1055
  842MOL0     H13658   1.440   6.309   3.431  3.7382  0.4211  1.0561
  842MOL0     H13659   1.430   6.332   3.247  0.5145  1.5444 -1.1873
  842MOL0     H13660   1.332   6.529   3.455 -1.4509 -1.3806  0.4834
  842MOL0     H13661   1.239   6.440   3.339 -1.5348  4.3502 -1.2886
  842MOL0     H13662   1.418   6.550   3.156 -4.5394 -2.5375 -2.9820
  842MOL0     H13663   1.403   6.676   3.271  1.9311 -2.5342  1.5035
  842MOL0     H13664   1.179   6.513   3.134  3.0062 -1.3206  1.1956
  842MOL0     H13665   1.136   6.637   3.251 -1.6890 -1.5738 -0.7084
  842MOL0     H13666   1.227   6.874   2.911 -0.0286  1.4186  1.0418
  842MOL0     H13667   1.819   6.485   3.453 -1.5508  0.9240 -1.4840
  842MOL0     H13668   2.099   6.297   3.508 -0.5227  2.6686  2.7695
  842MOL0     H13669   2.101   6.416   3.361 -3.2236  0.6033 -1.8663
  842MOL0     H13670   2.026   6.458   3.509 -0.5880  1.6564 -0.5898
  843MOL0     O13671  10.747   2.871   4.519  0.2822  0.0391 -0.6026
  843MOL0     C13672  10.761   2.985   4.463  0.2792  0.0071 -0.5595
  843MOL0     O13673  10.887   3.040   4.427  0.1929  0.0874  0.0244
  843MOL0     C13674  10.984   2.952   4.391 -0.6915 -0.4303 -0.8336
  843MOL0     C13675  11.099   2.933   4.471 -0.5060 -0.4670 -0.7231
  843MOL0     C13676  11.204   2.849   4.434  0.4917 -0.1209  0.2101
  843MOL0     C13677  11.194   2.785   4.305 -0.7099  0.0348 -0.0407
  843MOL0     O13678  11.301   2.718   4.245  0.2889  0.4757 -0.3517
  843MOL0     C13679  11.427   2.728   4.303 -1.3924  0.0458 -0.6903
  843MOL0     C13680  11.528   2.627   4.250  0.2426  0.5247 -0.3067
  843MOL0     C13681  11.633   2.585   4.348 -0.6078  0.9390  1.2911
  843MOL0     C13682  11.684   2.446   4.314  0.2305 -0.3222 -0.4143
  843MOL0     C13683  11.792   2.408   4.405  0.5255 -0.3218  0.1103
  843MOL0     C13684  11.868   2.282   4.362 -0.1475 -0.3215 -0.3820
  843MOL0     C13685  11.959   2.224   4.470  0.6908 -0.7164 -1.0325
  843MOL0     C13686  12.065   2.322   4.524  0.4547 -0.1137  0.3318
  843MOL0     N13687  12.169   2.359   4.425  0.4640 -0.3601  0.5639
  843MOL0     C13688  12.193   2.477   4.358  0.6360 -0.3590  0.0679
  843MOL0     C13689  12.296   2.443   4.279 -0.5406  0.2318  0.1141
  843MOL0     C13690  12.362   2.531   4.179 -0.3938  0.5676 -0.3841
  843MOL0     C13691  12.272   2.555   4.055 -0.2212 -0.7623  0.1429
  843MOL0     C13692  12.226   2.435   3.986  0.0753 -0.0390  0.1026
  843MOL0     C13693  12.100   2.463   3.909  0.3006  0.1086 -0.0902
  843MOL0     O13694  12.121   2.562   3.814  0.2201 -0.0279 -0.3646
  843MOL0     C13695  12.012   2.596   3.728 -0.1876 -0.1714 -0.6464
  843MOL0     C13696  12.042   2.701   3.644 -0.2969 -0.7836 -0.2760
  843MOL0     C13697  11.941   2.763   3.569  0.4865 -0.1020 -0.6085
  843MOL0     C13698  11.807   2.706   3.571  0.0057  0.1553  0.2564
  843MOL0     C13699  11.696   2.764   3.496  0.0635  0.2770 -0.3831
  843MOL0     O13700  11.730   2.878   3.427  0.0302  0.7835 -0.3093
  843MOL0     C13701  11.637   2.940   3.346 -0.0740 -0.1573  0.3694
  843MOL0     C13702  11.658   2.945   3.205 -0.4574 -0.0148 -1.0006
  843MOL0     C13703  11.574   3.008   3.118  0.6840  0.3700 -0.0240
  843MOL0     C13704  11.459   3.067   3.169  0.4675  0.9378  0.2743
  843MOL0     O13705  11.360   3.112   3.082 -0.0367  0.0309 -0.3472
  843MOL0     C13706  11.291   3.005   3.018 -0.6039  0.6879  0.0050
  843MOL0     C13707  11.176   3.074   2.961 -0.6840  0.5737  0.3651
  843MOL0     C13708  11.110   2.984   2.854  0.3954  0.3709  0.5433
  843MOL0     C13709  10.987   3.041   2.800  0.5241  0.0312  1.0255
  843MOL0     C13710  10.922   2.988   2.659 -0.8390  0.1404 -0.1711
  843MOL0     C13711  11.016   2.976   2.540  0.1526 -0.5060 -0.4427
  843MOL0     C13712  11.059   3.126   2.491  0.0380 -0.1468 -0.7056
  843MOL0     C13713  11.139   3.121   2.356 -0.1207 -0.4602 -0.6925
  843MOL0    Cl13714  11.046   3.068   2.214 -0.0392 -0.1121 -0.1531
  843MOL0     C13715  11.436   3.071   3.310  0.7253  0.6019 -1.5642
  843MOL0     C13716  11.528   3.009   3.401 -0.3954 -0.3496  0.0033
  843MOL0     O13717  11.590   2.708   3.489 -0.6249  1.0451 -0.3186
  843MOL0     C13718  11.790   2.586   3.645  0.5076  0.1677 -1.3369
  843MOL0     C13719  11.892   2.533   3.723 -0.4333 -0.9589 -1.2550
  843MOL0     N13720  12.342   2.314   4.305  1.4124  0.1520 -0.0415
  843MOL0     N13721  12.263   2.270   4.405 -0.5129  1.1814  0.1113
  843MOL0     C13722  11.079   2.804   4.220 -0.6069  0.2742 -1.3445
  843MOL0     C13723  10.975   2.887   4.266  0.2944 -0.4098 -0.7938
  843MOL0     C13724  10.650   3.086   4.457  0.1600 -0.5249  0.3075
  843MOL0     C13725  10.688   3.216   4.439 -0.0588 -1.0059  0.0229
  843MOL0     C13726  10.599   3.326   4.437  0.4343  0.3748  1.2244
  843MOL0     C13727  10.461   3.299   4.448  0.3984 -0.4243  0.8835
  843MOL0     O13728  10.375   3.408   4.453 -0.6329  0.4590  0.5009
  843MOL0     C13729  10.393   3.504   4.344  0.3996 -0.0149  0.2452
  843MOL0     C13730  10.254   3.571   4.330  0.5302 -0.3475 -0.2142
  843MOL0     C13731  10.240   3.717   4.314 -0.1984  0.3197 -0.3182
  843MOL0     C13732  10.312   3.748   4.183 -0.2871 -0.4317  0.2062
  843MOL0     C13733  10.300   3.895   4.157 -0.7719  0.8573  0.9040
  843MOL0     C13734  10.274   4.007   4.136 -0.0253 -0.5519  0.4103
  843MOL0     C13735  10.420   3.167   4.464  0.5813  0.1294 -0.0856
  843MOL0     C13736  10.519   3.066   4.471 -0.7201 -0.0421  0.5088
  843MOL0     C13737  10.471   2.925   4.470 -0.3913  0.8352 -0.6110
  843MOL0     H13738  11.126   2.987   4.560  2.0112 -1.6309 -0.6996
  843MOL0     H13739  11.297   2.850   4.490  1.7149 -3.1818 -1.5193
  843MOL0     H13740  11.469   2.826   4.280 -1.2962  0.4752  1.1421
  843MOL0     H13741  11.417   2.712   4.411  0.5859 -1.3450 -0.6774
  843MOL0     H13742  11.576   2.663   4.158  0.5066 -3.0023 -1.6792
  843MOL0     H13743  11.471   2.538   4.221  4.0666 -2.7883  1.3972
  843MOL0     H13744  11.590   2.582   4.448 -2.9729 -1.6906  0.3360
  843MOL0     H13745  11.717   2.655   4.337 -0.9273  1.3362  1.3585
  843MOL0     H13746  11.610   2.368   4.333  0.2899  0.3109  3.0770
  843MOL0     H13747  11.726   2.444   4.213  0.6376 -1.0878 -0.2431
  843MOL0     H13748  11.861   2.492   4.418 -1.9787  1.6752  1.6388
  843MOL0     H13749  11.760   2.398   4.509  1.8550  0.0104  0.5714
  843MOL0     H13750  11.806   2.196   4.337  1.3946 -1.3772 -0.7461
  843MOL0     H13751  11.926   2.302   4.272 -0.1765 -3.0590 -1.1172
  843MOL0     H13752  12.020   2.146   4.423 -0.5667 -2.3056 -0.1491
  843MOL0     H13753  11.900   2.178   4.550 -2.2209  1.8914 -1.4556
  843MOL0     H13754  12.015   2.414   4.557 -0.6672  0.2805 -2.1613
  843MOL0     H13755  12.122   2.281   4.607 -0.4407 -1.0534  0.4912
  843MOL0     H13756  12.133   2.567   4.349 -2.0734 -2.1651 -1.4586
  843MOL0     H13757  12.379   2.633   4.216  0.0710  1.2389 -2.3170
  843MOL0     H13758  12.450   2.474   4.146 -0.4159  0.0297  0.4581
  843MOL0     H13759  12.183   2.608   4.092  0.7268  0.2120  1.1279
  843MOL0     H13760  12.316   2.621   3.980 -2.1766 -1.1890 -1.4802
  843MOL0     H13761  12.193   2.358   4.056  0.7701 -0.8638 -0.4540
  843MOL0     H13762  12.301   2.401   3.914 -0.4833 -0.4318 -0.2984
  843MOL0     H13763  12.021   2.483   3.982 -1.5382 -3.7916 -0.7368
  843MOL0     H13764  12.075   2.367   3.862  0.8915  0.1045 -0.4111
  843MOL0     H13765  12.144   2.734   3.626  0.5497 -3.0283  0.0582
  843MOL0     H13766  11.972   2.840   3.499  2.6812 -0.2377  0.1540
  843MOL0     H13767  11.744   2.901   3.155  0.7122  2.3929 -1.2211
  843MOL0     H13768  11.583   2.991   3.011  1.0347 -0.6474  0.1566
  843MOL0     H13769  11.354   2.969   2.935  1.3374  0.4713  1.5046
  843MOL0     H13770  11.256   2.922   3.079 -2.3377  1.2657 -0.1490
  843MOL0     H13771  11.102   3.071   3.041  0.6089 -3.1024  1.6026
  843MOL0     H13772  11.202   3.170   2.915 -0.1565  1.2259  1.9446
  843MOL0     H13773  11.185   2.970   2.775 -1.0810  2.0477 -1.2703
  843MOL0     H13774  11.090   2.885   2.897 -0.0060  0.1447 -0.1529
  843MOL0     H13775  11.005   3.144   2.767 -1.2645 -0.1013 -0.5592
  843MOL0     H13776  10.914   3.049   2.881 -1.3141  0.3164 -0.5839
  843MOL0     H13777  10.826   3.041   2.647 -1.9154 -1.5837  0.4789
  843MOL0     H13778  10.898   2.883   2.673  1.2144 -0.8342 -3.1536
  843MOL0     H13779  11.101   2.914   2.569  1.9898  1.5618 -1.0653
  843MOL0     H13780  10.955   2.929   2.462 -3.2156  3.3796 -0.4812
  843MOL0     H13781  11.125   3.162   2.571 -0.9678 -0.8719  0.4993
  843MOL0     H13782  10.970   3.189   2.492 -0.0010 -0.1784 -1.6421
  843MOL0     H13783  11.202   3.207   2.334  0.9780 -0.2705  2.5966
  843MOL0     H13784  11.208   3.036   2.360  1.4704  0.1018 -6.6948
  843MOL0     H13785  11.359   3.137   3.350  1.6201  1.1989 -0.7770
  843MOL0     H13786  11.509   3.018   3.508  1.6882  4.3625  0.2434
  843MOL0     H13787  11.704   2.521   3.636  0.0729  0.7971 -1.8179
  843MOL0     H13788  11.873   2.448   3.788  0.3775 -0.0303  0.2542
  843MOL0     H13789  11.085   2.759   4.121  0.2175 -1.1949 -0.6583
  843MOL0     H13790  10.887   2.906   4.204  1.4768  1.7664 -1.9122
  843MOL0     H13791  10.788   3.257   4.427 -0.2218 -0.9121 -1.1224
  843MOL0     H13792  10.643   3.425   4.437  1.4440 -0.0468 -0.0426
  843MOL0     H13793  10.421   3.451   4.253 -0.5772 -0.8689  0.4259
  843MOL0     H13794  10.470   3.577   4.370  0.6948 -0.2238 -0.0357
  843MOL0     H13795  10.198   3.553   4.423 -1.9136  1.8752 -1.1212
  843MOL0     H13796  10.193   3.533   4.247 -1.1557  2.4519 -0.3602
  843MOL0     H13797  10.284   3.757   4.406  2.3332  1.5743 -1.9643
  843MOL0     H13798  10.132   3.736   4.311 -0.3868 -0.4837  0.4816
  843MOL0     H13799  10.419   3.726   4.190 -0.5830 -1.9024  0.5537
  843MOL0     H13800  10.263   3.694   4.101 -1.9546  1.2306  0.0290
  843MOL0     H13801  10.249   4.104   4.099 -0.4153 -1.8594 -3.1286
  843MOL0     H13802  10.322   3.124   4.450  0.0841  1.1212  0.2050
  843MOL0     H13803  10.519   2.865   4.392 -1.1598  0.0075 -0.4700
  843MOL0     H13804  10.497   2.883   4.567  3.3640  1.8607 -1.0456
  843MOL0     H13805  10.362   2.918   4.459 -0.9890  0.3055  3.8709
  844MOL0     O13806   9.707   0.889   5.156 -0.0912  0.7563 -0.8100
  844MOL0     C13807   9.666   0.861   5.045  0.4733  1.0097 -0.6949
  844MOL0     O13808   9.737   0.855   4.928  0.0327  0.3280 -0.7493
  844MOL0     C13809   9.871   0.896   4.940 -0.3001 -0.1682 -0.4635
  844MOL0     C13810   9.975   0.803   4.934 -0.2778  0.8697 -0.3022
  844MOL0     C13811  10.108   0.854   4.950  0.6816  0.1487  0.4513
  844MOL0     C13812  10.137   0.981   4.974  0.0647 -0.2679  0.6777
  844MOL0     O13813  10.267   1.022   4.990 -0.5984 -0.0300 -0.1969
  844MOL0     C13814  10.301   1.156   5.033 -0.3757 -0.0445 -0.4582
  844MOL0     C13815  10.453   1.179   5.015  1.0352 -0.2626  0.8533
  844MOL0     C13816  10.473   1.329   5.025  0.0608 -0.0594 -0.0785
  844MOL0     C13817  10.625   1.371   4.980  0.5799 -0.1371 -0.7783
  844MOL0     C13818  10.716   1.381   5.095 -0.2236 -0.3236  0.2953
  844MOL0     C13819  10.853   1.451   5.072 -1.0981 -0.9317 -0.2025
  844MOL0     C13820  10.921   1.475   5.210 -0.3158  0.1524  0.6554
  844MOL0     C13821  11.072   1.482   5.213 -0.1575 -0.4501 -0.1932
  844MOL0     N13822  11.138   1.461   5.342  0.3832  0.9219 -0.1111
  844MOL0     C13823  11.129   1.348   5.418 -0.3718  0.8251  0.3281
  844MOL0     C13824  11.215   1.374   5.523 -0.4763 -0.2147  0.1183
  844MOL0     C13825  11.258   1.288   5.635 -0.0737  0.1268 -0.0387
  844MOL0     C13826  11.378   1.199   5.606 -0.6115 -0.4260  0.4940
  844MOL0     C13827  11.511   1.274   5.612 -0.1610 -0.4916  0.1671
  844MOL0     C13828  11.618   1.223   5.530  0.1276 -0.1817  0.6576
  844MOL0     O13829  11.751   1.261   5.566 -0.2610 -0.2413  0.2940
  844MOL0     C13830  11.850   1.235   5.468 -0.5639 -0.0427  0.2567
  844MOL0     C13831  11.974   1.271   5.496 -0.2551 -0.7025  0.2671
  844MOL0     C13832  12.080   1.257   5.404 -0.8957 -0.9238 -0.5516
  844MOL0     C13833  12.052   1.213   5.274  0.0514 -0.8231  0.7680
  844MOL0     C13834  12.164   1.191   5.181  0.4059  0.0943  0.1039
  844MOL0     O13835  12.288   1.245   5.214 -0.2933 -0.0049  0.0522
  844MOL0     C13836  12.397   1.220   5.123 -0.0193  0.9239 -0.4597
  844MOL0     C13837  12.433   1.096   5.086 -0.1358 -0.3187  0.9350
  844MOL0     C13838  12.548   1.079   5.010  0.1875 -0.5137 -0.8930
  844MOL0     C13839  12.623   1.189   4.970  0.1169  0.1309  0.5585
  844MOL0     O13840  12.745   1.173   4.904  0.7418  0.1607 -0.4910
  844MOL0     C13841  12.857   1.198   4.989 -0.5277 -0.3238 -0.7276
  844MOL0     C13842  12.875   1.076   5.091  0.5058 -0.1426 -0.0230
  844MOL0     C13843  13.013   1.081   5.165  0.4224 -0.5421 -0.6639
  844MOL0     C13844  13.030   0.983   5.285  0.0818 -0.5819 -0.6837
  844MOL0     C13845  13.075   0.842   5.239  0.0301  0.2932  0.9603
  844MOL0     C13846  13.220   0.806   5.245  0.0113  0.1010  0.2377
  844MOL0     C13847  13.267   0.767   5.383  0.6381  0.7125 -0.4185
  844MOL0     C13848  13.418   0.739   5.408 -0.2131 -0.3650  0.0874
  844MOL0    Cl13849  13.498   0.896   5.406  0.4148 -0.6903  0.0281
  844MOL0     C13850  12.567   1.317   5.000  0.3222  0.2326  1.1603
  844MOL0     C13851  12.457   1.337   5.080  0.4599 -0.4655 -0.3759
  844MOL0     O13852  12.149   1.132   5.074 -0.7376 -0.1538  0.2799
  844MOL0     C13853  11.916   1.176   5.244  0.4207  0.6375 -0.0536
  844MOL0     C13854  11.820   1.179   5.347  0.3400  0.3147 -0.2089
  844MOL0     N13855  11.273   1.490   5.505 -0.1075  0.3286  0.0889
  844MOL0     N13856  11.225   1.549   5.396 -0.6055 -0.4597 -0.2325
  844MOL0     C13857  10.034   1.070   4.985 -0.0115 -0.3251  0.6273
  844MOL0     C13858   9.903   1.027   4.973  0.9472  0.1565  1.0190
  844MOL0     C13859   9.543   0.792   5.048  0.6200 -1.0896  1.1559
  844MOL0     C13860   9.529   0.654   5.032 -0.3740  0.3750  0.5762
  844MOL0     C13861   9.406   0.589   5.010 -0.7819  0.2805  1.3278
  844MOL0     C13862   9.291   0.662   5.025 -0.3861  0.2028 -0.2718
  844MOL0     O13863   9.175   0.589   5.024 -0.0887 -0.5167 -0.2054
  844MOL0     C13864   9.057   0.661   5.002 -0.2752  0.2616  0.8309
  844MOL0     C13865   8.953   0.555   4.963 -0.4753  0.0882 -0.3059
  844MOL0     C13866   8.824   0.618   4.918  1.2240  0.3700  0.1219
  844MOL0     C13867   8.754   0.681   5.040 -0.0726 -0.7652 -0.6893
  844MOL0     C13868   8.709   0.572   5.133  0.4274  0.2662  0.1674
  844MOL0     C13869   8.681   0.470   5.196  0.5268 -0.4506 -0.0515
  844MOL0     C13870   9.303   0.801   5.057 -0.5451 -0.9109 -0.9619
  844MOL0     C13871   9.425   0.877   5.061 -0.2827  0.2780 -0.6692
  844MOL0     C13872   9.420   1.026   5.092  0.0695  1.2412  0.3147
  844MOL0     H13873   9.959   0.702   4.898  0.3236  0.4023  0.7052
  844MOL0     H13874  10.201   0.800   4.937  1.3499  0.9524  1.6461
  844MOL0     H13875  10.242   1.230   4.978  0.8406  2.0026  0.8348
  844MOL0     H13876  10.284   1.168   5.141 -1.2813  2.2740 -0.7883
  844MOL0     H13877  10.484   1.149   4.915 -0.6339 -1.1035  0.5422
  844MOL0     H13878  10.510   1.134   5.097  2.5788  0.5825  0.2752
  844MOL0     H13879  10.458   1.361   5.128  2.1766 -1.3252  0.6769
  844MOL0     H13880  10.391   1.380   4.973  1.1322  2.4838  0.5912
  844MOL0     H13881  10.662   1.297   4.910 -0.2517 -1.1094 -0.2188
  844MOL0     H13882  10.619   1.469   4.931 -1.3179 -0.4787 -1.2977
  844MOL0     H13883  10.670   1.445   5.171  1.7478  2.4210 -0.6607
  844MOL0     H13884  10.716   1.288   5.154 -1.0265  0.1226  1.0250
  844MOL0     H13885  10.920   1.384   5.018  0.6898 -0.8202  1.7178
  844MOL0     H13886  10.843   1.537   5.005 -1.7726  0.0374  1.0946
  844MOL0     H13887  10.879   1.393   5.268 -0.2982  0.7887  1.5776
  844MOL0     H13888  10.887   1.564   5.264  0.2696 -0.3737  1.9109
  844MOL0     H13889  11.116   1.412   5.141  1.5897 -0.0391  0.4403
  844MOL0     H13890  11.091   1.582   5.173 -3.5983  1.1697  1.7994
  844MOL0     H13891  11.078   1.257   5.388  2.8055 -0.7447 -0.7740
  844MOL0     H13892  11.263   1.349   5.725  0.2945  0.6594 -0.4155
  844MOL0     H13893  11.175   1.217   5.646 -0.9494  1.3922  2.1572
  844MOL0     H13894  11.363   1.118   5.678 -5.7526  0.0632  0.3499
  844MOL0     H13895  11.368   1.159   5.505  2.2568 -0.6972  0.2204
  844MOL0     H13896  11.540   1.277   5.717 -2.2516 -1.6168  0.8255
  844MOL0     H13897  11.504   1.380   5.583 -1.5170 -0.0887  1.8126
  844MOL0     H13898  11.589   1.260   5.431  0.4080  2.4631  1.5030
  844MOL0     H13899  11.599   1.115   5.534 -1.0172  0.0148  1.1597
  844MOL0     H13900  12.002   1.317   5.591  0.1585 -2.4291  1.0212
  844MOL0     H13901  12.175   1.286   5.449 -1.3350 -3.0524  1.9876
  844MOL0     H13902  12.389   1.006   5.129 -1.3696  0.0368  0.4588
  844MOL0     H13903  12.581   0.978   4.988 -1.0176 -1.9644  3.0636
  844MOL0     H13904  12.949   1.216   4.931  2.7415  2.2305  4.5001
  844MOL0     H13905  12.846   1.295   5.037 -1.0379  0.2188 -1.9122
  844MOL0     H13906  12.791   1.073   5.162  1.2127 -2.5645  0.8175
  844MOL0     H13907  12.874   0.980   5.039 -0.1185 -1.2399  1.9213
  844MOL0     H13908  13.094   1.057   5.096  2.3815 -0.0823  1.3649
  844MOL0     H13909  13.035   1.183   5.198 -0.7640 -0.4784 -0.0038
  844MOL0     H13910  12.942   0.978   5.351  0.0716 -0.1480 -0.6634
  844MOL0     H13911  13.101   1.020   5.359 -0.0397 -0.5722 -0.5722
  844MOL0     H13912  13.038   0.823   5.138  1.3915 -2.2395  0.8553
  844MOL0     H13913  13.021   0.758   5.285 -0.8805 -1.7097 -3.3212
  844MOL0     H13914  13.245   0.719   5.184 -0.2793 -0.5942  1.0957
  844MOL0     H13915  13.280   0.888   5.204 -1.8428  0.2628 -2.3790
  844MOL0     H13916  13.215   0.679   5.420  0.4004  1.2421  0.5454
  844MOL0     H13917  13.239   0.846   5.454 -3.7886 -0.7857 -0.2009
  844MOL0     H13918  13.432   0.683   5.501  1.4098 -1.4136 -0.7344
  844MOL0     H13919  13.454   0.676   5.325  0.2833 -2.2885  1.6842
  844MOL0     H13920  12.617   1.409   4.970 -1.3988  1.9013  3.0313
  844MOL0     H13921  12.420   1.434   5.109  0.3690 -0.6052 -0.0151
  844MOL0     H13922  11.897   1.135   5.145  2.9010  1.5002 -0.9655
  844MOL0     H13923  11.721   1.137   5.331  0.3655  0.9706 -2.3066
  844MOL0     H13924  10.049   1.172   5.018  1.3540 -1.0529  2.3845
  844MOL0     H13925   9.818   1.092   4.990  1.6420  1.1950  0.5948
  844MOL0     H13926   9.617   0.594   5.016 -0.9060  0.2240 -2.3265
  844MOL0     H13927   9.405   0.481   4.997  1.7449  0.2554  0.8811
  844MOL0     H13928   9.074   0.734   4.922 -1.1169  0.0031  0.3979
  844MOL0     H13929   9.023   0.708   5.095  4.1774  0.3732  2.6199
  844MOL0     H13930   8.941   0.494   5.053  0.4603 -1.0836 -0.9378
  844MOL0     H13931   8.983   0.508   4.869  0.6484 -1.0891  0.5977
  844MOL0     H13932   8.757   0.549   4.867  1.5259  0.0279  0.1820
  844MOL0     H13933   8.835   0.691   4.837 -0.6789 -1.1543 -1.5952
  844MOL0     H13934   8.815   0.760   5.086 -1.5989  1.2943 -2.0196
  844MOL0     H13935   8.669   0.740   5.005  1.2021  1.9641  0.5131
  844MOL0     H13936   8.638   0.380   5.235 -4.1437  0.5189 -2.3220
  844MOL0     H13937   9.217   0.866   5.065  0.7974  0.7041  3.5932
  844MOL0     H13938   9.417   1.047   5.199  3.4785  1.6085  0.4429
  844MOL0     H13939   9.513   1.064   5.050  0.0724 -1.5045 -2.5779
  844MOL0     H13940   9.337   1.084   5.052  0.4247  2.1282  0.8438
  845MOL0     O13941   6.988   5.001   1.576 -0.0448  0.0983 -0.3449
  845MOL0     C13942   6.922   5.100   1.544 -0.1297 -0.5515  0.3961
  845MOL0     O13943   6.970   5.222   1.515 -0.0012 -0.8354  0.0128
  845MOL0     C13944   7.106   5.243   1.499  0.5377 -0.6825  0.9563
  845MOL0     C13945   7.181   5.156   1.421  0.1439  0.2150  0.1410
  845MOL0     C13946   7.320   5.166   1.402 -0.4708 -0.6041  0.5330
  845MOL0     C13947   7.386   5.281   1.452 -0.9479  0.4053 -0.4803
  845MOL0     O13948   7.513   5.301   1.407 -0.2737 -0.0998  0.2987
  845MOL0     C13949   7.594   5.403   1.470 -0.2452  0.6374  0.2737
  845MOL0     C13950   7.737   5.404   1.412  0.6956 -1.1878  0.0143
  845MOL0     C13951   7.803   5.274   1.416  1.5615  0.2452  0.1106
  845MOL0     C13952   7.949   5.280   1.382 -0.9105  0.2528  0.3922
  845MOL0     C13953   8.014   5.337   1.504  0.1126  0.5769  0.8689
  845MOL0     C13954   8.162   5.360   1.470  0.5622  0.0124  0.7569
  845MOL0     C13955   8.233   5.381   1.603 -0.3658 -0.2452 -0.0212
  845MOL0     C13956   8.368   5.448   1.582  0.5760 -0.0885 -0.3928
  845MOL0     N13957   8.456   5.439   1.694  1.0568  0.7977 -0.0780
  845MOL0     C13958   8.533   5.330   1.713  0.7771  0.1739  0.0317
  845MOL0     C13959   8.610   5.371   1.814 -0.5125  0.0355  0.8460
  845MOL0     C13960   8.708   5.283   1.884  0.4532 -0.3643 -0.0674
  845MOL0     C13961   8.849   5.302   1.825 -0.6451  0.2097  0.6867
  845MOL0     C13962   8.948   5.219   1.906 -0.0458 -0.1973  0.5600
  845MOL0     C13963   9.082   5.253   1.849  0.5446 -0.3634  0.3907
  845MOL0     O13964   9.139   5.374   1.903  0.2704 -0.5286  0.3019
  845MOL0     C13965   9.278   5.378   1.896  0.6329  0.0853 -0.5176
  845MOL0     C13966   9.334   5.457   1.993 -0.2838  0.0076  0.0299
  845MOL0     C13967   9.467   5.462   2.002 -0.1602  0.3284 -1.3712
  845MOL0     C13968   9.549   5.393   1.920 -0.8619  0.2832  1.4471
  845MOL0     C13969   9.691   5.398   1.955 -0.5265  0.7382 -0.1572
  845MOL0     O13970   9.740   5.499   2.032 -1.2520  0.1449  0.3110
  845MOL0     C13971   9.872   5.524   2.023  0.3563 -0.2792 -0.4829
  845MOL0     C13972   9.962   5.470   2.114  1.3044  0.4364 -0.5564
  845MOL0     C13973  10.096   5.515   2.118 -0.4148 -0.8514  0.4271
  845MOL0     C13974  10.147   5.595   2.019  0.2849  0.1554 -1.3025
  845MOL0     O13975  10.283   5.613   2.026 -0.2269 -0.0897 -0.1701
  845MOL0     C13976  10.327   5.748   1.967  0.3853  0.5200  0.3402
  845MOL0     C13977  10.477   5.762   1.980  0.3872  0.0380 -0.0880
  845MOL0     C13978  10.517   5.775   2.132  0.3712 -0.0160 -0.2321
  845MOL0     C13979  10.665   5.811   2.152  0.8325 -0.0599  0.3266
  845MOL0     C13980  10.714   5.750   2.281  0.2933  0.3445 -0.4919
  845MOL0     C13981  10.850   5.797   2.322 -0.1056  0.7035 -0.7715
  845MOL0     C13982  10.849   5.949   2.373 -0.7808  0.2306 -0.7840
  845MOL0     C13983  10.988   6.002   2.353 -0.2119 -0.1697  0.1062
  845MOL0    Cl13984  11.003   6.146   2.459  0.0551  0.3279  0.3563
  845MOL0     C13985  10.054   5.644   1.929  0.2408 -0.1913  0.1176
  845MOL0     C13986   9.919   5.610   1.921  0.7112 -0.6854 -0.5873
  845MOL0     O13987   9.760   5.301   1.914 -0.0075 -0.0124  0.3127
  845MOL0     C13988   9.489   5.307   1.814  0.2547 -0.0291 -0.1191
  845MOL0     C13989   9.354   5.306   1.801 -0.2457 -0.2715  0.5989
  845MOL0     N13990   8.573   5.502   1.850  0.3892  0.4868  0.4549
  845MOL0     N13991   8.477   5.538   1.778  0.0617 -0.4867  0.8636
  845MOL0     C13992   7.310   5.361   1.536  0.3480  0.1479  0.0163
  845MOL0     C13993   7.168   5.348   1.546  0.1155 -0.5062  0.3144
  845MOL0     C13994   6.773   5.097   1.545 -1.3541 -0.5766  0.7633
  845MOL0     C13995   6.714   4.973   1.542  0.1691 -1.3473  0.3691
  845MOL0     C13996   6.574   4.949   1.534  0.3117 -0.4551  0.1441
  845MOL0     C13997   6.493   5.067   1.548 -0.7510  0.1424 -0.6263
  845MOL0     O13998   6.358   5.051   1.560  0.1519 -0.3957  0.3282
  845MOL0     C13999   6.289   5.072   1.435  0.3412 -0.9179 -0.0528
  845MOL0     C14000   6.136   5.091   1.454  0.1743  0.8349  0.0680
  845MOL0     C14001   6.089   4.964   1.532 -0.4961  0.5378  0.3999
  845MOL0     C14002   5.940   4.975   1.572  0.0203  0.1029  0.1921
  845MOL0     C14003   5.903   4.871   1.670  0.2689 -0.7602  0.2112
  845MOL0     C14004   5.885   4.771   1.741 -0.1487 -0.2868 -1.1226
  845MOL0     C14005   6.545   5.191   1.543 -0.0569 -0.2162  0.0872
  845MOL0     C14006   6.684   5.206   1.533  0.4327 -0.7732 -0.5993
  845MOL0     C14007   6.732   5.350   1.542 -0.7323  0.8530  0.2595
  845MOL0     H14008   7.124   5.069   1.390  1.4302 -0.4602 -0.4228
  845MOL0     H14009   7.377   5.093   1.345 -0.2800 -0.3457  0.3893
  845MOL0     H14010   7.554   5.501   1.442  2.2092  0.9278 -2.7036
  845MOL0     H14011   7.596   5.396   1.579 -0.0714  1.6370  0.3390
  845MOL0     H14012   7.792   5.485   1.462 -0.0876 -0.8548  0.3588
  845MOL0     H14013   7.725   5.430   1.306 -3.2450 -1.6128  0.2216
  845MOL0     H14014   7.748   5.208   1.348 -1.1955  2.5693 -0.0698
  845MOL0     H14015   7.788   5.229   1.515 -1.0598  2.1840  0.7057
  845MOL0     H14016   7.992   5.180   1.371  3.3988  1.7673  1.5065
  845MOL0     H14017   7.977   5.337   1.292 -1.1700  0.7327  0.6110
  845MOL0     H14018   7.984   5.437   1.534 -0.1082  0.2418  1.7786
  845MOL0     H14019   8.004   5.252   1.572  1.3811 -2.7493 -2.6919
  845MOL0     H14020   8.198   5.270   1.417  0.8257 -0.4990  1.7848
  845MOL0     H14021   8.169   5.447   1.404 -0.5361 -0.0121  0.5949
  845MOL0     H14022   8.244   5.288   1.660  0.5899  0.4243  0.9296
  845MOL0     H14023   8.171   5.443   1.668  1.2815  2.3337 -0.7449
  845MOL0     H14024   8.410   5.408   1.489 -0.8064 -1.8889 -0.3096
  845MOL0     H14025   8.348   5.555   1.573  1.6499  0.0576 -1.2348
  845MOL0     H14026   8.524   5.228   1.677 -0.1333  0.2843 -0.0769
  845MOL0     H14027   8.698   5.306   1.990  2.2843 -0.9684  0.2765
  845MOL0     H14028   8.680   5.177   1.888  0.0301 -0.2137  1.1299
  845MOL0     H14029   8.858   5.272   1.720 -0.1366  1.3150  0.3916
  845MOL0     H14030   8.871   5.409   1.832  0.4232  0.1616 -1.0940
  845MOL0     H14031   8.916   5.117   1.886 -1.9608  0.7391 -1.5729
  845MOL0     H14032   8.937   5.251   2.010 -1.6540 -0.0253  0.3613
  845MOL0     H14033   9.078   5.265   1.741 -1.8539 -0.4048  0.4329
  845MOL0     H14034   9.150   5.168   1.861  1.3833  0.3305  0.7452
  845MOL0     H14035   9.271   5.522   2.053  0.2380  4.5012 -3.7224
  845MOL0     H14036   9.512   5.524   2.079  2.0135 -1.0257 -1.4386
  845MOL0     H14037   9.930   5.392   2.182  0.8010 -0.6444 -1.9837
  845MOL0     H14038  10.155   5.473   2.199  0.7243 -0.0780  0.0311
  845MOL0     H14039  10.302   5.764   1.861  2.3613 -0.1491 -0.2741
  845MOL0     H14040  10.284   5.833   2.021 -0.1235 -0.3861  1.3912
  845MOL0     H14041  10.539   5.696   1.919  2.8977  1.7629  0.4458
  845MOL0     H14042  10.502   5.861   1.941 -0.0803  1.0866  2.1135
  845MOL0     H14043  10.456   5.836   2.199  2.1529 -2.0205  3.5166
  845MOL0     H14044  10.508   5.674   2.174 -2.2190 -0.0878 -0.7753
  845MOL0     H14045  10.672   5.920   2.151 -0.5876  0.1733 -4.2585
  845MOL0     H14046  10.722   5.777   2.065  2.4237 -0.1675  1.3712
  845MOL0     H14047  10.715   5.642   2.265 -1.0138  0.2513 -0.0711
  845MOL0     H14048  10.649   5.781   2.364  2.2105 -0.4850  1.3971
  845MOL0     H14049  10.888   5.739   2.406 -3.5210 -1.2134 -0.3635
  845MOL0     H14050  10.921   5.781   2.241 -0.5024  3.0483 -1.6699
  845MOL0     H14051  10.817   5.968   2.476  0.1202  1.2016 -0.6615
  845MOL0     H14052  10.774   6.001   2.312  1.0080  0.2042 -3.1686
  845MOL0     H14053  11.057   5.924   2.386  1.8946  0.7957 -1.7520
  845MOL0     H14054  11.009   6.011   2.246 -1.2096 -0.0037 -0.0845
  845MOL0     H14055  10.089   5.706   1.847 -1.1738 -0.6503 -0.8561
  845MOL0     H14056   9.860   5.656   1.842 -2.7340 -0.3713  1.9512
  845MOL0     H14057   9.560   5.250   1.753  0.0250 -2.5601  1.7938
  845MOL0     H14058   9.320   5.243   1.719  0.5337 -0.8934  0.7467
  845MOL0     H14059   7.347   5.451   1.585  0.8273 -0.5725  1.0051
  845MOL0     H14060   7.107   5.411   1.611  1.5615 -2.3611  3.7027
  845MOL0     H14061   6.780   4.888   1.548 -0.3207 -1.8285 -0.7365
  845MOL0     H14062   6.550   4.844   1.534 -1.8040 -0.0108 -0.1455
  845MOL0     H14063   6.318   4.990   1.368  1.0671  1.5699 -3.0031
  845MOL0     H14064   6.325   5.166   1.392  2.9620 -0.9369  1.8461
  845MOL0     H14065   6.084   5.099   1.359 -1.2845  0.3198  0.7814
  845MOL0     H14066   6.109   5.180   1.511  1.5920  0.0388  2.1210
  845MOL0     H14067   6.151   4.945   1.620 -2.3735 -1.5116  1.3890
  845MOL0     H14068   6.104   4.876   1.469  1.4577  0.8122  0.4082
  845MOL0     H14069   5.925   5.074   1.615  3.0181  0.0484  1.6486
  845MOL0     H14070   5.886   4.968   1.477  0.6188  1.3600 -0.2719
  845MOL0     H14071   5.871   4.682   1.799  0.8322  1.4214  1.9836
  845MOL0     H14072   6.485   5.279   1.560  1.3415  0.4976  1.6172
  845MOL0     H14073   6.660   5.432   1.534 -0.9393  0.8252  1.6343
  845MOL0     H14074   6.801   5.356   1.627  0.0118  0.7728 -0.3271
  845MOL0     H14075   6.794   5.367   1.453 -2.4729  0.1819 -1.1576
  846MOL0     O14076   2.385   4.886   9.783 -0.1794 -0.1738 -0.5665
  846MOL0     C14077   2.481   4.904   9.713 -0.3932 -0.6153 -0.7036
  846MOL0     O14078   2.502   5.001   9.614 -0.3620  0.3598 -0.3135
  846MOL0     C14079   2.418   5.098   9.586 -0.0798 -0.3455 -0.5944
  846MOL0     C14080   2.326   5.175   9.677 -1.0672 -0.1402  0.0079
  846MOL0     C14081   2.244   5.278   9.613 -0.3084 -0.1441  0.2884
  846MOL0     C14082   2.256   5.302   9.475  0.4670  0.4041 -0.3705
  846MOL0     O14083   2.169   5.397   9.416 -0.0589  0.8691  0.2857
  846MOL0     C14084   2.064   5.462   9.485 -0.0890 -0.7083  0.8933
  846MOL0     C14085   2.009   5.579   9.397 -0.7256  0.2804  0.1036
  846MOL0     C14086   1.944   5.516   9.279  0.0349  0.4319  0.7939
  846MOL0     C14087   1.867   5.627   9.210  0.5188  0.3034  0.6081
  846MOL0     C14088   1.795   5.579   9.078  0.3900 -0.0656 -0.3388
  846MOL0     C14089   1.685   5.471   9.110 -0.0131 -0.7241  0.4223
  846MOL0     C14090   1.625   5.420   8.984  0.2591 -0.2265 -0.0300
  846MOL0     C14091   1.537   5.524   8.916  0.2714 -0.2937 -0.2320
  846MOL0     N14092   1.528   5.499   8.770 -0.3014 -0.0366  1.0201
  846MOL0     C14093   1.443   5.408   8.711  0.5167  0.1861  0.1169
  846MOL0     C14094   1.448   5.437   8.578  0.2515 -0.1777  0.6336
  846MOL0     C14095   1.379   5.375   8.462 -0.5893  0.0134 -0.0822
  846MOL0     C14096   1.244   5.440   8.436  0.3241  0.5933 -0.1221
  846MOL0     C14097   1.208   5.396   8.297  0.5232 -0.3915  0.2276
  846MOL0     C14098   1.093   5.300   8.287 -0.1429  0.8752  0.1173
  846MOL0     O14099   0.990   5.344   8.193  0.7604  0.5639  0.1234
  846MOL0     C14100   0.869   5.288   8.218  0.2109  0.0203  1.2592
  846MOL0     C14101   0.857   5.152   8.192  0.1193 -0.0160  0.2424
  846MOL0     C14102   0.731   5.089   8.209 -0.2231  0.4012  0.5749
  846MOL0     C14103   0.625   5.163   8.267 -1.3701  0.9141  1.0631
  846MOL0     C14104   0.495   5.097   8.279  0.1605 -0.1769 -0.4218
  846MOL0     O14105   0.389   5.166   8.341  0.1021 -0.3843  0.0639
  846MOL0     C14106   0.258   5.159   8.297 -0.1532 -0.8092  0.1766
  846MOL0     C14107   0.206   5.082   8.193 -0.7472 -0.1011 -0.2045
  846MOL0     C14108   0.066   5.091   8.167 -0.5685  0.7248  1.0511
  846MOL0     C14109  -0.017   5.186   8.235 -0.6963 -0.2008  0.0257
  846MOL0     O14110  -0.149   5.188   8.210  0.1474 -0.3144  0.9143
  846MOL0     C14111  -0.239   5.174   8.316  0.7730 -0.7625  0.4215
  846MOL0     C14112  -0.344   5.073   8.270  0.4352  0.8967  0.5868
  846MOL0     C14113  -0.296   4.924   8.253  0.5126  0.4020  0.3446
  846MOL0     C14114  -0.419   4.843   8.198  0.3777  0.1856 -1.0711
  846MOL0     C14115  -0.402   4.690   8.210  0.3674  0.0678  0.1699
  846MOL0     C14116  -0.283   4.630   8.120  0.0053 -0.6046 -0.6558
  846MOL0     C14117  -0.263   4.488   8.155 -0.2461 -0.8173  0.2510
  846MOL0     C14118  -0.188   4.416   8.047  0.5174  0.8533  1.3633
  846MOL0    Cl14119  -0.032   4.488   8.035  0.1059  0.3366 -0.1853
  846MOL0     C14120   0.036   5.257   8.339  0.2334  0.4164 -0.3217
  846MOL0     C14121   0.168   5.239   8.368 -0.0351  0.4043  0.5446
  846MOL0     O14122   0.491   4.984   8.239 -0.3120  0.4653  0.4084
  846MOL0     C14123   0.642   5.301   8.290 -0.3704 -0.4087  0.6503
  846MOL0     C14124   0.762   5.359   8.268  0.3595 -0.1193 -0.1471
  846MOL0     N14125   1.546   5.537   8.560  0.4049 -0.1421  0.2927
  846MOL0     N14126   1.579   5.584   8.674  0.1082 -0.6377  0.8152
  846MOL0     C14127   2.341   5.225   9.398 -0.7666 -0.2430  0.2309
  846MOL0     C14128   2.426   5.129   9.452 -0.2013 -0.1976  0.2361
  846MOL0     C14129   2.596   4.806   9.715 -0.7578 -0.0259  0.1091
  846MOL0     C14130   2.666   4.782   9.587 -0.2420  0.7490  0.2653
  846MOL0     C14131   2.774   4.693   9.580  0.8281  0.8197  0.4165
  846MOL0     C14132   2.805   4.613   9.685  0.1382 -0.4237 -0.1981
  846MOL0     O14133   2.906   4.521   9.688  0.3191  0.1040  0.3290
  846MOL0     C14134   2.913   4.428   9.582 -0.7427  0.1514  0.1791
  846MOL0     C14135   2.990   4.305   9.622  0.1282  0.4452 -0.4755
  846MOL0     C14136   2.916   4.198   9.705 -0.0102 -0.1223 -0.4329
  846MOL0     C14137   2.803   4.115   9.639  0.0267  0.0267  0.0586
  846MOL0     C14138   2.862   4.027   9.540  0.0547  0.1330  0.1924
  846MOL0     C14139   2.908   3.953   9.452  0.7533  0.9258 -0.5567
  846MOL0     C14140   2.739   4.639   9.810  0.0376 -0.0918 -0.2335
  846MOL0     C14141   2.632   4.729   9.824 -0.0233 -0.7394 -0.5854
  846MOL0     C14142   2.573   4.749   9.956  0.4995  0.6394 -0.3928
  846MOL0     H14143   2.328   5.161   9.785 -1.6325 -2.1925 -0.2176
  846MOL0     H14144   2.175   5.330   9.678 -0.8787  0.7477 -0.9869
  846MOL0     H14145   1.986   5.398   9.527 -2.6379  0.4204 -1.7718
  846MOL0     H14146   2.114   5.520   9.564  0.3453 -1.3391  1.0908
  846MOL0     H14147   2.090   5.647   9.368 -1.1362  1.0784  0.8056
  846MOL0     H14148   1.935   5.633   9.456 -0.0880  0.6326  0.5968
  846MOL0     H14149   1.884   5.431   9.313  2.5627 -2.5709 -1.5409
  846MOL0     H14150   2.014   5.486   9.200  0.4248  0.7021  1.0360
  846MOL0     H14151   1.792   5.668   9.279 -0.5204  1.3634 -1.0779
  846MOL0     H14152   1.933   5.712   9.190  0.7401  0.5924  2.4087
  846MOL0     H14153   1.760   5.670   9.028  0.8039 -0.7478 -1.9347
  846MOL0     H14154   1.866   5.526   9.014 -1.4065 -2.1665 -0.7200
  846MOL0     H14155   1.737   5.389   9.160  0.7098 -0.4345  0.1475
  846MOL0     H14156   1.607   5.509   9.177  0.2602 -1.0979  0.9583
  846MOL0     H14157   1.562   5.334   9.008  1.4600 -0.8887  0.8807
  846MOL0     H14158   1.707   5.380   8.923 -0.0367  0.2551 -0.7546
  846MOL0     H14159   1.443   5.538   8.970  1.7550  2.0034  2.0020
  846MOL0     H14160   1.591   5.620   8.916  3.0737 -1.7510 -1.1983
  846MOL0     H14161   1.374   5.336   8.753 -0.2083  0.9275  0.2300
  846MOL0     H14162   1.443   5.389   8.374  0.7941 -2.0762  0.5180
  846MOL0     H14163   1.373   5.267   8.477 -0.0225  0.1387  1.1463
  846MOL0     H14164   1.173   5.406   8.512  0.0564 -1.0875 -1.0812
  846MOL0     H14165   1.261   5.548   8.429 -0.1313  0.5535 -4.6568
  846MOL0     H14166   1.284   5.367   8.224 -0.4894 -2.4203 -0.0973
  846MOL0     H14167   1.162   5.487   8.257  0.8486  0.3725  1.5705
  846MOL0     H14168   1.054   5.294   8.389 -2.3185  1.0126 -0.6705
  846MOL0     H14169   1.132   5.205   8.251 -2.1067 -0.9264  2.3999
  846MOL0     H14170   0.944   5.099   8.156 -0.2788 -0.0855 -0.6440
  846MOL0     H14171   0.711   4.985   8.185  1.8535  0.3211 -1.0371
  846MOL0     H14172   0.263   5.010   8.136  1.6787 -0.5448  2.5659
  846MOL0     H14173   0.020   5.031   8.088 -2.3584 -0.3854  2.8345
  846MOL0     H14174  -0.203   5.142   8.415 -5.2464 -0.1573  3.2234
  846MOL0     H14175  -0.290   5.269   8.337  0.4165 -0.9340  0.3147
  846MOL0     H14176  -0.414   5.059   8.353 -0.2503 -2.2883 -0.3849
  846MOL0     H14177  -0.395   5.105   8.179 -3.3121  1.1286  2.5927
  846MOL0     H14178  -0.209   4.915   8.188  0.0525 -0.4152 -0.1726
  846MOL0     H14179  -0.255   4.885   8.347  1.2990  0.7146  0.1459
  846MOL0     H14180  -0.432   4.875   8.094 -3.4842 -1.0659 -1.1134
  846MOL0     H14181  -0.508   4.878   8.251  0.4196 -0.3719 -0.6251
  846MOL0     H14182  -0.494   4.648   8.169 -0.3483  0.2863  1.4988
  846MOL0     H14183  -0.396   4.660   8.315 -3.4393 -2.9060 -0.2102
  846MOL0     H14184  -0.295   4.645   8.012  0.2468 -0.3793 -0.6523
  846MOL0     H14185  -0.194   4.687   8.147  0.0624 -1.2841  0.6379
  846MOL0     H14186  -0.361   4.440   8.164 -0.6450 -0.0398  0.1148
  846MOL0     H14187  -0.211   4.484   8.251 -2.1676  0.3286  1.4135
  846MOL0     H14188  -0.183   4.309   8.069  1.4516  0.9650  1.7383
  846MOL0     H14189  -0.238   4.417   7.950  0.0818 -1.3356  1.5070
  846MOL0     H14190  -0.013   5.338   8.392  0.8111  0.1791  0.6011
  846MOL0     H14191   0.209   5.299   8.449  1.0676 -0.9130  1.0088
  846MOL0     H14192   0.548   5.350   8.318 -0.5852 -0.4934  0.0919
  846MOL0     H14193   0.773   5.464   8.291 -1.6346  0.8188 -2.8775
  846MOL0     H14194   2.342   5.248   9.292  0.0493 -0.1318  0.2584
  846MOL0     H14195   2.503   5.078   9.395  0.2435 -0.8379  1.3567
  846MOL0     H14196   2.644   4.832   9.493  3.4892 -1.2302 -1.9098
  846MOL0     H14197   2.810   4.670   9.480  0.4244  0.3632  0.3727
  846MOL0     H14198   2.953   4.475   9.492 -1.0483 -2.4427 -1.4235
  846MOL0     H14199   2.812   4.397   9.551 -1.5170  1.4731  1.2474
  846MOL0     H14200   3.075   4.323   9.688  0.8859 -1.8951 -0.7036
  846MOL0     H14201   3.029   4.248   9.537  0.5124 -1.8986  1.1808
  846MOL0     H14202   2.869   4.246   9.791  0.3190  1.2118 -0.9694
  846MOL0     H14203   2.992   4.129   9.744  0.4610  0.2170 -0.7379
  846MOL0     H14204   2.748   4.056   9.714  0.1471  0.1459  0.2407
  846MOL0     H14205   2.723   4.170   9.588 -1.6865 -1.5779  0.9005
  846MOL0     H14206   2.930   3.871   9.386 -2.3404 -0.1123 -0.4661
  846MOL0     H14207   2.769   4.580   9.896 -1.2906 -1.0777 -0.4072
  846MOL0     H14208   2.473   4.705   9.955  0.6265  0.2161  1.2570
  846MOL0     H14209   2.620   4.697  10.040 -1.7575  0.8633  1.1052
  846MOL0     H14210   2.558   4.853   9.987  2.0899  0.1637  2.3294
  847MOL0     O14211   0.450   1.749   9.603 -0.3272 -1.0460 -0.2318
  847MOL0     C14212   0.460   1.874   9.601 -0.2425 -0.1807  1.3717
  847MOL0     O14213   0.577   1.947   9.578  0.0113  0.6514 -0.1245
  847MOL0     C14214   0.709   1.900   9.560 -1.0993 -0.2629  0.8975
  847MOL0     C14215   0.739   1.760   9.537  0.0522 -0.1294  0.3128
  847MOL0     C14216   0.861   1.718   9.495  0.2412  0.0022 -0.3018
  847MOL0     C14217   0.967   1.805   9.480  0.5213 -0.1969  1.6646
  847MOL0     O14218   1.090   1.765   9.445  0.1681 -0.0941 -0.4992
  847MOL0     C14219   1.143   1.679   9.545  0.4957 -0.5255 -0.3056
  847MOL0     C14220   1.296   1.685   9.552 -0.4775  0.0959  0.4203
  847MOL0     C14221   1.366   1.826   9.551 -0.2485  0.0650  0.3565
  847MOL0     C14222   1.317   1.921   9.666 -0.2337  1.2474  0.8093
  847MOL0     C14223   1.421   2.035   9.691 -0.1295 -0.2399 -0.2596
  847MOL0     C14224   1.443   2.125   9.571  0.0667 -0.4998 -0.2859
  847MOL0     C14225   1.535   2.249   9.585  0.3047  0.6353  0.1365
  847MOL0     C14226   1.686   2.219   9.573 -0.7010  0.8615 -0.1437
  847MOL0     N14227   1.758   2.345   9.568 -0.3994 -0.6525 -0.7744
  847MOL0     C14228   1.804   2.407   9.456  0.0945 -0.0603 -0.2416
  847MOL0     C14229   1.875   2.519   9.481 -0.6638 -0.2895  0.3402
  847MOL0     C14230   1.942   2.609   9.380  0.6660  0.4815  0.4423
  847MOL0     C14231   2.092   2.630   9.389  0.6080 -1.0990  0.4606
  847MOL0     C14232   2.146   2.702   9.511 -0.7885 -0.5568  0.7323
  847MOL0     C14233   2.289   2.765   9.502 -0.1430 -0.3371  1.1952
  847MOL0     O14234   2.383   2.679   9.436  0.4674  0.4022 -0.5289
  847MOL0     C14235   2.510   2.714   9.410  0.3797 -0.7099 -0.1688
  847MOL0     C14236   2.600   2.611   9.368  0.2488 -0.8502 -0.3364
  847MOL0     C14237   2.734   2.641   9.346 -0.1783  0.1226 -0.3094
  847MOL0     C14238   2.780   2.772   9.346  0.6004 -0.1951 -0.1006
  847MOL0     C14239   2.922   2.804   9.327 -0.4543 -1.1383 -0.4452
  847MOL0     O14240   2.993   2.727   9.242 -0.8455 -0.4471 -0.0738
  847MOL0     C14241   3.115   2.759   9.176 -0.6263 -0.4412  0.1961
  847MOL0     C14242   3.210   2.851   9.213  0.5901  0.2203  0.0614
  847MOL0     C14243   3.321   2.868   9.139 -0.0432 -0.6124 -0.0705
  847MOL0     C14244   3.346   2.800   9.015 -0.4664 -0.3952  0.2744
  847MOL0     O14245   3.452   2.811   8.927 -0.3656  0.3661  0.1203
  847MOL0     C14246   3.537   2.924   8.930 -0.4836  0.1340 -0.4456
  847MOL0     C14247   3.465   3.045   8.881  0.3858 -0.5943  0.0002
  847MOL0     C14248   3.534   3.182   8.890  0.1917 -0.5408 -0.3130
  847MOL0     C14249   3.442   3.299   8.862  0.2061  0.5628 -0.3564
  847MOL0     C14250   3.506   3.446   8.864 -0.2081 -0.3962  0.3830
  847MOL0     C14251   3.513   3.510   8.999 -1.3272  0.1469  0.9911
  847MOL0     C14252   3.590   3.643   9.003  0.3399 -0.4983  0.2161
  847MOL0     C14253   3.496   3.756   8.942 -0.4873 -0.2813  0.2905
  847MOL0    Cl14254   3.347   3.767   9.021 -0.5233  0.5924  0.0909
  847MOL0     C14255   3.245   2.711   8.984  0.0445 -0.2033  0.1179
  847MOL0     C14256   3.131   2.685   9.058  1.0157 -0.0520 -0.0343
  847MOL0     O14257   2.962   2.918   9.370 -0.0502 -0.2320 -0.2230
  847MOL0     C14258   2.691   2.877   9.371 -0.1734 -0.1682  1.3647
  847MOL0     C14259   2.560   2.849   9.403  0.5364  0.5393  0.4026
  847MOL0     N14260   1.863   2.530   9.616  0.2907 -0.6646  0.0763
  847MOL0     N14261   1.801   2.421   9.672  0.9376  0.4924  0.3789
  847MOL0     C14262   0.938   1.943   9.500 -0.4154  0.0757 -0.3317
  847MOL0     C14263   0.818   1.985   9.546 -0.2669  0.6240  0.4783
  847MOL0     C14264   0.333   1.953   9.620  0.1865  0.1618  0.1766
  847MOL0     C14265   0.323   2.093   9.567  0.7532 -0.3707 -0.0054
  847MOL0     C14266   0.206   2.163   9.574  0.2012 -0.2901  0.4149
  847MOL0     C14267   0.097   2.109   9.632 -0.1089 -1.1662  0.0280
  847MOL0     O14268  -0.026   2.179   9.637  0.0170  0.0306  0.2037
  847MOL0     C14269  -0.051   2.285   9.542  0.2651  0.1776  0.0065
  847MOL0     C14270  -0.210   2.285   9.541 -0.0275 -0.2161  1.1164
  847MOL0     C14271  -0.263   2.321   9.686 -0.6799  0.2397 -0.0054
  847MOL0     C14272  -0.404   2.359   9.678 -1.0104 -0.0837  0.3095
  847MOL0     C14273  -0.415   2.476   9.598  0.0535 -0.8022 -0.0181
  847MOL0     C14274  -0.420   2.573   9.528  0.2554  0.2476 -0.7393
  847MOL0     C14275   0.097   1.981   9.682 -0.4681  0.4694  0.0340
  847MOL0     C14276   0.214   1.899   9.683 -0.5424 -0.0276  0.0591
  847MOL0     C14277   0.188   1.761   9.744 -0.2622 -0.4678 -0.6822
  847MOL0     H14278   0.670   1.676   9.543 -0.1039 -0.0778 -0.6439
  847MOL0     H14279   0.875   1.614   9.467  0.3260  0.3978 -1.8164
  847MOL0     H14280   1.100   1.718   9.638  0.3680 -1.2008 -0.0754
  847MOL0     H14281   1.114   1.573   9.542  1.4323 -0.9298  2.3270
  847MOL0     H14282   1.337   1.632   9.466 -0.3344  2.7119 -1.2324
  847MOL0     H14283   1.343   1.627   9.632 -0.5591 -1.0194 -0.3243
  847MOL0     H14284   1.349   1.879   9.457  0.4716  0.8756  0.6695
  847MOL0     H14285   1.474   1.812   9.550 -0.2677 -0.4332 -2.3016
  847MOL0     H14286   1.218   1.961   9.646 -1.5844 -1.4817  1.5779
  847MOL0     H14287   1.310   1.865   9.760  1.3147  2.9562  2.0205
  847MOL0     H14288   1.385   2.094   9.776  2.8032  0.5628  0.5433
  847MOL0     H14289   1.520   1.999   9.719  0.7870  0.1150 -2.8156
  847MOL0     H14290   1.492   2.063   9.495  0.7489 -0.7356  0.3362
  847MOL0     H14291   1.344   2.157   9.537  1.1984  3.8738 -0.0626
  847MOL0     H14292   1.515   2.306   9.675  2.9322  1.7357  0.1097
  847MOL0     H14293   1.503   2.306   9.497 -1.6603  1.2033  1.1684
  847MOL0     H14294   1.719   2.158   9.658 -3.0911 -1.8265 -0.9778
  847MOL0     H14295   1.705   2.162   9.481 -2.6585 -0.0352 -0.0403
  847MOL0     H14296   1.786   2.384   9.352 -0.4613 -1.4307  0.1239
  847MOL0     H14297   1.917   2.565   9.284 -2.0813  3.6977 -0.5160
  847MOL0     H14298   1.890   2.705   9.374 -0.9481 -0.2935  1.3547
  847MOL0     H14299   2.137   2.531   9.382  1.9709 -0.3823 -2.8343
  847MOL0     H14300   2.120   2.686   9.299 -2.1213  0.2536  0.3474
  847MOL0     H14301   2.131   2.636   9.597 -1.2779 -0.2039  0.9244
  847MOL0     H14302   2.071   2.781   9.525 -3.5090 -3.1769  2.0798
  847MOL0     H14303   2.332   2.784   9.601  0.6172 -3.1692  1.4947
  847MOL0     H14304   2.278   2.856   9.442 -2.0039 -0.5986  1.0943
  847MOL0     H14305   2.570   2.507   9.364  0.2085 -0.8574  0.1090
  847MOL0     H14306   2.813   2.568   9.331  0.1355  0.1693  1.0391
  847MOL0     H14307   3.196   2.906   9.306 -0.2513  2.0922 -1.1218
  847MOL0     H14308   3.400   2.938   9.166 -0.8661  1.1977 -2.1351
  847MOL0     H14309   3.572   2.943   9.032  0.6427  0.5908 -0.8983
  847MOL0     H14310   3.631   2.901   8.880  0.3409 -3.2064  2.2585
  847MOL0     H14311   3.431   3.030   8.778  2.9233 -1.3273 -0.7925
  847MOL0     H14312   3.378   3.047   8.948  1.6694 -1.7720  1.7676
  847MOL0     H14313   3.565   3.195   8.995 -1.0313  0.7630 -0.0945
  847MOL0     H14314   3.628   3.195   8.835  0.1676 -0.5658 -0.3590
  847MOL0     H14315   3.363   3.294   8.938 -0.0684  2.7786 -0.4335
  847MOL0     H14316   3.398   3.288   8.763 -2.6061 -3.4244  1.0591
  847MOL0     H14317   3.438   3.513   8.811  0.6121  0.5603  0.4889
  847MOL0     H14318   3.604   3.447   8.815 -0.3368 -0.3021  0.1259
  847MOL0     H14319   3.419   3.516   9.056  0.5666 -0.6252  4.4974
  847MOL0     H14320   3.587   3.439   9.037 -1.0587 -1.4488 -2.2017
  847MOL0     H14321   3.684   3.645   8.948 -0.2834  0.1314 -0.8538
  847MOL0     H14322   3.615   3.673   9.106  2.6197  1.9786 -0.9319
  847MOL0     H14323   3.542   3.855   8.949  1.1104 -0.9783  0.3257
  847MOL0     H14324   3.471   3.737   8.837  2.4107  0.7918 -0.7050
  847MOL0     H14325   3.258   2.644   8.899 -1.2012 -0.0964 -0.1733
  847MOL0     H14326   3.062   2.607   9.027  2.1903 -1.0888 -0.1058
  847MOL0     H14327   2.730   2.978   9.358  1.2216 -0.9852 -1.9833
  847MOL0     H14328   2.506   2.938   9.434  1.4382  1.4412 -0.5454
  847MOL0     H14329   1.024   2.007   9.490  2.2314 -3.0886  0.4899
  847MOL0     H14330   0.812   2.092   9.566  1.9395  0.3090  3.5711
  847MOL0     H14331   0.401   2.142   9.511 -0.6509  1.7094 -0.2461
  847MOL0     H14332   0.200   2.268   9.546  0.3527  0.1523  1.9892
  847MOL0     H14333  -0.014   2.271   9.440 -0.5551 -0.2716 -0.2376
  847MOL0     H14334  -0.003   2.374   9.584 -0.0273  0.3595 -0.0425
  847MOL0     H14335  -0.248   2.185   9.517 -1.3370  0.8103 -1.5634
  847MOL0     H14336  -0.242   2.350   9.458  0.2653 -1.7127 -0.2160
  847MOL0     H14337  -0.205   2.408   9.721  2.1064 -0.4190 -2.5725
  847MOL0     H14338  -0.235   2.242   9.756  0.8996 -0.2132 -1.0948
  847MOL0     H14339  -0.466   2.283   9.630  1.0456 -2.1878  0.8288
  847MOL0     H14340  -0.449   2.387   9.774  1.3776 -0.1684  1.5202
  847MOL0     H14341  -0.420   2.671   9.485 -3.8545  1.1353  0.8015
  847MOL0     H14342   0.013   1.945   9.740 -0.7546 -2.7917 -2.1379
  847MOL0     H14343   0.086   1.756   9.783 -0.3929  2.4349 -0.4470
  847MOL0     H14344   0.201   1.689   9.663  0.4059 -0.5914 -0.4698
  847MOL0     H14345   0.249   1.728   9.829 -3.2253 -3.0221  0.6647
  848MOL0     O14346   7.170   8.926   8.119  0.4590  0.2122  0.2091
  848MOL0     C14347   7.060   8.981   8.096  0.6013  0.2788 -0.0590
  848MOL0     O14348   7.044   9.088   8.008 -0.0382  0.0236  0.7112
  848MOL0     C14349   7.166   9.143   7.975  0.0223 -0.6276  0.3904
  848MOL0     C14350   7.231   9.093   7.863  0.4978 -0.1981 -0.1739
  848MOL0     C14351   7.342   9.164   7.815  0.0652  0.1866 -0.5305
  848MOL0     C14352   7.402   9.269   7.892 -0.4644 -0.5350 -0.3303
  848MOL0     O14353   7.520   9.319   7.852 -0.4500  0.1808 -0.0533
  848MOL0     C14354   7.584   9.419   7.934 -0.4887 -0.4234 -0.2465
  848MOL0     C14355   7.725   9.434   7.886 -0.5156 -0.3038  0.1983
  848MOL0     C14356   7.736   9.521   7.757  0.4168  0.9139  0.0072
  848MOL0     C14357   7.824   9.472   7.646 -0.0816  0.8209 -0.7251
  848MOL0     C14358   7.755   9.372   7.562  1.1126  0.3125 -0.0123
  848MOL0     C14359   7.851   9.321   7.456  0.3713 -0.1854  1.5082
  848MOL0     C14360   7.790   9.202   7.372  0.9431 -0.3637 -0.2535
  848MOL0     C14361   7.890   9.169   7.266 -0.7284  0.2314 -0.8601
  848MOL0     N14362   8.017   9.105   7.319  0.1260  0.5263  0.4074
  848MOL0     C14363   8.030   8.973   7.328 -0.5509 -0.4336  0.5133
  848MOL0     C14364   8.155   8.943   7.358  0.4164 -0.6077 -0.3301
  848MOL0     C14365   8.207   8.808   7.377  0.2980  0.2098 -0.9184
  848MOL0     C14366   8.332   8.802   7.466  0.2874 -0.0442  0.0284
  848MOL0     C14367   8.393   8.655   7.487 -0.3064  0.1157  0.3100
  848MOL0     C14368   8.536   8.660   7.541 -0.1848 -0.3388  0.8163
  848MOL0     O14369   8.552   8.524   7.595  0.3052 -0.2900 -0.8294
  848MOL0     C14370   8.684   8.507   7.629  1.1701 -0.1859 -0.3981
  848MOL0     C14371   8.762   8.423   7.544  0.0983 -0.1682  0.4365
  848MOL0     C14372   8.899   8.403   7.561  0.0956  0.6114  0.1764
  848MOL0     C14373   8.966   8.486   7.654  0.0981 -0.1471  0.5808
  848MOL0     C14374   9.117   8.486   7.669  0.2050  0.1042  0.4582
  848MOL0     O14375   9.179   8.585   7.736  0.3574 -0.7399 -0.1011
  848MOL0     C14376   9.314   8.574   7.752 -0.2673  0.6138  1.0804
  848MOL0     C14377   9.400   8.618   7.652  0.2372 -0.3574  0.3494
  848MOL0     C14378   9.541   8.605   7.666 -0.2256 -0.4404  0.9009
  848MOL0     C14379   9.591   8.535   7.776 -0.6327  0.4903 -0.0160
  848MOL0     O14380   9.725   8.525   7.799 -0.2108 -0.8129  0.0658
  848MOL0     C14381   9.823   8.614   7.730 -0.0284  0.3628 -0.2006
  848MOL0     C14382   9.938   8.647   7.826 -0.5866 -0.8363 -1.0735
  848MOL0     C14383  10.041   8.701   7.730 -0.0483  0.1412 -0.6904
  848MOL0     C14384  10.175   8.748   7.801  0.3647 -0.1548 -0.9310
  848MOL0     C14385  10.272   8.814   7.703 -0.0344 -0.2524  0.2318
  848MOL0     C14386  10.397   8.883   7.772  0.2823  0.4324 -0.5427
  848MOL0     C14387  10.462   8.981   7.680  0.2458  0.0107  0.0577
  848MOL0     C14388  10.580   9.057   7.745 -0.1171  0.0070 -0.0785
  848MOL0    Cl14389  10.515   9.188   7.836  0.5457  0.0005  0.5952
  848MOL0     C14390   9.501   8.484   7.871  0.3196 -0.6502 -0.9097
  848MOL0     C14391   9.368   8.514   7.859  0.9991 -0.1583  0.6835
  848MOL0     O14392   9.170   8.388   7.630  0.3075  0.7170 -0.6195
  848MOL0     C14393   8.889   8.565   7.744  0.6782 -0.3797 -0.1869
  848MOL0     C14394   8.746   8.573   7.738  0.2506  0.0169  0.0793
  848MOL0     N14395   8.223   9.063   7.373 -0.0210 -0.7214  1.0409
  848MOL0     N14396   8.139   9.164   7.341 -0.0413  0.2646  0.4802
  848MOL0     C14397   7.329   9.326   7.997 -0.1377  0.1175  0.4078
  848MOL0     C14398   7.211   9.259   8.040  0.0537  0.0311  0.2783
  848MOL0     C14399   6.941   8.916   8.161  0.1058  0.2489  1.1897
  848MOL0     C14400   6.818   8.924   8.093  0.4208  1.2488 -0.2720
  848MOL0     C14401   6.703   8.889   8.165  0.3556 -0.3080  0.0540
  848MOL0     C14402   6.703   8.844   8.299  0.5985 -0.5426  0.3860
  848MOL0     O14403   6.589   8.815   8.374 -0.0384  0.8389  0.2888
  848MOL0     C14404   6.467   8.787   8.298  0.6685  0.7919 -0.9028
  848MOL0     C14405   6.341   8.786   8.388  0.1117  0.4214 -0.6314
  848MOL0     C14406   6.343   8.691   8.511  0.0275 -0.2567  0.3290
  848MOL0     C14407   6.199   8.660   8.570 -0.3428 -0.8966 -0.4274
  848MOL0     C14408   6.128   8.782   8.607  0.5781 -0.2401  0.6474
  848MOL0     C14409   6.075   8.885   8.638 -0.5765  0.1323  0.6809
  848MOL0     C14410   6.830   8.815   8.352  0.7158  0.2392  0.1535
  848MOL0     C14411   6.951   8.844   8.284 -0.0197 -0.4735 -0.3808
  848MOL0     C14412   7.081   8.823   8.362  0.4343  0.0075 -0.1739
  848MOL0     H14413   7.192   9.003   7.816 -1.6522  0.1591  0.8027
  848MOL0     H14414   7.387   9.129   7.723 -1.0143 -1.5888 -0.4318
  848MOL0     H14415   7.524   9.510   7.919  1.3959  0.8679 -0.2769
  848MOL0     H14416   7.580   9.386   8.038 -1.5415  2.0392  0.5920
  848MOL0     H14417   7.761   9.331   7.877 -3.2494 -1.2815 -0.3750
  848MOL0     H14418   7.789   9.478   7.964  2.3364 -0.5884 -1.8144
  848MOL0     H14419   7.775   9.619   7.788  1.1928  0.4892  0.4223
  848MOL0     H14420   7.634   9.540   7.725  0.2725  1.0783  0.5553
  848MOL0     H14421   7.862   9.555   7.586 -0.5455 -0.5293 -3.0159
  848MOL0     H14422   7.909   9.422   7.693  2.0753  1.0957 -4.0001
  848MOL0     H14423   7.716   9.290   7.623  2.4148  0.6570  1.3592
  848MOL0     H14424   7.671   9.416   7.508  1.8498  0.8506 -0.7324
  848MOL0     H14425   7.892   9.401   7.394  0.8339 -2.7231 -1.6972
  848MOL0     H14426   7.938   9.280   7.509  3.0249  0.4667 -1.9660
  848MOL0     H14427   7.695   9.236   7.329  1.3127  4.3321  1.9441
  848MOL0     H14428   7.771   9.124   7.445  0.0988 -0.3767 -0.4796
  848MOL0     H14429   7.846   9.099   7.194 -0.8206  1.0882 -1.6611
  848MOL0     H14430   7.914   9.255   7.202  1.2299 -0.8683 -1.7264
  848MOL0     H14431   7.951   8.899   7.333 -0.1921 -0.8107  4.7941
  848MOL0     H14432   8.135   8.755   7.440  1.7313  3.2904  3.8485
  848MOL0     H14433   8.235   8.748   7.290  1.1725 -4.1891  2.0509
  848MOL0     H14434   8.408   8.853   7.407  2.3402  0.1592  2.6682
  848MOL0     H14435   8.318   8.856   7.560 -1.0068  0.1561 -0.2597
  848MOL0     H14436   8.407   8.611   7.388  1.2301  1.0387  0.0851
  848MOL0     H14437   8.319   8.590   7.536  0.3144 -0.4015  0.5825
  848MOL0     H14438   8.555   8.732   7.622 -0.1505  0.6559 -0.0543
  848MOL0     H14439   8.616   8.676   7.468  1.9991  0.5138  3.2125
  848MOL0     H14440   8.706   8.379   7.461  2.0359 -0.2552 -0.8928
  848MOL0     H14441   8.964   8.341   7.500 -0.9204 -0.9547  0.6264
  848MOL0     H14442   9.356   8.656   7.560 -0.7238 -1.0717  0.5016
  848MOL0     H14443   9.612   8.648   7.596 -1.9053  2.1535  0.6406
  848MOL0     H14444   9.870   8.566   7.643  4.4735  0.4126  1.9384
  848MOL0     H14445   9.780   8.707   7.690  2.4844  0.9419 -1.7454
  848MOL0     H14446   9.901   8.723   7.895  0.5948 -0.3101 -0.9827
  848MOL0     H14447   9.973   8.559   7.881  1.7092 -0.6368 -2.0894
  848MOL0     H14448  10.068   8.624   7.658  2.9733  0.6229 -0.1845
  848MOL0     H14449   9.997   8.787   7.678  0.7403  0.0553 -1.5264
  848MOL0     H14450  10.209   8.660   7.857 -1.0094  0.9584  1.8068
  848MOL0     H14451  10.148   8.827   7.871  1.3688  0.7251 -1.5157
  848MOL0     H14452  10.215   8.893   7.652 -0.3252 -1.0433 -0.6986
  848MOL0     H14453  10.305   8.736   7.634 -0.6275 -1.6561  1.4707
  848MOL0     H14454  10.355   8.936   7.858  2.4765 -1.2484  1.7380
  848MOL0     H14455  10.453   8.804   7.823 -3.9758 -1.9567  0.9508
  848MOL0     H14456  10.385   9.044   7.635 -0.0014  0.1178  0.6317
  848MOL0     H14457  10.502   8.928   7.592 -4.1629 -0.3672 -1.9754
  848MOL0     H14458  10.625   8.983   7.813  1.8129  1.3310  0.1613
  848MOL0     H14459  10.649   9.093   7.668  2.2755 -0.5202  1.6892
  848MOL0     H14460   9.542   8.447   7.965  0.9073  0.3874 -0.7341
  848MOL0     H14461   9.296   8.476   7.932 -0.7342  1.0025 -0.3406
  848MOL0     H14462   8.950   8.615   7.818  0.9669 -0.7354 -0.1854
  848MOL0     H14463   8.682   8.633   7.803  0.5315 -1.5904  1.9321
  848MOL0     H14464   7.359   9.416   8.050  0.0192 -0.4441  1.2958
  848MOL0     H14465   7.135   9.294   8.109 -1.3808 -1.8418 -0.2678
  848MOL0     H14466   6.804   8.953   7.990 -0.6930 -1.8852 -1.1154
  848MOL0     H14467   6.610   8.903   8.111 -1.3446 -3.1861  1.9715
  848MOL0     H14468   6.474   8.693   8.244 -1.4096  1.6388 -2.7690
  848MOL0     H14469   6.458   8.866   8.223  1.8682 -0.3323 -2.3010
  848MOL0     H14470   6.256   8.756   8.327 -1.6875  0.4328  1.7115
  848MOL0     H14471   6.324   8.888   8.424  2.3715  1.2776 -1.8058
  848MOL0     H14472   6.412   8.740   8.581  0.3848  2.0425 -1.4976
  848MOL0     H14473   6.389   8.597   8.481  1.4234  0.0925  1.2641
  848MOL0     H14474   6.139   8.628   8.484 -0.7475 -0.7180 -0.2120
  848MOL0     H14475   6.212   8.589   8.653  2.1378  0.0507  0.0662
  848MOL0     H14476   6.034   8.982   8.656  1.7587  0.9735  1.9327
  848MOL0     H14477   6.839   8.798   8.459  2.9017  0.2028  0.0046
  848MOL0     H14478   7.146   8.747   8.320  1.5359  0.7941  0.0547
  848MOL0     H14479   7.135   8.918   8.363  1.3818 -0.4932  2.3759
  848MOL0     H14480   7.067   8.791   8.466 -1.6551 -0.3312 -0.5180
  849MOL0     O14481   0.344   1.856   9.132  0.0764  0.1656 -0.9781
  849MOL0     C14482   0.264   1.932   9.187 -0.3596 -0.4096  0.3103
  849MOL0     O14483   0.294   2.069   9.215 -0.4697 -0.0854 -0.1095
  849MOL0     C14484   0.414   2.118   9.168  0.6168 -0.9044  0.2997
  849MOL0     C14485   0.532   2.072   9.227 -0.9123  0.3335  0.1265
  849MOL0     C14486   0.660   2.122   9.184  0.4355  0.3137 -0.1718
  849MOL0     C14487   0.660   2.222   9.089 -0.6131 -0.4687 -0.5083
  849MOL0     O14488   0.773   2.276   9.033 -0.4822  0.2704  0.0158
  849MOL0     C14489   0.898   2.243   9.094  0.0908 -0.6318 -0.4139
  849MOL0     C14490   0.999   2.335   9.020  0.0670 -0.8233 -0.5949
  849MOL0     C14491   1.133   2.252   9.009 -0.7848  0.4336 -0.0993
  849MOL0     C14492   1.235   2.331   8.914 -0.1988 -0.0644 -0.2582
  849MOL0     C14493   1.374   2.285   8.934 -0.6623  0.4188  0.0292
  849MOL0     C14494   1.397   2.141   8.886  0.4476 -0.1886  0.6850
  849MOL0     C14495   1.547   2.123   8.848  0.1800  0.5489  0.1056
  849MOL0     C14496   1.577   1.978   8.823 -0.0263  0.4911 -0.2013
  849MOL0     N14497   1.722   1.952   8.784  0.6045  0.0595  0.1069
  849MOL0     C14498   1.834   2.021   8.837  0.7348  0.2189  0.4396
  849MOL0     C14499   1.934   1.980   8.758 -0.5707  0.9507 -0.3081
  849MOL0     C14500   2.081   2.014   8.772  0.1317  1.0474  0.0626
  849MOL0     C14501   2.131   2.108   8.657 -0.2069 -0.3105  1.7642
  849MOL0     C14502   2.283   2.136   8.659  0.1234  0.1370  0.1265
  849MOL0     C14503   2.339   2.211   8.536 -0.7119  0.1281 -0.4372
  849MOL0     O14504   2.396   2.338   8.575 -0.0521 -1.0826 -0.2986
  849MOL0     C14505   2.524   2.347   8.618  1.4449  0.3478 -0.3045
  849MOL0     C14506   2.602   2.243   8.669 -0.2394 -0.0761  0.0416
  849MOL0     C14507   2.726   2.261   8.724 -0.0434  0.3245  0.5868
  849MOL0     C14508   2.784   2.391   8.720 -0.5472  0.0280  0.5871
  849MOL0     C14509   2.920   2.417   8.759  0.2455  0.7900 -0.1719
  849MOL0     O14510   3.002   2.309   8.758 -0.0934  0.2070  0.9081
  849MOL0     C14511   3.129   2.313   8.804 -0.5601 -0.2596  0.4596
  849MOL0     C14512   3.232   2.280   8.714  0.3924  0.3500 -0.2708
  849MOL0     C14513   3.367   2.281   8.753  0.0711  0.1048 -0.6869
  849MOL0     C14514   3.394   2.317   8.890  0.1206 -0.2046  0.1674
  849MOL0     O14515   3.522   2.314   8.953  0.3190 -0.4271  0.4017
  849MOL0     C14516   3.619   2.233   8.897 -0.6428 -0.4270 -0.2724
  849MOL0     C14517   3.708   2.315   8.799  1.2055  0.2312  0.9070
  849MOL0     C14518   3.779   2.425   8.865  0.0795 -0.9945 -0.1947
  849MOL0     C14519   3.864   2.516   8.758  0.1280 -0.4289  0.0023
  849MOL0     C14520   3.905   2.643   8.830  0.0882  0.0845  0.8187
  849MOL0     C14521   4.037   2.705   8.773 -0.5956  0.0156  0.7838
  849MOL0     C14522   4.071   2.827   8.865  1.1111 -0.3423 -0.0661
  849MOL0     C14523   4.219   2.868   8.868  0.7069  0.6350 -0.2334
  849MOL0    Cl14524   4.237   3.025   8.955  0.3581 -0.1064 -0.1779
  849MOL0     C14525   3.293   2.356   8.969 -0.2035  0.4626  0.2090
  849MOL0     C14526   3.156   2.349   8.934  0.9264  1.2233 -0.3750
  849MOL0     O14527   2.950   2.526   8.813 -0.0264  0.3357 -0.2972
  849MOL0     C14528   2.702   2.503   8.674 -1.3965  0.2213 -0.3202
  849MOL0     C14529   2.579   2.473   8.624 -0.0886  0.5019  0.4667
  849MOL0     N14530   1.889   1.894   8.660 -0.9976 -0.3682 -0.5857
  849MOL0     N14531   1.763   1.869   8.684  0.2777 -0.1270 -0.2969
  849MOL0     C14532   0.536   2.275   9.041 -0.8880  0.7400 -0.5335
  849MOL0     C14533   0.416   2.224   9.080 -0.6502  0.5139  1.1818
  849MOL0     C14534   0.131   1.876   9.222  0.3777 -0.7245  0.2596
  849MOL0     C14535   0.043   1.964   9.281  0.1697  0.0487 -0.1043
  849MOL0     C14536  -0.083   1.923   9.336  0.0978  0.2651 -0.4322
  849MOL0     C14537  -0.132   1.796   9.314  0.1161 -0.6135  0.4619
  849MOL0     O14538  -0.242   1.741   9.372 -0.1423  0.7679  0.6135
  849MOL0     C14539  -0.325   1.813   9.464  0.3097  0.1396 -0.6224
  849MOL0     C14540  -0.470   1.822   9.421 -0.3929 -0.1117 -0.1386
  849MOL0     C14541  -0.560   1.909   9.514  0.3114  0.9449 -0.2546
  849MOL0     C14542  -0.693   1.934   9.449 -0.8553  0.5624 -0.2234
  849MOL0     C14543  -0.784   1.983   9.546 -0.8284 -0.7593  0.4403
  849MOL0     C14544  -0.848   2.020   9.637 -0.0553 -0.3212 -0.0078
  849MOL0     C14545  -0.050   1.712   9.233  0.0901  0.1718 -1.0195
  849MOL0     C14546   0.080   1.742   9.197  0.4878 -0.0747  0.4727
  849MOL0     C14547   0.162   1.635   9.125  0.0699 -0.3357  0.4284
  849MOL0     H14548   0.520   2.012   9.317  0.9272  0.9398  0.8380
  849MOL0     H14549   0.747   2.079   9.232 -1.4950 -1.9652  1.5210
  849MOL0     H14550   0.901   2.272   9.200 -1.7870 -1.3395 -0.1165
  849MOL0     H14551   0.920   2.136   9.090  0.0650 -0.7501  1.5678
  849MOL0     H14552   1.021   2.427   9.076  1.8878 -1.6169  0.0658
  849MOL0     H14553   0.962   2.359   8.920  0.3691  0.4001 -0.4334
  849MOL0     H14554   1.117   2.160   8.954 -2.4754  1.0338 -0.6783
  849MOL0     H14555   1.179   2.229   9.106  2.6672  1.4307 -1.3424
  849MOL0     H14556   1.212   2.319   8.808  0.9513 -1.0183 -0.4230
  849MOL0     H14557   1.232   2.437   8.939 -0.6763 -0.4620  1.5198
  849MOL0     H14558   1.439   2.354   8.881  0.5828  0.8761  2.0494
  849MOL0     H14559   1.399   2.290   9.041 -1.2695  1.4205  0.1326
  849MOL0     H14560   1.356   2.084   8.970 -5.0351  0.7879 -0.9312
  849MOL0     H14561   1.339   2.120   8.795  2.6616 -1.1057 -0.6027
  849MOL0     H14562   1.606   2.156   8.933  0.5216 -0.4390  0.2646
  849MOL0     H14563   1.577   2.183   8.762 -0.1559 -1.6674 -1.6569
  849MOL0     H14564   1.555   1.915   8.910  0.4541  0.0700 -0.3822
  849MOL0     H14565   1.513   1.945   8.740 -0.3378  0.8721 -0.1129
  849MOL0     H14566   1.824   2.097   8.914 -1.2318  1.3118 -0.7989
  849MOL0     H14567   2.097   2.067   8.867  0.4256 -0.7607  1.0585
  849MOL0     H14568   2.142   1.924   8.779  1.6475  2.0843  1.0005
  849MOL0     H14569   2.106   2.060   8.562 -1.2613  3.9704 -0.3559
  849MOL0     H14570   2.084   2.204   8.636 -0.2117 -0.1880  2.3236
  849MOL0     H14571   2.331   2.039   8.644 -0.5688 -0.5591  2.0216
  849MOL0     H14572   2.308   2.163   8.762  1.2999 -3.1744  0.8398
  849MOL0     H14573   2.260   2.239   8.466 -1.9728  4.0520  2.1272
  849MOL0     H14574   2.407   2.151   8.475 -0.2864  0.9194 -0.7611
  849MOL0     H14575   2.560   2.143   8.676 -0.6615  0.2229  2.4101
  849MOL0     H14576   2.788   2.177   8.755  0.5386 -0.3513 -2.1626
  849MOL0     H14577   3.198   2.255   8.614  1.1773 -1.1018 -0.2058
  849MOL0     H14578   3.432   2.251   8.672 -1.7909  0.5400 -2.4367
  849MOL0     H14579   3.682   2.193   8.978 -1.0356  0.8858  0.7196
  849MOL0     H14580   3.570   2.152   8.843 -3.7164  3.1252 -3.3672
  849MOL0     H14581   3.780   2.240   8.766  2.4922  1.9680 -0.4226
  849MOL0     H14582   3.660   2.348   8.707 -1.9035 -0.0449  2.3153
  849MOL0     H14583   3.700   2.487   8.907  0.2645 -1.9623  1.7214
  849MOL0     H14584   3.843   2.379   8.941  0.7404  0.8920  0.4294
  849MOL0     H14585   3.802   2.548   8.673  1.8318 -2.6525 -2.2386
  849MOL0     H14586   3.947   2.465   8.709 -0.1371 -0.8109 -0.0553
  849MOL0     H14587   3.915   2.632   8.938 -0.2843  2.0298  1.0830
  849MOL0     H14588   3.815   2.704   8.821  0.7874  0.9471 -0.8384
  849MOL0     H14589   4.115   2.629   8.782  0.1015  0.7589  1.2152
  849MOL0     H14590   4.004   2.739   8.675 -0.7874 -2.3021  0.0054
  849MOL0     H14591   4.038   2.797   8.965 -1.8997  0.0801 -0.8176
  849MOL0     H14592   4.005   2.913   8.848 -0.5035 -1.0209  2.2614
  849MOL0     H14593   4.280   2.785   8.905  1.5512 -0.4383 -3.7034
  849MOL0     H14594   4.259   2.882   8.767 -1.6695 -0.1286 -1.3621
  849MOL0     H14595   3.315   2.379   9.073  0.3692 -1.3814  0.5352
  849MOL0     H14596   3.083   2.389   9.003 -0.9792 -2.0395 -0.2835
  849MOL0     H14597   2.741   2.603   8.660 -1.4159  0.9262  3.5710
  849MOL0     H14598   2.523   2.554   8.579  1.4674  0.2879 -2.0603
  849MOL0     H14599   0.537   2.361   8.975  0.5500  2.4804  1.6043
  849MOL0     H14600   0.326   2.279   9.055 -2.2886 -1.1442  3.0415
  849MOL0     H14601   0.073   2.065   9.307  1.3899 -0.7806  1.9992
  849MOL0     H14602  -0.132   2.001   9.393 -2.4583 -1.8408  0.4596
  849MOL0     H14603  -0.293   1.915   9.487  3.3479 -0.7139 -0.5724
  849MOL0     H14604  -0.326   1.751   9.555  3.0353 -1.3808 -1.5023
  849MOL0     H14605  -0.509   1.720   9.408  1.4113 -0.7286 -0.9834
  849MOL0     H14606  -0.466   1.867   9.321  0.9314 -0.9535 -0.4742
  849MOL0     H14607  -0.517   2.009   9.521 -1.5211  1.6772  3.1088
  849MOL0     H14608  -0.565   1.861   9.613 -0.6656 -2.7357 -1.9172
  849MOL0     H14609  -0.668   2.003   9.368  1.9928  0.1906  0.2385
  849MOL0     H14610  -0.720   1.838   9.405  0.3668  0.2103 -0.2423
  849MOL0     H14611  -0.881   2.053   9.734  1.2165 -0.5797  0.5411
  849MOL0     H14612  -0.083   1.609   9.225 -1.0874  0.5325 -0.9179
  849MOL0     H14613   0.247   1.606   9.187  0.1258  1.7292  1.3824
  849MOL0     H14614   0.102   1.545   9.107 -1.8284  0.3820  2.7489
  849MOL0     H14615   0.193   1.685   9.033 -0.0500  0.8759  1.0389
  850MOL0     O14616   6.649   4.613   0.729  0.0501 -0.4521 -0.4935
  850MOL0     C14617   6.633   4.496   0.712 -1.3097 -0.3555 -0.3268
  850MOL0     O14618   6.726   4.397   0.749  0.0632 -0.5011 -1.0040
  850MOL0     C14619   6.838   4.422   0.826 -0.5744  0.4271 -0.0545
  850MOL0     C14620   6.861   4.344   0.941  1.0523  0.3882 -0.1452
  850MOL0     C14621   6.979   4.363   1.019 -0.0003 -0.0247 -0.4302
  850MOL0     C14622   7.083   4.452   0.977  0.1561 -0.0915  1.0044
  850MOL0     O14623   7.197   4.458   1.053 -0.8434 -0.7451 -0.6572
  850MOL0     C14624   7.310   4.516   0.979  0.5547 -0.8295 -0.0146
  850MOL0     C14625   7.444   4.510   1.049 -0.2008  0.9387 -0.2008
  850MOL0     C14626   7.447   4.607   1.170  0.0156  0.2656  0.2115
  850MOL0     C14627   7.564   4.567   1.260 -1.0069  0.0642  0.3609
  850MOL0     C14628   7.705   4.539   1.189  0.0159 -0.6643 -0.4103
  850MOL0     C14629   7.817   4.551   1.296 -1.4565 -0.6283 -0.1564
  850MOL0     C14630   7.942   4.484   1.247 -0.1578 -0.5279 -0.5687
  850MOL0     C14631   8.050   4.486   1.363 -0.0203 -1.0766  0.8829
  850MOL0     N14632   8.192   4.489   1.325  0.9476  0.5571  0.1540
  850MOL0     C14633   8.277   4.386   1.284 -0.3392 -0.0528  1.0651
  850MOL0     C14634   8.405   4.433   1.304 -1.3571 -0.4053  0.1500
  850MOL0     C14635   8.531   4.365   1.277  0.5416  0.0969  0.3911
  850MOL0     C14636   8.600   4.417   1.142 -0.0223 -0.2082 -1.1421
  850MOL0     C14637   8.736   4.353   1.114  0.3556 -0.3563 -0.1703
  850MOL0     C14638   8.806   4.408   0.991 -0.1215 -0.1862  0.6722
  850MOL0     O14639   8.903   4.313   0.951  0.2405 -0.6293 -0.6469
  850MOL0     C14640   9.029   4.314   1.010 -0.2861  0.3771  0.1621
  850MOL0     C14641   9.084   4.396   1.107  0.5333 -0.2587 -0.2700
  850MOL0     C14642   9.212   4.382   1.157  0.0282 -0.1325  1.2722
  850MOL0     C14643   9.288   4.271   1.124  0.3759 -0.1793  0.2133
  850MOL0     C14644   9.425   4.255   1.171 -0.6164 -0.2783  0.4911
  850MOL0     O14645   9.487   4.355   1.247  0.1628 -0.7390 -0.2068
  850MOL0     C14646   9.600   4.334   1.321 -1.1918 -0.3990 -0.8726
  850MOL0     C14647   9.605   4.233   1.411 -0.6494 -0.1044  0.4300
  850MOL0     C14648   9.730   4.201   1.477  0.1342 -0.1501  0.1863
  850MOL0     C14649   9.841   4.280   1.451 -0.1011 -0.5084 -1.1100
  850MOL0     O14650   9.948   4.244   1.532 -0.0295  0.5445 -0.0725
  850MOL0     C14651  10.074   4.311   1.508  0.4146  1.0369  0.0827
  850MOL0     C14652  10.167   4.255   1.618 -0.1190 -0.0693  1.9039
  850MOL0     C14653  10.193   4.107   1.601 -0.1707  0.3440 -0.8237
  850MOL0     C14654  10.282   4.064   1.715 -0.0576  1.0338  0.4993
  850MOL0     C14655  10.284   3.915   1.733 -0.3831 -0.2736  0.0658
  850MOL0     C14656  10.290   3.832   1.606 -0.1224 -0.1301  0.5510
  850MOL0     C14657  10.324   3.689   1.636 -0.6722  0.3105 -0.3013
  850MOL0     C14658  10.466   3.672   1.696 -0.0669  0.6393 -0.2216
  850MOL0    Cl14659  10.585   3.778   1.611  0.2493 -0.0218 -0.3680
  850MOL0     C14660   9.834   4.388   1.367 -0.0806 -0.1983 -0.1610
  850MOL0     C14661   9.717   4.410   1.291 -0.1407  0.4437 -0.2378
  850MOL0     O14662   9.485   4.146   1.145 -0.2029  0.4741 -0.1549
  850MOL0     C14663   9.234   4.180   1.038  0.2993 -0.1305 -0.0526
  850MOL0     C14664   9.102   4.197   0.980 -0.1453  0.0228 -0.0567
  850MOL0     N14665   8.398   4.565   1.351 -0.8188 -0.1407 -0.0630
  850MOL0     N14666   8.272   4.595   1.364 -0.5026 -0.0756 -0.1575
  850MOL0     C14667   7.058   4.516   0.856 -0.2636 -0.5997  0.6029
  850MOL0     C14668   6.938   4.508   0.781  0.4938  0.1891  0.5831
  850MOL0     C14669   6.510   4.450   0.653 -0.3411 -0.8243  0.1370
  850MOL0     C14670   6.518   4.325   0.581  0.3442 -0.0778 -0.0126
  850MOL0     C14671   6.409   4.279   0.508  0.5310 -0.9522  0.0626
  850MOL0     C14672   6.293   4.360   0.499 -0.4079  0.8901 -0.8912
  850MOL0     O14673   6.193   4.306   0.422 -0.1972 -0.5422 -0.0639
  850MOL0     C14674   6.060   4.343   0.463 -0.5697  0.1154  0.5056
  850MOL0     C14675   5.971   4.231   0.421 -0.3506  0.4604 -0.5641
  850MOL0     C14676   6.008   4.092   0.479 -0.2992  0.7784 -0.5278
  850MOL0     C14677   6.098   4.004   0.391 -0.2085 -0.3496 -0.0860
  850MOL0     C14678   6.044   3.986   0.253  0.4281  0.1809 -0.1556
  850MOL0     C14679   5.999   3.986   0.144 -1.3924 -0.0127  0.5911
  850MOL0     C14680   6.289   4.487   0.559 -0.0418  0.3646  0.1586
  850MOL0     C14681   6.393   4.533   0.646  0.8840  0.4844 -0.0864
  850MOL0     C14682   6.367   4.666   0.715 -0.4024 -1.0930 -0.1015
  850MOL0     H14683   6.803   4.256   0.969  0.0439  1.0949  0.0727
  850MOL0     H14684   7.008   4.303   1.105  1.6303 -1.1780 -1.7277
  850MOL0     H14685   7.317   4.454   0.889  0.2077 -0.4784 -0.2846
  850MOL0     H14686   7.290   4.622   0.961  2.3921 -0.3846  0.3542
  850MOL0     H14687   7.518   4.545   0.976 -1.1484 -1.8724 -2.7061
  850MOL0     H14688   7.467   4.407   1.077 -1.3940  0.7216  0.0056
  850MOL0     H14689   7.354   4.606   1.227  0.8062  1.8026  1.6100
  850MOL0     H14690   7.454   4.711   1.137 -0.5522 -0.3655 -2.1269
  850MOL0     H14691   7.575   4.648   1.333 -2.7452  1.8058 -1.2259
  850MOL0     H14692   7.536   4.473   1.310 -5.0998 -0.3441 -2.2748
  850MOL0     H14693   7.713   4.444   1.136  0.1707 -1.4152  0.9215
  850MOL0     H14694   7.731   4.614   1.113  1.2608 -2.1104 -1.4870
  850MOL0     H14695   7.827   4.656   1.324  1.6467 -0.4451 -1.5055
  850MOL0     H14696   7.783   4.497   1.385 -1.7866  1.6279  1.1572
  850MOL0     H14697   7.979   4.532   1.157  0.2325  0.7492  0.2456
  850MOL0     H14698   7.913   4.381   1.222 -1.7252 -0.6692  1.5417
  850MOL0     H14699   8.041   4.576   1.424  0.3273  2.2038 -3.4758
  850MOL0     H14700   8.036   4.404   1.435 -3.5591  1.0094  2.8492
  850MOL0     H14701   8.255   4.286   1.247  0.3070  0.1704  0.0232
  850MOL0     H14702   8.599   4.387   1.360 -1.2295  0.7499  1.7164
  850MOL0     H14703   8.507   4.258   1.278 -1.0591  0.3948 -1.0876
  850MOL0     H14704   8.545   4.390   1.051 -0.7193 -0.0861 -0.7691
  850MOL0     H14705   8.612   4.525   1.155  0.9671 -0.4166 -0.1927
  850MOL0     H14706   8.730   4.243   1.109  0.8670 -0.3426 -1.3272
  850MOL0     H14707   8.802   4.370   1.199  0.4617  0.4763 -0.4150
  850MOL0     H14708   8.844   4.510   1.004 -0.6352  0.5048 -2.3635
  850MOL0     H14709   8.725   4.409   0.917 -1.2176 -0.3635  1.8451
  850MOL0     H14710   9.025   4.479   1.143 -0.8952 -0.9811 -0.8464
  850MOL0     H14711   9.235   4.460   1.230 -0.6373  1.2178  0.0979
  850MOL0     H14712   9.513   4.175   1.419 -0.8135  0.3521  2.3078
  850MOL0     H14713   9.735   4.121   1.550 -1.6000 -0.9213 -0.4949
  850MOL0     H14714  10.110   4.269   1.413  0.4210  0.6799  0.2421
  850MOL0     H14715  10.062   4.419   1.513 -0.7639  0.9710 -0.6830
  850MOL0     H14716  10.256   4.316   1.601 -0.5337  1.9756  5.8815
  850MOL0     H14717  10.132   4.280   1.718  1.3046  0.8254  2.2094
  850MOL0     H14718  10.101   4.047   1.599  0.3593 -0.6462  1.5921
  850MOL0     H14719  10.252   4.077   1.513 -0.7413 -0.6702 -0.8763
  850MOL0     H14720  10.266   4.109   1.813 -1.1109  0.0688  0.7878
  850MOL0     H14721  10.381   4.099   1.684  0.1504 -1.5372 -2.3036
  850MOL0     H14722  10.198   3.878   1.790 -0.3989 -1.2121 -0.5497
  850MOL0     H14723  10.369   3.891   1.797  0.3410  2.2785  0.1712
  850MOL0     H14724  10.192   3.831   1.556  0.7787  0.7784 -1.3507
  850MOL0     H14725  10.361   3.868   1.531 -0.0133 -2.4666 -0.5820
  850MOL0     H14726  10.329   3.635   1.541 -1.4459 -1.4403  0.6156
  850MOL0     H14727  10.247   3.644   1.698 -0.2910 -0.9801 -0.7370
  850MOL0     H14728  10.465   3.697   1.802 -2.0144 -2.2092  0.5617
  850MOL0     H14729  10.497   3.567   1.700 -2.9012 -0.4620 -3.0806
  850MOL0     H14730   9.919   4.452   1.349 -0.6880  0.5752 -0.3115
  850MOL0     H14731   9.705   4.484   1.213 -0.1788  1.7875  1.0009
  850MOL0     H14732   9.292   4.093   1.009  0.7076  0.3674 -0.7494
  850MOL0     H14733   9.060   4.122   0.913 -0.2413  1.8118 -2.1346
  850MOL0     H14734   7.135   4.582   0.818 -1.4510 -0.6763 -2.1868
  850MOL0     H14735   6.928   4.561   0.686  2.6154  1.6122  1.0915
  850MOL0     H14736   6.608   4.264   0.580  0.3793 -0.2193  3.0677
  850MOL0     H14737   6.413   4.181   0.462  0.1049 -0.4414 -1.1042
  850MOL0     H14738   6.030   4.437   0.415 -2.3266 -1.8835 -2.6928
  850MOL0     H14739   6.066   4.363   0.570  0.2845 -0.8432  0.6547
  850MOL0     H14740   5.955   4.224   0.313  0.8122 -0.7425 -0.6947
  850MOL0     H14741   5.872   4.252   0.461 -0.5829 -0.8960 -0.3838
  850MOL0     H14742   5.919   4.028   0.486 -1.6127  2.4386 -1.4849
  850MOL0     H14743   6.047   4.107   0.580  2.9576 -1.7985 -1.2174
  850MOL0     H14744   6.199   4.046   0.388  0.8152 -2.6335 -0.1492
  850MOL0     H14745   6.119   3.905   0.432  2.0312  0.1952  0.1885
  850MOL0     H14746   5.955   3.995   0.047  0.5185 -2.8667 -0.6600
  850MOL0     H14747   6.208   4.557   0.547 -0.0432  0.4376  0.6098
  850MOL0     H14748   6.298   4.639   0.795 -2.7833 -0.5134 -1.8440
  850MOL0     H14749   6.453   4.731   0.733 -0.8890 -0.7018  0.8701
  850MOL0     H14750   6.309   4.720   0.640  1.0554 -1.1253 -1.2902
  851MOL0     O14751   6.061   3.430   4.537  0.1285 -0.2218 -0.4223
  851MOL0     C14752   6.045   3.320   4.587 -0.1088 -0.2441  0.2713
  851MOL0     O14753   5.928   3.252   4.573  0.2303 -0.1797 -0.1494
  851MOL0     C14754   5.817   3.284   4.490 -0.7340  0.8788  0.0831
  851MOL0     C14755   5.772   3.416   4.463 -0.7918 -0.2454 -0.4984
  851MOL0     C14756   5.652   3.440   4.394  0.3487  0.4350 -0.4443
  851MOL0     C14757   5.571   3.330   4.358 -1.0347 -0.1347  0.2255
  851MOL0     O14758   5.458   3.355   4.289  0.3923 -0.2540  0.5376
  851MOL0     C14759   5.345   3.264   4.277  0.3146  0.0103 -0.4480
  851MOL0     C14760   5.242   3.335   4.182 -0.5301 -0.4940  0.4391
  851MOL0     C14761   5.092   3.306   4.182 -0.9526  0.1517 -1.1238
  851MOL0     C14762   5.034   3.302   4.321  1.6971 -0.1395 -0.3031
  851MOL0     C14763   4.900   3.369   4.338  0.5180  0.0406  0.4299
  851MOL0     C14764   4.911   3.524   4.350 -0.1213  0.3118 -0.0290
  851MOL0     C14765   4.793   3.629   4.337 -0.1343  0.4903 -0.2656
  851MOL0     C14766   4.746   3.650   4.194 -0.5863  0.8988  0.4737
  851MOL0     N14767   4.849   3.688   4.096 -0.0548 -0.1982  0.2799
  851MOL0     C14768   4.835   3.798   4.023 -0.9696 -0.5210  0.0383
  851MOL0     C14769   4.935   3.801   3.930 -0.3063  0.1477 -0.5311
  851MOL0     C14770   4.954   3.915   3.830  0.2048  0.2535 -0.0254
  851MOL0     C14771   4.941   4.052   3.890 -0.3202  0.2860  0.9712
  851MOL0     C14772   5.062   4.068   3.982  0.4793 -0.7773 -0.2276
  851MOL0     C14773   5.054   4.205   4.042 -0.0221 -0.6775  0.5162
  851MOL0     O14774   5.180   4.237   4.103 -0.1567  0.9101 -0.9774
  851MOL0     C14775   5.219   4.197   4.226  0.4667  0.5781 -0.0891
  851MOL0     C14776   5.131   4.122   4.306 -0.1746 -0.2076 -0.1892
  851MOL0     C14777   5.167   4.091   4.432  0.1609 -0.2207  0.1727
  851MOL0     C14778   5.292   4.111   4.483  0.5287 -0.6942  0.2288
  851MOL0     C14779   5.327   4.087   4.631  0.4775  0.0899  0.7484
  851MOL0     O14780   5.252   4.011   4.708  0.3580  0.4691  0.4853
  851MOL0     C14781   5.298   3.960   4.828  0.4802 -0.2433  0.5784
  851MOL0     C14782   5.228   3.982   4.945  0.6361  0.6103 -0.4890
  851MOL0     C14783   5.260   3.915   5.063  0.2828  0.5287  0.3107
  851MOL0     C14784   5.365   3.821   5.064  0.2488  0.4014  1.2059
  851MOL0     O14785   5.388   3.744   5.173 -0.3837  0.6670 -0.4699
  851MOL0     C14786   5.374   3.800   5.303  0.2611 -0.6037 -0.5940
  851MOL0     C14787   5.486   3.896   5.333  0.1261 -0.2688 -0.2858
  851MOL0     C14788   5.625   3.831   5.323  0.6891  0.5107 -0.3749
  851MOL0     C14789   5.732   3.932   5.329 -0.5147  0.4209 -0.2593
  851MOL0     C14790   5.869   3.865   5.317  0.1001  0.0712  0.2950
  851MOL0     C14791   5.994   3.947   5.368 -0.1988 -0.3056  1.2828
  851MOL0     C14792   6.019   4.075   5.276  0.2636 -0.0198 -0.0648
  851MOL0     C14793   6.139   4.160   5.304  0.6904  0.2405 -0.3432
  851MOL0    Cl14794   6.287   4.061   5.339 -0.0625 -0.1423  0.7155
  851MOL0     C14795   5.433   3.790   4.944 -0.2279  0.3987 -0.0583
  851MOL0     C14796   5.399   3.860   4.828 -0.1590 -0.3826  0.0795
  851MOL0     O14797   5.427   4.150   4.667 -0.8994  0.1796  0.0759
  851MOL0     C14798   5.382   4.188   4.407 -0.9953  0.5899 -0.1399
  851MOL0     C14799   5.345   4.226   4.280 -0.2194 -0.4320 -1.2015
  851MOL0     N14800   5.010   3.682   3.951  0.4380  0.2538 -0.0765
  851MOL0     N14801   4.957   3.615   4.044 -0.1863  0.1085 -1.2306
  851MOL0     C14802   5.614   3.199   4.391  0.1374  0.3953  0.0873
  851MOL0     C14803   5.734   3.176   4.458 -0.1138  0.7939 -0.5727
  851MOL0     C14804   6.163   3.243   4.638 -0.2250 -0.6922 -0.0623
  851MOL0     C14805   6.160   3.104   4.630 -0.0419  0.4500 -0.1662
  851MOL0     C14806   6.268   3.022   4.655  0.6940 -0.0105  0.0142
  851MOL0     C14807   6.389   3.072   4.710 -0.0713 -0.4143  0.4333
  851MOL0     O14808   6.492   2.995   4.747 -0.6915  0.8058  0.0407
  851MOL0     C14809   6.620   3.065   4.771 -0.5074 -0.5202 -0.7992
  851MOL0     C14810   6.729   2.965   4.806 -0.4685  0.7091 -1.4929
  851MOL0     C14811   6.693   2.895   4.937  0.0934  0.5381 -0.1155
  851MOL0     C14812   6.704   2.736   4.924 -0.3027 -0.1179 -0.3283
  851MOL0     C14813   6.850   2.711   4.878  0.9090  0.4100  0.5484
  851MOL0     C14814   6.963   2.673   4.842  0.2623 -0.9219 -0.7586
  851MOL0     C14815   6.394   3.213   4.722 -0.1759  0.1792 -0.2038
  851MOL0     C14816   6.285   3.301   4.688  0.5601 -0.4289  0.8450
  851MOL0     C14817   6.287   3.451   4.712 -1.1945 -0.4460 -0.1337
  851MOL0     H14818   5.832   3.501   4.494  0.5731 -0.9632 -1.0714
  851MOL0     H14819   5.614   3.539   4.375  0.3162  0.4521 -0.2954
  851MOL0     H14820   5.373   3.160   4.257 -2.1549 -1.3227  2.1918
  851MOL0     H14821   5.296   3.259   4.375  0.4945 -0.0134 -0.3594
  851MOL0     H14822   5.285   3.326   4.082  1.7163 -0.0221  1.3042
  851MOL0     H14823   5.230   3.438   4.218 -0.8289 -0.3327 -0.1130
  851MOL0     H14824   5.074   3.207   4.139 -2.7006 -0.3052  0.5044
  851MOL0     H14825   5.023   3.369   4.125 -0.8325 -0.1833 -1.6483
  851MOL0     H14826   5.019   3.196   4.344  0.8199 -0.8391 -3.6389
  851MOL0     H14827   5.110   3.351   4.383  1.4043 -1.6502  1.3206
  851MOL0     H14828   4.823   3.335   4.268 -1.1551 -0.1432  2.2885
  851MOL0     H14829   4.854   3.345   4.434  0.6871 -0.0332  0.4927
  851MOL0     H14830   4.934   3.535   4.457 -0.0301 -1.4592  0.1622
  851MOL0     H14831   5.001   3.556   4.297  0.6464 -0.9064  0.4886
  851MOL0     H14832   4.828   3.723   4.380 -0.8081  0.3780  0.5527
  851MOL0     H14833   4.712   3.605   4.407  2.6039 -2.2662  2.2655
  851MOL0     H14834   4.703   3.558   4.155  1.3099  0.8983 -1.8689
  851MOL0     H14835   4.664   3.723   4.196 -0.2649  1.2549  0.9957
  851MOL0     H14836   4.765   3.874   4.056  0.3563 -0.2428  2.5188
  851MOL0     H14837   5.056   3.907   3.790  1.4161 -0.0377  2.8513
  851MOL0     H14838   4.882   3.900   3.749 -1.7594 -1.6461  1.9380
  851MOL0     H14839   4.967   4.124   3.811  2.0962 -0.9270  0.5427
  851MOL0     H14840   4.842   4.078   3.927 -0.4812  1.2909 -0.1004
  851MOL0     H14841   5.154   4.057   3.923  2.0246  0.6467  1.7859
  851MOL0     H14842   5.054   3.994   4.062  1.7017 -1.6547 -0.8848
  851MOL0     H14843   4.976   4.207   4.118 -1.9588 -5.4612 -0.9567
  851MOL0     H14844   5.037   4.283   3.966 -4.7189 -1.2259  0.6833
  851MOL0     H14845   5.035   4.090   4.267 -0.3843  0.0422  0.1250
  851MOL0     H14846   5.088   4.047   4.492  2.6023 -0.5224  3.3652
  851MOL0     H14847   5.143   4.050   4.945 -1.2939 -1.6815  0.7851
  851MOL0     H14848   5.192   3.926   5.147  0.1982 -0.8833  0.4613
  851MOL0     H14849   5.286   3.864   5.315  0.7774 -0.2078  1.4914
  851MOL0     H14850   5.373   3.719   5.377  0.5558 -1.3097 -1.3454
  851MOL0     H14851   5.490   3.981   5.265 -1.4779  1.0479  1.1752
  851MOL0     H14852   5.474   3.942   5.431  0.5613 -1.1483  0.1860
  851MOL0     H14853   5.652   3.775   5.413 -3.4413  2.5259  2.4775
  851MOL0     H14854   5.638   3.768   5.236 -1.1327  0.0899 -0.3800
  851MOL0     H14855   5.726   3.982   5.426 -1.7392 -1.9850  0.9930
  851MOL0     H14856   5.719   4.012   5.256 -2.9277 -0.9772 -1.5100
  851MOL0     H14857   5.879   3.817   5.219 -1.6436  0.5819 -0.1656
  851MOL0     H14858   5.871   3.782   5.388 -0.3038 -0.7215 -0.6086
  851MOL0     H14859   5.982   3.972   5.474  0.9997  1.7466  0.9876
  851MOL0     H14860   6.082   3.884   5.352  0.2578  0.8561 -1.1086
  851MOL0     H14861   5.934   4.144   5.270  0.3330 -0.0689 -3.0593
  851MOL0     H14862   6.017   4.036   5.174  1.2049  0.5941 -0.3247
  851MOL0     H14863   6.146   4.235   5.224 -3.4740  2.5685  1.1639
  851MOL0     H14864   6.127   4.212   5.400  0.4635  1.2720 -0.9110
  851MOL0     H14865   5.508   3.711   4.946 -0.9509 -0.2958  0.4116
  851MOL0     H14866   5.448   3.836   4.734  0.1261 -0.4937  0.2573
  851MOL0     H14867   5.483   4.203   4.444 -0.3875 -1.3853 -0.8492
  851MOL0     H14868   5.415   4.279   4.217  0.5585 -0.0142 -0.0294
  851MOL0     H14869   5.559   3.110   4.362  0.1322  0.2200  0.6146
  851MOL0     H14870   5.755   3.074   4.488 -0.0907  1.6061  2.4808
  851MOL0     H14871   6.076   3.046   4.592  0.8341 -1.6259  0.8841
  851MOL0     H14872   6.275   2.915   4.640  2.3258  0.1348 -0.4824
  851MOL0     H14873   6.611   3.139   4.852  0.5632 -0.3938 -0.7921
  851MOL0     H14874   6.640   3.121   4.680 -0.9845  1.6960  0.3888
  851MOL0     H14875   6.826   3.012   4.823  0.7208 -2.0665  0.0761
  851MOL0     H14876   6.747   2.910   4.713 -1.3580  2.6858 -2.9031
  851MOL0     H14877   6.593   2.919   4.976  0.0366  0.1554 -0.0206
  851MOL0     H14878   6.762   2.934   5.011 -0.9277  0.5600  0.8544
  851MOL0     H14879   6.695   2.678   5.017  1.8731 -0.2631 -0.1609
  851MOL0     H14880   6.627   2.702   4.854 -0.3261  2.2003 -1.4870
  851MOL0     H14881   7.060   2.627   4.832  0.5682 -0.2927 -0.7580
  851MOL0     H14882   6.478   3.264   4.766 -0.9056 -0.6745  2.3603
  851MOL0     H14883   6.370   3.480   4.777 -1.5633 -0.7458  0.4770
  851MOL0     H14884   6.283   3.506   4.618  0.3791  0.9346  0.5549
  851MOL0     H14885   6.195   3.485   4.760  1.1240 -0.0810  4.6599
  852MOL0     O14886   9.330   4.974   0.674  0.0479  0.1014  0.4477
  852MOL0     C14887   9.312   5.089   0.712 -0.3297 -0.0095 -0.4488
  852MOL0     O14888   9.400   5.185   0.742  0.0302 -0.8856 -0.3714
  852MOL0     C14889   9.528   5.141   0.780  0.1005 -0.1108 -0.1943
  852MOL0     C14890   9.634   5.157   0.688 -0.6109  1.1769  0.1687
  852MOL0     C14891   9.766   5.124   0.731  0.2569 -0.0323  0.0397
  852MOL0     C14892   9.792   5.073   0.860 -0.5898 -0.1729  0.0295
  852MOL0     O14893   9.925   5.046   0.899  0.0614 -0.4328 -0.0496
  852MOL0     C14894  10.037   5.109   0.830 -0.1304 -0.2238  0.1967
  852MOL0     C14895  10.161   5.046   0.890  0.1426 -0.9129  0.2558
  852MOL0     C14896  10.199   5.105   1.026 -0.5950 -0.0833 -0.7791
  852MOL0     C14897  10.295   5.227   1.001 -0.4111  0.2487  0.0335
  852MOL0     C14898  10.343   5.266   1.140 -0.3961 -1.2124 -0.6881
  852MOL0     C14899  10.417   5.395   1.133 -0.0001  0.2557  0.2752
  852MOL0     C14900  10.467   5.425   1.262 -0.6247  0.7034 -0.1815
  852MOL0     C14901  10.554   5.553   1.278  0.4638 -0.0323 -0.1168
  852MOL0     N14902  10.644   5.537   1.386 -0.6480 -0.4133 -0.2893
  852MOL0     C14903  10.641   5.597   1.512  0.4884  0.1063  0.3775
  852MOL0     C14904  10.751   5.577   1.572 -0.7459 -0.9920 -1.3962
  852MOL0     C14905  10.797   5.631   1.704 -0.1141  0.3148 -0.0155
  852MOL0     C14906  10.850   5.511   1.785 -0.2375  0.2435  0.4718
  852MOL0     C14907  10.931   5.568   1.907  0.0902 -0.2770 -0.9627
  852MOL0     C14908  11.071   5.607   1.871 -0.1732 -0.4885  0.3529
  852MOL0     O14909  11.128   5.675   1.989  0.1365  1.1751  0.8456
  852MOL0     C14910  11.258   5.642   2.015 -0.1222 -1.6448  1.0401
  852MOL0     C14911  11.353   5.617   1.911  0.5240 -0.5323  0.3629
  852MOL0     C14912  11.483   5.579   1.934  0.4760 -0.8156  0.4447
  852MOL0     C14913  11.523   5.562   2.070  0.1532  0.0654  0.9164
  852MOL0     C14914  11.649   5.497   2.107 -0.5218 -0.2777 -0.2905
  852MOL0     O14915  11.724   5.439   2.009 -0.5013  0.3468 -0.0702
  852MOL0     C14916  11.845   5.385   2.048  0.0318 -0.0573  1.9165
  852MOL0     C14917  11.961   5.465   2.047  0.3890  0.2897 -0.7444
  852MOL0     C14918  12.083   5.407   2.088 -0.8026  0.2539  0.4826
  852MOL0     C14919  12.098   5.277   2.122  0.3500  0.4228 -1.0472
  852MOL0     O14920  12.214   5.242   2.175 -0.0801 -0.0992  0.6343
  852MOL0     C14921  12.264   5.111   2.147 -0.0935  0.1148  0.1715
  852MOL0     C14922  12.407   5.114   2.169 -0.4419  0.5818  0.4458
  852MOL0     C14923  12.454   5.131   2.311  0.6709 -0.1933  0.2643
  852MOL0     C14924  12.607   5.157   2.320 -0.4060  0.2004  0.4782
  852MOL0     C14925  12.648   5.193   2.456  0.6397 -0.3948  0.3061
  852MOL0     C14926  12.799   5.240   2.460  0.8634  0.2759  0.2997
  852MOL0     C14927  12.847   5.265   2.606 -0.3394 -0.3590 -0.0579
  852MOL0     C14928  13.005   5.280   2.603  0.4713 -0.2967 -0.1917
  852MOL0    Cl14929  13.059   5.302   2.776 -0.2131  0.2728  0.1070
  852MOL0     C14930  11.980   5.202   2.125  0.6810  0.5920  0.8975
  852MOL0     C14931  11.856   5.250   2.084  0.9104  0.0561  0.6893
  852MOL0     O14932  11.688   5.506   2.227  0.0452  0.0855 -0.1038
  852MOL0     C14933  11.429   5.592   2.168  0.6497 -0.5076  0.4471
  852MOL0     C14934  11.301   5.640   2.141  0.6027  0.5109  0.1994
  852MOL0     N14935  10.819   5.493   1.488  0.1627  0.4467 -0.0828
  852MOL0     N14936  10.773   5.487   1.366 -0.1900  0.2648 -0.6217
  852MOL0     C14937   9.689   5.071   0.949 -0.1182 -1.5308  0.3368
  852MOL0     C14938   9.563   5.094   0.906 -0.2900 -0.5625 -0.8536
  852MOL0     C14939   9.170   5.132   0.715 -0.7301  0.4986 -0.2324
  852MOL0     C14940   9.108   5.170   0.595  0.1409  0.1101 -1.1276
  852MOL0     C14941   8.967   5.180   0.584 -1.0071 -0.3709  0.0090
  852MOL0     C14942   8.890   5.164   0.697 -1.0525 -0.1571 -0.2396
  852MOL0     O14943   8.758   5.172   0.703 -0.0878 -0.5719 -0.2997
  852MOL0     C14944   8.691   5.211   0.581  0.0828 -0.2888 -0.2372
  852MOL0     C14945   8.537   5.200   0.593  0.8044  0.2064 -0.9526
  852MOL0     C14946   8.483   5.071   0.540 -0.5804  1.0235 -0.0634
  852MOL0     C14947   8.373   5.011   0.621 -0.8416  0.1545 -0.0614
  852MOL0     C14948   8.254   5.099   0.629 -0.1302  0.0718 -0.2278
  852MOL0     C14949   8.150   5.167   0.611 -0.1176 -0.3089 -0.6153
  852MOL0     C14950   8.954   5.140   0.818 -0.1319  0.3088  0.9817
  852MOL0     C14951   9.093   5.127   0.834  0.3277 -0.2221  0.1379
  852MOL0     C14952   9.156   5.113   0.973 -0.8727  0.4835 -0.0865
  852MOL0     H14953   9.621   5.192   0.586  2.2368  1.3813 -0.2176
  852MOL0     H14954   9.832   5.115   0.645 -0.2220  2.9875 -0.7533
  852MOL0     H14955  10.041   5.073   0.726  3.5995 -2.6638  0.9603
  852MOL0     H14956  10.033   5.217   0.844  0.9229 -0.3626  1.8099
  852MOL0     H14957  10.244   5.069   0.822 -1.0453 -1.2605 -1.3542
  852MOL0     H14958  10.142   4.938   0.897 -0.9867 -0.8171 -0.9112
  852MOL0     H14959  10.243   5.031   1.094  1.3334 -0.1103 -2.0039
  852MOL0     H14960  10.107   5.137   1.078  0.7146 -0.1606  1.7522
  852MOL0     H14961  10.385   5.211   0.941 -0.7347  0.8675 -0.6381
  852MOL0     H14962  10.232   5.297   0.946 -1.4355 -1.1808 -0.6845
  852MOL0     H14963  10.267   5.281   1.217  0.6273  0.4293  0.0571
  852MOL0     H14964  10.419   5.193   1.170  1.2913 -0.7734 -3.5234
  852MOL0     H14965  10.504   5.395   1.066 -0.6005 -2.2469 -0.6210
  852MOL0     H14966  10.349   5.474   1.100 -0.7179 -0.6618 -0.5040
  852MOL0     H14967  10.535   5.340   1.274  1.4717  1.5985 -4.1936
  852MOL0     H14968  10.390   5.426   1.340  0.6907  0.4509  1.1690
  852MOL0     H14969  10.600   5.575   1.181 -0.8979  0.3622 -0.7017
  852MOL0     H14970  10.489   5.638   1.301  0.2777  0.0108 -0.7873
  852MOL0     H14971  10.558   5.659   1.544  1.4585  1.3443  0.5440
  852MOL0     H14972  10.875   5.707   1.698  0.1372  0.1552  1.0428
  852MOL0     H14973  10.712   5.674   1.757 -1.4381 -1.6918 -0.3639
  852MOL0     H14974  10.766   5.445   1.810 -1.8414  2.1554  0.3741
  852MOL0     H14975  10.913   5.444   1.727  1.2161  0.0546  2.1757
  852MOL0     H14976  10.929   5.491   1.984  3.9734  0.5440  0.1821
  852MOL0     H14977  10.871   5.653   1.942  2.7778  1.9069 -1.3286
  852MOL0     H14978  11.076   5.675   1.786 -2.2372  0.3599  0.8534
  852MOL0     H14979  11.134   5.522   1.844 -1.6840 -2.1965  1.9202
  852MOL0     H14980  11.322   5.629   1.808 -0.9743 -1.1276  0.7067
  852MOL0     H14981  11.553   5.561   1.853  1.6305 -4.0556  1.9786
  852MOL0     H14982  11.945   5.563   2.003  2.0304  1.5503  1.2338
  852MOL0     H14983  12.179   5.458   2.090  0.9087 -2.7285  0.2524
  852MOL0     H14984  12.212   5.031   2.200 -0.2517 -0.2474 -0.5178
  852MOL0     H14985  12.259   5.093   2.039  0.8207  3.3823 -0.5273
  852MOL0     H14986  12.438   5.015   2.134  1.2982  0.0486  3.1742
  852MOL0     H14987  12.451   5.187   2.101 -0.3970  2.0982  2.0215
  852MOL0     H14988  12.389   5.206   2.357 -2.9129 -1.7737 -1.7726
  852MOL0     H14989  12.433   5.045   2.376  0.3954  0.5175  1.1317
  852MOL0     H14990  12.628   5.241   2.253 -2.3548  3.1769  3.3247
  852MOL0     H14991  12.664   5.067   2.295  0.4367  0.4653  1.3665
  852MOL0     H14992  12.639   5.105   2.520 -0.7497  0.5015  1.3929
  852MOL0     H14993  12.583   5.274   2.490 -1.2034 -0.9389 -1.7305
  852MOL0     H14994  12.859   5.160   2.416  5.5364  2.0733  2.7052
  852MOL0     H14995  12.811   5.330   2.399 -0.1060 -1.2322 -2.2449
  852MOL0     H14996  12.811   5.179   2.662 -0.8313  0.6380  1.2068
  852MOL0     H14997  12.806   5.357   2.649  0.7413 -0.1438  0.5384
  852MOL0     H14998  13.051   5.191   2.558 -1.8679 -1.1895 -1.0080
  852MOL0     H14999  13.036   5.367   2.545 -2.4738  0.6876 -0.4666
  852MOL0     H15000  11.987   5.104   2.170 -0.7272  0.0047 -0.1037
  852MOL0     H15001  11.767   5.188   2.089  1.0249 -0.5405 -2.7449
  852MOL0     H15002  11.446   5.599   2.275 -2.2767  1.3408  0.9094
  852MOL0     H15003  11.233   5.678   2.217 -0.8633  0.2473 -0.9190
  852MOL0     H15004   9.717   5.035   1.048  1.6605  0.5208  0.6461
  852MOL0     H15005   9.498   5.080   0.992  1.1174  1.0885  0.5357
  852MOL0     H15006   9.169   5.181   0.505 -0.3678  1.7956 -1.3105
  852MOL0     H15007   8.928   5.209   0.487 -1.5592  2.6302  1.0201
  852MOL0     H15008   8.722   5.167   0.486 -1.2943  1.5851 -1.6440
  852MOL0     H15009   8.717   5.317   0.582  1.2011 -0.5496  1.0965
  852MOL0     H15010   8.492   5.284   0.538  2.1639  0.1728 -2.1933
  852MOL0     H15011   8.500   5.215   0.695 -3.7635 -1.0801 -2.1743
  852MOL0     H15012   8.567   5.002   0.531 -1.0860  0.2015  1.2362
  852MOL0     H15013   8.440   5.085   0.440 -1.1642 -0.3864 -0.0300
  852MOL0     H15014   8.349   4.909   0.589 -0.9592  1.0374 -3.1389
  852MOL0     H15015   8.409   4.998   0.723 -1.4250 -2.6203 -0.1149
  852MOL0     H15016   8.057   5.215   0.591 -1.4673 -1.9633  1.3094
  852MOL0     H15017   8.882   5.136   0.898 -1.3200  0.2260 -0.0622
  852MOL0     H15018   9.161   5.008   1.002 -0.6224  0.5423  0.0803
  852MOL0     H15019   9.260   5.146   0.961  0.0157 -2.4059 -1.2430
  852MOL0     H15020   9.103   5.167   1.052  1.0182 -1.6703  2.8401
  853MOL0     O15021   4.827   7.178   7.633  0.2715 -0.1700 -0.1034
  853MOL0     C15022   4.826   7.066   7.675 -0.4051  0.3950 -0.5862
  853MOL0     O15023   4.943   6.993   7.700  0.1972 -0.7784  0.0813
  853MOL0     C15024   5.066   7.053   7.669  1.0070  0.1745 -0.6536
  853MOL0     C15025   5.155   7.053   7.774  0.2413 -0.7298 -0.4100
  853MOL0     C15026   5.280   7.106   7.752 -0.3335 -0.4828 -0.7484
  853MOL0     C15027   5.318   7.171   7.637  0.4980 -0.3122 -0.4169
  853MOL0     O15028   5.441   7.228   7.626 -0.4824 -0.8102  0.9121
  853MOL0     C15029   5.558   7.150   7.645 -0.2221  0.5755  0.1856
  853MOL0     C15030   5.676   7.216   7.709 -0.4123  0.4751 -0.2458
  853MOL0     C15031   5.785   7.116   7.734 -0.2201 -0.3904  0.1926
  853MOL0     C15032   5.919   7.197   7.767 -0.1946  0.0715  0.0107
  853MOL0     C15033   6.050   7.129   7.738 -0.5296  0.1702  0.7875
  853MOL0     C15034   6.161   7.225   7.771  0.1035 -0.5473  0.1483
  853MOL0     C15035   6.291   7.143   7.758  0.2465  0.1181 -0.3625
  853MOL0     C15036   6.408   7.235   7.760 -0.3703 -0.0069  0.2958
  853MOL0     N15037   6.536   7.167   7.736 -0.7172 -0.1511  0.4278
  853MOL0     C15038   6.598   7.158   7.614 -0.1597 -0.6246 -0.9125
  853MOL0     C15039   6.718   7.093   7.639  0.0111  1.0789  0.9015
  853MOL0     C15040   6.818   7.049   7.536  0.0221 -0.5092  0.0627
  853MOL0     C15041   6.946   7.132   7.534  0.0399 -0.0817  0.4911
  853MOL0     C15042   7.065   7.073   7.463 -0.5493 -0.4239 -0.4353
  853MOL0     C15043   7.189   7.080   7.546 -0.4071 -0.2739  0.7298
  853MOL0     O15044   7.278   7.006   7.458  0.4461  0.2144 -0.1860
  853MOL0     C15045   7.403   6.984   7.507 -0.3829  0.2233  1.6272
  853MOL0     C15046   7.472   7.086   7.572 -0.2985 -0.5014  0.2258
  853MOL0     C15047   7.608   7.066   7.609 -0.6937  0.3591  0.3339
  853MOL0     C15048   7.671   6.940   7.590 -0.0328  0.2011  0.0170
  853MOL0     C15049   7.812   6.925   7.632 -0.3346  0.2046  0.7645
  853MOL0     O15050   7.876   6.822   7.578  0.0863  0.5778  0.1476
  853MOL0     C15051   8.011   6.825   7.557 -0.1620 -0.2907 -0.1025
  853MOL0     C15052   8.066   6.819   7.431  0.4964  0.3881 -0.6512
  853MOL0     C15053   8.205   6.817   7.410 -0.5733  0.0261 -0.1986
  853MOL0     C15054   8.298   6.829   7.522  0.2848  0.6080 -0.3628
  853MOL0     O15055   8.432   6.843   7.524 -0.4297  0.4759 -0.6111
  853MOL0     C15056   8.501   6.850   7.400  0.0229 -0.1838  0.2161
  853MOL0     C15057   8.654   6.855   7.412  0.6086 -0.1717  0.7641
  853MOL0     C15058   8.714   6.750   7.513  0.2183 -0.0387 -0.1652
  853MOL0     C15059   8.675   6.600   7.488 -0.5926 -0.9003 -0.3012
  853MOL0     C15060   8.732   6.501   7.591  0.5727 -0.1847 -0.0901
  853MOL0     C15061   8.878   6.480   7.572 -1.1387  0.8609 -0.1022
  853MOL0     C15062   8.938   6.397   7.695 -0.0682  0.2085 -0.6052
  853MOL0     C15063   9.077   6.337   7.668  0.2657 -1.0210 -0.0010
  853MOL0    Cl15064   9.185   6.458   7.593 -0.1442  0.0305 -0.3672
  853MOL0     C15065   8.237   6.834   7.644 -0.1554  0.2837 -0.1863
  853MOL0     C15066   8.101   6.826   7.667  1.0689 -0.1622  1.0011
  853MOL0     O15067   7.855   7.014   7.705 -0.0095  0.8898 -0.1261
  853MOL0     C15068   7.590   6.838   7.535  0.1513  0.2289 -0.2323
  853MOL0     C15069   7.460   6.861   7.489  0.8082 -0.5630 -0.2297
  853MOL0     N15070   6.725   7.071   7.778 -0.8345  0.2061 -0.0839
  853MOL0     N15071   6.618   7.117   7.831  0.6199 -0.1204 -0.2188
  853MOL0     C15072   5.223   7.188   7.543  1.3647 -0.3322  0.3817
  853MOL0     C15073   5.099   7.127   7.555 -0.4229  0.5560 -0.0154
  853MOL0     C15074   4.699   6.993   7.718 -0.9391 -0.1839 -0.2245
  853MOL0     C15075   4.704   6.860   7.764 -0.9806 -0.4603 -0.2880
  853MOL0     C15076   4.580   6.792   7.791  0.3127 -0.1991  0.8142
  853MOL0     C15077   4.459   6.851   7.765  0.6706  0.4101 -0.3590
  853MOL0     O15078   4.349   6.775   7.800 -0.0634  0.8440  0.3530
  853MOL0     C15079   4.230   6.844   7.813  0.3690 -0.3967  0.1575
  853MOL0     C15080   4.118   6.766   7.885  0.3350 -0.9130  0.2371
  853MOL0     C15081   4.004   6.867   7.933 -0.3279  0.1727  0.3134
  853MOL0     C15082   3.917   6.934   7.823 -1.0796  0.1074 -1.1197
  853MOL0     C15083   3.821   7.029   7.877  0.3425  0.0804  0.0479
  853MOL0     C15084   3.730   7.101   7.903  0.1479 -0.2612 -0.2085
  853MOL0     C15085   4.450   6.979   7.722  0.3976 -0.6699 -0.7187
  853MOL0     C15086   4.569   7.053   7.701  0.0557 -0.6656 -0.4244
  853MOL0     C15087   4.541   7.194   7.653 -0.5143  0.6229 -0.5564
  853MOL0     H15088   5.127   7.011   7.870  0.3781 -0.1006 -0.0909
  853MOL0     H15089   5.351   7.101   7.834 -1.7121  2.2525  0.7455
  853MOL0     H15090   5.538   7.058   7.702 -1.9011  2.5730  3.0676
  853MOL0     H15091   5.592   7.128   7.543 -1.9350 -0.5445 -0.1871
  853MOL0     H15092   5.646   7.254   7.807  1.7658  1.1710  0.2094
  853MOL0     H15093   5.705   7.294   7.637 -1.4519  0.4002 -0.7627
  853MOL0     H15094   5.812   7.071   7.638  0.6994  1.2466 -0.3517
  853MOL0     H15095   5.754   7.034   7.799  1.3327 -2.7366 -1.8188
  853MOL0     H15096   5.913   7.294   7.717 -3.0654  0.6165  1.2034
  853MOL0     H15097   5.908   7.212   7.875 -1.1742  1.2325 -0.2245
  853MOL0     H15098   6.048   7.037   7.798  3.3493 -0.9067 -0.4665
  853MOL0     H15099   6.057   7.101   7.633  3.4436  2.5461  0.2288
  853MOL0     H15100   6.153   7.315   7.710  0.3020  0.6761  1.8637
  853MOL0     H15101   6.144   7.251   7.876  1.1821  2.3463 -0.3104
  853MOL0     H15102   6.293   7.102   7.657 -1.4293  0.4118 -0.5443
  853MOL0     H15103   6.297   7.059   7.827  0.0004  0.7064  0.3876
  853MOL0     H15104   6.395   7.303   7.675  0.2942 -0.7010 -0.3944
  853MOL0     H15105   6.405   7.288   7.855 -0.8484 -0.2041  0.3905
  853MOL0     H15106   6.559   7.192   7.518  0.0803 -3.4287 -2.0965
  853MOL0     H15107   6.838   6.944   7.557  0.0388 -0.1853  1.8626
  853MOL0     H15108   6.766   7.055   7.440 -1.7440  3.3721  1.0606
  853MOL0     H15109   6.916   7.229   7.492  0.5128  0.2561  0.9282
  853MOL0     H15110   6.965   7.148   7.640  1.0766 -0.4558  0.3696
  853MOL0     H15111   7.088   7.136   7.377  0.6516  0.7909  0.7389
  853MOL0     H15112   7.053   6.969   7.431 -0.7697 -0.0171 -1.7259
  853MOL0     H15113   7.181   7.029   7.642 -0.5598 -0.6370  0.5273
  853MOL0     H15114   7.233   7.180   7.555  1.5549 -0.9649 -0.4224
  853MOL0     H15115   7.424   7.178   7.606 -0.5247 -1.3699  2.4417
  853MOL0     H15116   7.655   7.148   7.664  1.1416 -0.6989  0.4236
  853MOL0     H15117   7.995   6.822   7.349  0.5666 -2.6224 -0.9457
  853MOL0     H15118   8.245   6.819   7.310  2.0274  1.6856  0.7844
  853MOL0     H15119   8.471   6.763   7.341  3.6190 -2.0454  0.8561
  853MOL0     H15120   8.468   6.936   7.341 -1.8464 -0.0200  1.4394
  853MOL0     H15121   8.718   6.844   7.324 -0.9985 -0.0514 -0.4536
  853MOL0     H15122   8.673   6.958   7.444 -0.6621  1.5950 -3.4958
  853MOL0     H15123   8.823   6.762   7.507  0.2820  0.1827  1.1568
  853MOL0     H15124   8.688   6.775   7.616 -0.3882 -2.9457  0.4796
  853MOL0     H15125   8.725   6.575   7.394 -0.4011  0.6448 -0.6441
  853MOL0     H15126   8.566   6.592   7.485 -0.7715  0.8259  0.4449
  853MOL0     H15127   8.682   6.404   7.587 -0.2355  0.2242 -0.0455
  853MOL0     H15128   8.715   6.540   7.691  0.8251  1.3551 -0.6134
  853MOL0     H15129   8.888   6.418   7.482  0.8410  0.2450  0.4940
  853MOL0     H15130   8.934   6.573   7.560 -0.0018  0.2810  0.4599
  853MOL0     H15131   8.872   6.317   7.729  0.7792 -0.9704 -1.6341
  853MOL0     H15132   8.947   6.455   7.788 -0.4955 -2.0395  0.9281
  853MOL0     H15133   9.126   6.294   7.756 -3.4534  0.0440  2.8394
  853MOL0     H15134   9.073   6.250   7.602  3.6818  0.1194 -1.9564
  853MOL0     H15135   8.292   6.845   7.737 -0.2714  1.2004 -0.2111
  853MOL0     H15136   8.058   6.842   7.766 -1.1094  0.1777  0.0697
  853MOL0     H15137   7.634   6.739   7.538  0.3510  0.2938 -0.8742
  853MOL0     H15138   7.408   6.781   7.437  1.9211  0.7007 -3.5346
  853MOL0     H15139   5.223   7.245   7.450 -2.5930 -0.9308 -0.1749
  853MOL0     H15140   5.031   7.136   7.471  1.1643 -1.1578 -1.5834
  853MOL0     H15141   4.799   6.813   7.787  0.0492  0.7309 -1.8595
  853MOL0     H15142   4.570   6.699   7.846 -0.0015 -1.6494 -1.5487
  853MOL0     H15143   4.202   6.889   7.718  2.0632  1.1415  0.3258
  853MOL0     H15144   4.250   6.931   7.876  1.4181  0.9771 -1.9803
  853MOL0     H15145   4.160   6.717   7.973 -1.3027 -1.0581  0.9797
  853MOL0     H15146   4.079   6.692   7.815  1.5567 -0.1905 -1.2534
  853MOL0     H15147   4.049   6.950   7.989  2.3518  2.4839 -4.5615
  853MOL0     H15148   3.935   6.809   7.995  0.4339 -0.9707  0.1149
  853MOL0     H15149   3.983   6.987   7.753 -1.4008  4.3742  1.4337
  853MOL0     H15150   3.870   6.853   7.767  1.1518 -2.0445 -0.0142
  853MOL0     H15151   3.651   7.167   7.930  0.4690 -0.2818  0.8063
  853MOL0     H15152   4.354   7.025   7.699  1.1922  0.8668 -1.0836
  853MOL0     H15153   4.605   7.221   7.569 -0.1001 -1.5244 -1.0036
  853MOL0     H15154   4.441   7.210   7.613 -1.5887 -2.9278  0.3231
  853MOL0     H15155   4.544   7.273   7.729 -2.5442  2.0932 -1.9189
  854MOL0     O15156   5.806   5.776   0.006 -0.2713 -0.6241  0.2091
  854MOL0     C15157   5.784   5.683  -0.082 -1.1511  1.2751 -0.6785
  854MOL0     O15158   5.868   5.572  -0.099  0.1673 -0.5027 -0.2747
  854MOL0     C15159   5.967   5.552  -0.007 -0.1730  0.3338 -0.2887
  854MOL0     C15160   5.965   5.439   0.084 -0.8184 -0.2650  0.3087
  854MOL0     C15161   6.070   5.418   0.172  0.3391 -0.0770 -0.4202
  854MOL0     C15162   6.189   5.494   0.175  0.9530 -0.4824 -0.4881
  854MOL0     O15163   6.298   5.479   0.258 -0.0120  0.4622  0.2087
  854MOL0     C15164   6.317   5.356   0.330 -0.3746  0.3146  0.0625
  854MOL0     C15165   6.444   5.382   0.416  0.2121  0.7316  0.7273
  854MOL0     C15166   6.517   5.257   0.476 -0.0807 -0.1014  0.3614
  854MOL0     C15167   6.627   5.304   0.575  0.0495  0.4676 -0.6131
  854MOL0     C15168   6.756   5.350   0.499  0.4250  0.2157  1.0591
  854MOL0     C15169   6.865   5.392   0.583  0.0420  0.1126 -0.5918
  854MOL0     C15170   6.994   5.423   0.514  0.0651 -0.4272 -0.6793
  854MOL0     C15171   7.067   5.291   0.469 -0.4183  0.1369  0.3471
  854MOL0     N15172   7.169   5.320   0.370 -1.1726  0.3784 -1.0004
  854MOL0     C15173   7.180   5.253   0.249 -0.7130 -0.3685  0.2326
  854MOL0     C15174   7.300   5.296   0.204  0.0283 -0.2407  0.8881
  854MOL0     C15175   7.371   5.240   0.082  0.7740  0.5648  0.1080
  854MOL0     C15176   7.363   5.083   0.088  0.2770  0.2758  0.8475
  854MOL0     C15177   7.461   5.028  -0.028 -0.1083 -0.4173 -1.6150
  854MOL0     C15178   7.600   5.011   0.030  0.2102  0.5459  0.4162
  854MOL0     O15179   7.601   4.887   0.109  0.8519 -0.6188  0.3619
  854MOL0     C15180   7.714   4.856   0.181 -0.6318 -0.9861 -0.4552
  854MOL0     C15181   7.707   4.729   0.244  0.4546  0.0496  0.1288
  854MOL0     C15182   7.820   4.680   0.304 -0.5658  0.4140 -0.0515
  854MOL0     C15183   7.939   4.755   0.320  0.2217 -0.0800  0.0956
  854MOL0     C15184   8.066   4.691   0.360  0.7879 -1.0865  0.8377
  854MOL0     O15185   8.061   4.567   0.398 -0.0788  0.5514 -0.1569
  854MOL0     C15186   8.178   4.502   0.445  0.6853  0.3667  0.0139
  854MOL0     C15187   8.206   4.374   0.391 -0.1757 -0.6294  0.3848
  854MOL0     C15188   8.303   4.301   0.448  0.2852 -0.3042 -0.4303
  854MOL0     C15189   8.394   4.347   0.543  0.0723  0.0294  0.0495
  854MOL0     O15190   8.502   4.279   0.585  0.4392  0.7771 -0.0033
  854MOL0     C15191   8.582   4.206   0.495 -0.2001 -0.2371  0.1951
  854MOL0     C15192   8.716   4.190   0.570 -0.0040 -0.3015  0.2837
  854MOL0     C15193   8.798   4.085   0.491 -0.9311  0.0815  0.1316
  854MOL0     C15194   8.951   4.129   0.484 -0.2176 -0.3995  0.2995
  854MOL0     C15195   9.015   4.044   0.373 -0.0783  0.0905 -0.3384
  854MOL0     C15196   9.166   4.002   0.404 -0.1049  0.0222 -0.5257
  854MOL0     C15197   9.275   4.109   0.374 -0.5408 -0.7730 -0.3777
  854MOL0     C15198   9.414   4.046   0.381  0.8748 -0.5768 -0.1360
  854MOL0    Cl15199   9.524   4.165   0.319 -0.1007  0.2230  0.1107
  854MOL0     C15200   8.361   4.474   0.592 -0.3119  0.0844  0.4290
  854MOL0     C15201   8.253   4.544   0.544  0.4988 -0.5888 -0.0059
  854MOL0     O15202   8.160   4.763   0.345 -0.3303  0.1170 -0.0887
  854MOL0     C15203   7.945   4.881   0.253 -0.7915  0.7099 -0.0261
  854MOL0     C15204   7.832   4.933   0.191 -0.4901  0.3397  0.7838
  854MOL0     N15205   7.364   5.376   0.294 -0.8274  0.0220  0.1907
  854MOL0     N15206   7.287   5.386   0.397 -0.0619 -0.6302  0.3118
  854MOL0     C15207   6.184   5.608   0.091  0.4284 -0.5964 -0.1743
  854MOL0     C15208   6.083   5.633  -0.006  0.6065  0.8642 -0.4741
  854MOL0     C15209   5.660   5.672  -0.157 -0.1921 -1.2118 -0.3019
  854MOL0     C15210   5.642   5.560  -0.238  0.2230  0.1409  1.0084
  854MOL0     C15211   5.524   5.536  -0.303  0.6476  0.3645  0.0552
  854MOL0     C15212   5.416   5.618  -0.294  1.2693 -0.4281  0.6140
  854MOL0     O15213   5.298   5.613  -0.363 -0.0297 -0.0384  0.0444
  854MOL0     C15214   5.254   5.481  -0.418 -0.7604 -0.8930 -0.0531
  854MOL0     C15215   5.103   5.479  -0.452  0.1201  0.7951  0.1720
  854MOL0     C15216   5.079   5.370  -0.562  0.0448  0.1979 -0.2528
  854MOL0     C15217   4.947   5.394  -0.618  0.4462 -0.1197  0.8226
  854MOL0     C15218   4.849   5.327  -0.530  0.2135  0.5510  0.5943
  854MOL0     C15219   4.768   5.275  -0.454 -0.1191 -1.0565 -0.2793
  854MOL0     C15220   5.440   5.735  -0.228 -0.5653 -0.0918 -0.9374
  854MOL0     C15221   5.556   5.761  -0.156  0.5406 -0.7584  0.4573
  854MOL0     C15222   5.560   5.901  -0.084  1.0215 -0.6025 -0.1589
  854MOL0     H15223   5.885   5.366   0.082 -0.0983 -1.0555 -0.4075
  854MOL0     H15224   6.063   5.350   0.257 -2.3859  1.9263  1.1455
  854MOL0     H15225   6.233   5.333   0.397 -0.3835 -0.8953 -0.3492
  854MOL0     H15226   6.332   5.276   0.258 -0.6776  0.1282  0.2019
  854MOL0     H15227   6.428   5.456   0.495  3.4844  2.0332  0.3160
  854MOL0     H15228   6.513   5.436   0.351 -0.9735 -1.0992 -2.2950
  854MOL0     H15229   6.572   5.201   0.400 -0.9450  0.3882 -0.6402
  854MOL0     H15230   6.443   5.191   0.521 -1.3867  1.5317  0.6852
  854MOL0     H15231   6.589   5.388   0.634 -4.2085 -1.7588  0.2451
  854MOL0     H15232   6.659   5.221   0.639  0.5380  0.5253 -0.7753
  854MOL0     H15233   6.786   5.266   0.435 -2.0862 -1.3769  1.8163
  854MOL0     H15234   6.727   5.430   0.431 -1.6629  1.1415  2.9106
  854MOL0     H15235   6.819   5.475   0.637 -0.6708 -0.7687  0.1996
  854MOL0     H15236   6.894   5.324   0.664  0.4201  0.1391 -0.7031
  854MOL0     H15237   7.061   5.484   0.576 -0.4389 -1.3550  0.8435
  854MOL0     H15238   6.968   5.476   0.422 -1.6447  0.2497  0.1645
  854MOL0     H15239   7.108   5.247   0.560  4.3406  2.4606 -0.3190
  854MOL0     H15240   6.990   5.230   0.421  0.1026  0.1778 -0.5781
  854MOL0     H15241   7.113   5.177   0.211 -1.7658  0.6653 -0.0496
  854MOL0     H15242   7.320   5.272  -0.010  1.3580  1.1760 -0.0171
  854MOL0     H15243   7.475   5.276   0.074  1.0417 -0.5522 -3.5144
  854MOL0     H15244   7.388   5.039   0.185  2.0572 -0.0092  0.3097
  854MOL0     H15245   7.263   5.056   0.053  0.4142  1.4681 -0.5697
  854MOL0     H15246   7.458   5.097  -0.112 -0.5769  1.4857 -0.1034
  854MOL0     H15247   7.412   4.934  -0.056 -2.8512 -0.0696  1.3712
  854MOL0     H15248   7.632   5.092   0.096  0.5330  0.7284  0.0479
  854MOL0     H15249   7.668   4.996  -0.055 -1.4376  2.0158 -1.2366
  854MOL0     H15250   7.610   4.683   0.229  0.5523  0.2692 -1.3327
  854MOL0     H15251   7.824   4.576   0.336 -1.2616  0.6155  0.7595
  854MOL0     H15252   8.152   4.325   0.311 -1.9877 -1.7144  2.1877
  854MOL0     H15253   8.323   4.206   0.399 -1.7592 -0.4819 -1.0187
  854MOL0     H15254   8.533   4.111   0.471  2.2519 -1.7020  0.5827
  854MOL0     H15255   8.595   4.261   0.401  0.8918 -2.1994 -0.8809
  854MOL0     H15256   8.774   4.283   0.569  2.7806 -1.9202 -1.4333
  854MOL0     H15257   8.702   4.161   0.675 -1.3159 -0.6616  0.0202
  854MOL0     H15258   8.798   3.991   0.547 -1.3345  0.2039  0.3376
  854MOL0     H15259   8.751   4.062   0.395  1.0725  3.3713 -1.8246
  854MOL0     H15260   8.993   4.121   0.585 -0.1934  0.3030  0.3544
  854MOL0     H15261   8.963   4.236   0.463  1.0506 -0.3674  1.0347
  854MOL0     H15262   9.017   4.084   0.271 -0.0731  0.2909 -0.2594
  854MOL0     H15263   8.960   3.950   0.363  0.2667 -0.1639  0.1169
  854MOL0     H15264   9.166   3.985   0.512 -1.3279  2.6936 -0.0124
  854MOL0     H15265   9.193   3.915   0.344  0.8752 -0.2881  0.3407
  854MOL0     H15266   9.261   4.191   0.445 -0.0300  0.5803 -1.7858
  854MOL0     H15267   9.245   4.154   0.279 -1.7507  1.5000  1.0062
  854MOL0     H15268   9.437   4.010   0.482 -1.3376 -1.0308  0.2584
  854MOL0     H15269   9.406   3.965   0.307 -0.0657 -1.4711  0.9183
  854MOL0     H15270   8.418   4.515   0.674  0.3972 -1.5767  0.8160
  854MOL0     H15271   8.231   4.643   0.584  0.6751  0.0464 -1.4356
  854MOL0     H15272   8.036   4.940   0.241 -0.7861  0.8240  0.5420
  854MOL0     H15273   7.840   5.037   0.159  1.6693 -0.0334 -0.0520
  854MOL0     H15274   6.269   5.674   0.101  0.7793 -1.0866  0.1130
  854MOL0     H15275   6.091   5.722  -0.068 -1.1167  1.9882  0.8311
  854MOL0     H15276   5.718   5.484  -0.251 -1.9697 -2.3393  1.7985
  854MOL0     H15277   5.532   5.451  -0.369  1.2428 -0.3381  1.0020
  854MOL0     H15278   5.277   5.400  -0.347  3.7434  0.1328 -0.0483
  854MOL0     H15279   5.324   5.468  -0.501  2.6196 -0.5137  2.4904
  854MOL0     H15280   5.075   5.579  -0.488 -1.4831 -0.5909 -2.8051
  854MOL0     H15281   5.036   5.456  -0.370 -0.0667  1.4406  0.2071
  854MOL0     H15282   5.077   5.274  -0.509 -0.2850 -0.0993 -0.7873
  854MOL0     H15283   5.162   5.373  -0.633 -0.9167  1.1880 -1.3701
  854MOL0     H15284   4.913   5.496  -0.638 -0.8401 -0.8944 -1.3004
  854MOL0     H15285   4.934   5.355  -0.720 -0.4163 -0.0170  0.8876
  854MOL0     H15286   4.697   5.213  -0.403 -2.1883  1.6215  0.3272
  854MOL0     H15287   5.369   5.817  -0.234  0.9158  1.2462 -0.8758
  854MOL0     H15288   5.658   5.949  -0.077  0.7654 -0.1125  0.1653
  854MOL0     H15289   5.496   5.982  -0.120  3.2093  1.8701  1.1387
  854MOL0     H15290   5.533   5.887   0.021  2.3249  2.2592  0.6591
  855MOL0     O15291   9.197   7.288   7.265 -0.2996  1.3731  0.2891
  855MOL0     C15292   9.171   7.167   7.261 -0.2404  0.2107  0.1314
  855MOL0     O15293   9.218   7.079   7.351  0.4875  0.3523  0.2625
  855MOL0     C15294   9.282   7.133   7.456  0.2282  0.5979 -1.1128
  855MOL0     C15295   9.420   7.136   7.477 -0.5832 -0.0294 -1.3293
  855MOL0     C15296   9.487   7.195   7.586  0.7244 -0.2464 -0.3577
  855MOL0     C15297   9.412   7.288   7.667  0.2993  0.4631  0.5161
  855MOL0     O15298   9.476   7.355   7.767 -0.4931  0.7393  0.8280
  855MOL0     C15299   9.433   7.487   7.778 -0.4707  0.2847 -0.4560
  855MOL0     C15300   9.515   7.572   7.876  0.7297  0.3282  0.3211
  855MOL0     C15301   9.639   7.622   7.809 -1.1822 -0.1380 -0.6257
  855MOL0     C15302   9.721   7.694   7.911 -0.4973 -0.3941  0.4666
  855MOL0     C15303   9.867   7.692   7.864 -0.1360 -0.6526  0.7973
  855MOL0     C15304   9.933   7.552   7.884  0.0843 -1.0932 -0.7369
  855MOL0     C15305  10.082   7.561   7.844  0.0118  0.2253 -0.3411
  855MOL0     C15306  10.146   7.421   7.852  0.5674 -0.4323  0.3115
  855MOL0     N15307  10.284   7.417   7.799 -0.9575 -0.4361 -0.1757
  855MOL0     C15308  10.323   7.352   7.683  0.5439 -0.3403  0.0046
  855MOL0     C15309  10.453   7.361   7.683 -0.5192  0.3797 -0.1633
  855MOL0     C15310  10.537   7.314   7.576  0.4615  0.2796 -0.0091
  855MOL0     C15311  10.545   7.415   7.450  0.3082  0.4831  0.8427
  855MOL0     C15312  10.605   7.556   7.489 -0.4688  0.1607  0.4200
  855MOL0     C15313  10.757   7.533   7.520 -0.3402 -0.6595  0.8643
  855MOL0     O15314  10.825   7.661   7.510  0.1138  0.3943 -0.2178
  855MOL0     C15315  10.966   7.671   7.536  0.0492 -0.3161  0.5668
  855MOL0     C15316  11.048   7.556   7.556 -0.2801 -0.0364  0.0415
  855MOL0     C15317  11.178   7.568   7.602  0.3977  0.5472 -0.0083
  855MOL0     C15318  11.233   7.698   7.606 -0.6525  0.4031 -0.2393
  855MOL0     C15319  11.372   7.722   7.642 -0.0511  0.0494  0.0375
  855MOL0     O15320  11.423   7.855   7.650 -0.2951  0.4209 -0.3893
  855MOL0     C15321  11.551   7.875   7.697 -0.1032  0.2725  0.2448
  855MOL0     C15322  11.591   8.005   7.697 -0.3591  0.0563  0.5449
  855MOL0     C15323  11.708   8.063   7.751  0.3366  0.5651 -0.7741
  855MOL0     C15324  11.795   7.967   7.808  0.3954  1.1389  0.1863
  855MOL0     O15325  11.910   8.015   7.856 -0.3190 -0.2167 -0.1279
  855MOL0     C15326  11.898   8.130   7.933  0.9955  0.0048 -0.6889
  855MOL0     C15327  11.972   8.251   7.861  0.1427  0.3164 -0.2653
  855MOL0     C15328  12.114   8.213   7.821 -0.9822 -0.1427 -0.1358
  855MOL0     C15329  12.221   8.254   7.922 -0.1773 -0.2816  0.1574
  855MOL0     C15330  12.374   8.233   7.880  1.1642 -0.8719 -0.5983
  855MOL0     C15331  12.468   8.312   7.967 -0.4352 -0.2870  0.4385
  855MOL0     C15332  12.467   8.271   8.115  0.2320  0.3869  0.3652
  855MOL0     C15333  12.587   8.302   8.210  0.8042 -0.9331 -0.0247
  855MOL0    Cl15334  12.739   8.232   8.156  0.1525  0.0848  0.0275
  855MOL0     C15335  11.762   7.835   7.818  0.5121  0.2338  0.1543
  855MOL0     C15336  11.638   7.785   7.758  0.3986  0.1210 -0.3347
  855MOL0     O15337  11.436   7.618   7.659 -0.1242 -1.0602  0.6156
  855MOL0     C15338  11.152   7.807   7.573 -0.4669  0.0308 -0.6970
  855MOL0     C15339  11.019   7.796   7.547 -0.0140  0.4128  0.1352
  855MOL0     N15340  10.493   7.439   7.787 -1.2609  0.4421  0.3688
  855MOL0     N15341  10.394   7.475   7.863 -0.3645 -0.6415  0.6033
  855MOL0     C15342   9.277   7.294   7.645 -0.7809 -0.2846  0.3150
  855MOL0     C15343   9.209   7.217   7.551  0.5653  0.2823  0.1134
  855MOL0     C15344   9.083   7.129   7.143 -0.3995  0.0833 -0.9176
  855MOL0     C15345   9.061   7.216   7.035  0.1479  0.3196 -0.4381
  855MOL0     C15346   8.966   7.189   6.937 -0.2353 -0.0100 -0.8045
  855MOL0     C15347   8.897   7.071   6.943  0.2350  0.0164  0.4531
  855MOL0     O15348   8.801   7.035   6.851  0.7091 -0.6379  0.4157
  855MOL0     C15349   8.751   7.131   6.749  0.5536 -1.1179 -0.3648
  855MOL0     C15350   8.648   7.064   6.666 -0.2238  0.3690  0.1373
  855MOL0     C15351   8.518   7.062   6.741 -0.0517 -0.3371  0.1012
  855MOL0     C15352   8.404   7.009   6.650 -0.3512  0.2862 -0.2788
  855MOL0     C15353   8.425   6.874   6.615 -0.0935 -0.0178  0.8886
  855MOL0     C15354   8.443   6.755   6.623 -0.4387  0.8271  0.6795
  855MOL0     C15355   8.921   6.978   7.044  0.3793  0.1253  0.0731
  855MOL0     C15356   9.010   7.002   7.146 -0.0069  0.6391  0.4712
  855MOL0     C15357   9.006   6.896   7.252  0.0680  0.1538 -0.1858
  855MOL0     H15358   9.487   7.093   7.403  1.8023  1.5841 -0.2549
  855MOL0     H15359   9.595   7.183   7.595  0.5505 -1.4058  0.3878
  855MOL0     H15360   9.446   7.530   7.678  2.0513  0.6994 -0.0178
  855MOL0     H15361   9.327   7.496   7.803 -0.8099 -0.3062 -1.5923
  855MOL0     H15362   9.539   7.492   7.948  1.0101  0.4770  0.3929
  855MOL0     H15363   9.470   7.656   7.930 -0.1113  0.3838 -0.4527
  855MOL0     H15364   9.612   7.694   7.731  0.9616  0.8010 -0.5833
  855MOL0     H15365   9.690   7.533   7.770  1.5188 -0.4277  3.0788
  855MOL0     H15366   9.684   7.796   7.921 -0.4620 -0.4654  1.3695
  855MOL0     H15367   9.714   7.645   8.009 -0.9054 -1.3259 -0.0087
  855MOL0     H15368   9.869   7.719   7.758  1.1493  1.2538  1.2469
  855MOL0     H15369   9.929   7.763   7.920  0.9689  0.9603 -2.2555
  855MOL0     H15370   9.916   7.535   7.990 -0.1658 -1.8716 -0.8935
  855MOL0     H15371   9.890   7.478   7.815  0.7900 -1.8236 -0.4122
  855MOL0     H15372  10.141   7.615   7.919  1.7792 -0.2455 -1.3262
  855MOL0     H15373  10.094   7.601   7.743 -0.7182 -2.6201 -1.6714
  855MOL0     H15374  10.154   7.401   7.959  3.0435  2.3065  0.7789
  855MOL0     H15375  10.089   7.343   7.801  1.8637  0.4073 -2.6607
  855MOL0     H15376  10.269   7.301   7.604  1.7277  2.7560 -3.0569
  855MOL0     H15377  10.638   7.297   7.615 -0.2974  0.6854  2.2624
  855MOL0     H15378  10.494   7.222   7.537 -1.9748  1.2515  0.2384
  855MOL0     H15379  10.608   7.375   7.370 -0.4575  1.5638 -0.3339
  855MOL0     H15380  10.448   7.416   7.400  0.9307 -1.3626 -0.5191
  855MOL0     H15381  10.549   7.609   7.567 -0.3479  0.6101  0.2041
  855MOL0     H15382  10.597   7.607   7.392 -3.6324 -0.9657 -0.0485
  855MOL0     H15383  10.800   7.467   7.445  1.1785  0.6452  0.5307
  855MOL0     H15384  10.771   7.481   7.615  0.8639 -2.6783 -0.3503
  855MOL0     H15385  11.008   7.455   7.553  1.4155 -0.7479 -0.2017
  855MOL0     H15386  11.241   7.487   7.638 -1.0200  0.4746  2.5615
  855MOL0     H15387  11.524   8.080   7.654  1.5234  0.2336 -2.3629
  855MOL0     H15388  11.717   8.171   7.743 -0.4276  0.6022 -1.2381
  855MOL0     H15389  11.799   8.165   7.963  0.8170  0.5283 -1.8466
  855MOL0     H15390  11.964   8.110   8.018  1.4359  1.1185 -0.7605
  855MOL0     H15391  11.917   8.269   7.768 -0.6892 -2.3424 -0.3845
  855MOL0     H15392  11.964   8.339   7.925  0.5413 -0.2100  0.5312
  855MOL0     H15393  12.131   8.107   7.801  3.8965 -0.1822  2.6427
  855MOL0     H15394  12.138   8.268   7.730 -2.7314  0.2798 -0.3705
  855MOL0     H15395  12.214   8.208   8.021  2.1284 -2.3752 -0.5421
  855MOL0     H15396  12.190   8.355   7.947  0.4938 -0.4414  1.8006
  855MOL0     H15397  12.378   8.274   7.778 -2.4286 -0.0781 -0.5610
  855MOL0     H15398  12.396   8.126   7.870  3.3154 -0.9633  3.1887
  855MOL0     H15399  12.562   8.289   7.916 -0.1224 -0.6480  1.1678
  855MOL0     H15400  12.429   8.415   7.971  0.5528  0.1708 -1.1272
  855MOL0     H15401  12.447   8.164   8.122 -0.9433  0.6563  1.6816
  855MOL0     H15402  12.378   8.323   8.152 -0.4561 -0.3425 -0.2291
  855MOL0     H15403  12.593   8.411   8.209 -1.3812 -0.7294  1.3553
  855MOL0     H15404  12.556   8.267   8.309 -2.6927  0.2838 -0.5434
  855MOL0     H15405  11.826   7.759   7.861 -2.7401 -2.8349  0.0553
  855MOL0     H15406  11.617   7.682   7.784  0.4361  0.3876  0.8063
  855MOL0     H15407  11.187   7.907   7.552 -1.4631  0.8568  1.2884
  855MOL0     H15408  10.961   7.888   7.542 -0.9396  0.0197  2.3068
  855MOL0     H15409   9.214   7.347   7.716 -0.0329  2.2603 -0.8109
  855MOL0     H15410   9.101   7.223   7.543  0.3289 -1.3078  1.6135
  855MOL0     H15411   9.116   7.310   7.042 -0.9294  0.8682  1.4881
  855MOL0     H15412   8.958   7.265   6.859  0.7852  0.2997 -0.6238
  855MOL0     H15413   8.839   7.158   6.690 -0.2638  1.0809 -0.6540
  855MOL0     H15414   8.731   7.226   6.800  3.8086  0.7083 -2.1368
  855MOL0     H15415   8.674   6.961   6.637  1.7944  0.1063  2.5549
  855MOL0     H15416   8.635   7.127   6.578  3.0851  2.3013  0.8598
  855MOL0     H15417   8.480   7.162   6.766  1.9307  0.5736 -0.3502
  855MOL0     H15418   8.525   7.013   6.838  2.2696  0.6837  0.5131
  855MOL0     H15419   8.307   7.025   6.697 -1.4392  2.1235 -2.9368
  855MOL0     H15420   8.389   7.083   6.571 -1.1546 -1.0800 -1.4496
  855MOL0     H15421   8.453   6.649   6.618  1.6570  0.9926  0.7357
  855MOL0     H15422   8.858   6.894   7.073 -1.1607  1.8083  1.9098
  855MOL0     H15423   8.947   6.929   7.338  1.3267 -1.7350  1.4801
  855MOL0     H15424   8.961   6.800   7.223  0.0779  0.7765 -2.4704
  855MOL0     H15425   9.104   6.869   7.292  0.2294  0.4377 -0.3867
  856MOL0     O15426  11.338   2.138   1.458 -0.2962 -0.2060  0.1953
  856MOL0     C15427  11.234   2.120   1.528 -1.4819 -0.6563 -0.0751
  856MOL0     O15428  11.232   2.137   1.661  0.0934  0.5765  0.0538
  856MOL0     C15429  11.340   2.196   1.710 -0.4022 -0.7400 -0.1444
  856MOL0     C15430  11.380   2.322   1.670 -0.3629  0.3172  1.4266
  856MOL0     C15431  11.493   2.377   1.728 -0.2866  0.3662  0.6818
  856MOL0     C15432  11.576   2.310   1.819 -0.7137  0.2131 -0.5199
  856MOL0     O15433  11.693   2.368   1.869  0.6920 -0.5002 -0.1909
  856MOL0     C15434  11.773   2.443   1.773 -0.6347 -0.7511 -0.6009
  856MOL0     C15435  11.910   2.465   1.834 -1.6336 -0.4411 -0.3679
  856MOL0     C15436  12.007   2.355   1.805 -0.0016 -0.1516  0.4108
  856MOL0     C15437  12.137   2.377   1.874 -0.3159  0.1102  0.3090
  856MOL0     C15438  12.260   2.290   1.818  0.0320 -0.2246 -1.1812
  856MOL0     C15439  12.405   2.346   1.851  1.3807 -0.5437 -0.5917
  856MOL0     C15440  12.498   2.228   1.863  0.5171 -1.1274 -0.4698
  856MOL0     C15441  12.642   2.275   1.896  0.6364 -0.0525 -0.2581
  856MOL0     N15442  12.723   2.161   1.937  0.3246 -0.2583 -0.0692
  856MOL0     C15443  12.723   2.096   2.057 -1.3717 -0.2179 -0.6298
  856MOL0     C15444  12.830   2.023   2.049 -0.4879 -0.1300  0.5275
  856MOL0     C15445  12.887   1.964   2.172  0.6398 -0.3015 -0.1666
  856MOL0     C15446  12.924   1.817   2.164  0.1017  0.5015  1.1506
  856MOL0     C15447  13.005   1.772   2.275  0.5446 -0.3794 -0.7088
  856MOL0     C15448  13.026   1.621   2.256  0.2280  0.6299 -1.4980
  856MOL0     O15449  13.098   1.567   2.363  0.4633 -0.3928  0.4140
  856MOL0     C15450  13.235   1.560   2.356  0.3491  0.2968 -1.0104
  856MOL0     C15451  13.324   1.624   2.267  0.7464  0.8866  0.7412
  856MOL0     C15452  13.457   1.596   2.266 -0.1715  0.4204  0.8089
  856MOL0     C15453  13.511   1.497   2.350  0.3964  0.2515 -0.9141
  856MOL0     C15454  13.657   1.463   2.347  1.1158 -0.1750 -0.1457
  856MOL0     O15455  13.718   1.404   2.457  0.7469 -0.0055 -0.1375
  856MOL0     C15456  13.841   1.353   2.441 -0.4416 -0.5036 -0.1259
  856MOL0     C15457  13.874   1.263   2.336  0.3810  0.2583  0.4594
  856MOL0     C15458  14.010   1.224   2.327  0.0252  0.0365  0.8161
  856MOL0     C15459  14.102   1.260   2.427  0.2465 -1.0350 -0.5527
  856MOL0     O15460  14.224   1.198   2.407 -0.3084 -0.4675  0.1690
  856MOL0     C15461  14.348   1.274   2.445 -0.8743 -0.4019 -0.2963
  856MOL0     C15462  14.386   1.230   2.587 -0.2087  0.5466  1.0449
  856MOL0     C15463  14.513   1.303   2.636 -0.0019  0.7494 -0.4454
  856MOL0     C15464  14.577   1.239   2.757 -0.0338 -0.0091 -0.2780
  856MOL0     C15465  14.718   1.294   2.775  0.3238 -0.9535 -0.0383
  856MOL0     C15466  14.787   1.220   2.892  0.6497  0.0565 -1.0494
  856MOL0     C15467  14.932   1.263   2.913 -0.4754 -0.6349  0.4795
  856MOL0     C15468  15.000   1.177   3.024 -0.4242  0.5202  0.3151
  856MOL0    Cl15469  15.179   1.183   3.000 -0.0096  0.3439 -0.1363
  856MOL0     C15470  14.069   1.362   2.514 -0.2176 -0.0152 -0.5735
  856MOL0     C15471  13.941   1.415   2.514 -0.1943  0.3704 -1.1399
  856MOL0     O15472  13.706   1.479   2.233 -1.2402 -0.2409  0.2239
  856MOL0     C15473  13.421   1.430   2.445  0.3670 -0.0430  0.0102
  856MOL0     C15474  13.284   1.464   2.442  0.3512 -0.1090 -0.9225
  856MOL0     N15475  12.884   2.035   1.923 -0.2236 -0.7752 -0.0297
  856MOL0     N15476  12.822   2.121   1.861 -0.1426 -0.5920  0.2028
  856MOL0     C15477  11.538   2.175   1.851 -1.1119 -0.1378  0.0967
  856MOL0     C15478  11.420   2.117   1.796 -0.2091 -0.4151  0.2292
  856MOL0     C15479  11.125   2.062   1.457  0.4754 -0.3882 -0.0492
  856MOL0     C15480  11.138   1.993   1.332  1.2981 -1.1148 -0.2457
  856MOL0     C15481  11.033   1.921   1.281  0.5087  0.6992 -0.3529
  856MOL0     C15482  10.904   1.909   1.350 -0.1342 -0.0306 -0.4892
  856MOL0     O15483  10.813   1.818   1.304  0.0653 -0.7498  0.6762
  856MOL0     C15484  10.759   1.731   1.407 -0.7141 -0.1985  0.4222
  856MOL0     C15485  10.649   1.638   1.347  0.7122  0.4319  0.3543
  856MOL0     C15486  10.717   1.547   1.241 -0.0337 -0.3026 -0.0456
  856MOL0     C15487  10.646   1.405   1.219 -0.0290 -0.9608  0.0248
  856MOL0     C15488  10.513   1.418   1.166  0.2336  0.3732 -0.0420
  856MOL0     C15489  10.399   1.429   1.119 -0.2783  0.4201  0.0141
  856MOL0     C15490  10.884   2.003   1.446  0.0680 -0.5802  0.0972
  856MOL0     C15491  10.989   2.076   1.502 -0.3463  1.1075 -0.7289
  856MOL0     C15492  10.958   2.174   1.611  1.1469 -0.3455  0.7770
  856MOL0     H15493  11.332   2.382   1.592  2.1882  1.0492  0.3304
  856MOL0     H15494  11.516   2.482   1.716 -0.3807  0.2080 -1.1693
  856MOL0     H15495  11.778   2.394   1.675 -0.8714 -0.6082 -0.6857
  856MOL0     H15496  11.716   2.536   1.779 -1.0073 -1.0370  0.5773
  856MOL0     H15497  11.903   2.471   1.943  3.1636 -3.2882  0.3840
  856MOL0     H15498  11.951   2.558   1.794  0.7751 -0.9486  0.7383
  856MOL0     H15499  12.016   2.335   1.698  1.6764 -0.0413  0.5092
  856MOL0     H15500  11.962   2.276   1.865  0.6728  0.1442  1.3400
  856MOL0     H15501  12.166   2.482   1.884 -1.3350  0.4501 -0.1873
  856MOL0     H15502  12.118   2.341   1.975 -1.0203  1.2138  0.5927
  856MOL0     H15503  12.257   2.192   1.867  0.7311  1.7223  3.2833
  856MOL0     H15504  12.259   2.303   1.710  0.4407  1.9591 -0.9636
  856MOL0     H15505  12.440   2.419   1.777  0.9150 -0.5294 -0.8038
  856MOL0     H15506  12.393   2.401   1.945  0.6145 -1.3629 -0.2001
  856MOL0     H15507  12.509   2.185   1.763 -0.1095 -0.4341 -0.8483
  856MOL0     H15508  12.465   2.147   1.928  0.3355  0.8282  2.0253
  856MOL0     H15509  12.680   2.311   1.801 -2.9622  2.6263 -0.9076
  856MOL0     H15510  12.645   2.355   1.971  0.6915  2.0435 -2.3668
  856MOL0     H15511  12.664   2.118   2.146 -2.8741  0.5594 -1.7710
  856MOL0     H15512  12.979   2.021   2.186 -0.0875  1.2893 -1.5658
  856MOL0     H15513  12.819   1.980   2.256  1.6033  1.4768  0.3302
  856MOL0     H15514  12.834   1.758   2.147 -0.0833  0.9976  0.3565
  856MOL0     H15515  12.977   1.803   2.069  0.8276  2.6698  1.1709
  856MOL0     H15516  12.955   1.797   2.369  0.8305 -2.7814  0.1534
  856MOL0     H15517  13.102   1.821   2.276 -0.1871  1.2643 -2.9346
  856MOL0     H15518  13.075   1.590   2.163  2.0658  0.1154 -0.4060
  856MOL0     H15519  12.926   1.579   2.263  0.2264  0.9311  1.0765
  856MOL0     H15520  13.295   1.707   2.204  1.4670  0.6510  0.0886
  856MOL0     H15521  13.523   1.637   2.190 -0.4799  1.9791  1.3350
  856MOL0     H15522  13.799   1.221   2.270  1.6975  0.4518 -1.2350
  856MOL0     H15523  14.049   1.154   2.253 -0.3079  1.0593 -0.3741
  856MOL0     H15524  14.434   1.241   2.387 -0.0426  1.3556 -0.1377
  856MOL0     H15525  14.337   1.382   2.457  1.0503 -0.3574  1.5608
  856MOL0     H15526  14.304   1.236   2.660  0.0545  1.1188  1.3063
  856MOL0     H15527  14.410   1.124   2.584 -1.3949  0.1261  3.6841
  856MOL0     H15528  14.588   1.289   2.558  0.4120  0.5033 -0.0022
  856MOL0     H15529  14.493   1.411   2.643 -0.3459  0.5944  1.5091
  856MOL0     H15530  14.586   1.131   2.739  2.2833  0.0979 -0.0925
  856MOL0     H15531  14.524   1.259   2.850 -1.3701  2.7599 -1.5429
  856MOL0     H15532  14.719   1.401   2.797 -0.6699 -0.4009 -2.3468
  856MOL0     H15533  14.771   1.276   2.681  1.0791 -1.3900  0.4568
  856MOL0     H15534  14.732   1.249   2.981  4.2564  0.8024  1.1265
  856MOL0     H15535  14.797   1.114   2.866  1.9055 -0.2296  0.4621
  856MOL0     H15536  14.941   1.370   2.936  4.1106 -1.0640  1.5775
  856MOL0     H15537  14.970   1.241   2.813 -1.6770  2.2704 -0.7266
  856MOL0     H15538  14.975   1.216   3.123 -1.2497  3.8191 -1.0814
  856MOL0     H15539  14.966   1.073   3.013  0.4207  0.4855 -3.5034
  856MOL0     H15540  14.143   1.377   2.592 -0.7624 -0.2292 -0.0101
  856MOL0     H15541  13.911   1.497   2.578 -3.8462 -0.4852 -1.5382
  856MOL0     H15542  13.457   1.357   2.517 -0.1288  1.3317  1.7315
  856MOL0     H15543  13.215   1.413   2.508  2.4466  1.0009  2.3603
  856MOL0     H15544  11.603   2.113   1.912 -1.2197  0.5435  0.9185
  856MOL0     H15545  11.386   2.016   1.816 -1.0152 -0.0075  0.9768
  856MOL0     H15546  11.235   1.982   1.284  0.1084  0.1533 -3.1283
  856MOL0     H15547  11.055   1.862   1.193  1.0465 -0.4403  0.5235
  856MOL0     H15548  10.714   1.797   1.481 -0.6743  0.4845 -0.1515
  856MOL0     H15549  10.846   1.681   1.450 -0.1331  0.9071  0.5777
  856MOL0     H15550  10.577   1.701   1.294  0.0135  0.4925  1.3510
  856MOL0     H15551  10.605   1.577   1.426  2.4167 -0.9194  0.3407
  856MOL0     H15552  10.822   1.523   1.261 -0.5927 -2.0631  1.0218
  856MOL0     H15553  10.712   1.597   1.144  2.4799 -0.8406 -0.5242
  856MOL0     H15554  10.703   1.358   1.138  0.8853 -5.2725  2.8842
  856MOL0     H15555  10.638   1.345   1.309 -0.7081 -0.1065  0.5548
  856MOL0     H15556  10.304   1.426   1.070 -2.3728  3.3928  3.4127
  856MOL0     H15557  10.788   2.013   1.495 -1.2566 -0.7301 -2.3489
  856MOL0     H15558  11.015   2.267   1.602 -2.2653  1.7632 -1.7746
  856MOL0     H15559  10.852   2.202   1.610  2.2622  5.1823  1.8560
  856MOL0     H15560  10.968   2.129   1.710  0.0825 -3.1772 -0.2819
  857MOL0     O15561   3.751   1.460   9.964  0.3931  0.7361  0.1642
  857MOL0     C15562   3.739   1.351  10.017 -0.2694  0.9412  0.6723
  857MOL0     O15563   3.626   1.280  10.031  0.7527  0.0627 -0.4194
  857MOL0     C15564   3.528   1.325   9.955 -0.2904  0.9085 -0.8342
  857MOL0     C15565   3.504   1.249   9.844 -0.5674 -0.2672  0.0312
  857MOL0     C15566   3.405   1.284   9.754  0.6635  0.0624  0.4306
  857MOL0     C15567   3.319   1.387   9.781 -0.5291 -0.3145  0.1678
  857MOL0     O15568   3.225   1.424   9.689  0.1188 -0.0109 -0.4660
  857MOL0     C15569   3.142   1.540   9.718 -0.2657 -0.0232 -1.0304
  857MOL0     C15570   3.056   1.569   9.601 -0.3147 -0.2226  0.7356
  857MOL0     C15571   3.130   1.640   9.489  0.4440  0.6101 -0.5455
  857MOL0     C15572   3.153   1.535   9.374  0.7856  0.2095  0.4709
  857MOL0     C15573   3.228   1.586   9.248  0.4062  0.2210  0.1421
  857MOL0     C15574   3.374   1.617   9.276 -0.1727 -0.7003 -0.2175
  857MOL0     C15575   3.459   1.500   9.324  0.6596 -0.1028  0.7594
  857MOL0     C15576   3.609   1.532   9.332 -0.5008  0.4426 -0.7429
  857MOL0     N15577   3.673   1.398   9.358  0.0386 -0.4916 -0.3872
  857MOL0     C15578   3.694   1.344   9.483 -0.4093  0.1919  0.1460
  857MOL0     C15579   3.743   1.225   9.449  0.4176 -0.4064  0.2425
  857MOL0     C15580   3.779   1.119   9.541  0.4441 -0.3298 -0.2089
  857MOL0     C15581   3.926   1.138   9.561 -0.0449  0.4625  1.2857
  857MOL0     C15582   4.007   1.025   9.502  0.3681 -0.3978 -0.0468
  857MOL0     C15583   4.151   1.055   9.465  0.5422 -0.4079  0.4974
  857MOL0     O15584   4.231   1.063   9.583 -0.0258  0.0352 -0.3859
  857MOL0     C15585   4.367   1.024   9.575 -0.6540  0.3288 -0.4201
  857MOL0     C15586   4.411   0.911   9.496  0.9269 -0.6568 -1.4420
  857MOL0     C15587   4.554   0.885   9.491  0.4173  0.2080 -0.9918
  857MOL0     C15588   4.650   0.965   9.561  0.1787 -0.4972 -0.1092
  857MOL0     C15589   4.799   0.938   9.548  0.2895 -0.4490  0.7388
  857MOL0     O15590   4.839   0.829   9.488 -0.3113  0.6952  0.0012
  857MOL0     C15591   4.973   0.826   9.458  0.0015 -0.2329  0.1832
  857MOL0     C15592   5.021   0.868   9.334  0.1385  0.6616 -0.6840
  857MOL0     C15593   5.150   0.858   9.298 -0.6283 -0.6463 -0.4753
  857MOL0     C15594   5.240   0.789   9.383 -0.7326  0.7361 -0.4835
  857MOL0     O15595   5.377   0.778   9.356 -0.2779 -0.4834 -0.3063
  857MOL0     C15596   5.445   0.857   9.256 -0.5875  0.7863 -0.4923
  857MOL0     C15597   5.590   0.803   9.240 -0.8994 -0.1477 -0.4677
  857MOL0     C15598   5.695   0.846   9.349 -0.3480  0.1611  0.6074
  857MOL0     C15599   5.837   0.802   9.307 -0.7526  0.7100 -0.7400
  857MOL0     C15600   5.847   0.647   9.313  0.5862 -0.4535  0.2304
  857MOL0     C15601   5.990   0.599   9.294 -0.2363  0.0613 -0.0286
  857MOL0     C15602   6.006   0.439   9.291 -0.0234 -1.0281 -0.2553
  857MOL0     C15603   6.156   0.387   9.285 -0.5274  0.5104  0.4389
  857MOL0    Cl15604   6.138   0.216   9.243 -0.4094 -0.4368 -0.1188
  857MOL0     C15605   5.194   0.750   9.514  0.5146  0.4821 -0.3867
  857MOL0     C15606   5.060   0.772   9.550  0.9902 -0.8362 -0.3042
  857MOL0     O15607   4.870   1.028   9.602 -0.2878  0.7625  0.7071
  857MOL0     C15608   4.596   1.065   9.647 -0.2366 -0.2769 -1.3707
  857MOL0     C15609   4.458   1.100   9.656 -0.2018  0.5438  0.0094
  857MOL0     N15610   3.777   1.225   9.317 -0.0231 -0.0634  0.4520
  857MOL0     N15611   3.733   1.330   9.260 -0.1317 -0.5169  0.1313
  857MOL0     C15612   3.327   1.442   9.904  0.3258 -0.6647  0.3546
  857MOL0     C15613   3.438   1.427   9.985  0.7091  0.0162 -0.3411
  857MOL0     C15614   3.858   1.303  10.095  0.1698  0.1666  0.2727
  857MOL0     C15615   3.830   1.239  10.214 -0.2405  1.2125 -0.6753
  857MOL0     C15616   3.935   1.217  10.313 -0.1708  0.4912  0.5740
  857MOL0     C15617   4.067   1.263  10.289  0.6355  0.5918  0.5248
  857MOL0     O15618   4.153   1.238  10.391 -0.1727 -0.6918 -0.2290
  857MOL0     C15619   4.301   1.256  10.368  0.2646 -0.8545 -0.0973
  857MOL0     C15620   4.375   1.194  10.485 -0.8135 -0.2631 -0.7544
  857MOL0     C15621   4.379   1.045  10.482 -0.0702  0.4480  0.1033
  857MOL0     C15622   4.445   0.985  10.607  0.5845 -0.2972  0.6260
  857MOL0     C15623   4.343   0.981  10.710  0.6105 -0.3785 -0.3926
  857MOL0     C15624   4.256   0.972  10.797  0.7813  0.2071  0.4952
  857MOL0     C15625   4.095   1.324  10.168 -0.0382  0.1579  0.2605
  857MOL0     C15626   3.991   1.337  10.067 -0.2852  0.3022  0.3495
  857MOL0     C15627   4.029   1.405   9.938 -0.3512  0.3172 -0.4757
  857MOL0     H15628   3.574   1.167   9.831 -0.1696 -0.0239  0.5881
  857MOL0     H15629   3.385   1.232   9.661  0.2202  2.3804 -0.8621
  857MOL0     H15630   3.084   1.520   9.809  2.2495  0.1978  0.7234
  857MOL0     H15631   3.202   1.631   9.724  3.4961 -2.2017 -2.4412
  857MOL0     H15632   2.973   1.633   9.630 -0.7612 -0.3681 -0.1577
  857MOL0     H15633   3.002   1.481   9.563 -0.3276  0.5383 -1.1007
  857MOL0     H15634   3.226   1.683   9.516 -0.3453  2.7949 -1.0351
  857MOL0     H15635   3.067   1.718   9.445 -0.4829 -1.4674 -3.1738
  857MOL0     H15636   3.210   1.451   9.413  2.7183  1.6495  0.8864
  857MOL0     H15637   3.061   1.483   9.346 -0.0952  1.0215  1.7654
  857MOL0     H15638   3.212   1.515   9.166  0.6215  1.9969 -1.5236
  857MOL0     H15639   3.174   1.673   9.208 -4.0720 -2.7736 -0.9829
  857MOL0     H15640   3.427   1.664   9.193  0.8432 -1.9965 -0.3420
  857MOL0     H15641   3.378   1.690   9.358 -0.3798 -0.3132 -0.5491
  857MOL0     H15642   3.443   1.424   9.248  0.7495  0.2298  0.4083
  857MOL0     H15643   3.421   1.474   9.424 -0.8397  0.7258  0.4374
  857MOL0     H15644   3.638   1.573   9.234 -0.9521  4.2998  0.5554
  857MOL0     H15645   3.643   1.606   9.405 -0.7102 -0.2608  0.0832
  857MOL0     H15646   3.670   1.376   9.584  1.4723  0.4928  0.5352
  857MOL0     H15647   3.727   1.139   9.635  2.3621  0.2008  0.7842
  857MOL0     H15648   3.763   1.021   9.496  2.4084 -2.3531  3.1047
  857MOL0     H15649   3.959   1.232   9.515 -1.4893  1.3108  1.9258
  857MOL0     H15650   3.958   1.162   9.663 -0.8899  2.3209  1.1445
  857MOL0     H15651   3.962   0.995   9.407 -1.8592 -1.0433  1.1289
  857MOL0     H15652   4.009   0.939   9.569  0.7066  1.4419  2.4459
  857MOL0     H15653   4.163   1.150   9.412 -0.2394 -0.9404 -0.6643
  857MOL0     H15654   4.186   0.979   9.395 -1.4812 -0.4480 -0.5357
  857MOL0     H15655   4.330   0.865   9.439 -0.6847  0.1726  0.0809
  857MOL0     H15656   4.587   0.801   9.430 -0.1758 -1.1676  0.5247
  857MOL0     H15657   4.952   0.908   9.261  1.2544  0.5120 -1.8647
  857MOL0     H15658   5.194   0.902   9.209  0.0472 -0.8054 -0.2300
  857MOL0     H15659   5.402   0.840   9.157  0.2257 -1.7266 -0.4772
  857MOL0     H15660   5.451   0.962   9.287  0.3483  1.0218 -1.3853
  857MOL0     H15661   5.603   0.698   9.212  2.0141 -1.0148  3.2838
  857MOL0     H15662   5.620   0.858   9.150 -0.6355 -2.1975 -1.7002
  857MOL0     H15663   5.694   0.952   9.377  0.4778  0.3217  0.0807
  857MOL0     H15664   5.665   0.791   9.439 -1.0112  0.2589  0.4491
  857MOL0     H15665   5.901   0.838   9.389  1.9402 -1.7730 -1.5435
  857MOL0     H15666   5.877   0.851   9.218 -1.0246  0.2287 -1.1273
  857MOL0     H15667   5.781   0.603   9.237  0.7426 -1.3119  0.5894
  857MOL0     H15668   5.807   0.618   9.410 -0.1012 -4.3258 -1.0547
  857MOL0     H15669   6.030   0.632   9.198  1.7415 -1.4050  0.2264
  857MOL0     H15670   6.057   0.648   9.366 -0.8610  1.9559 -0.6736
  857MOL0     H15671   5.948   0.401   9.206 -0.4109  1.7368 -1.3056
  857MOL0     H15672   5.960   0.399   9.382 -0.2336  0.8737  0.5112
  857MOL0     H15673   6.205   0.447   9.208 -3.7178  1.6917 -0.8591
  857MOL0     H15674   6.201   0.401   9.383 -2.3582  0.4757  1.3232
  857MOL0     H15675   5.257   0.704   9.590 -1.0065  0.1136  0.7103
  857MOL0     H15676   5.030   0.764   9.654  0.9646  2.0091 -0.0160
  857MOL0     H15677   4.673   1.123   9.698  0.5992 -2.4089 -0.0406
  857MOL0     H15678   4.432   1.185   9.718  1.9649  0.9562  0.4393
  857MOL0     H15679   3.252   1.500   9.956  0.1282 -1.1978  0.6680
  857MOL0     H15680   3.451   1.483  10.078 -0.8958 -0.8651  0.4581
  857MOL0     H15681   3.734   1.204  10.250  1.1525 -1.2137  1.0016
  857MOL0     H15682   3.894   1.164  10.399  0.8358 -0.3773  0.5383
  857MOL0     H15683   4.332   1.361  10.361  0.5187 -1.0118 -1.7538
  857MOL0     H15684   4.332   1.205  10.276  1.3012 -2.5535  1.1292
  857MOL0     H15685   4.344   1.232  10.583  1.5259 -0.7310  0.2407
  857MOL0     H15686   4.482   1.216  10.485  0.0711 -3.8812  0.4832
  857MOL0     H15687   4.443   1.019  10.397  0.7036  0.4750  0.6677
  857MOL0     H15688   4.277   1.008  10.470 -0.2941  0.7660  0.9504
  857MOL0     H15689   4.485   0.885  10.586 -0.9152 -1.7102  3.7375
  857MOL0     H15690   4.530   1.049  10.633  1.4977 -1.1652 -0.1563
  857MOL0     H15691   4.187   0.954  10.877  0.0289 -2.6766 -0.6899
  857MOL0     H15692   4.198   1.347  10.141 -0.8234  3.4128 -0.5035
  857MOL0     H15693   4.138   1.402   9.937 -0.3667 -0.6769 -0.9685
  857MOL0     H15694   4.004   1.346   9.849  1.7753  0.0791 -0.9719
  857MOL0     H15695   3.995   1.509   9.934 -1.3505 -0.0293 -2.6636
  858MOL0     O15696   0.231   4.096   4.730  0.4947 -0.2456 -0.5736
  858MOL0     C15697   0.161   4.011   4.675  0.0918  1.1376 -0.0337
  858MOL0     O15698   0.203   3.909   4.594 -0.4842  0.0606  0.5934
  858MOL0     C15699   0.337   3.876   4.588 -1.3713  0.0546  0.4815
  858MOL0     C15700   0.443   3.911   4.681  0.2758 -0.2051  0.1214
  858MOL0     C15701   0.572   3.871   4.652 -0.8961 -0.1590  0.5873
  858MOL0     C15702   0.600   3.794   4.533  0.9487 -1.0952  0.1392
  858MOL0     O15703   0.723   3.764   4.495  0.6105 -0.1476  0.1836
  858MOL0     C15704   0.805   3.705   4.596  0.5815  0.2773  0.0463
  858MOL0     C15705   0.925   3.620   4.547  0.0162 -0.6625  0.6771
  858MOL0     C15706   1.040   3.694   4.473  0.0228  0.0244 -0.8601
  858MOL0     C15707   1.136   3.584   4.425  1.0853 -0.2281 -0.0321
  858MOL0     C15708   1.257   3.640   4.351  0.6708 -0.4826 -0.8586
  858MOL0     C15709   1.281   3.561   4.222  0.2755  0.1756  0.7903
  858MOL0     C15710   1.409   3.607   4.148 -0.3734  0.4853  0.7399
  858MOL0     C15711   1.543   3.556   4.197  0.1798  0.5103  0.2279
  858MOL0     N15712   1.674   3.619   4.156  0.4397 -0.4189  0.1128
  858MOL0     C15713   1.705   3.686   4.036 -0.7032 -0.2250  0.3167
  858MOL0     C15714   1.839   3.708   4.036  0.0439  0.6468 -0.1590
  858MOL0     C15715   1.931   3.765   3.930  0.2809 -0.6803  0.0171
  858MOL0     C15716   1.921   3.921   3.935  0.2722  0.6682  0.3412
  858MOL0     C15717   1.990   3.985   3.826  1.0702 -0.2690 -0.2249
  858MOL0     C15718   2.134   3.945   3.812 -0.2109  0.2774  0.0702
  858MOL0     O15719   2.200   4.059   3.757  0.3900  0.2705 -0.2469
  858MOL0     C15720   2.333   4.053   3.723 -0.7766  0.3445 -0.5289
  858MOL0     C15721   2.406   3.935   3.690 -0.8601 -0.2578 -0.4257
  858MOL0     C15722   2.544   3.935   3.653 -0.1043  0.3294 -0.2937
  858MOL0     C15723   2.609   4.055   3.638 -1.4905 -0.3278  0.2982
  858MOL0     C15724   2.748   4.056   3.586 -0.5495  0.0634  0.3527
  858MOL0     O15725   2.780   4.181   3.539 -0.5736  0.1874 -1.1138
  858MOL0     C15726   2.911   4.206   3.534 -0.5529  0.0838 -0.1277
  858MOL0     C15727   3.005   4.120   3.470  0.9558 -0.0989  1.0269
  858MOL0     C15728   3.135   4.145   3.478 -0.3186 -0.6763 -0.6678
  858MOL0     C15729   3.192   4.257   3.543 -1.2020 -0.0104 -0.3553
  858MOL0     O15730   3.327   4.270   3.538 -0.0200 -0.0069 -0.0812
  858MOL0     C15731   3.377   4.379   3.618  0.2757 -0.2107  0.2480
  858MOL0     C15732   3.522   4.389   3.607  0.0678 -0.5416 -0.1809
  858MOL0     C15733   3.603   4.302   3.706 -1.1642  0.0506 -0.4310
  858MOL0     C15734   3.745   4.333   3.678 -0.7746  0.3644 -0.1807
  858MOL0     C15735   3.835   4.266   3.774 -0.1059 -0.6776 -0.2216
  858MOL0     C15736   3.978   4.283   3.725 -0.1726 -0.0965  0.4623
  858MOL0     C15737   4.088   4.224   3.818  0.2903  0.0794 -0.1743
  858MOL0     C15738   4.230   4.226   3.758 -0.5624 -0.3559  0.5009
  858MOL0    Cl15739   4.280   4.394   3.748 -0.3214  0.3307 -0.0281
  858MOL0     C15740   3.102   4.341   3.603  0.0668  0.0285  0.6101
  858MOL0     C15741   2.962   4.322   3.595  0.3401  0.5469 -0.7522
  858MOL0     O15742   2.824   3.957   3.592  0.2391  0.1907 -0.0519
  858MOL0     C15743   2.542   4.170   3.672 -0.1772  0.0441  0.5294
  858MOL0     C15744   2.407   4.165   3.716 -0.1934 -0.2450 -0.0830
  858MOL0     N15745   1.888   3.663   4.165 -0.0148 -0.1747 -0.0879
  858MOL0     N15746   1.787   3.610   4.230 -0.7131  0.7125 -0.2669
  858MOL0     C15747   0.500   3.757   4.446  0.2856 -0.6509  0.5110
  858MOL0     C15748   0.365   3.798   4.476  0.0011 -0.5038  0.9981
  858MOL0     C15749   0.012   4.019   4.694 -0.3225 -0.3620  0.1154
  858MOL0     C15750  -0.053   3.892   4.717  0.2589 -0.4873 -0.8140
  858MOL0     C15751  -0.190   3.885   4.721 -0.6054 -0.0332 -0.1965
  858MOL0     C15752  -0.276   3.991   4.710 -0.6566 -0.6800 -0.7001
  858MOL0     O15753  -0.410   3.964   4.705  0.4504 -0.1605  0.4959
  858MOL0     C15754  -0.503   4.076   4.671  0.4492  0.6494  0.1653
  858MOL0     C15755  -0.640   4.011   4.640 -0.4106  0.7370  0.5033
  858MOL0     C15756  -0.641   3.901   4.538  0.1677  0.9883 -0.3036
  858MOL0     C15757  -0.786   3.871   4.480 -0.5175  0.5063  0.7450
  858MOL0     C15758  -0.883   3.859   4.580  0.2538 -0.1380 -0.4594
  858MOL0     C15759  -0.960   3.858   4.676 -0.4247  0.0265  0.6208
  858MOL0     C15760  -0.214   4.125   4.699  0.4538  0.5052 -0.0764
  858MOL0     C15761  -0.071   4.137   4.693  0.2034  0.1970 -0.5615
  858MOL0     C15762  -0.009   4.274   4.675  0.1852 -0.2992  0.0196
  858MOL0     H15763   0.429   3.973   4.769  0.8963 -0.8236  0.6577
  858MOL0     H15764   0.654   3.901   4.717 -1.0894  0.2781  0.6300
  858MOL0     H15765   0.845   3.781   4.664 -0.3962 -1.1915  2.3970
  858MOL0     H15766   0.745   3.636   4.656  1.0747  0.6378  0.9644
  858MOL0     H15767   0.890   3.543   4.479  0.6933 -2.0581  1.8516
  858MOL0     H15768   0.968   3.569   4.634  0.4421 -2.7679 -0.7002
  858MOL0     H15769   1.100   3.761   4.536  0.2965 -1.9763  1.1743
  858MOL0     H15770   1.003   3.753   4.389 -3.4217  1.3074  1.3418
  858MOL0     H15771   1.175   3.523   4.507 -0.3365  1.9752  2.4653
  858MOL0     H15772   1.077   3.528   4.353 -1.2940  2.1438 -0.0621
  858MOL0     H15773   1.234   3.744   4.330  3.6556  0.2901 -0.7916
  858MOL0     H15774   1.349   3.649   4.410  0.0851 -0.6380  0.0978
  858MOL0     H15775   1.278   3.454   4.244  0.2056  0.0469  0.1789
  858MOL0     H15776   1.193   3.574   4.158 -0.6174 -0.5866  1.8118
  858MOL0     H15777   1.421   3.715   4.148  0.6336  0.3823  0.9919
  858MOL0     H15778   1.407   3.577   4.043 -1.2702  1.2333  0.5282
  858MOL0     H15779   1.543   3.561   4.307 -0.4420 -0.9822  0.3197
  858MOL0     H15780   1.555   3.451   4.171  2.5894  0.6315  0.5822
  858MOL0     H15781   1.645   3.730   3.958  2.1628  3.7450  0.0735
  858MOL0     H15782   2.038   3.742   3.937 -0.0472 -2.2358  0.3591
  858MOL0     H15783   1.905   3.713   3.837 -2.2604  0.0119  0.2889
  858MOL0     H15784   1.814   3.945   3.922 -0.3572 -2.3078 -0.6296
  858MOL0     H15785   1.961   3.948   4.033  0.9856  0.6972  0.0485
  858MOL0     H15786   1.989   4.092   3.846  0.0847 -0.3073 -0.0058
  858MOL0     H15787   1.935   3.963   3.734  1.3258 -0.2898 -0.3744
  858MOL0     H15788   2.140   3.854   3.752  1.0853  1.0766 -1.0480
  858MOL0     H15789   2.181   3.929   3.910  2.7585  0.3744 -1.2379
  858MOL0     H15790   2.367   3.835   3.707  0.5733 -0.6220  0.8997
  858MOL0     H15791   2.590   3.839   3.636 -0.2908  0.4425 -1.4801
  858MOL0     H15792   2.982   4.026   3.421 -0.4143  0.4124  0.6400
  858MOL0     H15793   3.216   4.094   3.427  1.0300  2.5097 -1.9198
  858MOL0     H15794   3.333   4.475   3.591  2.5673  1.1267  1.0544
  858MOL0     H15795   3.348   4.363   3.723 -1.6820  0.7869 -0.0987
  858MOL0     H15796   3.548   4.365   3.504 -2.8753  1.4364 -1.5037
  858MOL0     H15797   3.552   4.493   3.623  1.4022 -0.9635  0.2463
  858MOL0     H15798   3.584   4.333   3.809  0.4376 -2.0286  0.5811
  858MOL0     H15799   3.583   4.195   3.696 -1.1660  0.0802 -0.7748
  858MOL0     H15800   3.762   4.441   3.686  2.9482  0.0871 -2.1278
  858MOL0     H15801   3.769   4.298   3.577  0.6398 -2.4930  1.0240
  858MOL0     H15802   3.810   4.160   3.773 -1.8605 -0.3056  0.5211
  858MOL0     H15803   3.817   4.305   3.875 -1.5769  1.0102 -1.0813
  858MOL0     H15804   3.974   4.231   3.629 -1.2355  1.2243 -0.2352
  858MOL0     H15805   3.998   4.391   3.716  1.9065 -0.2354  2.3657
  858MOL0     H15806   4.060   4.120   3.838  0.3899  0.0391 -0.2460
  858MOL0     H15807   4.090   4.272   3.916  0.1555  1.5348 -0.8451
  858MOL0     H15808   4.290   4.175   3.835  1.9103  0.3467 -0.8450
  858MOL0     H15809   4.240   4.177   3.661  1.5228  2.0229 -0.5865
  858MOL0     H15810   3.139   4.432   3.649 -1.0733 -0.3263  2.3091
  858MOL0     H15811   2.891   4.390   3.641 -1.4061 -1.7658  0.1951
  858MOL0     H15812   2.584   4.270   3.679 -1.2069  0.4759  0.6247
  858MOL0     H15813   2.361   4.253   3.760  0.5450  0.3187 -0.4287
  858MOL0     H15814   0.510   3.715   4.346  1.9062 -3.5994  1.8110
  858MOL0     H15815   0.288   3.781   4.402  1.4779 -4.5291  0.1780
  858MOL0     H15816   0.009   3.804   4.705  3.3534  1.4412 -0.0472
  858MOL0     H15817  -0.231   3.785   4.726 -0.4730 -0.0977 -0.4047
  858MOL0     H15818  -0.474   4.148   4.594  0.1784  1.9190  1.2004
  858MOL0     H15819  -0.516   4.132   4.765 -0.2505  1.4334 -0.3830
  858MOL0     H15820  -0.715   4.087   4.618 -2.5210 -0.5500  2.7284
  858MOL0     H15821  -0.672   3.970   4.737  0.8030 -0.7680  0.2983
  858MOL0     H15822  -0.589   3.810   4.571  1.3700  0.2101 -3.9384
  858MOL0     H15823  -0.580   3.933   4.453  0.6455 -0.0148 -0.3572
  858MOL0     H15824  -0.826   3.946   4.412 -1.4025  2.4897  3.3037
  858MOL0     H15825  -0.782   3.772   4.432 -0.3605 -0.1373  2.0298
  858MOL0     H15826  -1.023   3.853   4.763 -0.6812 -1.1317  0.3843
  858MOL0     H15827  -0.275   4.214   4.699  0.1392  0.2912 -0.3800
  858MOL0     H15828   0.091   4.285   4.633 -0.5938  2.4423 -1.3497
  858MOL0     H15829  -0.072   4.336   4.610 -2.1435 -1.5680  0.9378
  858MOL0     H15830   0.003   4.324   4.772  0.8888  1.3449 -0.8747
  859MOL0     O15831   6.886   6.946  10.358  0.8295  0.0038  0.2671
  859MOL0     C15832   6.881   6.822  10.340  0.0299  0.0523 -0.1211
  859MOL0     O15833   6.992   6.742  10.316  0.4737 -0.1792  0.2308
  859MOL0     C15834   7.116   6.804  10.327  0.3587 -0.4238 -0.6258
  859MOL0     C15835   7.167   6.906  10.247  0.8607 -0.2598  1.0306
  859MOL0     C15836   7.285   6.962  10.267 -0.7376  0.7381  1.0765
  859MOL0     C15837   7.378   6.917  10.368 -0.0002 -1.2920  0.4842
  859MOL0     O15838   7.496   6.976  10.402 -0.4313 -0.1522 -0.7146
  859MOL0     C15839   7.563   7.072  10.319 -0.9851  0.1964  0.1129
  859MOL0     C15840   7.664   7.148  10.412 -0.5467  0.5552  0.3776
  859MOL0     C15841   7.591   7.237  10.520 -0.7265 -0.1901 -0.0950
  859MOL0     C15842   7.687   7.304  10.614 -0.2837 -0.0485 -0.2821
  859MOL0     C15843   7.766   7.410  10.540 -0.7675 -0.0773 -1.6092
  859MOL0     C15844   7.890   7.462  10.620 -0.2825  0.0827 -0.1271
  859MOL0     C15845   8.010   7.381  10.570  0.0063 -0.2002  0.4085
  859MOL0     C15846   8.144   7.392  10.636  0.2543 -0.0883  0.4658
  859MOL0     N15847   8.197   7.524  10.654  0.4674 -0.7017 -0.5144
  859MOL0     C15848   8.325   7.548  10.693  0.1986 -1.3737 -0.1472
  859MOL0     C15849   8.346   7.682  10.692 -0.0236 -0.2696 -0.6963
  859MOL0     C15850   8.471   7.762  10.732 -0.0341 -0.8540  0.2992
  859MOL0     C15851   8.547   7.701  10.843 -0.5822 -0.0055 -0.2565
  859MOL0     C15852   8.652   7.605  10.799  0.0371  0.6163 -0.6956
  859MOL0     C15853   8.780   7.679  10.755 -0.4890 -0.2701 -0.1304
  859MOL0     O15854   8.841   7.769  10.859 -0.5000  0.2280  0.9317
  859MOL0     C15855   8.935   7.719  10.947  0.3243 -0.3576  0.7040
  859MOL0     C15856   8.993   7.590  10.953  0.4563 -0.9442 -0.6054
  859MOL0     C15857   9.092   7.558  11.038 -0.3187  0.5615 -0.4468
  859MOL0     C15858   9.137   7.663  11.131 -0.5100  0.3946 -0.3115
  859MOL0     C15859   9.248   7.639  11.225 -0.6868 -0.6442  0.4318
  859MOL0     O15860   9.280   7.749  11.299  0.0537  0.4562  0.3541
  859MOL0     C15861   9.375   7.732  11.396  0.2163  0.3680  0.1642
  859MOL0     C15862   9.507   7.762  11.358  0.2892 -0.7039  0.4054
  859MOL0     C15863   9.603   7.756  11.453 -0.9876 -0.1788  0.5318
  859MOL0     C15864   9.575   7.742  11.592 -0.5402  0.2688  0.6728
  859MOL0     O15865   9.685   7.741  11.683 -0.3571  0.4695 -0.8838
  859MOL0     C15866   9.638   7.729  11.825 -0.0371 -0.0681  0.0250
  859MOL0     C15867   9.763   7.718  11.920  0.4209 -0.2988 -1.3093
  859MOL0     C15868   9.861   7.601  11.887  0.3299 -0.0148 -0.0310
  859MOL0     C15869   9.988   7.609  11.974 -0.1494 -0.8790 -0.1922
  859MOL0     C15870  10.071   7.485  11.951 -0.1497  0.8924 -1.2044
  859MOL0     C15871  10.161   7.515  11.831  0.1304 -0.4497 -0.1412
  859MOL0     C15872  10.238   7.392  11.787  0.4374  0.0343 -0.1003
  859MOL0     C15873  10.198   7.345  11.649 -0.3725 -1.1790 -0.1820
  859MOL0    Cl15874  10.313   7.210  11.585 -0.3757 -0.2832  0.1682
  859MOL0     C15875   9.441   7.729  11.627 -1.0555 -0.0997  1.3852
  859MOL0     C15876   9.342   7.710  11.528 -0.3419  0.3513  0.2319
  859MOL0     O15877   9.315   7.534  11.224  0.0991  0.1610 -0.1654
  859MOL0     C15878   9.081   7.787  11.126  0.4211  0.4217 -0.3142
  859MOL0     C15879   8.976   7.811  11.036  0.0993  0.3996 -0.4953
  859MOL0     N15880   8.223   7.739  10.671 -0.1028 -0.9811 -1.6565
  859MOL0     N15881   8.140   7.647  10.651  0.2394 -0.0168  0.2789
  859MOL0     C15882   7.332   6.822  10.448  0.7783 -0.7106  0.0936
  859MOL0     C15883   7.200   6.766  10.431  0.0453  0.3726  0.3109
  859MOL0     C15884   6.748   6.739  10.335 -0.3070 -0.2641 -0.6178
  859MOL0     C15885   6.763   6.597  10.330  0.6217  0.1561 -0.6832
  859MOL0     C15886   6.651   6.516  10.331 -0.7791  0.0694  0.2283
  859MOL0     C15887   6.519   6.564  10.324 -1.2164  0.5004 -0.3379
  859MOL0     O15888   6.422   6.478  10.275  0.2588 -0.0819 -0.9272
  859MOL0     C15889   6.356   6.507  10.155 -1.2290  0.2650  0.2241
  859MOL0     C15890   6.206   6.531  10.178  1.1784  0.2682  0.0891
  859MOL0     C15891   6.146   6.393  10.223 -0.1992 -0.1125  0.0108
  859MOL0     C15892   5.996   6.394  10.260 -0.0344  1.0837  0.2378
  859MOL0     C15893   5.946   6.255  10.260 -0.0424 -0.3811 -0.0484
  859MOL0     C15894   5.879   6.157  10.270  0.3948 -0.0876 -0.5152
  859MOL0     C15895   6.510   6.698  10.332 -0.0596 -0.0076  0.3869
  859MOL0     C15896   6.617   6.785  10.354 -0.0710  0.1601  0.1265
  859MOL0     C15897   6.586   6.924  10.389 -1.1388 -0.4604 -0.0491
  859MOL0     H15898   7.099   6.936  10.168 -0.3715 -2.1079  1.3413
  859MOL0     H15899   7.313   7.040  10.198 -1.2937 -0.6895 -0.8547
  859MOL0     H15900   7.608   7.014  10.238 -2.7716 -1.0601 -0.0493
  859MOL0     H15901   7.491   7.141  10.274  0.7809  3.1328  1.5747
  859MOL0     H15902   7.732   7.203  10.346  0.2129 -1.0318 -0.2249
  859MOL0     H15903   7.728   7.072  10.457  1.5384  1.2429 -1.2734
  859MOL0     H15904   7.535   7.172  10.587 -0.0714  1.4252  2.1329
  859MOL0     H15905   7.528   7.316  10.478  3.5019  3.8694  0.3229
  859MOL0     H15906   7.631   7.357  10.691 -1.4222  1.4988 -2.0956
  859MOL0     H15907   7.748   7.233  10.671 -2.7619 -0.1913  2.4411
  859MOL0     H15908   7.800   7.382  10.440  0.3302  0.5995 -1.4400
  859MOL0     H15909   7.683   7.482  10.543 -1.0803 -0.1682  4.7491
  859MOL0     H15910   7.903   7.570  10.606  1.8261  0.3653  2.9415
  859MOL0     H15911   7.868   7.444  10.726  0.5078  0.7646  0.1687
  859MOL0     H15912   8.032   7.417  10.469  0.5408 -1.2153  0.1502
  859MOL0     H15913   7.981   7.276  10.558  1.0041 -0.4425  0.0912
  859MOL0     H15914   8.128   7.367  10.741  0.8839  1.4010  0.9481
  859MOL0     H15915   8.213   7.325  10.584  1.6965  0.5314  1.5264
  859MOL0     H15916   8.402   7.472  10.697  0.9983 -0.8066 -2.7312
  859MOL0     H15917   8.538   7.780  10.647 -1.7729  1.5501 -0.6654
  859MOL0     H15918   8.429   7.862  10.749 -2.4041 -0.9102 -3.9208
  859MOL0     H15919   8.603   7.783  10.889  3.2550 -1.2154 -2.3034
  859MOL0     H15920   8.480   7.647  10.910  0.6475  1.0850  1.9682
  859MOL0     H15921   8.621   7.544  10.714  0.1262  0.8658 -0.9093
  859MOL0     H15922   8.681   7.536  10.879  0.4771  1.3746 -0.1836
  859MOL0     H15923   8.755   7.747  10.672  1.9352  0.4624 -0.3177
  859MOL0     H15924   8.859   7.612  10.722  0.5110 -1.3879  3.9553
  859MOL0     H15925   8.960   7.510  10.888  0.0682 -0.0767 -1.4957
  859MOL0     H15926   9.132   7.457  11.040  0.8189  1.0060  0.7804
  859MOL0     H15927   9.538   7.777  11.255 -0.7600  1.3458  0.3292
  859MOL0     H15928   9.708   7.763  11.430 -0.9584  1.7837  1.1039
  859MOL0     H15929   9.573   7.816  11.840 -4.4750 -2.8222 -1.2912
  859MOL0     H15930   9.577   7.639  11.838  0.7258 -0.3296  2.0173
  859MOL0     H15931   9.807   7.818  11.915 -0.8306  0.5500  2.1204
  859MOL0     H15932   9.731   7.701  12.023  1.5138  0.4119 -0.8269
  859MOL0     H15933   9.811   7.504  11.897  1.2975 -0.3261  2.1644
  859MOL0     H15934   9.880   7.618  11.780 -0.6070  1.6217  0.0304
  859MOL0     H15935   9.951   7.625  12.076 -0.4829  3.7842 -0.8402
  859MOL0     H15936  10.051   7.694  11.948  0.4929 -1.2780  0.0279
  859MOL0     H15937  10.006   7.399  11.934  1.2407  0.0056 -2.2416
  859MOL0     H15938  10.118   7.453  12.045 -4.0947 -2.8249 -0.1935
  859MOL0     H15939  10.109   7.565  11.749 -0.9175  0.8521  1.2536
  859MOL0     H15940  10.239   7.584  11.864 -0.0231  0.3299 -1.3726
  859MOL0     H15941  10.219   7.312  11.859 -0.5565  0.4328  0.0876
  859MOL0     H15942  10.344   7.418  11.794  0.4263 -0.1057  0.7023
  859MOL0     H15943  10.094   7.311  11.649 -1.3100  1.3885 -1.1772
  859MOL0     H15944  10.199   7.434  11.585  0.2215 -2.5189 -2.1106
  859MOL0     H15945   9.403   7.727  11.729  0.2914 -0.5713  1.9036
  859MOL0     H15946   9.240   7.681  11.552 -0.4565 -0.4443 -1.0956
  859MOL0     H15947   9.117   7.868  11.189  1.2836 -0.1487 -0.0582
  859MOL0     H15948   8.927   7.908  11.035  1.1260  0.9905  1.4132
  859MOL0     H15949   7.395   6.792  10.531 -0.6762  0.1792  1.5671
  859MOL0     H15950   7.154   6.703  10.506 -0.4810 -1.7008 -1.6488
  859MOL0     H15951   6.862   6.555  10.315  0.3562 -0.5420 -0.5429
  859MOL0     H15952   6.662   6.408  10.327 -0.1219  0.1329  0.3658
  859MOL0     H15953   6.363   6.422  10.087 -1.4944  1.6385 -1.5718
  859MOL0     H15954   6.403   6.596  10.112 -2.1804  1.3912  1.4224
  859MOL0     H15955   6.161   6.570  10.087 -0.8442 -3.1443 -0.5735
  859MOL0     H15956   6.180   6.597  10.261 -3.8355  1.1350 -1.8164
  859MOL0     H15957   6.196   6.356  10.312  0.8708  1.3373  0.0492
  859MOL0     H15958   6.159   6.319  10.143  0.8560 -0.1474  0.2043
  859MOL0     H15959   5.983   6.427  10.364 -0.0035 -3.6644  2.0145
  859MOL0     H15960   5.938   6.455  10.190  2.0732  5.0021  1.6490
  859MOL0     H15961   5.814   6.076  10.297  2.2423 -1.1565  0.9023
  859MOL0     H15962   6.410   6.741  10.325  0.3774  1.3512  1.9796
  859MOL0     H15963   6.480   6.951  10.386 -0.5385  2.0759 -2.4727
  859MOL0     H15964   6.642   6.954  10.478  1.0386 -0.7099 -1.2514
  859MOL0     H15965   6.639   6.994  10.323 -1.0318 -1.9301 -1.5996
  860MOL0     O15966  10.460   6.771  10.596  0.1732  0.6124 -0.9283
  860MOL0     C15967  10.385   6.812  10.685  0.1897 -0.0225 -0.3884
  860MOL0     O15968  10.418   6.878  10.802  0.3040 -0.7170 -0.1442
  860MOL0     C15969  10.547   6.937  10.808 -0.0983  0.0700 -0.0570
  860MOL0     C15970  10.579   7.022  10.697 -0.2896  0.0694 -0.6812
  860MOL0     C15971  10.694   7.111  10.720 -0.3026 -0.5102 -0.4928
  860MOL0     C15972  10.777   7.102  10.835 -0.5123 -0.4400  0.0083
  860MOL0     O15973  10.880   7.183  10.854 -0.5708 -0.0921  0.1018
  860MOL0     C15974  10.878   7.324  10.809 -0.5410  0.8657  0.3166
  860MOL0     C15975  11.014   7.386  10.839 -0.7380 -0.5757  0.3320
  860MOL0     C15976  11.049   7.382  10.985 -0.6748 -0.7847 -0.6464
  860MOL0     C15977  10.962   7.477  11.076 -0.4839  0.2282  0.2241
  860MOL0     C15978  10.998   7.449  11.226  0.6155  0.5077 -0.8852
  860MOL0     C15979  10.951   7.322  11.296 -0.6292 -0.4532 -1.0639
  860MOL0     C15980  10.999   7.313  11.440 -0.4896  0.3044 -0.1423
  860MOL0     C15981  11.138   7.253  11.445 -0.1096 -0.3964 -0.4139
  860MOL0     N15982  11.190   7.250  11.582  0.1563 -0.4712  0.0098
  860MOL0     C15983  11.258   7.354  11.636 -0.4384  0.4972 -0.2797
  860MOL0     C15984  11.264   7.333  11.774 -0.3076  0.5702 -0.4725
  860MOL0     C15985  11.322   7.421  11.890  0.3538  0.4495  0.1389
  860MOL0     C15986  11.453   7.487  11.852 -1.1513  0.8720 -0.5606
  860MOL0     C15987  11.559   7.397  11.796 -0.6043 -0.2423  0.6272
  860MOL0     C15988  11.689   7.468  11.780 -0.0600  0.5619  0.2879
  860MOL0     O15989  11.797   7.376  11.759  0.0880  1.3753  0.0216
  860MOL0     C15990  11.886   7.374  11.852 -0.7410 -0.2395 -0.2331
  860MOL0     C15991  11.863   7.388  11.987  0.7556 -0.3274  0.5394
  860MOL0     C15992  11.956   7.423  12.079 -0.1976 -0.7425 -0.9660
  860MOL0     C15993  12.090   7.428  12.033  0.8540  0.3744 -0.6042
  860MOL0     C15994  12.200   7.455  12.126  0.1364  0.9591  0.1764
  860MOL0     O15995  12.328   7.442  12.077  0.6390  0.1206 -0.1783
  860MOL0     C15996  12.441   7.426  12.148 -0.3339 -0.6595  0.5208
  860MOL0     C15997  12.452   7.462  12.287  0.2584 -0.4310  0.0208
  860MOL0     C15998  12.563   7.445  12.361 -0.0031  0.2549  0.0795
  860MOL0     C15999  12.675   7.379  12.313 -0.2971 -1.9040 -0.4708
  860MOL0     O16000  12.799   7.344  12.375 -0.5279 -0.6644  0.1620
  860MOL0     C16001  12.803   7.370  12.513 -0.6348  0.1849  0.6603
  860MOL0     C16002  12.954   7.332  12.543  0.9648 -0.2486  0.0974
  860MOL0     C16003  13.035   7.445  12.499 -0.5918 -0.4746 -0.6740
  860MOL0     C16004  13.184   7.418  12.537 -0.9345 -0.4533  0.7526
  860MOL0     C16005  13.261   7.544  12.494  0.2955  0.0529 -0.5322
  860MOL0     C16006  13.415   7.533  12.510 -0.0037  0.1902  0.2488
  860MOL0     C16007  13.449   7.548  12.662  0.2412 -0.0110 -0.1326
  860MOL0     C16008  13.599   7.550  12.663 -0.4851  0.1662  0.4829
  860MOL0    Cl16009  13.649   7.379  12.656 -0.3614 -0.5226  0.0365
  860MOL0     C16010  12.671   7.339  12.174  0.2863 -0.0540 -0.8440
  860MOL0     C16011  12.562   7.356  12.092 -0.0807 -0.5338  0.3536
  860MOL0     O16012  12.165   7.489  12.241 -0.0011  0.5911 -0.3410
  860MOL0     C16013  12.124   7.410  11.895 -0.1257  0.8485  0.1663
  860MOL0     C16014  12.017   7.381  11.812 -0.5690 -0.5042 -0.4419
  860MOL0     N16015  11.186   7.217  11.797 -1.7453 -0.8122  0.3323
  860MOL0     N16016  11.137   7.177  11.687  0.2814  0.1657  0.6972
  860MOL0     C16017  10.736   7.019  10.942  0.7926  0.4179  0.3381
  860MOL0     C16018  10.622   6.935  10.925 -0.0811  0.6575 -0.4082
  860MOL0     C16019  10.242   6.780  10.669  0.4733  0.0724 -0.5902
  860MOL0     C16020  10.215   6.669  10.583  0.3574  0.2691  0.1146
  860MOL0     C16021  10.085   6.620  10.564 -0.1779 -0.4036 -0.0148
  860MOL0     C16022   9.980   6.685  10.613  0.3196 -0.6226  0.0778
  860MOL0     O16023   9.857   6.630  10.580  0.2452 -0.2783 -0.2090
  860MOL0     C16024   9.743   6.685  10.639  0.1632  0.4280 -0.5689
  860MOL0     C16025   9.641   6.571  10.641  1.0005 -0.6533 -0.2561
  860MOL0     C16026   9.607   6.532  10.502  0.7924  0.1027 -0.4514
  860MOL0     C16027   9.495   6.420  10.501 -0.1683  0.5442 -0.3619
  860MOL0     C16028   9.368   6.478  10.545  0.2638  0.7181 -0.3907
  860MOL0     C16029   9.253   6.512  10.569  0.3941  0.0262  0.2211
  860MOL0     C16030  10.003   6.797  10.693 -0.0110 -0.9720  0.4681
  860MOL0     C16031  10.131   6.852  10.725 -0.5521  0.4674  0.0733
  860MOL0     C16032  10.141   6.973  10.805  0.3794 -0.0803  0.3946
  860MOL0     H16033  10.520   7.027  10.606 -2.2783  2.3848  0.6041
  860MOL0     H16034  10.710   7.176  10.634  1.5401  1.0228  0.9321
  860MOL0     H16035  10.848   7.328  10.704  1.0051 -1.6787 -0.3087
  860MOL0     H16036  10.810   7.381  10.872  0.0807  2.4980 -0.4301
  860MOL0     H16037  11.010   7.487  10.799  0.9558 -0.7276 -0.2957
  860MOL0     H16038  11.096   7.333  10.789  2.2502  2.8901  1.1363
  860MOL0     H16039  11.156   7.405  10.991 -0.6700 -1.0840  1.4599
  860MOL0     H16040  11.040   7.278  11.018 -0.5873 -1.3148 -2.2370
  860MOL0     H16041  10.994   7.574  11.037  2.0465 -1.4672 -2.3856
  860MOL0     H16042  10.854   7.463  11.065 -0.4658  0.0654  0.2400
  860MOL0     H16043  11.107   7.459  11.235  0.5589  1.2948 -1.0336
  860MOL0     H16044  10.966   7.527  11.297  3.0215  1.3283 -0.5971
  860MOL0     H16045  10.842   7.322  11.299 -0.7027  1.9382 -1.5187
  860MOL0     H16046  10.986   7.234  11.242  1.5529  0.6731 -1.6368
  860MOL0     H16047  10.929   7.254  11.500  2.2288 -2.6582  0.3612
  860MOL0     H16048  11.009   7.413  11.482  0.9092 -0.0037  0.3028
  860MOL0     H16049  11.129   7.150  11.409 -3.9080  0.3209 -2.0557
  860MOL0     H16050  11.219   7.293  11.384  1.2172 -5.2719 -2.4131
  860MOL0     H16051  11.296   7.447  11.594  3.9253 -0.2044  1.5778
  860MOL0     H16052  11.242   7.493  11.915 -1.3761 -0.4044 -2.5234
  860MOL0     H16053  11.330   7.358  11.979 -2.2954  0.1822  0.2742
  860MOL0     H16054  11.433   7.559  11.773  2.0659  1.2166 -1.1934
  860MOL0     H16055  11.492   7.528  11.946  0.6610 -0.4304 -0.6936
  860MOL0     H16056  11.531   7.331  11.713 -1.1857  0.1829  0.4816
  860MOL0     H16057  11.573   7.333  11.884  0.1171  3.0266  3.0695
  860MOL0     H16058  11.710   7.538  11.862  0.3791  0.9665 -0.1674
  860MOL0     H16059  11.686   7.528  11.689 -0.2241 -0.2842 -0.2693
  860MOL0     H16060  11.762   7.384  12.025  0.4069  0.9768 -0.1603
  860MOL0     H16061  11.922   7.450  12.178  0.0696  0.3220 -1.1528
  860MOL0     H16062  12.360   7.489  12.339  1.0257  0.3999  0.9896
  860MOL0     H16063  12.550   7.487  12.461 -1.4793  2.6333 -1.0204
  860MOL0     H16064  12.796   7.471  12.554  1.6394  0.5485  0.2478
  860MOL0     H16065  12.736   7.299  12.561 -0.4704 -0.2400  0.2637
  860MOL0     H16066  12.967   7.315  12.650  2.4119 -0.5372 -0.1034
  860MOL0     H16067  12.977   7.249  12.476  0.2730 -0.5354  0.2048
  860MOL0     H16068  13.034   7.452  12.390  2.0629  2.9694 -0.6613
  860MOL0     H16069  13.005   7.541  12.542 -2.3531 -1.9989  1.7504
  860MOL0     H16070  13.213   7.328  12.481 -0.0724 -0.2409  0.8391
  860MOL0     H16071  13.186   7.396  12.644 -0.2537  1.1259  1.0893
  860MOL0     H16072  13.227   7.630  12.553  2.6324  0.2017  0.7111
  860MOL0     H16073  13.249   7.576  12.390 -0.7946  2.7281  0.3189
  860MOL0     H16074  13.457   7.441  12.467  0.2276  0.7886 -0.8542
  860MOL0     H16075  13.461   7.612  12.451 -0.8586 -1.4233 -2.8176
  860MOL0     H16076  13.412   7.460  12.714 -0.1925 -0.9244 -1.8877
  860MOL0     H16077  13.410   7.640  12.706  0.3937  0.8506 -1.6917
  860MOL0     H16078  13.644   7.608  12.582  2.0698 -1.4251  0.6759
  860MOL0     H16079  13.622   7.589  12.763  0.2489  0.9599  0.0167
  860MOL0     H16080  12.759   7.285  12.140  0.5535  1.3988 -2.5645
  860MOL0     H16081  12.566   7.334  11.986 -0.1413  0.0771  0.2177
  860MOL0     H16082  12.227   7.414  11.863 -0.3065  0.4500 -0.4911
  860MOL0     H16083  12.034   7.377  11.705 -0.3011 -1.2384 -0.3726
  860MOL0     H16084  10.806   7.032  11.024  2.0499 -0.5411 -0.5330
  860MOL0     H16085  10.577   6.875  11.004 -0.1780  0.7970 -0.3548
  860MOL0     H16086  10.291   6.608  10.534  0.5114  0.5333  0.0238
  860MOL0     H16087  10.076   6.535  10.496  0.1723 -1.6257  1.4176
  860MOL0     H16088   9.703   6.774  10.590 -2.2379  2.2045  4.0329
  860MOL0     H16089   9.766   6.714  10.741  2.4361 -1.7301 -0.3735
  860MOL0     H16090   9.553   6.613  10.690  0.3093 -1.5741 -0.6638
  860MOL0     H16091   9.665   6.476  10.689 -3.6370 -2.1429 -0.4301
  860MOL0     H16092   9.697   6.490  10.456 -0.2873 -1.3718 -1.3287
  860MOL0     H16093   9.578   6.615  10.437  2.9485  0.7930 -0.6112
  860MOL0     H16094   9.490   6.382  10.398  0.4136 -1.2675  0.2402
  860MOL0     H16095   9.527   6.328  10.553  0.9765  1.1403  0.0199
  860MOL0     H16096   9.149   6.534  10.579  0.2695 -0.9210  1.1620
  860MOL0     H16097   9.917   6.856  10.726 -0.1024 -1.0339  0.3401
  860MOL0     H16098  10.182   7.054  10.744  1.9107  0.7071  2.3621
  860MOL0     H16099  10.046   7.017  10.837  0.8606  1.4988 -0.2055
  860MOL0     H16100  10.207   6.949  10.888 -1.4665 -1.3288  1.5990
  861MOL0     O16101   1.268  10.355   3.263 -0.0525  0.5831  0.7572
  861MOL0     C16102   1.313  10.464   3.285  0.4615  0.1589  0.1847
  861MOL0     O16103   1.245  10.570   3.331 -0.0775 -0.2223 -0.0874
  861MOL0     C16104   1.120  10.574   3.375  0.4299  0.3014  1.3454
  861MOL0     C16105   1.027  10.477   3.379 -0.2170 -0.2926 -0.3872
  861MOL0     C16106   0.888  10.496   3.409 -0.9317  0.0380 -0.0511
  861MOL0     C16107   0.838  10.626   3.445 -0.3508  0.3012  0.5774
  861MOL0     O16108   0.707  10.646   3.481 -0.0466 -0.1954 -0.1874
  861MOL0     C16109   0.618  10.535   3.521 -0.3315 -0.2992  0.1898
  861MOL0     C16110   0.507  10.586   3.607  0.1358  0.6550  0.1642
  861MOL0     C16111   0.403  10.476   3.623  0.4782 -0.3246 -0.0398
  861MOL0     C16112   0.289  10.523   3.715  0.1883  0.5891  0.5760
  861MOL0     C16113   0.188  10.409   3.745 -1.4345 -0.9112 -0.4323
  861MOL0     C16114   0.092  10.412   3.623  0.4499 -0.2620 -0.1888
  861MOL0     C16115  -0.011  10.302   3.641  0.3252  1.1540 -1.1537
  861MOL0     C16116   0.044  10.160   3.617  0.0241 -0.6715  0.2685
  861MOL0     N16117  -0.063  10.064   3.655 -0.1250 -0.6675  0.3621
  861MOL0     C16118  -0.194  10.080   3.623 -0.4155  0.6921 -0.4311
  861MOL0     C16119  -0.250   9.959   3.644  0.0948 -0.6645 -0.5609
  861MOL0     C16120  -0.394   9.927   3.600 -0.8984 -0.5741  0.1057
  861MOL0     C16121  -0.398   9.838   3.468  0.2882 -0.2956 -0.2264
  861MOL0     C16122  -0.412   9.689   3.500 -0.1621  0.0613 -0.0332
  861MOL0     C16123  -0.519   9.647   3.599 -0.3869  0.6746  0.4573
  861MOL0     O16124  -0.654   9.661   3.554  0.4083 -0.6234 -0.4123
  861MOL0     C16125  -0.723   9.579   3.469  0.0009 -0.7913 -0.3590
  861MOL0     C16126  -0.665   9.462   3.414 -0.0915  0.2639 -0.6361
  861MOL0     C16127  -0.734   9.380   3.328  0.1236  0.3193 -0.0289
  861MOL0     C16128  -0.868   9.414   3.295 -0.0470  0.2054  0.1844
  861MOL0     C16129  -0.948   9.334   3.199  0.8787  0.3976  0.0785
  861MOL0     O16130  -1.078   9.373   3.193 -0.0646  0.2236 -0.2625
  861MOL0     C16131  -1.155   9.301   3.097  1.3445 -0.2017 -0.6654
  861MOL0     C16132  -1.208   9.177   3.129  0.5889  0.1158  1.3124
  861MOL0     C16133  -1.288   9.103   3.038  0.2690  0.3367 -0.0201
  861MOL0     C16134  -1.325   9.179   2.913  0.0196  0.3254  0.4475
  861MOL0     O16135  -1.387   9.121   2.800  0.3637 -0.4534 -0.7119
  861MOL0     C16136  -1.389   8.986   2.803 -0.5464 -0.0986  0.7533
  861MOL0     C16137  -1.418   8.939   2.668 -0.5769  1.1935 -1.2430
  861MOL0     C16138  -1.455   8.793   2.668  0.6883  0.5370  0.1776
  861MOL0     C16139  -1.587   8.757   2.753 -0.1124  0.5485  0.8948
  861MOL0     C16140  -1.718   8.832   2.710  0.9445 -0.9926 -0.4784
  861MOL0     C16141  -1.746   8.812   2.559 -0.5685 -0.5926  0.2055
  861MOL0     C16142  -1.871   8.883   2.520 -0.2361  0.8146  0.3559
  861MOL0     C16143  -1.860   9.032   2.487 -0.1984 -0.3797 -0.4445
  861MOL0    Cl16144  -1.875   9.144   2.633 -0.1257 -0.2287 -0.1486
  861MOL0     C16145  -1.293   9.311   2.897 -0.0629  0.2074 -0.1438
  861MOL0     C16146  -1.202   9.368   2.982  1.0132  0.1850 -0.3991
  861MOL0     O16147  -0.894   9.241   3.134  0.6116  0.1900 -0.3740
  861MOL0     C16148  -0.924   9.526   3.345  0.0664 -0.4362  0.2678
  861MOL0     C16149  -0.850   9.613   3.426 -0.2400  0.5473 -0.5332
  861MOL0     N16150  -0.155   9.876   3.702  0.0068  0.0339  0.3995
  861MOL0     N16151  -0.044   9.932   3.693  1.0677 -0.1454  0.7925
  861MOL0     C16152   0.936  10.721   3.466 -0.6035 -0.0206 -0.1215
  861MOL0     C16153   1.075  10.693   3.431 -0.0714  0.6944 -0.2691
  861MOL0     C16154   1.452  10.488   3.238 -0.0101 -0.6233 -0.8451
  861MOL0     C16155   1.477  10.613   3.176  0.6641  0.5236 -0.7676
  861MOL0     C16156   1.593  10.640   3.112 -0.1950  0.6464 -0.3981
  861MOL0     C16157   1.712  10.553   3.125  0.9816  1.1484 -0.7673
  861MOL0     O16158   1.825  10.598   3.070 -0.3939 -0.6219  0.4102
  861MOL0     C16159   1.945  10.523   3.097 -0.6246 -0.6317  0.5720
  861MOL0     C16160   2.068  10.603   3.052  0.5959  0.0235  0.0126
  861MOL0     C16161   2.112  10.711   3.155  0.4542  0.1657 -0.3537
  861MOL0     C16162   2.240  10.782   3.133  0.5307 -0.3324 -0.1842
  861MOL0     C16163   2.238  10.851   3.003  0.0300 -0.2580  0.0530
  861MOL0     C16164   2.240  10.928   2.907  0.8425  0.4086 -0.9980
  861MOL0     C16165   1.701  10.437   3.207  0.3581 -0.5864  0.4541
  861MOL0     C16166   1.575  10.404   3.263  0.1496 -0.0248 -0.8229
  861MOL0     C16167   1.562  10.276   3.337  0.2381  0.3518  0.4917
  861MOL0     H16168   1.052  10.377   3.346  0.2643 -0.0246 -0.8529
  861MOL0     H16169   0.822  10.412   3.393  1.5365 -1.6095 -2.6551
  861MOL0     H16170   0.587  10.477   3.433  0.0674  2.7401 -2.1317
  861MOL0     H16171   0.671  10.466   3.586  0.0203 -1.4936 -1.2874
  861MOL0     H16172   0.451  10.659   3.548  2.0951  0.8662 -1.5468
  861MOL0     H16173   0.537  10.636   3.700  0.0517 -0.8072  1.0087
  861MOL0     H16174   0.457  10.401   3.683 -0.3056 -0.6871  0.2320
  861MOL0     H16175   0.358  10.440   3.530 -0.9252  2.8596 -0.7028
  861MOL0     H16176   0.320  10.551   3.816  0.0139 -0.0363  0.8077
  861MOL0     H16177   0.235  10.607   3.670 -1.6196 -1.9882 -2.4908
  861MOL0     H16178   0.238  10.313   3.756  0.6849  0.1443 -0.4175
  861MOL0     H16179   0.133  10.430   3.838 -0.3599  3.4788 -0.5834
  861MOL0     H16180   0.038  10.506   3.611 -0.4512 -0.8205 -0.5699
  861MOL0     H16181   0.139  10.401   3.525 -1.1078  1.0224 -1.1159
  861MOL0     H16182  -0.096  10.305   3.573 -1.8993 -0.7272  1.3084
  861MOL0     H16183  -0.062  10.304   3.738  1.3566 -0.1547 -0.5471
  861MOL0     H16184   0.076  10.138   3.515  2.6359 -1.2229  1.1219
  861MOL0     H16185   0.125  10.135   3.686 -0.8812  0.5230  1.8410
  861MOL0     H16186  -0.241  10.169   3.583  2.8233  3.1977  0.8492
  861MOL0     H16187  -0.447   9.893   3.689 -0.5718 -0.1976  0.4460
  861MOL0     H16188  -0.420  10.029   3.568  5.3604  0.7345 -2.3491
  861MOL0     H16189  -0.483   9.874   3.410  1.7910 -1.9743 -3.7069
  861MOL0     H16190  -0.307   9.851   3.408  0.7379 -0.1007  0.4769
  861MOL0     H16191  -0.318   9.668   3.552  1.4880  3.0087 -1.5857
  861MOL0     H16192  -0.417   9.633   3.407  1.6130  0.4190 -0.3898
  861MOL0     H16193  -0.507   9.705   3.691  2.3317  1.9619 -0.5889
  861MOL0     H16194  -0.499   9.545   3.635  2.9745  0.8258 -0.6007
  861MOL0     H16195  -0.560   9.439   3.428 -0.5223 -0.6398  1.6014
  861MOL0     H16196  -0.688   9.288   3.293  2.1053  1.6204 -1.0107
  861MOL0     H16197  -1.195   9.124   3.223 -2.6328  0.5148  2.0907
  861MOL0     H16198  -1.293   8.999   3.066  0.3737  0.1548 -0.6492
  861MOL0     H16199  -1.285   8.951   2.804  0.4022  2.4696  2.6001
  861MOL0     H16200  -1.449   8.951   2.887 -1.3807  0.4220  0.3969
  861MOL0     H16201  -1.502   8.988   2.618 -2.6531 -1.1758 -0.2812
  861MOL0     H16202  -1.323   8.938   2.613  0.5355 -1.4985  0.5350
  861MOL0     H16203  -1.474   8.769   2.563  2.0026  1.5282 -0.3060
  861MOL0     H16204  -1.379   8.727   2.711 -0.0128 -1.7685 -1.8946
  861MOL0     H16205  -1.570   8.768   2.860 -3.7573  2.0342  1.4534
  861MOL0     H16206  -1.590   8.649   2.734  1.6108  0.1523  2.5016
  861MOL0     H16207  -1.720   8.938   2.737 -0.8814 -1.9120  3.9453
  861MOL0     H16208  -1.798   8.794   2.775  1.5795  1.5719  2.0423
  861MOL0     H16209  -1.666   8.838   2.489 -0.1428  2.1382  1.5814
  861MOL0     H16210  -1.757   8.705   2.538  1.8857 -0.6595 -1.1610
  861MOL0     H16211  -1.951   8.860   2.591 -1.2939 -0.1503 -1.1002
  861MOL0     H16212  -1.891   8.841   2.421  0.0564 -1.5461  1.2458
  861MOL0     H16213  -1.771   9.064   2.432 -1.8944  2.3011 -1.8226
  861MOL0     H16214  -1.946   9.067   2.429 -0.5616  1.1619  0.9225
  861MOL0     H16215  -1.326   9.359   2.805  1.7602 -0.5745 -1.2586
  861MOL0     H16216  -1.158   9.466   2.963  1.8326 -0.3950 -1.5626
  861MOL0     H16217  -1.019   9.573   3.322  1.1920  1.7997 -0.1543
  861MOL0     H16218  -0.895   9.706   3.457 -1.2874  0.6382 -2.2093
  861MOL0     H16219   0.918  10.813   3.521  0.9450  2.0153 -2.7584
  861MOL0     H16220   1.139  10.777   3.456  0.7846  0.5592 -1.8949
  861MOL0     H16221   1.394  10.682   3.185 -0.4546 -0.9865  1.4389
  861MOL0     H16222   1.607  10.731   3.055 -0.8349  1.4697  0.6964
  861MOL0     H16223   1.938  10.432   3.036  1.4611  0.6181 -1.7445
  861MOL0     H16224   1.949  10.518   3.206 -0.5158  5.2413  1.1617
  861MOL0     H16225   2.049  10.654   2.956 -0.7503  1.2924  0.9107
  861MOL0     H16226   2.142  10.524   3.037 -0.2750 -0.7590 -0.2476
  861MOL0     H16227   2.130  10.659   3.249 -0.5639 -1.2967 -0.9352
  861MOL0     H16228   2.033  10.785   3.172  1.8883  1.1474  2.8660
  861MOL0     H16229   2.273  10.856   3.206  3.0013  0.7013 -2.1882
  861MOL0     H16230   2.320  10.708   3.123  0.8790  0.2834 -2.8381
  861MOL0     H16231   2.251  10.993   2.823  0.0334  0.4034 -1.1177
  861MOL0     H16232   1.787  10.371   3.211  0.6359 -0.2791 -0.4143
  861MOL0     H16233   1.495  10.295   3.422 -1.1356 -1.1996 -0.1840
  861MOL0     H16234   1.511  10.194   3.285  2.2004 -0.1430 -0.7604
  861MOL0     H16235   1.662  10.243   3.369  0.6337  2.4158  1.5905
  862MOL0     O16236   5.413   8.651   5.512  0.0167  0.0825 -0.2685
  862MOL0     C16237   5.321   8.566   5.497 -0.1800 -0.4016  1.0181
  862MOL0     O16238   5.333   8.457   5.420  0.7354 -0.2332 -0.3234
  862MOL0     C16239   5.449   8.424   5.349  0.3842 -0.6326 -0.6091
  862MOL0     C16240   5.500   8.301   5.373  0.0684  0.3158 -0.7204
  862MOL0     C16241   5.596   8.256   5.287 -0.3407 -1.2923  0.2734
  862MOL0     C16242   5.660   8.338   5.183  0.4050 -1.5796  1.0508
  862MOL0     O16243   5.761   8.279   5.111 -0.4716 -0.3958  1.1938
  862MOL0     C16244   5.836   8.365   5.007  0.5888  0.9401 -0.7903
  862MOL0     C16245   5.901   8.268   4.909 -0.9075 -0.2737  0.5503
  862MOL0     C16246   6.024   8.333   4.839  0.2360  0.7320 -0.5102
  862MOL0     C16247   6.101   8.233   4.749 -0.7438 -0.4590  0.8292
  862MOL0     C16248   6.215   8.303   4.672 -0.4014 -0.4172 -0.7122
  862MOL0     C16249   6.260   8.225   4.557 -0.5500 -0.0452  0.4899
  862MOL0     C16250   6.366   8.305   4.477 -1.5032  0.0428 -0.0779
  862MOL0     C16251   6.508   8.299   4.529  0.0293  0.9730 -0.0206
  862MOL0     N16252   6.547   8.175   4.597 -0.3857 -0.3802 -0.0323
  862MOL0     C16253   6.571   8.058   4.527 -0.4870 -0.3409 -0.3298
  862MOL0     C16254   6.629   7.985   4.617  0.1758  0.4608 -0.6945
  862MOL0     C16255   6.693   7.860   4.591  0.2655 -0.0914 -0.3775
  862MOL0     C16256   6.731   7.822   4.444  0.1641 -0.0112  0.5565
  862MOL0     C16257   6.805   7.690   4.410  1.0758 -0.8170 -0.5194
  862MOL0     C16258   6.880   7.697   4.277 -0.5554 -0.3640 -0.5157
  862MOL0     O16259   6.994   7.772   4.314 -0.7988 -0.7632  0.1131
  862MOL0     C16260   7.088   7.800   4.219 -0.0232 -0.6719 -0.0808
  862MOL0     C16261   7.108   7.743   4.087 -0.6202 -0.1020  0.3078
  862MOL0     C16262   7.208   7.784   4.004 -0.2157  0.0101  0.0394
  862MOL0     C16263   7.295   7.888   4.042  0.0915 -0.5223 -0.0188
  862MOL0     C16264   7.412   7.928   3.953 -0.0128 -0.5938 -0.2658
  862MOL0     O16265   7.510   8.007   4.008 -0.1823  0.1543 -0.0485
  862MOL0     C16266   7.600   8.076   3.927  0.1515 -0.3170  0.9507
  862MOL0     C16267   7.576   8.134   3.799 -0.1400 -0.2791 -0.0028
  862MOL0     C16268   7.675   8.200   3.714 -0.5077  0.8309 -0.4071
  862MOL0     C16269   7.803   8.193   3.765 -0.7359 -0.5124  0.2887
  862MOL0     O16270   7.886   8.241   3.671 -0.1801 -0.8408 -0.0616
  862MOL0     C16271   8.028   8.250   3.710  0.6772 -0.1691  0.0139
  862MOL0     C16272   8.114   8.327   3.611 -0.2051 -0.3256 -0.8638
  862MOL0     C16273   8.133   8.248   3.478  0.1855 -0.4373  0.5511
  862MOL0     C16274   8.194   8.341   3.381  0.6618 -0.1526 -0.1694
  862MOL0     C16275   8.253   8.268   3.261 -0.6683  0.3707  0.5555
  862MOL0     C16276   8.340   8.357   3.177  0.3558 -0.2872 -0.6320
  862MOL0     C16277   8.399   8.294   3.046 -0.4156  0.3020  0.1038
  862MOL0     C16278   8.516   8.368   2.980 -1.3675  0.2943  0.3586
  862MOL0    Cl16279   8.488   8.534   2.965  0.2977 -0.1354 -0.0818
  862MOL0     C16280   7.835   8.129   3.880  0.1507  0.8519  0.2371
  862MOL0     C16281   7.733   8.079   3.964 -0.3212 -0.3828 -0.0888
  862MOL0     O16282   7.404   7.901   3.831  0.0430 -0.0734  0.2936
  862MOL0     C16283   7.279   7.955   4.157  0.6088  0.1659 -0.0671
  862MOL0     C16284   7.175   7.913   4.252  0.4963  0.3636 -0.1201
  862MOL0     N16285   6.628   8.042   4.739 -1.1454  0.1182 -0.6741
  862MOL0     N16286   6.593   8.160   4.724  0.7175 -0.3840 -0.7629
  862MOL0     C16287   5.615   8.474   5.163 -0.5280  0.2469 -0.8221
  862MOL0     C16288   5.503   8.511   5.246 -0.0724 -1.0034  0.0616
  862MOL0     C16289   5.194   8.573   5.567  0.3102  0.4907 -0.0585
  862MOL0     C16290   5.130   8.451   5.591  0.8318  0.2607 -0.9371
  862MOL0     C16291   5.009   8.435   5.662  0.2006 -0.2788 -0.5505
  862MOL0     C16292   4.947   8.552   5.706 -0.3605  0.2762 -0.4592
  862MOL0     O16293   4.825   8.551   5.768 -0.3542 -0.8823  0.2751
  862MOL0     C16294   4.791   8.445   5.862 -0.4553 -0.2483 -0.6564
  862MOL0     C16295   4.768   8.512   5.998 -0.2051  0.3027  0.0213
  862MOL0     C16296   4.644   8.599   6.001 -0.4557  0.3320 -0.1513
  862MOL0     C16297   4.635   8.692   6.124 -0.2479  0.2718  0.2246
  862MOL0     C16298   4.601   8.614   6.240 -0.1145 -0.5195 -0.1810
  862MOL0     C16299   4.571   8.531   6.328 -1.1833  0.1096 -0.4028
  862MOL0     C16300   5.010   8.674   5.672  0.2014 -0.3762  0.1647
  862MOL0     C16301   5.138   8.682   5.612 -0.1466 -0.5673 -0.9925
  862MOL0     C16302   5.181   8.816   5.575  0.0398  0.2605 -0.2136
  862MOL0     H16303   5.457   8.241   5.452 -2.7925  2.5219 -0.4639
  862MOL0     H16304   5.608   8.148   5.283 -0.7396 -1.3577  0.6648
  862MOL0     H16305   5.769   8.429   4.948  1.7928  1.2118 -1.9054
  862MOL0     H16306   5.916   8.419   5.059 -2.4710  1.7449  3.7471
  862MOL0     H16307   5.824   8.230   4.841  0.3825  2.0260 -2.4071
  862MOL0     H16308   5.929   8.179   4.967  1.0665  0.5197  0.9086
  862MOL0     H16309   6.091   8.364   4.920 -0.6450  2.4786 -0.4027
  862MOL0     H16310   5.999   8.422   4.781  1.5947  0.6797 -1.2198
  862MOL0     H16311   6.125   8.141   4.803 -0.6023 -0.4506  0.7832
  862MOL0     H16312   6.024   8.193   4.682 -0.8693 -0.9132  1.2407
  862MOL0     H16313   6.178   8.400   4.639 -0.0063 -0.3638 -1.0097
  862MOL0     H16314   6.300   8.324   4.738 -1.7983  2.0109  0.4391
  862MOL0     H16315   6.311   8.134   4.592  4.7733  1.8852 -1.2311
  862MOL0     H16316   6.190   8.194   4.480 -0.7286 -0.7280  0.9136
  862MOL0     H16317   6.341   8.412   4.476 -0.8074  0.2248 -1.6173
  862MOL0     H16318   6.372   8.277   4.372  1.3099 -0.8778  0.2437
  862MOL0     H16319   6.586   8.313   4.453  2.3399 -3.1140  1.3097
  862MOL0     H16320   6.519   8.377   4.604  0.3503 -0.6343  1.6521
  862MOL0     H16321   6.569   8.038   4.421  0.7996  1.6498 -0.7775
  862MOL0     H16322   6.790   7.854   4.640  0.5494 -0.4931 -0.9822
  862MOL0     H16323   6.626   7.786   4.636  0.6528  0.4884  1.1990
  862MOL0     H16324   6.642   7.822   4.380  0.0595  1.1329  0.6857
  862MOL0     H16325   6.801   7.902   4.415 -1.2598  0.8683 -0.6008
  862MOL0     H16326   6.728   7.613   4.413  0.3030 -0.0644  2.1742
  862MOL0     H16327   6.869   7.671   4.498  0.1279 -0.3090  0.3028
  862MOL0     H16328   6.816   7.730   4.195 -1.2326 -2.1522 -0.7674
  862MOL0     H16329   6.904   7.593   4.251 -1.8329 -1.2697  1.6992
  862MOL0     H16330   7.045   7.661   4.054 -1.4569  0.2724  0.9197
  862MOL0     H16331   7.222   7.730   3.910  2.1383 -3.5302  2.1609
  862MOL0     H16332   7.473   8.133   3.765 -0.0835 -0.3838 -0.1686
  862MOL0     H16333   7.660   8.237   3.613  0.2817  2.7246  0.1172
  862MOL0     H16334   8.047   8.291   3.809 -1.7295  2.5737 -0.5367
  862MOL0     H16335   8.070   8.150   3.699 -2.9725 -1.7953 -0.6881
  862MOL0     H16336   8.076   8.430   3.616  3.6955  1.2661 -0.3021
  862MOL0     H16337   8.212   8.348   3.655 -1.2338 -2.2303  2.7615
  862MOL0     H16338   8.206   8.169   3.499 -0.0263 -0.9978 -0.7720
  862MOL0     H16339   8.043   8.201   3.438 -0.5503  1.5871 -0.3264
  862MOL0     H16340   8.263   8.408   3.432 -0.7869  0.4373  1.0833
  862MOL0     H16341   8.122   8.414   3.343  2.0080 -0.1447 -2.9652
  862MOL0     H16342   8.167   8.229   3.206 -2.2436  0.0239  3.0996
  862MOL0     H16343   8.323   8.188   3.289  1.9670  2.2322 -0.2865
  862MOL0     H16344   8.274   8.439   3.147 -1.6781 -0.6923  2.3220
  862MOL0     H16345   8.426   8.395   3.233 -1.0777  0.5814  1.0893
  862MOL0     H16346   8.313   8.285   2.978  0.2760  0.2492 -0.7766
  862MOL0     H16347   8.433   8.195   3.077 -0.8091  0.9246  2.7577
  862MOL0     H16348   8.611   8.346   3.029  0.3825 -0.2902 -2.9857
  862MOL0     H16349   8.525   8.340   2.875 -0.7640 -1.9686  0.9545
  862MOL0     H16350   7.940   8.109   3.902  0.5540 -0.4330 -2.4583
  862MOL0     H16351   7.765   8.036   4.059  1.2461 -0.8735 -0.8157
  862MOL0     H16352   7.340   8.042   4.176  2.3494 -1.2243  1.0769
  862MOL0     H16353   7.152   7.960   4.347 -4.7046 -0.3863 -0.7136
  862MOL0     H16354   5.664   8.546   5.097  2.1119 -0.6809  0.0197
  862MOL0     H16355   5.446   8.603   5.230 -1.0156 -1.6457 -0.3426
  862MOL0     H16356   5.170   8.359   5.548  0.0231  0.4866 -2.2372
  862MOL0     H16357   4.967   8.335   5.659  1.6697 -0.9412  0.1006
  862MOL0     H16358   4.878   8.381   5.880 -0.8741 -0.2568  1.6649
  862MOL0     H16359   4.707   8.382   5.831  0.2837  0.1710 -3.8814
  862MOL0     H16360   4.852   8.580   6.018 -1.2633  2.1974 -1.5515
  862MOL0     H16361   4.750   8.439   6.078 -0.5673  0.1441 -0.2062
  862MOL0     H16362   4.554   8.537   5.996 -1.8541  2.3268 -1.2932
  862MOL0     H16363   4.638   8.661   5.911  0.0379 -1.0925 -1.2054
  862MOL0     H16364   4.731   8.743   6.126 -0.0859  0.4554 -3.8628
  862MOL0     H16365   4.557   8.767   6.107  0.3483  0.6390 -1.0050
  862MOL0     H16366   4.537   8.480   6.416 -0.5092 -0.1573 -0.2887
  862MOL0     H16367   4.971   8.770   5.704 -0.1755 -0.4181 -0.1602
  862MOL0     H16368   5.101   8.890   5.567  0.2056  0.5923  0.9726
  862MOL0     H16369   5.231   8.854   5.665 -2.1369 -0.1276  1.2110
  862MOL0     H16370   5.251   8.812   5.491 -1.4044  0.6116 -1.4627
  863MOL0     O16371   5.397  11.150   1.155 -0.5040 -0.1863  0.2913
  863MOL0     C16372   5.476  11.177   1.239  0.4221  0.2093  0.1701
  863MOL0     O16373   5.467  11.288   1.316  0.1298 -0.3275 -0.2352
  863MOL0     C16374   5.353  11.362   1.305 -0.1828  0.4594 -0.3040
  863MOL0     C16375   5.317  11.431   1.193 -0.3139 -0.1095 -0.1494
  863MOL0     C16376   5.193  11.505   1.198  0.0247  0.1842  0.5504
  863MOL0     C16377   5.102  11.494   1.299  0.0601  0.7045  0.0937
  863MOL0     O16378   4.974  11.533   1.298  0.1638 -0.3898 -0.1888
  863MOL0     C16379   4.896  11.527   1.174 -0.3198 -0.2240 -0.0055
  863MOL0     C16380   4.907  11.657   1.088  0.1800 -0.3050 -0.2370
  863MOL0     C16381   4.817  11.772   1.143  0.0539 -0.1970 -0.4087
  863MOL0     C16382   4.820  11.907   1.068  0.2293  0.3076 -0.3601
  863MOL0     C16383   4.734  12.007   1.141  0.3954  0.7513 -0.2852
  863MOL0     C16384   4.692  12.134   1.065 -0.7428  0.2034  0.3707
  863MOL0     C16385   4.650  12.262   1.138  0.1767 -0.2742  0.3539
  863MOL0     C16386   4.753  12.375   1.162 -0.9195  0.4242 -0.2505
  863MOL0     N16387   4.881  12.316   1.206 -0.1350  0.4063  0.5234
  863MOL0     C16388   4.982  12.266   1.123 -0.4307  0.3047 -0.1953
  863MOL0     C16389   5.085  12.245   1.209 -0.8549 -0.6935 -0.0131
  863MOL0     C16390   5.219  12.190   1.165  0.4856 -0.1979 -0.4758
  863MOL0     C16391   5.202  12.048   1.106 -0.1464 -0.2432  0.2273
  863MOL0     C16392   5.328  11.961   1.115  0.5909  0.3014 -0.0401
  863MOL0     C16393   5.459  12.037   1.084 -0.0016  0.8993 -0.7542
  863MOL0     O16394   5.565  11.944   1.078  0.2810  0.2057 -0.5284
  863MOL0     C16395   5.693  11.983   1.051 -0.5237 -0.7341 -1.3924
  863MOL0     C16396   5.786  11.873   1.060  0.3206  0.6521  0.0083
  863MOL0     C16397   5.919  11.899   1.043 -0.3243 -0.0639  0.4850
  863MOL0     C16398   5.966  12.030   1.007 -0.3705 -0.4523  0.5467
  863MOL0     C16399   6.112  12.045   0.971  1.7734  0.4051  0.6169
  863MOL0     O16400   6.142  12.165   0.924 -0.4471  0.5938  0.3715
  863MOL0     C16401   6.274  12.216   0.927 -0.3567 -0.9048 -0.6025
  863MOL0     C16402   6.376  12.174   0.839  0.3116  0.3652  0.3076
  863MOL0     C16403   6.505  12.240   0.843 -0.4111  0.0883  0.0778
  863MOL0     C16404   6.530  12.338   0.943  0.0351 -0.4136  0.2605
  863MOL0     O16405   6.664  12.391   0.948  0.4122  0.1719  0.7948
  863MOL0     C16406   6.701  12.481   1.048  0.4973  0.0663 -0.0457
  863MOL0     C16407   6.852  12.499   1.054  0.2239 -0.1902 -0.2324
  863MOL0     C16408   6.910  12.552   0.923  0.1312  0.2580 -0.3251
  863MOL0     C16409   7.056  12.612   0.941 -0.0963 -0.0457 -0.3200
  863MOL0     C16410   7.113  12.688   0.829  0.3394  0.4242  0.5641
  863MOL0     C16411   7.238  12.761   0.877 -0.0993 -1.2228  0.0690
  863MOL0     C16412   7.349  12.660   0.898 -0.4801  1.2698  0.8382
  863MOL0     C16413   7.497  12.720   0.906 -0.6313  0.0016 -1.2741
  863MOL0    Cl16414   7.555  12.782   0.755  0.1667  0.4508 -0.5293
  863MOL0     C16415   6.435  12.374   1.036  0.0169 -0.3639  0.1304
  863MOL0     C16416   6.306  12.316   1.020  0.2292  0.0667 -0.1034
  863MOL0     O16417   6.190  11.954   0.982  0.1229  0.1097  0.5523
  863MOL0     C16418   5.872  12.140   0.998 -0.5299 -0.3867 -0.6046
  863MOL0     C16419   5.740  12.115   1.029 -0.1691  0.1966  0.4534
  863MOL0     N16420   5.046  12.290   1.329  0.3011 -0.0141 -0.0031
  863MOL0     N16421   4.928  12.341   1.331 -0.0626 -0.0872 -0.8583
  863MOL0     C16422   5.151  11.425   1.409  0.4653 -0.2437 -0.2759
  863MOL0     C16423   5.275  11.367   1.421  0.1806 -0.9462 -0.0199
  863MOL0     C16424   5.585  11.082   1.253  0.6180 -0.3656 -0.7756
  863MOL0     C16425   5.575  10.953   1.206 -0.3791  0.3075  0.9020
  863MOL0     C16426   5.664  10.853   1.240  1.2607  0.4838  1.0744
  863MOL0     C16427   5.777  10.884   1.326 -0.5431  0.4865  0.6339
  863MOL0     O16428   5.877  10.795   1.359 -0.5087  0.8246 -0.5685
  863MOL0     C16429   5.866  10.662   1.309 -0.6910 -0.4626  0.1971
  863MOL0     C16430   5.959  10.558   1.369  0.6538  0.4531 -0.2401
  863MOL0     C16431   6.084  10.545   1.277  0.4365 -0.4361  0.7428
  863MOL0     C16432   6.204  10.462   1.336  1.0644 -0.3902 -0.5813
  863MOL0     C16433   6.275  10.514   1.458 -1.2197  0.0586  0.0809
  863MOL0     C16434   6.346  10.547   1.558  0.3390  0.2868  0.0354
  863MOL0     C16435   5.798  11.018   1.361  0.0140  0.5614 -0.0793
  863MOL0     C16436   5.710  11.116   1.323  0.8316 -0.5087  0.7118
  863MOL0     C16437   5.725  11.249   1.375  0.2299  0.6895 -0.7438
  863MOL0     H16438   5.381  11.441   1.105 -1.1747 -0.1804 -0.7994
  863MOL0     H16439   5.163  11.561   1.110 -0.1979  0.0922  0.5649
  863MOL0     H16440   4.915  11.446   1.104  0.6806  3.1009 -3.9954
  863MOL0     H16441   4.793  11.518   1.210 -0.1067  0.1723  0.7236
  863MOL0     H16442   4.899  11.621   0.985  1.9509 -0.5870 -0.3145
  863MOL0     H16443   5.005  11.704   1.100  0.7361 -1.6328  0.5309
  863MOL0     H16444   4.858  11.798   1.241  2.4786  0.8035 -1.5950
  863MOL0     H16445   4.715  11.737   1.160  0.4366 -0.9379  0.4941
  863MOL0     H16446   4.923  11.944   1.068  0.5201 -0.4783 -0.9107
  863MOL0     H16447   4.782  11.887   0.967  1.6991 -0.0402 -0.8771
  863MOL0     H16448   4.646  11.975   1.198  0.4445  2.4286  0.8032
  863MOL0     H16449   4.800  12.032   1.224 -0.6415 -1.4982  1.3405
  863MOL0     H16450   4.774  12.148   0.994 -0.5938  0.0625  0.5136
  863MOL0     H16451   4.606  12.110   1.002 -0.3058  2.0757 -1.0359
  863MOL0     H16452   4.605  12.229   1.231 -0.1468 -1.7763 -0.3097
  863MOL0     H16453   4.571  12.308   1.079  0.6827  1.3937  0.9101
  863MOL0     H16454   4.775  12.426   1.068  1.3972  2.0084  1.0565
  863MOL0     H16455   4.709  12.450   1.227 -2.6545 -1.8034  1.3383
  863MOL0     H16456   4.962  12.251   1.017 -1.6910  2.1088 -0.2707
  863MOL0     H16457   5.276  12.242   1.088 -0.5583 -0.5827 -1.5265
  863MOL0     H16458   5.290  12.191   1.249 -0.2670 -1.4247  0.2060
  863MOL0     H16459   5.119  11.993   1.151 -0.5257 -1.6769 -2.0443
  863MOL0     H16460   5.183  12.064   0.999  0.7489 -2.6703 -0.3416
  863MOL0     H16461   5.319  11.878   1.044 -2.4226 -2.1950  2.9544
  863MOL0     H16462   5.320  11.905   1.209  0.1901 -2.8189 -1.7926
  863MOL0     H16463   5.482  12.114   1.159 -0.8701 -0.3858  0.9138
  863MOL0     H16464   5.445  12.093   0.991 -1.3608  2.3442  0.2475
  863MOL0     H16465   5.757  11.778   1.104  1.6239  0.7504  1.1494
  863MOL0     H16466   5.987  11.814   1.045  0.1541  0.2924 -0.0243
  863MOL0     H16467   6.353  12.108   0.756 -0.8056  0.6847  0.3463
  863MOL0     H16468   6.586  12.213   0.775  0.6084  1.2805  0.7742
  863MOL0     H16469   6.646  12.574   1.031 -0.1045 -0.2772 -0.0407
  863MOL0     H16470   6.668  12.447   1.147  0.5444 -1.7755 -0.6148
  863MOL0     H16471   6.867  12.568   1.137 -0.8570 -2.8470  2.3651
  863MOL0     H16472   6.903  12.404   1.074  1.6212  0.5262 -0.2423
  863MOL0     H16473   6.898  12.474   0.847 -1.1264  2.4022 -2.4562
  863MOL0     H16474   6.846  12.633   0.887 -2.2206 -1.9359 -1.4121
  863MOL0     H16475   7.120  12.523   0.948 -3.1592 -2.4400 -0.4427
  863MOL0     H16476   7.061  12.672   1.032  0.2104  0.3471 -0.5951
  863MOL0     H16477   7.045  12.763   0.788  0.5729 -0.9066 -2.5015
  863MOL0     H16478   7.144  12.625   0.745 -1.8380 -1.5942  1.1874
  863MOL0     H16479   7.269  12.835   0.802 -2.6101 -0.1923 -0.0430
  863MOL0     H16480   7.229  12.808   0.975  1.3151 -0.6957 -0.0254
  863MOL0     H16481   7.345  12.578   0.826  0.4473  0.2192  1.9454
  863MOL0     H16482   7.335  12.622   1.000 -2.2589  0.3180  0.2878
  863MOL0     H16483   7.494  12.802   0.978  0.3798  1.6283 -2.9915
  863MOL0     H16484   7.568  12.640   0.928  1.6435  1.3738 -3.1703
  863MOL0     H16485   6.444  12.439   1.122 -1.6175 -0.6314  0.5453
  863MOL0     H16486   6.241  12.352   1.100  1.2337  3.5860 -0.7219
  863MOL0     H16487   5.892  12.240   0.960  0.7999  0.1539  1.3673
  863MOL0     H16488   5.673  12.201   1.027  1.6109  1.7042  1.7037
  863MOL0     H16489   5.087  11.426   1.496 -0.8202  2.5863 -1.1409
  863MOL0     H16490   5.307  11.335   1.520 -3.4070 -0.6609  1.4196
  863MOL0     H16491   5.484  10.914   1.160  0.5690 -1.7779  0.6691
  863MOL0     H16492   5.638  10.754   1.203 -2.3086  2.4670 -2.4313
  863MOL0     H16493   5.884  10.659   1.201  4.7397  2.1743  0.6907
  863MOL0     H16494   5.768  10.620   1.334 -1.4758  1.2931  0.2244
  863MOL0     H16495   5.910  10.461   1.380 -1.7496  1.6124 -0.2629
  863MOL0     H16496   5.983  10.597   1.468  0.2745  2.9330 -1.0584
  863MOL0     H16497   6.127  10.642   1.249 -0.5294 -1.0626 -3.6173
  863MOL0     H16498   6.050  10.500   1.184 -0.8457  1.2340  0.3567
  863MOL0     H16499   6.171  10.363   1.371 -1.7941  1.1136  1.3715
  863MOL0     H16500   6.275  10.442   1.256  0.2885  1.2571 -1.7222
  863MOL0     H16501   6.418  10.573   1.634  1.3500 -1.7413 -0.1469
  863MOL0     H16502   5.880  11.031   1.430 -1.9616 -1.5551  2.9546
  863MOL0     H16503   5.824  11.282   1.406  0.1611  3.2322 -2.8363
  863MOL0     H16504   5.704  11.323   1.297  1.9937  2.6351  0.5462
  863MOL0     H16505   5.669  11.264   1.467  2.4782 -0.4330  0.8941
  864MOL0     O16506   3.472   8.471   9.099  0.2340  0.2336 -0.3770
  864MOL0     C16507   3.506   8.363   9.146  0.0019  0.1375 -0.2614
  864MOL0     O16508   3.632   8.342   9.211  1.2850  0.9860 -0.3846
  864MOL0     C16509   3.715   8.448   9.214 -0.4894  0.3627 -0.1104
  864MOL0     C16510   3.841   8.434   9.150 -0.3198 -0.5296 -0.7952
  864MOL0     C16511   3.926   8.549   9.150 -0.6616  0.2155 -0.4270
  864MOL0     C16512   3.896   8.668   9.212 -0.5570 -0.3016 -0.6556
  864MOL0     O16513   3.979   8.777   9.202 -0.3710 -0.0132 -0.4460
  864MOL0     C16514   3.958   8.890   9.283  0.1753 -0.2253 -0.8241
  864MOL0     C16515   4.072   8.991   9.281  0.6735 -0.0780  0.8853
  864MOL0     C16516   4.099   9.036   9.139  0.6611  0.7649  0.3307
  864MOL0     C16517   4.234   9.116   9.123 -0.5731  0.0798  0.0080
  864MOL0     C16518   4.243   9.156   8.979 -0.0924  0.0510 -0.4051
  864MOL0     C16519   4.390   9.184   8.947 -0.0084  0.3525  0.2535
  864MOL0     C16520   4.409   9.256   8.819 -0.1922 -0.0475 -0.4026
  864MOL0     C16521   4.537   9.355   8.811  0.9264  0.3462 -0.1488
  864MOL0     N16522   4.653   9.265   8.819 -1.3017  0.3535 -0.1074
  864MOL0     C16523   4.742   9.245   8.929  0.0277 -1.4070  0.1377
  864MOL0     C16524   4.825   9.150   8.891  0.0267  0.0883  0.3946
  864MOL0     C16525   4.942   9.100   8.980 -0.4788  0.5596  1.1320
  864MOL0     C16526   5.052   9.047   8.898 -0.0310  0.6224 -0.1375
  864MOL0     C16527   5.163   8.974   8.978 -0.3986  0.0401  0.0819
  864MOL0     C16528   5.283   8.933   8.888 -0.7073  0.0215 -0.3348
  864MOL0     O16529   5.336   9.061   8.861 -0.2063 -0.0152 -0.1685
  864MOL0     C16530   5.449   9.059   8.778 -0.5392  0.4532  0.1148
  864MOL0     C16531   5.463   9.175   8.705 -0.3692 -0.4314 -0.6958
  864MOL0     C16532   5.575   9.201   8.626 -0.3761  0.6316 -0.2538
  864MOL0     C16533   5.660   9.096   8.606 -0.1074  0.6925  0.0132
  864MOL0     C16534   5.759   9.110   8.500 -0.5585  0.0573  0.0871
  864MOL0     O16535   5.770   9.233   8.427  0.2577 -0.6589 -0.6626
  864MOL0     C16536   5.839   9.227   8.309 -0.2493 -0.5751 -0.1639
  864MOL0     C16537   5.781   9.168   8.201 -0.3081  1.0553 -0.2166
  864MOL0     C16538   5.855   9.174   8.080  0.8480 -0.6129  0.7336
  864MOL0     C16539   5.983   9.228   8.076 -0.5561 -0.8300 -0.1179
  864MOL0     O16540   6.037   9.229   7.947 -0.6319  0.0450 -0.0362
  864MOL0     C16541   6.123   9.338   7.914  0.3496 -0.1761 -0.4291
  864MOL0     C16542   6.160   9.329   7.771  0.1973 -0.7416 -0.9471
  864MOL0     C16543   6.277   9.425   7.730  0.2174 -0.1382  0.4686
  864MOL0     C16544   6.408   9.346   7.712  0.8748 -0.3373 -0.1015
  864MOL0     C16545   6.512   9.432   7.645  0.0470  0.0122 -0.1076
  864MOL0     C16546   6.471   9.498   7.510 -0.1283  0.0229  0.0904
  864MOL0     C16547   6.586   9.547   7.417 -0.5482  0.5113 -0.6665
  864MOL0     C16548   6.537   9.638   7.306  0.7566 -0.1198  0.5983
  864MOL0    Cl16549   6.458   9.795   7.368  0.1013  0.0852  0.1233
  864MOL0     C16550   6.040   9.288   8.186  0.5503  0.6374 -0.5788
  864MOL0     C16551   5.966   9.285   8.305 -0.3409  0.1239  0.3761
  864MOL0     O16552   5.814   9.004   8.478  0.4353  0.4136  0.0369
  864MOL0     C16553   5.633   8.976   8.673  0.3381  0.0079  0.1078
  864MOL0     C16554   5.531   8.956   8.761 -0.4695  0.4350  0.4228
  864MOL0     N16555   4.784   9.114   8.759  0.0605  0.3062 -0.6554
  864MOL0     N16556   4.688   9.184   8.718 -0.0560  0.4319 -0.7417
  864MOL0     C16557   3.778   8.676   9.280  0.7748  0.7103  0.0731
  864MOL0     C16558   3.683   8.569   9.288  0.2703  0.4022  1.3979
  864MOL0     C16559   3.400   8.252   9.141 -0.4326 -0.7627  0.3694
  864MOL0     C16560   3.264   8.300   9.118  0.2121 -0.1205 -0.2710
  864MOL0     C16561   3.155   8.214   9.096 -0.0612 -0.4548  0.8167
  864MOL0     C16562   3.184   8.078   9.085 -0.5933 -0.6086 -0.0668
  864MOL0     O16563   3.083   7.992   9.065 -0.4336 -0.4279  0.1443
  864MOL0     C16564   2.944   8.020   9.105 -0.3478 -0.4453 -0.2399
  864MOL0     C16565   2.861   8.045   8.979 -0.5736 -0.4159  0.0269
  864MOL0     C16566   2.711   8.048   9.007  0.0940  0.2870 -0.2346
  864MOL0     C16567   2.643   8.023   8.869 -0.1550  0.2762  1.0707
  864MOL0     C16568   2.592   8.154   8.819  0.0088  0.0843  0.4801
  864MOL0     C16569   2.535   8.254   8.775  0.6447  0.0956  0.7908
  864MOL0     C16570   3.312   8.026   9.108  0.1583 -0.0621 -0.1392
  864MOL0     C16571   3.419   8.115   9.132  0.3821  1.0944  0.3629
  864MOL0     C16572   3.556   8.058   9.120 -0.1332 -0.6620 -0.2637
  864MOL0     H16573   3.877   8.342   9.106  1.8306 -0.5708  0.9139
  864MOL0     H16574   4.022   8.541   9.099 -0.7794  0.1392 -0.6377
  864MOL0     H16575   3.866   8.939   9.250 -1.4130 -3.6033 -1.8777
  864MOL0     H16576   3.946   8.857   9.387  4.0509  0.3184 -0.0340
  864MOL0     H16577   4.166   8.946   9.314  2.1194  0.9614 -1.5670
  864MOL0     H16578   4.034   9.069   9.347 -0.5233 -0.8931  1.2042
  864MOL0     H16579   4.011   9.093   9.106 -0.2611 -0.5649  0.3972
  864MOL0     H16580   4.105   8.952   9.069  1.9904  0.7740  0.4170
  864MOL0     H16581   4.243   9.205   9.186  0.3370  1.4443 -1.9680
  864MOL0     H16582   4.312   9.045   9.152 -0.1600 -0.0505 -1.3370
  864MOL0     H16583   4.211   9.073   8.915 -2.4282  0.1441  0.5209
  864MOL0     H16584   4.174   9.241   8.969  0.6451  0.8231  0.8029
  864MOL0     H16585   4.435   9.250   9.022  0.0740  0.9888 -0.3445
  864MOL0     H16586   4.440   9.087   8.948  0.3302  0.5179  1.7744
  864MOL0     H16587   4.319   9.315   8.803 -1.4743 -1.3506  1.5314
  864MOL0     H16588   4.410   9.180   8.740  1.7643  0.4903 -0.9586
  864MOL0     H16589   4.543   9.399   8.711  1.6967  0.5905 -0.0010
  864MOL0     H16590   4.534   9.431   8.889  0.9873  0.4221 -0.2212
  864MOL0     H16591   4.747   9.299   9.024  2.6535  3.1821 -2.2274
  864MOL0     H16592   4.985   9.187   9.031 -0.1247  0.5677  0.8270
  864MOL0     H16593   4.915   9.023   9.053  0.8813 -1.9556 -0.8812
  864MOL0     H16594   5.013   8.983   8.819 -2.4189  0.5028  1.0594
  864MOL0     H16595   5.105   9.134   8.859  1.0009  0.7723  1.4647
  864MOL0     H16596   5.120   8.879   9.011  0.1839 -0.0197  0.6714
  864MOL0     H16597   5.207   9.029   9.062  3.1688  0.0982 -1.6501
  864MOL0     H16598   5.247   8.874   8.803  3.3631 -1.0033 -1.5548
  864MOL0     H16599   5.347   8.869   8.949 -3.9820 -2.1742  1.0709
  864MOL0     H16600   5.390   9.255   8.715  1.8238  1.4337  2.4851
  864MOL0     H16601   5.584   9.299   8.579  4.0466  1.4423  1.8074
  864MOL0     H16602   5.678   9.133   8.207  0.2654 -0.6787 -0.0015
  864MOL0     H16603   5.815   9.137   7.987  1.9430  0.0799 -0.0404
  864MOL0     H16604   6.068   9.431   7.934 -0.9897 -1.1381  0.5880
  864MOL0     H16605   6.214   9.333   7.975 -0.8209 -0.6204  1.3592
  864MOL0     H16606   6.202   9.230   7.747 -1.5083 -0.8795 -3.9243
  864MOL0     H16607   6.074   9.336   7.704  0.0403  3.0492 -0.5636
  864MOL0     H16608   6.252   9.471   7.634  0.1772 -4.2063 -1.6479
  864MOL0     H16609   6.287   9.496   7.813 -0.1690  0.6016 -0.1034
  864MOL0     H16610   6.378   9.272   7.638 -1.4745  0.4929 -0.0485
  864MOL0     H16611   6.440   9.314   7.811 -1.3926  0.7179  1.0471
  864MOL0     H16612   6.604   9.375   7.628 -0.8656 -0.9799 -1.9234
  864MOL0     H16613   6.535   9.507   7.722 -3.0812 -1.1658  2.1720
  864MOL0     H16614   6.413   9.424   7.454 -1.5270 -1.2230  2.9215
  864MOL0     H16615   6.403   9.581   7.532  1.9894  1.4015  1.9723
  864MOL0     H16616   6.630   9.455   7.379  2.7560  0.1793  3.3041
  864MOL0     H16617   6.669   9.593   7.472 -1.0691  1.6993 -0.8410
  864MOL0     H16618   6.618   9.676   7.244 -0.0085  0.4844 -0.0511
  864MOL0     H16619   6.470   9.580   7.243 -1.5433  0.8486  2.0280
  864MOL0     H16620   6.143   9.320   8.184  0.5523  0.5989 -1.2267
  864MOL0     H16621   6.002   9.338   8.392  0.4295  1.0782 -0.4941
  864MOL0     H16622   5.704   8.894   8.666  0.6994  0.2339  0.9580
  864MOL0     H16623   5.525   8.866   8.822 -0.7075  0.1381 -0.0399
  864MOL0     H16624   3.755   8.767   9.334 -0.8158 -0.1836  0.9668
  864MOL0     H16625   3.597   8.586   9.352  0.5848  2.1468  1.4061
  864MOL0     H16626   3.244   8.407   9.117  1.3207  0.1042 -1.2274
  864MOL0     H16627   3.057   8.252   9.069 -1.0322 -4.7528 -2.7985
  864MOL0     H16628   2.939   8.096   9.183 -0.5961  0.5449 -1.1973
  864MOL0     H16629   2.905   7.926   9.146  1.9548 -0.6183  1.8038
  864MOL0     H16630   2.879   7.960   8.914  1.2741 -1.4262  1.7388
  864MOL0     H16631   2.885   8.138   8.927 -2.6628 -1.1195 -2.3969
  864MOL0     H16632   2.679   8.138   9.062  1.0568 -0.0076  0.8567
  864MOL0     H16633   2.685   7.965   9.073  1.6369  0.0217  0.0825
  864MOL0     H16634   2.698   7.965   8.794  0.4441  2.2816 -0.1066
  864MOL0     H16635   2.547   7.972   8.883 -0.1700 -0.1165 -0.3271
  864MOL0     H16636   2.488   8.340   8.732  2.4654  1.6238  1.6887
  864MOL0     H16637   3.324   7.918   9.113 -0.9374 -0.1693  0.6527
  864MOL0     H16638   3.592   8.090   9.022 -3.4897  0.0128 -1.3923
  864MOL0     H16639   3.620   8.100   9.198 -1.4219 -1.5238  1.3232
  864MOL0     H16640   3.551   7.949   9.134 -1.6978 -0.5607  0.0801
  865MOL0     O16641   0.624   8.642   8.025  0.2730 -0.0416  0.2252
  865MOL0     C16642   0.587   8.745   7.965  0.2665  0.1575 -0.5799
  865MOL0     O16643   0.657   8.867   7.964  0.1865  0.4236 -0.0015
  865MOL0     C16644   0.789   8.864   8.006  0.3264 -0.5860 -0.0461
  865MOL0     C16645   0.842   8.977   8.072  0.1489 -0.3405  0.0388
  865MOL0     C16646   0.974   8.982   8.132  0.9021  0.2687 -0.3334
  865MOL0     C16647   1.056   8.883   8.119  0.2900  0.2532  0.7815
  865MOL0     O16648   1.180   8.897   8.181  0.3523  0.5240  0.0335
  865MOL0     C16649   1.176   8.899   8.321 -0.0212 -0.3478 -0.1851
  865MOL0     C16650   1.317   8.867   8.382  0.7279 -0.7035  0.1098
  865MOL0     C16651   1.356   8.732   8.347 -0.1776  0.4727  0.5597
  865MOL0     C16652   1.504   8.714   8.383  0.2571 -0.3960  0.7258
  865MOL0     C16653   1.554   8.572   8.362  0.2139 -0.1705 -0.1118
  865MOL0     C16654   1.563   8.474   8.482  0.0847 -0.0819  0.1218
  865MOL0     C16655   1.579   8.326   8.446 -0.3089  0.0520 -0.6644
  865MOL0     C16656   1.725   8.299   8.387 -0.0753  0.6598 -0.2739
  865MOL0     N16657   1.745   8.156   8.382 -0.3055  0.5807  0.3922
  865MOL0     C16658   1.693   8.075   8.284 -0.4120  0.4809  0.2875
  865MOL0     C16659   1.760   7.959   8.305  0.5960  0.2075  1.0651
  865MOL0     C16660   1.741   7.832   8.222  0.2592 -0.2118  0.0330
  865MOL0     C16661   1.856   7.789   8.130 -0.4167 -0.3204 -0.2126
  865MOL0     C16662   1.859   7.639   8.106  0.0473 -0.1906  0.0288
  865MOL0     C16663   1.981   7.626   8.012 -0.4406  0.6826  0.1407
  865MOL0     O16664   1.980   7.494   7.949  0.3505  0.2626 -0.0352
  865MOL0     C16665   2.094   7.457   7.877 -0.2438 -0.2826  0.0171
  865MOL0     C16666   2.186   7.552   7.832  0.6517  0.2291 -0.7064
  865MOL0     C16667   2.302   7.521   7.761 -0.5879 -0.3970 -0.0292
  865MOL0     C16668   2.322   7.381   7.731  1.0897 -0.7165 -0.3160
  865MOL0     C16669   2.451   7.345   7.667 -0.0738  0.3177 -0.1891
  865MOL0     O16670   2.510   7.441   7.594 -0.7006 -0.2961  0.6099
  865MOL0     C16671   2.634   7.427   7.537 -0.1730  0.2856 -0.0729
  865MOL0     C16672   2.734   7.342   7.583 -0.0367  0.3724 -0.1254
  865MOL0     C16673   2.860   7.333   7.518 -0.0955 -0.0840  0.4302
  865MOL0     C16674   2.892   7.430   7.416 -0.0037 -0.2305 -0.1460
  865MOL0     O16675   3.018   7.428   7.365 -0.1003 -0.0956  0.1530
  865MOL0     C16676   3.048   7.504   7.249  0.9552 -0.1868  0.2734
  865MOL0     C16677   3.190   7.497   7.208 -0.1166  0.2576  0.6743
  865MOL0     C16678   3.236   7.353   7.168  0.2635 -0.6293  0.1470
  865MOL0     C16679   3.390   7.353   7.132 -0.9157 -0.1617  0.4701
  865MOL0     C16680   3.461   7.214   7.137  0.4095 -0.4464 -0.2683
  865MOL0     C16681   3.608   7.245   7.081 -1.1971 -0.1326 -0.7650
  865MOL0     C16682   3.711   7.123   7.085  0.4364  0.0008 -0.5303
  865MOL0     C16683   3.852   7.168   7.060  0.2301  0.0753 -0.6896
  865MOL0    Cl16684   3.970   7.034   7.086  0.3218  0.1108  0.1849
  865MOL0     C16685   2.790   7.523   7.386 -0.1811 -0.2928  0.2752
  865MOL0     C16686   2.661   7.515   7.434 -0.2382  1.4853  1.4151
  865MOL0     O16687   2.491   7.230   7.680 -0.5676 -0.9913  0.1671
  865MOL0     C16688   2.235   7.284   7.776  0.3321 -0.0982 -0.6363
  865MOL0     C16689   2.124   7.327   7.845  0.1806 -0.0349 -0.5433
  865MOL0     N16690   1.841   7.966   8.416  0.3150 -0.2096  0.0709
  865MOL0     N16691   1.850   8.090   8.450  0.0645  0.2974  0.1368
  865MOL0     C16692   1.012   8.765   8.059  0.2511  0.6509 -0.8463
  865MOL0     C16693   0.880   8.753   7.992  0.1000 -0.0183  0.6550
  865MOL0     C16694   0.455   8.745   7.901  0.2222 -0.6782 -0.3607
  865MOL0     C16695   0.427   8.858   7.815  0.3809  0.3132 -0.3087
  865MOL0     C16696   0.305   8.867   7.755  0.0334  0.1234  0.4126
  865MOL0     C16697   0.202   8.778   7.773 -0.1774  0.4579  0.2149
  865MOL0     O16698   0.079   8.790   7.710 -0.7812  0.2827  0.0435
  865MOL0     C16699   0.063   8.873   7.598 -0.5820 -0.4102 -0.6384
  865MOL0     C16700  -0.083   8.853   7.540 -0.3656  0.9458  0.2740
  865MOL0     C16701  -0.142   8.715   7.568 -0.3509  0.2222  0.0035
  865MOL0     C16702  -0.284   8.706   7.491  0.0919  1.6945 -0.2546
  865MOL0     C16703  -0.270   8.719   7.344 -0.3208 -0.4224 -0.0747
  865MOL0     C16704  -0.252   8.720   7.231 -0.2137  0.6219  0.4151
  865MOL0     C16705   0.233   8.666   7.853  1.3253  0.3325  0.8179
  865MOL0     C16706   0.350   8.646   7.923  0.2474  0.1182 -0.1388
  865MOL0     C16707   0.350   8.516   8.002 -0.2227 -0.3669 -0.9748
  865MOL0     H16708   0.783   9.065   8.096  1.1658  0.0254  1.3492
  865MOL0     H16709   1.011   9.077   8.172  3.0890 -0.2983 -0.8617
  865MOL0     H16710   1.144   8.997   8.357 -1.5023 -1.6498  2.3251
  865MOL0     H16711   1.111   8.819   8.357 -0.3288  0.1164  0.3105
  865MOL0     H16712   1.299   8.867   8.489 -1.3917  2.6350 -0.1000
  865MOL0     H16713   1.396   8.937   8.353 -0.4996  0.1114 -1.4226
  865MOL0     H16714   1.326   8.699   8.247  1.9697 -1.4117  0.4519
  865MOL0     H16715   1.300   8.658   8.404  2.2797 -1.9834  0.0171
  865MOL0     H16716   1.553   8.779   8.311  1.6696 -1.9466  0.2116
  865MOL0     H16717   1.524   8.746   8.485  0.6498  0.8127  0.2777
  865MOL0     H16718   1.475   8.530   8.300 -1.6882  1.4545  1.0465
  865MOL0     H16719   1.653   8.578   8.317  1.8682 -1.2185  3.1121
  865MOL0     H16720   1.651   8.516   8.532 -0.4293  1.0146  0.1134
  865MOL0     H16721   1.480   8.476   8.553  1.3507 -1.5572  1.7506
  865MOL0     H16722   1.506   8.291   8.372 -2.1114 -0.5755  1.3358
  865MOL0     H16723   1.571   8.263   8.535  0.7270 -0.4598 -0.9056
  865MOL0     H16724   1.718   8.338   8.285 -0.2284 -2.7071 -1.6707
  865MOL0     H16725   1.803   8.348   8.446 -1.2923  1.7914  0.4517
  865MOL0     H16726   1.620   8.106   8.209 -0.2416  0.0269 -0.0742
  865MOL0     H16727   1.738   7.750   8.295  1.3519 -1.4652 -1.2610
  865MOL0     H16728   1.641   7.832   8.177 -0.6357 -0.0562  1.9101
  865MOL0     H16729   1.855   7.850   8.039 -0.3629  2.3031  1.4517
  865MOL0     H16730   1.952   7.815   8.175  0.3419 -0.7291 -1.5336
  865MOL0     H16731   1.775   7.609   8.043 -0.1896  0.0189  0.2436
  865MOL0     H16732   1.871   7.583   8.200 -0.2260 -0.0330  0.1565
  865MOL0     H16733   2.069   7.640   8.076  1.0617  3.4783 -2.2916
  865MOL0     H16734   1.977   7.702   7.933 -0.6780  1.0751  0.5238
  865MOL0     H16735   2.179   7.659   7.849  0.5889  0.4451 -1.9914
  865MOL0     H16736   2.369   7.601   7.733  0.1917 -0.7352  0.8180
  865MOL0     H16737   2.727   7.271   7.665  0.0966 -1.1130 -1.3482
  865MOL0     H16738   2.938   7.270   7.560 -0.6884 -0.7347  0.5587
  865MOL0     H16739   2.975   7.502   7.168  3.1207  0.7437 -1.7981
  865MOL0     H16740   3.053   7.607   7.286  0.7079 -0.8901  2.4395
  865MOL0     H16741   3.217   7.568   7.130 -0.3440  1.0484  1.3025
  865MOL0     H16742   3.252   7.531   7.292  2.1425 -1.1935 -0.2936
  865MOL0     H16743   3.231   7.282   7.251  2.1566  0.7845  1.5611
  865MOL0     H16744   3.173   7.312   7.089 -0.1640  1.6341 -0.7701
  865MOL0     H16745   3.434   7.428   7.198 -1.0424  1.4905 -1.2351
  865MOL0     H16746   3.410   7.403   7.037  0.3096  2.6901  2.1126
  865MOL0     H16747   3.403   7.143   7.077  0.8395  0.6378 -2.0402
  865MOL0     H16748   3.457   7.185   7.243 -1.1605 -0.5089 -0.3208
  865MOL0     H16749   3.590   7.270   6.977 -2.7703 -1.2659 -0.8003
  865MOL0     H16750   3.657   7.327   7.134 -0.4901 -2.8448  3.2764
  865MOL0     H16751   3.681   7.055   7.005 -0.3714  0.5697 -0.7227
  865MOL0     H16752   3.707   7.069   7.181  1.0677  0.0277 -0.4871
  865MOL0     H16753   3.853   7.214   6.961 -0.1366 -1.1502 -1.2834
  865MOL0     H16754   3.884   7.246   7.129 -0.5620  1.4424 -1.8022
  865MOL0     H16755   2.825   7.601   7.321  1.3069 -0.4299  0.8678
  865MOL0     H16756   2.589   7.581   7.388 -0.7033  0.1194  0.0915
  865MOL0     H16757   2.265   7.180   7.783  1.8914  0.3727 -0.0714
  865MOL0     H16758   2.056   7.250   7.881 -0.0051  0.4303  0.1128
  865MOL0     H16759   1.069   8.675   8.079 -0.6662  0.4448  0.9790
  865MOL0     H16760   0.842   8.658   7.955 -0.9695  0.4185  0.5897
  865MOL0     H16761   0.505   8.931   7.800  1.1749 -0.7652 -1.6901
  865MOL0     H16762   0.290   8.956   7.694  0.2060  2.2300  3.2011
  865MOL0     H16763   0.144   8.851   7.528  0.2455  1.1269 -0.1905
  865MOL0     H16764   0.064   8.981   7.616 -3.9693 -0.4032  0.3885
  865MOL0     H16765  -0.069   8.861   7.432 -1.0236 -0.5927  0.0530
  865MOL0     H16766  -0.156   8.927   7.575 -0.0193  0.4178  2.2170
  865MOL0     H16767  -0.157   8.722   7.676  1.1745 -0.4194  0.2867
  865MOL0     H16768  -0.083   8.627   7.541 -1.8806 -0.7076 -0.3844
  865MOL0     H16769  -0.329   8.611   7.522  2.8823  1.2516  3.0050
  865MOL0     H16770  -0.352   8.780   7.533 -0.7565 -0.1351  1.8044
  865MOL0     H16771  -0.229   8.712   7.127 -0.5301  0.5287  0.3523
  865MOL0     H16772   0.152   8.596   7.873 -0.5245  1.9743 -0.5353
  865MOL0     H16773   0.420   8.533   8.085 -0.3389  1.8766 -1.2876
  865MOL0     H16774   0.266   8.498   8.070  0.5728 -0.7329 -0.0479
  865MOL0     H16775   0.373   8.430   7.939 -2.7955 -0.6615 -1.6059
  866MOL0     O16776  10.203   0.241   5.559  0.3144 -0.1236 -0.0831
  866MOL0     C16777  10.125   0.216   5.463  0.2581 -0.4840  0.3670
  866MOL0     O16778  10.177   0.164   5.346  0.0617 -0.0687 -0.7985
  866MOL0     C16779  10.313   0.151   5.330 -0.7798 -0.1390  0.0545
  866MOL0     C16780  10.339   0.043   5.243  0.3723 -1.0410 -0.2582
  866MOL0     C16781  10.466   0.029   5.191  0.1151 -0.1515 -0.5891
  866MOL0     C16782  10.565   0.119   5.215 -0.1271 -0.2898  0.4782
  866MOL0     O16783  10.688   0.103   5.153 -0.7005 -0.2750 -0.0855
  866MOL0     C16784  10.798   0.186   5.169 -0.2286 -0.2222 -0.3015
  866MOL0     C16785  10.915   0.109   5.111 -0.2678 -0.1079  0.2352
  866MOL0     C16786  11.039   0.208   5.098  0.3953  0.1132 -0.3267
  866MOL0     C16787  11.176   0.132   5.077  0.2840  0.6614  0.0132
  866MOL0     C16788  11.272   0.253   5.063 -0.1105 -0.0366  0.3385
  866MOL0     C16789  11.415   0.213   5.023  0.6241 -0.9834 -0.1158
  866MOL0     C16790  11.493   0.332   4.974 -0.6134  0.0423 -0.2160
  866MOL0     C16791  11.645   0.311   4.941  0.8800 -0.0207  0.5472
  866MOL0     N16792  11.715   0.265   5.058 -0.0060  0.7586  0.7476
  866MOL0     C16793  11.734   0.350   5.170  0.2254  0.1428  0.1067
  866MOL0     C16794  11.814   0.274   5.249 -0.0907 -0.0511  0.7931
  866MOL0     C16795  11.888   0.332   5.369  0.3742  0.1004 -0.0688
  866MOL0     C16796  12.025   0.357   5.324 -0.6398 -0.2463 -0.2137
  866MOL0     C16797  12.132   0.375   5.438  0.8388  0.3825 -0.1042
  866MOL0     C16798  12.273   0.322   5.400  0.1720 -0.1733 -0.4743
  866MOL0     O16799  12.378   0.394   5.464 -0.1168  0.3119  0.9664
  866MOL0     C16800  12.492   0.314   5.470 -0.0137 -0.7719 -0.6306
  866MOL0     C16801  12.530   0.201   5.393  0.6019  0.2302 -0.6373
  866MOL0     C16802  12.647   0.135   5.414  0.0703 -0.3340  1.0454
  866MOL0     C16803  12.739   0.177   5.511 -0.1149  0.4587  0.5183
  866MOL0     C16804  12.869   0.119   5.515 -0.6258  0.5731 -0.4306
  866MOL0     O16805  12.937   0.120   5.405  0.2434 -0.2628  0.3660
  866MOL0     C16806  13.068   0.086   5.398 -0.1461 -0.9057 -0.5781
  866MOL0     C16807  13.105   0.005   5.293 -0.0997 -0.2985  0.4783
  866MOL0     C16808  13.247  -0.036   5.280 -0.4181 -0.5656  0.3024
  866MOL0     C16809  13.343   0.009   5.369  0.1121  0.1964  0.6445
  866MOL0     O16810  13.476  -0.031   5.349  0.0795 -0.9941 -0.3178
  866MOL0     C16811  13.562  -0.045   5.475  0.0665  0.3691 -0.0143
  866MOL0     C16812  13.664  -0.148   5.455  0.2818  0.0128 -0.2392
  866MOL0     C16813  13.725  -0.189   5.587  0.2692 -0.5626 -0.4983
  866MOL0     C16814  13.837  -0.288   5.582 -0.0595  0.6847 -0.3415
  866MOL0     C16815  13.797  -0.441   5.552  0.5039 -0.9237 -0.3610
  866MOL0     C16816  13.922  -0.523   5.549  0.1637  0.5603  0.0071
  866MOL0     C16817  13.892  -0.668   5.506 -0.3138  1.1430  0.1447
  866MOL0     C16818  13.874  -0.766   5.628 -0.2809 -0.0612 -0.0817
  866MOL0    Cl16819  14.023  -0.804   5.708 -0.2026 -1.0934 -0.5544
  866MOL0     C16820  13.297   0.103   5.460 -0.3245  0.2409  0.1327
  866MOL0     C16821  13.157   0.143   5.475 -0.5984 -0.1915 -0.6356
  866MOL0     O16822  12.910   0.067   5.619 -0.3681 -0.8770  0.7426
  866MOL0     C16823  12.695   0.269   5.606  0.1518  0.1593  0.7213
  866MOL0     C16824  12.566   0.329   5.591  0.2265 -0.4269  0.1561
  866MOL0     N16825  11.835   0.149   5.190  0.1898 -0.1114 -0.3404
  866MOL0     N16826  11.772   0.140   5.074 -1.2441  0.4733  0.0245
  866MOL0     C16827  10.536   0.235   5.298 -0.8525  0.1211 -0.0507
  866MOL0     C16828  10.411   0.249   5.354  0.6559 -0.5128  0.4968
  866MOL0     C16829   9.980   0.218   5.470 -0.2773  0.8843 -0.2358
  866MOL0     C16830   9.907   0.140   5.376 -0.1589 -0.4325  0.4252
  866MOL0     C16831   9.762   0.142   5.380 -0.1211 -0.2213  0.5791
  866MOL0     C16832   9.694   0.221   5.470 -0.4611 -0.6828 -0.0750
  866MOL0     O16833   9.557   0.219   5.479  0.9375  0.1475  0.0229
  866MOL0     C16834   9.486   0.212   5.351  0.0999 -0.2370 -0.3396
  866MOL0     C16835   9.337   0.255   5.372 -0.2377  0.3686 -0.1758
  866MOL0     C16836   9.248   0.127   5.385  0.0641  0.2725  0.2077
  866MOL0     C16837   9.110   0.169   5.440  0.5114  0.3943 -0.6462
  866MOL0     C16838   9.002   0.123   5.359 -0.0175  0.5796 -0.3673
  866MOL0     C16839   8.906   0.086   5.294  0.2394  0.0764 -0.0098
  866MOL0     C16840   9.767   0.306   5.552 -1.1622 -0.0274 -0.0101
  866MOL0     C16841   9.903   0.303   5.558  0.3120  0.6959 -0.8432
  866MOL0     C16842   9.979   0.409   5.647 -0.3377 -0.0054 -0.6624
  866MOL0     H16843  10.249  -0.014   5.226 -0.9880  1.1333 -0.8343
  866MOL0     H16844  10.477  -0.044   5.111 -0.5921  0.8037 -1.5832
  866MOL0     H16845  10.782   0.285   5.124 -3.4897  0.5498  2.1646
  866MOL0     H16846  10.820   0.199   5.275 -0.9959 -1.2190 -0.0121
  866MOL0     H16847  10.900   0.072   5.009  2.6638 -0.0354 -0.3018
  866MOL0     H16848  10.945   0.025   5.174 -2.5171 -0.7609  0.5205
  866MOL0     H16849  11.036   0.261   5.194 -2.7075 -3.5893  1.9097
  866MOL0     H16850  11.010   0.264   5.009 -2.8855 -3.3737 -1.7668
  866MOL0     H16851  11.205   0.058   5.153 -1.2638 -2.4192 -2.1857
  866MOL0     H16852  11.168   0.080   4.981 -2.6051  0.7534  0.1391
  866MOL0     H16853  11.229   0.311   4.981 -0.5081 -1.8027 -0.7446
  866MOL0     H16854  11.279   0.321   5.149  0.7740 -0.8659  0.9411
  866MOL0     H16855  11.458   0.168   5.113  0.2637 -4.5396 -1.5716
  866MOL0     H16856  11.406   0.140   4.942 -0.6659 -0.6981 -0.2425
  866MOL0     H16857  11.486   0.418   5.041  1.1346 -0.3079  0.4763
  866MOL0     H16858  11.451   0.362   4.877 -0.2049 -0.5552 -0.5796
  866MOL0     H16859  11.647   0.235   4.864 -0.3030  1.5734 -1.1412
  866MOL0     H16860  11.677   0.407   4.900 -3.0483  0.7096 -1.3029
  866MOL0     H16861  11.693   0.446   5.199 -0.2864 -1.2385  4.7481
  866MOL0     H16862  11.843   0.426   5.403  2.8683  0.0286  4.1611
  866MOL0     H16863  11.879   0.255   5.446 -0.7466 -0.3737 -0.6468
  866MOL0     H16864  12.057   0.278   5.256 -2.9782  0.5911 -2.4402
  866MOL0     H16865  12.034   0.441   5.255  0.6956 -0.9023 -0.8723
  866MOL0     H16866  12.105   0.322   5.529 -1.0381  2.7893  0.8670
  866MOL0     H16867  12.137   0.479   5.473 -3.0005 -0.1193  2.5900
  866MOL0     H16868  12.275   0.339   5.292  0.2820  1.8166 -0.1858
  866MOL0     H16869  12.282   0.216   5.426 -2.5477 -0.6197 -1.0269
  866MOL0     H16870  12.459   0.171   5.317  0.6951  0.9750 -1.0292
  866MOL0     H16871  12.669   0.050   5.350  0.0028  0.4801 -0.1024
  866MOL0     H16872  13.028  -0.029   5.225 -0.3892 -0.2614  0.7845
  866MOL0     H16873  13.281  -0.106   5.204  1.2532 -1.3096  1.6680
  866MOL0     H16874  13.603   0.053   5.501 -2.1162  2.0707 -2.4420
  866MOL0     H16875  13.490  -0.081   5.550  1.2899  0.9028  1.4586
  866MOL0     H16876  13.622  -0.238   5.409 -0.6265 -1.6349  3.3911
  866MOL0     H16877  13.733  -0.106   5.382  1.4576 -2.1928 -0.4850
  866MOL0     H16878  13.780  -0.104   5.629  0.0976 -0.7611  0.1318
  866MOL0     H16879  13.651  -0.224   5.659 -0.4430 -0.4504 -1.1615
  866MOL0     H16880  13.893  -0.297   5.675  2.5874  2.5853 -1.6213
  866MOL0     H16881  13.908  -0.260   5.504  1.1926 -0.1474  0.4564
  866MOL0     H16882  13.757  -0.453   5.451  0.6987 -1.8740 -0.3373
  866MOL0     H16883  13.725  -0.469   5.629  1.1486  1.7805  1.3602
  866MOL0     H16884  13.988  -0.484   5.471  1.9050 -1.7027  0.2513
  866MOL0     H16885  13.972  -0.518   5.646 -3.7385  2.1245  2.1895
  866MOL0     H16886  13.974  -0.692   5.438 -1.9322 -0.8901 -1.2449
  866MOL0     H16887  13.798  -0.673   5.450 -0.0411  0.2048 -0.2537
  866MOL0     H16888  13.804  -0.729   5.704 -0.8870 -4.4574  1.7982
  866MOL0     H16889  13.830  -0.864   5.608  0.5181 -0.1857 -1.3398
  866MOL0     H16890  13.375   0.148   5.520 -0.7780  0.0232  0.9009
  866MOL0     H16891  13.132   0.223   5.544 -0.1730  0.1073 -0.8250
  866MOL0     H16892  12.758   0.299   5.689 -0.7097 -0.8365  1.7717
  866MOL0     H16893  12.539   0.394   5.673  1.2008  0.1132  0.0662
  866MOL0     H16894  10.609   0.315   5.303 -1.9593  1.2567 -1.2873
  866MOL0     H16895  10.380   0.343   5.399  0.0490  0.3063 -1.5201
  866MOL0     H16896   9.946   0.085   5.292 -1.4956 -1.7591  0.6206
  866MOL0     H16897   9.704   0.074   5.320  0.0016 -0.4550  0.7227
  866MOL0     H16898   9.486   0.105   5.328 -2.4768 -0.7599  1.6159
  866MOL0     H16899   9.534   0.271   5.271  1.2301  0.2884  0.6867
  866MOL0     H16900   9.312   0.319   5.287  1.4223 -0.1913 -1.1336
  866MOL0     H16901   9.322   0.309   5.466 -2.7840 -0.3472 -0.1012
  866MOL0     H16902   9.284   0.046   5.449  2.3279  0.2217 -1.0179
  866MOL0     H16903   9.243   0.078   5.287  2.1985  0.7941 -0.2204
  866MOL0     H16904   9.096   0.138   5.543 -1.8029  1.0582 -0.7089
  866MOL0     H16905   9.095   0.277   5.434  0.5505  0.3358 -2.2184
  866MOL0     H16906   8.827   0.054   5.229 -2.5519 -0.5313  3.4117
  866MOL0     H16907   9.721   0.381   5.615  0.4356  2.0163 -1.1092
  866MOL0     H16908  10.065   0.367   5.699  2.8646  3.6029 -2.5384
  866MOL0     H16909  10.017   0.497   5.594 -0.0747  1.0072  1.1123
  866MOL0     H16910   9.917   0.451   5.727  0.7746  1.0213 -0.3190
  867MOL0     O16911   7.441   4.252   5.255  0.3481 -0.1921  0.2033
  867MOL0     C16912   7.507   4.345   5.294  0.2507  0.3658  0.2912
  867MOL0     O16913   7.642   4.352   5.302 -0.5984 -0.1790 -0.4101
  867MOL0     C16914   7.725   4.243   5.286  1.3098  0.6893 -0.2472
  867MOL0     C16915   7.681   4.104   5.301  0.3257 -0.0326 -0.2858
  867MOL0     C16916   7.778   4.006   5.288  0.5410 -0.0891  0.0774
  867MOL0     C16917   7.917   4.029   5.273 -0.5623 -0.5501 -0.5330
  867MOL0     O16918   8.012   3.934   5.270 -0.3838 -0.4053 -0.2399
  867MOL0     C16919   7.991   3.825   5.182  0.3711 -0.3798  0.7931
  867MOL0     C16920   8.121   3.743   5.165 -0.2871  0.6043  0.4899
  867MOL0     C16921   8.213   3.797   5.064  0.1828 -0.6884 -0.2244
  867MOL0     C16922   8.337   3.708   5.061  0.6613 -0.1597  0.4016
  867MOL0     C16923   8.441   3.760   4.967 -0.1450  0.8152 -0.4685
  867MOL0     C16924   8.559   3.670   4.966  0.1965 -1.1592  0.9767
  867MOL0     C16925   8.685   3.755   4.925 -0.3756 -0.2256 -1.0016
  867MOL0     C16926   8.689   3.804   4.779 -0.2079  1.1999 -0.7324
  867MOL0     N16927   8.832   3.846   4.746 -0.3017 -0.0435  0.3091
  867MOL0     C16928   8.931   3.760   4.698  0.2396 -0.9322  0.4264
  867MOL0     C16929   9.035   3.846   4.691 -0.2796  0.1485 -0.2434
  867MOL0     C16930   9.172   3.811   4.638 -0.3928 -0.2985  0.7785
  867MOL0     C16931   9.288   3.861   4.720 -0.0138 -0.1502 -0.1484
  867MOL0     C16932   9.428   3.822   4.668  0.2010  0.9295  0.0667
  867MOL0     C16933   9.486   3.889   4.543 -0.4077  0.9518  1.3123
  867MOL0     O16934   9.603   3.814   4.503  0.6044  0.6733 -0.2859
  867MOL0     C16935   9.667   3.831   4.384 -0.2159  0.3521  0.0692
  867MOL0     C16936   9.614   3.905   4.283  0.6650  0.0474  0.4569
  867MOL0     C16937   9.674   3.933   4.166  0.0176 -0.2831  0.1484
  867MOL0     C16938   9.803   3.880   4.136 -0.3729  0.1469 -0.0430
  867MOL0     C16939   9.861   3.900   4.007 -0.3092  1.0214  0.4173
  867MOL0     O16940   9.798   3.981   3.919 -0.4799  0.6161 -0.1187
  867MOL0     C16941   9.876   4.031   3.818  0.2068  0.1232 -0.3309
  867MOL0     C16942   9.868   3.983   3.686  0.4209  0.6819  0.8570
  867MOL0     C16943   9.935   4.045   3.581  0.2717 -0.7051 -0.3561
  867MOL0     C16944  10.018   4.155   3.605 -0.2351  0.4538 -0.2511
  867MOL0     O16945  10.086   4.206   3.494 -0.8991  0.3172 -0.3991
  867MOL0     C16946  10.104   4.344   3.500 -0.2758 -0.2560 -0.3548
  867MOL0     C16947  10.175   4.395   3.372  0.2480  0.1292  0.0402
  867MOL0     C16948  10.092   4.365   3.247  0.6544 -0.0200  0.5389
  867MOL0     C16949  10.179   4.368   3.112  0.6138 -0.8013  1.0029
  867MOL0     C16950  10.098   4.417   2.991  0.2190 -0.2734  0.6157
  867MOL0     C16951   9.969   4.335   2.970 -0.3362  0.5308  0.9226
  867MOL0     C16952   9.888   4.403   2.855 -0.3314 -0.0457  0.0719
  867MOL0     C16953   9.866   4.292   2.744 -0.4479 -0.8267  0.0579
  867MOL0    Cl16954   9.769   4.159   2.802 -0.5122  0.1443  0.6938
  867MOL0     C16955  10.028   4.204   3.740 -0.2403  0.6273 -0.3853
  867MOL0     C16956   9.951   4.143   3.846 -0.6923  0.4843 -0.1264
  867MOL0     O16957   9.975   3.854   3.994  0.1571  0.1867  0.5193
  867MOL0     C16958   9.870   3.820   4.243 -0.9431  1.3752 -0.0011
  867MOL0     C16959   9.798   3.794   4.370  0.6498 -0.4297  0.5761
  867MOL0     N16960   9.003   3.977   4.725 -0.7091  0.1541 -0.1207
  867MOL0     N16961   8.878   3.973   4.749 -0.5442 -1.1754  0.6108
  867MOL0     C16962   7.955   4.164   5.253 -0.0569 -0.1594  0.2762
  867MOL0     C16963   7.854   4.271   5.258 -0.3288  0.3422  0.1726
  867MOL0     C16964   7.435   4.459   5.338  0.6653 -0.0445  1.4094
  867MOL0     C16965   7.290   4.453   5.355  0.6644 -0.0104 -1.0622
  867MOL0     C16966   7.202   4.561   5.383  0.1326 -0.6245  0.3512
  867MOL0     C16967   7.256   4.688   5.396  0.0942 -0.3508 -0.1204
  867MOL0     O16968   7.183   4.804   5.412 -0.1269 -0.2756 -0.2745
  867MOL0     C16969   7.038   4.804   5.434 -0.0501  0.2520  0.1787
  867MOL0     C16970   7.009   4.755   5.577  0.5449 -0.1969 -0.0670
  867MOL0     C16971   6.877   4.817   5.626 -0.3132  0.0807 -0.6106
  867MOL0     C16972   6.768   4.727   5.567  0.7704 -0.3154 -0.7150
  867MOL0     C16973   6.637   4.739   5.643 -0.6775  0.0074 -0.4925
  867MOL0     C16974   6.527   4.733   5.685 -0.1747 -0.9060 -0.6405
  867MOL0     C16975   7.398   4.701   5.386 -0.0872 -0.1045 -0.5436
  867MOL0     C16976   7.483   4.589   5.373  0.4109 -0.0725 -0.3173
  867MOL0     C16977   7.629   4.622   5.395 -0.6522  0.2227 -0.3689
  867MOL0     H16978   7.579   4.085   5.333 -0.4434  0.8653 -2.0312
  867MOL0     H16979   7.752   3.902   5.302 -1.1242  0.6017  2.9204
  867MOL0     H16980   7.927   3.757   5.238 -0.5517  2.1299  3.0098
  867MOL0     H16981   7.946   3.850   5.085  0.4869  1.3943  1.1640
  867MOL0     H16982   8.102   3.639   5.135 -0.3412  0.6177  0.4752
  867MOL0     H16983   8.174   3.726   5.259  1.8497 -0.9856 -0.9100
  867MOL0     H16984   8.231   3.903   5.086  1.9031 -1.3151  1.7846
  867MOL0     H16985   8.172   3.780   4.964 -2.1711  2.2650  0.0902
  867MOL0     H16986   8.387   3.707   5.159  0.3510 -0.2195  0.5621
  867MOL0     H16987   8.319   3.607   5.024 -0.0941 -0.6977  2.1114
  867MOL0     H16988   8.396   3.773   4.869 -1.4739 -0.9536 -0.1311
  867MOL0     H16989   8.474   3.858   5.005  1.5616  0.6626 -1.4679
  867MOL0     H16990   8.576   3.643   5.071 -2.4327  1.1416  2.1155
  867MOL0     H16991   8.544   3.581   4.905 -2.3874 -1.5725  2.0997
  867MOL0     H16992   8.767   3.684   4.936 -1.1941 -0.8240  2.3887
  867MOL0     H16993   8.713   3.839   4.989 -0.2968 -0.6770 -0.4346
  867MOL0     H16994   8.640   3.726   4.720 -1.6587  0.2440  1.6233
  867MOL0     H16995   8.626   3.893   4.771 -2.7777 -0.5618 -1.2088
  867MOL0     H16996   8.912   3.660   4.658 -2.0130 -0.3869  0.0087
  867MOL0     H16997   9.191   3.704   4.632 -1.2225 -0.3886 -0.6524
  867MOL0     H16998   9.196   3.843   4.536  2.7448 -1.4089  1.0637
  867MOL0     H16999   9.284   3.970   4.728 -1.0243  0.5536 -6.0663
  867MOL0     H17000   9.273   3.823   4.822 -2.9394 -1.0261 -0.8135
  867MOL0     H17001   9.425   3.714   4.655  1.3887  0.7652  1.0385
  867MOL0     H17002   9.493   3.841   4.754  0.4887  1.8823 -0.3445
  867MOL0     H17003   9.506   3.992   4.573 -0.8818  1.9589 -1.5017
  867MOL0     H17004   9.407   3.880   4.468 -0.4512 -0.2459  1.4842
  867MOL0     H17005   9.518   3.953   4.297  0.3386 -0.4268 -0.0774
  867MOL0     H17006   9.641   3.997   4.084 -0.4889  1.1448  1.4259
  867MOL0     H17007   9.800   3.900   3.670 -0.8918  1.9775 -0.7395
  867MOL0     H17008   9.919   4.016   3.477 -0.4727  1.9044 -1.0635
  867MOL0     H17009  10.007   4.395   3.497  0.6272  1.9488  2.9265
  867MOL0     H17010  10.164   4.375   3.585  0.4311 -1.0664 -0.5411
  867MOL0     H17011  10.183   4.504   3.378 -4.4512  0.7662 -1.3580
  867MOL0     H17012  10.270   4.340   3.367 -1.2597 -2.7345  0.4284
  867MOL0     H17013  10.027   4.278   3.258  0.9298 -0.2604  0.2686
  867MOL0     H17014  10.009   4.436   3.247 -1.1878 -2.0650  0.0170
  867MOL0     H17015  10.222   4.268   3.096  0.1478 -0.8372 -0.0793
  867MOL0     H17016  10.261   4.440   3.119 -1.1197  1.4768 -0.6750
  867MOL0     H17017  10.160   4.415   2.901  0.4384  0.3980  0.7455
  867MOL0     H17018  10.077   4.522   3.015 -0.4024 -0.7422  2.2621
  867MOL0     H17019   9.991   4.232   2.939  0.1473  0.0540  2.7331
  867MOL0     H17020   9.916   4.346   3.065 -3.0399 -0.2801 -0.3780
  867MOL0     H17021   9.948   4.485   2.814 -1.1300  0.6582  0.2857
  867MOL0     H17022   9.789   4.439   2.884 -2.0944 -2.1747 -2.7399
  867MOL0     H17023   9.818   4.337   2.656  2.6967 -1.2108 -2.0454
  867MOL0     H17024   9.958   4.243   2.711  0.1439 -0.5480  1.2527
  867MOL0     H17025  10.095   4.287   3.760  1.5564 -1.0993  1.2036
  867MOL0     H17026   9.940   4.166   3.952 -2.4948 -0.8565  0.0260
  867MOL0     H17027   9.977   3.808   4.233 -1.2530  0.2881 -2.7929
  867MOL0     H17028   9.846   3.734   4.447  0.3341 -1.8982 -0.3221
  867MOL0     H17029   8.060   4.189   5.239 -0.5927  2.2363  0.0520
  867MOL0     H17030   7.875   4.375   5.236  1.5490  0.2223  1.2204
  867MOL0     H17031   7.239   4.357   5.351 -1.7274  0.9106  2.4928
  867MOL0     H17032   7.097   4.534   5.387  0.3519 -1.6428 -0.5222
  867MOL0     H17033   6.983   4.750   5.356 -0.4785  1.3489 -0.2875
  867MOL0     H17034   6.993   4.902   5.420 -1.1197 -0.2347  0.0952
  867MOL0     H17035   7.087   4.784   5.648  0.5231 -1.2118  0.3867
  867MOL0     H17036   7.015   4.646   5.582  1.1633 -0.1242  1.2656
  867MOL0     H17037   6.865   4.924   5.602 -1.5516  0.6678  2.2308
  867MOL0     H17038   6.872   4.816   5.735  0.5544 -0.5223 -0.5723
  867MOL0     H17039   6.752   4.754   5.462 -0.3431 -0.1459 -0.5165
  867MOL0     H17040   6.790   4.620   5.573  0.4215 -0.3573  4.2842
  867MOL0     H17041   6.428   4.724   5.724 -0.1453  1.2352  0.0247
  867MOL0     H17042   7.428   4.805   5.391 -1.4367  0.3940 -2.1690
  867MOL0     H17043   7.641   4.731   5.405  2.1789 -0.1359  1.1217
  867MOL0     H17044   7.670   4.579   5.486 -0.9808  1.4179  0.3738
  867MOL0     H17045   7.699   4.587   5.319 -1.7348 -0.5433 -1.0353
  868MOL0     O17046   7.589   7.757   2.146  0.5922  0.1028 -1.0161
  868MOL0     C17047   7.489   7.764   2.217 -0.2464 -0.2520 -0.5556
  868MOL0     O17048   7.496   7.750   2.358  0.1725 -0.4944  0.3259
  868MOL0     C17049   7.610   7.707   2.425 -0.1262 -0.9251  0.2521
  868MOL0     C17050   7.633   7.745   2.559  0.1278 -0.6843  0.1071
  868MOL0     C17051   7.748   7.703   2.626  0.2398 -0.1959  0.0092
  868MOL0     C17052   7.835   7.622   2.570  0.4770 -0.4873 -0.1365
  868MOL0     O17053   7.939   7.599   2.648  0.2424  0.8560  0.1430
  868MOL0     C17054   8.071   7.590   2.594 -0.3791 -0.6279 -0.7076
  868MOL0     C17055   8.134   7.723   2.617 -0.1702 -0.0233  0.5515
  868MOL0     C17056   8.280   7.716   2.568 -0.7749 -0.1140  0.7077
  868MOL0     C17057   8.303   7.722   2.409  0.7056  0.0176  0.3309
  868MOL0     C17058   8.444   7.684   2.375  0.4184 -0.2762  0.5625
  868MOL0     C17059   8.443   7.536   2.355 -0.4697 -0.6535  1.1723
  868MOL0     C17060   8.581   7.485   2.297 -0.4495  0.7356 -0.4460
  868MOL0     C17061   8.574   7.328   2.291 -0.8630  0.3833 -0.0305
  868MOL0     N17062   8.464   7.288   2.196  0.3662  0.3435 -0.0677
  868MOL0     C17063   8.351   7.208   2.230 -0.6250  0.5066 -0.3877
  868MOL0     C17064   8.277   7.223   2.114 -0.5530  0.5724  0.3168
  868MOL0     C17065   8.132   7.173   2.111  0.3961 -0.3379 -0.4296
  868MOL0     C17066   8.032   7.250   2.203 -0.6051 -0.9206  0.2056
  868MOL0     C17067   7.883   7.245   2.166  0.6568 -1.1052  0.2573
  868MOL0     C17068   7.849   7.337   2.039  0.0728  1.0177  0.1642
  868MOL0     O17069   7.839   7.478   2.063 -0.1519  0.1679  0.4508
  868MOL0     C17070   7.949   7.558   2.047  0.0376  0.4673 -0.7897
  868MOL0     C17071   8.062   7.521   1.966  0.5308  0.1108  0.7875
  868MOL0     C17072   8.180   7.606   1.968  0.4976 -0.1543  0.3889
  868MOL0     C17073   8.174   7.726   2.035 -0.3314 -0.0024  0.9247
  868MOL0     C17074   8.301   7.807   2.058  0.1358  0.6046  0.0483
  868MOL0     O17075   8.283   7.938   2.100  0.3717  0.5785  0.1000
  868MOL0     C17076   8.397   8.013   2.103 -0.0225 -0.2537 -0.3205
  868MOL0     C17077   8.471   8.038   2.223  0.8614  1.0939  0.4219
  868MOL0     C17078   8.567   8.130   2.230  0.4984 -0.4531  0.0603
  868MOL0     C17079   8.607   8.206   2.115  0.1282 -0.6606  0.4216
  868MOL0     O17080   8.710   8.296   2.140 -0.9675 -0.6156  0.2796
  868MOL0     C17081   8.757   8.384   2.038 -0.4685 -0.2637  1.3931
  868MOL0     C17082   8.895   8.442   2.066 -0.7792 -0.3653 -0.2969
  868MOL0     C17083   8.996   8.341   2.111 -0.2735  0.6844 -0.1865
  868MOL0     C17084   9.131   8.360   2.039 -0.2020 -0.0368 -0.1377
  868MOL0     C17085   9.239   8.259   2.076  0.3255  0.8524 -0.0952
  868MOL0     C17086   9.377   8.274   2.009 -0.3777 -0.0860 -1.0817
  868MOL0     C17087   9.371   8.275   1.859  1.2867 -0.2585 -0.5393
  868MOL0     C17088   9.491   8.340   1.797  0.5044 -0.3517 -0.3785
  868MOL0    Cl17089   9.642   8.244   1.817 -0.5481  0.0967 -0.6596
  868MOL0     C17090   8.542   8.182   1.997 -1.2157  1.2691 -1.1412
  868MOL0     C17091   8.434   8.086   1.990 -0.3524  0.6728  0.0790
  868MOL0     O17092   8.409   7.752   2.041 -0.3026  0.0880  0.5847
  868MOL0     C17093   8.064   7.771   2.110  0.2422  1.4076 -0.5031
  868MOL0     C17094   7.951   7.686   2.119 -0.1588  0.9114  0.1745
  868MOL0     N17095   8.330   7.301   2.022  0.7938 -0.5237 -0.0029
  868MOL0     N17096   8.445   7.333   2.069 -0.6460  0.0503  0.9466
  868MOL0     C17097   7.818   7.575   2.437  0.5785  0.2485 -0.6968
  868MOL0     C17098   7.705   7.624   2.372 -0.7256  0.4408 -0.0995
  868MOL0     C17099   7.362   7.794   2.153 -0.2565 -0.3359  0.4211
  868MOL0     C17100   7.243   7.743   2.217 -0.8472  0.1588 -0.1936
  868MOL0     C17101   7.121   7.765   2.163 -0.2462  0.3378 -0.0792
  868MOL0     C17102   7.097   7.842   2.054 -1.0464  0.3887 -0.5330
  868MOL0     O17103   6.971   7.875   2.020  0.4178  0.2454 -0.0278
  868MOL0     C17104   6.956   7.990   1.931  0.0455  0.1552  0.3097
  868MOL0     C17105   6.818   8.053   1.960 -0.7989  0.1593  0.3355
  868MOL0     C17106   6.776   8.142   1.846  1.0655  0.5793 -0.2216
  868MOL0     C17107   6.675   8.261   1.879  0.2917  0.5968 -0.2038
  868MOL0     C17108   6.574   8.228   1.979 -0.1169 -1.2201 -0.2625
  868MOL0     C17109   6.505   8.205   2.075 -0.1954  0.8126 -0.1915
  868MOL0     C17110   7.207   7.901   1.999 -0.8333 -1.3981  0.0882
  868MOL0     C17111   7.340   7.879   2.039 -0.1229  0.0728  0.4493
  868MOL0     C17112   7.446   7.943   1.953 -0.2355 -0.0867 -0.8292
  868MOL0     H17113   7.569   7.821   2.605  0.1227 -0.5904 -0.0538
  868MOL0     H17114   7.765   7.724   2.731  0.9726 -0.5845 -0.0277
  868MOL0     H17115   8.135   7.518   2.646 -0.8067 -1.9025 -1.8765
  868MOL0     H17116   8.063   7.565   2.488 -3.7132 -1.5027 -0.3477
  868MOL0     H17117   8.139   7.750   2.722  1.9458  0.2824  0.4087
  868MOL0     H17118   8.072   7.791   2.558 -0.6483 -2.0322 -1.4198
  868MOL0     H17119   8.328   7.625   2.605 -1.1044 -0.1866  0.9633
  868MOL0     H17120   8.327   7.803   2.614 -3.5668  1.3780  0.9867
  868MOL0     H17121   8.240   7.650   2.355 -0.1468  0.8032  0.2503
  868MOL0     H17122   8.275   7.825   2.385 -0.4787 -0.7561 -1.8252
  868MOL0     H17123   8.486   7.730   2.286 -1.6026 -0.7889 -0.7221
  868MOL0     H17124   8.515   7.699   2.457  0.5305 -2.3876  0.9115
  868MOL0     H17125   8.426   7.486   2.451 -0.8608  1.1549  2.0706
  868MOL0     H17126   8.359   7.513   2.289  2.1476 -1.4888 -2.1593
  868MOL0     H17127   8.666   7.509   2.361 -0.6106 -0.9052  0.4435
  868MOL0     H17128   8.608   7.525   2.199 -1.1072  1.8299 -0.1890
  868MOL0     H17129   8.672   7.294   2.258 -1.1805  0.3784 -0.9984
  868MOL0     H17130   8.550   7.297   2.393 -2.7577  0.9183 -0.2595
  868MOL0     H17131   8.326   7.158   2.323 -0.3473 -0.2597 -0.7178
  868MOL0     H17132   8.094   7.173   2.008 -1.9606 -0.8298  0.3681
  868MOL0     H17133   8.127   7.069   2.143  0.2817  0.4839  2.4803
  868MOL0     H17134   8.028   7.201   2.301 -1.3943 -0.5810  0.3462
  868MOL0     H17135   8.073   7.351   2.214 -0.4361 -0.8474 -0.9300
  868MOL0     H17136   7.823   7.275   2.252 -0.7743 -0.6976 -0.8406
  868MOL0     H17137   7.853   7.145   2.134 -1.7064 -0.6359  0.8180
  868MOL0     H17138   7.754   7.301   2.001  3.0460 -4.4661 -3.5035
  868MOL0     H17139   7.909   7.304   1.954  0.0867 -0.0007  0.5628
  868MOL0     H17140   8.083   7.427   1.917  0.3071  0.6201 -0.3031
  868MOL0     H17141   8.272   7.575   1.920 -0.2456 -0.2521 -1.0670
  868MOL0     H17142   8.446   7.979   2.311  0.9618 -2.3095 -1.6819
  868MOL0     H17143   8.623   8.137   2.323 -1.1770  1.1012  1.0170
  868MOL0     H17144   8.758   8.327   1.944 -2.3628  3.1771 -0.9476
  868MOL0     H17145   8.686   8.464   2.016  1.4221  0.6167 -2.2769
  868MOL0     H17146   8.935   8.486   1.974  0.5786 -0.0160  0.4313
  868MOL0     H17147   8.890   8.526   2.137 -1.8291 -0.9951  0.3917
  868MOL0     H17148   9.017   8.365   2.215  0.1994  3.6523 -0.8929
  868MOL0     H17149   8.952   8.244   2.084  0.4518  0.7698 -1.7769
  868MOL0     H17150   9.166   8.462   2.054 -1.8054  0.3730  1.1080
  868MOL0     H17151   9.110   8.357   1.932 -0.7249 -0.4002 -0.0291
  868MOL0     H17152   9.209   8.157   2.051  0.8500  0.8722 -0.8314
  868MOL0     H17153   9.240   8.270   2.185 -2.4313  0.9949 -0.0100
  868MOL0     H17154   9.421   8.369   2.042  0.7596  0.0755 -2.9664
  868MOL0     H17155   9.445   8.201   2.053  1.1852  2.2495  0.6325
  868MOL0     H17156   9.279   8.326   1.828  0.8851  0.3615  1.5402
  868MOL0     H17157   9.368   8.174   1.817 -0.5295 -0.3612 -0.2534
  868MOL0     H17158   9.477   8.356   1.690  0.7473 -1.7012 -0.6355
  868MOL0     H17159   9.502   8.442   1.835 -0.3666 -1.3096  2.6938
  868MOL0     H17160   8.574   8.243   1.914  0.3823  1.9329 -0.0921
  868MOL0     H17161   8.383   8.075   1.894  1.1627  0.1315 -0.6961
  868MOL0     H17162   8.085   7.859   2.169 -0.0793  2.4722 -1.9298
  868MOL0     H17163   7.861   7.723   2.166 -2.2723  2.1744 -4.3781
  868MOL0     H17164   7.886   7.511   2.382  1.0210 -0.2477  0.3935
  868MOL0     H17165   7.696   7.599   2.266  2.3298  2.0078 -0.8208
  868MOL0     H17166   7.243   7.685   2.309 -1.6892  1.2353  0.5109
  868MOL0     H17167   7.032   7.724   2.210 -0.4589  0.8112 -0.0678
  868MOL0     H17168   6.951   7.950   1.829  0.6555  3.0001 -0.9295
  868MOL0     H17169   7.034   8.066   1.935 -1.0307  1.3322 -0.1117
  868MOL0     H17170   6.823   8.118   2.048  1.7324 -2.4460  2.3042
  868MOL0     H17171   6.747   7.975   1.988 -1.6283  0.0890 -1.7807
  868MOL0     H17172   6.731   8.088   1.763 -1.4684  1.6227  0.3800
  868MOL0     H17173   6.865   8.193   1.806 -0.8903  2.7602 -2.0969
  868MOL0     H17174   6.725   8.350   1.919 -2.5256  2.9615 -1.5942
  868MOL0     H17175   6.626   8.294   1.787  1.2270  0.4345 -0.7824
  868MOL0     H17176   6.444   8.165   2.154  0.3953 -3.0414 -1.4540
  868MOL0     H17177   7.204   7.966   1.912  1.1266  0.2405  1.1344
  868MOL0     H17178   7.544   7.943   2.001 -1.3527  0.8249  1.6523
  868MOL0     H17179   7.450   7.914   1.848 -0.6988 -1.9648 -0.3583
  868MOL0     H17180   7.429   8.051   1.952  1.1314  0.1449 -1.8020
  869MOL0     O17181   3.079   0.492   3.114 -0.0936 -0.0190 -0.5012
  869MOL0     C17182   3.002   0.390   3.115  0.4323 -0.6283  0.9324
  869MOL0     O17183   3.025   0.268   3.049  0.2950 -0.6059  0.2257
  869MOL0     C17184   3.137   0.258   2.972 -0.5683  0.8798 -0.3042
  869MOL0     C17185   3.254   0.232   3.038 -0.1674 -0.1796  0.0929
  869MOL0     C17186   3.373   0.196   2.972  0.4366 -0.3545  0.5296
  869MOL0     C17187   3.384   0.200   2.835  0.5877 -0.6836 -0.1127
  869MOL0     O17188   3.503   0.169   2.769  0.4475  0.3288 -0.0014
  869MOL0     C17189   3.631   0.158   2.827 -0.1362  0.1423  0.2113
  869MOL0     C17190   3.716   0.115   2.709  1.0858 -1.0189  0.3035
  869MOL0     C17191   3.867   0.129   2.738 -0.7759 -0.3895  0.3459
  869MOL0     C17192   3.948   0.036   2.654 -0.4953  0.6386  0.8865
  869MOL0     C17193   4.096   0.059   2.658 -0.3274 -0.0657 -0.5640
  869MOL0     C17194   4.163  -0.008   2.780 -0.0198  0.2003  0.1124
  869MOL0     C17195   4.315  -0.014   2.750  0.2595 -0.1576 -0.1451
  869MOL0     C17196   4.378  -0.126   2.814  0.3055  0.1133 -0.7064
  869MOL0     N17197   4.524  -0.100   2.833  0.6468 -0.3926  0.1428
  869MOL0     C17198   4.575  -0.017   2.932  0.3437  0.3514 -0.1565
  869MOL0     C17199   4.706  -0.027   2.912 -0.0199 -0.5213 -0.4324
  869MOL0     C17200   4.807   0.015   3.015 -0.2593  0.1473  0.1141
  869MOL0     C17201   4.950  -0.004   2.963  0.7202 -0.1876  0.7799
  869MOL0     C17202   5.047   0.040   3.073  0.1906  0.1016 -1.0248
  869MOL0     C17203   5.197   0.066   3.025  1.0060 -0.6266  0.3687
  869MOL0     O17204   5.254  -0.057   2.980 -0.0598 -0.0467 -0.3500
  869MOL0     C17205   5.378  -0.057   2.922 -0.1022 -0.5235  0.0873
  869MOL0     C17206   5.455   0.064   2.894  0.0810 -0.2227 -0.2268
  869MOL0     C17207   5.579   0.054   2.839  0.2515 -0.7585 -0.0139
  869MOL0     C17208   5.630  -0.068   2.793  0.8680  0.2873 -0.1495
  869MOL0     C17209   5.773  -0.067   2.740  0.1090  0.2565 -0.5435
  869MOL0     O17210   5.818   0.054   2.696  0.0633 -0.6373 -1.0640
  869MOL0     C17211   5.941   0.062   2.640 -0.2927 -0.4075  0.5864
  869MOL0     C17212   6.059   0.020   2.707 -0.6504 -0.3239 -0.3079
  869MOL0     C17213   6.180   0.020   2.651  0.3917  0.0989  0.5020
  869MOL0     C17214   6.198   0.056   2.515 -0.0301  0.0166  0.1572
  869MOL0     O17215   6.315   0.057   2.445  0.4116 -0.7969 -0.2739
  869MOL0     C17216   6.432   0.024   2.516 -0.4392  0.5426 -0.2092
  869MOL0     C17217   6.465  -0.122   2.525  0.3814 -0.7752 -0.2382
  869MOL0     C17218   6.598  -0.150   2.578 -1.1908  0.4559 -0.1960
  869MOL0     C17219   6.611  -0.134   2.732  0.5613 -0.0968 -0.2094
  869MOL0     C17220   6.738  -0.065   2.794  0.1376  0.3953  0.1080
  869MOL0     C17221   6.866  -0.107   2.732 -0.3778  0.4331 -0.2865
  869MOL0     C17222   6.893  -0.260   2.729 -0.1167 -0.6024  0.1390
  869MOL0     C17223   7.043  -0.286   2.740 -0.6342  0.3874 -0.1084
  869MOL0    Cl17224   7.116  -0.278   2.564 -0.0014 -0.0210 -0.1055
  869MOL0     C17225   6.086   0.102   2.451  0.6418  0.0821 -0.2414
  869MOL0     C17226   5.958   0.098   2.506 -0.2928 -0.3595  0.2920
  869MOL0     O17227   5.840  -0.175   2.735  0.2094 -0.7287 -0.1349
  869MOL0     C17228   5.559  -0.184   2.813 -0.3081 -0.3764  0.2685
  869MOL0     C17229   5.439  -0.178   2.880 -0.0600  0.8182  0.4941
  869MOL0     N17230   4.727  -0.088   2.789 -0.1036 -0.3927 -0.4297
  869MOL0     N17231   4.620  -0.141   2.749 -0.5426 -0.0157 -0.1185
  869MOL0     C17232   3.261   0.238   2.765 -0.4259 -0.3486 -0.5579
  869MOL0     C17233   3.146   0.263   2.839  0.0950  0.3841  0.1819
  869MOL0     C17234   2.888   0.379   3.209 -0.1067  0.6486 -0.1877
  869MOL0     C17235   2.798   0.267   3.193 -0.2526 -0.3112  0.2199
  869MOL0     C17236   2.696   0.241   3.283  0.2645  0.0904  0.4945
  869MOL0     C17237   2.672   0.321   3.398  0.5344 -0.0238  0.8916
  869MOL0     O17238   2.573   0.299   3.494 -0.2866 -0.2505  0.6769
  869MOL0     C17239   2.471   0.394   3.520  0.5786 -0.3670 -0.3718
  869MOL0     C17240   2.356   0.383   3.417 -1.1539 -0.1220  0.1921
  869MOL0     C17241   2.299   0.236   3.407  0.1184  0.2684  0.3361
  869MOL0     C17242   2.186   0.201   3.508 -0.0030 -0.4338  0.3457
  869MOL0     C17243   2.256   0.158   3.633  0.2377  0.0516  0.3306
  869MOL0     C17244   2.323   0.141   3.729 -0.8383 -0.6468 -0.0662
  869MOL0     C17245   2.748   0.434   3.408 -0.6636 -0.1385 -0.0338
  869MOL0     C17246   2.850   0.470   3.316  0.3898 -0.8697  0.5660
  869MOL0     C17247   2.927   0.587   3.345  0.1964 -0.4493 -0.3896
  869MOL0     H17248   3.249   0.228   3.146 -2.4174 -0.7864  0.0125
  869MOL0     H17249   3.452   0.148   3.029 -0.5346 -0.4978  1.7978
  869MOL0     H17250   3.667   0.250   2.875  1.9351 -0.5665  0.1103
  869MOL0     H17251   3.629   0.084   2.908 -2.2086 -0.4355 -0.2895
  869MOL0     H17252   3.693   0.179   2.623  4.2412 -0.0325  0.0752
  869MOL0     H17253   3.683   0.015   2.679 -1.5824  0.0902 -0.7948
  869MOL0     H17254   3.880   0.111   2.845 -3.1453 -0.5832  0.6523
  869MOL0     H17255   3.904   0.232   2.726  2.0793 -1.1957  1.3309
  869MOL0     H17256   3.936  -0.068   2.685 -2.5223 -0.0409 -1.8023
  869MOL0     H17257   3.914   0.049   2.550 -0.0308 -0.8889  0.5278
  869MOL0     H17258   4.143   0.025   2.565  1.9329 -2.0161  1.1518
  869MOL0     H17259   4.111   0.168   2.661 -1.3144  0.0769 -0.3814
  869MOL0     H17260   4.163   0.048   2.874 -0.1486  0.1532  0.1400
  869MOL0     H17261   4.126  -0.107   2.809 -3.0850  1.5265  1.2307
  869MOL0     H17262   4.366   0.075   2.788  2.2882 -0.6828 -1.4550
  869MOL0     H17263   4.347  -0.022   2.646  2.8169  0.1388  0.5391
  869MOL0     H17264   4.332  -0.136   2.913 -2.3820  3.2933 -1.4607
  869MOL0     H17265   4.357  -0.211   2.748  0.3122 -0.5093  0.0757
  869MOL0     H17266   4.514   0.031   3.008  1.9752  0.6440  1.0069
  869MOL0     H17267   4.785   0.116   3.051 -0.8022 -0.4014  1.3628
  869MOL0     H17268   4.795  -0.065   3.088  2.1510 -0.5795 -0.1859
  869MOL0     H17269   4.967  -0.108   2.932  1.0270  0.4952 -1.5183
  869MOL0     H17270   4.971   0.052   2.871  2.3063 -2.3850 -0.3215
  869MOL0     H17271   5.051  -0.043   3.143 -1.8330  0.9552  0.1918
  869MOL0     H17272   5.000   0.117   3.134  0.6516 -1.3626  1.2973
  869MOL0     H17273   5.253   0.098   3.113 -0.2314  1.0762  0.5660
  869MOL0     H17274   5.196   0.142   2.947 -1.0685 -0.0584  0.8930
  869MOL0     H17275   5.406   0.159   2.915 -0.1714 -0.5274  0.5805
  869MOL0     H17276   5.641   0.142   2.823  0.0949 -1.0483 -2.6734
  869MOL0     H17277   6.057  -0.007   2.812  1.0006  1.4254  0.2157
  869MOL0     H17278   6.265   0.002   2.716  0.6279  2.8406  1.0443
  869MOL0     H17279   6.510   0.054   2.445 -0.1190 -0.7806 -0.4486
  869MOL0     H17280   6.448   0.085   2.605  0.3058 -0.6856  0.5252
  869MOL0     H17281   6.394  -0.179   2.587  0.5767 -0.9905 -0.2121
  869MOL0     H17282   6.467  -0.166   2.425 -0.6913 -2.1239  0.3065
  869MOL0     H17283   6.621  -0.257   2.574 -0.9639  0.5241 -0.8577
  869MOL0     H17284   6.675  -0.100   2.518  0.4151 -0.2742  1.1764
  869MOL0     H17285   6.584  -0.227   2.781 -0.5258  0.7223  0.8134
  869MOL0     H17286   6.530  -0.064   2.756  1.7156  0.8480  1.0888
  869MOL0     H17287   6.728  -0.067   2.903 -2.7624  2.0992 -0.0342
  869MOL0     H17288   6.729   0.042   2.771 -2.5191  0.2280  0.0286
  869MOL0     H17289   6.859  -0.064   2.632 -0.4115  2.1203  0.4028
  869MOL0     H17290   6.953  -0.060   2.777  0.4403 -2.1855  1.0608
  869MOL0     H17291   6.858  -0.301   2.633 -0.9576  0.9611 -0.2489
  869MOL0     H17292   6.837  -0.313   2.807 -1.5364  0.1605 -0.3293
  869MOL0     H17293   7.084  -0.217   2.814 -0.1916 -1.0907  1.0861
  869MOL0     H17294   7.073  -0.386   2.773 -0.9293 -0.3463 -1.9642
  869MOL0     H17295   6.088   0.129   2.346  1.5357 -0.5115 -0.3901
  869MOL0     H17296   5.884   0.128   2.433  0.4167 -1.0859 -0.7690
  869MOL0     H17297   5.605  -0.273   2.769  1.5458  1.4520 -1.7358
  869MOL0     H17298   5.379  -0.268   2.888 -0.3426  0.8290 -1.0708
  869MOL0     H17299   3.265   0.234   2.657  0.3256 -1.1962 -0.5078
  869MOL0     H17300   3.053   0.286   2.789  0.0298 -1.0198 -0.3823
  869MOL0     H17301   2.811   0.199   3.109  2.6556 -2.0174  1.8724
  869MOL0     H17302   2.641   0.150   3.263  1.0557 -0.3067  0.0779
  869MOL0     H17303   2.517   0.493   3.526  0.3894 -0.3265  0.4896
  869MOL0     H17304   2.430   0.371   3.619 -0.5787  1.9712 -0.2525
  869MOL0     H17305   2.393   0.405   3.316  0.1343 -3.6608 -0.2531
  869MOL0     H17306   2.276   0.454   3.440 -1.9184 -0.2338 -1.8691
  869MOL0     H17307   2.385   0.169   3.403  1.2279  1.6871 -2.6777
  869MOL0     H17308   2.251   0.230   3.309  2.8190  2.1390 -1.2081
  869MOL0     H17309   2.121   0.289   3.520  2.4017  1.5068 -0.1820
  869MOL0     H17310   2.121   0.119   3.476 -2.3583  2.0146 -1.5847
  869MOL0     H17311   2.384   0.139   3.817 -0.2970  0.3420 -0.3991
  869MOL0     H17312   2.731   0.508   3.485  2.6635  0.5211  0.2354
  869MOL0     H17313   2.896   0.670   3.282 -1.0435 -0.9698 -0.5114
  869MOL0     H17314   2.912   0.624   3.447 -0.5478 -1.4840 -0.0950
  869MOL0     H17315   3.034   0.570   3.330  0.4753  2.0081 -1.6575
  870MOL0     O17316   9.060   0.853  10.444 -0.5895  0.7866 -0.4275
  870MOL0     C17317   8.967   0.864  10.519 -0.7800 -0.9951  0.4038
  870MOL0     O17318   8.975   0.918  10.644 -0.8074  0.1082 -0.1316
  870MOL0     C17319   9.102   0.919  10.701 -0.5420  0.8490 -0.6689
  870MOL0     C17320   9.147   0.826  10.795 -0.2809 -0.0624 -0.2497
  870MOL0     C17321   9.283   0.841  10.857 -0.1563 -0.0215 -0.0777
  870MOL0     C17322   9.364   0.950  10.817 -0.0858  0.6834  0.5224
  870MOL0     O17323   9.490   0.968  10.871 -0.4266 -0.3780  0.4852
  870MOL0     C17324   9.513   0.918  11.005  0.1036 -0.2208 -0.2707
  870MOL0     C17325   9.643   0.967  11.061  0.1983 -0.7224 -0.1625
  870MOL0     C17326   9.628   1.105  11.113 -0.2405  0.8222 -0.6625
  870MOL0     C17327   9.640   1.198  10.991 -0.1673  0.8315 -0.2511
  870MOL0     C17328   9.643   1.349  11.031  0.2040 -0.5024  0.8664
  870MOL0     C17329   9.781   1.374  11.092 -0.3593  0.5705 -0.3094
  870MOL0     C17330   9.811   1.524  11.094 -0.0492 -0.2446 -0.7140
  870MOL0     C17331   9.951   1.546  11.161  0.5173  0.4841 -0.4102
  870MOL0     N17332  10.004   1.677  11.156  0.2369 -0.5794  0.2456
  870MOL0     C17333  10.041   1.733  11.033 -0.0361  0.3529 -0.6197
  870MOL0     C17334  10.063   1.864  11.070 -0.0097 -0.6394 -0.4896
  870MOL0     C17335  10.118   1.976  10.983 -0.0260  0.6000 -1.4876
  870MOL0     C17336  10.267   2.002  11.018  0.2642  0.6871 -0.3186
  870MOL0     C17337  10.368   1.898  10.977 -0.5883  0.0811  0.3637
  870MOL0     C17338  10.500   1.960  10.936  0.5450 -0.4602  0.2989
  870MOL0     O17339  10.568   1.882  10.836  0.6153 -0.0261  0.1291
  870MOL0     C17340  10.679   1.933  10.764 -0.6231  0.0437  0.1159
  870MOL0     C17341  10.703   1.892  10.636 -0.7419  0.1866  0.1766
  870MOL0     C17342  10.819   1.925  10.563 -0.2042 -1.1347  1.1924
  870MOL0     C17343  10.912   2.017  10.623  0.1267  0.6767 -0.3604
  870MOL0     C17344  11.026   2.065  10.543  0.1407  0.7146  0.0968
  870MOL0     O17345  11.018   2.069  10.411  0.1848  0.1432  0.1739
  870MOL0     C17346  11.132   2.108  10.341  0.3432 -0.5757  0.1416
  870MOL0     C17347  11.260   2.067  10.379 -0.1542  0.2821 -0.4581
  870MOL0     C17348  11.370   2.096  10.299  0.0196  0.2729 -0.6657
  870MOL0     C17349  11.363   2.182  10.190  0.1069 -0.4728 -0.6699
  870MOL0     O17350  11.479   2.241  10.131 -0.8395  0.2016 -0.7070
  870MOL0     C17351  11.482   2.253   9.985 -0.7269  1.0544  0.0358
  870MOL0     C17352  11.552   2.377   9.933 -0.3575  0.2124  0.7339
  870MOL0     C17353  11.668   2.439  10.025  0.7771 -0.0480  0.6133
  870MOL0     C17354  11.769   2.518   9.946  0.1941  0.3538 -0.0186
  870MOL0     C17355  11.887   2.554  10.043 -0.9702  0.4867  0.6529
  870MOL0     C17356  12.008   2.611   9.964  0.0629  0.1087 -0.4458
  870MOL0     C17357  12.133   2.628  10.045 -0.6294 -0.1469 -0.2943
  870MOL0     C17358  12.223   2.742   9.972 -0.6582  0.9543 -0.6081
  870MOL0    Cl17359  12.394   2.734  10.031 -0.2439  0.3971  0.3262
  870MOL0     C17360  11.233   2.221  10.151  0.6372  0.4911 -0.3923
  870MOL0     C17361  11.115   2.177  10.216  0.1407 -0.0094 -0.2909
  870MOL0     O17362  11.116   2.110  10.617  0.2053  0.3184  0.5891
  870MOL0     C17363  10.893   2.056  10.754 -0.0841 -0.2587 -0.1335
  870MOL0     C17364  10.781   2.006  10.829  0.6886  0.4295  0.0048
  870MOL0     N17365  10.046   1.881  11.207 -0.3785  0.4543 -0.0463
  870MOL0     N17366  10.020   1.770  11.258 -0.4276 -0.1282 -0.6428
  870MOL0     C17367   9.319   1.028  10.707  0.5992  0.3344  0.2161
  870MOL0     C17368   9.189   1.018  10.661  0.6651 -0.2208  0.1558
  870MOL0     C17369   8.833   0.823  10.474 -0.3175  0.6249  0.6851
  870MOL0     C17370   8.720   0.860  10.556  0.0290 -0.9536 -0.4266
  870MOL0     C17371   8.590   0.841  10.511  0.0289  0.9677 -0.1870
  870MOL0     C17372   8.567   0.783  10.384  0.0445  1.7300  0.0595
  870MOL0     O17373   8.445   0.768  10.322  0.1596 -0.3855  0.2759
  870MOL0     C17374   8.333   0.801  10.401  0.1080  0.0026  0.1237
  870MOL0     C17375   8.204   0.757  10.338  0.2597 -0.0544 -0.4223
  870MOL0     C17376   8.085   0.825  10.392 -0.3448  0.2680 -0.6403
  870MOL0     C17377   7.960   0.743  10.350  0.4018 -0.0371 -0.1752
  870MOL0     C17378   7.865   0.779  10.455  0.4802 -0.0151 -0.9241
  870MOL0     C17379   7.782   0.796  10.543  0.7029  0.0881  0.4848
  870MOL0     C17380   8.678   0.741  10.307 -0.2050  0.3553 -0.4627
  870MOL0     C17381   8.810   0.762  10.347  0.2914  0.4024  0.9047
  870MOL0     C17382   8.917   0.699  10.250  1.1360  0.6021 -0.3519
  870MOL0     H17383   9.080   0.750  10.835 -0.8090 -0.3732 -1.6786
  870MOL0     H17384   9.308   0.768  10.933 -0.0519  1.1662  1.0719
  870MOL0     H17385   9.432   0.953  11.068 -1.0200 -0.6632 -1.4319
  870MOL0     H17386   9.520   0.809  11.012 -3.8421 -0.7019 -1.7467
  870MOL0     H17387   9.731   0.955  10.998  1.2433  2.5890  0.4776
  870MOL0     H17388   9.661   0.908  11.152  2.1529 -0.9834 -0.6699
  870MOL0     H17389   9.714   1.136  11.174 -1.8800  2.3255  1.0341
  870MOL0     H17390   9.541   1.121  11.178 -0.8033 -2.3027 -0.5148
  870MOL0     H17391   9.716   1.166  10.919  1.3221  1.2291  1.0898
  870MOL0     H17392   9.547   1.191  10.933 -0.4734  2.2207  0.0350
  870MOL0     H17393   9.633   1.402  10.937  4.4815  0.3746  0.7129
  870MOL0     H17394   9.566   1.364  11.108  1.1269  1.8561  1.4132
  870MOL0     H17395   9.786   1.325  11.190  3.2575 -2.7252 -1.8855
  870MOL0     H17396   9.854   1.320  11.031  0.8088  1.0983  0.6019
  870MOL0     H17397   9.730   1.571  11.150  0.1117  0.0450 -0.7262
  870MOL0     H17398   9.816   1.554  10.989  0.4529 -2.8716 -1.5182
  870MOL0     H17399   9.946   1.519  11.267  0.7524  0.1969 -0.4719
  870MOL0     H17400  10.015   1.471  11.114  0.1170  1.1947 -2.1803
  870MOL0     H17401  10.050   1.689  10.934  0.2137 -1.1150  0.0350
  870MOL0     H17402  10.106   1.954  10.876  3.1385  2.6635 -2.3728
  870MOL0     H17403  10.061   2.067  11.003 -2.3035 -1.3215  1.7247
  870MOL0     H17404  10.280   2.098  10.968 -0.7636  2.5688  2.7347
  870MOL0     H17405  10.289   2.017  11.124  0.1511 -2.5985  0.2794
  870MOL0     H17406  10.326   1.836  10.897 -3.1248  2.2594 -0.1410
  870MOL0     H17407  10.387   1.827  11.058 -0.0861 -0.9930 -0.6707
  870MOL0     H17408  10.556   1.976  11.028 -1.6859 -1.1122  1.8345
  870MOL0     H17409  10.492   2.062  10.896 -2.3812 -0.0978  1.5836
  870MOL0     H17410  10.629   1.833  10.582  1.1320 -0.9945 -1.2288
  870MOL0     H17411  10.837   1.884  10.464  1.1625 -0.4678  1.1317
  870MOL0     H17412  11.269   2.010  10.471  0.7807  2.5075  0.9298
  870MOL0     H17413  11.470   2.069  10.331  0.6170  4.0259  1.0425
  870MOL0     H17414  11.541   2.167   9.954 -0.6425  0.8490  0.7548
  870MOL0     H17415  11.381   2.251   9.944 -0.0855 -0.0642 -1.5866
  870MOL0     H17416  11.606   2.354   9.841 -2.2582 -3.8495  0.4296
  870MOL0     H17417  11.469   2.445   9.910  0.1963  0.5700 -0.2113
  870MOL0     H17418  11.620   2.509  10.095 -1.0642  0.5672 -1.1441
  870MOL0     H17419  11.719   2.364  10.084 -1.7612 -1.2168  1.4561
  870MOL0     H17420  11.727   2.605   9.896 -0.4484 -0.6501 -1.2878
  870MOL0     H17421  11.817   2.457   9.869  3.8288 -2.4855  3.9387
  870MOL0     H17422  11.916   2.466  10.101  1.6069  0.3239 -0.7341
  870MOL0     H17423  11.854   2.631  10.112  0.2364  1.1670  0.4962
  870MOL0     H17424  12.015   2.560   9.868 -3.6350  2.1725 -2.0337
  870MOL0     H17425  11.970   2.708   9.931  2.1154  0.2455 -2.6616
  870MOL0     H17426  12.180   2.529  10.043  0.4461  0.3193  0.6175
  870MOL0     H17427  12.104   2.653  10.147  1.0919 -1.7499  0.6588
  870MOL0     H17428  12.230   2.735   9.864  0.7646 -1.0649 -0.4529
  870MOL0     H17429  12.177   2.838   9.997  0.5697  1.3507  0.2469
  870MOL0     H17430  11.222   2.281  10.061 -0.2733 -0.8294 -1.2098
  870MOL0     H17431  11.012   2.197  10.189 -1.5447 -3.7533  2.6083
  870MOL0     H17432  10.955   2.120  10.816  0.4638  0.9039 -1.8025
  870MOL0     H17433  10.766   2.027  10.934  2.2130 -2.7579  0.9808
  870MOL0     H17434   9.399   1.094  10.677 -1.2134  1.0253 -3.5623
  870MOL0     H17435   9.157   1.091  10.587  3.9659  0.9019 -0.3650
  870MOL0     H17436   8.742   0.907  10.651  1.4670 -0.9566 -0.7334
  870MOL0     H17437   8.511   0.871  10.580  0.8767 -0.1708  1.3418
  870MOL0     H17438   8.333   0.909  10.421 -3.3256 -0.3139  3.0906
  870MOL0     H17439   8.334   0.755  10.501 -0.4855 -0.2469  0.0216
  870MOL0     H17440   8.204   0.648  10.351  4.4112 -0.2789 -1.0522
  870MOL0     H17441   8.195   0.764  10.229 -3.0188 -1.1933 -0.3314
  870MOL0     H17442   8.076   0.928  10.357  0.9561  0.6790  0.1562
  870MOL0     H17443   8.096   0.814  10.500 -0.1053  3.3743 -0.2642
  870MOL0     H17444   7.919   0.768  10.252  0.0032 -1.1335 -0.3047
  870MOL0     H17445   7.976   0.634  10.353 -0.4904 -0.1493  0.6824
  870MOL0     H17446   7.707   0.808  10.618  2.6828  0.4505  2.5308
  870MOL0     H17447   8.673   0.710  10.203  1.5164 -1.1817 -0.1471
  870MOL0     H17448   8.947   0.773  10.174 -1.1327  0.4878 -1.4436
  870MOL0     H17449   8.994   0.654  10.314 -0.1669 -1.1929  0.0319
  870MOL0     H17450   8.876   0.614  10.194  1.0197  1.5124 -1.7017
  871MOL0     O17451   0.499   1.155   3.710 -0.3993 -0.0662  0.2530
  871MOL0     C17452   0.448   1.175   3.598  1.3628  0.6652  0.7524
  871MOL0     O17453   0.481   1.110   3.479  0.2929 -0.4119 -0.8207
  871MOL0     C17454   0.611   1.061   3.470  0.1738 -0.2404  0.4111
  871MOL0     C17455   0.632   0.929   3.488  0.1541  0.6996  0.2636
  871MOL0     C17456   0.759   0.873   3.478 -0.6013 -0.1968 -0.4806
  871MOL0     C17457   0.878   0.956   3.464  0.3669 -0.3712 -0.2750
  871MOL0     O17458   1.003   0.888   3.470 -0.0370  0.1344  1.2010
  871MOL0     C17459   1.126   0.962   3.463 -0.4119  0.0734  0.4835
  871MOL0     C17460   1.241   0.864   3.455  1.0424  0.4186  0.9127
  871MOL0     C17461   1.365   0.930   3.519 -0.6582  0.0845  0.6096
  871MOL0     C17462   1.481   0.831   3.498 -0.3483 -0.0071 -0.0165
  871MOL0     C17463   1.617   0.907   3.528  0.0873  0.0863  1.0949
  871MOL0     C17464   1.739   0.823   3.491  0.1785 -0.0484 -0.4506
  871MOL0     C17465   1.859   0.877   3.558  0.3745  0.0641  0.0468
  871MOL0     C17466   1.879   0.822   3.704 -0.1023  0.4940  0.2650
  871MOL0     N17467   2.013   0.837   3.749 -0.1404 -0.8575 -0.4982
  871MOL0     C17468   2.055   0.952   3.821  0.1029 -0.3220  0.0417
  871MOL0     C17469   2.177   0.921   3.865 -0.1286  0.4695 -0.3169
  871MOL0     C17470   2.261   1.012   3.953 -0.0378 -0.2508  0.6412
  871MOL0     C17471   2.388   1.062   3.868  0.5414  0.8686 -1.2806
  871MOL0     C17472   2.355   1.189   3.781  0.1313 -0.5515  0.0506
  871MOL0     C17473   2.483   1.221   3.701 -0.1518 -0.0602  1.0791
  871MOL0     O17474   2.604   1.243   3.773  0.2927  0.2422  0.3217
  871MOL0     C17475   2.719   1.278   3.704  0.3349  0.0782 -1.4321
  871MOL0     C17476   2.751   1.252   3.567  0.1328  0.5214 -1.0785
  871MOL0     C17477   2.873   1.298   3.516 -0.4769  0.5376 -1.0057
  871MOL0     C17478   2.972   1.367   3.594 -0.6489  0.5159 -0.1552
  871MOL0     C17479   3.100   1.421   3.540  0.1585  0.6777  1.0110
  871MOL0     O17480   3.136   1.374   3.417 -0.0657  0.1885 -0.8723
  871MOL0     C17481   3.252   1.438   3.355  0.6961  0.0501 -0.7503
  871MOL0     C17482   3.249   1.485   3.223  0.5947  0.0699 -1.0841
  871MOL0     C17483   3.356   1.520   3.152  0.0351 -0.5392 -0.4745
  871MOL0     C17484   3.481   1.525   3.223 -0.4768  0.2503 -0.4835
  871MOL0     O17485   3.592   1.567   3.156  0.4862 -0.4293 -0.0595
  871MOL0     C17486   3.721   1.512   3.170  0.1042  0.8734 -0.2791
  871MOL0     C17487   3.813   1.584   3.074 -0.0846 -0.6201 -0.6207
  871MOL0     C17488   3.952   1.523   3.086 -0.2747  0.5873 -0.3607
  871MOL0     C17489   4.039   1.574   2.972  0.2076  0.0389 -0.1059
  871MOL0     C17490   4.191   1.535   2.985  0.3257 -0.1322 -0.6162
  871MOL0     C17491   4.265   1.620   2.886 -0.0629  0.1479 -0.0183
  871MOL0     C17492   4.400   1.563   2.852  0.3239 -1.0794  0.6685
  871MOL0     C17493   4.441   1.622   2.709 -0.4384 -0.2773  0.2421
  871MOL0    Cl17494   4.330   1.563   2.579 -0.2698 -0.5664  0.4164
  871MOL0     C17495   3.492   1.494   3.356  0.1487  0.8651  0.3122
  871MOL0     C17496   3.377   1.446   3.425 -0.0096  0.2760  0.0005
  871MOL0     O17497   3.168   1.500   3.610  0.2192  0.6653 -0.8964
  871MOL0     C17498   2.933   1.385   3.728  0.1414  0.1314 -0.0241
  871MOL0     C17499   2.811   1.346   3.780 -0.3319 -1.1980  0.0805
  871MOL0     N17500   2.208   0.790   3.823 -0.5384  0.6424 -0.9296
  871MOL0     N17501   2.107   0.736   3.758 -0.9707 -0.4493  0.5648
  871MOL0     C17502   0.856   1.092   3.445  0.3766 -0.0969  1.6105
  871MOL0     C17503   0.725   1.146   3.448 -0.4678 -0.8851 -0.3523
  871MOL0     C17504   0.325   1.260   3.587  0.8041 -0.8937 -0.0225
  871MOL0     C17505   0.264   1.297   3.712  0.6456  0.4202  0.7897
  871MOL0     C17506   0.153   1.377   3.715 -0.5116 -0.3294  0.2824
  871MOL0     C17507   0.090   1.415   3.597 -0.4436 -0.2671  0.4969
  871MOL0     O17508  -0.024   1.493   3.590 -0.2780 -0.0976 -0.0407
  871MOL0     C17509  -0.143   1.439   3.641  0.1631  0.3852  0.2210
  871MOL0     C17510  -0.215   1.342   3.543  0.4100  0.7090  0.8836
  871MOL0     C17511  -0.266   1.408   3.419  0.8090 -0.6802  0.6780
  871MOL0     C17512  -0.409   1.467   3.439  0.4278 -0.0029 -0.3408
  871MOL0     C17513  -0.447   1.564   3.342 -0.7172  0.2983  0.0078
  871MOL0     C17514  -0.471   1.650   3.260  0.6042 -0.4776 -0.4292
  871MOL0     C17515   0.157   1.382   3.482  0.6813  1.0674  0.4237
  871MOL0     C17516   0.272   1.301   3.464  0.4963  0.2024 -0.5020
  871MOL0     C17517   0.325   1.291   3.323  0.2703 -0.7450  0.6611
  871MOL0     H17518   0.549   0.858   3.498  0.1873  0.6981  0.5476
  871MOL0     H17519   0.775   0.766   3.485  1.9797  0.0564 -1.2431
  871MOL0     H17520   1.123   1.022   3.371 -0.6880 -0.3757  0.1933
  871MOL0     H17521   1.145   1.029   3.548 -0.9772 -0.3279  0.9304
  871MOL0     H17522   1.254   0.848   3.347 -1.7317  0.1706  0.5320
  871MOL0     H17523   1.218   0.767   3.499 -0.5558 -0.0028 -0.7343
  871MOL0     H17524   1.344   0.951   3.624 -0.3966  1.4776  0.4049
  871MOL0     H17525   1.381   1.032   3.482  0.9638  0.4149  2.0641
  871MOL0     H17526   1.477   0.748   3.569  0.8175 -1.9740 -2.1133
  871MOL0     H17527   1.490   0.791   3.397 -0.8667  2.7382 -1.2578
  871MOL0     H17528   1.616   0.994   3.462  1.4015 -1.5310 -1.2118
  871MOL0     H17529   1.625   0.933   3.634  1.8577 -0.5550  1.1423
  871MOL0     H17530   1.730   0.718   3.523  0.0131  0.4141  1.1272
  871MOL0     H17531   1.748   0.817   3.382  0.8476  0.9521 -0.4592
  871MOL0     H17532   1.869   0.985   3.570 -1.7519  0.7334 -3.0869
  871MOL0     H17533   1.942   0.830   3.505 -0.8884 -2.1708 -0.1150
  871MOL0     H17534   1.818   0.890   3.765  3.3616  1.1195  3.4244
  871MOL0     H17535   1.850   0.717   3.699 -1.2128  0.7663  0.6640
  871MOL0     H17536   2.010   1.051   3.822 -1.2503 -0.8005 -3.1547
  871MOL0     H17537   2.187   1.088   3.978 -0.2258 -0.2954  0.2316
  871MOL0     H17538   2.291   0.966   4.047 -1.0633 -0.3489  0.9340
  871MOL0     H17539   2.473   1.084   3.933  0.8248 -0.0009 -1.3423
  871MOL0     H17540   2.423   0.980   3.804 -1.5321  2.1019 -4.2047
  871MOL0     H17541   2.324   1.272   3.846  1.1044  1.1015 -1.5017
  871MOL0     H17542   2.269   1.169   3.716 -1.5775 -0.9248  2.2890
  871MOL0     H17543   2.467   1.308   3.638  1.3734 -1.6356 -1.6858
  871MOL0     H17544   2.507   1.146   3.625  1.2294  2.1623 -0.8128
  871MOL0     H17545   2.688   1.189   3.504  0.9402  1.9093 -3.4166
  871MOL0     H17546   2.889   1.296   3.409 -4.4423  0.9640 -1.7294
  871MOL0     H17547   3.149   1.495   3.182 -0.6445 -3.3033  0.7285
  871MOL0     H17548   3.366   1.544   3.047  0.7775 -1.1330 -0.5532
  871MOL0     H17549   3.758   1.524   3.272  0.3762 -1.0566 -0.1086
  871MOL0     H17550   3.728   1.404   3.153  0.0286  0.2306  3.0119
  871MOL0     H17551   3.764   1.585   2.977 -0.2281 -2.5504 -0.5984
  871MOL0     H17552   3.821   1.689   3.105  0.1269 -0.5422 -0.9359
  871MOL0     H17553   3.986   1.553   3.185 -1.6727 -0.4559  0.4516
  871MOL0     H17554   3.952   1.414   3.080  3.4543  0.4375 -0.1284
  871MOL0     H17555   4.025   1.682   2.971 -0.7215 -0.0348  1.4330
  871MOL0     H17556   3.991   1.527   2.886 -2.2697 -3.6710  2.9576
  871MOL0     H17557   4.195   1.426   2.976  0.3532 -0.1936  0.0942
  871MOL0     H17558   4.237   1.547   3.083 -0.9412 -0.9341  0.1128
  871MOL0     H17559   4.203   1.639   2.798 -2.2462 -0.6882  1.2628
  871MOL0     H17560   4.276   1.723   2.922 -0.8301  0.2354 -0.0160
  871MOL0     H17561   4.400   1.454   2.839  0.3293 -1.0821  0.6911
  871MOL0     H17562   4.474   1.597   2.924  1.2873  3.5220 -2.1114
  871MOL0     H17563   4.445   1.731   2.716  2.7227 -0.2303 -1.0335
  871MOL0     H17564   4.540   1.589   2.679  0.1710  1.3695  0.3414
  871MOL0     H17565   3.588   1.499   3.406  0.5900  2.1622 -0.6047
  871MOL0     H17566   3.383   1.431   3.532 -1.8288 -0.5549  0.0349
  871MOL0     H17567   3.008   1.442   3.782  1.4761 -0.8557 -0.7874
  871MOL0     H17568   2.801   1.375   3.884  0.9626  0.7274 -0.2814
  871MOL0     H17569   0.935   1.161   3.416  1.1708 -1.9602 -1.0545
  871MOL0     H17570   0.712   1.249   3.417  0.3484 -0.1666  1.5576
  871MOL0     H17571   0.299   1.255   3.806  0.8015  0.3179  0.6854
  871MOL0     H17572   0.115   1.411   3.810  0.5207  3.1676 -0.4227
  871MOL0     H17573  -0.211   1.521   3.669  3.2347  2.3763  2.5538
  871MOL0     H17574  -0.137   1.372   3.727 -1.6585 -1.3186 -0.8876
  871MOL0     H17575  -0.304   1.308   3.596 -0.4183 -0.8612 -1.3681
  871MOL0     H17576  -0.148   1.259   3.519 -2.8017 -2.7905  3.0208
  871MOL0     H17577  -0.274   1.335   3.338 -1.8148 -0.7994  0.9525
  871MOL0     H17578  -0.190   1.484   3.396 -1.4123  2.4178  2.7097
  871MOL0     H17579  -0.487   1.390   3.432 -0.6864  1.1588 -1.2252
  871MOL0     H17580  -0.408   1.523   3.533  1.4134  1.5307 -1.2228
  871MOL0     H17581  -0.488   1.710   3.173  0.4084  0.1279  0.0236
  871MOL0     H17582   0.109   1.413   3.390 -2.5856 -1.8880  0.9530
  871MOL0     H17583   0.264   1.353   3.258  0.4956 -1.5486 -0.3540
  871MOL0     H17584   0.428   1.327   3.313 -0.0970  1.0904  2.7288
  871MOL0     H17585   0.310   1.193   3.275 -1.1666 -0.4002  0.3853
  872MOL0     O17586   7.980   1.952   8.182 -0.5755 -0.2795  0.1632
  872MOL0     C17587   7.941   1.978   8.069  0.0013 -0.1449 -0.1007
  872MOL0     O17588   8.021   2.026   7.968 -0.8682  0.0438 -0.8206
  872MOL0     C17589   8.152   2.042   7.984  0.5589  0.5550 -0.1005
  872MOL0     C17590   8.208   2.174   7.972  0.8685 -0.5689 -0.6348
  872MOL0     C17591   8.343   2.198   7.987 -0.4151  0.1146  1.0801
  872MOL0     C17592   8.429   2.083   7.999  0.6853 -0.6284  0.6819
  872MOL0     O17593   8.565   2.096   7.984 -0.1288  0.4901 -0.5715
  872MOL0     C17594   8.613   2.207   7.903  0.9032 -0.4497 -0.4742
  872MOL0     C17595   8.760   2.192   7.857 -0.3870  0.7240  0.1819
  872MOL0     C17596   8.847   2.156   7.982  0.1746  0.1884 -0.0550
  872MOL0     C17597   8.993   2.160   7.942 -0.3288 -1.4434 -0.1700
  872MOL0     C17598   9.051   2.286   7.888  0.1191  0.7273  0.1953
  872MOL0     C17599   9.206   2.300   7.891  0.1458  0.0082 -0.1918
  872MOL0     C17600   9.236   2.441   7.824  1.2160  0.4094 -0.7686
  872MOL0     C17601   9.378   2.456   7.805  0.0567 -0.2939  0.0589
  872MOL0     N17602   9.413   2.593   7.771  0.4127 -0.6295 -0.4278
  872MOL0     C17603   9.404   2.636   7.642 -0.2426  0.7015  1.1616
  872MOL0     C17604   9.430   2.767   7.660  0.2603  0.1502  0.7803
  872MOL0     C17605   9.426   2.867   7.547 -0.5998  0.2326 -0.2596
  872MOL0     C17606   9.550   2.870   7.455 -0.1123 -0.3551  0.4338
  872MOL0     C17607   9.680   2.912   7.531  1.2237  0.4435 -0.2227
  872MOL0     C17608   9.808   2.909   7.446  0.3484 -0.0516  0.1681
  872MOL0     O17609   9.910   2.904   7.554 -0.5208  0.5597  0.7142
  872MOL0     C17610  10.041   2.898   7.533 -0.0849  0.0508  0.3485
  872MOL0     C17611  10.097   2.870   7.407  0.5886 -1.3428 -0.1334
  872MOL0     C17612  10.232   2.873   7.388  0.1146  0.2292 -0.1572
  872MOL0     C17613  10.318   2.894   7.495  0.4491 -0.5727  0.1754
  872MOL0     C17614  10.461   2.882   7.458 -0.1058 -0.1334 -1.1209
  872MOL0     O17615  10.504   2.881   7.323 -0.1826  0.2133  0.3026
  872MOL0     C17616  10.637   2.858   7.300  0.1419  0.5623  0.7195
  872MOL0     C17617  10.690   2.736   7.322 -0.4655  0.0805  0.6176
  872MOL0     C17618  10.821   2.695   7.294 -0.2658  0.7443  0.4990
  872MOL0     C17619  10.914   2.789   7.246 -0.0700 -0.1187  0.4013
  872MOL0     O17620  11.046   2.754   7.222  0.0823 -0.2504  0.3105
  872MOL0     C17621  11.113   2.677   7.321  0.0509 -0.1779  0.3565
  872MOL0     C17622  11.263   2.682   7.301  0.0230 -0.3656  0.4016
  872MOL0     C17623  11.321   2.824   7.300 -1.3125 -0.1135 -0.1220
  872MOL0     C17624  11.474   2.829   7.289  0.0963 -0.2089  0.1637
  872MOL0     C17625  11.517   2.970   7.338 -0.4092 -0.0703  0.0360
  872MOL0     C17626  11.672   2.982   7.322 -0.6420 -0.1303  0.0287
  872MOL0     C17627  11.724   2.997   7.178 -0.4969  0.0199 -0.1997
  872MOL0     C17628  11.652   3.101   7.099  0.4337 -0.1054  0.4118
  872MOL0    Cl17629  11.691   3.265   7.152 -0.1561 -0.2658  0.0830
  872MOL0     C17630  10.860   2.914   7.208  0.5135  1.0692 -0.2041
  872MOL0     C17631  10.728   2.952   7.239 -0.3686  0.1588 -0.1307
  872MOL0     O17632  10.542   2.886   7.548 -0.0106  0.5146  1.0809
  872MOL0     C17633  10.268   2.916   7.625  0.6431  0.3816 -0.2001
  872MOL0     C17634  10.134   2.919   7.637 -0.2922 -0.0456 -0.3799
  872MOL0     N17635   9.448   2.797   7.793 -0.0804  0.7257 -0.2091
  872MOL0     N17636   9.433   2.689   7.860 -0.4972 -0.1467 -0.0165
  872MOL0     C17637   8.374   1.958   8.018  0.7809  0.1094  0.3689
  872MOL0     C17638   8.236   1.935   8.007 -0.4959  0.0572 -0.2060
  872MOL0     C17639   7.796   1.958   8.056  0.5261 -0.7144  0.6928
  872MOL0     C17640   7.724   1.929   8.173 -0.2874 -0.6219 -0.1475
  872MOL0     C17641   7.588   1.892   8.161 -0.8698  0.0610 -0.4614
  872MOL0     C17642   7.512   1.897   8.047 -0.2337 -0.4421  0.6263
  872MOL0     O17643   7.378   1.873   8.034  0.0363  0.2925 -0.1926
  872MOL0     C17644   7.311   1.837   8.158 -0.3840 -0.3190  0.0579
  872MOL0     C17645   7.166   1.846   8.110  0.4666 -0.3334  0.6833
  872MOL0     C17646   7.072   1.844   8.229  1.2539 -0.2750  0.5739
  872MOL0     C17647   6.931   1.825   8.170  0.1240  0.2955 -0.4526
  872MOL0     C17648   6.837   1.806   8.277  0.4006 -0.5105 -0.7256
  872MOL0     C17649   6.756   1.799   8.369 -0.2886 -0.9827 -0.4269
  872MOL0     C17650   7.588   1.935   7.932  1.0043 -0.1700 -0.4410
  872MOL0     C17651   7.725   1.964   7.934  0.3443 -0.5376  0.0022
  872MOL0     C17652   7.788   2.007   7.804  0.1154 -0.6772  0.2542
  872MOL0     H17653   8.134   2.251   7.950 -0.7108 -1.0266  2.3875
  872MOL0     H17654   8.378   2.301   7.982  2.2345 -0.7216  1.1367
  872MOL0     H17655   8.553   2.229   7.815  1.9527  2.0179 -0.6430
  872MOL0     H17656   8.602   2.300   7.959 -1.4277  0.2452 -1.9663
  872MOL0     H17657   8.786   2.292   7.821 -3.8968  1.8658  0.4567
  872MOL0     H17658   8.764   2.110   7.785 -0.8685 -0.8565  1.8729
  872MOL0     H17659   8.817   2.058   8.020 -3.8336  1.1865 -0.2118
  872MOL0     H17660   8.825   2.220   8.068  0.7459  0.7574 -0.3231
  872MOL0     H17661   9.055   2.136   8.029 -0.4155 -1.0650  0.0021
  872MOL0     H17662   9.009   2.089   7.861 -1.0813 -0.5223 -1.1623
  872MOL0     H17663   9.034   2.293   7.780 -2.0383 -1.5239  0.3098
  872MOL0     H17664   9.004   2.373   7.935  1.4528  1.0095  1.0871
  872MOL0     H17665   9.246   2.307   7.993  2.5551  1.0336 -1.1190
  872MOL0     H17666   9.262   2.224   7.835  2.8178  1.1447  0.7554
  872MOL0     H17667   9.209   2.521   7.894  3.6287  0.6717 -0.0443
  872MOL0     H17668   9.182   2.454   7.730 -1.3242  0.8514  0.6583
  872MOL0     H17669   9.429   2.419   7.894  1.2806 -1.5082 -1.1068
  872MOL0     H17670   9.412   2.388   7.727 -0.1257  1.0608 -1.2435
  872MOL0     H17671   9.370   2.582   7.555  0.2663  1.4357  0.4975
  872MOL0     H17672   9.333   2.851   7.493 -2.3625 -0.1052  2.6516
  872MOL0     H17673   9.423   2.967   7.593  1.6665 -0.3229  1.2794
  872MOL0     H17674   9.548   2.765   7.422 -2.0774 -0.9659  2.2294
  872MOL0     H17675   9.523   2.934   7.371  1.9174 -1.1190 -0.8772
  872MOL0     H17676   9.677   2.844   7.617  0.2051 -0.8101 -1.1957
  872MOL0     H17677   9.679   3.017   7.560  0.9630  0.0951  1.1060
  872MOL0     H17678   9.813   3.004   7.392  1.8439 -0.3650 -0.2643
  872MOL0     H17679   9.821   2.826   7.377  0.5801 -0.1060  0.2766
  872MOL0     H17680  10.023   2.850   7.331 -0.2948  0.4082  0.2090
  872MOL0     H17681  10.275   2.845   7.293  4.5902  1.2260  1.3100
  872MOL0     H17682  10.624   2.660   7.362 -0.8755  0.5334  0.8041
  872MOL0     H17683  10.855   2.593   7.304  2.2250  1.3405 -1.0115
  872MOL0     H17684  11.089   2.720   7.419  2.6226  2.5406 -0.0912
  872MOL0     H17685  11.090   2.570   7.317  4.6094 -1.3599 -0.6360
  872MOL0     H17686  11.301   2.626   7.388 -1.0619  2.0688  2.5810
  872MOL0     H17687  11.280   2.637   7.203 -1.1178 -0.9770  0.4696
  872MOL0     H17688  11.273   2.866   7.211 -2.7559  1.0418  1.1464
  872MOL0     H17689  11.296   2.876   7.393  1.4312  1.3607 -0.1260
  872MOL0     H17690  11.503   2.812   7.184  2.7938  3.8627  0.0594
  872MOL0     H17691  11.519   2.751   7.351 -2.8372 -1.3632  0.9845
  872MOL0     H17692  11.510   2.977   7.447  0.0622 -0.6539  0.1124
  872MOL0     H17693  11.472   3.056   7.288  2.4386  0.8273 -1.1863
  872MOL0     H17694  11.698   3.070   7.381 -0.4972  0.9851 -1.6473
  872MOL0     H17695  11.713   2.895   7.375  0.6908  1.8422  2.4448
  872MOL0     H17696  11.710   2.901   7.126  0.4776 -0.1280 -0.2159
  872MOL0     H17697  11.831   3.018   7.189  0.1398 -2.9349  0.0638
  872MOL0     H17698  11.680   3.089   6.994 -0.0504 -0.8103  0.3612
  872MOL0     H17699  11.543   3.090   7.099  0.4199 -0.0496 -0.5240
  872MOL0     H17700  10.921   2.990   7.161  1.4286 -0.4721 -1.6281
  872MOL0     H17701  10.690   3.051   7.218  1.7881  1.0188 -0.1358
  872MOL0     H17702  10.338   2.944   7.703 -0.3881  1.1666  0.4651
  872MOL0     H17703  10.087   2.945   7.731 -0.8817 -1.7090 -0.1830
  872MOL0     H17704   8.434   1.869   8.033 -1.5322 -1.8204 -1.2037
  872MOL0     H17705   8.194   1.836   7.997 -1.0608  0.1664  0.9123
  872MOL0     H17706   7.771   1.925   8.270  0.4110 -0.7223 -0.4820
  872MOL0     H17707   7.545   1.864   8.257 -0.3459  1.5409  0.2230
  872MOL0     H17708   7.326   1.907   8.240  1.1088  0.8867 -1.1675
  872MOL0     H17709   7.333   1.732   8.181 -1.6996 -0.8177 -0.8269
  872MOL0     H17710   7.145   1.773   8.031  1.3710  0.8883 -0.7304
  872MOL0     H17711   7.164   1.948   8.071  1.6631 -0.6745 -0.3288
  872MOL0     H17712   7.069   1.936   8.288 -2.3124 -0.8044  1.4644
  872MOL0     H17713   7.085   1.763   8.301  0.4304 -1.0817 -0.1592
  872MOL0     H17714   6.901   1.912   8.110 -1.2930  0.6699  0.7385
  872MOL0     H17715   6.941   1.730   8.115 -1.5667 -1.4958  2.0855
  872MOL0     H17716   6.673   1.797   8.437 -0.8324 -1.0982 -1.0825
  872MOL0     H17717   7.525   1.953   7.845  1.0539 -1.6770 -0.8147
  872MOL0     H17718   7.716   2.012   7.722  1.5810 -2.0511 -1.2067
  872MOL0     H17719   7.825   2.110   7.810 -1.6919 -0.0809  2.5988
  872MOL0     H17720   7.864   1.933   7.778 -1.6692 -1.9270 -1.7112
  873MOL0     O17721   5.156  10.067  10.958 -0.3366 -0.2318 -0.5712
  873MOL0     C17722   5.148  10.140  11.055 -0.0743  0.5325  0.0786
  873MOL0     O17723   5.248  10.232  11.106 -0.7068  0.8493 -0.6905
  873MOL0     C17724   5.370  10.205  11.050 -0.2637  1.2831  0.1429
  873MOL0     C17725   5.480  10.178  11.132  0.2565  0.1014  0.5526
  873MOL0     C17726   5.611  10.174  11.080 -0.9074  0.1268  1.3186
  873MOL0     C17727   5.630  10.190  10.938  0.0351 -0.6651  0.4672
  873MOL0     O17728   5.755  10.194  10.878 -0.3612 -0.2119 -0.1105
  873MOL0     C17729   5.860  10.139  10.957  0.5215 -0.3751  0.2307
  873MOL0     C17730   5.996  10.135  10.881  0.5759 -0.5751 -0.4992
  873MOL0     C17731   6.060  10.275  10.903  0.1100  0.0775  1.2709
  873MOL0     C17732   6.193  10.318  10.825  0.0358 -0.4021  0.2385
  873MOL0     C17733   6.307  10.235  10.860  0.4838 -0.6632 -0.7367
  873MOL0     C17734   6.421  10.271  10.765 -0.7950  0.6758  0.0371
  873MOL0     C17735   6.546  10.182  10.796  0.1742 -0.5299 -0.2172
  873MOL0     C17736   6.646  10.183  10.678  0.5024 -0.5022 -0.4112
  873MOL0     N17737   6.708  10.315  10.643  0.7990  0.1303  0.2527
  873MOL0     C17738   6.797  10.377  10.722 -0.2848 -1.1844  0.1061
  873MOL0     C17739   6.823  10.489  10.653 -0.2826 -1.0602 -0.0884
  873MOL0     C17740   6.924  10.572  10.713  0.3629 -0.7876 -0.1784
  873MOL0     C17741   7.070  10.537  10.671 -0.6728  0.5204  0.1129
  873MOL0     C17742   7.097  10.526  10.514 -0.3488  0.4277  0.2733
  873MOL0     C17743   7.240  10.489  10.473 -0.8312  0.2483 -0.1509
  873MOL0     O17744   7.234  10.468  10.333 -0.0765  0.1105  0.9178
  873MOL0     C17745   7.350  10.424  10.270  1.1708  0.5586 -0.1492
  873MOL0     C17746   7.382  10.290  10.249  0.1155 -0.0655  0.8082
  873MOL0     C17747   7.513  10.255  10.192  0.3037  0.7089 -0.3559
  873MOL0     C17748   7.607  10.353  10.157 -0.0228  0.4141 -0.7339
  873MOL0     C17749   7.744  10.311  10.104  0.0542  0.1251  0.6585
  873MOL0     O17750   7.816  10.416  10.059  0.7754 -0.0905  0.0696
  873MOL0     C17751   7.953  10.407  10.055  0.1248  0.4542  0.0265
  873MOL0     C17752   8.024  10.328   9.965 -0.4219  0.5145  1.0062
  873MOL0     C17753   8.165  10.343   9.954  0.5317  0.3287  0.0095
  873MOL0     C17754   8.236  10.409  10.050  0.1602  1.0254 -0.2365
  873MOL0     O17755   8.374  10.419  10.061  0.6656 -0.6329 -1.2647
  873MOL0     C17756   8.456  10.296  10.078  0.5180 -0.4198 -0.4986
  873MOL0     C17757   8.589  10.315  10.003  0.0688 -0.3371 -1.0856
  873MOL0     C17758   8.673  10.426  10.068 -0.2427  0.3065  0.0977
  873MOL0     C17759   8.813  10.438  10.015  0.2199  0.1871 -0.1957
  873MOL0     C17760   8.893  10.538  10.082  0.0909 -0.5342  0.2221
  873MOL0     C17761   9.038  10.537  10.032  0.1209  0.5276 -0.0110
  873MOL0     C17762   9.126  10.654  10.068  0.1173  0.4012  0.3618
  873MOL0     C17763   9.105  10.765   9.968  0.5777  1.0817 -0.3569
  873MOL0    Cl17764   9.163  10.916  10.050 -0.4878 -0.1517 -0.2044
  873MOL0     C17765   8.164  10.469  10.148 -0.1955 -0.3766  0.7322
  873MOL0     C17766   8.026  10.482  10.150  0.8162 -0.0985 -0.2311
  873MOL0     O17767   7.775  10.193  10.111 -0.8853  0.3054  0.1522
  873MOL0     C17768   7.567  10.489  10.169  0.1152  0.1605  0.1554
  873MOL0     C17769   7.441  10.520  10.226  0.0255  0.7498 -0.9504
  873MOL0     N17770   6.737  10.496  10.545  0.4553 -0.0161 -0.4313
  873MOL0     N17771   6.661  10.397  10.550  0.1819  0.7604  0.3452
  873MOL0     C17772   5.517  10.215  10.858 -0.7756 -0.1196  0.2156
  873MOL0     C17773   5.388  10.234  10.908 -0.4016 -0.0403  0.1978
  873MOL0     C17774   5.015  10.141  11.124  0.7381 -0.0040 -1.0400
  873MOL0     C17775   5.011  10.187  11.262  0.5518  0.9607  0.2947
  873MOL0     C17776   4.896  10.194  11.344 -0.7228 -0.4392 -0.6890
  873MOL0     C17777   4.771  10.171  11.283  0.6288 -0.7254 -0.3637
  873MOL0     O17778   4.648  10.190  11.339  0.9356 -0.7125 -0.9672
  873MOL0     C17779   4.630  10.244  11.480 -0.2183 -0.3771 -0.2903
  873MOL0     C17780   4.484  10.278  11.509  0.4365  0.5598  0.0785
  873MOL0     C17781   4.483  10.354  11.640  0.0126  0.3650 -0.0511
  873MOL0     C17782   4.349  10.421  11.657  0.0309  0.0760  0.3546
  873MOL0     C17783   4.244  10.329  11.680 -0.6847  0.0103 -0.8774
  873MOL0     C17784   4.158  10.237  11.687 -0.8170 -0.2481 -0.2492
  873MOL0     C17785   4.770  10.120  11.153 -0.4813 -0.1230 -0.1787
  873MOL0     C17786   4.889  10.103  11.068 -0.5552 -0.0608  0.4002
  873MOL0     C17787   4.879  10.056  10.930  0.1800  0.3186  1.0445
  873MOL0     H17788   5.478  10.172  11.240  3.4214 -1.3219  0.6566
  873MOL0     H17789   5.695  10.178  11.148  1.3189 -0.0305 -1.2630
  873MOL0     H17790   5.875  10.196  11.049 -3.5667 -0.5245  1.1761
  873MOL0     H17791   5.840  10.037  10.993  3.0810 -1.0097  0.0655
  873MOL0     H17792   5.967  10.126  10.776 -0.1681 -1.6195 -0.2226
  873MOL0     H17793   6.065  10.060  10.921  1.1807  1.1928  2.0125
  873MOL0     H17794   6.089  10.271  11.009  0.0310 -1.7045  1.2652
  873MOL0     H17795   5.987  10.351  10.876 -0.1175 -1.0039 -1.3840
  873MOL0     H17796   6.180  10.301  10.718  3.0693 -1.2483 -0.0971
  873MOL0     H17797   6.217  10.424  10.841 -1.7133  0.1323 -0.4950
  873MOL0     H17798   6.332  10.256  10.965 -3.3100  0.3680  0.1044
  873MOL0     H17799   6.285  10.130  10.841  3.9188 -1.0329 -3.8209
  873MOL0     H17800   6.386  10.259  10.662  0.2448 -1.3047 -0.1206
  873MOL0     H17801   6.445  10.377  10.778  0.0899  0.4100  0.6438
  873MOL0     H17802   6.492  10.089  10.817  0.5718 -0.2114  2.4964
  873MOL0     H17803   6.592  10.219  10.888  0.3901 -1.1425 -0.0786
  873MOL0     H17804   6.726  10.116  10.711 -1.4892 -1.8354  1.9726
  873MOL0     H17805   6.604  10.145  10.585  2.5231 -0.6398 -1.3270
  873MOL0     H17806   6.841  10.339  10.814  1.8337  0.4403 -0.1534
  873MOL0     H17807   6.905  10.676  10.683 -0.2235 -0.4945  1.1285
  873MOL0     H17808   6.917  10.566  10.822 -2.5120 -0.4841 -0.2758
  873MOL0     H17809   7.147  10.596  10.720  1.1169 -0.4437 -1.4265
  873MOL0     H17810   7.096  10.444  10.722  0.5312  1.0368  0.4515
  873MOL0     H17811   7.094  10.625  10.466  0.1369  0.0261 -0.6193
  873MOL0     H17812   7.029  10.451  10.472  2.0845 -2.1247  0.5863
  873MOL0     H17813   7.263  10.390  10.516 -1.8468  0.7306  1.6285
  873MOL0     H17814   7.314  10.562  10.507  0.4741  1.2640 -4.5063
  873MOL0     H17815   7.303  10.216  10.255 -0.1337 -0.5096 -3.9997
  873MOL0     H17816   7.536  10.149  10.187 -1.5785  0.2137  0.4742
  873MOL0     H17817   7.966  10.265   9.899 -0.8054  1.5834  0.3041
  873MOL0     H17818   8.211  10.278   9.880  0.5672  3.3623 -2.8561
  873MOL0     H17819   8.482  10.278  10.182 -1.6499 -2.0950 -0.1741
  873MOL0     H17820   8.407  10.203  10.047  0.5716 -0.9355  0.8983
  873MOL0     H17821   8.652  10.225  10.005 -0.7128 -0.9265 -2.1905
  873MOL0     H17822   8.584  10.343   9.897 -2.9040  0.1312 -0.8880
  873MOL0     H17823   8.628  10.525  10.059 -1.2617 -0.0942  0.6298
  873MOL0     H17824   8.688  10.406  10.175  1.3828  1.0835  0.0563
  873MOL0     H17825   8.798  10.463   9.910 -2.8062 -2.8733 -0.6539
  873MOL0     H17826   8.858  10.339  10.008 -0.6401 -0.4490  2.2401
  873MOL0     H17827   8.882  10.515  10.188  0.2195 -3.4320 -0.3113
  873MOL0     H17828   8.850  10.636  10.061 -2.5571 -2.3095 -4.1405
  873MOL0     H17829   9.084  10.445  10.071  2.7822  1.9544  0.4498
  873MOL0     H17830   9.042  10.536   9.922 -0.3122 -2.0352 -0.0769
  873MOL0     H17831   9.232  10.626  10.070  0.0163  0.0675  1.7704
  873MOL0     H17832   9.104  10.698  10.166  3.7960  0.0698  1.4870
  873MOL0     H17833   9.160  10.746   9.875  1.3257  0.3565  0.2257
  873MOL0     H17834   8.997  10.767   9.946  0.2418 -0.7245  0.9650
  873MOL0     H17835   8.223  10.514  10.227  0.4602  0.6536 -0.3128
  873MOL0     H17836   7.969  10.544  10.218  1.1779  1.2736 -1.1281
  873MOL0     H17837   7.624  10.570  10.126 -1.0061 -0.2771 -2.3166
  873MOL0     H17838   7.417  10.624  10.248  0.8507  0.3688  2.2326
  873MOL0     H17839   5.528  10.245  10.754  5.3475 -0.2152  0.4547
  873MOL0     H17840   5.303  10.258  10.845 -2.1243 -1.3122  1.9380
  873MOL0     H17841   5.105  10.219  11.307  1.1360  0.4351 -0.5276
  873MOL0     H17842   4.908  10.248  11.437 -0.3031  0.0265 -1.0017
  873MOL0     H17843   4.688  10.336  11.492 -3.3292  1.7142 -0.1710
  873MOL0     H17844   4.662  10.171  11.555  1.4650 -1.3703 -1.8968
  873MOL0     H17845   4.414  10.193  11.515 -3.5934  3.5865  0.2605
  873MOL0     H17846   4.435  10.327  11.424  0.1297  0.0902 -0.0237
  873MOL0     H17847   4.555  10.437  11.648 -2.3798  2.5125  0.8227
  873MOL0     H17848   4.505  10.287  11.723  1.0593  1.9091  0.9823
  873MOL0     H17849   4.353  10.491  11.740 -0.1747 -0.6010  0.9443
  873MOL0     H17850   4.330  10.479  11.566  4.9670  0.8859 -0.4028
  873MOL0     H17851   4.093  10.153  11.696 -1.8057  0.1144 -2.9424
  873MOL0     H17852   4.669  10.096  11.119 -0.8991 -0.2386  1.0957
  873MOL0     H17853   4.953   9.977  10.915  0.4089  0.8948 -1.3333
  873MOL0     H17854   4.775  10.031  10.910 -0.2400  1.6256  1.4831
  873MOL0     H17855   4.900  10.138  10.860 -1.3743 -0.4634 -0.4338
  874MOL0     O17856   7.081   9.160   6.174  0.3268 -0.3843 -0.1511
  874MOL0     C17857   7.071   9.146   6.048  0.0742  0.2449  0.6209
  874MOL0     O17858   7.138   9.044   5.977 -0.7199 -0.0270 -0.0042
  874MOL0     C17859   7.253   8.992   6.041  0.4793 -0.1405 -0.1353
  874MOL0     C17860   7.243   8.904   6.156  0.6543 -0.6362  0.2298
  874MOL0     C17861   7.366   8.873   6.217  1.4825 -0.0060  0.0364
  874MOL0     C17862   7.492   8.897   6.157  0.4097  0.8480  0.9977
  874MOL0     O17863   7.596   8.831   6.216  0.3262  0.2929 -0.4857
  874MOL0     C17864   7.723   8.814   6.143 -0.3043  0.0066 -1.2466
  874MOL0     C17865   7.792   8.697   6.206  0.0555  0.1432 -0.4867
  874MOL0     C17866   7.937   8.689   6.162 -0.4589 -0.7339  0.1271
  874MOL0     C17867   8.004   8.596   6.253  0.6951 -0.6048 -0.6148
  874MOL0     C17868   8.146   8.575   6.210  0.9795 -0.5844 -0.0481
  874MOL0     C17869   8.246   8.700   6.228  0.4405  0.6204  0.2151
  874MOL0     C17870   8.395   8.661   6.212  0.5113  0.0700  0.6011
  874MOL0     C17871   8.465   8.778   6.155 -0.1735 -0.2194  0.0236
  874MOL0     N17872   8.608   8.752   6.175 -0.5911  0.4199 -0.6615
  874MOL0     C17873   8.703   8.848   6.193 -0.4917 -0.0665  0.0851
  874MOL0     C17874   8.817   8.779   6.183  0.5559 -0.3408  0.1207
  874MOL0     C17875   8.949   8.847   6.185  0.5963 -0.4252 -0.4720
  874MOL0     C17876   9.063   8.743   6.189 -0.1366  0.2926  0.1073
  874MOL0     C17877   9.075   8.686   6.331 -0.0941 -0.2589 -0.0864
  874MOL0     C17878   9.211   8.640   6.362 -0.3329  0.6231  0.4621
  874MOL0     O17879   9.224   8.510   6.309 -0.7632  0.3730 -0.2444
  874MOL0     C17880   9.358   8.472   6.293 -0.3089 -0.0645  0.0552
  874MOL0     C17881   9.464   8.526   6.378  0.6673  0.0376  0.1514
  874MOL0     C17882   9.591   8.476   6.379  0.6413  0.3690  0.4292
  874MOL0     C17883   9.629   8.373   6.297 -0.2506  0.6907  0.2358
  874MOL0     C17884   9.773   8.327   6.306 -0.6842  0.2712  0.1355
  874MOL0     O17885   9.859   8.397   6.385 -0.1117 -0.3861  0.8000
  874MOL0     C17886   9.995   8.380   6.387  0.1920 -0.2615  0.0714
  874MOL0     C17887  10.074   8.438   6.483  0.7329 -0.3859  0.3106
  874MOL0     C17888  10.209   8.422   6.476 -0.2877  0.1747 -0.5920
  874MOL0     C17889  10.280   8.355   6.379 -0.3462 -0.2562 -0.4256
  874MOL0     O17890  10.419   8.358   6.386  0.1166 -0.2334  0.1292
  874MOL0     C17891  10.474   8.260   6.299 -0.2384 -0.1390  0.3192
  874MOL0     C17892  10.609   8.209   6.360  0.0759 -0.2110  0.3172
  874MOL0     C17893  10.705   8.316   6.412 -0.8168  1.3371  0.3700
  874MOL0     C17894  10.844   8.264   6.439  0.1233  0.3703  0.0041
  874MOL0     C17895  10.935   8.353   6.520 -0.9443 -0.5867  1.1182
  874MOL0     C17896  10.962   8.496   6.440  0.0107  0.3660  0.7895
  874MOL0     C17897  11.070   8.574   6.508 -0.0667 -0.2571 -0.2685
  874MOL0     C17898  11.107   8.702   6.434 -0.5250  0.0386 -0.8477
  874MOL0    Cl17899  11.262   8.771   6.499 -0.0145 -0.3661 -0.1279
  874MOL0     C17900  10.203   8.309   6.270  0.1484 -0.6731 -0.1965
  874MOL0     C17901  10.064   8.326   6.278  0.4337  0.9373 -0.3500
  874MOL0     O17902   9.791   8.221   6.245  1.0462 -0.6547 -0.0065
  874MOL0     C17903   9.525   8.306   6.225  0.3136  0.1062  0.2908
  874MOL0     C17904   9.394   8.356   6.225  0.1534  0.5608  0.0882
  874MOL0     N17905   8.787   8.648   6.162 -0.2437  0.0979 -0.1726
  874MOL0     N17906   8.667   8.631   6.157  0.1857  0.2376  0.1743
  874MOL0     C17907   7.503   8.969   6.040  0.5009 -0.2519  0.2432
  874MOL0     C17908   7.379   9.021   5.995 -1.1112  0.3642  0.0214
  874MOL0     C17909   6.997   9.250   5.971  0.4666 -0.2334  0.0833
  874MOL0     C17910   6.935   9.359   6.051  0.6800 -0.0587  0.3857
  874MOL0     C17911   6.858   9.461   5.986  0.3574  0.7021 -0.9370
  874MOL0     C17912   6.847   9.454   5.848 -1.0262 -0.4680  0.2967
  874MOL0     O17913   6.777   9.559   5.798 -0.3274  0.9087  0.0981
  874MOL0     C17914   6.648   9.513   5.734 -1.4541 -0.9503 -0.4748
  874MOL0     C17915   6.559   9.436   5.823 -0.0666  0.0950 -0.0022
  874MOL0     C17916   6.411   9.441   5.784  0.0159 -0.3234 -0.8811
  874MOL0     C17917   6.311   9.380   5.882 -0.7241 -0.2422 -0.6784
  874MOL0     C17918   6.182   9.339   5.822  0.2892 -0.5569  0.1154
  874MOL0     C17919   6.091   9.280   5.770  0.0688  1.2308 -0.5426
  874MOL0     C17920   6.920   9.360   5.767  0.2905  0.5810 -0.0408
  874MOL0     C17921   6.994   9.255   5.822  0.0965  0.4174 -0.7941
  874MOL0     C17922   7.064   9.159   5.726  0.1483 -0.3958  0.4275
  874MOL0     H17923   7.151   8.878   6.207  1.4199 -0.3986  1.7795
  874MOL0     H17924   7.355   8.834   6.317 -3.1863  0.0493 -0.2263
  874MOL0     H17925   7.701   8.783   6.041 -0.0755  0.8529 -1.5540
  874MOL0     H17926   7.779   8.907   6.146  0.3145 -0.3472 -1.5351
  874MOL0     H17927   7.734   8.607   6.184 -0.6472  0.6717 -0.8846
  874MOL0     H17928   7.784   8.704   6.315 -2.3270 -1.0099 -0.5158
  874MOL0     H17929   7.988   8.786   6.170  0.5216 -1.3287  1.5442
  874MOL0     H17930   7.947   8.655   6.059 -0.3615  1.0522 -0.4919
  874MOL0     H17931   8.009   8.624   6.358  2.7628  0.2294 -0.8788
  874MOL0     H17932   7.956   8.499   6.240 -0.1226 -0.1100 -1.4605
  874MOL0     H17933   8.169   8.475   6.248 -1.4402 -1.0500  0.3514
  874MOL0     H17934   8.149   8.549   6.104  1.8734 -0.1676 -0.1362
  874MOL0     H17935   8.213   8.776   6.157 -0.5333 -2.9483 -3.6387
  874MOL0     H17936   8.239   8.738   6.330  1.3848 -0.0242  0.5375
  874MOL0     H17937   8.398   8.578   6.141 -1.9131  2.6983 -2.9917
  874MOL0     H17938   8.441   8.636   6.307  1.3599  1.6659  0.6406
  874MOL0     H17939   8.431   8.793   6.052  4.4677  1.2518 -1.5536
  874MOL0     H17940   8.442   8.864   6.220  3.9915  0.3799  0.9943
  874MOL0     H17941   8.691   8.954   6.216  2.1308 -0.1207  2.3585
  874MOL0     H17942   8.963   8.908   6.096  0.6928 -0.9034 -0.7870
  874MOL0     H17943   8.951   8.909   6.276 -0.8324 -0.2953 -0.5005
  874MOL0     H17944   9.052   8.662   6.116  0.4653  0.9738 -0.7544
  874MOL0     H17945   9.156   8.790   6.156  0.2269 -2.7690 -4.0641
  874MOL0     H17946   9.002   8.606   6.334 -0.6527  0.2531  2.8229
  874MOL0     H17947   9.047   8.757   6.409  0.1908 -1.7430  1.4187
  874MOL0     H17948   9.221   8.628   6.470 -1.4934 -0.1015  0.5026
  874MOL0     H17949   9.284   8.711   6.321 -3.6554  2.3452 -3.1302
  874MOL0     H17950   9.455   8.609   6.446  0.5904  0.3315 -0.2144
  874MOL0     H17951   9.662   8.531   6.441 -0.0483 -0.0828  1.6474
  874MOL0     H17952  10.019   8.494   6.558  0.3818 -0.8416  0.4006
  874MOL0     H17953  10.271   8.474   6.549 -2.1838  2.5195 -0.5123
  874MOL0     H17954  10.408   8.174   6.283  2.2774 -2.0744 -0.5155
  874MOL0     H17955  10.488   8.306   6.201 -1.1457  0.0889  0.2895
  874MOL0     H17956  10.578   8.142   6.440  0.1914 -2.1079 -1.1558
  874MOL0     H17957  10.668   8.143   6.296  2.3306  1.2337  0.8264
  874MOL0     H17958  10.718   8.396   6.339  1.5097  0.7557  0.0748
  874MOL0     H17959  10.664   8.354   6.506  1.0342  1.3108  1.2277
  874MOL0     H17960  10.899   8.239   6.348  0.5252 -0.8218  0.5551
  874MOL0     H17961  10.830   8.171   6.495 -1.2390 -0.4849 -1.6592
  874MOL0     H17962  11.031   8.303   6.538  3.0513  5.5651 -0.2575
  874MOL0     H17963  10.903   8.370   6.623  2.3884  2.1097  1.8985
  874MOL0     H17964  10.987   8.468   6.338 -1.5543  0.8016  0.2527
  874MOL0     H17965  10.868   8.552   6.436 -0.1407  0.1114 -3.7933
  874MOL0     H17966  11.161   8.513   6.507  1.2725  1.4536 -4.4236
  874MOL0     H17967  11.040   8.605   6.609  0.9262  0.6319 -0.2242
  874MOL0     H17968  11.121   8.681   6.327  0.6848 -0.6252 -0.5732
  874MOL0     H17969  11.029   8.777   6.447 -1.7500 -1.0132 -1.8362
  874MOL0     H17970  10.247   8.269   6.180  1.6223 -0.4304  0.3937
  874MOL0     H17971  10.001   8.290   6.196 -2.4794  3.7718  0.4200
  874MOL0     H17972   9.548   8.224   6.157 -0.5308  0.6611 -0.6808
  874MOL0     H17973   9.327   8.295   6.165 -2.9606  3.2059  0.5919
  874MOL0     H17974   7.592   9.003   5.989  0.0872 -0.1191 -0.3924
  874MOL0     H17975   7.379   9.095   5.916  0.8342 -1.0004 -1.3602
  874MOL0     H17976   6.961   9.359   6.156  0.9569 -0.9108  0.3222
  874MOL0     H17977   6.825   9.549   6.039  1.5312  0.2795  0.5349
  874MOL0     H17978   6.659   9.450   5.646 -0.7996 -3.2158  1.1482
  874MOL0     H17979   6.611   9.610   5.700  2.2609  0.8427  0.0726
  874MOL0     H17980   6.580   9.487   5.918  1.2457 -1.9391  0.8759
  874MOL0     H17981   6.588   9.330   5.828 -0.3817  0.0265  0.4516
  874MOL0     H17982   6.407   9.394   5.685  2.8365  1.3683 -1.9137
  874MOL0     H17983   6.367   9.539   5.762 -4.5612 -2.2999 -1.8152
  874MOL0     H17984   6.362   9.292   5.921  0.2977  1.0123  0.9456
  874MOL0     H17985   6.298   9.455   5.961 -1.0299 -1.0364  0.0362
  874MOL0     H17986   6.026   9.213   5.718 -0.6065  1.2723  0.2182
  874MOL0     H17987   6.919   9.374   5.660  2.2894  0.0357 -0.1793
  874MOL0     H17988   7.167   9.153   5.762  1.0527  0.5055 -1.8041
  874MOL0     H17989   7.028   9.056   5.726  0.6604 -0.5854  1.0429
  874MOL0     H17990   7.068   9.204   5.626 -3.8596  5.0999  2.1897
  875MOL0     O17991   5.135   3.355   5.779 -0.1910 -0.5335  0.4304
  875MOL0     C17992   5.134   3.306   5.666  0.3935 -0.4311  0.6142
  875MOL0     O17993   5.227   3.335   5.578 -0.2175 -0.5393 -0.5424
  875MOL0     C17994   5.334   3.414   5.608  0.9579 -0.0680  0.5632
  875MOL0     C17995   5.314   3.544   5.650  0.0124 -0.7938 -0.1819
  875MOL0     C17996   5.420   3.639   5.671  0.5345  0.1823 -1.1121
  875MOL0     C17997   5.548   3.595   5.641 -0.3190  0.6855  0.3752
  875MOL0     O17998   5.662   3.673   5.670  0.8328  0.5579  0.0342
  875MOL0     C17999   5.635   3.811   5.702  0.4569 -0.2464  0.5174
  875MOL0     C18000   5.766   3.880   5.719  0.3455 -0.5053 -0.1107
  875MOL0     C18001   5.858   3.802   5.821  0.3085 -0.1002 -0.2135
  875MOL0     C18002   5.988   3.881   5.836 -0.2142 -0.1692  0.2086
  875MOL0     C18003   6.098   3.790   5.888 -0.3218 -0.0830 -0.3647
  875MOL0     C18004   6.235   3.860   5.889  0.4334  0.7007 -0.1887
  875MOL0     C18005   6.342   3.768   5.934 -0.7792 -0.6703 -0.2769
  875MOL0     C18006   6.465   3.853   5.975 -1.1928  0.4721 -0.7099
  875MOL0     N18007   6.575   3.768   6.025  0.2444 -0.6773 -0.0296
  875MOL0     C18008   6.580   3.705   6.148  0.2478  0.7468  1.4672
  875MOL0     C18009   6.699   3.633   6.139 -0.1253  0.5635  0.5353
  875MOL0     C18010   6.751   3.531   6.231  0.2269  0.3265 -0.8341
  875MOL0     C18011   6.767   3.589   6.370  0.6750 -0.1191 -0.0245
  875MOL0     C18012   6.835   3.727   6.387 -0.8747 -0.2531  0.0831
  875MOL0     C18013   6.979   3.735   6.345  0.1258 -0.4157 -1.0895
  875MOL0     O18014   7.025   3.855   6.413 -0.0080 -0.1383  0.2329
  875MOL0     C18015   7.150   3.909   6.392 -1.3968  0.4371 -0.0823
  875MOL0     C18016   7.237   3.839   6.321  0.3646 -0.2383  0.0158
  875MOL0     C18017   7.359   3.898   6.276 -0.6496  0.2048 -0.7694
  875MOL0     C18018   7.395   4.026   6.314 -0.4208 -0.7047  0.2524
  875MOL0     C18019   7.528   4.079   6.277  0.5982 -0.1142  0.0822
  875MOL0     O18020   7.620   3.990   6.216  0.2353 -0.3672 -0.7130
  875MOL0     C18021   7.744   4.038   6.181 -0.6870 -0.6352 -0.8193
  875MOL0     C18022   7.823   4.101   6.274 -0.3560  0.5683 -0.0984
  875MOL0     C18023   7.957   4.119   6.248  0.7394  0.1934  0.4530
  875MOL0     C18024   8.015   4.089   6.124  0.3196 -0.4266  0.1920
  875MOL0     O18025   8.142   4.115   6.081 -0.1929  0.0819  0.3022
  875MOL0     C18026   8.247   4.058   6.163  0.1467 -0.1660 -0.2715
  875MOL0     C18027   8.347   4.164   6.188  0.0973 -0.4322  0.3839
  875MOL0     C18028   8.493   4.119   6.233 -0.1429  0.0509 -0.9783
  875MOL0     C18029   8.564   4.010   6.154  0.7094  0.5633  0.0149
  875MOL0     C18030   8.713   4.035   6.113 -0.5475  0.4201 -0.6448
  875MOL0     C18031   8.774   3.914   6.043  0.2643 -0.2897  0.3175
  875MOL0     C18032   8.929   3.929   6.037  0.9579 -0.0635  0.7509
  875MOL0     C18033   8.987   3.819   5.938  0.6105  0.3416  0.3967
  875MOL0    Cl18034   9.152   3.801   5.944  0.0813 -0.7528 -0.0380
  875MOL0     C18035   7.926   4.038   6.029 -0.7231  0.7258  0.5448
  875MOL0     C18036   7.799   3.998   6.064  0.3502 -0.1758  0.0036
  875MOL0     O18037   7.543   4.195   6.286 -0.4175 -0.4230 -0.4511
  875MOL0     C18038   7.313   4.086   6.409  0.5103 -0.6237  0.0884
  875MOL0     C18039   7.190   4.026   6.454  0.0431 -0.4456 -0.0860
  875MOL0     N18040   6.749   3.640   6.006 -0.9014  0.5904  1.2196
  875MOL0     N18041   6.668   3.725   5.938 -0.3375  0.0813  0.6594
  875MOL0     C18042   5.570   3.465   5.588  1.1263 -0.8647  0.5863
  875MOL0     C18043   5.463   3.376   5.571  0.1262 -0.2518  0.0808
  875MOL0     C18044   5.026   3.217   5.625  0.5645 -0.9342 -0.2561
  875MOL0     C18045   4.894   3.254   5.647  0.1364 -0.1984 -1.0836
  875MOL0     C18046   4.789   3.185   5.597 -0.3183  0.4148 -0.2934
  875MOL0     C18047   4.814   3.078   5.509  0.2396 -0.5929  0.5311
  875MOL0     O18048   4.718   2.997   5.459  0.5924 -0.2280  0.2164
  875MOL0     C18049   4.616   2.957   5.551  0.9572  0.0506 -0.8047
  875MOL0     C18050   4.554   2.834   5.485 -0.2731 -0.1627 -0.3266
  875MOL0     C18051   4.531   2.853   5.341 -0.2686  0.5524 -0.5287
  875MOL0     C18052   4.422   2.761   5.286 -0.2357 -0.5555  0.2941
  875MOL0     C18053   4.289   2.807   5.325 -0.4951 -0.1946 -0.3384
  875MOL0     C18054   4.182   2.847   5.367  0.9526  0.6080  0.7838
  875MOL0     C18055   4.945   3.045   5.482  0.5750  0.7803 -0.1734
  875MOL0     C18056   5.046   3.105   5.545 -0.1073 -0.9848  0.3615
  875MOL0     C18057   5.191   3.050   5.519  0.1184  0.2243 -0.0173
  875MOL0     H18058   5.213   3.571   5.681  0.0863 -0.9548  0.2095
  875MOL0     H18059   5.389   3.729   5.724 -2.3453 -0.7090 -1.1117
  875MOL0     H18060   5.586   3.861   5.618  2.8520 -0.1115 -0.9037
  875MOL0     H18061   5.583   3.821   5.797  0.0197  3.1775  0.0456
  875MOL0     H18062   5.750   3.986   5.739 -0.8196 -0.6017 -0.4183
  875MOL0     H18063   5.819   3.867   5.624  0.8322  0.2102  0.0548
  875MOL0     H18064   5.876   3.707   5.768 -1.1663  0.0607 -1.0551
  875MOL0     H18065   5.807   3.783   5.915  1.8034 -1.3724  0.3870
  875MOL0     H18066   6.011   3.914   5.734 -0.0410 -1.8382 -0.3259
  875MOL0     H18067   5.979   3.964   5.907 -0.1676  0.6802 -0.7383
  875MOL0     H18068   6.077   3.747   5.987 -0.5173 -1.8439 -1.1330
  875MOL0     H18069   6.102   3.703   5.822 -3.1220  0.2673 -1.1206
  875MOL0     H18070   6.249   3.905   5.790 -2.4600 -1.9126 -1.9575
  875MOL0     H18071   6.229   3.943   5.960  0.3171  0.7401 -0.2441
  875MOL0     H18072   6.367   3.696   5.857 -1.5234  0.2137 -1.3846
  875MOL0     H18073   6.313   3.714   6.025 -1.7809  0.9290  0.4068
  875MOL0     H18074   6.509   3.906   5.889  3.1914 -0.6846  0.5662
  875MOL0     H18075   6.447   3.925   6.055  1.8183  2.5973 -1.7693
  875MOL0     H18076   6.515   3.719   6.233 -2.9447  0.9534 -0.8341
  875MOL0     H18077   6.687   3.443   6.235 -0.5904  0.9637  1.0131
  875MOL0     H18078   6.846   3.496   6.188  1.5112  0.2442  1.8488
  875MOL0     H18079   6.666   3.595   6.411  0.6896 -1.1608  0.1952
  875MOL0     H18080   6.807   3.508   6.433 -0.5067 -0.8538 -0.1876
  875MOL0     H18081   6.840   3.762   6.490 -0.9608  1.2931 -0.4242
  875MOL0     H18082   6.770   3.806   6.347  0.7647  1.6368  1.0150
  875MOL0     H18083   6.972   3.747   6.236 -1.1201  0.3001 -0.9479
  875MOL0     H18084   7.043   3.658   6.388  2.0522  1.6030 -0.1422
  875MOL0     H18085   7.217   3.739   6.284 -1.8126 -1.2674  3.4787
  875MOL0     H18086   7.420   3.832   6.214  1.5211  1.1525  0.2574
  875MOL0     H18087   7.765   4.128   6.362 -0.2254 -1.6071  0.7231
  875MOL0     H18088   8.012   4.169   6.327  0.4196  1.5458 -0.1567
  875MOL0     H18089   8.212   4.028   6.262 -0.4414 -3.8206 -1.4492
  875MOL0     H18090   8.297   3.969   6.123 -0.4135 -0.8287  0.4695
  875MOL0     H18091   8.351   4.222   6.096  1.8176 -0.5922  0.3134
  875MOL0     H18092   8.308   4.228   6.268  1.7953 -0.5872  1.3828
  875MOL0     H18093   8.553   4.211   6.231 -0.7830  0.6319  1.8538
  875MOL0     H18094   8.494   4.086   6.337 -2.8696 -1.4361 -1.3227
  875MOL0     H18095   8.511   3.976   6.064 -0.6029 -0.2483  1.0512
  875MOL0     H18096   8.554   3.917   6.210 -0.3253 -0.6354 -2.0172
  875MOL0     H18097   8.776   4.058   6.200 -0.5296  2.3353 -1.1090
  875MOL0     H18098   8.732   4.118   6.044 -2.0882  1.5771  0.2642
  875MOL0     H18099   8.746   3.831   6.108 -1.3083  1.9892  2.7348
  875MOL0     H18100   8.740   3.906   5.939  0.8522 -0.6125  0.1435
  875MOL0     H18101   8.977   3.926   6.135  2.4942  1.7945  0.1024
  875MOL0     H18102   8.961   4.023   5.992  0.1982 -1.1618 -2.4145
  875MOL0     H18103   8.959   3.718   5.970  1.2781 -0.0531 -0.2357
  875MOL0     H18104   8.942   3.830   5.840 -0.3206  0.6700  0.8484
  875MOL0     H18105   7.960   4.033   5.926 -1.7487 -5.6296  0.1053
  875MOL0     H18106   7.740   3.950   5.987  1.9046 -3.5692  0.7159
  875MOL0     H18107   7.341   4.187   6.439 -0.4944 -0.9742  2.4223
  875MOL0     H18108   7.111   4.070   6.514  0.6106 -1.1019  1.1531
  875MOL0     H18109   5.666   3.421   5.562  1.5322  1.5010 -2.4066
  875MOL0     H18110   5.480   3.279   5.527 -2.3077 -0.2214 -1.0560
  875MOL0     H18111   4.874   3.343   5.707  0.4225  0.0694 -1.3816
  875MOL0     H18112   4.684   3.204   5.620 -0.8670  1.2892 -3.1337
  875MOL0     H18113   4.541   3.035   5.561  1.5979  0.5601  0.0720
  875MOL0     H18114   4.644   2.936   5.655  0.5080 -1.7542 -1.0153
  875MOL0     H18115   4.452   2.827   5.524 -0.1305  0.1770  0.1262
  875MOL0     H18116   4.608   2.743   5.512  0.0216  0.8180  2.7575
  875MOL0     H18117   4.621   2.833   5.282 -0.2905  2.4698 -1.2980
  875MOL0     H18118   4.509   2.959   5.325 -0.5297  0.3520 -1.5937
  875MOL0     H18119   4.425   2.766   5.177 -0.2639 -1.7858  0.2300
  875MOL0     H18120   4.433   2.656   5.315  0.6924 -0.7253 -0.6231
  875MOL0     H18121   4.087   2.886   5.398 -0.2373 -1.3993 -0.0999
  875MOL0     H18122   4.948   2.967   5.406 -0.3817  2.8667 -2.5016
  875MOL0     H18123   5.269   3.125   5.503  0.8607 -0.7807 -1.3387
  875MOL0     H18124   5.219   2.982   5.600 -0.7043  0.0051  0.0924
  875MOL0     H18125   5.182   2.986   5.431 -0.6307  1.0364 -0.5464
  876MOL0     O18126   8.951   8.044   0.855  0.2712 -0.4020  0.5351
  876MOL0     C18127   8.917   8.112   0.756  0.2999  0.7784 -0.6688
  876MOL0     O18128   8.995   8.210   0.701  0.1172  0.9049  0.2546
  876MOL0     C18129   9.129   8.221   0.734 -0.3545  0.2213  0.5746
  876MOL0     C18130   9.232   8.155   0.666 -0.0644  0.0733  0.4563
  876MOL0     C18131   9.366   8.141   0.723  0.6427  0.8907 -0.4281
  876MOL0     C18132   9.402   8.231   0.821 -0.0223  0.0170 -0.2069
  876MOL0     O18133   9.535   8.245   0.861  0.0805  0.0161 -0.3118
  876MOL0     C18134   9.608   8.344   0.786 -0.1164 -0.4495 -0.1396
  876MOL0     C18135   9.745   8.378   0.832 -0.0170  0.8330 -0.1614
  876MOL0     C18136   9.743   8.405   0.987 -0.3572  0.8253 -0.5970
  876MOL0     C18137   9.897   8.416   1.034  0.7169  0.3469 -0.0918
  876MOL0     C18138   9.907   8.345   1.171  0.2903  0.2805 -0.4604
  876MOL0     C18139  10.050   8.359   1.222 -0.4640  1.0402  0.5237
  876MOL0     C18140  10.115   8.501   1.223 -0.6115  0.7750 -0.0460
  876MOL0     C18141  10.044   8.594   1.317  0.7466  0.5100 -0.6940
  876MOL0     N18142  10.119   8.713   1.361 -0.5066 -0.4435  0.3384
  876MOL0     C18143  10.204   8.732   1.464 -0.7825 -0.1945  0.2962
  876MOL0     C18144  10.255   8.854   1.450 -0.1810 -0.0245 -0.7250
  876MOL0     C18145  10.366   8.914   1.519  0.6682 -0.1257 -0.1808
  876MOL0     C18146  10.468   8.816   1.586  0.3895 -0.0631  0.1983
  876MOL0     C18147  10.540   8.732   1.480 -0.1165 -0.1502  0.8380
  876MOL0     C18148  10.693   8.696   1.520  0.8441  0.1159  0.5011
  876MOL0     O18149  10.701   8.608   1.632  0.0720  0.3197  0.4375
  876MOL0     C18150  10.828   8.573   1.668 -0.3079  0.1801 -0.2550
  876MOL0     C18151  10.833   8.483   1.779  0.0497 -0.0462 -0.7213
  876MOL0     C18152  10.952   8.454   1.847  0.9252  0.2321 -0.2652
  876MOL0     C18153  11.079   8.508   1.798  0.6667  0.9576  0.0424
  876MOL0     C18154  11.207   8.474   1.868 -0.5642 -0.0165  0.8087
  876MOL0     O18155  11.327   8.486   1.799  0.3281  0.3041 -0.7494
  876MOL0     C18156  11.453   8.500   1.864  0.4892  0.7188  0.2758
  876MOL0     C18157  11.485   8.497   1.996 -0.0979  0.2314  0.1687
  876MOL0     C18158  11.623   8.520   2.036 -1.0234  0.4630 -0.1317
  876MOL0     C18159  11.721   8.548   1.940 -0.1915  0.2154 -0.0912
  876MOL0     O18160  11.847   8.567   1.997  0.1145 -0.1838 -0.1213
  876MOL0     C18161  11.962   8.550   1.915 -0.4579  0.2016 -0.2599
  876MOL0     C18162  12.081   8.520   2.001  0.1332  0.3379  0.6381
  876MOL0     C18163  12.123   8.645   2.083 -0.5055  0.7691  0.4216
  876MOL0     C18164  12.228   8.594   2.187  0.5866 -0.5523 -0.2920
  876MOL0     C18165  12.367   8.564   2.126  0.3095  0.7111 -0.0679
  876MOL0     C18166  12.464   8.548   2.236  0.6102 -0.6926  0.2456
  876MOL0     C18167  12.600   8.540   2.164 -0.9963 -0.3033 -0.3459
  876MOL0     C18168  12.696   8.515   2.274  0.3358 -0.4174  0.3154
  876MOL0    Cl18169  12.708   8.644   2.397  0.0577 -0.0919 -0.3527
  876MOL0     C18170  11.695   8.561   1.804 -0.6790 -0.6198 -0.4561
  876MOL0     C18171  11.557   8.544   1.773  0.0927  0.1012  0.1618
  876MOL0     O18172  11.199   8.428   1.980 -0.6409 -0.9956  0.6020
  876MOL0     C18173  11.084   8.586   1.679 -0.0381 -0.2311  0.9522
  876MOL0     C18174  10.955   8.615   1.618 -0.4068 -0.4019 -0.8747
  876MOL0     N18175  10.199   8.918   1.343 -0.2093 -0.0914 -0.1940
  876MOL0     N18176  10.127   8.824   1.286 -0.2783  0.0222 -0.3861
  876MOL0     C18177   9.299   8.305   0.878 -0.1039  0.4326 -0.1009
  876MOL0     C18178   9.168   8.301   0.838 -0.4059 -1.4601 -0.2063
  876MOL0     C18179   8.783   8.090   0.710 -0.2270 -0.5474 -0.3401
  876MOL0     C18180   8.760   8.075   0.569 -0.0412  0.2593 -0.7156
  876MOL0     C18181   8.631   8.046   0.521  0.4568  0.0952 -0.7262
  876MOL0     C18182   8.519   8.048   0.608  0.6440 -0.1886 -0.7355
  876MOL0     O18183   8.389   8.014   0.575 -0.3784 -0.1011  0.7259
  876MOL0     C18184   8.364   7.918   0.466 -0.3702 -0.5627  0.3013
  876MOL0     C18185   8.222   7.943   0.406 -0.2276  0.7399  0.1007
  876MOL0     C18186   8.202   7.819   0.301 -0.1685 -0.6658 -0.2849
  876MOL0     C18187   8.093   7.847   0.193  0.3243 -0.4182 -0.7696
  876MOL0     C18188   8.143   7.954   0.104 -0.2023  0.3634 -0.7067
  876MOL0     C18189   8.192   8.026   0.032 -0.2530 -0.8623  0.4513
  876MOL0     C18190   8.541   8.066   0.746  1.0346 -0.1292  0.2093
  876MOL0     C18191   8.667   8.098   0.797  0.4745 -0.0774 -0.4201
  876MOL0     C18192   8.679   8.144   0.943 -0.2670 -0.0770  0.5232
  876MOL0     H18193   9.205   8.095   0.580  0.4239 -3.5129  2.5827
  876MOL0     H18194   9.436   8.081   0.665 -1.6898  0.3773 -2.9092
  876MOL0     H18195   9.603   8.310   0.682 -0.1973  0.7924 -0.5707
  876MOL0     H18196   9.556   8.440   0.782  1.3546  0.4258  0.5798
  876MOL0     H18197   9.781   8.468   0.782  2.7594  0.5234  1.1062
  876MOL0     H18198   9.816   8.300   0.803  0.6377  1.8902 -1.4911
  876MOL0     H18199   9.691   8.327   1.043 -1.3024  0.4031 -2.0207
  876MOL0     H18200   9.689   8.497   1.010  0.1691  1.5499 -2.1192
  876MOL0     H18201   9.950   8.348   0.966  2.1690  0.4184  0.9060
  876MOL0     H18202   9.935   8.518   1.022  1.2355  0.2093  0.3277
  876MOL0     H18203   9.847   8.397   1.246  3.4466  2.7885  0.5798
  876MOL0     H18204   9.884   8.239   1.158 -1.0502  0.2468  1.7592
  876MOL0     H18205  10.063   8.311   1.319  1.9297  0.5222 -0.0103
  876MOL0     H18206  10.110   8.304   1.149 -1.5900 -0.5170  0.7284
  876MOL0     H18207  10.110   8.549   1.125  0.0173  0.5910 -0.1741
  876MOL0     H18208  10.222   8.488   1.244 -0.8666  0.1102  0.8842
  876MOL0     H18209   9.946   8.625   1.277 -0.2585 -0.0063  1.2412
  876MOL0     H18210  10.020   8.539   1.409 -3.3222  0.0292 -1.8213
  876MOL0     H18211  10.217   8.662   1.546  0.3547 -0.0538  0.2437
  876MOL0     H18212  10.414   8.985   1.452  2.1842 -0.7869  0.1752
  876MOL0     H18213  10.326   8.979   1.598  1.6270  1.5373 -0.9893
  876MOL0     H18214  10.538   8.877   1.643  1.9616 -1.2532 -0.4078
  876MOL0     H18215  10.419   8.752   1.660  1.8114 -1.8561 -0.3442
  876MOL0     H18216  10.531   8.785   1.385 -2.2401 -1.0867  0.4772
  876MOL0     H18217  10.487   8.637   1.467  2.6868 -1.9459  1.4681
  876MOL0     H18218  10.759   8.779   1.546  3.5632 -1.2154 -1.6453
  876MOL0     H18219  10.732   8.646   1.431  1.9684  3.5881 -1.1177
  876MOL0     H18220  10.738   8.438   1.805  1.5169 -1.5378  2.8282
  876MOL0     H18221  10.965   8.387   1.932  1.3270 -0.6717 -1.0197
  876MOL0     H18222  11.407   8.476   2.069 -1.9241 -1.2177 -2.0449
  876MOL0     H18223  11.650   8.513   2.141 -0.9521 -1.7033 -0.2457
  876MOL0     H18224  11.941   8.457   1.862  0.2260  1.1186 -2.2220
  876MOL0     H18225  11.970   8.626   1.837 -3.1727 -0.7843 -1.6206
  876MOL0     H18226  12.064   8.441   2.075 -0.9013 -0.6647 -0.6159
  876MOL0     H18227  12.168   8.493   1.940  0.5883  0.0696  1.3866
  876MOL0     H18228  12.162   8.713   2.007 -2.7597 -0.2440 -1.7807
  876MOL0     H18229  12.034   8.685   2.132 -1.4249 -0.0391 -0.5328
  876MOL0     H18230  12.182   8.512   2.243 -0.3073  0.2685  0.2087
  876MOL0     H18231  12.220   8.683   2.251 -1.8601 -1.0125  0.1252
  876MOL0     H18232  12.398   8.636   2.049  1.5324  1.6997  1.2887
  876MOL0     H18233  12.364   8.480   2.056 -1.4496 -0.5476  1.4186
  876MOL0     H18234  12.466   8.619   2.319  4.0351  1.3814 -1.4248
  876MOL0     H18235  12.442   8.456   2.291 -3.4020 -1.2938 -1.9531
  876MOL0     H18236  12.634   8.632   2.116 -0.0059 -0.1764  0.5537
  876MOL0     H18237  12.602   8.460   2.090 -1.5086 -1.6291  1.0007
  876MOL0     H18238  12.666   8.420   2.319  1.8332  0.5762  3.6901
  876MOL0     H18239  12.796   8.488   2.239  0.6197  0.6783  0.2664
  876MOL0     H18240  11.764   8.600   1.730  0.6313 -1.4202  0.2908
  876MOL0     H18241  11.519   8.561   1.673 -2.6562  0.8220  1.2384
  876MOL0     H18242  11.178   8.623   1.640  0.3878 -2.6714 -0.4974
  876MOL0     H18243  10.958   8.673   1.527  1.2163 -1.0551 -1.2805
  876MOL0     H18244   9.334   8.352   0.969 -1.2580  1.4266 -0.1441
  876MOL0     H18245   9.109   8.365   0.904  2.6474  0.1176  1.2055
  876MOL0     H18246   8.853   8.051   0.519 -0.6651 -2.6793 -0.6687
  876MOL0     H18247   8.617   8.019   0.417  3.8560 -2.4136 -0.7262
  876MOL0     H18248   8.375   7.818   0.508 -1.2996 -1.3504 -1.2565
  876MOL0     H18249   8.436   7.919   0.384 -1.2165  1.0367 -0.4806
  876MOL0     H18250   8.207   8.039   0.355 -1.7044  1.3483  1.6192
  876MOL0     H18251   8.147   7.923   0.483  0.7268 -0.1700  0.8211
  876MOL0     H18252   8.182   7.727   0.357 -2.1067 -1.3904 -1.9961
  876MOL0     H18253   8.296   7.795   0.250  0.1929 -1.4693  0.7317
  876MOL0     H18254   8.069   7.761   0.130  1.7238 -1.6230  0.2738
  876MOL0     H18255   7.999   7.882   0.236  0.2055 -0.2657 -1.1533
  876MOL0     H18256   8.236   8.088  -0.043  0.2691 -2.9971 -1.1085
  876MOL0     H18257   8.445   8.073   0.798  1.3125 -0.5317  0.7889
  876MOL0     H18258   8.753   8.223   0.952 -0.0951 -0.0635 -0.7900
  876MOL0     H18259   8.581   8.176   0.979 -0.8639 -1.9123  0.6761
  876MOL0     H18260   8.701   8.060   1.009  1.5045  0.7229  1.0042
  877MOL0     O18261   2.241  10.019   5.083  0.6959 -0.7059 -0.4714
  877MOL0     C18262   2.168  10.083   5.005 -0.1828  0.2845  0.1916
  877MOL0     O18263   2.205  10.193   4.927  0.0266  0.2767  0.5189
  877MOL0     C18264   2.332  10.228   4.938 -0.0409 -0.5258  0.1527
  877MOL0     C18265   2.429  10.174   4.852 -0.4433  0.1185  0.2095
  877MOL0     C18266   2.567  10.189   4.878 -0.4227  0.4219  0.2894
  877MOL0     C18267   2.608  10.277   4.982  0.0422 -0.1019 -0.1210
  877MOL0     O18268   2.744  10.299   5.006  0.4168  0.8401 -0.3995
  877MOL0     C18269   2.851  10.203   4.949 -0.0315  0.1638  0.1063
  877MOL0     C18270   2.841  10.057   5.012 -0.3364  0.5027 -0.3622
  877MOL0     C18271   2.957   9.970   4.958 -0.4328  0.5226  0.7581
  877MOL0     C18272   2.908   9.867   4.860 -0.0808 -0.3289 -0.2308
  877MOL0     C18273   2.848   9.740   4.921  0.4679 -0.2246  0.1135
  877MOL0     C18274   2.938   9.631   4.956  0.8951 -0.1470  0.6692
  877MOL0     C18275   3.012   9.643   5.094  0.2039 -0.2441 -0.3813
  877MOL0     C18276   3.102   9.523   5.125  0.0786  0.7033 -0.2053
  877MOL0     N18277   3.056   9.385   5.092  1.0715 -0.4896  0.2392
  877MOL0     C18278   2.959   9.311   5.162 -0.8425 -0.6619 -0.1431
  877MOL0     C18279   2.934   9.206   5.080 -0.1471  0.4235 -0.4077
  877MOL0     C18280   2.833   9.095   5.105 -0.4342  0.9251  0.0902
  877MOL0     C18281   2.695   9.144   5.066 -0.5868  0.1408 -0.4173
  877MOL0     C18282   2.602   9.040   5.124  0.3301 -1.0746 -0.6037
  877MOL0     C18283   2.459   9.098   5.090  0.0113  0.4980 -0.6323
  877MOL0     O18284   2.379   8.984   5.056  0.1582 -0.1181  0.1408
  877MOL0     C18285   2.245   9.015   5.027  0.5815 -0.7999  1.4657
  877MOL0     C18286   2.187   9.139   5.033 -1.7613  0.0081  1.0521
  877MOL0     C18287   2.051   9.151   5.004  0.6054 -1.2222  0.7178
  877MOL0     C18288   1.971   9.046   4.944 -0.4850 -0.2791 -1.1386
  877MOL0     C18289   1.829   9.077   4.910  0.0609  0.1156  0.1752
  877MOL0     O18290   1.754   8.980   4.846 -0.4639 -0.1611  0.1260
  877MOL0     C18291   1.629   9.016   4.809  0.1207 -0.3284  0.0226
  877MOL0     C18292   1.521   8.953   4.874 -0.0572 -0.0147  0.6000
  877MOL0     C18293   1.390   8.999   4.857 -0.0678  0.6587 -0.0661
  877MOL0     C18294   1.370   9.109   4.774  1.0516 -0.1134  0.5259
  877MOL0     O18295   1.234   9.141   4.757 -0.5528  0.2100  0.0335
  877MOL0     C18296   1.212   9.278   4.744 -0.2099 -0.9717 -0.3176
  877MOL0     C18297   1.069   9.309   4.787 -0.3096  0.1456  0.2225
  877MOL0     C18298   1.047   9.455   4.787  0.5232 -0.2794  0.6372
  877MOL0     C18299   0.904   9.493   4.791 -0.1408  0.7927 -0.0675
  877MOL0     C18300   0.884   9.646   4.789 -0.8638 -0.2499  0.1174
  877MOL0     C18301   0.768   9.677   4.697 -0.1516  0.0686  0.1219
  877MOL0     C18302   0.747   9.824   4.699  0.9878 -0.4769  0.9462
  877MOL0     C18303   0.605   9.855   4.646  0.4758  0.2239  0.8498
  877MOL0    Cl18304   0.569  10.021   4.678  0.1453 -0.5239 -0.1233
  877MOL0     C18305   1.472   9.167   4.711 -0.1596  0.0633 -0.5111
  877MOL0     C18306   1.606   9.121   4.719  0.1692  0.4523  0.0547
  877MOL0     O18307   1.782   9.185   4.955  0.6136 -0.2458  0.1759
  877MOL0     C18308   2.032   8.922   4.933  0.4019  0.0669 -0.5077
  877MOL0     C18309   2.160   8.910   4.979 -1.0437 -1.0632  0.9966
  877MOL0     N18310   2.999   9.223   4.955 -0.0514  0.1669 -0.0533
  877MOL0     N18311   3.069   9.334   4.966  0.7581 -0.2927 -0.4581
  877MOL0     C18312   2.511  10.341   5.061  0.2408  0.6959  0.2396
  877MOL0     C18313   2.372  10.316   5.036  0.9266  0.3283  0.1648
  877MOL0     C18314   2.033  10.033   4.992 -0.0407  0.5115  1.4257
  877MOL0     C18315   1.936  10.125   4.939 -0.4442  0.3470  0.6058
  877MOL0     C18316   1.800  10.095   4.923 -0.8210  0.2892  0.1119
  877MOL0     C18317   1.745   9.986   4.978 -0.1435  0.5598  0.6942
  877MOL0     O18318   1.612   9.965   4.954 -0.2431 -0.2199 -0.2607
  877MOL0     C18319   1.553   9.923   5.065 -0.0896  0.2181  0.0240
  877MOL0     C18320   1.535  10.042   5.164 -0.2221 -0.5812  0.0584
  877MOL0     C18321   1.391  10.104   5.124 -1.0543  1.0215  0.4905
  877MOL0     C18322   1.372  10.222   5.217 -0.0437 -0.5617  0.0671
  877MOL0     C18323   1.228  10.239   5.234  1.0395 -0.7034 -0.7519
  877MOL0     C18324   1.105  10.276   5.241  0.2626  0.9704  0.5257
  877MOL0     C18325   1.833   9.889   5.046 -0.3209 -0.1190  0.6253
  877MOL0     C18326   1.977   9.914   5.050 -0.0760 -0.6040  0.4386
  877MOL0     C18327   2.069   9.819   5.111  0.3188  0.0072 -0.0683
  877MOL0     H18328   2.400  10.100   4.778 -0.2320 -1.2748  1.4866
  877MOL0     H18329   2.633  10.132   4.813  1.6869  1.7938  1.1079
  877MOL0     H18330   2.853  10.193   4.840 -0.8680  0.3983  0.0615
  877MOL0     H18331   2.943  10.255   4.976 -0.3174  2.2357 -2.4910
  877MOL0     H18332   2.741  10.015   4.999  0.5633 -2.1086  0.4590
  877MOL0     H18333   2.847  10.065   5.121  0.4632 -0.6267 -0.2991
  877MOL0     H18334   3.016   9.916   5.032 -1.9209 -1.2758  0.6868
  877MOL0     H18335   3.026  10.031   4.899 -1.0368 -1.2115 -1.9186
  877MOL0     H18336   2.840   9.915   4.790 -1.0888 -0.2769  0.7454
  877MOL0     H18337   2.992   9.831   4.800  0.0821  1.4469 -1.1296
  877MOL0     H18338   2.784   9.771   5.004 -0.5510 -2.9202  0.4387
  877MOL0     H18339   2.783   9.698   4.844 -0.9520  0.7866  0.7123
  877MOL0     H18340   2.886   9.535   4.966  1.6640 -0.4639  1.9665
  877MOL0     H18341   3.011   9.605   4.878 -2.1846 -0.2224 -2.4451
  877MOL0     H18342   2.925   9.645   5.159  2.1479  0.5601  2.3631
  877MOL0     H18343   3.074   9.732   5.104 -2.2066  1.5803 -0.8814
  877MOL0     H18344   3.199   9.533   5.074  0.1677  0.4355 -0.0930
  877MOL0     H18345   3.135   9.521   5.229  2.3343 -2.6339 -0.8215
  877MOL0     H18346   2.924   9.346   5.259  1.5419 -0.8344  0.8459
  877MOL0     H18347   2.856   9.009   5.042 -1.2895 -0.1118  1.1760
  877MOL0     H18348   2.834   9.069   5.211  0.8086 -1.6249 -0.4771
  877MOL0     H18349   2.682   9.238   5.119 -1.2753 -1.5662  2.6715
  877MOL0     H18350   2.677   9.156   4.959  1.0504 -3.6005 -1.2822
  877MOL0     H18351   2.613   9.024   5.232  3.0579  0.7166 -0.5152
  877MOL0     H18352   2.607   8.939   5.081 -1.8710 -2.6832  2.4962
  877MOL0     H18353   2.471   9.159   4.999 -0.9632  0.5715 -0.7207
  877MOL0     H18354   2.415   9.158   5.170  2.3388  0.2665  0.9150
  877MOL0     H18355   2.238   9.232   5.051 -1.2588  0.3063 -1.4915
  877MOL0     H18356   2.006   9.248   5.022  0.0646 -0.9983 -1.5100
  877MOL0     H18357   1.560   8.862   4.918  2.4429  0.8038  0.2511
  877MOL0     H18358   1.309   8.942   4.902  0.8234 -0.0892  0.6408
  877MOL0     H18359   1.280   9.331   4.812 -2.0528 -1.9826  2.4753
  877MOL0     H18360   1.233   9.302   4.640 -1.0342  2.3626  0.1980
  877MOL0     H18361   1.007   9.249   4.719  0.9954 -2.8071  1.4539
  877MOL0     H18362   1.038   9.264   4.881 -1.6498  0.4187 -0.0638
  877MOL0     H18363   1.089   9.512   4.869 -0.4512  1.1388  0.1887
  877MOL0     H18364   1.079   9.498   4.692 -0.2503 -1.3494 -0.1523
  877MOL0     H18365   0.856   9.454   4.882 -0.8954 -0.1675 -0.8597
  877MOL0     H18366   0.857   9.451   4.702  0.5161 -2.5584  1.0068
  877MOL0     H18367   0.975   9.692   4.751 -0.1128  0.2022  2.3122
  877MOL0     H18368   0.883   9.680   4.893  1.1090  1.6933 -0.4220
  877MOL0     H18369   0.789   9.655   4.592  0.7915 -1.5139  0.5982
  877MOL0     H18370   0.684   9.623   4.740 -0.0210  1.3304  2.0945
  877MOL0     H18371   0.817   9.880   4.636 -0.9488 -0.4153 -1.2695
  877MOL0     H18372   0.768   9.873   4.795 -1.1370  0.6902  0.8882
  877MOL0     H18373   0.595   9.836   4.538 -0.4360  0.5314  0.8692
  877MOL0     H18374   0.525   9.804   4.700 -2.8738  1.9330 -2.0404
  877MOL0     H18375   1.456   9.244   4.636  2.6157  0.5100 -0.7772
  877MOL0     H18376   1.683   9.164   4.657  0.4195 -0.2581 -0.1386
  877MOL0     H18377   1.983   8.832   4.896 -1.7348  0.2323  1.6700
  877MOL0     H18378   2.201   8.810   4.976 -0.9645 -1.0157 -0.5975
  877MOL0     H18379   2.538  10.394   5.152  0.4383  2.5721 -0.8561
  877MOL0     H18380   2.297  10.361   5.101 -0.0578  0.9044 -1.3280
  877MOL0     H18381   1.969  10.222   4.902 -2.7606 -0.4181 -4.4041
  877MOL0     H18382   1.730  10.173   4.891  1.1180  2.2257  0.3725
  877MOL0     H18383   1.606   9.846   5.121  0.0553 -1.1311 -1.8588
  877MOL0     H18384   1.459   9.875   5.034  0.6318 -3.6924  3.1073
  877MOL0     H18385   1.617  10.112   5.148  1.3451 -1.8999  1.8127
  877MOL0     H18386   1.539  10.009   5.269 -1.1908 -1.4510 -0.1531
  877MOL0     H18387   1.310  10.032   5.137 -0.8273  0.4683 -0.8966
  877MOL0     H18388   1.388  10.136   5.019 -0.5759 -0.3337  0.0357
  877MOL0     H18389   1.411  10.210   5.319  0.0330 -0.2507  0.0748
  877MOL0     H18390   1.418  10.315   5.183 -1.8250  0.1494 -0.5221
  877MOL0     H18391   1.004  10.310   5.245 -0.1840 -0.4216  2.1395
  877MOL0     H18392   1.790   9.794   5.075  0.5734 -0.8662 -0.4233
  877MOL0     H18393   2.083   9.837   5.218  3.2844 -1.9230  0.0055
  877MOL0     H18394   2.007   9.731   5.089 -1.3870  1.4314 -1.2556
  877MOL0     H18395   2.165   9.806   5.060 -0.2552  0.5510 -1.3343
  878MOL0     O18396   3.488   1.814   6.027 -0.7507  0.0662 -0.1984
  878MOL0     C18397   3.426   1.711   6.012 -0.7722  0.6597  0.3541
  878MOL0     O18398   3.463   1.616   5.918  0.2236 -0.2810 -0.7573
  878MOL0     C18399   3.545   1.646   5.815  0.5320 -0.1062  0.2342
  878MOL0     C18400   3.532   1.762   5.738  0.2886  1.2111 -0.7747
  878MOL0     C18401   3.604   1.767   5.617  1.1886 -0.6648 -0.1590
  878MOL0     C18402   3.666   1.653   5.567  0.1095  0.3291  0.2467
  878MOL0     O18403   3.711   1.670   5.435  0.0181  0.8023  0.2535
  878MOL0     C18404   3.786   1.558   5.379  0.0143  0.8251  0.3266
  878MOL0     C18405   3.823   1.578   5.231  1.1520 -0.4304  0.4728
  878MOL0     C18406   3.916   1.692   5.208 -0.0923 -0.8866 -0.8675
  878MOL0     C18407   4.060   1.676   5.276 -0.0694 -0.4174 -0.3054
  878MOL0     C18408   4.144   1.796   5.241 -0.5608 -0.2696 -1.0844
  878MOL0     C18409   4.279   1.775   5.318 -0.6744 -0.0882 -0.0606
  878MOL0     C18410   4.404   1.839   5.253 -0.4041  0.0274 -0.8222
  878MOL0     C18411   4.466   1.773   5.124  0.2145 -0.1543 -0.5479
  878MOL0     N18412   4.604   1.830   5.104  0.5264  0.3461 -0.3039
  878MOL0     C18413   4.724   1.772   5.122  0.2461 -0.5951 -0.5379
  878MOL0     C18414   4.813   1.867   5.091 -0.1699 -1.2056 -0.3331
  878MOL0     C18415   4.958   1.878   5.114 -0.5087  0.1860  0.1562
  878MOL0     C18416   5.028   1.791   5.012 -0.0339  0.2967 -0.1925
  878MOL0     C18417   5.180   1.774   5.047 -0.5109  0.8505  0.3674
  878MOL0     C18418   5.257   1.906   5.028 -0.0613 -0.2092 -0.4640
  878MOL0     O18419   5.389   1.885   5.090 -0.7756  0.2633  0.3613
  878MOL0     C18420   5.502   1.825   5.024  0.4748 -1.0148 -0.7540
  878MOL0     C18421   5.616   1.812   5.100 -0.3249 -0.0875 -0.0646
  878MOL0     C18422   5.723   1.744   5.039  0.8425 -0.5854 -0.6125
  878MOL0     C18423   5.732   1.706   4.908  0.2661  0.5476  0.3994
  878MOL0     C18424   5.848   1.659   4.859 -0.0347  0.3061  1.0346
  878MOL0     O18425   5.852   1.623   4.723 -0.0914  0.1378  0.1859
  878MOL0     C18426   5.976   1.567   4.677 -0.1086 -0.2790 -0.6508
  878MOL0     C18427   6.080   1.664   4.666  0.2842  0.0827 -0.4557
  878MOL0     C18428   6.212   1.618   4.645  0.3399  0.0853  0.1873
  878MOL0     C18429   6.238   1.479   4.625  0.8685 -0.2381 -0.3962
  878MOL0     O18430   6.348   1.412   4.586  0.2137 -0.5241 -0.0537
  878MOL0     C18431   6.456   1.481   4.533  0.0847  0.0430 -0.0740
  878MOL0     C18432   6.546   1.380   4.482  0.3271 -0.0420  0.4200
  878MOL0     C18433   6.676   1.449   4.446  0.1020 -0.1118  0.3119
  878MOL0     C18434   6.789   1.355   4.431  0.0530  0.4870 -0.4791
  878MOL0     C18435   6.922   1.436   4.395  0.2361 -0.1484 -0.2570
  878MOL0     C18436   7.019   1.346   4.322  0.0663  0.0471 -0.2996
  878MOL0     C18437   7.165   1.397   4.328 -0.0784  0.1555 -0.9060
  878MOL0     C18438   7.265   1.294   4.268  0.0057  0.5496  0.1881
  878MOL0    Cl18439   7.417   1.385   4.246  0.0900 -0.1462 -0.2211
  878MOL0     C18440   6.134   1.398   4.621 -0.3376  0.3394 -0.8292
  878MOL0     C18441   6.000   1.441   4.648 -0.2041  0.8276 -0.0605
  878MOL0     O18442   5.944   1.656   4.929  0.5207 -0.0822 -0.0544
  878MOL0     C18443   5.614   1.726   4.833 -0.6430 -0.5045 -0.8202
  878MOL0     C18444   5.503   1.785   4.889  1.1168 -0.6831 -0.9512
  878MOL0     N18445   4.745   1.981   5.061 -0.2685 -0.0833 -0.3147
  878MOL0     N18446   4.622   1.962   5.077  0.4144  0.6449 -0.5415
  878MOL0     C18447   3.666   1.533   5.648  0.8072  0.0994  0.9439
  878MOL0     C18448   3.603   1.525   5.771 -0.1516 -0.4887  0.2123
  878MOL0     C18449   3.320   1.665   6.105 -1.2311  0.1153  0.8089
  878MOL0     C18450   3.194   1.677   6.049  0.4655  0.5105  0.0170
  878MOL0     C18451   3.082   1.675   6.127 -0.3262  0.6313  0.5424
  878MOL0     C18452   3.097   1.661   6.265 -0.8634  0.4420 -0.3995
  878MOL0     O18453   2.991   1.658   6.359  0.4290  0.1437 -0.9727
  878MOL0     C18454   2.934   1.530   6.389  0.5899  0.8418  0.7056
  878MOL0     C18455   2.814   1.543   6.485  1.3989  0.9615  0.1500
  878MOL0     C18456   2.688   1.608   6.430  0.1221 -0.0336 -0.1053
  878MOL0     C18457   2.582   1.598   6.534  0.6554  0.8970 -0.2800
  878MOL0     C18458   2.465   1.674   6.501  0.0978  0.8936 -0.5852
  878MOL0     C18459   2.374   1.740   6.460  1.0751 -0.1776  0.0503
  878MOL0     C18460   3.229   1.652   6.318 -0.7428  0.0350  0.8415
  878MOL0     C18461   3.344   1.665   6.240 -0.1461  0.4102 -0.3297
  878MOL0     C18462   3.477   1.675   6.305 -0.3140  0.4881  0.0420
  878MOL0     H18463   3.484   1.844   5.790 -1.1447 -0.0058 -0.0816
  878MOL0     H18464   3.610   1.860   5.560 -0.8454  0.7490  1.7840
  878MOL0     H18465   3.871   1.530   5.443 -1.5362 -0.4192  1.9246
  878MOL0     H18466   3.720   1.473   5.362  3.7317 -1.8572 -2.2212
  878MOL0     H18467   3.726   1.595   5.183  2.1101 -1.9937 -2.2095
  878MOL0     H18468   3.874   1.489   5.193  2.8474  0.9754 -0.7138
  878MOL0     H18469   3.875   1.784   5.248  0.4043 -0.6058 -0.9868
  878MOL0     H18470   3.928   1.705   5.100 -1.0547  0.9976 -0.7871
  878MOL0     H18471   4.042   1.686   5.384 -0.3660  0.5276 -0.4286
  878MOL0     H18472   4.099   1.577   5.251  0.0691 -0.5840  0.5295
  878MOL0     H18473   4.157   1.790   5.132 -0.4126  0.7629 -1.1368
  878MOL0     H18474   4.094   1.892   5.261  2.9770  1.2331  1.6762
  878MOL0     H18475   4.268   1.833   5.410 -1.2756 -1.3198  0.6508
  878MOL0     H18476   4.290   1.668   5.335  0.2410 -0.4680 -2.5195
  878MOL0     H18477   4.485   1.836   5.325 -0.6886 -0.4176 -0.5185
  878MOL0     H18478   4.380   1.943   5.227 -0.7011  0.3773  0.7402
  878MOL0     H18479   4.457   1.664   5.126 -0.7614 -0.0876 -0.7835
  878MOL0     H18480   4.400   1.805   5.043 -1.5287  3.3790  2.0031
  878MOL0     H18481   4.742   1.668   5.148 -0.6924 -1.5132 -3.2192
  878MOL0     H18482   4.995   1.980   5.099  3.1073 -0.5538  2.7677
  878MOL0     H18483   4.993   1.851   5.214 -0.4504  0.2613  0.1563
  878MOL0     H18484   4.982   1.692   5.022  2.7748 -1.1512 -0.5675
  878MOL0     H18485   5.006   1.824   4.910  0.7938  1.3451 -0.0519
  878MOL0     H18486   5.214   1.701   4.972 -2.0664  1.8254 -1.3982
  878MOL0     H18487   5.197   1.727   5.144  1.7136 -0.2665 -0.4793
  878MOL0     H18488   5.201   1.988   5.074  0.4107 -0.0357 -0.1878
  878MOL0     H18489   5.256   1.931   4.921 -1.8395  0.9964 -0.2050
  878MOL0     H18490   5.620   1.849   5.202 -1.7780 -0.4618  0.1557
  878MOL0     H18491   5.804   1.740   5.111  0.1965 -2.9837  0.0700
  878MOL0     H18492   6.049   1.766   4.684 -1.8105  0.0869 -3.3512
  878MOL0     H18493   6.287   1.696   4.646 -1.5838  2.0160  0.4533
  878MOL0     H18494   6.431   1.540   4.444  0.2327  0.6180  0.2650
  878MOL0     H18495   6.502   1.540   4.612 -0.7348 -1.3625  1.5141
  878MOL0     H18496   6.560   1.304   4.559 -0.3465  1.0126  1.6205
  878MOL0     H18497   6.501   1.344   4.389  1.0869  0.2513 -0.0808
  878MOL0     H18498   6.663   1.511   4.357  1.2751  1.8472  1.4232
  878MOL0     H18499   6.703   1.509   4.533 -1.4858  1.1727 -0.0238
  878MOL0     H18500   6.761   1.295   4.343  0.1404 -1.1296  0.5480
  878MOL0     H18501   6.796   1.295   4.523  1.8684 -0.1345 -0.9679
  878MOL0     H18502   6.977   1.456   4.487 -0.5832  3.6418 -0.4381
  878MOL0     H18503   6.906   1.533   4.347  1.0438 -0.1546 -0.5422
  878MOL0     H18504   7.013   1.245   4.361  1.8235  0.6798  1.8079
  878MOL0     H18505   6.980   1.351   4.219 -3.9733  0.2505  1.0745
  878MOL0     H18506   7.196   1.399   4.433  2.4827 -0.8029 -1.5657
  878MOL0     H18507   7.171   1.495   4.281 -1.1514  0.5070 -0.3405
  878MOL0     H18508   7.281   1.211   4.337  1.3347  0.1115 -0.6221
  878MOL0     H18509   7.235   1.251   4.172  0.0490 -0.1654  0.4922
  878MOL0     H18510   6.148   1.292   4.601  0.3545  0.6801 -2.2835
  878MOL0     H18511   5.918   1.371   4.640 -0.4691  1.3384 -2.3699
  878MOL0     H18512   5.615   1.719   4.725 -3.6382  0.6211 -1.0162
  878MOL0     H18513   5.409   1.802   4.837  1.5582 -0.6007 -1.7333
  878MOL0     H18514   3.706   1.442   5.605 -1.5556 -0.9111  0.7357
  878MOL0     H18515   3.595   1.428   5.818 -2.5987 -0.1820  0.5286
  878MOL0     H18516   3.164   1.690   5.946  2.4983  0.6007 -0.6043
  878MOL0     H18517   2.983   1.693   6.086  0.4868  0.1410 -1.7406
  878MOL0     H18518   3.015   1.467   6.429 -1.3164 -1.1491  1.6277
  878MOL0     H18519   2.899   1.491   6.292 -1.3976  0.6336  1.4603
  878MOL0     H18520   2.836   1.584   6.584  1.4940 -0.7098  0.8561
  878MOL0     H18521   2.785   1.440   6.511  1.4522  1.7458  3.9990
  878MOL0     H18522   2.664   1.562   6.334  0.8687 -1.5479  0.4052
  878MOL0     H18523   2.714   1.713   6.415 -0.6792  0.0729 -0.8035
  878MOL0     H18524   2.549   1.495   6.548  0.5463  0.6872 -1.8137
  878MOL0     H18525   2.618   1.638   6.629 -0.1791 -0.4522  0.6356
  878MOL0     H18526   2.297   1.803   6.420  0.5135 -1.0551 -0.2883
  878MOL0     H18527   3.249   1.641   6.424 -0.4313  0.6796  0.8552
  878MOL0     H18528   3.505   1.780   6.301 -0.7675  0.6558  0.9886
  878MOL0     H18529   3.477   1.641   6.409  0.5105 -0.8335 -0.3648
  878MOL0     H18530   3.547   1.615   6.246 -3.1439  0.6484 -3.8723
  879MOL0     O18531   4.821   1.249   0.494 -0.2132 -0.5509 -0.1603
  879MOL0     C18532   4.841   1.359   0.545 -0.8992  0.1035 -0.1367
  879MOL0     O18533   4.965   1.415   0.560 -0.1730 -0.0490 -0.4820
  879MOL0     C18534   5.077   1.353   0.512  0.4411 -0.3091  0.4320
  879MOL0     C18535   5.101   1.342   0.373 -0.0154 -0.3046  0.4073
  879MOL0     C18536   5.213   1.271   0.325  0.8642  0.9829 -0.6458
  879MOL0     C18537   5.317   1.238   0.410 -0.9104  0.2378 -0.2153
  879MOL0     O18538   5.430   1.174   0.378  0.8616  0.2149 -0.5355
  879MOL0     C18539   5.544   1.206   0.459  0.1953 -0.1143 -0.2441
  879MOL0     C18540   5.666   1.168   0.373  0.1740  0.4345  0.5542
  879MOL0     C18541   5.790   1.183   0.456  0.1394 -0.4448  0.5022
  879MOL0     C18542   5.892   1.224   0.355  0.4765  0.2379 -0.1709
  879MOL0     C18543   6.025   1.249   0.433  0.7729 -0.9958  0.4265
  879MOL0     C18544   6.134   1.282   0.338  0.0442 -0.4540 -0.1299
  879MOL0     C18545   6.132   1.437   0.292  0.5638  0.2933  0.0514
  879MOL0     C18546   6.249   1.448   0.196 -0.3610 -0.7031 -0.1655
  879MOL0     N18547   6.380   1.423   0.241  0.2660  0.8548 -0.7543
  879MOL0     C18548   6.458   1.309   0.213  0.1027 -0.4371  0.3465
  879MOL0     C18549   6.583   1.328   0.270 -0.4444  0.1910  0.2108
  879MOL0     C18550   6.692   1.233   0.265 -1.4655  0.0967  0.0240
  879MOL0     C18551   6.760   1.222   0.121  0.0571  0.5513  0.1877
  879MOL0     C18552   6.870   1.105   0.126 -1.0761  0.4084  0.1873
  879MOL0     C18553   7.007   1.171   0.139  0.4117  0.6884 -0.3619
  879MOL0     O18554   7.106   1.066   0.142 -0.3217 -0.3043  0.2631
  879MOL0     C18555   7.236   1.091   0.113  0.7374 -0.4110  0.3931
  879MOL0     C18556   7.284   1.219   0.081 -0.3426  0.5875 -1.0763
  879MOL0     C18557   7.419   1.241   0.071 -0.7294 -0.3137  0.4316
  879MOL0     C18558   7.517   1.136   0.069  0.4804 -0.1931 -0.2836
  879MOL0     C18559   7.651   1.164   0.013 -0.0490  0.3299 -0.3118
  879MOL0     O18560   7.682   1.295  -0.027  0.4191 -0.0840 -0.2485
  879MOL0     C18561   7.799   1.310  -0.098  0.4186 -0.2609 -0.0097
  879MOL0     C18562   7.928   1.289  -0.041  1.3664 -0.2308  0.3611
  879MOL0     C18563   8.042   1.306  -0.117 -0.2305  0.5429  0.1264
  879MOL0     C18564   8.032   1.338  -0.256 -0.9267 -0.9387 -0.1162
  879MOL0     O18565   8.151   1.351  -0.321  0.1957 -0.4521  0.2716
  879MOL0     C18566   8.152   1.332  -0.461 -0.4607 -1.0751  0.8395
  879MOL0     C18567   8.269   1.390  -0.541 -0.7617  0.1258 -0.4227
  879MOL0     C18568   8.397   1.321  -0.506 -0.4002 -0.5221  0.1224
  879MOL0     C18569   8.517   1.414  -0.547 -0.8607  0.5612  0.0840
  879MOL0     C18570   8.657   1.355  -0.521 -0.1463  0.7693  0.0908
  879MOL0     C18571   8.764   1.431  -0.575  0.9167 -0.6014  0.9905
  879MOL0     C18572   8.899   1.381  -0.512 -0.0647  0.1748 -0.1279
  879MOL0     C18573   8.938   1.246  -0.572 -0.0947 -0.1218  0.0033
  879MOL0    Cl18574   8.940   1.260  -0.745 -0.3665 -0.4839  0.3308
  879MOL0     C18575   7.905   1.367  -0.312  0.9741  0.1210 -0.3949
  879MOL0     C18576   7.791   1.346  -0.237  0.5592 -0.0841 -0.4187
  879MOL0     O18577   7.721   1.070   0.003 -0.0641 -0.1722 -0.0784
  879MOL0     C18578   7.466   1.009   0.107  0.4711  0.0100  0.1307
  879MOL0     C18579   7.327   0.991   0.123  0.0256 -0.6452  0.5750
  879MOL0     N18580   6.585   1.461   0.314  0.2094 -0.1801  0.7162
  879MOL0     N18581   6.465   1.511   0.309 -0.0478 -0.1635  0.7266
  879MOL0     C18582   5.298   1.256   0.556  0.0539 -0.7439  0.4246
  879MOL0     C18583   5.175   1.317   0.598 -0.6448 -0.9266 -0.3078
  879MOL0     C18584   4.732   1.428   0.615 -0.3062 -0.0584 -0.2093
  879MOL0     C18585   4.765   1.500   0.725 -0.0604  0.4091 -0.1994
  879MOL0     C18586   4.672   1.581   0.791  0.3647  0.1748  0.3892
  879MOL0     C18587   4.538   1.584   0.756  0.6218 -0.2009  1.0931
  879MOL0     O18588   4.458   1.664   0.828 -0.5480  0.9992  0.3186
  879MOL0     C18589   4.340   1.721   0.776  1.0600 -0.4584  0.4244
  879MOL0     C18590   4.373   1.839   0.676 -0.0829  0.0982 -0.0780
  879MOL0     C18591   4.442   1.961   0.741  0.4517  0.3678 -0.5939
  879MOL0     C18592   4.591   1.959   0.724  0.0847 -0.5403 -0.0456
  879MOL0     C18593   4.647   2.087   0.777  0.7937  0.1175  0.2519
  879MOL0     C18594   4.693   2.193   0.813 -0.2192  0.9314 -0.0000
  879MOL0     C18595   4.501   1.505   0.644  0.1603  0.0424 -0.1483
  879MOL0     C18596   4.599   1.421   0.578  0.4461  0.6185  0.1665
  879MOL0     C18597   4.546   1.342   0.462  0.1846 -0.2057  0.8741
  879MOL0     H18598   5.019   1.360   0.304 -1.5062  1.7347  2.5522
  879MOL0     H18599   5.224   1.234   0.224 -0.7163 -1.3596 -0.0477
  879MOL0     H18600   5.547   1.306   0.504 -2.7402 -0.8545  1.8953
  879MOL0     H18601   5.556   1.138   0.543 -0.6197  0.2594  0.1824
  879MOL0     H18602   5.655   1.224   0.280  2.7562  1.8340  0.9798
  879MOL0     H18603   5.674   1.063   0.344  1.1627  0.8198 -0.6906
  879MOL0     H18604   5.813   1.088   0.504  0.8016 -1.9099 -2.4564
  879MOL0     H18605   5.774   1.262   0.530 -1.4846  1.4824 -1.7578
  879MOL0     H18606   5.912   1.145   0.281 -2.1687 -0.4506 -0.2535
  879MOL0     H18607   5.857   1.312   0.301 -2.4906 -1.0255 -0.5576
  879MOL0     H18608   6.027   1.334   0.501 -0.1242  0.4250 -1.2265
  879MOL0     H18609   6.048   1.158   0.489 -1.4376 -1.9966 -0.1559
  879MOL0     H18610   6.228   1.255   0.387  0.1547  1.0922  0.5939
  879MOL0     H18611   6.123   1.231   0.242  0.6336  1.4910 -1.3074
  879MOL0     H18612   6.153   1.496   0.382 -1.8871  0.9117  0.2980
  879MOL0     H18613   6.040   1.466   0.239  0.4498  0.1071  0.1453
  879MOL0     H18614   6.231   1.386   0.108  0.4935 -1.6232  0.2952
  879MOL0     H18615   6.263   1.548   0.153 -1.1680  1.1139  3.4307
  879MOL0     H18616   6.424   1.223   0.157 -0.9992  1.3990 -1.9699
  879MOL0     H18617   6.778   1.263   0.325 -0.5276  0.8134 -1.6208
  879MOL0     H18618   6.654   1.140   0.309  0.3166 -2.5220 -3.5033
  879MOL0     H18619   6.687   1.191   0.045  1.0665  2.0035 -1.4630
  879MOL0     H18620   6.799   1.320   0.092  2.3173  1.8458  6.2104
  879MOL0     H18621   6.867   1.046   0.034 -0.1913 -1.0891  1.0676
  879MOL0     H18622   6.853   1.034   0.208  0.8559 -0.2031  0.1134
  879MOL0     H18623   7.017   1.234   0.228  2.2025  0.2282 -0.1819
  879MOL0     H18624   7.032   1.232   0.052 -2.0487  0.9582 -0.9449
  879MOL0     H18625   7.221   1.308   0.085  0.2234  0.9602 -0.1748
  879MOL0     H18626   7.436   1.345   0.044  0.0038 -0.9797 -1.9826
  879MOL0     H18627   7.931   1.261   0.064  1.4815 -1.7965 -0.0359
  879MOL0     H18628   8.139   1.281  -0.076 -0.2510  0.8061  0.3311
  879MOL0     H18629   8.142   1.224  -0.474  1.2465 -0.9427 -2.7049
  879MOL0     H18630   8.063   1.380  -0.502  0.3456 -1.8419 -1.9783
  879MOL0     H18631   8.253   1.377  -0.649 -0.8222  1.2337 -0.5531
  879MOL0     H18632   8.283   1.495  -0.516 -2.2216 -0.2073  2.2210
  879MOL0     H18633   8.397   1.317  -0.397 -2.4700  0.7683  0.2173
  879MOL0     H18634   8.403   1.223  -0.553  0.4650  1.1370 -3.5883
  879MOL0     H18635   8.513   1.516  -0.509 -0.1731  0.8466 -0.5802
  879MOL0     H18636   8.527   1.416  -0.656  1.9300 -0.8872  0.2115
  879MOL0     H18637   8.665   1.261  -0.577  0.7584  0.1716  1.1543
  879MOL0     H18638   8.661   1.356  -0.411 -1.9263  2.3088  0.1852
  879MOL0     H18639   8.757   1.445  -0.684 -1.5446  1.7790  1.3427
  879MOL0     H18640   8.746   1.531  -0.535 -1.3109 -1.6300  2.7793
  879MOL0     H18641   8.877   1.373  -0.406  1.7934 -2.4338  0.1383
  879MOL0     H18642   8.980   1.451  -0.536 -0.7522  0.7465 -0.8532
  879MOL0     H18643   9.034   1.208  -0.539  0.5154  1.4584  0.1463
  879MOL0     H18644   8.860   1.175  -0.543  0.4154 -0.4566  0.5655
  879MOL0     H18645   7.888   1.422  -0.403  0.2957  1.2247  0.3694
  879MOL0     H18646   7.693   1.356  -0.281  1.3678  1.8136 -1.9058
  879MOL0     H18647   7.535   0.927   0.124  2.5468  1.0103 -2.6559
  879MOL0     H18648   7.291   0.891   0.143  1.7832 -1.5032 -0.3567
  879MOL0     H18649   5.373   1.235   0.631  0.7683 -1.0630 -0.3677
  879MOL0     H18650   5.161   1.349   0.700  2.8226  0.6421 -0.1832
  879MOL0     H18651   4.868   1.490   0.757 -0.7348 -0.2694  1.9155
  879MOL0     H18652   4.695   1.641   0.879  0.7494 -0.6663  0.8722
  879MOL0     H18653   4.273   1.750   0.858  0.0674 -4.1314  1.0928
  879MOL0     H18654   4.279   1.654   0.715 -0.5156  1.4230 -0.1538
  879MOL0     H18655   4.280   1.874   0.631  0.6844  1.6946 -0.5135
  879MOL0     H18656   4.437   1.803   0.594 -0.9618 -0.6060 -0.4814
  879MOL0     H18657   4.408   1.976   0.844  0.1534  0.0117 -0.6363
  879MOL0     H18658   4.407   2.053   0.694 -2.4611 -0.6798 -0.6731
  879MOL0     H18659   4.613   1.874   0.789 -1.5519  0.8452  2.5051
  879MOL0     H18660   4.628   1.951   0.621 -0.4549 -0.3953 -0.2544
  879MOL0     H18661   4.731   2.283   0.858 -2.0897  0.9236  1.7469
  879MOL0     H18662   4.400   1.502   0.606 -0.8238  1.9852  2.0648
  879MOL0     H18663   4.562   1.236   0.486  1.2365 -0.7226 -1.7496
  879MOL0     H18664   4.443   1.372   0.443 -0.1054  0.7088  3.5115
  879MOL0     H18665   4.609   1.358   0.374  1.2285 -0.0512  1.6271
  880MOL0     O18666  10.527  10.312   9.685 -0.2949 -0.3003  0.4503
  880MOL0     C18667  10.505  10.246   9.582 -0.2610 -0.5325  0.0212
  880MOL0     O18668  10.486  10.313   9.463 -0.4421 -0.4279  0.2076
  880MOL0     C18669  10.511  10.447   9.460  0.7387  0.0515 -0.1522
  880MOL0     C18670  10.636  10.489   9.496 -0.6820 -0.3950 -1.1737
  880MOL0     C18671  10.678  10.624   9.468  0.6259  0.8171 -0.8262
  880MOL0     C18672  10.598  10.706   9.387  0.0620 -0.7952 -0.9228
  880MOL0     O18673  10.645  10.819   9.333 -0.2201 -0.6680  0.0206
  880MOL0     C18674  10.553  10.919   9.293 -0.3537 -0.9352  0.4146
  880MOL0     C18675  10.613  11.061   9.295  0.2768  1.0716 -0.4041
  880MOL0     C18676  10.654  11.085   9.438  0.4344 -1.0271 -0.2295
  880MOL0     C18677  10.667  11.238   9.463  0.0692  0.3163 -1.1852
  880MOL0     C18678  10.708  11.288   9.599  0.2206 -0.3819  0.4839
  880MOL0     C18679  10.627  11.243   9.718  0.2212 -0.7032 -0.2151
  880MOL0     C18680  10.478  11.283   9.711 -0.2188  0.2524 -0.5164
  880MOL0     C18681  10.446  11.407   9.791 -0.4268  0.9774 -0.5213
  880MOL0     N18682  10.489  11.407   9.930  0.0902  0.4736 -0.7668
  880MOL0     C18683  10.494  11.298  10.022  0.5731 -0.0337 -0.8095
  880MOL0     C18684  10.561  11.336  10.130  0.2751 -0.2515 -0.4533
  880MOL0     C18685  10.623  11.243  10.235  0.5723  0.1372 -1.1057
  880MOL0     C18686  10.744  11.174  10.173 -0.3635 -0.4007 -0.1664
  880MOL0     C18687  10.827  11.096  10.274 -1.0439  0.1663  0.4525
  880MOL0     C18688  10.948  11.029  10.196  0.4676 -0.1915 -0.2502
  880MOL0     O18689  11.071  11.085  10.214  0.1434 -0.6151  0.6559
  880MOL0     C18690  11.178  11.032  10.151 -0.3470 -0.2193  0.2125
  880MOL0     C18691  11.181  10.903  10.100 -0.6337  0.1175 -1.2565
  880MOL0     C18692  11.302  10.849  10.052  0.0438 -0.6221  0.7012
  880MOL0     C18693  11.420  10.933  10.052 -0.1079  0.0316  1.0297
  880MOL0     C18694  11.548  10.877   9.989 -0.4455  0.0268 -0.1574
  880MOL0     O18695  11.665  10.956   9.986  0.3933  0.0341  0.1129
  880MOL0     C18696  11.783  10.901   9.933  0.7547 -0.3091  0.0185
  880MOL0     C18697  11.888  10.896  10.019 -0.5423 -0.3370 -0.1938
  880MOL0     C18698  12.008  10.841   9.987  0.1212 -0.4208  0.1436
  880MOL0     C18699  12.021  10.804   9.853  0.5341  0.5124 -0.3548
  880MOL0     O18700  12.143  10.742   9.812 -0.3188  0.0631 -0.3434
  880MOL0     C18701  12.142  10.597   9.866 -0.0319  0.4843 -0.6873
  880MOL0     C18702  12.273  10.522   9.859 -0.2806 -0.8684 -0.4157
  880MOL0     C18703  12.387  10.586   9.947 -0.4016 -0.1446 -0.5810
  880MOL0     C18704  12.378  10.546  10.094  0.1726  0.6372 -0.3300
  880MOL0     C18705  12.483  10.600  10.196  0.6241 -0.5200  0.9689
  880MOL0     C18706  12.628  10.580  10.161 -0.1189  0.9940  0.4038
  880MOL0     C18707  12.671  10.435  10.143 -0.3992  0.8045 -0.0399
  880MOL0     C18708  12.819  10.438  10.097  0.2240  0.1576 -0.2272
  880MOL0    Cl18709  12.868  10.272  10.109 -0.0408  0.5551  0.0131
  880MOL0     C18710  11.915  10.822   9.757 -0.7627  0.1249  0.8145
  880MOL0     C18711  11.800  10.882   9.799  0.1302  0.9055 -0.0138
  880MOL0     O18712  11.546  10.765   9.950 -0.2438  0.2678 -0.2804
  880MOL0     C18713  11.415  11.064  10.107  0.1349  0.4231  0.0226
  880MOL0     C18714  11.297  11.116  10.159 -0.2032  0.5744 -0.1711
  880MOL0     N18715  10.576  11.474  10.119  0.0192 -0.0133  0.2949
  880MOL0     N18716  10.536  11.513  10.000 -0.1503 -0.4486 -0.5791
  880MOL0     C18717  10.479  10.656   9.346  0.7073  0.7209 -0.1318
  880MOL0     C18718  10.435  10.527   9.380 -0.4472  0.3130  0.1220
  880MOL0     C18719  10.498  10.096   9.584 -0.5148 -0.6028  0.1800
  880MOL0     C18720  10.444  10.042   9.462  0.2101  0.3641  0.0225
  880MOL0     C18721  10.415   9.903   9.451 -0.6308  0.4279  1.1812
  880MOL0     C18722  10.434   9.818   9.560  0.0156 -0.5007 -0.5799
  880MOL0     O18723  10.390   9.684   9.568 -0.3905  0.5211  0.8127
  880MOL0     C18724  10.389   9.598   9.448  0.2827  0.2800  0.5952
  880MOL0     C18725  10.350   9.459   9.502 -0.0651  0.7595  0.5243
  880MOL0     C18726  10.345   9.346   9.388  0.4616 -0.4281  0.7906
  880MOL0     C18727  10.256   9.235   9.428 -0.4907  0.5682 -0.0125
  880MOL0     C18728  10.324   9.146   9.527  0.4413 -0.8453 -0.1107
  880MOL0     C18729  10.375   9.072   9.608 -0.1195 -0.2614 -0.2354
  880MOL0     C18730  10.478   9.875   9.680  0.0087 -0.0304  0.1989
  880MOL0     C18731  10.519  10.010   9.689  0.7956 -1.1868  0.2491
  880MOL0     C18732  10.551  10.056   9.826 -0.0675 -0.6236  0.0708
  880MOL0     H18733  10.705  10.427   9.553 -3.7299 -1.5281  1.5613
  880MOL0     H18734  10.772  10.663   9.504  1.4811  0.1392 -2.2682
  880MOL0     H18735  10.543  10.885   9.189  4.3582  0.4231 -0.7494
  880MOL0     H18736  10.459  10.934   9.347  0.5972  2.1956  1.4293
  880MOL0     H18737  10.546  11.134   9.249  2.4890  2.7476 -1.1539
  880MOL0     H18738  10.700  11.058   9.229 -0.7910 -0.8525 -1.8634
  880MOL0     H18739  10.745  11.032   9.466 -0.9015 -2.8369  0.9290
  880MOL0     H18740  10.573  11.050   9.504  0.6330 -4.6699 -1.6947
  880MOL0     H18741  10.732  11.281   9.386  0.2054  0.3340 -1.0630
  880MOL0     H18742  10.571  11.288   9.448  0.9928  2.6378  0.0328
  880MOL0     H18743  10.814  11.261   9.608  0.0996 -0.9423  0.2962
  880MOL0     H18744  10.707  11.397   9.589 -0.5784 -0.3781  0.5344
  880MOL0     H18745  10.636  11.137   9.741 -0.9861 -0.8968 -0.6061
  880MOL0     H18746  10.669  11.292   9.807 -0.2431  1.5174 -1.1382
  880MOL0     H18747  10.415  11.199   9.743 -1.5114  0.9836 -1.0521
  880MOL0     H18748  10.442  11.305   9.610 -1.3307  1.7357  0.1713
  880MOL0     H18749  10.496  11.489   9.738 -0.6564  0.0801 -2.1591
  880MOL0     H18750  10.340  11.432   9.802 -0.5003  0.7167 -0.6374
  880MOL0     H18751  10.462  11.195  10.005 -1.8298  0.1545  1.8832
  880MOL0     H18752  10.665  11.304  10.316 -0.8336 -0.8304  0.3965
  880MOL0     H18753  10.555  11.170  10.278  1.1400  1.8122  3.2162
  880MOL0     H18754  10.715  11.107  10.091  1.4674 -2.1338  0.5273
  880MOL0     H18755  10.806  11.253  10.130  0.5477 -0.0780  1.6280
  880MOL0     H18756  10.762  11.028  10.330  0.5432 -0.1997  1.9305
  880MOL0     H18757  10.870  11.165  10.347 -2.8415 -0.1405  1.8680
  880MOL0     H18758  10.926  11.036  10.090 -1.7701 -0.7250  0.1219
  880MOL0     H18759  10.958  10.929  10.240 -1.9924 -0.6018 -0.4719
  880MOL0     H18760  11.091  10.843  10.108 -1.6460  1.8097  2.2521
  880MOL0     H18761  11.309  10.755   9.998  1.9293  0.9285 -2.0508
  880MOL0     H18762  11.876  10.922  10.124  1.1214 -1.0844  0.2121
  880MOL0     H18763  12.091  10.833  10.056  1.3216  4.3521 -0.3558
  880MOL0     H18764  12.110  10.600   9.971  0.5231 -1.1545 -0.4389
  880MOL0     H18765  12.071  10.547   9.800  1.1831  0.0763 -1.7371
  880MOL0     H18766  12.249  10.424   9.902 -0.9438  0.3313  2.1804
  880MOL0     H18767  12.309  10.521   9.756  1.1670 -0.0938  0.0523
  880MOL0     H18768  12.484  10.544   9.918  0.0410  0.8921 -0.6441
  880MOL0     H18769  12.384  10.695   9.940 -0.0920 -0.1706 -1.1912
  880MOL0     H18770  12.379  10.437  10.107  0.5533  0.8038  1.2327
  880MOL0     H18771  12.280  10.574  10.133  0.7515  3.4108 -0.7158
  880MOL0     H18772  12.466  10.562  10.297 -0.2014 -0.3950  0.8886
  880MOL0     H18773  12.464  10.707  10.209 -0.3577 -0.0182 -3.2625
  880MOL0     H18774  12.650  10.626  10.065  0.4024  1.3871  0.7056
  880MOL0     H18775  12.687  10.638  10.234  1.4548  2.1818 -1.6959
  880MOL0     H18776  12.615  10.376  10.070  1.0002 -0.7019  0.0277
  880MOL0     H18777  12.656  10.393  10.243  0.0244  1.2146  0.2002
  880MOL0     H18778  12.829  10.462   9.991  1.1118 -0.4676 -0.2969
  880MOL0     H18779  12.876  10.508  10.159 -0.2626  3.1068 -2.8703
  880MOL0     H18780  11.943  10.781   9.661  0.4495 -0.5044  1.4159
  880MOL0     H18781  11.721  10.903   9.728  0.8084  0.9313 -0.7836
  880MOL0     H18782  11.507  11.120  10.123  0.3012  0.3156 -0.5312
  880MOL0     H18783  11.314  11.217  10.195 -0.1635  1.0603 -1.4960
  880MOL0     H18784  10.422  10.709   9.270  2.5349  2.7846 -0.1635
  880MOL0     H18785  10.344  10.495   9.329  0.4393  1.9472 -2.6693
  880MOL0     H18786  10.420  10.100   9.373 -0.3135 -0.9169 -0.7007
  880MOL0     H18787  10.359   9.876   9.362 -2.0603  0.8849  1.9019
  880MOL0     H18788  10.485   9.593   9.398 -0.0043  0.7410 -0.0223
  880MOL0     H18789  10.313   9.640   9.381  1.2075  0.5580 -0.3028
  880MOL0     H18790  10.248   9.464   9.542 -0.9276  0.7404 -1.5308
  880MOL0     H18791  10.414   9.419   9.581  1.5166 -0.7962 -1.4440
  880MOL0     H18792  10.442   9.311   9.352 -1.3494 -0.4256 -5.0976
  880MOL0     H18793  10.293   9.383   9.299  0.7572 -0.6467  0.5287
  880MOL0     H18794  10.163   9.274   9.471 -0.0639  1.5421  0.0554
  880MOL0     H18795  10.243   9.178   9.336 -3.2372  0.6587  0.2274
  880MOL0     H18796  10.416   8.992   9.665  1.2525 -0.8157 -1.8984
  880MOL0     H18797  10.508   9.810   9.761  4.0330  3.0516  1.5541
  880MOL0     H18798  10.643  10.115   9.817 -0.5181 -0.1050 -1.4626
  880MOL0     H18799  10.473  10.126   9.860 -0.0615 -0.9133  0.6871
  880MOL0     H18800  10.576   9.969   9.887  1.9986  0.8247  1.4277
  881MOL0     O18801   5.174   6.872   8.088 -0.2130 -0.6855 -0.0298
  881MOL0     C18802   5.139   6.930   8.187  0.0286  0.3649  0.3896
  881MOL0     O18803   5.216   7.016   8.248  0.3012 -0.1539 -0.6903
  881MOL0     C18804   5.342   7.042   8.208  0.4152 -0.1449  0.2201
  881MOL0     C18805   5.378   7.155   8.141  0.3347  0.8461  0.7499
  881MOL0     C18806   5.516   7.183   8.116  0.1746  0.6246  0.0825
  881MOL0     C18807   5.614   7.096   8.162 -0.0269  0.1687 -0.1268
  881MOL0     O18808   5.743   7.138   8.131  0.6472 -0.5945 -0.2906
  881MOL0     C18809   5.849   7.054   8.154  0.2671  0.2385 -0.4165
  881MOL0     C18810   5.970   7.143   8.179 -0.1535 -0.0055  1.0042
  881MOL0     C18811   6.089   7.051   8.164 -0.0412 -1.2219  0.0474
  881MOL0     C18812   6.220   7.133   8.171  1.1323 -0.4029 -0.0141
  881MOL0     C18813   6.351   7.053   8.145  0.0491 -0.5341  0.6072
  881MOL0     C18814   6.381   6.948   8.252  0.3258 -0.1950 -0.7265
  881MOL0     C18815   6.506   6.875   8.230  0.2445 -0.4227  0.3593
  881MOL0     C18816   6.622   6.955   8.289 -0.5102 -0.0790 -0.2809
  881MOL0     N18817   6.754   6.893   8.249  1.1169 -0.7890 -0.7828
  881MOL0     C18818   6.804   6.910   8.122 -0.4524 -0.9989  0.0027
  881MOL0     C18819   6.935   6.881   8.135 -0.8391 -0.4705  0.7968
  881MOL0     C18820   7.046   6.895   8.038 -0.0350 -0.2802  0.6018
  881MOL0     C18821   7.147   6.786   8.024  0.0214 -0.0261 -0.4622
  881MOL0     C18822   7.278   6.846   7.979 -0.0967 -0.6479  0.0587
  881MOL0     C18823   7.399   6.747   7.999  0.4227 -0.7163 -0.1760
  881MOL0     O18824   7.486   6.763   7.885 -0.4779 -0.5714  0.4415
  881MOL0     C18825   7.608   6.717   7.915 -0.0839  0.1884 -0.0854
  881MOL0     C18826   7.661   6.620   7.836 -0.5942 -0.1269  0.6552
  881MOL0     C18827   7.791   6.582   7.847  0.2222 -0.5181  0.6426
  881MOL0     C18828   7.880   6.639   7.937 -0.5752  0.8997 -0.4790
  881MOL0     C18829   8.020   6.591   7.947  0.1491  0.8649 -0.0935
  881MOL0     O18830   8.053   6.470   7.884  0.0308  0.4836  0.2879
  881MOL0     C18831   8.193   6.443   7.899  0.2748 -0.4555 -0.4893
  881MOL0     C18832   8.274   6.447   7.785  1.3128 -0.4071 -0.6883
  881MOL0     C18833   8.399   6.392   7.779  0.4582 -0.3677 -0.3974
  881MOL0     C18834   8.459   6.327   7.887  0.0524  0.3504 -0.2933
  881MOL0     O18835   8.578   6.263   7.876  0.1248 -0.6897  0.0307
  881MOL0     C18836   8.683   6.281   7.976  0.6170 -0.2146  0.6896
  881MOL0     C18837   8.746   6.148   8.004 -0.0345  0.6815 -0.5880
  881MOL0     C18838   8.895   6.169   8.032  0.8746 -0.7495 -0.7797
  881MOL0     C18839   8.970   6.043   8.094 -0.2011  0.6593  0.4461
  881MOL0     C18840   9.117   6.067   8.106 -0.4007  0.6723 -0.6794
  881MOL0     C18841   9.193   6.042   7.973  0.9926  0.9781 -0.4503
  881MOL0     C18842   9.338   6.063   8.005 -0.0393 -0.7713  0.6043
  881MOL0     C18843   9.423   6.035   7.886 -0.1558 -0.9442  0.2371
  881MOL0    Cl18844   9.410   6.182   7.771 -0.3063 -0.3772  0.3550
  881MOL0     C18845   8.391   6.333   8.009  0.2970 -0.1442  0.3530
  881MOL0     C18846   8.258   6.395   8.016 -1.3717  0.7142 -0.2214
  881MOL0     O18847   8.107   6.669   7.997 -0.0731 -0.3342 -0.1071
  881MOL0     C18848   7.825   6.738   8.018 -0.2907 -0.5394 -0.4098
  881MOL0     C18849   7.692   6.777   8.007  0.0170 -0.0504  0.3626
  881MOL0     N18850   6.955   6.828   8.255 -0.5631  0.0798 -0.1974
  881MOL0     N18851   6.848   6.840   8.328  0.1093  0.2837  0.0628
  881MOL0     C18852   5.573   6.983   8.228  0.2968  0.7179  0.6425
  881MOL0     C18853   5.440   6.949   8.241 -0.9718 -0.3233  0.4289
  881MOL0     C18854   5.003   6.899   8.242  0.1192 -0.4792  0.7861
  881MOL0     C18855   4.910   6.838   8.156  0.6208 -0.1703 -0.6825
  881MOL0     C18856   4.780   6.809   8.198  0.3171  0.4478 -0.8445
  881MOL0     C18857   4.737   6.826   8.334  0.7708 -0.5876 -0.2808
  881MOL0     O18858   4.615   6.789   8.397  0.2403  0.2435  0.3517
  881MOL0     C18859   4.502   6.737   8.314 -0.0912  0.1803 -0.6885
  881MOL0     C18860   4.435   6.817   8.212  0.0402  0.4965  0.9840
  881MOL0     C18861   4.384   6.947   8.272  0.0573 -0.2607  0.0672
  881MOL0     C18862   4.326   7.051   8.182 -0.5604 -0.5264  0.2431
  881MOL0     C18863   4.429   7.094   8.089  0.4070  0.7777  0.2005
  881MOL0     C18864   4.524   7.132   8.022 -0.9767  1.2531  0.7644
  881MOL0     C18865   4.830   6.884   8.416 -0.6459 -0.8991 -0.6875
  881MOL0     C18866   4.967   6.923   8.379  0.5469 -0.3013 -0.1272
  881MOL0     C18867   5.054   6.971   8.489 -0.2410  0.1724  0.3042
  881MOL0     H18868   5.296   7.210   8.096 -0.8160  1.0792  2.9948
  881MOL0     H18869   5.543   7.274   8.063 -0.5286  0.1683 -1.0916
  881MOL0     H18870   5.838   6.991   8.242 -0.9036  2.2609  0.9846
  881MOL0     H18871   5.857   6.990   8.066 -1.7393  2.4130 -2.3365
  881MOL0     H18872   5.981   7.199   8.272  3.5446  0.8128  0.2434
  881MOL0     H18873   5.975   7.223   8.106  3.4130 -1.2118 -0.3279
  881MOL0     H18874   6.090   7.005   8.065  1.7881 -5.5452  1.8188
  881MOL0     H18875   6.089   6.980   8.247  0.5040  1.5857  2.5873
  881MOL0     H18876   6.199   7.202   8.089  3.0642  0.0375 -0.1745
  881MOL0     H18877   6.220   7.180   8.270  2.8705 -0.5233  0.0752
  881MOL0     H18878   6.338   7.001   8.050 -0.1631 -1.4292  1.1150
  881MOL0     H18879   6.428   7.128   8.127 -0.9020  0.9485  2.3015
  881MOL0     H18880   6.393   7.005   8.345 -0.0207  0.8229 -1.2774
  881MOL0     H18881   6.299   6.876   8.262 -0.5576  0.8402 -0.1060
  881MOL0     H18882   6.506   6.850   8.124 -0.6454 -0.3243  0.3217
  881MOL0     H18883   6.499   6.781   8.285  2.0974 -0.0263  1.3441
  881MOL0     H18884   6.635   7.057   8.251 -1.6228  0.2159  0.1137
  881MOL0     H18885   6.625   6.963   8.398  1.8392  2.0208 -0.4053
  881MOL0     H18886   6.764   6.961   8.035 -1.2187  3.4442  2.6171
  881MOL0     H18887   7.000   6.917   7.941 -1.5248  1.3573  1.6262
  881MOL0     H18888   7.095   6.991   8.057  0.1265 -0.2818  0.2060
  881MOL0     H18889   7.160   6.735   8.120 -1.4695 -0.9461 -0.7135
  881MOL0     H18890   7.122   6.708   7.951 -0.5115 -0.0212 -0.2842
  881MOL0     H18891   7.299   6.929   8.047  2.1872 -1.5672  0.5590
  881MOL0     H18892   7.284   6.880   7.875  0.1450 -1.7217 -0.3007
  881MOL0     H18893   7.371   6.641   7.994  1.1466 -0.9685  0.7710
  881MOL0     H18894   7.455   6.759   8.092  1.9700  2.9726 -1.4038
  881MOL0     H18895   7.601   6.568   7.762 -0.2818 -0.5529  0.6979
  881MOL0     H18896   7.817   6.498   7.784  1.5144 -0.1199  0.6193
  881MOL0     H18897   8.237   6.493   7.694 -1.4679 -0.3900  0.3493
  881MOL0     H18898   8.448   6.377   7.683  1.3801  3.9619 -0.8270
  881MOL0     H18899   8.756   6.348   7.931 -1.3919  0.2680 -2.1798
  881MOL0     H18900   8.645   6.327   8.068 -1.3042  2.3131 -1.2097
  881MOL0     H18901   8.704   6.090   8.088  2.1078  1.2795  0.9898
  881MOL0     H18902   8.738   6.079   7.920 -0.4081  0.7097 -0.5799
  881MOL0     H18903   8.952   6.204   7.946  0.6391  1.0911 -0.2268
  881MOL0     H18904   8.905   6.258   8.095 -1.9207  0.8433 -2.3960
  881MOL0     H18905   8.953   5.950   8.040 -0.7711  0.7048  0.5430
  881MOL0     H18906   8.925   6.027   8.193 -2.9711  1.7374 -0.5487
  881MOL0     H18907   9.154   5.999   8.183  0.0489 -0.6817 -2.0119
  881MOL0     H18908   9.130   6.168   8.144 -1.4839  0.4517  0.3464
  881MOL0     H18909   9.175   5.940   7.936  1.2306  0.1407  1.5792
  881MOL0     H18910   9.164   6.113   7.896  1.4818  1.2959 -0.3461
  881MOL0     H18911   9.375   6.000   8.087 -0.5167 -0.7642  0.8280
  881MOL0     H18912   9.348   6.168   8.036 -3.3678 -0.9786  2.8557
  881MOL0     H18913   9.518   6.001   7.927  0.2301 -2.2037 -1.5500
  881MOL0     H18914   9.402   5.941   7.833  2.0304 -1.2924 -0.0989
  881MOL0     H18915   8.434   6.283   8.095  0.9132 -0.6811 -0.2451
  881MOL0     H18916   8.204   6.406   8.109  1.7497  1.1271  1.6949
  881MOL0     H18917   7.890   6.762   8.100  1.3001 -1.6238 -1.3012
  881MOL0     H18918   7.648   6.853   8.071 -1.4674 -0.7412  0.2158
  881MOL0     H18919   5.650   6.919   8.270  1.8136  1.9730 -0.1107
  881MOL0     H18920   5.423   6.854   8.291 -0.5458 -1.3626 -1.3060
  881MOL0     H18921   4.929   6.818   8.051  0.2606  2.4181 -1.3232
  881MOL0     H18922   4.713   6.757   8.131  0.3978 -3.9855  2.0952
  881MOL0     H18923   4.431   6.703   8.389  0.0482  1.9837  0.3314
  881MOL0     H18924   4.537   6.652   8.255 -3.9301 -0.1619 -2.7580
  881MOL0     H18925   4.348   6.769   8.166  2.0354  0.2423 -2.9749
  881MOL0     H18926   4.498   6.834   8.124 -1.6325  0.5509 -0.2533
  881MOL0     H18927   4.458   6.993   8.339  0.8605  0.7804 -1.4737
  881MOL0     H18928   4.298   6.912   8.329 -0.4091  0.5034 -0.1649
  881MOL0     H18929   4.237   7.025   8.124  0.6482  0.3009 -2.1382
  881MOL0     H18930   4.317   7.135   8.251  0.8459 -1.5207  1.6981
  881MOL0     H18931   4.610   7.131   7.958  0.1505 -5.2218  1.6237
  881MOL0     H18932   4.798   6.887   8.520 -0.7715  0.9530 -0.7372
  881MOL0     H18933   4.990   6.996   8.574 -1.7280  0.4568 -0.8507
  881MOL0     H18934   5.118   6.894   8.532 -0.0500  1.1548  1.8684
  881MOL0     H18935   5.111   7.059   8.458 -1.2699  0.7075 -0.1233
  882MOL0     O18936   9.942   2.090   2.010  0.2539  0.5422 -0.4632
  882MOL0     C18937   9.871   2.010   2.073  0.1720  0.3313  0.0067
  882MOL0     O18938   9.818   2.034   2.191 -0.4472  0.7678 -0.1634
  882MOL0     C18939   9.829   2.164   2.239 -0.3805  0.5610  0.8763
  882MOL0     C18940   9.861   2.181   2.375  0.5204  0.4408  0.2049
  882MOL0     C18941   9.866   2.299   2.432  1.0728 -0.0268 -0.4080
  882MOL0     C18942   9.840   2.418   2.357  0.4282  0.3129 -0.0114
  882MOL0     O18943   9.833   2.533   2.423 -0.5277 -1.0431 -0.1873
  882MOL0     C18944   9.864   2.654   2.345  0.8792  0.2217 -0.5465
  882MOL0     C18945   9.884   2.773   2.436  0.4376 -0.0197  0.0264
  882MOL0     C18946   9.984   2.878   2.381  0.0379  0.1085 -0.0100
  882MOL0     C18947  10.114   2.869   2.448 -0.3231  0.0157 -0.5857
  882MOL0     C18948  10.223   2.957   2.373  1.1321  0.4509  0.1676
  882MOL0     C18949  10.366   2.935   2.425 -0.5940 -0.7992  0.1359
  882MOL0     C18950  10.384   2.965   2.581  0.8350  0.6233  0.6371
  882MOL0     C18951  10.530   2.935   2.610  0.9635  0.2059  0.4697
  882MOL0     N18952  10.577   2.963   2.747  0.3547 -0.7915 -0.3780
  882MOL0     C18953  10.524   3.060   2.832 -0.3514 -0.2390  0.8497
  882MOL0     C18954  10.571   3.029   2.956  0.4279 -0.6453 -0.7765
  882MOL0     C18955  10.554   3.112   3.080  0.7430 -0.2608 -0.0416
  882MOL0     C18956  10.683   3.155   3.145 -0.5131  0.0402 -0.5509
  882MOL0     C18957  10.720   3.296   3.115 -0.1358 -0.3798  0.6330
  882MOL0     C18958  10.867   3.318   3.159  0.5456 -0.0378 -0.7600
  882MOL0     O18959  10.914   3.451   3.123  0.2924 -0.2276  0.1734
  882MOL0     C18960  11.041   3.495   3.149  0.3832  0.1909 -0.1632
  882MOL0     C18961  11.141   3.409   3.202  0.4900  0.1073  0.2383
  882MOL0     C18962  11.273   3.453   3.211 -0.1629  0.3145  0.7107
  882MOL0     C18963  11.306   3.581   3.167 -0.4826 -0.8626  1.2422
  882MOL0     C18964  11.444   3.635   3.164  0.3790 -0.5555  0.2638
  882MOL0     O18965  11.454   3.775   3.144  0.3479 -0.0072 -0.8618
  882MOL0     C18966  11.577   3.842   3.138  0.7243  0.5020 -0.0381
  882MOL0     C18967  11.697   3.786   3.091  0.0820  0.4637 -0.7887
  882MOL0     C18968  11.814   3.865   3.090 -0.6213 -0.2066  0.8610
  882MOL0     C18969  11.819   3.990   3.148 -1.0988  0.6049 -0.3337
  882MOL0     O18970  11.931   4.073   3.154 -0.5638  0.1564 -0.0188
  882MOL0     C18971  12.059   4.017   3.107 -0.9436 -0.1980  0.0595
  882MOL0     C18972  12.177   4.105   3.131 -0.5257 -0.1950  0.1522
  882MOL0     C18973  12.206   4.134   3.283  0.3914  0.2360  0.5142
  882MOL0     C18974  12.275   4.022   3.343  0.9279  0.1802  0.4563
  882MOL0     C18975  12.311   4.043   3.492 -0.1725 -0.0661 -0.9098
  882MOL0     C18976  12.354   3.919   3.556 -0.8572 -0.3976 -0.2777
  882MOL0     C18977  12.500   3.890   3.503 -0.3581 -0.0244  0.0935
  882MOL0     C18978  12.513   3.747   3.487 -0.4432  0.9466  0.8035
  882MOL0    Cl18979  12.680   3.712   3.532  0.3869 -0.2497 -0.0503
  882MOL0     C18980  11.704   4.040   3.210  0.0413  0.1333  0.7144
  882MOL0     C18981  11.583   3.963   3.207 -0.4984  0.1575 -1.2036
  882MOL0     O18982  11.527   3.555   3.207  0.4613  0.4967 -0.3651
  882MOL0     C18983  11.209   3.670   3.128  1.2026  0.2201  0.2656
  882MOL0     C18984  11.076   3.618   3.111 -0.5276 -0.5549 -1.2270
  882MOL0     N18985  10.642   2.910   2.953 -0.2835 -1.0739 -0.1254
  882MOL0     N18986  10.637   2.868   2.824 -0.7890  0.3435 -0.3781
  882MOL0     C18987   9.800   2.405   2.223  0.4828 -0.9579  0.3299
  882MOL0     C18988   9.805   2.280   2.163  0.3849 -0.7334 -0.4634
  882MOL0     C18989   9.822   1.876   2.008 -0.3285  0.1279  0.5801
  882MOL0     C18990   9.729   1.794   2.083  0.2933 -0.5408  0.0956
  882MOL0     C18991   9.662   1.678   2.028 -0.0589 -0.7302  0.3961
  882MOL0     C18992   9.684   1.648   1.893  0.7053  0.5731  0.4613
  882MOL0     O18993   9.618   1.557   1.811  0.9952  0.0483  0.2662
  882MOL0     C18994   9.537   1.456   1.883  0.3750 -0.2315  0.2713
  882MOL0     C18995   9.523   1.321   1.822 -0.1946  0.1301  0.5507
  882MOL0     C18996   9.662   1.259   1.799 -0.1119  0.2068 -0.3081
  882MOL0     C18997   9.639   1.133   1.708  0.6697 -0.0074 -0.0086
  882MOL0     C18998   9.766   1.063   1.690 -0.4345  0.6933 -0.6407
  882MOL0     C18999   9.869   1.007   1.684  0.1874 -0.5008  0.3690
  882MOL0     C19000   9.767   1.722   1.822  0.3020 -0.5363 -0.4273
  882MOL0     C19001   9.846   1.826   1.875 -0.3634 -0.9519 -0.0587
  882MOL0     C19002   9.930   1.901   1.776 -0.3308  0.1330  0.4684
  882MOL0     H19003   9.870   2.091   2.435 -1.4288  1.3773  2.0222
  882MOL0     H19004   9.874   2.290   2.540 -0.9072 -2.7507 -0.3777
  882MOL0     H19005   9.963   2.637   2.300  1.0701 -0.7391  0.1922
  882MOL0     H19006   9.794   2.669   2.263 -1.6108  0.0534  1.4501
  882MOL0     H19007   9.909   2.730   2.534  0.4797  0.9820  0.4681
  882MOL0     H19008   9.792   2.831   2.446 -0.4604  0.1626 -6.0105
  882MOL0     H19009   9.941   2.977   2.397 -1.7543 -0.7186  0.6022
  882MOL0     H19010   9.989   2.862   2.273 -2.1911 -2.1873  0.1045
  882MOL0     H19011  10.102   2.906   2.550  0.3042  0.4403 -0.6626
  882MOL0     H19012  10.143   2.763   2.451  0.7149  0.3097  1.0883
  882MOL0     H19013  10.223   2.939   2.265  0.5034  4.1649 -0.5696
  882MOL0     H19014  10.200   3.064   2.378  0.0637  0.2885 -0.6793
  882MOL0     H19015  10.385   2.833   2.393 -0.1234 -0.2827 -1.2950
  882MOL0     H19016  10.432   3.004   2.372  2.2440 -1.8491  2.0699
  882MOL0     H19017  10.315   2.892   2.625  0.2680 -1.1165 -2.7665
  882MOL0     H19018  10.344   3.062   2.610 -4.3774 -0.4599 -1.6862
  882MOL0     H19019  10.556   2.834   2.579  1.4597  0.9647 -1.7151
  882MOL0     H19020  10.589   3.004   2.549  0.0806 -0.2870 -0.9797
  882MOL0     H19021  10.465   3.140   2.789  0.8816 -0.7365 -2.0506
  882MOL0     H19022  10.497   3.202   3.059  1.6292  0.4526  0.5273
  882MOL0     H19023  10.492   3.050   3.146  1.8914  0.1077  1.4464
  882MOL0     H19024  10.665   3.143   3.252 -4.5037  3.3290 -0.6230
  882MOL0     H19025  10.764   3.084   3.121 -1.1172 -0.6322 -0.6396
  882MOL0     H19026  10.650   3.366   3.162  1.2043  2.2786 -1.0736
  882MOL0     H19027  10.718   3.308   3.007 -0.2154  1.6820  0.8246
  882MOL0     H19028  10.930   3.247   3.105  0.0869 -0.2537 -1.0224
  882MOL0     H19029  10.880   3.290   3.264  2.9265 -3.7357 -1.8466
  882MOL0     H19030  11.143   3.302   3.223 -1.3755 -0.4572 -2.0186
  882MOL0     H19031  11.356   3.387   3.232  1.5845  0.9894 -3.2818
  882MOL0     H19032  11.696   3.683   3.055  0.1705  0.2462 -0.1750
  882MOL0     H19033  11.901   3.824   3.040 -1.7517 -1.3547 -0.2378
  882MOL0     H19034  12.086   3.924   3.157  1.2573  2.1514  3.7538
  882MOL0     H19035  12.050   3.999   3.000  3.0732  1.4278 -0.7270
  882MOL0     H19036  12.267   4.063   3.085  1.8695  1.5313  2.9096
  882MOL0     H19037  12.157   4.196   3.073 -1.7396 -1.8317 -2.1452
  882MOL0     H19038  12.274   4.218   3.300  0.4489  0.3119 -0.0738
  882MOL0     H19039  12.124   4.164   3.348  1.2098 -0.5924  1.9989
  882MOL0     H19040  12.363   3.994   3.285 -0.5226 -1.5700 -1.0001
  882MOL0     H19041  12.204   3.938   3.343 -3.1468  3.3006  0.9643
  882MOL0     H19042  12.228   4.082   3.553  2.1017  0.0413  2.4036
  882MOL0     H19043  12.388   4.120   3.498  0.5776 -0.9077  2.2683
  882MOL0     H19044  12.357   3.950   3.661  0.3484  0.3222 -0.5015
  882MOL0     H19045  12.291   3.830   3.545  0.4043 -1.7261  2.3952
  882MOL0     H19046  12.561   3.920   3.589 -2.1585  2.2111  0.6771
  882MOL0     H19047  12.528   3.941   3.411  2.0004  0.1343  0.8270
  882MOL0     H19048  12.444   3.693   3.552 -2.6773  0.5105 -1.7912
  882MOL0     H19049  12.491   3.712   3.386 -3.2087 -1.1159  1.9991
  882MOL0     H19050  11.725   4.129   3.268  1.8313 -0.1805  0.6035
  882MOL0     H19051  11.501   3.996   3.270  0.2199 -1.1036  0.4807
  882MOL0     H19052  11.228   3.769   3.086 -0.1317  1.1267  1.6580
  882MOL0     H19053  11.000   3.677   3.059 -0.8144 -0.5347 -0.7935
  882MOL0     H19054   9.779   2.494   2.166  0.5196 -0.0399  1.7002
  882MOL0     H19055   9.762   2.273   2.064 -1.1907  1.6994 -0.0223
  882MOL0     H19056   9.687   1.825   2.178  0.1078 -0.3557 -0.0462
  882MOL0     H19057   9.594   1.622   2.093 -0.8305  0.7775  0.9345
  882MOL0     H19058   9.436   1.497   1.887 -0.2272 -1.7037  4.0321
  882MOL0     H19059   9.565   1.445   1.988  1.4216 -0.1298  0.0095
  882MOL0     H19060   9.484   1.321   1.720  2.5246  0.3654 -0.5789
  882MOL0     H19061   9.466   1.259   1.892 -1.7970 -0.7293 -1.4126
  882MOL0     H19062   9.703   1.229   1.896 -1.3688 -0.4096  0.0431
  882MOL0     H19063   9.723   1.339   1.754 -2.2185  2.4157  0.5263
  882MOL0     H19064   9.567   1.070   1.760 -0.1548  1.2228  0.3852
  882MOL0     H19065   9.599   1.157   1.609  0.2734 -3.0751 -0.6945
  882MOL0     H19066   9.964   0.958   1.682  0.7529  0.4191 -3.5013
  882MOL0     H19067   9.793   1.706   1.718  0.3034 -2.6239 -0.1573
  882MOL0     H19068   9.876   1.986   1.733  2.4259  1.2053 -1.1326
  882MOL0     H19069  10.018   1.934   1.830 -0.7734  1.6810  0.2924
  882MOL0     H19070   9.952   1.848   1.682  0.0607 -0.1535  0.7195
  883MOL0     O19071   5.828   9.424   6.329  0.4210 -0.4846 -0.0837
  883MOL0     C19072   5.827   9.326   6.249 -0.2889  0.6442 -0.0271
  883MOL0     O19073   5.936   9.238   6.229 -0.1600 -0.0284  0.6088
  883MOL0     C19074   6.065   9.280   6.242  0.7383  0.1328  0.1653
  883MOL0     C19075   6.146   9.187   6.298  0.3106  0.1452  0.3909
  883MOL0     C19076   6.285   9.219   6.308  0.3488 -0.3860  0.3766
  883MOL0     C19077   6.338   9.350   6.288 -0.6559 -0.4132 -0.1399
  883MOL0     O19078   6.469   9.380   6.316  0.2631  0.9292  0.7771
  883MOL0     C19079   6.514   9.514   6.302  0.4703  0.1274  0.9353
  883MOL0     C19080   6.661   9.511   6.325 -0.2572  0.1124  0.3975
  883MOL0     C19081   6.723   9.652   6.315 -1.2561  0.6308 -0.0966
  883MOL0     C19082   6.877   9.638   6.337  1.2896 -0.0306 -0.4312
  883MOL0     C19083   6.947   9.764   6.287  0.9413  0.4708  0.1232
  883MOL0     C19084   6.899   9.894   6.346  0.3256 -0.0729  0.6041
  883MOL0     C19085   6.994  10.002   6.311  0.4301  0.9095  0.1258
  883MOL0     C19086   6.964  10.063   6.170 -0.3980  0.6853 -0.6679
  883MOL0     N19087   7.060  10.179   6.147 -0.5353  0.2326 -0.9033
  883MOL0     C19088   7.143  10.247   6.241  0.0962  0.3628  0.3777
  883MOL0     C19089   7.205  10.335   6.163 -0.3682 -0.0859  0.4702
  883MOL0     C19090   7.299  10.426   6.227 -0.5505 -0.0414  0.5400
  883MOL0     C19091   7.437  10.374   6.195 -0.5035 -1.3102  0.3454
  883MOL0     C19092   7.541  10.465   6.251  0.2405 -0.5366 -0.3810
  883MOL0     C19093   7.688  10.445   6.211 -0.0921 -1.1668  0.5528
  883MOL0     O19094   7.758  10.549   6.291  0.2891  0.6726 -0.0833
  883MOL0     C19095   7.851  10.627   6.234 -0.5589  0.5926  0.3992
  883MOL0     C19096   7.848  10.754   6.270  0.3701 -0.1652  0.3771
  883MOL0     C19097   7.954  10.835   6.220  0.8593  0.0122  0.2344
  883MOL0     C19098   8.049  10.794   6.132 -0.2489  0.8741  0.5516
  883MOL0     C19099   8.169  10.876   6.089 -0.1010 -0.1847 -0.1937
  883MOL0     O19100   8.281  10.820   6.028  0.5932  0.1102 -0.5981
  883MOL0     C19101   8.377  10.910   5.972  0.1252  0.4101  0.1371
  883MOL0     C19102   8.372  11.051   5.951 -0.0535  0.7000  0.8556
  883MOL0     C19103   8.471  11.116   5.884  0.1768  0.0050  0.0831
  883MOL0     C19104   8.584  11.044   5.826 -0.0530  0.0035 -0.9072
  883MOL0     O19105   8.675  11.113   5.761 -0.6421  0.5479  0.7647
  883MOL0     C19106   8.798  11.051   5.728 -0.1095 -0.8189  0.3066
  883MOL0     C19107   8.895  11.152   5.655 -0.5698  0.0868 -0.6818
  883MOL0     C19108   9.027  11.090   5.638  0.0587  0.2906 -0.1635
  883MOL0     C19109   9.041  10.980   5.533  0.0508  0.2880 -0.1143
  883MOL0     C19110   9.033  11.038   5.389 -0.3933  0.2313 -0.4996
  883MOL0     C19111   9.161  11.110   5.344 -0.5614  0.3532  0.2216
  883MOL0     C19112   9.168  11.147   5.195 -0.0355 -0.5844 -0.0741
  883MOL0     C19113   9.306  11.121   5.128  0.4227  0.7138  0.0271
  883MOL0    Cl19114   9.446  11.208   5.208 -0.4762 -0.5253 -0.0364
  883MOL0     C19115   8.591  10.908   5.856  0.3985  0.2180 -0.5717
  883MOL0     C19116   8.489  10.842   5.921  0.0666  0.8980 -0.0534
  883MOL0     O19117   8.148  10.998   6.108  0.4320 -0.5694 -0.3165
  883MOL0     C19118   8.050  10.661   6.098  0.6381  0.1822 -0.4539
  883MOL0     C19119   7.944  10.582   6.141 -1.2872  0.4041 -0.7933
  883MOL0     N19120   7.159  10.333   6.031  0.0201  0.0997 -0.0749
  883MOL0     N19121   7.076  10.240   6.032  1.0114 -0.4767  0.5344
  883MOL0     C19122   6.248   9.445   6.246  0.4132 -0.6349  0.8160
  883MOL0     C19123   6.112   9.406   6.215  0.3789  0.7445  1.0718
  883MOL0     C19124   5.693   9.273   6.219  0.2544  0.1335  0.0732
  883MOL0     C19125   5.597   9.255   6.317 -0.4760 -0.1047  0.0780
  883MOL0     C19126   5.477   9.198   6.287  0.2959  0.2421 -0.2335
  883MOL0     C19127   5.444   9.152   6.158  0.1433  0.0148  0.5599
  883MOL0     O19128   5.309   9.123   6.140  0.6362 -0.0291 -0.1786
  883MOL0     C19129   5.258   9.070   6.021 -0.1986  0.6495  0.3668
  883MOL0     C19130   5.111   9.022   6.050  0.5199  0.1963 -0.1235
  883MOL0     C19131   5.040   8.962   5.926  0.0815  1.2678 -0.3944
  883MOL0     C19132   4.900   8.977   5.940 -0.4007 -0.7805 -1.1051
  883MOL0     C19133   4.822   8.941   5.820  0.5169  0.6548  0.3261
  883MOL0     C19134   4.752   8.906   5.723  0.2402 -0.4999  0.2327
  883MOL0     C19135   5.536   9.181   6.057  0.2797  1.7882  0.8687
  883MOL0     C19136   5.663   9.231   6.080  0.2831  1.0336 -0.6749
  883MOL0     C19137   5.761   9.258   5.967 -0.5206  0.0019  0.1284
  883MOL0     H19138   6.103   9.090   6.321  2.8443 -0.8095  1.4849
  883MOL0     H19139   6.357   9.143   6.335 -0.6770 -1.9111 -0.9968
  883MOL0     H19140   6.498   9.564   6.206  1.6237 -1.1457  0.0369
  883MOL0     H19141   6.451   9.566   6.374 -1.9541  0.6772 -1.3974
  883MOL0     H19142   6.707   9.454   6.244  0.3462 -0.5007  1.1579
  883MOL0     H19143   6.679   9.466   6.422  0.0158 -0.6874 -0.0184
  883MOL0     H19144   6.684   9.714   6.396  0.2044  0.2088  0.9864
  883MOL0     H19145   6.705   9.706   6.222 -1.9694 -1.8127 -1.4707
  883MOL0     H19146   6.908   9.614   6.439 -1.3116  0.7504  0.6201
  883MOL0     H19147   6.917   9.555   6.278  0.6680 -0.5803 -0.0956
  883MOL0     H19148   7.055   9.746   6.301  0.8218 -0.6374 -0.2661
  883MOL0     H19149   6.931   9.774   6.179 -0.6889  3.8306  0.5419
  883MOL0     H19150   6.799   9.927   6.318  0.2992  2.7680  3.4504
  883MOL0     H19151   6.906   9.884   6.455 -1.5566 -0.3956  0.7283
  883MOL0     H19152   7.097   9.965   6.307  0.4320  0.3382  3.1306
  883MOL0     H19153   6.988  10.076   6.390  2.3960  0.2325  0.9741
  883MOL0     H19154   6.986   9.993   6.088  1.5005 -3.0842  2.7359
  883MOL0     H19155   6.859  10.092   6.159 -1.8680 -3.1624  1.4738
  883MOL0     H19156   7.167  10.221   6.344 -0.2727 -2.6842 -0.1885
  883MOL0     H19157   7.293  10.528   6.186 -2.1657 -0.0424  0.7150
  883MOL0     H19158   7.286  10.423   6.336 -0.9651  3.0758  0.6680
  883MOL0     H19159   7.458  10.272   6.227  0.7913 -0.9035  0.8308
  883MOL0     H19160   7.450  10.376   6.086 -1.2333  1.3203  0.2332
  883MOL0     H19161   7.544  10.457   6.360 -0.7537  0.0041 -0.3036
  883MOL0     H19162   7.507  10.568   6.235  1.0472  0.3798  3.0308
  883MOL0     H19163   7.696  10.456   6.103 -1.4510  1.7424  0.6394
  883MOL0     H19164   7.736  10.349   6.232  0.1065 -1.2619 -0.3021
  883MOL0     H19165   7.770  10.784   6.339 -0.3035  1.9154 -1.2020
  883MOL0     H19166   7.959  10.940   6.247  0.3062 -0.1918  1.1830
  883MOL0     H19167   8.291  11.116   5.982 -1.5288 -0.4998 -0.3325
  883MOL0     H19168   8.468  11.224   5.872  1.0230 -0.0091 -0.2889
  883MOL0     H19169   8.848  11.026   5.821  2.1386 -1.1557 -0.9245
  883MOL0     H19170   8.784  10.964   5.663  2.9310 -0.2923 -1.2106
  883MOL0     H19171   8.855  11.195   5.563  0.8937 -0.5006 -1.6322
  883MOL0     H19172   8.906  11.230   5.731 -1.2275  0.1607 -0.6608
  883MOL0     H19173   9.095  11.172   5.612 -3.3672  2.7856 -2.0888
  883MOL0     H19174   9.056  11.045   5.733 -0.8648  0.4490  0.2028
  883MOL0     H19175   8.968  10.900   5.546 -2.1184  1.5353 -3.3784
  883MOL0     H19176   9.141  10.937   5.547  1.2427  2.6367 -0.8879
  883MOL0     H19177   8.951  11.107   5.366  0.1107  1.1549  0.3571
  883MOL0     H19178   9.030  10.953   5.320 -4.1272 -1.4612  1.4325
  883MOL0     H19179   9.182  11.200   5.402  0.9296  0.6803 -0.7787
  883MOL0     H19180   9.246  11.045   5.368  0.5257  1.7930  0.3915
  883MOL0     H19181   9.141  11.252   5.180 -2.2986 -1.1688 -0.4051
  883MOL0     H19182   9.095  11.089   5.138  1.1895 -1.1279 -1.1425
  883MOL0     H19183   9.325  11.013   5.133  3.3667  1.1044 -0.8990
  883MOL0     H19184   9.293  11.140   5.021 -1.6747 -1.3257 -0.1754
  883MOL0     H19185   8.687  10.859   5.843  1.9259  2.6593  0.6745
  883MOL0     H19186   8.504  10.739   5.952  2.9736  1.5021  0.8634
  883MOL0     H19187   8.136  10.629   6.041  1.6567  0.4947  0.8836
  883MOL0     H19188   7.945  10.478   6.111 -0.0777 -0.0465  0.7082
  883MOL0     H19189   6.272   9.546   6.213 -1.6161 -0.3673 -0.0419
  883MOL0     H19190   6.051   9.485   6.172 -0.2099 -0.0510  0.3919
  883MOL0     H19191   5.611   9.286   6.420 -3.3074 -1.2337  0.8806
  883MOL0     H19192   5.404   9.172   6.362 -1.5485 -1.2054 -2.3768
  883MOL0     H19193   5.319   8.984   5.990  0.4852 -0.0497  3.3283
  883MOL0     H19194   5.273   9.149   5.946 -2.0987  0.5471 -0.1838
  883MOL0     H19195   5.060   9.114   6.082  1.6939  1.2580 -1.1798
  883MOL0     H19196   5.117   8.948   6.131  1.2848 -3.1155 -2.9656
  883MOL0     H19197   5.063   8.855   5.923 -0.8094  0.9372  2.0020
  883MOL0     H19198   5.066   9.001   5.827  1.7359  0.7852 -0.1838
  883MOL0     H19199   4.869   8.906   6.017 -1.6743  0.2859 -0.5904
  883MOL0     H19200   4.869   9.079   5.966 -1.6441 -1.1341 -1.1059
  883MOL0     H19201   4.685   8.867   5.648 -0.1067 -0.1555  0.3636
  883MOL0     H19202   5.513   9.155   5.955 -2.0982  0.4867  1.6603
  883MOL0     H19203   5.771   9.168   5.905  1.5308 -1.1130  1.9341
  883MOL0     H19204   5.724   9.335   5.898  2.4386  0.4742 -1.0729
  883MOL0     H19205   5.859   9.293   5.999 -0.1639 -2.5100  2.1009
  884MOL0     O19206   2.846   6.570  11.094 -0.5836  0.1255  0.0853
  884MOL0     C19207   2.956   6.546  11.145  0.6651 -0.8168  0.5324
  884MOL0     O19208   3.070   6.631  11.137 -0.0098  0.4508 -0.1726
  884MOL0     C19209   3.043   6.737  11.064  0.0181  0.1928 -0.1004
  884MOL0     C19210   3.013   6.731  10.924 -0.7404  0.0294 -0.5998
  884MOL0     C19211   3.006   6.849  10.853 -0.2990 -0.0367  0.0301
  884MOL0     C19212   3.056   6.973  10.904  0.3765 -0.0051 -0.9910
  884MOL0     O19213   3.066   7.094  10.834 -0.3808  0.2748 -0.0421
  884MOL0     C19214   3.111   7.082  10.701 -0.0011  0.5011  0.3916
  884MOL0     C19215   3.169   7.223  10.655 -0.4062 -0.3558 -0.1090
  884MOL0     C19216   3.319   7.232  10.681 -0.2347  0.3948 -0.2323
  884MOL0     C19217   3.362   7.380  10.677  0.2439 -0.2297  0.0408
  884MOL0     C19218   3.405   7.421  10.540 -1.4716 -0.4889  0.2742
  884MOL0     C19219   3.477   7.557  10.540 -0.3842  0.2954 -0.0496
  884MOL0     C19220   3.539   7.604  10.401 -0.2615 -0.4658  0.6162
  884MOL0     C19221   3.664   7.524  10.364 -0.2423  0.5053 -0.0553
  884MOL0     N19222   3.717   7.556  10.227  0.2973  0.0108  0.1174
  884MOL0     C19223   3.834   7.642  10.208  0.8166 -0.0767  0.4107
  884MOL0     C19224   3.835   7.661  10.067  0.7328  0.3991  0.2467
  884MOL0     C19225   3.925   7.743   9.986 -0.4276 -0.7891 -0.7099
  884MOL0     C19226   3.970   7.681   9.858  0.5910  1.3109  0.8499
  884MOL0     C19227   4.064   7.769   9.784  0.5849  0.6377  0.2000
  884MOL0     C19228   4.131   7.680   9.683  0.1105  0.3152  0.0012
  884MOL0     O19229   4.207   7.768   9.599  0.0662 -0.5044  0.0782
  884MOL0     C19230   4.263   7.709   9.488 -0.8155  0.4921  0.1804
  884MOL0     C19231   4.354   7.783   9.423  0.2283  0.8044  1.3237
  884MOL0     C19232   4.420   7.749   9.302  0.4301 -0.2222 -0.2904
  884MOL0     C19233   4.423   7.611   9.258  0.3228 -0.9705  0.1856
  884MOL0     C19234   4.514   7.561   9.161 -0.1377  0.1291 -0.0496
  884MOL0     O19235   4.548   7.643   9.051 -0.2598 -0.3219 -0.0275
  884MOL0     C19236   4.632   7.589   8.957 -0.4913  0.0183  0.5933
  884MOL0     C19237   4.755   7.644   8.929 -0.3264 -0.1613 -1.2380
  884MOL0     C19238   4.845   7.595   8.835 -0.0753 -0.0743 -0.6885
  884MOL0     C19239   4.809   7.478   8.762  0.7196 -1.0776  0.5278
  884MOL0     O19240   4.894   7.420   8.670  0.3602  0.4812 -0.1744
  884MOL0     C19241   5.026   7.466   8.663 -0.2786 -0.4588  0.1794
  884MOL0     C19242   5.096   7.365   8.585 -0.7656  0.9603 -0.2068
  884MOL0     C19243   5.248   7.362   8.607 -0.8428  0.7367 -0.2365
  884MOL0     C19244   5.325   7.252   8.511  0.0275 -0.0812 -0.2614
  884MOL0     C19245   5.469   7.252   8.531  0.0359  0.1916  0.5925
  884MOL0     C19246   5.528   7.379   8.463 -0.0146  0.9229  0.2723
  884MOL0     C19247   5.678   7.370   8.416 -0.1599 -0.1920 -0.3418
  884MOL0     C19248   5.729   7.513   8.410 -0.6570 -0.6842  0.1672
  884MOL0    Cl19249   5.889   7.541   8.327 -0.0605  0.3829 -0.5777
  884MOL0     C19250   4.684   7.414   8.793  0.7238 -0.1083 -1.2886
  884MOL0     C19251   4.596   7.471   8.882 -0.7743  0.2114  0.3792
  884MOL0     O19252   4.566   7.454   9.191  0.8931  0.8324 -0.2198
  884MOL0     C19253   4.345   7.522   9.336 -0.2943  0.0370 -0.8207
  884MOL0     C19254   4.263   7.577   9.445  0.1009 -0.6056  0.0030
  884MOL0     N19255   3.749   7.573  10.015  0.4786  0.2298 -0.5096
  884MOL0     N19256   3.675   7.514  10.102  0.7648  0.8952 -0.1310
  884MOL0     C19257   3.091   6.973  11.043 -0.2830 -0.5868 -0.3473
  884MOL0     C19258   3.086   6.855  11.118 -0.7954 -0.6796  0.7613
  884MOL0     C19259   2.971   6.417  11.226 -0.4795 -0.2967 -0.4531
  884MOL0     C19260   3.093   6.390  11.286 -0.8333 -1.3935  0.3914
  884MOL0     C19261   3.112   6.279  11.378  0.5408 -0.4751  0.8650
  884MOL0     C19262   3.002   6.202  11.416  0.4241 -0.5085 -0.1944
  884MOL0     O19263   3.028   6.103  11.502 -0.3245  0.1774 -0.7304
  884MOL0     C19264   2.913   6.021  11.556  0.4449 -0.9146  0.0691
  884MOL0     C19265   2.878   5.903  11.457  0.2183  0.2279 -0.1331
  884MOL0     C19266   2.992   5.797  11.456  0.1019 -0.2447 -0.3888
  884MOL0     C19267   2.953   5.672  11.381  0.6134  0.1948 -0.1747
  884MOL0     C19268   3.026   5.554  11.415  0.7139  0.1423 -0.2654
  884MOL0     C19269   3.089   5.457  11.467 -0.3573  0.0852  0.5082
  884MOL0     C19270   2.875   6.240  11.365 -0.1827  0.0119 -0.1527
  884MOL0     C19271   2.858   6.341  11.267 -0.4658 -0.7875 -1.2888
  884MOL0     C19272   2.711   6.373  11.245  0.8657  0.1751  1.1128
  884MOL0     H19273   3.002   6.635  10.873  0.6062 -0.0403 -0.7972
  884MOL0     H19274   2.978   6.845  10.749 -2.5671 -1.2606  0.6274
  884MOL0     H19275   3.189   7.006  10.691 -0.8122 -0.5963  1.9609
  884MOL0     H19276   3.026   7.054  10.639 -1.6150  0.0417  2.6877
  884MOL0     H19277   3.120   7.299  10.716 -0.2864 -0.1219 -0.3065
  884MOL0     H19278   3.143   7.258  10.555  1.8265  0.8224 -0.3265
  884MOL0     H19279   3.370   7.175  10.604 -1.4774 -0.4369 -0.4625
  884MOL0     H19280   3.347   7.191  10.778  0.5183 -2.3327 -1.5294
  884MOL0     H19281   3.282   7.440  10.720  1.0116  0.9416 -0.1115
  884MOL0     H19282   3.446   7.380  10.747  0.3488  1.6603 -0.0310
  884MOL0     H19283   3.474   7.346  10.500 -0.8860  0.3860 -0.4138
  884MOL0     H19284   3.319   7.420  10.472  0.9117  1.2726 -3.0889
  884MOL0     H19285   3.395   7.628  10.553 -1.7576 -0.5503 -3.0467
  884MOL0     H19286   3.548   7.560  10.623 -0.6978 -1.9407  0.3497
  884MOL0     H19287   3.570   7.709  10.405  0.5003 -0.2420 -4.4013
  884MOL0     H19288   3.470   7.598  10.317  1.3533  1.7950 -1.0038
  884MOL0     H19289   3.740   7.540  10.441 -1.7220  1.2221  1.3265
  884MOL0     H19290   3.646   7.416  10.372  1.7018  0.0786 -0.8754
  884MOL0     H19291   3.907   7.690  10.273  0.9622 -1.3269  1.2183
  884MOL0     H19292   3.884   7.842   9.963  0.5387  0.4664  2.3953
  884MOL0     H19293   4.018   7.757  10.043 -1.6570 -0.1166  1.2308
  884MOL0     H19294   4.008   7.584   9.891 -1.5159 -0.2976 -1.1193
  884MOL0     H19295   3.888   7.667   9.787  0.6334  1.9167  0.6785
  884MOL0     H19296   4.136   7.822   9.847  1.1059  0.6638 -0.4090
  884MOL0     H19297   4.013   7.851   9.733 -1.7110  1.8339  3.9540
  884MOL0     H19298   4.052   7.629   9.627 -0.7602  1.7323 -0.1135
  884MOL0     H19299   4.199   7.607   9.727  1.4283  0.8352 -1.0876
  884MOL0     H19300   4.372   7.882   9.464  3.1380 -1.4627  6.4988
  884MOL0     H19301   4.483   7.820   9.249 -0.8043  1.4226  0.3508
  884MOL0     H19302   4.790   7.727   8.989  3.4637 -1.3846 -1.5022
  884MOL0     H19303   4.937   7.644   8.806  0.6857 -1.5792 -0.9160
  884MOL0     H19304   5.034   7.553   8.598 -3.0766 -1.7829 -2.1670
  884MOL0     H19305   5.074   7.485   8.759  1.5170  1.7003 -1.0460
  884MOL0     H19306   5.056   7.266   8.607  2.3189  0.0468  1.8374
  884MOL0     H19307   5.086   7.389   8.478  1.4941  0.1548 -0.6493
  884MOL0     H19308   5.295   7.459   8.587  1.3763 -0.6507 -2.2626
  884MOL0     H19309   5.273   7.344   8.712 -1.9273  0.0963 -0.0758
  884MOL0     H19310   5.293   7.264   8.407  1.9873  0.1874 -0.8729
  884MOL0     H19311   5.284   7.155   8.542 -0.9341  0.4375  0.1408
  884MOL0     H19312   5.505   7.166   8.473 -0.9143  1.4172 -1.9822
  884MOL0     H19313   5.490   7.256   8.638 -2.3704  2.7655  1.0759
  884MOL0     H19314   5.466   7.411   8.380  0.8812  0.9419 -0.4019
  884MOL0     H19315   5.524   7.463   8.534  0.5912  0.5741  0.7319
  884MOL0     H19316   5.693   7.327   8.317  0.6265 -1.7864  0.4138
  884MOL0     H19317   5.735   7.302   8.481  1.2586  1.3637  0.0975
  884MOL0     H19318   5.652   7.565   8.352 -0.7370 -2.0292 -0.9916
  884MOL0     H19319   5.743   7.559   8.508 -0.5326  1.6871 -0.8964
  884MOL0     H19320   4.670   7.314   8.755  1.2279  0.2759 -2.5370
  884MOL0     H19321   4.502   7.421   8.901 -0.3561 -0.4321  0.8017
  884MOL0     H19322   4.335   7.414   9.327 -2.4274 -0.0656  1.6054
  884MOL0     H19323   4.192   7.509   9.492  1.3270 -0.9397  1.4645
  884MOL0     H19324   3.108   7.068  11.093  0.3127 -0.8912  0.0344
  884MOL0     H19325   3.109   6.863  11.223 -0.7286 -1.4326  0.8135
  884MOL0     H19326   3.174   6.457  11.259 -0.8951 -1.2865  0.4744
  884MOL0     H19327   3.214   6.268  11.415  1.3211  3.8059  0.5726
  884MOL0     H19328   2.823   6.079  11.583  1.6741 -0.4229  3.7210
  884MOL0     H19329   2.940   5.998  11.659  1.0194  2.4118  0.7926
  884MOL0     H19330   2.863   5.939  11.355  0.0953 -2.7631 -1.2880
  884MOL0     H19331   2.790   5.847  11.492  0.5193 -0.4448 -0.4294
  884MOL0     H19332   2.998   5.767  11.561 -0.1044 -0.5319 -0.4585
  884MOL0     H19333   3.087   5.834  11.415  1.3635 -3.6214 -0.7770
  884MOL0     H19334   2.848   5.643  11.392  0.9175 -1.1875 -0.7570
  884MOL0     H19335   2.974   5.685  11.275 -1.6004 -0.3977 -0.7383
  884MOL0     H19336   3.152   5.379  11.505 -2.4379 -2.2572 -0.5757
  884MOL0     H19337   2.787   6.180  11.389 -0.4913  0.5390  0.0548
  884MOL0     H19338   2.634   6.327  11.308 -0.6263  1.1333  0.0625
  884MOL0     H19339   2.681   6.473  11.278 -1.2397 -1.4019  4.5383
  884MOL0     H19340   2.687   6.358  11.140 -2.5349 -1.6249  1.9824
  885MOL0     O19341   0.639  11.253   7.208  0.1709 -0.6146 -0.3040
  885MOL0     C19342   0.557  11.168   7.179  0.5043 -0.5083 -0.4822
  885MOL0     O19343   0.569  11.030   7.183  0.2920 -0.4662  0.1047
  885MOL0     C19344   0.698  10.979   7.174  0.4815  0.1391  0.6982
  885MOL0     C19345   0.798  11.017   7.267 -0.0779  0.1905 -0.2346
  885MOL0     C19346   0.928  10.970   7.246  1.0166 -0.6417  0.0251
  885MOL0     C19347   0.965  10.877   7.148  0.2840  0.8171 -0.1414
  885MOL0     O19348   1.094  10.836   7.152 -0.4025  0.0339  0.0579
  885MOL0     C19349   1.103  10.693   7.135 -0.4265  0.1229  0.0652
  885MOL0     C19350   1.213  10.621   7.226  0.3134  0.4801 -0.1987
  885MOL0     C19351   1.344  10.692   7.244 -0.2342 -0.3764  0.0568
  885MOL0     C19352   1.434  10.626   7.346 -0.0387 -0.2042  0.2690
  885MOL0     C19353   1.530  10.731   7.415  0.0478  0.5530  0.2813
  885MOL0     C19354   1.613  10.789   7.300 -0.8101  0.4029  0.3047
  885MOL0     C19355   1.739  10.862   7.338 -0.1264  0.0617  0.3794
  885MOL0     C19356   1.850  10.768   7.388  0.1343 -0.1478 -1.1888
  885MOL0     N19357   1.972  10.845   7.439  0.2703  0.4038 -0.6741
  885MOL0     C19358   2.090  10.864   7.367  0.1690  0.6573 -0.3317
  885MOL0     C19359   2.180  10.879   7.465 -0.1884 -0.4775  0.4882
  885MOL0     C19360   2.338  10.874   7.445 -0.6108  0.6456 -0.5183
  885MOL0     C19361   2.367  10.997   7.352 -1.2080 -0.1412  0.5100
  885MOL0     C19362   2.507  11.010   7.292  0.5841  0.3608 -0.6790
  885MOL0     C19363   2.622  11.017   7.396 -0.3665  0.3368 -0.2918
  885MOL0     O19364   2.742  11.009   7.309  0.7633  0.1108  0.3612
  885MOL0     C19365   2.861  11.059   7.348 -0.0030 -0.5119  0.1561
  885MOL0     C19366   2.883  11.160   7.450  0.4942 -0.0487  0.6318
  885MOL0     C19367   2.998  11.222   7.480 -0.6503 -0.2372  0.5939
  885MOL0     C19368   3.111  11.187   7.404  0.7011  0.2649  0.4117
  885MOL0     C19369   3.246  11.251   7.430  0.1035  0.1634  0.3753
  885MOL0     O19370   3.259  11.341   7.528  0.7809  0.1691 -0.7424
  885MOL0     C19371   3.376  11.401   7.540 -0.3090  0.7085 -0.3092
  885MOL0     C19372   3.400  11.520   7.480  0.3427  0.5544  0.6212
  885MOL0     C19373   3.528  11.574   7.476 -0.0449 -0.0022  1.1812
  885MOL0     C19374   3.626  11.520   7.555 -0.9413  1.1108  0.1909
  885MOL0     O19375   3.756  11.571   7.560 -0.3080 -0.1299 -0.1239
  885MOL0     C19376   3.803  11.644   7.449 -0.4097 -0.7801 -0.1795
  885MOL0     C19377   3.962  11.660   7.461  0.8669  0.6674 -0.0254
  885MOL0     C19378   4.017  11.779   7.542 -0.2154  0.8607  0.3040
  885MOL0     C19379   4.173  11.781   7.542  0.8859 -0.3783  1.0355
  885MOL0     C19380   4.252  11.661   7.572  0.6964  0.0002 -0.0193
  885MOL0     C19381   4.394  11.707   7.615  0.1389  0.3866 -0.2933
  885MOL0     C19382   4.493  11.598   7.670  0.6475  0.3551  0.2385
  885MOL0     C19383   4.625  11.664   7.666 -0.4746 -0.4639 -0.3366
  885MOL0    Cl19384   4.726  11.606   7.806  0.2673 -0.1160  0.0672
  885MOL0     C19385   3.602  11.410   7.635 -0.0800 -0.0912  0.3120
  885MOL0     C19386   3.480  11.340   7.613 -0.0077  0.3352  0.5175
  885MOL0     O19387   3.332  11.224   7.351  0.0403  0.0621  0.2220
  885MOL0     C19388   3.097  11.091   7.300 -0.3290 -0.4728  0.3744
  885MOL0     C19389   2.974  11.022   7.277 -0.1984 -0.1165  0.2775
  885MOL0     N19390   2.127  10.880   7.594 -0.1428 -0.4803 -0.4348
  885MOL0     N19391   1.996  10.849   7.573 -0.5853 -0.3240  0.4519
  885MOL0     C19392   0.867  10.842   7.049  0.1569 -0.7849 -0.9088
  885MOL0     C19393   0.731  10.885   7.066  0.3942 -0.4030  0.3581
  885MOL0     C19394   0.418  11.203   7.164  0.4346 -0.4847  0.2456
  885MOL0     C19395   0.400  11.339   7.142 -0.6501  0.3697 -1.1150
  885MOL0     C19396   0.277  11.400   7.124  0.8208 -0.8758 -0.8804
  885MOL0     C19397   0.166  11.321   7.117 -0.0054  0.1258 -0.9859
  885MOL0     O19398   0.038  11.381   7.109  0.1853 -0.0167  0.5454
  885MOL0     C19399  -0.058  11.309   7.044  0.0005  0.0179 -0.0684
  885MOL0     C19400  -0.194  11.382   7.045  0.1823  0.0093  0.0966
  885MOL0     C19401  -0.214  11.471   6.918  0.4840 -0.8382  0.0668
  885MOL0     C19402  -0.237  11.397   6.791 -0.0614 -0.2296  0.3000
  885MOL0     C19403  -0.354  11.307   6.798 -0.3258 -0.2528 -0.3948
  885MOL0     C19404  -0.448  11.233   6.797  0.1730  0.4668 -0.1983
  885MOL0     C19405   0.179  11.181   7.137 -0.2623  0.2938 -0.6928
  885MOL0     C19406   0.309  11.123   7.146  0.5941 -1.0590  0.7764
  885MOL0     C19407   0.311  10.969   7.137  0.6611 -0.8102 -0.1109
  885MOL0     H19408   0.789  11.078   7.356 -0.3170 -1.4298  0.8832
  885MOL0     H19409   1.000  10.997   7.323 -0.3151  1.6717  0.5375
  885MOL0     H19410   1.006  10.644   7.142 -0.4615 -0.0517 -1.3648
  885MOL0     H19411   1.129  10.675   7.030 -3.1081 -0.1787 -0.6049
  885MOL0     H19412   1.231  10.523   7.180  1.0372  1.7871 -2.9239
  885MOL0     H19413   1.163  10.605   7.322  1.8072 -0.2754  0.4865
  885MOL0     H19414   1.318  10.785   7.295 -0.3510 -0.9398  1.0367
  885MOL0     H19415   1.390  10.710   7.146 -0.1090 -1.3338 -0.0647
  885MOL0     H19416   1.381  10.580   7.431  2.1209  1.7644  2.8718
  885MOL0     H19417   1.492  10.542   7.306 -0.6701  0.9471 -3.4092
  885MOL0     H19418   1.476  10.819   7.451  0.4880  1.2514 -0.7107
  885MOL0     H19419   1.580  10.683   7.500  0.5414  0.4135 -0.0847
  885MOL0     H19420   1.633  10.700   7.239  4.6809  2.1523 -0.9461
  885MOL0     H19421   1.549  10.861   7.249  0.5901  0.7508 -1.0101
  885MOL0     H19422   1.719  10.938   7.414  0.7690  0.5529  0.1431
  885MOL0     H19423   1.782  10.907   7.248  1.8199 -0.5201  0.9698
  885MOL0     H19424   1.808  10.710   7.471  1.5158  2.6524  1.6642
  885MOL0     H19425   1.883  10.704   7.304  0.6104 -0.6226 -0.6502
  885MOL0     H19426   2.105  10.851   7.260 -0.3885  1.4152 -0.5081
  885MOL0     H19427   2.399  10.867   7.535 -0.4526 -0.3111 -0.6805
  885MOL0     H19428   2.352  10.778   7.394 -1.1164 -0.0276  0.5763
  885MOL0     H19429   2.290  10.993   7.275  1.4935 -0.1588 -2.3846
  885MOL0     H19430   2.352  11.094   7.402 -0.1712  2.0959 -3.0997
  885MOL0     H19431   2.520  11.095   7.226 -0.4205  0.4668 -0.7572
  885MOL0     H19432   2.529  10.920   7.233 -1.4997  1.6012 -3.5742
  885MOL0     H19433   2.632  10.926   7.455  0.6508  0.8782  0.3938
  885MOL0     H19434   2.614  11.100   7.467 -0.5609  0.4072 -0.3927
  885MOL0     H19435   2.791  11.197   7.494  0.4208 -0.5689  0.9332
  885MOL0     H19436   2.991  11.306   7.549  2.0940 -0.5563  1.3767
  885MOL0     H19437   3.318  11.568   7.429  1.3600  2.4653  0.6966
  885MOL0     H19438   3.537  11.662   7.414 -2.1793  0.5373  1.5539
  885MOL0     H19439   3.787  11.590   7.356  3.7297 -1.4006 -0.7009
  885MOL0     H19440   3.749  11.739   7.445  1.7371  0.5708  0.7658
  885MOL0     H19441   4.000  11.567   7.503 -1.6129 -0.4721 -0.1588
  885MOL0     H19442   3.997  11.674   7.358  1.3401  3.8019  0.4607
  885MOL0     H19443   3.975  11.866   7.491 -1.0602  1.2688  1.6527
  885MOL0     H19444   3.977  11.785   7.643 -0.9100 -0.4244  0.1235
  885MOL0     H19445   4.202  11.853   7.618  0.2854  0.1942  0.7315
  885MOL0     H19446   4.202  11.822   7.445 -1.0806  0.5084  0.7698
  885MOL0     H19447   4.255  11.588   7.490  2.4309 -0.0653  0.0616
  885MOL0     H19448   4.212  11.616   7.663  0.9761 -1.5798 -0.6420
  885MOL0     H19449   4.445  11.757   7.532  1.4183 -0.3536  0.0184
  885MOL0     H19450   4.385  11.779   7.697 -4.2481  1.7428 -1.6877
  885MOL0     H19451   4.480  11.510   7.606 -2.3126 -0.4465  1.7886
  885MOL0     H19452   4.464  11.566   7.771 -1.5170 -0.6767 -0.6476
  885MOL0     H19453   4.666  11.647   7.566  0.2084  4.1355 -1.0607
  885MOL0     H19454   4.627  11.772   7.686 -0.4006 -0.4527 -0.4041
  885MOL0     H19455   3.684  11.370   7.693  2.2564 -0.9642 -3.2457
  885MOL0     H19456   3.452  11.248   7.664 -2.9849  0.4054 -0.7499
  885MOL0     H19457   3.188  11.069   7.244 -1.7312 -0.8294 -1.9055
  885MOL0     H19458   2.964  10.953   7.194  0.5472  2.2739 -1.9359
  885MOL0     H19459   0.886  10.779   6.963  2.2395  0.4516 -1.4321
  885MOL0     H19460   0.655  10.874   6.989 -0.5949  0.4787  1.1707
  885MOL0     H19461   0.489  11.402   7.142 -0.4119  0.1576 -3.6347
  885MOL0     H19462   0.272  11.508   7.124  3.1532 -0.5987  2.7171
  885MOL0     H19463  -0.070  11.210   7.089 -0.3398 -0.7988 -1.8462
  885MOL0     H19464  -0.041  11.290   6.937 -0.2605  1.3472 -0.3586
  885MOL0     H19465  -0.209  11.447   7.132 -1.2111 -2.4057  1.7598
  885MOL0     H19466  -0.272  11.306   7.047  0.7807 -0.6832 -1.3812
  885MOL0     H19467  -0.131  11.538   6.896  0.6570 -1.0897 -0.0484
  885MOL0     H19468  -0.299  11.540   6.926 -1.7374 -3.4649  1.0433
  885MOL0     H19469  -0.257  11.467   6.709 -1.7048 -1.1680 -0.1421
  885MOL0     H19470  -0.149  11.340   6.761 -0.5640 -0.0078 -1.7607
  885MOL0     H19471  -0.529  11.162   6.794  0.6704 -0.0732 -1.7902
  885MOL0     H19472   0.091  11.118   7.145  0.9087 -1.2740  0.5926
  885MOL0     H19473   0.361  10.934   7.228  0.7153  0.1375  0.2305
  885MOL0     H19474   0.220  10.913   7.115  0.4074 -0.3025 -0.3701
  885MOL0     H19475   0.389  10.937   7.067  3.7613  2.6015  1.4300
  886MOL0     O19476   2.697   9.761   3.068  1.0559 -0.0984  0.3004
  886MOL0     C19477   2.585   9.703   3.075 -0.6583  0.6189 -0.2280
  886MOL0     O19478   2.536   9.607   2.990  0.2710  0.1155  0.9061
  886MOL0     C19479   2.584   9.591   2.857 -0.0131  0.4980 -0.3828
  886MOL0     C19480   2.720   9.608   2.816 -0.0702  0.3897  0.2992
  886MOL0     C19481   2.757   9.595   2.678  0.4159 -0.4919  0.5608
  886MOL0     C19482   2.658   9.562   2.579 -0.4270 -0.3971 -1.7327
  886MOL0     O19483   2.702   9.550   2.452 -0.8756  0.3407  0.0405
  886MOL0     C19484   2.642   9.454   2.371 -0.0392  0.5740 -0.2142
  886MOL0     C19485   2.711   9.456   2.227  1.6848  0.2692 -0.5891
  886MOL0     C19486   2.862   9.471   2.225 -0.6678 -0.2699  0.6827
  886MOL0     C19487   2.939   9.364   2.302  0.3576  0.0210  1.1132
  886MOL0     C19488   3.085   9.371   2.282  0.1840 -0.4796  0.4040
  886MOL0     C19489   3.140   9.503   2.332  0.7850 -0.3577 -0.8668
  886MOL0     C19490   3.288   9.475   2.368  0.2293  0.3306  0.2817
  886MOL0     C19491   3.386   9.489   2.248 -0.1093  0.4346 -0.1044
  886MOL0     N19492   3.515   9.469   2.299 -0.1199 -0.2762 -0.1905
  886MOL0     C19493   3.588   9.548   2.375 -0.1693  0.1829  0.3987
  886MOL0     C19494   3.697   9.478   2.409 -0.5658 -0.6836 -0.4140
  886MOL0     C19495   3.805   9.541   2.503 -0.2148  0.6408  0.2781
  886MOL0     C19496   3.862   9.671   2.442 -0.1307 -0.5426  0.5286
  886MOL0     C19497   3.971   9.627   2.341 -0.2501  0.6808 -0.0002
  886MOL0     C19498   3.921   9.572   2.202  0.8445  0.7554 -0.1850
  886MOL0     O19499   3.810   9.652   2.150  0.5710 -0.3797  0.3943
  886MOL0     C19500   3.751   9.629   2.024 -0.7975  0.4511  0.4194
  886MOL0     C19501   3.804   9.554   1.919 -0.5889  0.6545  0.2124
  886MOL0     C19502   3.723   9.527   1.809  0.0156 -0.3413  0.7868
  886MOL0     C19503   3.595   9.593   1.790  0.4241 -0.0327 -0.3991
  886MOL0     C19504   3.516   9.569   1.679  0.6932  0.7618 -0.4729
  886MOL0     O19505   3.377   9.603   1.682 -0.1315  0.1826  0.1391
  886MOL0     C19506   3.313   9.648   1.569  0.2432 -0.6882  0.7023
  886MOL0     C19507   3.383   9.697   1.455  0.5649 -0.0690 -0.0411
  886MOL0     C19508   3.318   9.757   1.350 -0.3142 -0.5258  0.6516
  886MOL0     C19509   3.184   9.764   1.344  0.5108  0.7965  0.3525
  886MOL0     O19510   3.125   9.799   1.230 -0.0034 -0.4496 -0.1031
  886MOL0     C19511   3.054   9.694   1.159  0.0090 -0.4910  0.8162
  886MOL0     C19512   2.993   9.744   1.039 -0.5575  0.7791  0.4816
  886MOL0     C19513   2.870   9.834   1.071 -0.7833  0.2872  0.5207
  886MOL0     C19514   2.788   9.871   0.944  0.3697  0.2493  1.2139
  886MOL0     C19515   2.714  10.000   0.977 -0.2784  0.2128 -1.0008
  886MOL0     C19516   2.637  10.029   0.837 -0.6750 -0.4493 -0.5228
  886MOL0     C19517   2.622  10.180   0.812 -0.2258 -0.6890 -0.0118
  886MOL0     C19518   2.555  10.207   0.674  0.5963  0.0077 -0.1261
  886MOL0    Cl19519   2.668  10.210   0.525 -0.1957 -0.0959 -0.0196
  886MOL0     C19520   3.105   9.719   1.450 -0.6233 -0.0171 -0.5459
  886MOL0     C19521   3.172   9.660   1.560  0.2188  0.8986  0.3748
  886MOL0     O19522   3.574   9.517   1.586 -0.4390  0.4171 -0.2686
  886MOL0     C19523   3.551   9.678   1.897 -1.2468 -0.1300 -0.2348
  886MOL0     C19524   3.633   9.701   2.009 -0.1192 -0.2751  0.1055
  886MOL0     N19525   3.702   9.352   2.362  0.0360 -0.6259 -0.1519
  886MOL0     N19526   3.591   9.356   2.294  0.1839  0.7094  0.7770
  886MOL0     C19527   2.530   9.526   2.626  0.5717 -0.2828  0.6640
  886MOL0     C19528   2.496   9.544   2.760 -0.9485  0.3350 -0.1778
  886MOL0     C19529   2.495   9.736   3.186  0.0767 -0.3511  0.0195
  886MOL0     C19530   2.356   9.713   3.177  1.4350 -0.2955 -0.0726
  886MOL0     C19531   2.270   9.720   3.284  0.8421  1.0553 -0.6051
  886MOL0     C19532   2.316   9.759   3.414 -0.0659  0.1874  1.0677
  886MOL0     O19533   2.244   9.766   3.528 -0.3835  0.1252 -0.2772
  886MOL0     C19534   2.109   9.719   3.536  0.0498 -0.2769 -0.1084
  886MOL0     C19535   2.010   9.824   3.486 -0.0904 -0.1951 -0.5999
  886MOL0     C19536   2.028   9.961   3.554 -0.2931  0.1444 -0.5979
  886MOL0     C19537   1.930  10.079   3.503 -0.3944  0.2340  0.3315
  886MOL0     C19538   1.795  10.030   3.531  0.4128  0.4712  0.8049
  886MOL0     C19539   1.687   9.996   3.576 -0.0646  1.0052 -0.1813
  886MOL0     C19540   2.450   9.798   3.416 -0.1061 -0.2890 -0.2993
  886MOL0     C19541   2.537   9.782   3.309 -0.2407  0.2530 -0.4923
  886MOL0     C19542   2.682   9.814   3.343 -0.2779  0.1285 -0.2370
  886MOL0     H19543   2.793   9.639   2.889  1.1161 -0.8460 -0.3177
  886MOL0     H19544   2.862   9.592   2.649  0.0981 -2.7942 -0.6547
  886MOL0     H19545   2.669   9.357   2.415  2.4077  1.0571 -0.5249
  886MOL0     H19546   2.533   9.467   2.361  0.1931  1.8836 -1.3455
  886MOL0     H19547   2.656   9.530   2.167 -3.2650 -1.9829  0.6863
  886MOL0     H19548   2.686   9.357   2.189 -3.9042  1.0921  0.0897
  886MOL0     H19549   2.888   9.571   2.261 -3.1718 -0.3919  3.1250
  886MOL0     H19550   2.888   9.477   2.119  1.1513 -1.7857  0.9936
  886MOL0     H19551   2.934   9.383   2.409 -0.3036 -1.3048  1.3426
  886MOL0     H19552   2.901   9.266   2.271  3.0741 -0.4263 -1.2434
  886MOL0     H19553   3.127   9.295   2.349  2.2900  0.6157  0.4304
  886MOL0     H19554   3.117   9.352   2.179 -0.5079  0.9028 -0.0881
  886MOL0     H19555   3.128   9.578   2.253  1.6678  0.4459 -0.2616
  886MOL0     H19556   3.096   9.542   2.424 -0.3651  0.1988 -1.6255
  886MOL0     H19557   3.296   9.376   2.415 -2.9449 -0.9116 -1.4734
  886MOL0     H19558   3.321   9.554   2.436 -0.5368 -0.0007  1.0484
  886MOL0     H19559   3.363   9.415   2.171  1.0717  1.3048 -1.3353
  886MOL0     H19560   3.383   9.582   2.191  1.7591 -0.9020 -2.5786
  886MOL0     H19561   3.566   9.651   2.402 -0.3642  0.2082  0.1421
  886MOL0     H19562   3.755   9.573   2.595 -1.9999 -1.1962  0.0319
  886MOL0     H19563   3.875   9.461   2.527 -0.0324  0.1579 -1.6426
  886MOL0     H19564   3.785   9.714   2.378 -0.8155 -2.7401 -0.2418
  886MOL0     H19565   3.902   9.741   2.516 -0.2026 -0.5319  0.5580
  886MOL0     H19566   4.037   9.557   2.392  0.0540  1.4238  0.6610
  886MOL0     H19567   4.015   9.727   2.328 -0.2915  0.9582  1.7324
  886MOL0     H19568   3.889   9.473   2.235  3.0230  0.7300  2.0827
  886MOL0     H19569   4.003   9.572   2.129 -0.0218  1.8181 -1.2029
  886MOL0     H19570   3.902   9.506   1.910  0.9846  3.7612 -0.8389
  886MOL0     H19571   3.754   9.440   1.752 -1.0534 -1.5302  1.9301
  886MOL0     H19572   3.491   9.702   1.462  0.6825 -2.7663  1.7291
  886MOL0     H19573   3.371   9.798   1.264 -0.9385  1.3156  1.1149
  886MOL0     H19574   3.119   9.615   1.119 -0.2869 -1.7828  2.7525
  886MOL0     H19575   2.979   9.650   1.226 -1.3095  1.5511  0.7687
  886MOL0     H19576   3.063   9.798   0.974 -1.8374  4.4979  1.9280
  886MOL0     H19577   2.961   9.655   0.985  2.5382 -0.7578  0.9555
  886MOL0     H19578   2.807   9.769   1.133 -0.2412 -2.5084 -1.6565
  886MOL0     H19579   2.896   9.921   1.133 -2.4672  1.4513 -0.3221
  886MOL0     H19580   2.720   9.794   0.906 -0.8983  0.9403  2.0337
  886MOL0     H19581   2.851   9.884   0.856 -0.5953  0.8088  0.5855
  886MOL0     H19582   2.792  10.072   1.002 -1.1584  0.3481  1.6279
  886MOL0     H19583   2.649   9.982   1.063 -1.7180  0.0863 -2.0866
  886MOL0     H19584   2.680   9.982   0.748 -1.1438 -1.5502 -0.1925
  886MOL0     H19585   2.537   9.987   0.851 -1.8114  1.9924 -0.9761
  886MOL0     H19586   2.719  10.229   0.806  0.9016 -2.9663 -3.3154
  886MOL0     H19587   2.551  10.209   0.890 -2.6101 -1.8517 -1.6228
  886MOL0     H19588   2.467  10.149   0.647 -2.1187  3.6572  0.0319
  886MOL0     H19589   2.528  10.313   0.677 -0.0987 -0.1004 -1.7022
  886MOL0     H19590   2.997   9.721   1.442 -0.6716  1.0190  0.1620
  886MOL0     H19591   3.105   9.623   1.636  0.8474 -1.0592  0.0491
  886MOL0     H19592   3.455   9.729   1.897 -0.3388  1.9334  3.2490
  886MOL0     H19593   3.610   9.758   2.099  1.1854 -0.6088  0.6760
  886MOL0     H19594   2.447   9.509   2.559  1.8676  0.9016 -1.3895
  886MOL0     H19595   2.397   9.520   2.796 -0.8326  1.6174  1.0975
  886MOL0     H19596   2.321   9.688   3.078  0.8418 -0.9629  0.2970
  886MOL0     H19597   2.164   9.697   3.271  0.3103  0.6121  3.3536
  886MOL0     H19598   2.096   9.696   3.642  2.6707 -0.0235  0.3393
  886MOL0     H19599   2.089   9.628   3.478 -1.6300 -0.7352  1.1200
  886MOL0     H19600   1.912   9.777   3.487 -0.0095 -0.3922 -1.2306
  886MOL0     H19601   2.028   9.854   3.382 -2.0016  3.3559 -0.0454
  886MOL0     H19602   2.129   9.998   3.536 -0.6480  0.5635 -1.8601
  886MOL0     H19603   2.017   9.949   3.662  2.6884 -1.4441 -0.3824
  886MOL0     H19604   1.943  10.174   3.555 -3.1251  1.1522 -0.5046
  886MOL0     H19605   1.945  10.093   3.395  0.0773  1.5862  0.5604
  886MOL0     H19606   1.593   9.964   3.615  0.4996 -0.8462 -0.2569
  886MOL0     H19607   2.478   9.837   3.514 -3.1645  0.1214  0.5097
  886MOL0     H19608   2.721   9.886   3.270  1.8119  0.4509  1.1382
  886MOL0     H19609   2.703   9.857   3.441  0.2847  0.9150 -0.6924
  886MOL0     H19610   2.747   9.726   3.334 -1.7089 -0.7828 -3.9643
  887MOL0     O19611   9.549   9.096   0.527 -0.1105  0.0745 -0.5208
  887MOL0     C19612   9.458   9.185   0.558 -0.6348  0.5565  0.5862
  887MOL0     O19613   9.482   9.307   0.612  0.2356 -0.4318  0.5748
  887MOL0     C19614   9.608   9.356   0.602  0.5812 -0.1673  0.2990
  887MOL0     C19615   9.692   9.367   0.711 -0.3977  0.9852  0.5451
  887MOL0     C19616   9.817   9.420   0.696 -0.3521 -0.3945 -0.2662
  887MOL0     C19617   9.863   9.464   0.571  0.5647  0.4939 -0.4255
  887MOL0     O19618   9.989   9.506   0.554  0.2113  0.1158 -0.2081
  887MOL0     C19619  10.092   9.407   0.589 -0.1867  0.4170  0.0977
  887MOL0     C19620  10.223   9.477   0.551  0.1501 -0.3894 -0.6760
  887MOL0     C19621  10.323   9.477   0.669 -0.2239  0.6260  0.6033
  887MOL0     C19622  10.459   9.500   0.612  0.7571 -0.0444 -0.3163
  887MOL0     C19623  10.568   9.513   0.725  0.1680 -0.0223  0.2557
  887MOL0     C19624  10.703   9.555   0.671 -0.5939  0.3098 -0.4497
  887MOL0     C19625  10.779   9.462   0.577  0.6438  1.0963 -0.0171
  887MOL0     C19626  10.907   9.536   0.533 -0.4528  0.1465 -0.3588
  887MOL0     N19627  10.995   9.454   0.434  1.2114 -0.0441 -0.5271
  887MOL0     C19628  11.080   9.359   0.469 -0.3494  0.0636  0.6512
  887MOL0     C19629  11.113   9.300   0.345  0.7492 -0.3967 -0.5116
  887MOL0     C19630  11.203   9.181   0.324  0.5992  0.1140 -0.5419
  887MOL0     C19631  11.339   9.206   0.398 -0.3035  1.0066  0.6575
  887MOL0     C19632  11.411   9.313   0.319  0.7146  0.4372  0.2775
  887MOL0     C19633  11.558   9.322   0.337 -0.4415 -0.0327 -0.6725
  887MOL0     O19634  11.594   9.342   0.481 -0.2412  0.0910  0.0315
  887MOL0     C19635  11.721   9.309   0.509 -0.0344  0.8064  0.0563
  887MOL0     C19636  11.749   9.233   0.631 -0.6764 -0.3219  0.6402
  887MOL0     C19637  11.884   9.213   0.678  0.5902 -0.4265  0.4881
  887MOL0     C19638  11.996   9.250   0.602  0.9426  0.1329  0.7916
  887MOL0     C19639  12.131   9.249   0.661 -0.9760  0.2500  0.3768
  887MOL0     O19640  12.243   9.287   0.576  0.4033  0.6892  0.2198
  887MOL0     C19641  12.365   9.285   0.629 -0.0969 -0.5791 -0.4741
  887MOL0     C19642  12.401   9.392   0.714 -0.0159  0.2420 -0.1206
  887MOL0     C19643  12.526   9.403   0.773  0.7975 -0.3586 -0.2280
  887MOL0     C19644  12.630   9.321   0.734 -0.6144 -0.8108 -0.8839
  887MOL0     O19645  12.762   9.349   0.776  0.2751 -0.4854 -0.7881
  887MOL0     C19646  12.877   9.311   0.707 -0.1747  0.6911  0.3033
  887MOL0     C19647  12.977   9.422   0.753 -0.1244 -0.0015 -0.6323
  887MOL0     C19648  13.120   9.411   0.692  0.1814 -0.2656  0.0090
  887MOL0     C19649  13.189   9.546   0.681  0.0888 -1.1486  0.4172
  887MOL0     C19650  13.336   9.533   0.692 -0.6892 -0.2759  0.2250
  887MOL0     C19651  13.408   9.664   0.648 -0.2578 -0.2605 -1.1038
  887MOL0     C19652  13.554   9.644   0.700  0.3711 -0.6198 -0.5273
  887MOL0     C19653  13.651   9.743   0.625  0.8759 -0.9315 -0.0125
  887MOL0    Cl19654  13.815   9.691   0.668  0.0156  0.0946  0.3614
  887MOL0     C19655  12.600   9.216   0.646  0.1931  0.2678  0.4941
  887MOL0     C19656  12.464   9.206   0.594 -0.3325  0.2641 -0.2352
  887MOL0     O19657  12.146   9.205   0.781 -0.0060 -0.3719  0.1074
  887MOL0     C19658  11.965   9.313   0.478 -0.3967  0.4308  0.2646
  887MOL0     C19659  11.836   9.345   0.425  0.2844  0.1214  0.4680
  887MOL0     N19660  11.039   9.363   0.249  0.0167 -0.8871 -0.1269
  887MOL0     N19661  10.976   9.461   0.302  0.3496  0.6611  0.7260
  887MOL0     C19662   9.773   9.458   0.465 -0.7864  0.0457 -0.0114
  887MOL0     C19663   9.647   9.407   0.485 -0.5080  0.5854  0.3413
  887MOL0     C19664   9.311   9.140   0.562 -0.9996  0.8195  0.0349
  887MOL0     C19665   9.287   9.004   0.518  0.0419  0.0277  0.5314
  887MOL0     C19666   9.157   8.960   0.489  0.2074  0.3795  0.0671
  887MOL0     C19667   9.048   9.045   0.502 -0.5695  0.9084  0.0336
  887MOL0     O19668   8.912   9.015   0.473  0.3549  0.7134 -0.3439
  887MOL0     C19669   8.900   8.901   0.376 -0.0492  0.7442 -0.3424
  887MOL0     C19670   8.774   8.908   0.294  0.1239 -0.0690  0.0934
  887MOL0     C19671   8.646   8.889   0.369  0.1525  0.7308  0.1123
  887MOL0     C19672   8.511   8.931   0.306 -0.1119  0.2704  0.4086
  887MOL0     C19673   8.517   9.074   0.255  0.1537 -0.2270 -0.4392
  887MOL0     C19674   8.525   9.180   0.199 -0.0011 -0.8280  0.2865
  887MOL0     C19675   9.073   9.174   0.559  0.8828  0.8351 -0.6835
  887MOL0     C19676   9.201   9.229   0.580 -0.7519  0.7354 -0.5436
  887MOL0     C19677   9.193   9.375   0.622  0.1277  0.2340  0.4137
  887MOL0     H19678   9.650   9.340   0.807  0.8582 -0.0141  0.8360
  887MOL0     H19679   9.881   9.434   0.783  0.6539 -1.4613 -0.8004
  887MOL0     H19680  10.094   9.377   0.695  4.6136 -1.3246 -0.2172
  887MOL0     H19681  10.083   9.319   0.524  1.8769  0.7677 -0.7245
  887MOL0     H19682  10.200   9.581   0.524 -1.1260 -0.0710  1.4374
  887MOL0     H19683  10.273   9.433   0.464  1.7300 -1.2041  0.6067
  887MOL0     H19684  10.325   9.382   0.723  1.4584 -1.4102 -2.7145
  887MOL0     H19685  10.296   9.552   0.745 -0.1722  0.4858  0.7599
  887MOL0     H19686  10.490   9.422   0.542 -1.7936 -1.4241 -0.0176
  887MOL0     H19687  10.451   9.589   0.548  1.1684  0.5467  0.4403
  887MOL0     H19688  10.537   9.595   0.790 -0.9239  0.7014 -1.1257
  887MOL0     H19689  10.575   9.420   0.782 -1.7746 -0.4922 -0.2068
  887MOL0     H19690  10.689   9.649   0.617  2.8663  1.5335  0.5098
  887MOL0     H19691  10.766   9.581   0.757 -0.1132  0.1257 -0.7414
  887MOL0     H19692  10.721   9.439   0.488 -0.3148  1.5518  0.4667
  887MOL0     H19693  10.805   9.371   0.633 -1.4198  1.7622  2.2229
  887MOL0     H19694  10.875   9.634   0.497  5.1611  3.5629  2.6408
  887MOL0     H19695  10.966   9.550   0.623 -0.5944  2.3728 -0.5799
  887MOL0     H19696  11.103   9.332   0.571 -0.9121  1.2857  1.1156
  887MOL0     H19697  11.144   9.101   0.368  1.6068 -0.4956 -0.2663
  887MOL0     H19698  11.219   9.154   0.219  1.0655 -0.5091 -0.3170
  887MOL0     H19699  11.332   9.226   0.505  0.0572 -0.7144  1.0373
  887MOL0     H19700  11.402   9.116   0.389  1.2316  2.0821  0.1978
  887MOL0     H19701  11.358   9.404   0.347 -0.2589  0.2129 -0.7534
  887MOL0     H19702  11.400   9.288   0.213  1.0893  0.8146  0.1496
  887MOL0     H19703  11.577   9.414   0.281 -1.1444 -0.3223 -1.4030
  887MOL0     H19704  11.603   9.231   0.296 -0.4603 -1.6261  2.4805
  887MOL0     H19705  11.660   9.219   0.691 -0.5715 -0.8457  0.6808
  887MOL0     H19706  11.900   9.176   0.779  2.2418 -0.6484  0.1856
  887MOL0     H19707  12.322   9.462   0.737  1.9436  2.8614 -0.9050
  887MOL0     H19708  12.544   9.479   0.848 -1.2753  1.0068 -1.0354
  887MOL0     H19709  12.916   9.211   0.727 -0.5867  0.0141 -1.9813
  887MOL0     H19710  12.864   9.301   0.599 -0.1687 -0.3415  0.3848
  887MOL0     H19711  12.925   9.510   0.716 -0.5503  0.2036  0.4210
  887MOL0     H19712  12.977   9.420   0.862 -2.1583 -0.4411 -0.5970
  887MOL0     H19713  13.183   9.353   0.760  2.3813  0.5227 -1.2771
  887MOL0     H19714  13.131   9.357   0.598  1.0937 -0.9112  0.4686
  887MOL0     H19715  13.144   9.622   0.745 -1.3287 -0.4540 -1.3155
  887MOL0     H19716  13.180   9.594   0.583  4.1385  0.6456  0.7199
  887MOL0     H19717  13.372   9.446   0.636  0.8363  1.0311 -0.9013
  887MOL0     H19718  13.360   9.526   0.798 -4.0646  0.0967  1.1264
  887MOL0     H19719  13.419   9.668   0.539 -1.9674 -0.4285 -1.3044
  887MOL0     H19720  13.365   9.760   0.679  3.4925  1.2147  0.1582
  887MOL0     H19721  13.586   9.540   0.685  3.6381  0.4326 -1.7162
  887MOL0     H19722  13.563   9.663   0.808  1.9907 -2.0947 -0.3617
  887MOL0     H19723  13.635   9.720   0.519 -2.8703 -2.7604  0.7944
  887MOL0     H19724  13.633   9.847   0.653  0.0124 -1.4375  1.4284
  887MOL0     H19725  12.676   9.152   0.603  0.7066  1.9257 -1.2105
  887MOL0     H19726  12.433   9.138   0.516  0.0572  1.1711 -1.2042
  887MOL0     H19727  12.060   9.346   0.437 -0.3718  0.6986  0.5357
  887MOL0     H19728  11.809   9.401   0.335 -2.2960  1.1589  1.7802
  887MOL0     H19729   9.812   9.500   0.373 -0.2626  0.4085  0.3749
  887MOL0     H19730   9.596   9.396   0.390  0.2851  0.4575 -0.0791
  887MOL0     H19731   9.366   8.934   0.493  1.0502  1.5408 -0.6328
  887MOL0     H19732   9.146   8.858   0.456 -0.9856  0.5019  0.0483
  887MOL0     H19733   8.904   8.805   0.429 -2.7476  0.5259 -0.3767
  887MOL0     H19734   8.973   8.910   0.295 -0.0948  1.0909 -0.3462
  887MOL0     H19735   8.777   8.844   0.206  0.4585 -1.1522  0.8807
  887MOL0     H19736   8.768   9.007   0.247  1.1018 -0.1516 -0.2189
  887MOL0     H19737   8.660   8.945   0.462  1.7660 -0.1613  0.4452
  887MOL0     H19738   8.637   8.786   0.405 -1.9015  1.4656  1.9212
  887MOL0     H19739   8.477   8.863   0.226 -0.4714  0.8258  0.0829
  887MOL0     H19740   8.439   8.933   0.388 -0.2658  1.0199  0.2675
  887MOL0     H19741   8.540   9.273   0.148  0.5102 -1.5339 -0.8974
  887MOL0     H19742   8.976   9.219   0.580 -1.4321 -4.0799  0.7266
  887MOL0     H19743   9.260   9.396   0.706 -0.1351  0.6351  0.5270
  887MOL0     H19744   9.219   9.427   0.530  0.9397  1.1191  1.1276
  887MOL0     H19745   9.092   9.392   0.661  0.2334 -1.9603  1.8263
  888MOL0     O19746   4.068  10.005   8.519  0.0836 -0.0742  0.1765
  888MOL0     C19747   3.993  10.075   8.452  0.0970 -0.4969  0.0630
  888MOL0     O19748   3.997  10.085   8.323 -0.2568 -0.2373 -0.1045
  888MOL0     C19749   4.086   9.997   8.255  0.8030  0.4103  0.6297
  888MOL0     C19750   4.209  10.036   8.188  0.0772  0.5677 -0.3838
  888MOL0     C19751   4.293   9.942   8.131  0.1784  0.1427 -0.5761
  888MOL0     C19752   4.255   9.808   8.134 -1.1272  0.8140 -0.6770
  888MOL0     O19753   4.321   9.705   8.067  0.0150 -0.6544  0.1788
  888MOL0     C19754   4.464   9.715   8.037 -0.2701 -0.0451  0.2507
  888MOL0     C19755   4.522   9.578   8.016 -0.4997  0.6956 -0.5535
  888MOL0     C19756   4.678   9.573   7.985 -0.1915  0.5150 -0.3826
  888MOL0     C19757   4.745   9.434   7.998 -0.5241  0.1883 -0.8023
  888MOL0     C19758   4.896   9.435   7.972 -0.2368  0.0071  0.2329
  888MOL0     C19759   4.954   9.291   7.975  0.3323  0.4335 -0.8357
  888MOL0     C19760   5.102   9.276   7.949  0.1158 -0.0565  0.3248
  888MOL0     C19761   5.142   9.127   7.974 -1.0110  0.3545  0.2420
  888MOL0     N19762   5.290   9.107   7.943  0.4635 -0.2447  0.1191
  888MOL0     C19763   5.350   9.023   7.846 -1.2000 -0.1421 -0.0910
  888MOL0     C19764   5.482   9.038   7.866  0.6672 -0.0127  0.4035
  888MOL0     C19765   5.588   8.950   7.815  0.1151  0.1546 -0.3077
  888MOL0     C19766   5.690   9.027   7.720  0.3641  0.7530  0.4258
  888MOL0     C19767   5.826   8.950   7.725  0.0639 -0.8644  0.1694
  888MOL0     C19768   5.923   8.993   7.623  0.3801 -0.1657  0.5467
  888MOL0     O19769   6.037   8.915   7.625  0.0566 -0.2476  0.2429
  888MOL0     C19770   6.153   8.959   7.554  0.7972  0.0697 -0.3608
  888MOL0     C19771   6.266   8.877   7.571  0.5136 -0.1964 -0.1051
  888MOL0     C19772   6.387   8.909   7.514  0.5059  0.7405  0.0333
  888MOL0     C19773   6.402   9.011   7.423  0.0498  0.3487 -0.1938
  888MOL0     C19774   6.530   9.031   7.352  0.1514 -0.2563 -0.7531
  888MOL0     O19775   6.551   9.149   7.282 -0.7222 -0.6946 -0.2192
  888MOL0     C19776   6.669   9.143   7.205 -0.3525  0.1591 -0.0653
  888MOL0     C19777   6.667   9.058   7.095  0.5993 -0.5211 -0.6585
  888MOL0     C19778   6.774   9.049   7.009  0.3556  0.1844  0.1526
  888MOL0     C19779   6.891   9.122   7.031  0.9227 -0.5962 -0.1816
  888MOL0     O19780   6.999   9.102   6.947 -0.4283  0.5984 -0.2968
  888MOL0     C19781   7.102   9.204   6.941 -0.2676  0.0737 -0.1962
  888MOL0     C19782   7.196   9.171   6.832 -0.3948  0.4120  0.4335
  888MOL0     C19783   7.143   9.209   6.700  0.8294  0.4741  0.2383
  888MOL0     C19784   7.212   9.334   6.650  0.4115  0.1934  0.3377
  888MOL0     C19785   7.144   9.392   6.515  0.0082  0.0618 -0.0331
  888MOL0     C19786   7.241   9.466   6.425 -0.3386 -0.3734  0.3848
  888MOL0     C19787   7.345   9.377   6.351 -0.3456  0.0483  0.7298
  888MOL0     C19788   7.408   9.456   6.238 -0.6504  0.1564  0.4906
  888MOL0    Cl19789   7.526   9.354   6.150 -0.1991 -0.2486  0.1175
  888MOL0     C19790   6.888   9.206   7.141  0.2579  0.2419 -0.8148
  888MOL0     C19791   6.786   9.216   7.228 -0.2266  0.6021  0.2530
  888MOL0     O19792   6.610   8.941   7.363  0.0673  0.0793  0.0779
  888MOL0     C19793   6.294   9.096   7.403  0.2645  0.0688  0.1175
  888MOL0     C19794   6.168   9.077   7.479 -0.2176  0.0667 -0.0356
  888MOL0     N19795   5.504   9.155   7.937 -0.2195  0.2382  0.3311
  888MOL0     N19796   5.381   9.203   7.969 -0.8748  0.0768  0.6012
  888MOL0     C19797   4.142   9.759   8.196  0.7887  0.0961 -0.1971
  888MOL0     C19798   4.060   9.861   8.258  0.4603  0.1910 -0.3207
  888MOL0     C19799   3.896  10.159   8.532  0.0707 -0.0815 -0.3655
  888MOL0     C19800   3.814  10.241   8.460 -0.5018  0.3503 -0.4808
  888MOL0     C19801   3.713  10.317   8.518  0.4025  0.3917  0.3759
  888MOL0     C19802   3.692  10.315   8.656 -0.4487  0.7399  0.4148
  888MOL0     O19803   3.598  10.386   8.724  0.2785  0.0030  0.0039
  888MOL0     C19804   3.525  10.496   8.672 -0.2116 -0.7023  0.7454
  888MOL0     C19805   3.383  10.467   8.641  0.2802  1.5689 -0.0269
  888MOL0     C19806   3.290  10.462   8.764  0.2022  0.4686 -0.3997
  888MOL0     C19807   3.147  10.484   8.727  1.0622  0.4864 -0.6710
  888MOL0     C19808   3.061  10.459   8.841 -0.4507 -0.6162 -0.5458
  888MOL0     C19809   2.983  10.472   8.930  0.1618  0.4891  0.8964
  888MOL0     C19810   3.783  10.243   8.736 -0.7239 -0.5967  0.2968
  888MOL0     C19811   3.883  10.160   8.678  0.5805  0.9456 -1.0315
  888MOL0     C19812   3.965  10.077   8.775  0.3325 -0.1871 -0.5674
  888MOL0     H19813   4.240  10.140   8.180 -0.2964  0.6196 -1.2049
  888MOL0     H19814   4.383   9.983   8.084 -0.0563  0.3290 -0.8671
  888MOL0     H19815   4.464   9.774   7.945 -1.0415  0.6064  0.6552
  888MOL0     H19816   4.520   9.768   8.115 -0.5410  0.8379 -0.1369
  888MOL0     H19817   4.476   9.522   7.935 -1.8289  1.0092 -0.0413
  888MOL0     H19818   4.517   9.521   8.109 -0.1944  1.3419 -0.1311
  888MOL0     H19819   4.738   9.647   8.039 -0.5848  2.2240 -2.1660
  888MOL0     H19820   4.679   9.594   7.878  1.0744 -1.4265 -0.7857
  888MOL0     H19821   4.725   9.394   8.098 -0.4887 -1.6543 -1.4984
  888MOL0     H19822   4.699   9.359   7.933 -0.5379 -0.7025  0.2056
  888MOL0     H19823   4.902   9.466   7.867 -0.3776  0.3271  0.3192
  888MOL0     H19824   4.945   9.513   8.030 -2.4970  0.8967  1.0479
  888MOL0     H19825   4.929   9.255   8.075  1.5373 -0.1696 -0.7380
  888MOL0     H19826   4.910   9.230   7.896 -0.2495  0.4412 -0.5176
  888MOL0     H19827   5.148   9.349   8.015 -1.1059 -0.3434  1.5281
  888MOL0     H19828   5.128   9.293   7.844  1.7200  0.6151  0.8112
  888MOL0     H19829   5.136   9.101   8.081  0.9789 -1.1170  0.0519
  888MOL0     H19830   5.091   9.054   7.912 -0.9727  1.0077 -0.5649
  888MOL0     H19831   5.307   8.944   7.784 -2.0578 -1.3328  1.9238
  888MOL0     H19832   5.641   8.908   7.901  1.2829  3.1305  0.5619
  888MOL0     H19833   5.535   8.869   7.764 -0.7165 -0.3885  1.3553
  888MOL0     H19834   5.648   9.034   7.620  3.4088  2.7633 -0.8759
  888MOL0     H19835   5.705   9.127   7.762 -0.2029  0.1085  2.2711
  888MOL0     H19836   5.810   8.841   7.729 -0.0475 -1.0588 -3.1921
  888MOL0     H19837   5.866   8.972   7.825  0.4398 -3.0286  0.5544
  888MOL0     H19838   5.944   9.100   7.629 -1.2177  0.1711  0.7165
  888MOL0     H19839   5.874   8.984   7.525  1.4044 -1.9430  0.1675
  888MOL0     H19840   6.253   8.790   7.635  2.8726 -1.0617 -0.7035
  888MOL0     H19841   6.472   8.848   7.543  1.2392  1.2205 -1.0516
  888MOL0     H19842   6.576   9.001   7.078 -0.3484  1.0024 -0.9064
  888MOL0     H19843   6.759   8.989   6.920 -1.9308  0.0947  0.5330
  888MOL0     H19844   7.054   9.303   6.937 -0.4507 -0.0405 -2.9470
  888MOL0     H19845   7.155   9.191   7.035 -1.1571 -0.8110  0.2040
  888MOL0     H19846   7.292   9.218   6.855 -0.3173  0.6187 -0.2863
  888MOL0     H19847   7.219   9.064   6.829 -2.2666 -0.0340 -2.5545
  888MOL0     H19848   7.147   9.125   6.630 -3.7690 -0.8940  1.2947
  888MOL0     H19849   7.037   9.234   6.705  0.5023 -0.8574  0.2640
  888MOL0     H19850   7.317   9.305   6.636  0.5871  1.2506 -0.7256
  888MOL0     H19851   7.217   9.413   6.726  0.8110  0.4691  0.0275
  888MOL0     H19852   7.061   9.454   6.550 -0.0850  0.1211 -0.3511
  888MOL0     H19853   7.106   9.308   6.456 -2.5366  2.1670 -1.6085
  888MOL0     H19854   7.183   9.515   6.346  2.4283  0.4400 -1.2706
  888MOL0     H19855   7.299   9.541   6.481  0.8767  0.8341 -2.3006
  888MOL0     H19856   7.296   9.286   6.313  2.3402 -0.9904 -0.5406
  888MOL0     H19857   7.423   9.339   6.418  0.0734  1.4289  1.0467
  888MOL0     H19858   7.330   9.480   6.165 -0.3620 -2.3497 -0.7635
  888MOL0     H19859   7.455   9.548   6.273 -0.5492  0.0263  0.7017
  888MOL0     H19860   6.984   9.258   7.141  0.5006  0.0301 -4.4004
  888MOL0     H19861   6.793   9.286   7.311  0.0250 -0.2026  0.9209
  888MOL0     H19862   6.298   9.181   7.336  0.3988 -0.9064 -1.1558
  888MOL0     H19863   6.099   9.160   7.469  2.1269  2.3774  1.8090
  888MOL0     H19864   4.119   9.653   8.192  0.9649  0.0159  0.6367
  888MOL0     H19865   3.968   9.827   8.304 -0.3873  3.9768  1.0735
  888MOL0     H19866   3.815  10.260   8.353  1.6393 -0.3045 -0.6164
  888MOL0     H19867   3.658  10.383   8.452 -1.3256  0.5224  1.8559
  888MOL0     H19868   3.577  10.542   8.588  3.3423  1.5371  3.8178
  888MOL0     H19869   3.530  10.580   8.742  2.2588  1.6923 -2.0451
  888MOL0     H19870   3.386  10.366   8.599 -2.8059  0.6084  1.7351
  888MOL0     H19871   3.349  10.543   8.570  1.6041  5.6283  3.2313
  888MOL0     H19872   3.317  10.539   8.837 -2.1720  0.5425  0.4998
  888MOL0     H19873   3.279  10.363   8.807 -2.0998  0.6258 -0.4940
  888MOL0     H19874   3.130  10.584   8.686 -1.5996 -0.5932 -2.4717
  888MOL0     H19875   3.125  10.405   8.655 -1.5782 -1.8017  2.3171
  888MOL0     H19876   2.922  10.478   9.018  1.4163 -1.3182  1.9705
  888MOL0     H19877   3.783  10.261   8.843 -1.2247 -1.2850  0.4140
  888MOL0     H19878   4.070  10.087   8.747  1.6018 -2.4578  2.7234
  888MOL0     H19879   3.956  10.117   8.877 -0.7051 -1.8227  0.0138
  888MOL0     H19880   3.935   9.972   8.774 -0.6236  0.0480  0.4053
  889MOL0     O19881   4.859   3.308   7.093 -0.4172  0.1097 -0.3258
  889MOL0     C19882   4.809   3.217   7.155  0.5197  0.4642 -0.1118
  889MOL0     O19883   4.856   3.170   7.277 -0.4864 -0.0790  0.5325
  889MOL0     C19884   4.959   3.232   7.355 -0.6400  0.4227  0.2922
  889MOL0     C19885   4.969   3.187   7.489 -0.2196 -0.2448 -0.4614
  889MOL0     C19886   5.075   3.228   7.569 -0.6070 -0.0986  0.2335
  889MOL0     C19887   5.176   3.310   7.523 -0.1675  0.0727 -0.5541
  889MOL0     O19888   5.277   3.361   7.596  0.4634  0.0482 -0.1330
  889MOL0     C19889   5.301   3.312   7.732 -0.9381 -0.0511 -0.6204
  889MOL0     C19890   5.438   3.354   7.787 -0.0848  0.6230 -0.0155
  889MOL0     C19891   5.428   3.383   7.941  0.2712  1.0718 -0.2418
  889MOL0     C19892   5.359   3.519   7.984 -0.8776 -0.3521 -0.0681
  889MOL0     C19893   5.383   3.549   8.130  0.2225  0.5545 -0.0344
  889MOL0     C19894   5.278   3.649   8.181  0.2764 -0.3285 -0.5863
  889MOL0     C19895   5.315   3.680   8.329 -0.2592 -0.8389 -0.0121
  889MOL0     C19896   5.228   3.785   8.408 -0.5436  1.4756  0.4887
  889MOL0     N19897   5.210   3.918   8.344  0.1806  0.1470  0.7308
  889MOL0     C19898   5.148   3.943   8.227 -0.1174 -0.1567  0.3799
  889MOL0     C19899   5.167   4.077   8.205  0.1052  0.8126  0.0833
  889MOL0     C19900   5.149   4.142   8.074  0.7456  0.0496  0.7926
  889MOL0     C19901   5.077   4.281   8.092 -0.6668  0.2242  0.5443
  889MOL0     C19902   4.947   4.267   8.173  1.4625  0.1261  0.1906
  889MOL0     C19903   4.831   4.233   8.081  0.0290 -0.5328  0.3323
  889MOL0     O19904   4.837   4.100   8.028  1.0754 -0.0109  0.4512
  889MOL0     C19905   4.736   4.067   7.941  0.4993 -0.2083 -0.5016
  889MOL0     C19906   4.607   4.125   7.941 -0.1261 -0.1269 -0.6843
  889MOL0     C19907   4.504   4.070   7.863  0.2020  0.4107  0.3211
  889MOL0     C19908   4.531   3.961   7.777 -0.3820  1.3060  0.7387
  889MOL0     C19909   4.432   3.913   7.679  0.8077  0.1297 -0.0651
  889MOL0     O19910   4.327   3.990   7.664 -0.2160 -0.6364  0.3589
  889MOL0     C19911   4.215   3.956   7.592  0.7358 -0.9784  0.9415
  889MOL0     C19912   4.177   3.829   7.560 -0.0489 -0.7932 -0.7841
  889MOL0     C19913   4.062   3.810   7.489  0.6722 -0.5730 -0.2761
  889MOL0     C19914   3.980   3.912   7.432  0.0529 -0.2241 -0.4785
  889MOL0     O19915   3.872   3.877   7.360 -0.4876  0.4092  0.6151
  889MOL0     C19916   3.744   3.925   7.401  0.2326  0.1304  0.0891
  889MOL0     C19917   3.658   3.814   7.440  0.4227 -0.6027  0.7420
  889MOL0     C19918   3.516   3.863   7.439 -0.8662  0.1942  0.9498
  889MOL0     C19919   3.411   3.759   7.454  0.4883  0.2401 -0.9216
  889MOL0     C19920   3.266   3.817   7.484  0.7079  0.4537  0.1982
  889MOL0     C19921   3.171   3.714   7.546  0.0643  0.3278 -0.3532
  889MOL0     C19922   3.020   3.759   7.567  0.1603 -0.0411  0.6479
  889MOL0     C19923   2.929   3.632   7.582 -0.1887 -0.3292 -0.1869
  889MOL0    Cl19924   2.919   3.552   7.425  0.2701  0.3971 -0.1046
  889MOL0     C19925   4.028   4.040   7.469  0.2883  0.6126  0.7206
  889MOL0     C19926   4.152   4.067   7.534  0.3733 -0.0112  0.2431
  889MOL0     O19927   4.462   3.817   7.610 -0.2726 -0.1050  0.0181
  889MOL0     C19928   4.659   3.906   7.788  0.2250  0.1639 -0.6726
  889MOL0     C19929   4.753   3.951   7.876 -0.9903  0.2589  1.4002
  889MOL0     N19930   5.250   4.119   8.308  0.7600 -0.2096 -0.3055
  889MOL0     N19931   5.272   4.023   8.394 -0.1666 -0.3301  0.1082
  889MOL0     C19932   5.180   3.341   7.386 -0.3161  0.0078  0.4657
  889MOL0     C19933   5.072   3.299   7.310  0.3000  0.1102 -0.1262
  889MOL0     C19934   4.680   3.163   7.107  0.5929  0.5571 -0.1674
  889MOL0     C19935   4.605   3.237   7.014 -0.3425 -0.0554 -0.0103
  889MOL0     C19936   4.475   3.197   6.977 -0.3853 -0.6378 -0.3216
  889MOL0     C19937   4.420   3.083   7.033 -0.2881  0.1815 -0.1342
  889MOL0     O19938   4.293   3.030   7.006  0.0142 -0.7841 -0.1552
  889MOL0     C19939   4.194   3.119   6.962  0.2789 -0.3865  0.2562
  889MOL0     C19940   4.057   3.049   6.957 -0.8711  0.1219  0.7077
  889MOL0     C19941   4.054   2.963   6.821 -0.1804  0.2633 -0.1769
  889MOL0     C19942   3.930   2.869   6.818  0.2448 -0.2387  0.8354
  889MOL0     C19943   3.805   2.945   6.822  0.3593 -0.9851 -0.8663
  889MOL0     C19944   3.696   3.001   6.822 -1.2947  0.2575 -0.3258
  889MOL0     C19945   4.500   3.003   7.115  1.0668 -0.0174 -0.2893
  889MOL0     C19946   4.629   3.032   7.147  0.4586 -0.5259  0.4552
  889MOL0     C19947   4.700   2.929   7.232 -0.5633 -1.3117 -0.2484
  889MOL0     H19948   4.891   3.126   7.533 -0.1254 -0.0580 -0.0284
  889MOL0     H19949   5.074   3.197   7.673  4.3798 -1.1985  0.1687
  889MOL0     H19950   5.214   3.340   7.792  0.0633 -2.1663  2.0020
  889MOL0     H19951   5.302   3.203   7.739  0.4986 -0.0697 -0.8515
  889MOL0     H19952   5.470   3.446   7.736 -0.4420  0.2374 -0.9648
  889MOL0     H19953   5.511   3.275   7.771 -0.6371  0.2238 -0.6047
  889MOL0     H19954   5.530   3.385   7.981  0.1593  1.1734  0.0379
  889MOL0     H19955   5.372   3.308   7.998 -0.6984  2.3123  0.4815
  889MOL0     H19956   5.399   3.606   7.931 -1.5823 -0.0579 -0.1277
  889MOL0     H19957   5.251   3.512   7.969 -0.8106 -2.3166  0.0637
  889MOL0     H19958   5.377   3.462   8.195 -1.6385  0.6248 -0.0622
  889MOL0     H19959   5.486   3.586   8.131  0.6911 -0.7392  0.9916
  889MOL0     H19960   5.281   3.740   8.121  0.2702 -1.3559 -2.2175
  889MOL0     H19961   5.175   3.613   8.172 -0.3384  0.9417  0.9218
  889MOL0     H19962   5.414   3.727   8.334 -1.1241  1.0574  0.0841
  889MOL0     H19963   5.319   3.586   8.386 -2.0340 -3.0401 -3.2141
  889MOL0     H19964   5.130   3.737   8.420  0.0358 -0.0231 -0.5052
  889MOL0     H19965   5.266   3.791   8.511 -1.0858 -1.5055  0.9455
  889MOL0     H19966   5.105   3.874   8.156  0.4940 -1.4834  1.2690
  889MOL0     H19967   5.245   4.150   8.022  1.5581 -2.3660  1.8041
  889MOL0     H19968   5.080   4.080   8.016 -1.6456  1.1793  2.2889
  889MOL0     H19969   5.149   4.334   8.155 -3.0988  0.3829  3.4015
  889MOL0     H19970   5.060   4.332   7.997  0.2578  0.5819  0.5595
  889MOL0     H19971   4.926   4.361   8.225  0.7288  0.2263 -0.2681
  889MOL0     H19972   4.943   4.191   8.252 -0.4618 -0.5640 -0.5057
  889MOL0     H19973   4.820   4.298   7.994  1.8815 -2.5189 -1.5050
  889MOL0     H19974   4.738   4.242   8.139 -0.9236 -1.5994 -0.9676
  889MOL0     H19975   4.570   4.207   8.000 -0.3673 -2.2322  2.3229
  889MOL0     H19976   4.413   4.128   7.858 -0.6764 -0.7540  1.6688
  889MOL0     H19977   4.239   3.748   7.596  1.4875  1.7089  2.7589
  889MOL0     H19978   4.038   3.705   7.479 -0.4165 -0.3978  0.2895
  889MOL0     H19979   3.739   3.992   7.487 -0.7723 -2.3554  2.1321
  889MOL0     H19980   3.700   3.980   7.318  0.5001  1.4860  0.8275
  889MOL0     H19981   3.664   3.728   7.374  1.5636 -1.1548  1.5212
  889MOL0     H19982   3.684   3.789   7.544  2.7723  1.8815  0.8758
  889MOL0     H19983   3.502   3.948   7.506  0.4978  0.7120  0.6038
  889MOL0     H19984   3.503   3.897   7.336  1.3496 -2.6132 -0.4020
  889MOL0     H19985   3.441   3.695   7.538 -0.3452 -0.0426 -0.8306
  889MOL0     H19986   3.407   3.699   7.363  0.7943 -0.8715 -0.2141
  889MOL0     H19987   3.222   3.864   7.395  0.1748  1.2032  0.8472
  889MOL0     H19988   3.274   3.898   7.556  1.8221 -0.9049  1.6759
  889MOL0     H19989   3.167   3.625   7.483  0.3346  0.5876 -0.7453
  889MOL0     H19990   3.215   3.682   7.641 -0.6924  1.1127  0.2863
  889MOL0     H19991   2.988   3.816   7.480  0.4767  2.3163  1.9905
  889MOL0     H19992   3.000   3.822   7.654 -0.2227  0.4776  0.1842
  889MOL0     H19993   2.967   3.563   7.658 -2.1889 -0.4941  0.7348
  889MOL0     H19994   2.832   3.669   7.617 -0.0515 -0.3451  0.2140
  889MOL0     H19995   3.977   4.127   7.431  0.8134 -0.0443 -1.6890
  889MOL0     H19996   4.195   4.166   7.546  1.7187 -0.4408 -0.7391
  889MOL0     H19997   4.692   3.830   7.717  0.1759 -0.4761 -0.0184
  889MOL0     H19998   4.844   3.892   7.887 -0.6574  0.6595  0.8614
  889MOL0     H19999   5.265   3.398   7.350  2.7749 -3.9643  0.8003
  889MOL0     H20000   5.062   3.340   7.210 -1.9350  2.2814  0.8809
  889MOL0     H20001   4.641   3.321   6.956 -2.1964 -1.6832 -3.9263
  889MOL0     H20002   4.421   3.252   6.900  1.2538 -0.5232 -1.4533
  889MOL0     H20003   4.225   3.151   6.862 -0.9811  3.2858  0.8782
  889MOL0     H20004   4.174   3.203   7.029 -3.4466 -1.7564  1.0659
  889MOL0     H20005   3.977   3.122   6.963 -0.6566  0.3006  1.4650
  889MOL0     H20006   4.038   2.979   7.038  0.3149 -1.7947 -0.5741
  889MOL0     H20007   4.154   2.922   6.804 -0.4939 -0.5314 -0.1851
  889MOL0     H20008   4.049   3.035   6.739  1.1574 -0.4437 -0.9103
  889MOL0     H20009   3.926   2.802   6.731  0.0095  1.4821 -0.5340
  889MOL0     H20010   3.927   2.802   6.904  0.5244 -0.4829  0.6580
  889MOL0     H20011   3.614   3.071   6.820  0.6175  2.6330 -0.7822
  889MOL0     H20012   4.457   2.912   7.153 -0.9276  0.4959 -1.1892
  889MOL0     H20013   4.681   2.829   7.194 -2.3012 -1.4722  0.9106
  889MOL0     H20014   4.808   2.940   7.249 -0.2112  0.9134 -3.2047
  889MOL0     H20015   4.668   2.935   7.337 -0.0271 -1.0261 -0.0955
  890MOL0     O20016   6.848   8.357   3.743 -0.8125 -0.4313 -0.3059
  890MOL0     C20017   6.912   8.257   3.773  0.4374 -0.4369 -0.7286
  890MOL0     O20018   7.048   8.249   3.777  0.2802  0.1905 -0.1804
  890MOL0     C20019   7.138   8.323   3.712  0.0115  0.4820  0.4420
  890MOL0     C20020   7.270   8.326   3.762  0.7526  0.2193  0.0963
  890MOL0     C20021   7.366   8.408   3.706  0.3209  0.6087 -0.4684
  890MOL0     C20022   7.341   8.485   3.591 -0.2890  0.1052 -0.5216
  890MOL0     O20023   7.452   8.569   3.554  0.7746 -0.2557 -0.1622
  890MOL0     C20024   7.429   8.644   3.433  0.0162  0.4297  0.2244
  890MOL0     C20025   7.533   8.758   3.429 -0.3775  0.0129 -0.0814
  890MOL0     C20026   7.674   8.703   3.394  0.2349  1.0303  0.2963
  890MOL0     C20027   7.774   8.819   3.382  0.2930  0.0894  0.7465
  890MOL0     C20028   7.913   8.766   3.332  0.0665 -0.6289 -0.4242
  890MOL0     C20029   8.032   8.870   3.336 -0.4836  1.4343 -0.5497
  890MOL0     C20030   8.168   8.803   3.294 -0.6197  0.3549  0.1726
  890MOL0     C20031   8.273   8.907   3.308 -0.2203  0.1212  0.2158
  890MOL0     N20032   8.402   8.855   3.244 -0.3371 -0.3029 -0.5280
  890MOL0     C20033   8.472   8.752   3.294  0.1077 -0.3031 -0.6309
  890MOL0     C20034   8.595   8.774   3.279 -0.4596 -1.4539 -0.0283
  890MOL0     C20035   8.704   8.688   3.324 -0.2229 -0.2387  0.4210
  890MOL0     C20036   8.749   8.592   3.216 -0.4906  1.0329  0.0230
  890MOL0     C20037   8.778   8.660   3.078 -0.7466 -0.1169  0.5475
  890MOL0     C20038   8.840   8.570   2.972 -0.2822  0.2783 -0.7526
  890MOL0     O20039   8.954   8.497   3.023  0.1064 -0.3323  0.0793
  890MOL0     C20040   9.078   8.560   3.029  0.2545  0.6724  0.2186
  890MOL0     C20041   9.111   8.691   2.991 -0.1273  0.7314 -0.1043
  890MOL0     C20042   9.240   8.746   2.999 -0.3246 -0.2866  0.7203
  890MOL0     C20043   9.342   8.671   3.064 -0.0087 -0.2127  0.0588
  890MOL0     C20044   9.481   8.727   3.079 -0.1083  0.4597 -0.2718
  890MOL0     O20045   9.570   8.641   3.138  0.2345 -0.1997 -0.1308
  890MOL0     C20046   9.704   8.671   3.145  0.4760 -0.2600 -0.6491
  890MOL0     C20047   9.746   8.793   3.202  0.4238  0.1595  0.1934
  890MOL0     C20048   9.881   8.818   3.231  0.4456  0.2227  0.8849
  890MOL0     C20049   9.975   8.717   3.208  0.0577  0.4030  0.4575
  890MOL0     O20050  10.103   8.755   3.258 -0.1924  0.1138  0.3390
  890MOL0     C20051  10.193   8.641   3.284  0.2594  0.1081 -0.2387
  890MOL0     C20052  10.336   8.683   3.336  0.0568 -0.2866  0.5772
  890MOL0     C20053  10.395   8.788   3.243 -0.6250 -1.0797 -0.0613
  890MOL0     C20054  10.539   8.820   3.270 -0.8335  0.1541  0.0048
  890MOL0     C20055  10.634   8.742   3.177  0.1993 -0.4556 -0.4098
  890MOL0     C20056  10.781   8.773   3.192 -0.9716 -0.4593 -0.3282
  890MOL0     C20057  10.827   8.916   3.159  0.2885  0.2805  0.3063
  890MOL0     C20058  10.950   8.945   3.247  0.3674  0.0748  1.1037
  890MOL0    Cl20059  11.093   8.868   3.185  0.4338  0.2223 -0.6671
  890MOL0     C20060   9.934   8.599   3.143 -0.0952 -0.1615  0.0702
  890MOL0     C20061   9.802   8.579   3.111  0.1394  1.0179 -0.0816
  890MOL0     O20062   9.503   8.842   3.042  0.6147 -0.4455 -0.1496
  890MOL0     C20063   9.312   8.538   3.094  0.8118 -0.2611 -0.1979
  890MOL0     C20064   9.183   8.484   3.076  0.1913 -0.5594  0.2661
  890MOL0     N20065   8.608   8.899   3.214  0.0340 -0.4949 -0.2187
  890MOL0     N20066   8.490   8.951   3.198 -0.0095 -0.3962  0.3547
  890MOL0     C20067   7.215   8.479   3.534 -0.0207  0.2023 -0.6229
  890MOL0     C20068   7.107   8.410   3.603 -0.0964 -0.5702  0.5578
  890MOL0     C20069   6.843   8.131   3.825  0.4215 -0.5526  0.7163
  890MOL0     C20070   6.918   8.012   3.826  0.3270  0.2271  1.1668
  890MOL0     C20071   6.863   7.897   3.889  0.2037 -0.1051  0.0820
  890MOL0     C20072   6.734   7.894   3.943  0.3621 -0.4401 -0.6615
  890MOL0     O20073   6.695   7.764   3.985  0.0799 -0.6265 -0.6102
  890MOL0     C20074   6.585   7.717   3.911 -0.3059  0.4807  0.2905
  890MOL0     C20075   6.545   7.586   3.980  0.9248 -0.2264 -0.5166
  890MOL0     C20076   6.450   7.599   4.096  0.1863 -0.6489 -0.1218
  890MOL0     C20077   6.298   7.576   4.065 -0.1138  0.3525 -0.2803
  890MOL0     C20078   6.217   7.590   4.178  0.5235 -0.5278  0.6711
  890MOL0     C20079   6.146   7.606   4.271  0.3304  0.2211  0.0331
  890MOL0     C20080   6.654   8.008   3.929 -0.4000 -0.5108 -0.3673
  890MOL0     C20081   6.703   8.125   3.877 -0.0233  0.0579  0.1970
  890MOL0     C20082   6.621   8.248   3.900  0.0867 -0.1200 -0.7506
  890MOL0     H20083   7.289   8.266   3.851 -4.3371 -3.9600 -1.1291
  890MOL0     H20084   7.458   8.429   3.759  0.3368  2.6154 -1.2201
  890MOL0     H20085   7.434   8.586   3.341 -1.0987  0.9526 -0.1897
  890MOL0     H20086   7.333   8.697   3.434 -0.7666 -0.8694 -1.4935
  890MOL0     H20087   7.527   8.810   3.525  1.7591  0.9093 -0.3716
  890MOL0     H20088   7.504   8.826   3.348 -1.6555 -1.6749 -1.1181
  890MOL0     H20089   7.683   8.640   3.305 -1.3141  0.2152  0.6988
  890MOL0     H20090   7.703   8.636   3.475  1.0548  2.4163  1.1904
  890MOL0     H20091   7.737   8.877   3.297 -3.3753 -2.2564  0.5169
  890MOL0     H20092   7.768   8.882   3.472 -2.0776  1.2077 -0.1325
  890MOL0     H20093   7.950   8.688   3.398  3.7641  1.2148 -0.0455
  890MOL0     H20094   7.905   8.724   3.231  1.0651  0.7092 -1.0975
  890MOL0     H20095   8.009   8.958   3.275  1.1878  0.8129 -2.1520
  890MOL0     H20096   8.030   8.905   3.440 -1.9959 -0.5150  0.1498
  890MOL0     H20097   8.164   8.773   3.189  1.1916  1.0733 -0.1407
  890MOL0     H20098   8.193   8.712   3.350  1.4062  1.5718  1.3786
  890MOL0     H20099   8.244   8.993   3.247 -0.2637 -2.1795 -3.2580
  890MOL0     H20100   8.295   8.932   3.413  0.9442 -0.9159  0.2443
  890MOL0     H20101   8.429   8.674   3.356  1.4986  0.1193  0.9341
  890MOL0     H20102   8.792   8.744   3.357  0.4069 -0.4573 -0.8284
  890MOL0     H20103   8.672   8.621   3.404 -1.2199 -1.5530 -1.0045
  890MOL0     H20104   8.833   8.533   3.254  0.6936  3.2576  1.0474
  890MOL0     H20105   8.665   8.523   3.199 -0.2512  0.8544 -0.4550
  890MOL0     H20106   8.839   8.746   3.104 -0.0932 -0.4010 -0.0236
  890MOL0     H20107   8.684   8.696   3.034 -0.2723 -1.4079 -1.6763
  890MOL0     H20108   8.866   8.620   2.878  0.5285  2.2393  0.4298
  890MOL0     H20109   8.769   8.491   2.946  0.9835 -1.7532  1.5936
  890MOL0     H20110   9.033   8.748   2.942 -0.3211  0.2009 -0.4231
  890MOL0     H20111   9.264   8.848   2.974  0.8721 -0.6820  0.2306
  890MOL0     H20112   9.673   8.868   3.230  0.3961  0.7211 -1.3009
  890MOL0     H20113   9.918   8.912   3.272  2.4134  0.7503 -1.8499
  890MOL0     H20114  10.144   8.572   3.353  0.5958 -0.6128 -0.7090
  890MOL0     H20115  10.217   8.588   3.191  0.8648  0.9576 -0.5760
  890MOL0     H20116  10.325   8.713   3.441  1.4010 -0.3586  0.7601
  890MOL0     H20117  10.409   8.602   3.347  1.1809  0.6195  0.0328
  890MOL0     H20118  10.376   8.744   3.144  0.6447  0.5672 -1.0935
  890MOL0     H20119  10.343   8.881   3.266  0.9804 -0.1467 -0.0590
  890MOL0     H20120  10.572   8.805   3.373 -0.1481  2.2234  0.1476
  890MOL0     H20121  10.561   8.927   3.256  3.1313 -0.1227  2.4164
  890MOL0     H20122  10.616   8.765   3.072  1.3882 -0.9965 -0.7492
  890MOL0     H20123  10.621   8.635   3.198  3.3484 -0.9435 -0.4764
  890MOL0     H20124  10.809   8.740   3.292 -1.7199 -0.7349 -0.2111
  890MOL0     H20125  10.826   8.697   3.127 -0.5525  0.8574 -1.6449
  890MOL0     H20126  10.754   8.997   3.175  1.4688  1.3567  0.4064
  890MOL0     H20127  10.854   8.933   3.055  1.3818  2.3555  0.8656
  890MOL0     H20128  10.966   9.053   3.242 -0.0087  0.1180 -4.0958
  890MOL0     H20129  10.939   8.912   3.351 -0.7318 -0.9864  0.6814
  890MOL0     H20130  10.003   8.516   3.132  0.0342 -0.4719  2.6161
  890MOL0     H20131   9.775   8.478   3.081  0.7881 -0.2094  3.0441
  890MOL0     H20132   9.393   8.482   3.137  2.5131  0.8365 -1.8190
  890MOL0     H20133   9.173   8.378   3.093 -1.5445 -0.5542 -0.5658
  890MOL0     H20134   7.196   8.524   3.438  1.9271  0.5105 -0.9099
  890MOL0     H20135   7.010   8.396   3.556  0.5287 -0.6709 -0.7613
  890MOL0     H20136   7.015   8.009   3.779 -0.6432 -1.6193 -0.8668
  890MOL0     H20137   6.928   7.811   3.888  0.7757  0.1976  3.0543
  890MOL0     H20138   6.612   7.697   3.807 -0.3612  0.5330  0.2656
  890MOL0     H20139   6.507   7.794   3.912 -1.5734 -0.7388  1.9146
  890MOL0     H20140   6.643   7.544   4.006  1.0193  0.0198 -0.4717
  890MOL0     H20141   6.490   7.528   3.905 -1.0866 -0.7916  1.2772
  890MOL0     H20142   6.457   7.699   4.141 -0.7898  0.2019 -1.7515
  890MOL0     H20143   6.479   7.517   4.163  1.5222 -1.1321 -1.2380
  890MOL0     H20144   6.257   7.635   3.983 -1.6590  0.3245  0.4450
  890MOL0     H20145   6.298   7.471   4.036  0.3580  0.7069 -1.6069
  890MOL0     H20146   6.065   7.611   4.341 -1.5707 -0.8018 -1.9657
  890MOL0     H20147   6.556   8.005   3.977 -0.0521 -2.1585  0.3300
  890MOL0     H20148   6.548   8.224   3.977  0.6665 -0.6398 -0.3568
  890MOL0     H20149   6.688   8.331   3.923  2.4570 -2.3407  0.9385
  890MOL0     H20150   6.566   8.279   3.810 -0.5808 -1.9664 -1.0360
  891MOL0     O20151   4.688   2.260   1.493 -0.2346 -0.2481 -1.1777
  891MOL0     C20152   4.704   2.136   1.507 -0.6877 -0.4346  0.8428
  891MOL0     O20153   4.806   2.065   1.437 -0.1049  0.4253  0.0967
  891MOL0     C20154   4.927   2.134   1.420 -0.4759  1.0723 -0.0016
  891MOL0     C20155   5.017   2.119   1.527 -0.3591  0.7543 -0.4872
  891MOL0     C20156   5.143   2.166   1.512 -0.2792  0.2420 -0.4396
  891MOL0     C20157   5.171   2.249   1.403  0.5593 -0.3067 -0.3577
  891MOL0     O20158   5.290   2.313   1.399 -0.0216 -0.5515 -0.1816
  891MOL0     C20159   5.369   2.282   1.283  0.2720 -0.0894 -0.2494
  891MOL0     C20160   5.493   2.367   1.280  0.0153  0.2145 -0.2550
  891MOL0     C20161   5.587   2.340   1.400 -0.3600  0.2914 -0.0812
  891MOL0     C20162   5.708   2.429   1.383 -0.1059  0.2779  0.6059
  891MOL0     C20163   5.814   2.404   1.482  0.1729 -0.0598  0.0275
  891MOL0     C20164   5.950   2.478   1.450 -0.5269 -0.0577 -0.0453
  891MOL0     C20165   6.054   2.415   1.539  0.2234  1.0067 -0.0454
  891MOL0     C20166   6.186   2.484   1.551 -0.4956  0.7016 -0.1053
  891MOL0     N20167   6.256   2.440   1.674 -0.3208 -0.1228  0.2416
  891MOL0     C20168   6.357   2.347   1.683 -0.0372 -0.1758  0.4242
  891MOL0     C20169   6.415   2.354   1.805  0.2769  0.2828 -0.0300
  891MOL0     C20170   6.525   2.276   1.871 -1.2884  0.3244  0.5849
  891MOL0     C20171   6.670   2.309   1.825  1.1611  0.1959  0.4105
  891MOL0     C20172   6.713   2.451   1.856 -0.6488  0.4879 -0.2825
  891MOL0     C20173   6.857   2.467   1.810  0.4261 -0.7006  0.3344
  891MOL0     O20174   6.946   2.378   1.883  0.4645  0.6058  0.4387
  891MOL0     C20175   7.076   2.387   1.851  0.7421  0.8926 -1.2052
  891MOL0     C20176   7.129   2.388   1.725 -0.9497 -0.0312 -0.1790
  891MOL0     C20177   7.267   2.420   1.700 -0.2295 -0.0777  0.5262
  891MOL0     C20178   7.343   2.461   1.805  0.2954 -0.0420 -0.8861
  891MOL0     C20179   7.487   2.503   1.796  0.6712 -1.2475 -0.7728
  891MOL0     O20180   7.568   2.473   1.897 -0.8538 -0.1451  0.3249
  891MOL0     C20181   7.702   2.521   1.900 -0.5732  0.6755 -0.7566
  891MOL0     C20182   7.781   2.469   2.004  0.1065  1.3241  0.3655
  891MOL0     C20183   7.905   2.523   2.035 -0.7504  0.1225  0.5698
  891MOL0     C20184   7.967   2.619   1.967  0.1154 -0.4749  0.5062
  891MOL0     O20185   8.095   2.662   1.995 -0.8881 -0.7630  0.3475
  891MOL0     C20186   8.202   2.654   1.894  0.5482 -0.4017 -0.0174
  891MOL0     C20187   8.300   2.555   1.945  0.1969 -0.5991  0.1697
  891MOL0     C20188   8.424   2.547   1.858 -0.4544  1.0501  0.0131
  891MOL0     C20189   8.537   2.462   1.916  0.8909 -0.2520 -0.0914
  891MOL0     C20190   8.660   2.464   1.810  0.1003  0.2106  0.0056
  891MOL0     C20191   8.778   2.381   1.875 -0.0707 -0.7893  0.0998
  891MOL0     C20192   8.881   2.478   1.941  0.3534  0.1024  0.3057
  891MOL0     C20193   8.956   2.409   2.060 -0.3225  0.4385 -0.2538
  891MOL0    Cl20194   9.033   2.255   2.024  0.2535 -0.1385 -0.5028
  891MOL0     C20195   7.903   2.659   1.847  0.2529 -0.4970  0.0580
  891MOL0     C20196   7.768   2.616   1.823  0.2879 -0.3079 -0.2435
  891MOL0     O20197   7.521   2.540   1.683  0.6994  0.4519 -0.5830
  891MOL0     C20198   7.288   2.461   1.941 -0.4297  0.0439  0.3680
  891MOL0     C20199   7.152   2.423   1.961 -0.6479 -0.1318  0.7156
  891MOL0     N20200   6.342   2.452   1.872  0.0217  0.7871  0.4625
  891MOL0     N20201   6.252   2.502   1.791 -0.8165  0.3180  0.2566
  891MOL0     C20202   5.077   2.276   1.302  0.6511 -0.5926 -0.2415
  891MOL0     C20203   4.953   2.213   1.308  0.2885 -0.2658 -0.6467
  891MOL0     C20204   4.590   2.054   1.572 -0.5815  0.2680  0.4851
  891MOL0     C20205   4.471   2.117   1.590  1.0375  0.3985 -0.3552
  891MOL0     C20206   4.351   2.045   1.627 -0.4272 -0.9215  0.6000
  891MOL0     C20207   4.358   1.914   1.677 -0.2550  0.6257 -0.1090
  891MOL0     O20208   4.255   1.843   1.741 -0.6585  0.4766  0.1784
  891MOL0     C20209   4.129   1.904   1.757  0.8757 -0.0814 -0.5381
  891MOL0     C20210   4.023   1.802   1.793  0.1561 -0.1248 -0.5502
  891MOL0     C20211   3.890   1.872   1.834  0.2241  0.1107 -0.4702
  891MOL0     C20212   3.769   1.778   1.860  1.1250 -0.4633  0.3313
  891MOL0     C20213   3.794   1.698   1.977 -0.2671 -1.0640  1.0142
  891MOL0     C20214   3.820   1.623   2.065 -0.8813 -0.7364  1.0610
  891MOL0     C20215   4.484   1.849   1.655 -0.3953 -0.8669  0.4297
  891MOL0     C20216   4.600   1.918   1.602  0.0868 -0.5299 -0.5549
  891MOL0     C20217   4.733   1.842   1.604 -0.5450 -0.2592 -0.6170
  891MOL0     H20218   4.995   2.067   1.620  0.9853  2.1872  0.7105
  891MOL0     H20219   5.218   2.151   1.589  0.8200  3.9444 -0.5934
  891MOL0     H20220   5.383   2.174   1.288 -0.6871 -0.1815  2.2637
  891MOL0     H20221   5.313   2.303   1.192 -3.6949 -1.1792  1.6890
  891MOL0     H20222   5.470   2.474   1.274 -0.5262  0.0413 -5.2256
  891MOL0     H20223   5.543   2.349   1.184 -0.5413  1.8343 -0.8826
  891MOL0     H20224   5.615   2.234   1.393 -2.1518 -0.1418 -1.5323
  891MOL0     H20225   5.533   2.350   1.494  0.5390 -1.1331  0.6168
  891MOL0     H20226   5.755   2.427   1.285 -0.0843  2.2553  0.5442
  891MOL0     H20227   5.674   2.531   1.400 -0.9815  0.2424 -0.7900
  891MOL0     H20228   5.763   2.428   1.575 -0.0559  0.2415 -0.1747
  891MOL0     H20229   5.827   2.295   1.488  1.0928  0.0606  0.3562
  891MOL0     H20230   5.977   2.462   1.345 -0.2459 -2.8844  0.3745
  891MOL0     H20231   5.941   2.584   1.474  1.3978 -0.1813  1.4101
  891MOL0     H20232   6.068   2.312   1.506 -0.3993  1.4336 -1.7723
  891MOL0     H20233   6.006   2.425   1.637 -1.0076 -1.6472 -0.2937
  891MOL0     H20234   6.245   2.458   1.462 -1.1595  0.9517 -0.6280
  891MOL0     H20235   6.164   2.591   1.553  0.1976  0.8449  0.3138
  891MOL0     H20236   6.387   2.272   1.611 -1.5868 -1.6144  1.2245
  891MOL0     H20237   6.523   2.288   1.980 -0.3795  3.1423  0.3586
  891MOL0     H20238   6.496   2.176   1.837 -1.6352  1.1186 -1.6063
  891MOL0     H20239   6.734   2.238   1.880  0.3378  0.7555  2.1790
  891MOL0     H20240   6.691   2.280   1.722  0.0540 -1.6702  0.6670
  891MOL0     H20241   6.696   2.467   1.962 -3.2838 -3.7970  0.2035
  891MOL0     H20242   6.656   2.519   1.792  3.5373  3.1238 -1.5890
  891MOL0     H20243   6.874   2.572   1.839 -0.3493 -0.8732  1.4848
  891MOL0     H20244   6.875   2.459   1.703  0.9634  0.7436  0.2829
  891MOL0     H20245   7.071   2.342   1.645 -0.4252 -1.9146  0.4723
  891MOL0     H20246   7.306   2.427   1.599 -0.4771 -0.0903  0.4308
  891MOL0     H20247   7.723   2.395   2.058 -0.5609  0.2586 -1.6947
  891MOL0     H20248   7.962   2.490   2.122  2.2479  0.9292 -0.9690
  891MOL0     H20249   8.179   2.634   1.789  1.4736 -0.7129 -0.1637
  891MOL0     H20250   8.258   2.747   1.885 -1.7781  1.2769  1.6848
  891MOL0     H20251   8.328   2.595   2.042  1.5369 -0.1630 -0.3722
  891MOL0     H20252   8.255   2.457   1.962 -1.4819  0.0933 -0.1001
  891MOL0     H20253   8.390   2.510   1.761 -1.3131 -0.6740  0.9196
  891MOL0     H20254   8.469   2.646   1.851 -0.1400  1.2795  3.3424
  891MOL0     H20255   8.490   2.365   1.936 -0.0743  0.1611 -0.3125
  891MOL0     H20256   8.578   2.506   2.007  0.4404  0.4794 -0.2318
  891MOL0     H20257   8.702   2.561   1.783  0.3272 -0.4216 -2.0330
  891MOL0     H20258   8.647   2.407   1.718  2.0848 -1.9316  0.9623
  891MOL0     H20259   8.750   2.310   1.954 -2.1121 -0.8692 -0.6186
  891MOL0     H20260   8.818   2.316   1.797 -0.6867 -0.5826 -0.3980
  891MOL0     H20261   8.821   2.562   1.979  0.2739 -0.2148  0.8881
  891MOL0     H20262   8.956   2.514   1.870 -1.5854 -0.3470 -2.1300
  891MOL0     H20263   9.025   2.479   2.108  3.3277 -3.4517  0.8066
  891MOL0     H20264   8.877   2.371   2.125 -0.5119 -2.4929 -2.0187
  891MOL0     H20265   7.943   2.743   1.792  2.4861 -1.2872  0.3468
  891MOL0     H20266   7.721   2.672   1.743 -0.2798  0.5729  0.6775
  891MOL0     H20267   7.352   2.470   2.029  1.0445  0.9295 -0.7489
  891MOL0     H20268   7.101   2.437   2.056  0.7458  2.3427  1.1861
  891MOL0     H20269   5.094   2.355   1.229 -0.2604  1.2637  1.4408
  891MOL0     H20270   4.886   2.236   1.225  0.2476  1.3727 -0.1987
  891MOL0     H20271   4.476   2.223   1.571  2.0558  0.4551  0.1424
  891MOL0     H20272   4.263   2.108   1.639 -1.6379 -2.5825  1.0240
  891MOL0     H20273   4.111   1.959   1.664  3.5024  1.5735 -0.1654
  891MOL0     H20274   4.130   1.966   1.848 -0.4812 -1.6757  0.6160
  891MOL0     H20275   4.047   1.728   1.870  1.7092  0.0011 -0.8949
  891MOL0     H20276   3.990   1.744   1.706 -3.5230 -0.3596  0.8318
  891MOL0     H20277   3.848   1.938   1.757 -0.5555 -0.1930 -0.3104
  891MOL0     H20278   3.902   1.930   1.925  0.7356  0.0569 -0.5002
  891MOL0     H20279   3.687   1.844   1.892  1.4146 -0.7076  1.6380
  891MOL0     H20280   3.743   1.722   1.770  0.7660 -2.0634  1.3983
  891MOL0     H20281   3.839   1.565   2.153 -0.0111  0.1057  1.4484
  891MOL0     H20282   4.498   1.742   1.667 -0.7932 -1.0410 -0.5840
  891MOL0     H20283   4.811   1.916   1.625 -0.5767  0.2693 -2.1807
  891MOL0     H20284   4.730   1.755   1.669  0.0909 -1.0316 -1.5931
  891MOL0     H20285   4.764   1.817   1.502  0.4062  0.4519 -0.5212
  892MOL0     O20286   0.291   0.724  10.750  0.3187  0.4436  0.0690
  892MOL0     C20287   0.263   0.744  10.867  0.5012  0.7327  0.7313
  892MOL0     O20288   0.349   0.794  10.964  0.5906  0.6602  0.7226
  892MOL0     C20289   0.474   0.843  10.926  0.0538 -0.0683 -0.5609
  892MOL0     C20290   0.571   0.801  10.829  0.0882  0.5585 -0.3240
  892MOL0     C20291   0.704   0.837  10.828 -0.0265 -0.3226 -0.5434
  892MOL0     C20292   0.752   0.915  10.929  0.1807  0.3122  0.4803
  892MOL0     O20293   0.889   0.937  10.919 -0.2677  0.5660 -0.5195
  892MOL0     C20294   0.952   0.997  11.035 -0.2306 -0.3038 -0.6352
  892MOL0     C20295   1.101   0.980  11.027 -0.5952  0.0174  0.2046
  892MOL0     C20296   1.168   1.086  10.933  0.1001 -0.6895  0.0927
  892MOL0     C20297   1.302   1.030  10.904  0.4561  0.0042  0.4649
  892MOL0     C20298   1.391   1.144  10.832 -0.0294  0.3292  0.2220
  892MOL0     C20299   1.513   1.092  10.772 -0.0791 -0.0510  0.5658
  892MOL0     C20300   1.614   1.038  10.886  1.2104  0.0217 -0.8541
  892MOL0     C20301   1.734   0.959  10.839  0.4974 -0.2225  0.6231
  892MOL0     N20302   1.830   0.927  10.938  0.3397  0.7388  1.1295
  892MOL0     C20303   1.908   1.014  11.005  0.9058  0.2954  0.8654
  892MOL0     C20304   1.969   0.938  11.091  0.8747  0.9745  0.1234
  892MOL0     C20305   2.077   0.978  11.185 -0.3954 -0.0321 -0.3266
  892MOL0     C20306   2.201   0.893  11.160 -0.6404 -0.3926  0.5958
  892MOL0     C20307   2.249   0.905  11.011 -0.2955  0.7664 -0.0148
  892MOL0     C20308   2.402   0.881  11.010 -0.9342  0.0997 -0.1461
  892MOL0     O20309   2.464   0.986  11.087  0.6120 -0.2255  0.2586
  892MOL0     C20310   2.587   0.966  11.144 -0.9020  0.0472  0.2676
  892MOL0     C20311   2.684   0.884  11.087  0.4656 -1.1593  0.8657
  892MOL0     C20312   2.814   0.872  11.137  0.1182  0.3496  0.1411
  892MOL0     C20313   2.854   0.936  11.256  0.0634 -0.4435  0.9268
  892MOL0     C20314   2.997   0.933  11.292  0.1050  0.3286 -0.2754
  892MOL0     O20315   3.025   0.996  11.415 -0.1013 -0.7678 -0.1805
  892MOL0     C20316   3.153   1.008  11.458  0.5254  0.8638  0.7454
  892MOL0     C20317   3.203   1.140  11.473 -0.0683  0.2631  0.2507
  892MOL0     C20318   3.335   1.151  11.521  0.4802  0.2322  0.4867
  892MOL0     C20319   3.423   1.038  11.533 -0.6745 -0.5399 -0.6030
  892MOL0     O20320   3.551   1.045  11.589 -0.5124 -0.1724  0.2145
  892MOL0     C20321   3.614   1.175  11.581  0.2154  0.4362  0.1023
  892MOL0     C20322   3.761   1.168  11.608 -0.0155  0.4257 -0.7248
  892MOL0     C20323   3.819   1.307  11.617  0.5693 -0.8226  0.0375
  892MOL0     C20324   3.805   1.377  11.758 -0.2459 -0.8505 -0.1934
  892MOL0     C20325   3.876   1.513  11.758  0.2557  0.2382 -0.3096
  892MOL0     C20326   3.826   1.601  11.878  0.5578  0.4119  0.9454
  892MOL0     C20327   3.932   1.708  11.893 -0.4425 -0.1784 -0.5914
  892MOL0     C20328   3.909   1.798  12.016 -0.3699  0.5088 -0.3152
  892MOL0    Cl20329   4.013   1.939  12.012 -0.0604  0.3255  0.6101
  892MOL0     C20330   3.372   0.914  11.521  0.9927  0.0636 -0.1561
  892MOL0     C20331   3.236   0.895  11.482  0.5532 -0.3939 -0.4047
  892MOL0     O20332   3.079   0.861  11.235 -0.0348 -0.4271 -0.8501
  892MOL0     C20333   2.756   1.010  11.325 -0.3352 -0.9207  0.3572
  892MOL0     C20334   2.624   1.019  11.269 -0.4903 -0.4087 -0.1972
  892MOL0     N20335   1.914   0.812  11.092 -0.1328 -0.6883  0.4640
  892MOL0     N20336   1.833   0.809  10.998  0.2697  0.0612 -0.1295
  892MOL0     C20337   0.664   0.965  11.023 -0.2384  0.4285  0.8832
  892MOL0     C20338   0.526   0.931  11.018  0.4275  0.3147 -0.0626
  892MOL0     C20339   0.132   0.676  10.903 -1.0528  0.1681  0.1448
  892MOL0     C20340   0.077   0.578  10.823 -0.0674 -0.0855  0.7183
  892MOL0     C20341  -0.046   0.518  10.836 -0.7241  0.4778 -0.1159
  892MOL0     C20342  -0.119   0.550  10.947  0.0488  0.1178 -0.1063
  892MOL0     O20343  -0.245   0.497  10.982  0.2558 -0.0872 -0.4329
  892MOL0     C20344  -0.307   0.410  10.894 -0.3446  1.0396 -0.0320
  892MOL0     C20345  -0.243   0.268  10.919  1.1884 -0.5595 -0.2235
  892MOL0     C20346  -0.271   0.228  11.069 -0.0913  0.1595  0.2443
  892MOL0     C20347  -0.259   0.077  11.090  0.3939  0.3001  0.1407
  892MOL0     C20348  -0.136   0.015  11.050  0.0242  0.2981 -0.3711
  892MOL0     C20349  -0.037  -0.044  11.009  0.0945  0.0095 -0.6818
  892MOL0     C20350  -0.065   0.637  11.040  0.2206 -1.2165  0.4248
  892MOL0     C20351   0.060   0.707  11.020  0.2955 -0.0211  0.1057
  892MOL0     C20352   0.100   0.801  11.136 -0.4597  0.4995  0.4500
  892MOL0     H20353   0.549   0.719  10.761  0.2273 -0.4029  0.7411
  892MOL0     H20354   0.765   0.804  10.744  0.3136 -0.8706 -0.0908
  892MOL0     H20355   0.922   1.102  11.041 -0.9173 -0.4135 -1.7617
  892MOL0     H20356   0.919   0.948  11.127  0.3113 -2.2338 -1.4026
  892MOL0     H20357   1.110   0.878  10.989 -0.1191  0.6964 -1.6459
  892MOL0     H20358   1.143   0.988  11.127 -1.9288  1.9050  0.6771
  892MOL0     H20359   1.164   1.180  10.988 -1.8752 -1.3287  1.1621
  892MOL0     H20360   1.108   1.094  10.842 -0.6083 -0.7557  0.5483
  892MOL0     H20361   1.357   0.991  10.990  2.0298 -0.0475 -0.5390
  892MOL0     H20362   1.283   0.943  10.841 -3.0764 -1.0553  2.6825
  892MOL0     H20363   1.336   1.200  10.756 -1.0059 -0.7701  0.0723
  892MOL0     H20364   1.414   1.214  10.913  2.6340 -0.4245  0.2151
  892MOL0     H20365   1.495   1.015  10.696  1.6314 -0.3539  0.4401
  892MOL0     H20366   1.566   1.183  10.744 -2.4259  1.8823  2.0366
  892MOL0     H20367   1.562   0.988  10.967  1.0301  1.5362 -0.0058
  892MOL0     H20368   1.642   1.131  10.936  2.6262 -2.4937  3.5467
  892MOL0     H20369   1.698   0.863  10.800 -1.4726  0.5326  0.4938
  892MOL0     H20370   1.794   1.017  10.768  3.2579 -1.4618  1.8099
  892MOL0     H20371   1.926   1.115  10.970  1.0353  0.2192  0.7103
  892MOL0     H20372   2.107   1.082  11.171 -2.6221  0.6515 -0.4317
  892MOL0     H20373   2.047   0.962  11.289  0.8975  0.4978  0.1444
  892MOL0     H20374   2.275   0.918  11.236  1.4713 -2.1834 -0.7701
  892MOL0     H20375   2.174   0.787  11.157 -0.0897 -0.5183  0.0215
  892MOL0     H20376   2.221   1.005  10.975 -2.2690  0.2195 -0.1028
  892MOL0     H20377   2.208   0.831  10.942  1.5283  0.8547 -1.2573
  892MOL0     H20378   2.442   0.889  10.909  0.3152  1.0296  0.3867
  892MOL0     H20379   2.428   0.786  11.057 -1.8148  0.2180  0.6091
  892MOL0     H20380   2.657   0.834  10.995 -1.0389 -0.2511  0.7709
  892MOL0     H20381   2.883   0.803  11.090 -2.1485 -3.0612  1.3841
  892MOL0     H20382   3.144   1.228  11.450 -0.4924  0.1813  0.9929
  892MOL0     H20383   3.362   1.255  11.538 -1.3250  0.9332 -0.6296
  892MOL0     H20384   3.602   1.231  11.488 -1.9882  3.0102  1.7854
  892MOL0     H20385   3.571   1.246  11.653 -0.6285 -0.0495  0.1025
  892MOL0     H20386   3.770   1.110  11.700 -0.6003 -1.5469 -1.8587
  892MOL0     H20387   3.818   1.107  11.537  1.6936 -1.5061  2.0957
  892MOL0     H20388   3.921   1.300  11.579 -0.6973 -1.1425 -3.7253
  892MOL0     H20389   3.760   1.369  11.548  2.5014  0.0036 -0.9451
  892MOL0     H20390   3.838   1.299  11.827  2.5044 -1.7181 -2.3069
  892MOL0     H20391   3.704   1.399  11.794 -0.4751  0.3603 -1.4894
  892MOL0     H20392   3.844   1.565  11.667  0.2474  4.1028  1.6894
  892MOL0     H20393   3.985   1.509  11.769  0.1282  2.1137  2.8173
  892MOL0     H20394   3.734   1.656  11.857  1.5703  1.3324 -1.4649
  892MOL0     H20395   3.803   1.535  11.963  1.7350 -0.6718  0.4669
  892MOL0     H20396   3.932   1.780  11.810  2.9078  1.3367  0.5473
  892MOL0     H20397   4.031   1.662  11.898 -0.0455  0.2895 -2.9091
  892MOL0     H20398   3.810   1.842  12.007 -1.1241 -0.1746  3.2749
  892MOL0     H20399   3.919   1.738  12.107  1.7611  0.1747 -0.7117
  892MOL0     H20400   3.430   0.826  11.548 -1.6503 -1.6273  0.4254
  892MOL0     H20401   3.199   0.794  11.473 -1.0811  0.2065 -0.8343
  892MOL0     H20402   2.772   1.065  11.418 -1.4278 -2.4321  1.4933
  892MOL0     H20403   2.549   1.080  11.317 -2.7048 -1.9306 -1.5244
  892MOL0     H20404   0.698   1.034  11.099 -1.8635  2.2436  0.0686
  892MOL0     H20405   0.451   0.974  11.083  0.7035  1.7521 -0.6577
  892MOL0     H20406   0.133   0.557  10.732 -2.8481 -1.5331 -0.8157
  892MOL0     H20407  -0.083   0.457  10.755 -0.4933  0.9729 -0.6031
  892MOL0     H20408  -0.285   0.442  10.792 -2.4316 -0.2258 -0.9415
  892MOL0     H20409  -0.416   0.404  10.905 -0.3977 -2.7415 -1.0376
  892MOL0     H20410  -0.135   0.278  10.907  0.8983  2.1381 -1.2784
  892MOL0     H20411  -0.278   0.194  10.847 -0.4143  0.3081 -0.3907
  892MOL0     H20412  -0.374   0.253  11.097  0.7767  3.5309  0.8332
  892MOL0     H20413  -0.209   0.283  11.141  2.9086 -1.3405 -1.0180
  892MOL0     H20414  -0.275   0.051  11.196 -2.0454 -2.0490 -0.6680
  892MOL0     H20415  -0.336   0.022  11.035  1.3880 -0.8664 -0.1260
  892MOL0     H20416   0.044  -0.098  10.964 -0.7793 -1.0387 -1.0700
  892MOL0     H20417  -0.116   0.654  11.135 -2.2687  0.1372 -1.0476
  892MOL0     H20418   0.012   0.840  11.187 -0.8159 -2.2823  2.2095
  892MOL0     H20419   0.162   0.751  11.211 -0.9007 -0.2946  0.3007
  892MOL0     H20420   0.153   0.888  11.097 -2.4078  1.8727  0.7266
  893MOL0     O20421   0.506   4.778   2.960 -0.3539 -0.1827  0.7684
  893MOL0     C20422   0.406   4.774   3.035 -0.0904 -0.2974 -1.0435
  893MOL0     O20423   0.403   4.696   3.145  0.0151 -0.2618 -0.4432
  893MOL0     C20424   0.515   4.647   3.213  0.9503  0.3177 -1.2011
  893MOL0     C20425   0.626   4.722   3.232  1.8024 -0.0742 -0.5422
  893MOL0     C20426   0.733   4.668   3.308  0.6853 -0.5379  0.4103
  893MOL0     C20427   0.730   4.544   3.361 -0.3477  0.4285 -0.2638
  893MOL0     O20428   0.835   4.492   3.430 -0.2831 -0.7609 -0.9915
  893MOL0     C20429   0.966   4.557   3.431 -0.7875  0.2634  0.1942
  893MOL0     C20430   1.052   4.470   3.510 -0.6019 -0.2014 -0.3668
  893MOL0     C20431   1.187   4.525   3.523  0.1303 -0.9041 -0.4475
  893MOL0     C20432   1.287   4.451   3.600 -0.3653  0.5030 -0.2540
  893MOL0     C20433   1.338   4.321   3.528  0.7388  0.0168 -0.2988
  893MOL0     C20434   1.458   4.257   3.613 -0.4988  0.0225  0.3843
  893MOL0     C20435   1.497   4.123   3.557  0.1391 -0.5261  1.2213
  893MOL0     C20436   1.600   4.071   3.648 -0.4462  0.4910  0.3592
  893MOL0     N20437   1.651   3.932   3.613  0.6153 -0.0659  0.4484
  893MOL0     C20438   1.740   3.904   3.516  0.0678  0.1456  0.2084
  893MOL0     C20439   1.787   3.780   3.543  0.7391 -0.2167 -0.2446
  893MOL0     C20440   1.877   3.689   3.458 -0.1600  0.3204 -0.5456
  893MOL0     C20441   2.020   3.747   3.455  0.8658 -0.0301  0.8069
  893MOL0     C20442   2.121   3.645   3.400 -0.0991  0.4726  0.8176
  893MOL0     C20443   2.252   3.710   3.377  0.6058 -0.6780  0.2670
  893MOL0     O20444   2.341   3.609   3.320  0.3051  0.3229  0.1477
  893MOL0     C20445   2.470   3.656   3.300  0.6478  0.4274  0.5520
  893MOL0     C20446   2.560   3.556   3.277  0.0845  0.9296  0.3304
  893MOL0     C20447   2.694   3.583   3.251  0.6879 -0.1601 -0.5614
  893MOL0     C20448   2.739   3.720   3.240  0.5614 -1.0099  0.3211
  893MOL0     C20449   2.883   3.764   3.229  0.4788  0.9212  0.3323
  893MOL0     O20450   2.974   3.679   3.288 -0.2541  0.4270 -0.1912
  893MOL0     C20451   3.109   3.725   3.293  0.1250  0.6335 -0.2000
  893MOL0     C20452   3.192   3.750   3.178 -0.6942  0.5028 -0.1986
  893MOL0     C20453   3.323   3.791   3.192  0.2329 -0.3085  0.2760
  893MOL0     C20454   3.364   3.832   3.315  0.6950 -0.4085 -0.3688
  893MOL0     O20455   3.501   3.851   3.322 -0.1228  0.5405 -0.0641
  893MOL0     C20456   3.548   3.926   3.432  1.1453  0.1452 -0.4860
  893MOL0     C20457   3.687   3.965   3.400 -0.0498 -0.0616 -0.2048
  893MOL0     C20458   3.710   4.037   3.267 -0.1319 -0.5402 -0.3948
  893MOL0     C20459   3.859   4.089   3.269  0.0293 -0.5907  0.1274
  893MOL0     C20460   3.903   4.146   3.135 -0.3512  0.6168  0.1004
  893MOL0     C20461   4.047   4.186   3.159 -0.3115  0.3702 -0.5671
  893MOL0     C20462   4.116   4.218   3.027 -0.7581 -0.3697 -0.2138
  893MOL0     C20463   4.254   4.285   3.047 -0.2264 -0.2071 -0.2747
  893MOL0    Cl20464   4.312   4.360   2.895 -0.0633 -0.1384 -0.0469
  893MOL0     C20465   3.276   3.828   3.423  0.1507 -0.6567  0.1640
  893MOL0     C20466   3.152   3.777   3.409 -0.6147  0.1339 -0.1919
  893MOL0     O20467   2.910   3.870   3.174 -0.1850  0.1234  0.1175
  893MOL0     C20468   2.641   3.825   3.259  0.4156  0.0973 -0.2091
  893MOL0     C20469   2.508   3.796   3.298  0.1066  0.0949  0.6440
  893MOL0     N20470   1.716   3.737   3.654 -0.9440 -0.1432 -0.1150
  893MOL0     N20471   1.638   3.834   3.701 -0.0320  0.5085 -0.2748
  893MOL0     C20472   0.622   4.465   3.348  0.3207 -0.9701  0.4942
  893MOL0     C20473   0.517   4.512   3.271  0.5569  0.0347 -0.8480
  893MOL0     C20474   0.283   4.843   3.005 -0.1594 -0.2393 -0.3115
  893MOL0     C20475   0.188   4.843   3.105  0.1196  0.5227 -0.2608
  893MOL0     C20476   0.069   4.904   3.083  0.0426 -0.7274 -0.1231
  893MOL0     C20477   0.038   4.962   2.961  0.4529  0.0716  0.3095
  893MOL0     O20478  -0.091   5.004   2.941  0.2937  0.2835  0.4638
  893MOL0     C20479  -0.123   5.113   2.855  0.4934 -0.7910  0.3542
  893MOL0     C20480  -0.152   5.066   2.708  0.7539 -1.6918  0.1228
  893MOL0     C20481  -0.241   4.942   2.705 -0.9252  0.1288 -0.1894
  893MOL0     C20482  -0.268   4.901   2.565 -0.1452 -0.2935  1.1419
  893MOL0     C20483  -0.154   4.849   2.493 -0.3125 -0.1655 -0.1631
  893MOL0     C20484  -0.058   4.836   2.422  0.1119  0.0966  0.0739
  893MOL0     C20485   0.135   4.966   2.859  0.2617  0.2849 -0.0091
  893MOL0     C20486   0.262   4.915   2.880 -0.5066 -0.2646 -0.0316
  893MOL0     C20487   0.359   4.916   2.761  0.2890 -0.0408 -0.2572
  893MOL0     H20488   0.632   4.824   3.196 -0.2335  0.6415  0.9606
  893MOL0     H20489   0.819   4.731   3.326 -0.7795  1.6413  0.1926
  893MOL0     H20490   1.020   4.568   3.336  0.9270  2.7901  1.3615
  893MOL0     H20491   0.951   4.657   3.471  2.0133  0.2958  1.4091
  893MOL0     H20492   1.045   4.369   3.467 -2.9153 -0.0177 -0.5847
  893MOL0     H20493   1.016   4.468   3.613  0.7965  0.2055  0.1388
  893MOL0     H20494   1.167   4.618   3.577 -4.3737 -0.4279 -2.4770
  893MOL0     H20495   1.223   4.551   3.423 -0.7603  1.6364 -0.1712
  893MOL0     H20496   1.373   4.514   3.628  1.0308 -1.6366  0.5321
  893MOL0     H20497   1.230   4.424   3.689 -1.6299  3.0019 -0.2125
  893MOL0     H20498   1.260   4.247   3.508  0.7692  0.6383 -3.2228
  893MOL0     H20499   1.375   4.335   3.426  2.0344  0.3784  0.2035
  893MOL0     H20500   1.549   4.317   3.620 -1.2339  1.3415 -0.7102
  893MOL0     H20501   1.426   4.248   3.717  0.4021 -0.2675  0.6452
  893MOL0     H20502   1.543   4.125   3.458 -1.8376 -1.0450  0.2337
  893MOL0     H20503   1.419   4.049   3.536  0.6638 -0.1307 -2.9881
  893MOL0     H20504   1.681   4.144   3.641 -0.3664  0.2383 -2.4215
  893MOL0     H20505   1.557   4.060   3.748 -0.9568  0.3140  0.1214
  893MOL0     H20506   1.772   3.955   3.426  0.8573  1.6063  1.2862
  893MOL0     H20507   1.891   3.601   3.521  1.0718  0.1359 -1.0294
  893MOL0     H20508   1.851   3.662   3.355  0.7484  0.5157 -0.8415
  893MOL0     H20509   2.033   3.845   3.409  1.7597 -0.3034  0.4459
  893MOL0     H20510   2.042   3.765   3.560 -2.4055 -2.5883  2.1206
  893MOL0     H20511   2.100   3.613   3.297  5.0056  1.3334 -0.7390
  893MOL0     H20512   2.132   3.551   3.455  4.6634 -2.8829 -4.6982
  893MOL0     H20513   2.295   3.755   3.467 -0.5594 -0.5912  0.7953
  893MOL0     H20514   2.227   3.776   3.294  1.0300 -0.8022  0.0343
  893MOL0     H20515   2.519   3.455   3.269 -1.7614  1.5368  1.4568
  893MOL0     H20516   2.753   3.494   3.228  0.9475  0.2902 -1.7306
  893MOL0     H20517   3.149   3.733   3.080  0.4844  1.5751 -0.9291
  893MOL0     H20518   3.393   3.802   3.110 -1.6324 -0.6627 -1.4335
  893MOL0     H20519   3.487   4.013   3.455 -0.7643 -1.5710  1.3882
  893MOL0     H20520   3.557   3.871   3.527 -3.2668  2.1342  1.3594
  893MOL0     H20521   3.713   4.030   3.484 -2.0818  0.6014 -0.0442
  893MOL0     H20522   3.753   3.879   3.417  1.8909  0.8590 -2.4844
  893MOL0     H20523   3.685   3.964   3.189  0.6217 -2.1531  0.7979
  893MOL0     H20524   3.648   4.127   3.274  1.0816  0.3629 -0.8934
  893MOL0     H20525   3.919   4.002   3.295 -1.5469 -1.8387 -0.3060
  893MOL0     H20526   3.869   4.169   3.343  2.9625 -0.0473 -0.7054
  893MOL0     H20527   3.840   4.233   3.115  0.8117  1.2546 -0.9139
  893MOL0     H20528   3.885   4.081   3.049 -0.0343  0.1574  0.3762
  893MOL0     H20529   4.046   4.275   3.222 -1.8054 -0.5151  0.7301
  893MOL0     H20530   4.102   4.109   3.215 -1.0579 -1.0326 -1.6727
  893MOL0     H20531   4.049   4.290   2.980 -1.8830  0.6869  2.7535
  893MOL0     H20532   4.120   4.131   2.962  1.2459  0.2915 -1.0458
  893MOL0     H20533   4.249   4.360   3.127  2.3144 -0.6118  0.3458
  893MOL0     H20534   4.329   4.213   3.081 -0.1090 -0.3295 -0.7727
  893MOL0     H20535   3.299   3.867   3.522  0.9113  0.4639 -0.4432
  893MOL0     H20536   3.091   3.793   3.498 -0.5659  3.7733 -0.6314
  893MOL0     H20537   2.672   3.929   3.253  1.0910 -0.1811 -3.1925
  893MOL0     H20538   2.442   3.877   3.330 -0.6665 -0.2998  0.0836
  893MOL0     H20539   0.624   4.366   3.392 -3.6294 -0.8463  1.3013
  893MOL0     H20540   0.442   4.434   3.261 -1.8274  1.4736  3.4598
  893MOL0     H20541   0.194   4.789   3.198 -0.6866 -0.1516 -0.5941
  893MOL0     H20542  -0.010   4.886   3.156  0.9929  0.0358  1.1301
  893MOL0     H20543  -0.040   5.184   2.858  1.8094 -2.2750  3.8928
  893MOL0     H20544  -0.212   5.166   2.892 -1.7919 -2.4575 -2.2916
  893MOL0     H20545  -0.061   5.039   2.654  1.8018  0.9047  0.4077
  893MOL0     H20546  -0.203   5.149   2.658 -0.0084 -0.4296  2.7910
  893MOL0     H20547  -0.331   4.960   2.765  0.5978  2.0201  1.6644
  893MOL0     H20548  -0.190   4.858   2.753  0.4771  1.2491  0.3657
  893MOL0     H20549  -0.347   4.826   2.568  0.1682 -0.8021 -1.4492
  893MOL0     H20550  -0.307   4.983   2.504 -0.5907 -1.1286  0.3002
  893MOL0     H20551   0.027   4.836   2.357 -1.3582 -2.1625 -1.9985
  893MOL0     H20552   0.123   5.018   2.765  1.5136 -2.6756 -1.9406
  893MOL0     H20553   0.423   5.005   2.766 -1.7748  1.5134  0.4297
  893MOL0     H20554   0.415   4.824   2.743 -0.2679 -0.5088  0.3415
  893MOL0     H20555   0.296   4.925   2.672 -2.0751  1.0621  1.4040
  894MOL0     O20556   1.804   7.884   3.911  0.1026  0.4412 -0.0620
  894MOL0     C20557   1.731   7.790   3.878 -0.8882  0.2229  0.1317
  894MOL0     O20558   1.775   7.680   3.813  0.5384  0.2782 -0.2532
  894MOL0     C20559   1.910   7.663   3.804  0.2520  0.5843  0.3945
  894MOL0     C20560   1.987   7.615   3.909  0.4440 -0.0538  0.2319
  894MOL0     C20561   2.125   7.601   3.893 -1.4195 -0.0652  0.7952
  894MOL0     C20562   2.183   7.644   3.769 -0.7372 -0.1074 -0.6898
  894MOL0     O20563   2.316   7.640   3.746 -0.6655  0.7584 -0.2882
  894MOL0     C20564   2.395   7.530   3.805  0.6551  0.2995  0.2072
  894MOL0     C20565   2.525   7.526   3.734 -0.3280 -0.4589  1.3729
  894MOL0     C20566   2.634   7.419   3.774 -0.5449  0.1152 -0.5757
  894MOL0     C20567   2.755   7.430   3.674  0.5975 -0.5341 -0.8013
  894MOL0     C20568   2.884   7.381   3.745 -0.4739  0.0766  0.2668
  894MOL0     C20569   3.001   7.361   3.637 -0.9068  0.2804 -0.4447
  894MOL0     C20570   3.106   7.256   3.685  0.0458  0.2514 -1.2217
  894MOL0     C20571   3.179   7.290   3.817  0.1289 -0.4786  0.5339
  894MOL0     N20572   3.312   7.214   3.817  0.6201  0.2844 -0.3176
  894MOL0     C20573   3.315   7.071   3.823 -0.5228 -0.3328 -0.4523
  894MOL0     C20574   3.447   7.041   3.813 -0.4938  0.6536  0.3633
  894MOL0     C20575   3.521   6.907   3.809 -0.8627 -0.1722  0.5975
  894MOL0     C20576   3.506   6.856   3.664  0.7544  0.2556 -0.0875
  894MOL0     C20577   3.579   6.730   3.628 -0.2726 -1.3123  0.0524
  894MOL0     C20578   3.735   6.743   3.613  0.5275 -0.3151 -1.0787
  894MOL0     O20579   3.790   6.615   3.576 -0.1711  0.0837 -0.5675
  894MOL0     C20580   3.927   6.618   3.544  0.1252  0.3925  0.5660
  894MOL0     C20581   4.023   6.648   3.646  0.1255  1.2402  0.7601
  894MOL0     C20582   4.154   6.626   3.618  0.4187  0.6328  0.6539
  894MOL0     C20583   4.192   6.586   3.489  0.1625  0.7764  0.5065
  894MOL0     C20584   4.328   6.556   3.463 -0.7625  0.3730  0.5232
  894MOL0     O20585   4.426   6.603   3.544 -0.5219  0.7072 -0.1680
  894MOL0     C20586   4.555   6.577   3.502  0.4736 -0.0792  0.2174
  894MOL0     C20587   4.612   6.650   3.400 -0.1416 -0.2993 -0.4542
  894MOL0     C20588   4.738   6.608   3.342 -0.0251 -0.0477  0.4501
  894MOL0     C20589   4.812   6.501   3.406  0.6653 -0.3463  0.1977
  894MOL0     O20590   4.936   6.456   3.379 -0.1923  0.5406  0.9365
  894MOL0     C20591   4.988   6.517   3.265  0.3450  0.3883 -0.6079
  894MOL0     C20592   5.111   6.450   3.219  0.8733  0.5987 -0.6520
  894MOL0     C20593   5.176   6.519   3.112  0.1832 -0.1029 -0.3647
  894MOL0     C20594   5.293   6.445   3.065 -0.8882 -0.3305 -0.3442
  894MOL0     C20595   5.360   6.526   2.948  0.6329  0.3530 -0.6292
  894MOL0     C20596   5.495   6.474   2.924  0.3272  0.1466 -0.4504
  894MOL0     C20597   5.529   6.461   2.773  0.0345 -0.2329 -0.0724
  894MOL0     C20598   5.678   6.499   2.748  0.7214  0.5400  0.4378
  894MOL0    Cl20599   5.705   6.505   2.584  0.1544  0.1802  0.2820
  894MOL0     C20600   4.746   6.434   3.514  0.1585  0.0111  0.3751
  894MOL0     C20601   4.621   6.473   3.568  0.5012 -0.1852  0.3701
  894MOL0     O20602   4.354   6.500   3.359 -0.1045 -0.2854  0.4981
  894MOL0     C20603   4.090   6.558   3.394  0.0874 -0.4764 -0.1256
  894MOL0     C20604   3.958   6.570   3.420 -0.4621  0.0555  0.7547
  894MOL0     N20605   3.522   7.155   3.796 -0.0928 -0.3980 -0.0681
  894MOL0     N20606   3.443   7.251   3.817  0.6453  0.4380 -0.3101
  894MOL0     C20607   2.102   7.701   3.667 -0.6375  1.1343  0.3794
  894MOL0     C20608   1.966   7.705   3.686 -0.4160 -0.4247 -0.5357
  894MOL0     C20609   1.592   7.792   3.914 -0.2143 -1.3302  0.5203
  894MOL0     C20610   1.506   7.760   3.807 -0.3177 -0.5276  0.1964
  894MOL0     C20611   1.373   7.754   3.829  0.6578 -0.7340  1.0758
  894MOL0     C20612   1.313   7.787   3.944  0.1971  0.2267 -0.4442
  894MOL0     O20613   1.176   7.770   3.952  0.3096  1.0912  0.3082
  894MOL0     C20614   1.106   7.785   4.077  1.1955 -0.1683  0.2895
  894MOL0     C20615   1.065   7.928   4.102  0.7024 -0.3017 -0.3638
  894MOL0     C20616   1.008   8.016   3.988  0.1297 -0.2883  0.1428
  894MOL0     C20617   0.910   7.947   3.883 -0.2966  1.2256  0.0570
  894MOL0     C20618   0.816   7.859   3.958 -0.6654 -0.2787 -0.1478
  894MOL0     C20619   0.743   7.793   4.024 -0.3659  0.3630  0.1545
  894MOL0     C20620   1.395   7.816   4.054  0.2218  0.1958 -0.0110
  894MOL0     C20621   1.533   7.816   4.043 -0.0660  0.3315 -0.1785
  894MOL0     C20622   1.613   7.844   4.167 -0.2737 -0.4269  0.3863
  894MOL0     H20623   1.934   7.582   3.997  0.7901 -1.6921 -0.1417
  894MOL0     H20624   2.178   7.546   3.971  1.7572 -1.4528 -2.0658
  894MOL0     H20625   2.396   7.549   3.912 -0.6549  0.5528  0.1928
  894MOL0     H20626   2.352   7.429   3.799  0.0041  0.3085  3.2724
  894MOL0     H20627   2.567   7.626   3.751  0.0374 -0.0890 -1.3476
  894MOL0     H20628   2.513   7.501   3.629 -2.0270  1.7565  0.9722
  894MOL0     H20629   2.589   7.319   3.777  2.1432 -1.1609  1.4496
  894MOL0     H20630   2.673   7.445   3.872  3.5842 -1.3418 -1.6508
  894MOL0     H20631   2.721   7.377   3.584 -3.8659  0.6774 -0.0610
  894MOL0     H20632   2.768   7.534   3.644  0.8048  0.5251  2.5611
  894MOL0     H20633   2.917   7.444   3.829  1.7317 -1.2480  0.4717
  894MOL0     H20634   2.855   7.283   3.784  1.2247  0.0068  1.4426
  894MOL0     H20635   2.966   7.309   3.548  1.7545  0.4008 -1.6737
  894MOL0     H20636   3.058   7.454   3.626  0.2158 -0.3058  0.1740
  894MOL0     H20637   3.182   7.238   3.608  1.0519 -1.0592  0.0275
  894MOL0     H20638   3.059   7.158   3.691  0.1514  0.2775  0.6602
  894MOL0     H20639   3.199   7.398   3.815 -0.7988 -0.3051 -0.0505
  894MOL0     H20640   3.110   7.270   3.900  0.1242 -3.0576 -0.0071
  894MOL0     H20641   3.239   6.993   3.823 -1.7248  0.7957 -1.3308
  894MOL0     H20642   3.627   6.920   3.836 -1.4673  0.7642  2.8033
  894MOL0     H20643   3.472   6.839   3.879  0.5935 -0.9450  0.9022
  894MOL0     H20644   3.400   6.841   3.642  0.5616 -3.0937  2.4108
  894MOL0     H20645   3.554   6.931   3.599  3.3723  0.6796  2.1520
  894MOL0     H20646   3.548   6.702   3.528  2.3583 -1.2140 -0.8656
  894MOL0     H20647   3.541   6.664   3.707 -2.6181 -1.1559 -0.8809
  894MOL0     H20648   3.769   6.776   3.712 -0.8984 -1.6034 -0.0906
  894MOL0     H20649   3.763   6.824   3.545  2.2666  2.7537  2.8877
  894MOL0     H20650   3.990   6.660   3.748  1.1806  0.4418  1.2148
  894MOL0     H20651   4.226   6.650   3.696  1.1887 -3.7120  1.5679
  894MOL0     H20652   4.553   6.735   3.366 -3.1043 -0.2918  3.9760
  894MOL0     H20653   4.780   6.658   3.254  1.6542  0.5761  1.5531
  894MOL0     H20654   4.918   6.502   3.182 -0.8909 -3.8879  0.9343
  894MOL0     H20655   5.007   6.620   3.296 -2.0476  1.1407 -1.3912
  894MOL0     H20656   5.168   6.427   3.309 -3.0466  2.9059  2.7302
  894MOL0     H20657   5.075   6.352   3.186 -1.7280  0.5788  1.8955
  894MOL0     H20658   5.111   6.515   3.025 -3.5187 -3.3561  2.1833
  894MOL0     H20659   5.190   6.623   3.146 -3.1538  0.3418  0.0687
  894MOL0     H20660   5.267   6.345   3.031  1.0684 -2.2184  3.1643
  894MOL0     H20661   5.361   6.433   3.150  1.5956 -0.0568 -2.1970
  894MOL0     H20662   5.366   6.632   2.976 -1.5515  0.8779 -1.9133
  894MOL0     H20663   5.293   6.524   2.862  0.3558 -0.6391 -0.4098
  894MOL0     H20664   5.560   6.551   2.967 -0.6930  0.4166  0.6497
  894MOL0     H20665   5.506   6.388   2.990 -2.0647  0.4964  0.5124
  894MOL0     H20666   5.475   6.538   2.717 -0.4914 -0.8300 -0.3987
  894MOL0     H20667   5.500   6.364   2.732 -2.9020  0.5227 -0.0229
  894MOL0     H20668   5.719   6.592   2.786  3.8634 -0.2735 -0.5888
  894MOL0     H20669   5.742   6.417   2.784  4.3822  3.1338  0.3382
  894MOL0     H20670   4.803   6.358   3.566  2.7047 -0.9982 -3.4639
  894MOL0     H20671   4.585   6.419   3.655  3.1920 -1.9546  0.5133
  894MOL0     H20672   4.119   6.525   3.294  1.3504  0.8725 -0.2380
  894MOL0     H20673   3.885   6.530   3.350 -2.0688  0.4406  2.1530
  894MOL0     H20674   2.152   7.725   3.574 -2.2560 -0.0410 -0.8286
  894MOL0     H20675   1.914   7.760   3.608 -0.8059 -2.1707 -1.5568
  894MOL0     H20676   1.542   7.736   3.707 -0.1014  0.5528  0.0020
  894MOL0     H20677   1.315   7.734   3.739  2.1533 -0.7789  0.0774
  894MOL0     H20678   1.154   7.744   4.166  0.6704 -2.3817 -0.3923
  894MOL0     H20679   1.018   7.722   4.064 -0.6134  2.4729 -1.0805
  894MOL0     H20680   1.154   7.980   4.139  1.2846  0.1938 -2.3837
  894MOL0     H20681   0.998   7.922   4.189  2.0395  0.6174  0.7834
  894MOL0     H20682   1.088   8.056   3.925  0.1002  1.1436  0.9928
  894MOL0     H20683   0.960   8.108   4.022  1.0255  1.6580 -3.3593
  894MOL0     H20684   0.865   8.021   3.816  0.4303  2.0676  0.4844
  894MOL0     H20685   0.973   7.893   3.811  1.3113  1.8505  0.9367
  894MOL0     H20686   0.682   7.724   4.080  2.2474  0.8991  3.9966
  894MOL0     H20687   1.356   7.846   4.151  0.7746  2.7784 -0.5183
  894MOL0     H20688   1.668   7.754   4.196 -1.7935 -2.7617 -3.2523
  894MOL0     H20689   1.683   7.921   4.135 -1.7758  0.5726 -0.6604
  894MOL0     H20690   1.554   7.888   4.249  0.7179 -1.3358  1.6322
  895MOL0     O20691   9.830   9.428   1.085 -0.3266  0.5275 -0.0757
  895MOL0     C20692   9.832   9.539   1.142 -0.7365  0.3462  0.7068
  895MOL0     O20693   9.728   9.628   1.159 -0.4604 -0.8288  0.6018
  895MOL0     C20694   9.607   9.588   1.123  0.0023 -0.2827 -0.6542
  895MOL0     C20695   9.503   9.578   1.215  0.2222  0.2133 -0.7404
  895MOL0     C20696   9.387   9.512   1.184 -0.5109 -0.5999  0.5376
  895MOL0     C20697   9.356   9.488   1.047  0.4104 -0.1916 -0.1302
  895MOL0     O20698   9.234   9.437   1.005 -0.1066  0.0616  0.1175
  895MOL0     C20699   9.124   9.498   1.058  0.7278 -0.4515 -1.0029
  895MOL0     C20700   9.000   9.498   0.963  0.4541  0.0955 -0.0539
  895MOL0     C20701   8.872   9.587   1.000  0.1302 -0.3355  0.1214
  895MOL0     C20702   8.835   9.602   1.139  0.0897  0.3084  0.1918
  895MOL0     C20703   8.782   9.466   1.189 -0.6301  0.3398  0.8149
  895MOL0     C20704   8.802   9.463   1.348  0.9958  0.2313  0.5691
  895MOL0     C20705   8.728   9.337   1.396 -0.6667 -0.0843 -0.2853
  895MOL0     C20706   8.786   9.196   1.349  0.2092 -0.4387  0.2000
  895MOL0     N20707   8.915   9.160   1.412  0.7737  0.1202 -0.3202
  895MOL0     C20708   9.036   9.220   1.387  0.0881 -1.0168 -0.1056
  895MOL0     C20709   9.117   9.164   1.470 -0.3621 -0.2332  0.4336
  895MOL0     C20710   9.270   9.187   1.477  0.1467 -0.4704  0.1208
  895MOL0     C20711   9.316   9.195   1.628 -0.7162 -0.8355 -0.8108
  895MOL0     C20712   9.275   9.328   1.687  0.6005 -0.5835  0.7037
  895MOL0     C20713   9.286   9.456   1.603 -0.6917 -0.3279 -0.5127
  895MOL0     O20714   9.406   9.472   1.528 -0.8206 -0.1394  0.1758
  895MOL0     C20715   9.523   9.484   1.599 -0.6436  0.2769 -0.0799
  895MOL0     C20716   9.545   9.574   1.705 -1.1677  0.2391 -0.4018
  895MOL0     C20717   9.669   9.589   1.766 -0.1716  0.8667  0.8995
  895MOL0     C20718   9.785   9.520   1.729 -0.4486 -0.0042 -0.6456
  895MOL0     C20719   9.911   9.530   1.799 -1.0086  0.7339 -0.2697
  895MOL0     O20720   9.910   9.551   1.933 -0.1011 -0.6844 -0.1831
  895MOL0     C20721  10.034   9.566   1.977 -0.2456 -0.1559  0.4348
  895MOL0     C20722  10.094   9.690   1.979  0.3944  0.2330 -0.2776
  895MOL0     C20723  10.212   9.708   2.031 -1.0561 -0.8591  0.4751
  895MOL0     C20724  10.283   9.602   2.084 -0.0684 -0.2422 -0.0579
  895MOL0     O20725  10.400   9.640   2.140  0.1486 -0.5386  0.0639
  895MOL0     C20726  10.501   9.553   2.185  0.0029 -0.3492  0.5452
  895MOL0     C20727  10.641   9.620   2.159  0.7957  0.2589 -0.6425
  895MOL0     C20728  10.762   9.538   2.208 -0.0758  0.3050  0.4834
  895MOL0     C20729  10.778   9.515   2.361 -0.9402 -0.4000  0.1389
  895MOL0     C20730  10.894   9.423   2.391  0.5460 -0.7834  0.6187
  895MOL0     C20731  10.906   9.393   2.538 -0.0530  0.1271  0.0468
  895MOL0     C20732  11.004   9.271   2.552  0.2682  0.6326 -0.7613
  895MOL0     C20733  11.153   9.303   2.539 -0.6873  0.2588 -0.0339
  895MOL0    Cl20734  11.242   9.146   2.520 -0.0862  0.1013 -0.1008
  895MOL0     C20735  10.235   9.472   2.077  0.7694 -0.2816  0.9178
  895MOL0     C20736  10.107   9.459   2.026  0.2800 -0.5745 -0.5734
  895MOL0     O20737  10.012   9.509   1.728 -0.3668 -0.5728  0.7568
  895MOL0     C20738   9.766   9.440   1.613 -0.8752  0.3228 -0.2610
  895MOL0     C20739   9.638   9.413   1.552  0.0706 -0.3217  0.4498
  895MOL0     N20740   9.048   9.068   1.544 -0.0122  0.5273 -0.5109
  895MOL0     N20741   8.923   9.065   1.513  0.6711 -0.2545  0.0318
  895MOL0     C20742   9.451   9.515   0.946 -0.2719 -0.8832 -1.1600
  895MOL0     C20743   9.576   9.556   0.993 -0.7130 -0.0794  0.2096
  895MOL0     C20744   9.953   9.580   1.212 -0.4379  0.2712  0.1246
  895MOL0     C20745   9.940   9.633   1.342 -1.2474 -0.1977 -0.8688
  895MOL0     C20746  10.053   9.675   1.421 -0.0707 -0.2340  0.4244
  895MOL0     C20747  10.179   9.662   1.372 -0.9219  0.0496  0.1468
  895MOL0     O20748  10.298   9.689   1.442  0.0902  0.2241  0.3054
  895MOL0     C20749  10.299   9.650   1.581 -0.2684 -0.7578  0.3651
  895MOL0     C20750  10.434   9.668   1.651  1.2064  0.3577  0.8289
  895MOL0     C20751  10.480   9.810   1.666 -0.4615 -0.9560  0.1218
  895MOL0     C20752  10.636   9.818   1.698 -0.2406  0.6124  0.1486
  895MOL0     C20753  10.714   9.795   1.574  0.4289 -0.1618 -0.3894
  895MOL0     C20754  10.765   9.766   1.463 -0.0225 -0.3246 -0.2277
  895MOL0     C20755  10.192   9.621   1.231  0.3751 -0.7682 -0.2313
  895MOL0     C20756  10.084   9.580   1.155 -0.2578 -1.0667  0.5879
  895MOL0     C20757  10.101   9.546   1.007 -0.1674  0.2443  0.6920
  895MOL0     H20758   9.523   9.595   1.320 -1.9498 -1.8890  0.1074
  895MOL0     H20759   9.317   9.487   1.264  1.5918  2.6300  3.6510
  895MOL0     H20760   9.098   9.458   1.156  2.0186  0.3440 -0.3148
  895MOL0     H20761   9.137   9.605   1.072 -1.8846  0.0177 -1.5400
  895MOL0     H20762   8.976   9.393   0.943  0.5761 -0.0380  0.4857
  895MOL0     H20763   9.037   9.536   0.867  1.7099 -1.5186 -0.2651
  895MOL0     H20764   8.779   9.561   0.948 -1.2805 -1.1933  2.9119
  895MOL0     H20765   8.897   9.689   0.969 -3.1232  0.3515 -0.6508
  895MOL0     H20766   8.918   9.647   1.195 -0.0600  1.3460 -0.4111
  895MOL0     H20767   8.751   9.671   1.150  0.4848  0.6357  1.3182
  895MOL0     H20768   8.680   9.453   1.151 -0.5170  1.4898  0.0478
  895MOL0     H20769   8.841   9.386   1.143 -1.4612 -0.9354  1.9091
  895MOL0     H20770   8.906   9.473   1.377  1.1397  4.9682 -0.7854
  895MOL0     H20771   8.747   9.547   1.391  0.0649 -0.6500  1.1463
  895MOL0     H20772   8.622   9.354   1.373 -0.7693  1.4552  1.1922
  895MOL0     H20773   8.738   9.347   1.504  0.8737  1.1056 -0.5155
  895MOL0     H20774   8.716   9.121   1.387 -0.9086  0.6120  0.2923
  895MOL0     H20775   8.790   9.192   1.240  1.6371  0.5889  0.1848
  895MOL0     H20776   9.062   9.306   1.326 -1.3423 -0.7085 -0.3339
  895MOL0     H20777   9.325   9.108   1.427  0.4719 -0.0226 -0.2356
  895MOL0     H20778   9.296   9.277   1.420 -0.0601 -1.2056 -1.1681
  895MOL0     H20779   9.279   9.119   1.697  1.7892 -0.4578  1.1107
  895MOL0     H20780   9.424   9.186   1.641 -0.4794  0.7648 -1.4829
  895MOL0     H20781   9.334   9.347   1.777  0.9422  1.3618  0.1103
  895MOL0     H20782   9.170   9.319   1.715  0.0187  2.6213 -0.0912
  895MOL0     H20783   9.263   9.544   1.665  2.7980 -0.3813  1.1239
  895MOL0     H20784   9.206   9.457   1.529  0.1135 -0.4816 -1.4013
  895MOL0     H20785   9.454   9.620   1.740 -0.1493  0.2950  2.3897
  895MOL0     H20786   9.674   9.661   1.847  0.2668  2.3697 -0.4314
  895MOL0     H20787  10.050   9.781   1.939  0.5377 -0.0646 -1.1324
  895MOL0     H20788  10.267   9.801   2.032  1.6119 -2.3256 -0.0082
  895MOL0     H20789  10.492   9.538   2.293  0.6002  0.1936  0.6735
  895MOL0     H20790  10.495   9.461   2.126 -0.6907  0.7195 -1.1124
  895MOL0     H20791  10.652   9.629   2.050  0.3641  0.0566 -0.7046
  895MOL0     H20792  10.640   9.718   2.207 -5.0330 -0.3343  1.1910
  895MOL0     H20793  10.748   9.442   2.159 -0.7401  1.3281 -1.4223
  895MOL0     H20794  10.853   9.583   2.169  0.0059 -1.5886 -1.6802
  895MOL0     H20795  10.687   9.465   2.394 -0.1250 -0.0016  3.3622
  895MOL0     H20796  10.788   9.607   2.420  0.8225 -1.0854  0.9724
  895MOL0     H20797  10.984   9.477   2.360 -0.4009 -0.4214 -1.6540
  895MOL0     H20798  10.873   9.336   2.329 -1.2557  1.1899 -1.7396
  895MOL0     H20799  10.930   9.480   2.600  0.5853  0.3478 -0.4988
  895MOL0     H20800  10.805   9.364   2.567 -0.2614 -0.2139 -0.9756
  895MOL0     H20801  10.980   9.192   2.480  0.7627 -1.7101  1.5136
  895MOL0     H20802  10.988   9.219   2.647  3.1774  0.6617 -0.1657
  895MOL0     H20803  11.184   9.349   2.444  1.7590 -1.7029 -0.2576
  895MOL0     H20804  11.190   9.361   2.624 -0.5283  1.6878 -1.0451
  895MOL0     H20805  10.286   9.386   2.119  2.5955  0.6859  0.7722
  895MOL0     H20806  10.068   9.359   2.011  0.6227 -0.8564  0.3914
  895MOL0     H20807   9.845   9.381   1.568 -1.3998 -0.3749 -0.2862
  895MOL0     H20808   9.625   9.351   1.464 -0.9012  2.0090 -1.1474
  895MOL0     H20809   9.431   9.496   0.841 -4.7647  0.5819 -0.7824
  895MOL0     H20810   9.661   9.555   0.926 -2.0100 -2.4919 -1.5691
  895MOL0     H20811   9.839   9.645   1.379 -0.4361  0.9746  1.1615
  895MOL0     H20812  10.047   9.724   1.518  0.4812  2.4858 -0.8243
  895MOL0     H20813  10.271   9.544   1.583  0.1605 -0.8681  0.6516
  895MOL0     H20814  10.217   9.700   1.634 -0.6253  0.1570 -1.0040
  895MOL0     H20815  10.501   9.608   1.589  0.6082  1.5741 -1.0917
  895MOL0     H20816  10.420   9.625   1.750 -2.2725  0.2980  0.4515
  895MOL0     H20817  10.420   9.861   1.742 -1.9220 -3.3515  0.6713
  895MOL0     H20818  10.456   9.864   1.573  1.2012 -0.6362 -0.1502
  895MOL0     H20819  10.656   9.917   1.741  0.8203 -1.2711  4.4730
  895MOL0     H20820  10.677   9.750   1.773  3.9411  0.9541 -1.5346
  895MOL0     H20821  10.820   9.730   1.379  1.0955  0.0389  0.3337
  895MOL0     H20822  10.291   9.607   1.190  1.3642 -0.8042  2.0339
  895MOL0     H20823  10.068   9.445   0.980  0.3330 -0.0848  1.2970
  895MOL0     H20824  10.054   9.622   0.944  3.5083  1.9454 -0.2081
  895MOL0     H20825  10.207   9.564   0.989 -0.6751  2.7106 -0.1896
  896MOL0     O20826   9.063   3.984   0.024  0.7273 -0.4710  0.2103
  896MOL0     C20827   9.008   4.011  -0.083 -0.2069 -0.7421 -0.2229
  896MOL0     O20828   9.021   4.138  -0.150 -0.5658 -0.8452  0.2370
  896MOL0     C20829   9.118   4.225  -0.122  0.1029  0.3360  0.4439
  896MOL0     C20830   9.226   4.209  -0.045  0.8984 -0.2360 -0.0069
  896MOL0     C20831   9.320   4.306  -0.042  0.3364  0.1438  0.0078
  896MOL0     C20832   9.309   4.433  -0.102 -0.3719 -0.5954 -1.2851
  896MOL0     O20833   9.409   4.526  -0.078 -0.0036  0.9487  0.3027
  896MOL0     C20834   9.402   4.645  -0.165 -0.7926 -0.3630 -0.1023
  896MOL0     C20835   9.529   4.738  -0.146 -0.1101  0.5150  0.3370
  896MOL0     C20836   9.552   4.765  -0.001 -0.2335 -0.3259 -0.4283
  896MOL0     C20837   9.677   4.848   0.023 -0.7519 -0.4408  0.9183
  896MOL0     C20838   9.709   4.879   0.173  0.1340 -0.1354 -0.4535
  896MOL0     C20839   9.821   4.981   0.194  0.1918 -0.0726 -0.0428
  896MOL0     C20840   9.957   4.952   0.122 -0.0581  0.2011 -0.1584
  896MOL0     C20841  10.056   5.064   0.138 -0.3530 -0.5230  0.4821
  896MOL0     N20842  10.146   5.054   0.262  0.3548  0.5223 -0.0504
  896MOL0     C20843  10.246   4.968   0.290 -0.8458  0.1672 -0.3640
  896MOL0     C20844  10.281   4.992   0.414  0.4238 -1.0375 -0.0438
  896MOL0     C20845  10.401   4.930   0.476  0.8798 -0.0548 -0.7049
  896MOL0     C20846  10.513   5.016   0.523 -0.1502  0.4355  0.1996
  896MOL0     C20847  10.568   5.113   0.415  0.1995  0.5662  0.1810
  896MOL0     C20848  10.705   5.167   0.458 -0.8213  0.1528  0.4683
  896MOL0     O20849  10.799   5.067   0.445 -0.5317 -0.0422  0.2579
  896MOL0     C20850  10.933   5.089   0.466 -0.8513 -0.5374 -0.0581
  896MOL0     C20851  11.035   5.000   0.417  0.2200 -0.4069  0.1751
  896MOL0     C20852  11.172   5.021   0.456 -0.5557 -0.0396  0.4357
  896MOL0     C20853  11.204   5.122   0.549 -0.1125 -0.3118  0.4776
  896MOL0     C20854  11.341   5.139   0.601  0.4890 -0.0856  0.5984
  896MOL0     O20855  11.427   5.035   0.570  0.5644 -0.7160 -0.6172
  896MOL0     C20856  11.545   5.030   0.634 -2.0693 -0.3589 -0.5196
  896MOL0     C20857  11.659   5.016   0.551  0.5708  0.4657 -0.1199
  896MOL0     C20858  11.784   5.009   0.604 -0.8378 -0.1187 -0.4249
  896MOL0     C20859  11.810   5.014   0.729  0.2711  0.2150 -0.0115
  896MOL0     O20860  11.931   5.019   0.793  0.9457 -0.3298 -0.9971
  896MOL0     C20861  12.051   4.991   0.725  0.3101  0.2122 -0.5771
  896MOL0     C20862  12.125   5.107   0.656  0.7133  0.3632 -0.0776
  896MOL0     C20863  12.257   5.052   0.601 -0.7438 -0.4808  0.0635
  896MOL0     C20864  12.316   5.160   0.513 -0.4192 -1.0797  0.1431
  896MOL0     C20865  12.443   5.116   0.439  0.4996 -0.5136 -0.0329
  896MOL0     C20866  12.562   5.093   0.529 -0.0098 -0.0071  0.4443
  896MOL0     C20867  12.686   5.088   0.438 -0.3855 -0.1241  0.2273
  896MOL0     C20868  12.812   5.141   0.520  0.3981 -0.1190  0.0587
  896MOL0    Cl20869  12.921   5.217   0.405  0.3610 -0.1336  0.5560
  896MOL0     C20870  11.709   5.019   0.822 -0.2000  1.2830  0.1997
  896MOL0     C20871  11.570   5.035   0.774 -0.7484  1.0064  1.0200
  896MOL0     O20872  11.376   5.243   0.660 -0.5052  0.3378  0.7125
  896MOL0     C20873  11.096   5.197   0.598 -0.6073  0.1614  0.1955
  896MOL0     C20874  10.968   5.179   0.562 -0.4093 -0.1265 -0.2528
  896MOL0     N20875  10.208   5.092   0.472  0.1267  0.0689 -0.2623
  896MOL0     N20876  10.114   5.120   0.388 -0.2918  0.5678  0.9838
  896MOL0     C20877   9.199   4.443  -0.190 -0.6900  0.0751 -0.0431
  896MOL0     C20878   9.101   4.348  -0.200 -0.3242  0.5122  0.5009
  896MOL0     C20879   8.919   3.907  -0.139 -0.0588 -0.9146  0.3770
  896MOL0     C20880   8.904   3.919  -0.277 -0.1951  0.4890 -0.0703
  896MOL0     C20881   8.811   3.842  -0.348  0.0573 -1.0452  0.6358
  896MOL0     C20882   8.729   3.749  -0.279  0.4606 -0.2355 -0.0160
  896MOL0     O20883   8.626   3.697  -0.342 -0.0073 -0.3710  0.2822
  896MOL0     C20884   8.506   3.664  -0.269 -0.3040  0.6565  0.1281
  896MOL0     C20885   8.417   3.782  -0.241  0.3410  0.1104 -0.0094
  896MOL0     C20886   8.374   3.845  -0.370  0.7275  0.3579 -0.1282
  896MOL0     C20887   8.327   3.989  -0.348  0.5585  0.7971  0.6460
  896MOL0     C20888   8.197   3.997  -0.292  0.3391  0.5508  0.4523
  896MOL0     C20889   8.095   4.000  -0.231  0.1260  0.2630 -0.3466
  896MOL0     C20890   8.756   3.729  -0.147 -0.2900 -0.0351 -0.3090
  896MOL0     C20891   8.854   3.801  -0.077 -0.4331  0.5972  0.9102
  896MOL0     C20892   8.871   3.782   0.068 -0.0427 -0.7971  0.7764
  896MOL0     H20893   9.255   4.120   0.010  0.7661  0.8937  1.9679
  896MOL0     H20894   9.410   4.278   0.013  2.0312  5.0358  0.1917
  896MOL0     H20895   9.404   4.621  -0.271  2.6404  1.2121 -0.5381
  896MOL0     H20896   9.312   4.705  -0.149  0.4654  1.2631  1.2128
  896MOL0     H20897   9.523   4.826  -0.210  1.1700 -0.1904 -0.7960
  896MOL0     H20898   9.617   4.678  -0.170 -0.0112  0.4538  0.8317
  896MOL0     H20899   9.552   4.670   0.053 -1.2105  0.6056  1.2837
  896MOL0     H20900   9.473   4.832   0.034  0.1002  0.1535 -0.5972
  896MOL0     H20901   9.760   4.794  -0.023  0.9689  2.3740  0.5025
  896MOL0     H20902   9.670   4.937  -0.039  1.0240 -1.6598 -1.1642
  896MOL0     H20903   9.619   4.910   0.227 -0.3882 -2.0908 -0.1022
  896MOL0     H20904   9.734   4.784   0.222  0.1607  0.5920  0.9802
  896MOL0     H20905   9.788   5.075   0.149 -2.2223 -0.8855 -0.0931
  896MOL0     H20906   9.850   4.994   0.299 -1.6183  3.6653  0.1849
  896MOL0     H20907   9.939   4.938   0.014  0.4377 -1.5470 -0.0537
  896MOL0     H20908   9.999   4.858   0.159 -2.6995 -2.1120 -2.5050
  896MOL0     H20909  10.126   5.075   0.055  0.0872  0.0250  0.9184
  896MOL0     H20910   9.995   5.155   0.136  2.3252  1.3920  0.8443
  896MOL0     H20911  10.298   4.904   0.220 -2.8819  0.2542 -2.0511
  896MOL0     H20912  10.365   4.884   0.569  2.8436  0.1461  0.2091
  896MOL0     H20913  10.432   4.848   0.411  0.2004 -1.3115  0.5004
  896MOL0     H20914  10.492   5.073   0.614  3.2438 -0.8208  1.9380
  896MOL0     H20915  10.590   4.947   0.557 -1.3319 -0.5197  1.0084
  896MOL0     H20916  10.495   5.192   0.395 -0.9184 -0.8771 -1.7524
  896MOL0     H20917  10.586   5.049   0.328 -0.9799 -0.6829  0.8153
  896MOL0     H20918  10.704   5.207   0.560 -1.7219 -1.5306  1.1674
  896MOL0     H20919  10.736   5.248   0.391 -2.5354  1.0485  0.6923
  896MOL0     H20920  11.001   4.918   0.355  1.5115 -1.4623  0.8170
  896MOL0     H20921  11.257   4.962   0.425  0.5153  1.6785 -0.0108
  896MOL0     H20922  11.643   5.018   0.444 -0.6396 -1.5492 -0.0436
  896MOL0     H20923  11.870   5.002   0.538  2.5652 -0.8347  3.6203
  896MOL0     H20924  12.117   4.959   0.807 -1.0833  3.7709  2.1758
  896MOL0     H20925  12.040   4.903   0.661 -0.9835 -0.6794  0.8135
  896MOL0     H20926  12.066   5.141   0.570  0.2887  0.3986  0.2276
  896MOL0     H20927  12.154   5.192   0.719  2.7317 -2.1114  2.6136
  896MOL0     H20928  12.324   5.017   0.680 -0.7937  0.0825  0.3699
  896MOL0     H20929  12.242   4.971   0.530 -0.0777 -0.7501  0.2233
  896MOL0     H20930  12.333   5.250   0.573  1.1600 -1.5432  0.4415
  896MOL0     H20931  12.257   5.189   0.426  1.6822 -0.4633 -1.1650
  896MOL0     H20932  12.464   5.197   0.369  1.9984 -0.1903  0.7531
  896MOL0     H20933  12.428   5.023   0.382 -1.7749 -1.7108  2.3078
  896MOL0     H20934  12.566   5.176   0.601 -4.3937  2.6138 -1.8615
  896MOL0     H20935  12.537   5.001   0.582 -3.2740 -0.4542 -1.5671
  896MOL0     H20936  12.671   5.140   0.343  2.3341 -0.7955 -0.6480
  896MOL0     H20937  12.705   4.988   0.398 -3.2398  0.5555 -3.4020
  896MOL0     H20938  12.782   5.219   0.591  0.2511 -1.5161  1.6056
  896MOL0     H20939  12.858   5.054   0.569  2.4869  0.5762 -0.5813
  896MOL0     H20940  11.736   5.004   0.926  3.6091 -0.1929 -0.8177
  896MOL0     H20941  11.494   5.051   0.850 -0.6251  0.8684  1.1731
  896MOL0     H20942  11.114   5.266   0.679  2.2212  1.0639 -1.0880
  896MOL0     H20943  10.910   5.258   0.610 -0.4536 -0.4080  0.1682
  896MOL0     H20944   9.181   4.536  -0.243  2.0223  0.3574 -0.6234
  896MOL0     H20945   9.013   4.366  -0.261  1.7832  0.4624 -2.7830
  896MOL0     H20946   8.959   3.995  -0.332  0.3229 -0.0005 -0.2305
  896MOL0     H20947   8.792   3.854  -0.455  0.4397 -2.2073  0.4220
  896MOL0     H20948   8.535   3.610  -0.178  2.1376  1.7929  0.1093
  896MOL0     H20949   8.442   3.598  -0.328 -1.3790  0.3198  1.6071
  896MOL0     H20950   8.477   3.858  -0.190  2.2709  0.0410 -2.0451
  896MOL0     H20951   8.331   3.747  -0.184  0.9841 -2.7661 -0.6511
  896MOL0     H20952   8.293   3.784  -0.409  1.2489  0.6011 -1.6345
  896MOL0     H20953   8.458   3.848  -0.440  1.4867 -2.6927  0.4997
  896MOL0     H20954   8.396   4.048  -0.287 -1.0658  2.4098  1.0144
  896MOL0     H20955   8.324   4.041  -0.445  0.7165 -0.5154 -0.0913
  896MOL0     H20956   8.011   4.011  -0.166  0.2194  0.8978 -0.3334
  896MOL0     H20957   8.696   3.658  -0.091 -0.6494 -2.3619 -3.4058
  896MOL0     H20958   8.900   3.873   0.123  0.7331 -0.9594  0.6356
  896MOL0     H20959   8.778   3.750   0.116  0.2472 -1.2294  1.0519
  896MOL0     H20960   8.938   3.698   0.085 -1.6012 -1.7450  2.6583
  897MOL0     O20961   8.903  10.818   2.566  0.7466 -0.4149 -0.0529
  897MOL0     C20962   8.781  10.791   2.566 -1.0539 -0.8436  0.0234
  897MOL0     O20963   8.713  10.750   2.459  0.1045 -0.1857  0.3309
  897MOL0     C20964   8.771  10.683   2.353 -0.4592  0.8420 -0.8498
  897MOL0     C20965   8.716  10.697   2.224  0.6209  0.1486  0.6265
  897MOL0     C20966   8.778  10.632   2.114 -0.2838 -0.7488 -0.2447
  897MOL0     C20967   8.902  10.568   2.127  0.6759  1.4364 -0.3351
  897MOL0     O20968   8.968  10.539   2.009 -0.0405 -0.0506 -0.4407
  897MOL0     C20969   9.103  10.494   2.019 -0.1512  0.3015 -0.4056
  897MOL0     C20970   9.176  10.467   1.889 -1.1621  0.9325  0.1942
  897MOL0     C20971   9.318  10.396   1.923  0.4196  0.2582  0.3198
  897MOL0     C20972   9.401  10.392   1.792  0.9585  0.3708 -0.8468
  897MOL0     C20973   9.539  10.335   1.824 -0.2311  0.0881  0.3579
  897MOL0     C20974   9.640  10.431   1.892  0.4512 -0.3698  0.8439
  897MOL0     C20975   9.772  10.365   1.940  0.0958  0.1809  0.0435
  897MOL0     C20976   9.752  10.285   2.072 -0.0081 -0.4902  0.0356
  897MOL0     N20977   9.861  10.195   2.104 -1.1154 -0.3179 -0.8981
  897MOL0     C20978   9.982  10.245   2.164 -0.0453  0.7196 -0.0768
  897MOL0     C20979  10.064  10.133   2.159 -0.3841 -0.4947 -0.2669
  897MOL0     C20980  10.207  10.126   2.211  0.8695  0.0668  0.8679
  897MOL0     C20981  10.226  10.002   2.300 -0.1009 -0.8012  0.5572
  897MOL0     C20982  10.351   9.983   2.376  0.1402 -0.6453 -0.5295
  897MOL0     C20983  10.478   9.978   2.279 -0.6110  0.1776  0.1199
  897MOL0     O20984  10.586   9.943   2.366 -0.6340  0.0083  0.6827
  897MOL0     C20985  10.717   9.950   2.319  0.4886  0.2857 -0.2705
  897MOL0     C20986  10.758  10.001   2.193  0.3145  0.1643 -0.8202
  897MOL0     C20987  10.894  10.007   2.160  0.0791 -0.2592 -0.0470
  897MOL0     C20988  10.990   9.978   2.258 -0.9851  0.9169  0.2413
  897MOL0     C20989  11.131  10.003   2.230 -0.6297  0.8584  0.3171
  897MOL0     O20990  11.166  10.019   2.101  0.1153 -0.3883 -0.1006
  897MOL0     C20991  11.294  10.037   2.071  0.3845  0.2893  0.3537
  897MOL0     C20992  11.343   9.931   2.001 -0.0965  0.0976  1.2217
  897MOL0     C20993  11.480   9.937   1.971  0.1491  0.5417 -0.2597
  897MOL0     C20994  11.564  10.040   2.021 -0.2007 -0.5290  0.1090
  897MOL0     O20995  11.698  10.056   2.001 -0.3286 -0.8393  0.8314
  897MOL0     C20996  11.778   9.944   1.951  0.7802 -0.3357  0.5144
  897MOL0     C20997  11.923   9.980   1.965 -0.1623  0.6708 -0.5472
  897MOL0     C20998  11.973   9.965   2.106  0.5503 -0.3952  0.0220
  897MOL0     C20999  12.114  10.023   2.122 -0.1535  0.5257 -1.0994
  897MOL0     C21000  12.172  10.021   2.265 -0.0047 -0.4322 -0.3717
  897MOL0     C21001  12.322   9.989   2.267 -0.0829  0.3919 -0.4832
  897MOL0     C21002  12.421  10.111   2.242  0.1237  0.0957  0.1686
  897MOL0     C21003  12.455  10.193   2.362 -0.5862 -0.9023 -0.3309
  897MOL0    Cl21004  12.543  10.099   2.488 -0.4768  0.3165  0.0915
  897MOL0     C21005  11.513  10.151   2.091  1.1892  0.3502  0.4399
  897MOL0     C21006  11.373  10.146   2.117  0.0458 -0.3893 -0.8602
  897MOL0     O21007  11.210  10.006   2.327 -0.1232  0.1031  0.0581
  897MOL0     C21008  10.945   9.941   2.385  0.1405  0.7140  0.1085
  897MOL0     C21009  10.812   9.927   2.416  0.3144 -0.0326  0.6897
  897MOL0     N21010  10.002  10.032   2.093 -0.0247  0.0903 -0.5011
  897MOL0     N21011   9.882  10.070   2.063 -0.6026 -0.4430  0.6962
  897MOL0     C21012   8.960  10.556   2.252  0.3045  0.0696 -0.2838
  897MOL0     C21013   8.896  10.612   2.363  0.3214  0.0600  0.3442
  897MOL0     C21014   8.696  10.821   2.692  0.1530 -0.4146 -0.0085
  897MOL0     C21015   8.553  10.785   2.699 -0.7685 -0.1845 -0.1363
  897MOL0     C21016   8.481  10.788   2.819 -0.6420 -0.5713 -0.0419
  897MOL0     C21017   8.524  10.850   2.939 -1.1908  0.2120 -0.4227
  897MOL0     O21018   8.434  10.887   3.041  0.3587 -0.5211  1.0449
  897MOL0     C21019   8.291  10.870   3.022 -0.5484  0.6630 -0.5191
  897MOL0     C21020   8.212  10.903   3.144  0.4348  0.4496 -0.9905
  897MOL0     C21021   8.243  11.038   3.214  1.1033 -0.4188 -0.7562
  897MOL0     C21022   8.153  11.149   3.155  0.3325 -0.3140  1.1228
  897MOL0     C21023   8.127  11.258   3.244  0.6752 -0.1575  0.2962
  897MOL0     C21024   8.093  11.352   3.315  0.1390 -0.3444  0.2558
  897MOL0     C21025   8.661  10.891   2.935 -0.0442  0.3795 -0.2024
  897MOL0     C21026   8.748  10.879   2.815  0.6576  0.3340 -0.3580
  897MOL0     C21027   8.886  10.943   2.835  0.8472  0.8493 -0.4730
  897MOL0     H21028   8.630  10.761   2.208  0.4772 -0.7230 -2.7701
  897MOL0     H21029   8.732  10.635   2.016 -1.0720 -0.5593  0.1189
  897MOL0     H21030   9.149  10.568   2.085 -2.0869 -1.4270  3.2157
  897MOL0     H21031   9.101  10.398   2.072  1.4825 -0.4069 -1.5664
  897MOL0     H21032   9.209  10.556   1.834  1.7136 -0.6671 -0.9164
  897MOL0     H21033   9.129  10.399   1.817 -0.5805 -1.0899  1.6314
  897MOL0     H21034   9.303  10.293   1.957 -0.1878  0.5431  0.9600
  897MOL0     H21035   9.374  10.446   2.002  0.1248 -2.2252  2.2473
  897MOL0     H21036   9.348  10.341   1.711 -1.4313 -0.1322  0.9295
  897MOL0     H21037   9.415  10.498   1.769 -0.3229  1.3841  2.4467
  897MOL0     H21038   9.530  10.245   1.885 -1.6505 -0.9655 -1.2976
  897MOL0     H21039   9.577  10.295   1.729 -1.6682  2.5771 -1.3698
  897MOL0     H21040   9.670  10.508   1.820  0.5669 -0.0165  1.2662
  897MOL0     H21041   9.596  10.469   1.984 -1.0378 -0.4807  0.2112
  897MOL0     H21042   9.857  10.432   1.959 -0.3842 -0.0117  3.5086
  897MOL0     H21043   9.798  10.296   1.859  2.4276  1.0991 -0.0790
  897MOL0     H21044   9.731  10.361   2.148  2.5054  0.5085 -0.1467
  897MOL0     H21045   9.666  10.219   2.061 -0.6326  0.6411 -2.5413
  897MOL0     H21046  10.009  10.335   2.218  1.5167  0.6070 -0.6122
  897MOL0     H21047  10.273  10.118   2.124 -1.9808 -1.3832 -1.3693
  897MOL0     H21048  10.239  10.213   2.269  1.5269 -0.6018  1.5090
  897MOL0     H21049  10.143   9.994   2.371 -2.2902  1.5109 -1.5329
  897MOL0     H21050  10.219   9.916   2.232 -1.2245 -3.1294  3.3892
  897MOL0     H21051  10.333   9.889   2.431 -3.0211 -0.2936 -0.7903
  897MOL0     H21052  10.370  10.069   2.440  2.1189 -0.3138 -1.4847
  897MOL0     H21053  10.496  10.069   2.221 -0.6737  0.2560  0.2215
  897MOL0     H21054  10.462   9.907   2.198  1.8143  1.7150 -1.8568
  897MOL0     H21055  10.689  10.034   2.116  2.3174 -0.2873 -2.9282
  897MOL0     H21056  10.917  10.047   2.062 -1.2041  0.3830 -0.1111
  897MOL0     H21057  11.281   9.845   1.977 -0.0104  0.6269 -1.1796
  897MOL0     H21058  11.530   9.856   1.920  0.4058  0.7971 -0.4202
  897MOL0     H21059  11.750   9.856   2.009 -0.4601 -3.2230 -3.9203
  897MOL0     H21060  11.762   9.934   1.843 -1.0806  0.8370  0.6400
  897MOL0     H21061  11.991   9.920   1.904 -1.4636  0.3537 -1.7466
  897MOL0     H21062  11.932  10.083   1.929  1.1155 -0.3675 -3.4837
  897MOL0     H21063  11.910  10.018   2.178 -0.9713  0.0337 -1.5689
  897MOL0     H21064  11.972   9.862   2.142 -1.1179 -0.3940  0.0516
  897MOL0     H21065  12.112  10.129   2.094 -1.1265  0.5689 -0.9013
  897MOL0     H21066  12.179   9.963   2.058  0.3461  2.2041 -2.2594
  897MOL0     H21067  12.115   9.946   2.322  3.5006 -0.6118  3.4298
  897MOL0     H21068  12.161  10.114   2.321 -2.5151 -2.0344  2.0593
  897MOL0     H21069  12.342   9.960   2.370  0.0169  4.2268  0.7204
  897MOL0     H21070  12.344   9.913   2.192  0.4350  0.1734 -0.1158
  897MOL0     H21071  12.386  10.178   2.164  1.1309 -0.4353 -0.7724
  897MOL0     H21072  12.512  10.069   2.197  1.3655 -0.4099  2.9131
  897MOL0     H21073  12.508  10.284   2.333 -4.3661  1.1379 -1.5039
  897MOL0     H21074  12.366  10.235   2.408 -0.4834 -0.5998 -0.4046
  897MOL0     H21075  11.590  10.226   2.110  2.2311 -0.7754  0.7615
  897MOL0     H21076  11.319  10.220   2.176  1.8700 -0.1810  0.6621
  897MOL0     H21077  11.013   9.918   2.467 -0.5957 -0.0561  0.5235
  897MOL0     H21078  10.776   9.898   2.514 -0.9470 -3.3787 -0.6050
  897MOL0     H21079   9.045  10.491   2.267 -1.7750 -2.9324 -0.5653
  897MOL0     H21080   8.933  10.603   2.465 -1.4319  4.0684  1.5232
  897MOL0     H21081   8.501  10.748   2.611 -1.2737 -0.5271  0.3018
  897MOL0     H21082   8.382  10.744   2.813  0.5760 -3.4521 -0.7868
  897MOL0     H21083   8.275  10.764   3.001 -0.3158  0.2125  1.3701
  897MOL0     H21084   8.247  10.932   2.944 -0.7070 -0.6735 -1.5365
  897MOL0     H21085   8.231  10.818   3.211  0.4776 -0.3322 -1.9642
  897MOL0     H21086   8.108  10.907   3.111  0.2878 -0.4222 -0.6717
  897MOL0     H21087   8.350  11.058   3.211  1.2992 -1.4740 -1.3363
  897MOL0     H21088   8.227  11.023   3.321  1.2748  1.3330 -0.4698
  897MOL0     H21089   8.192  11.210   3.073 -0.4905  0.0718  1.0017
  897MOL0     H21090   8.059  11.104   3.119 -0.2332  1.4147  0.3212
  897MOL0     H21091   8.047  11.417   3.387  0.5819 -1.2186  1.3498
  897MOL0     H21092   8.705  10.939   3.022  0.1053  0.2438 -0.2015
  897MOL0     H21093   8.948  10.854   2.847 -0.0057  0.2580 -0.3562
  897MOL0     H21094   8.912  10.994   2.741 -0.3240 -3.0188 -3.1753
  897MOL0     H21095   8.896  11.004   2.925 -3.6586  1.4850 -0.1586
  898MOL0     O21096   0.017   3.229   3.622  0.2717  0.1360 -0.0143
  898MOL0     C21097   0.030   3.343   3.586  0.5105 -0.2556  0.4366
  898MOL0     O21098   0.135   3.392   3.511  0.1348 -0.2143  1.2280
  898MOL0     C21099   0.249   3.312   3.499 -0.3485  0.0124  0.3282
  898MOL0     C21100   0.316   3.313   3.380  0.6918 -1.4233  0.1919
  898MOL0     C21101   0.436   3.242   3.360 -0.0841 -0.2422  0.0016
  898MOL0     C21102   0.493   3.179   3.467  0.2723  0.4272 -0.1774
  898MOL0     O21103   0.620   3.147   3.460 -0.4198 -0.0081  0.2864
  898MOL0     C21104   0.724   3.233   3.521 -0.1077  0.2746  0.0256
  898MOL0     C21105   0.858   3.169   3.486  0.0339 -0.1568  0.2759
  898MOL0     C21106   0.970   3.273   3.491 -0.1204 -0.2466 -0.4402
  898MOL0     C21107   1.106   3.206   3.501 -0.0688  0.0744  0.8393
  898MOL0     C21108   1.225   3.292   3.456 -0.2415 -0.5563 -0.0547
  898MOL0     C21109   1.361   3.228   3.482 -0.3327 -0.3570 -0.1920
  898MOL0     C21110   1.466   3.291   3.395 -0.5180 -0.0129 -0.3309
  898MOL0     C21111   1.602   3.210   3.409  0.2769 -0.2576 -0.5682
  898MOL0     N21112   1.703   3.263   3.318  0.0727 -0.0991  0.5090
  898MOL0     C21113   1.813   3.193   3.286 -0.3406 -0.3382  1.0548
  898MOL0     C21114   1.900   3.286   3.230  0.3499 -0.1219  0.3853
  898MOL0     C21115   2.020   3.251   3.157 -0.2345  0.3651 -0.8472
  898MOL0     C21116   2.108   3.360   3.100 -0.2501 -0.1038 -0.1099
  898MOL0     C21117   2.257   3.325   3.105  0.6052  0.1135  0.2516
  898MOL0     C21118   2.282   3.191   3.019 -0.1998  0.0609 -0.1783
  898MOL0     O21119   2.292   3.215   2.871 -0.7560 -0.3404 -0.4931
  898MOL0     C21120   2.414   3.270   2.834 -0.5665 -0.0248 -1.0197
  898MOL0     C21121   2.432   3.280   2.695  0.9363  0.2896  0.3429
  898MOL0     C21122   2.546   3.337   2.646  0.1415 -0.5424  0.0173
  898MOL0     C21123   2.660   3.370   2.727  0.1961  0.2176  0.6965
  898MOL0     C21124   2.792   3.406   2.666  0.5881  0.7286  0.2052
  898MOL0     O21125   2.788   3.458   2.534  0.0424  0.1356  0.5953
  898MOL0     C21126   2.905   3.440   2.467  0.8421  0.4421 -0.0311
  898MOL0     C21127   2.934   3.318   2.414  0.0251 -0.0986 -0.3061
  898MOL0     C21128   3.047   3.309   2.339  0.3193 -0.3029 -0.0763
  898MOL0     C21129   3.136   3.420   2.317 -0.0299  0.2210  0.0051
  898MOL0     O21130   3.253   3.398   2.252  0.2303  0.4383 -0.8054
  898MOL0     C21131   3.345   3.505   2.218  0.4854  0.4452 -0.7612
  898MOL0     C21132   3.470   3.450   2.155 -0.4933  0.3920  0.6366
  898MOL0     C21133   3.577   3.553   2.124 -1.1664  0.4010  1.3594
  898MOL0     C21134   3.701   3.493   2.044  0.3334  0.5208  0.5261
  898MOL0     C21135   3.814   3.591   2.045 -0.2853 -0.4354  1.1227
  898MOL0     C21136   3.939   3.504   2.037  0.5071 -0.8466  0.4715
  898MOL0     C21137   4.063   3.577   1.983  0.1732 -0.1786 -0.0871
  898MOL0     C21138   4.190   3.491   1.983 -0.7037  0.3692  0.0927
  898MOL0    Cl21139   4.242   3.479   2.158  0.4866 -0.2491  0.3028
  898MOL0     C21140   3.102   3.549   2.371 -0.2624  0.1942 -0.1104
  898MOL0     C21141   2.985   3.555   2.438 -0.6393 -0.6047 -0.0548
  898MOL0     O21142   2.893   3.380   2.730  0.1567 -0.5724  0.2076
  898MOL0     C21143   2.646   3.350   2.869  0.5870 -0.5959  0.0256
  898MOL0     C21144   2.521   3.311   2.916  0.1524  0.6106  0.2225
  898MOL0     N21145   1.829   3.417   3.239 -0.0549  0.5445  0.2218
  898MOL0     N21146   1.714   3.398   3.289  0.0410  0.8889  0.5591
  898MOL0     C21147   0.429   3.176   3.590 -0.3104 -0.5895 -0.3470
  898MOL0     C21148   0.312   3.250   3.612 -0.0812  0.4661  0.3097
  898MOL0     C21149  -0.086   3.444   3.609  0.0009 -0.5919  0.4225
  898MOL0     C21150  -0.083   3.566   3.541 -0.2489  0.4505  0.9427
  898MOL0     C21151  -0.197   3.645   3.534 -0.4156  0.0599  0.0504
  898MOL0     C21152  -0.310   3.617   3.608  0.3400  0.7174 -1.1358
  898MOL0     O21153  -0.422   3.687   3.591  0.2038  0.1437 -0.8019
  898MOL0     C21154  -0.491   3.642   3.473  0.0405 -0.4402 -0.1660
  898MOL0     C21155  -0.564   3.504   3.478  0.0633  0.1716 -0.5499
  898MOL0     C21156  -0.665   3.507   3.583 -0.3680 -0.0256 -0.2507
  898MOL0     C21157  -0.743   3.370   3.582 -0.5193  0.1128  0.0648
  898MOL0     C21158  -0.665   3.250   3.596 -0.5624 -0.1554  0.0408
  898MOL0     C21159  -0.595   3.157   3.627  0.3002  0.2576 -0.9830
  898MOL0     C21160  -0.309   3.502   3.692  0.2982  0.5896 -0.2272
  898MOL0     C21161  -0.199   3.413   3.686  0.1553 -0.0535  0.0414
  898MOL0     C21162  -0.217   3.286   3.761 -0.0615  0.1676 -0.7637
  898MOL0     H21163   0.266   3.372   3.303 -1.0013 -0.2514  2.1018
  898MOL0     H21164   0.489   3.246   3.266 -1.9329  1.1351 -1.0311
  898MOL0     H21165   0.721   3.336   3.483  0.9241  0.2184 -0.2154
  898MOL0     H21166   0.712   3.244   3.629  1.0337  0.6216  0.1231
  898MOL0     H21167   0.856   3.123   3.387 -0.8899  2.3797 -0.9705
  898MOL0     H21168   0.877   3.096   3.565 -1.5400 -2.6522 -1.5032
  898MOL0     H21169   0.949   3.359   3.555  1.9915  0.3044 -0.4100
  898MOL0     H21170   0.964   3.323   3.394 -0.0595  0.9662  0.1618
  898MOL0     H21171   1.136   3.161   3.597 -0.1130  0.9864  1.2962
  898MOL0     H21172   1.115   3.121   3.433  1.4787 -0.1244  1.2496
  898MOL0     H21173   1.215   3.306   3.348 -1.0821 -0.9292 -0.0307
  898MOL0     H21174   1.216   3.396   3.491 -2.5824 -0.8576  0.3584
  898MOL0     H21175   1.385   3.244   3.588 -2.3096  0.9167  0.1198
  898MOL0     H21176   1.353   3.121   3.463 -0.6830 -0.6903  1.6014
  898MOL0     H21177   1.479   3.392   3.434 -0.2477 -0.3316  0.4092
  898MOL0     H21178   1.428   3.293   3.292 -0.2158 -0.1562 -0.4442
  898MOL0     H21179   1.636   3.216   3.513 -0.8195 -0.6361 -0.1751
  898MOL0     H21180   1.580   3.111   3.368  1.2965  0.4290 -2.9364
  898MOL0     H21181   1.814   3.085   3.287 -2.1954 -0.3946  1.8115
  898MOL0     H21182   2.079   3.195   3.231  0.5616  2.1368 -0.0993
  898MOL0     H21183   1.986   3.185   3.077  0.0626  1.2602 -1.7199
  898MOL0     H21184   2.078   3.385   2.998 -2.7813 -1.9681  0.0824
  898MOL0     H21185   2.089   3.447   3.164  2.3347 -0.0795  0.7505
  898MOL0     H21186   2.299   3.301   3.203 -1.3402 -0.1921  1.0577
  898MOL0     H21187   2.313   3.414   3.074  1.5139 -0.8467 -0.9643
  898MOL0     H21188   2.203   3.115   3.024 -0.3115  0.1240 -0.8978
  898MOL0     H21189   2.359   3.126   3.062 -1.3184 -1.0622  0.2009
  898MOL0     H21190   2.347   3.250   2.635  3.1394 -1.1714 -2.2688
  898MOL0     H21191   2.561   3.344   2.539  0.6487  4.6784  0.1793
  898MOL0     H21192   2.867   3.234   2.429  2.1840 -2.0069 -0.6648
  898MOL0     H21193   3.087   3.215   2.303 -1.8489 -0.3815 -2.5319
  898MOL0     H21194   3.293   3.584   2.163  0.1694 -0.1185 -1.2767
  898MOL0     H21195   3.372   3.573   2.299  0.0224  0.8924 -0.9784
  898MOL0     H21196   3.522   3.378   2.220 -0.1282  0.5931  0.5724
  898MOL0     H21197   3.437   3.395   2.067  0.0210 -1.2241  1.4065
  898MOL0     H21198   3.540   3.641   2.071  0.0539 -0.8634 -1.8657
  898MOL0     H21199   3.623   3.587   2.218 -0.1949 -2.2309  1.9305
  898MOL0     H21200   3.682   3.459   1.942  0.5939  0.9976  0.3125
  898MOL0     H21201   3.728   3.400   2.097  1.2457 -0.3454 -1.3791
  898MOL0     H21202   3.820   3.659   2.131 -1.5338  1.1477  0.0293
  898MOL0     H21203   3.796   3.653   1.956 -2.2883 -1.5533  0.6790
  898MOL0     H21204   3.955   3.468   2.139 -0.3033  1.2983  1.4085
  898MOL0     H21205   3.930   3.416   1.972  2.2120 -0.9245  0.3134
  898MOL0     H21206   4.073   3.673   2.034  1.5548 -0.9105  1.0972
  898MOL0     H21207   4.047   3.606   1.879 -0.3004 -0.8736 -0.2198
  898MOL0     H21208   4.181   3.389   1.946  1.7291 -0.8270  2.3984
  898MOL0     H21209   4.277   3.529   1.929 -0.4874 -3.3529 -2.5567
  898MOL0     H21210   3.160   3.640   2.356 -3.3964  2.5063  0.7817
  898MOL0     H21211   2.945   3.645   2.482 -0.2015 -1.1168  1.4832
  898MOL0     H21212   2.720   3.345   2.947  0.3630 -1.5245  0.1947
  898MOL0     H21213   2.528   3.294   3.023 -0.5772 -1.5763 -0.0333
  898MOL0     H21214   0.480   3.143   3.681 -1.2513  0.6790  0.6754
  898MOL0     H21215   0.281   3.252   3.717 -1.0869 -2.6186  0.1681
  898MOL0     H21216   0.006   3.592   3.485 -2.1495 -0.6195 -2.9921
  898MOL0     H21217  -0.181   3.728   3.466  2.7236 -1.8369 -1.8367
  898MOL0     H21218  -0.418   3.636   3.392 -0.6375 -1.8859 -0.7063
  898MOL0     H21219  -0.557   3.725   3.446  1.2541  1.8354  3.2332
  898MOL0     H21220  -0.493   3.424   3.498  1.6231  2.1409  2.7442
  898MOL0     H21221  -0.607   3.498   3.377 -4.0805 -0.8520  1.0684
  898MOL0     H21222  -0.726   3.598   3.577 -0.5481 -0.1602 -0.4773
  898MOL0     H21223  -0.611   3.503   3.678  1.3322  0.5416 -1.1622
  898MOL0     H21224  -0.806   3.374   3.671 -1.3795  1.2571 -0.5643
  898MOL0     H21225  -0.804   3.362   3.491 -1.1427  0.2737  0.4691
  898MOL0     H21226  -0.536   3.074   3.660 -0.2865 -0.1357 -0.9100
  898MOL0     H21227  -0.402   3.467   3.737  0.7812 -0.3714  0.0447
  898MOL0     H21228  -0.312   3.287   3.815 -0.3516 -1.1390 -1.2071
  898MOL0     H21229  -0.221   3.210   3.682  1.2173 -0.7469  0.0041
  898MOL0     H21230  -0.131   3.260   3.824 -1.0998 -1.9289 -0.0811
  899MOL0     O21231   0.587   1.040   7.460  0.2966  0.4545  0.5608
  899MOL0     C21232   0.512   1.048   7.559 -0.1303 -0.0390  0.3735
  899MOL0     O21233   0.515   1.151   7.649 -0.3517 -0.2839  0.0277
  899MOL0     C21234   0.633   1.225   7.644  0.0419 -0.2846  1.4473
  899MOL0     C21235   0.749   1.175   7.701 -0.3526  0.4866 -0.3127
  899MOL0     C21236   0.879   1.235   7.689  0.1728 -0.5760  0.3157
  899MOL0     C21237   0.878   1.353   7.609 -0.0391 -0.6022 -0.2961
  899MOL0     O21238   0.996   1.424   7.585  0.0821  0.0231  0.0190
  899MOL0     C21239   1.123   1.390   7.646  0.3978  0.0045  0.4750
  899MOL0     C21240   1.234   1.468   7.581  0.1556 -1.0958  0.1740
  899MOL0     C21241   1.248   1.434   7.433 -0.2131 -0.3298 -0.5016
  899MOL0     C21242   1.326   1.304   7.387  0.1568  0.4776 -0.5567
  899MOL0     C21243   1.480   1.305   7.393 -0.7988 -0.4259  0.4879
  899MOL0     C21244   1.529   1.283   7.535  0.2259  0.3862  0.3692
  899MOL0     C21245   1.656   1.208   7.544  0.0749  0.6854  0.5702
  899MOL0     C21246   1.783   1.298   7.518  0.4703  0.3685  0.8083
  899MOL0     N21247   1.910   1.226   7.546  0.1570  0.7787  0.0760
  899MOL0     C21248   2.008   1.201   7.454 -0.2119  0.9971  0.1465
  899MOL0     C21249   2.105   1.133   7.531  0.4200 -0.0514  0.6970
  899MOL0     C21250   2.239   1.071   7.492  0.4520 -0.1408  0.1439
  899MOL0     C21251   2.324   1.143   7.385  1.1180 -0.0704 -0.6471
  899MOL0     C21252   2.468   1.091   7.367 -0.0848  0.1016  0.6585
  899MOL0     C21253   2.565   1.205   7.310 -0.0545  0.1037 -0.3759
  899MOL0     O21254   2.553   1.317   7.396  0.0967 -0.1983 -0.7662
  899MOL0     C21255   2.659   1.396   7.428 -0.0399 -0.3390  0.3203
  899MOL0     C21256   2.742   1.380   7.540 -0.1054  0.2542  0.1927
  899MOL0     C21257   2.842   1.466   7.574  0.8329 -0.1253  1.0921
  899MOL0     C21258   2.864   1.580   7.494 -0.4464  0.1880  0.5534
  899MOL0     C21259   2.974   1.680   7.525  0.6382  0.0625  0.4573
  899MOL0     O21260   3.039   1.655   7.633  0.0658  0.0304  0.6873
  899MOL0     C21261   3.164   1.711   7.664  0.8992 -0.1623 -0.0465
  899MOL0     C21262   3.230   1.813   7.589 -0.2787 -0.2137 -0.6486
  899MOL0     C21263   3.356   1.861   7.644 -0.1993 -0.9292 -0.4915
  899MOL0     C21264   3.417   1.796   7.748  0.1351 -0.0608  0.1120
  899MOL0     O21265   3.547   1.837   7.786  0.5589  0.3620  0.6493
  899MOL0     C21266   3.648   1.734   7.787  0.3443  0.4727 -0.1523
  899MOL0     C21267   3.773   1.781   7.862  0.2347  0.4681  0.5098
  899MOL0     C21268   3.789   1.938   7.843 -0.0215  0.5315 -0.6114
  899MOL0     C21269   3.923   1.987   7.897 -0.4500  0.2517  0.2994
  899MOL0     C21270   3.923   2.136   7.882 -0.0493  0.3753  0.6055
  899MOL0     C21271   4.035   2.195   7.950 -0.7359 -0.2397 -0.0343
  899MOL0     C21272   4.166   2.170   7.886  0.7438 -0.0126  0.7568
  899MOL0     C21273   4.282   2.252   7.947 -0.7211 -0.0240 -0.2912
  899MOL0    Cl21274   4.263   2.430   7.927  0.1216  0.0760 -0.2231
  899MOL0     C21275   3.345   1.704   7.827 -0.1681  0.0589 -0.1762
  899MOL0     C21276   3.216   1.664   7.787 -0.2106  0.3774 -0.4418
  899MOL0     O21277   2.972   1.784   7.453  0.5409  0.8975  0.2327
  899MOL0     C21278   2.777   1.599   7.389  0.2191 -0.8291  0.1136
  899MOL0     C21279   2.676   1.509   7.351 -0.0035 -0.0575 -0.3222
  899MOL0     N21280   2.074   1.139   7.667  0.1541 -0.1014  0.0239
  899MOL0     N21281   1.956   1.194   7.669 -0.8250 -0.0833  0.3374
  899MOL0     C21282   0.758   1.409   7.557 -0.0118 -0.0477  0.4190
  899MOL0     C21283   0.636   1.355   7.575  0.2419  0.5338  0.0042
  899MOL0     C21284   0.405   0.935   7.579 -0.3203 -0.6030  0.1943
  899MOL0     C21285   0.298   0.953   7.665  0.3582  0.0320 -0.6179
  899MOL0     C21286   0.193   0.856   7.682 -0.0835 -0.7078  1.8529
  899MOL0     C21287   0.192   0.743   7.603 -0.5066  0.4458  0.5184
  899MOL0     O21288   0.093   0.652   7.604 -0.3726  0.1703 -0.4359
  899MOL0     C21289  -0.036   0.702   7.644  0.1124 -0.0174  0.2453
  899MOL0     C21290  -0.144   0.615   7.591  0.3318 -0.4128  0.3460
  899MOL0     C21291  -0.129   0.465   7.636 -0.7592  0.0098  0.6862
  899MOL0     C21292  -0.250   0.388   7.594  0.1074  0.1156  0.2200
  899MOL0     C21293  -0.242   0.356   7.450 -0.8078  0.8583 -0.6891
  899MOL0     C21294  -0.248   0.334   7.333  0.7193 -0.3602  0.0140
  899MOL0     C21295   0.305   0.725   7.528  0.4162 -0.4158  0.2309
  899MOL0     C21296   0.410   0.809   7.519  0.2184  0.1128  0.0537
  899MOL0     C21297   0.528   0.757   7.434 -0.6698  0.5945  0.1244
  899MOL0     H21298   0.742   1.075   7.742 -1.9677  0.7217  0.0329
  899MOL0     H21299   0.964   1.187   7.736 -0.4632 -1.8253  0.2301
  899MOL0     H21300   1.112   1.437   7.745 -1.3877  3.7056 -1.2846
  899MOL0     H21301   1.148   1.284   7.645  0.6150  0.0579 -0.1917
  899MOL0     H21302   1.326   1.442   7.635  1.7089  1.7042 -0.9109
  899MOL0     H21303   1.214   1.575   7.589 -3.0786 -1.6733  1.3703
  899MOL0     H21304   1.288   1.524   7.385 -1.4321  1.0242  0.9076
  899MOL0     H21305   1.145   1.418   7.401 -0.2397  0.7299 -0.9949
  899MOL0     H21306   1.283   1.222   7.445  1.1695 -0.8482 -1.6018
  899MOL0     H21307   1.298   1.283   7.283 -2.3825  0.5640  0.0605
  899MOL0     H21308   1.505   1.213   7.339  0.8759  1.0384 -1.3712
  899MOL0     H21309   1.528   1.395   7.354 -2.9640  0.4935 -0.2074
  899MOL0     H21310   1.526   1.379   7.587 -0.3002 -1.0788  3.2578
  899MOL0     H21311   1.453   1.225   7.588  2.4093 -0.5294  2.6744
  899MOL0     H21312   1.652   1.121   7.478 -3.1366  0.6092  0.7010
  899MOL0     H21313   1.663   1.159   7.641 -0.3652  0.9005  0.7147
  899MOL0     H21314   1.779   1.336   7.416 -0.9972  0.1415  0.7674
  899MOL0     H21315   1.773   1.389   7.579 -1.2973  1.7454 -1.3943
  899MOL0     H21316   2.003   1.209   7.346  0.5646 -0.4963 -0.0367
  899MOL0     H21317   2.299   1.059   7.583 -0.8656 -0.5184  0.9856
  899MOL0     H21318   2.220   0.967   7.463  2.6221 -0.7825  0.7949
  899MOL0     H21319   2.281   1.133   7.285 -1.9012 -0.9985  0.6196
  899MOL0     H21320   2.328   1.252   7.396  1.7997  0.1261 -2.5194
  899MOL0     H21321   2.465   1.002   7.303 -2.8841  2.6639 -3.2544
  899MOL0     H21322   2.503   1.054   7.464  1.9265  0.6691  0.1787
  899MOL0     H21323   2.533   1.228   7.208  0.9332 -1.4814 -1.0941
  899MOL0     H21324   2.667   1.166   7.303 -0.5927 -2.0865  2.3285
  899MOL0     H21325   2.721   1.290   7.597 -2.3971  0.1635 -0.6929
  899MOL0     H21326   2.884   1.451   7.673 -0.8565  0.0611  1.8686
  899MOL0     H21327   3.190   1.867   7.504 -1.2739  0.5647  0.2742
  899MOL0     H21328   3.398   1.952   7.603 -1.6462  1.0485  2.1056
  899MOL0     H21329   3.606   1.643   7.830  0.1540  0.0570 -1.1864
  899MOL0     H21330   3.691   1.713   7.688 -0.0528 -1.7360  0.1079
  899MOL0     H21331   3.767   1.742   7.964  0.8155 -0.4330  0.2157
  899MOL0     H21332   3.864   1.737   7.818 -0.9308 -0.4252 -1.1182
  899MOL0     H21333   3.779   1.956   7.735 -0.2681 -1.1666 -0.9123
  899MOL0     H21334   3.711   1.983   7.904 -1.0948 -1.3960 -0.4567
  899MOL0     H21335   4.007   1.938   7.846  0.2769  1.1596  0.5957
  899MOL0     H21336   3.935   1.948   7.998  3.5520 -0.5754 -0.3415
  899MOL0     H21337   3.831   2.188   7.911 -0.4986 -0.2616  0.3346
  899MOL0     H21338   3.928   2.157   7.774 -4.6961  1.8937  0.4896
  899MOL0     H21339   4.004   2.299   7.966  3.1549  2.2075 -5.1280
  899MOL0     H21340   4.049   2.142   8.044  2.0528 -2.8963 -1.7659
  899MOL0     H21341   4.162   2.192   7.779  0.0060 -1.4483  0.4595
  899MOL0     H21342   4.182   2.063   7.903 -1.0215 -0.1083  2.0314
  899MOL0     H21343   4.311   2.218   8.046  2.1469  0.1263 -1.0095
  899MOL0     H21344   4.371   2.230   7.888 -0.0436  0.4996  0.5141
  899MOL0     H21345   3.384   1.658   7.917 -2.0865 -1.2861  0.0179
  899MOL0     H21346   3.159   1.584   7.832 -1.8886  1.7722  0.0289
  899MOL0     H21347   2.777   1.689   7.328  0.6466 -0.7617  0.2092
  899MOL0     H21348   2.619   1.535   7.262 -0.8327  0.2329  0.2836
  899MOL0     H21349   0.765   1.498   7.496 -3.9927 -1.7015 -2.9226
  899MOL0     H21350   0.549   1.406   7.535  0.5151 -0.4152 -1.9250
  899MOL0     H21351   0.297   1.045   7.723  0.1701 -0.0691 -0.4590
  899MOL0     H21352   0.116   0.879   7.756 -1.4808  3.2621 -0.5205
  899MOL0     H21353  -0.050   0.806   7.613  1.4353  0.3449  0.7696
  899MOL0     H21354  -0.038   0.706   7.753  0.2343 -0.0848  0.2507
  899MOL0     H21355  -0.154   0.622   7.482  0.6941  2.2962  0.4070
  899MOL0     H21356  -0.235   0.653   7.638 -0.8056 -1.4522 -0.9381
  899MOL0     H21357  -0.131   0.453   7.744 -0.8947 -1.3193  0.5611
  899MOL0     H21358  -0.040   0.424   7.586 -0.6621  0.5097  0.4409
  899MOL0     H21359  -0.260   0.293   7.648 -4.1418 -0.8301 -1.7805
  899MOL0     H21360  -0.340   0.448   7.611 -0.6906 -1.3359  1.3099
  899MOL0     H21361  -0.251   0.337   7.226 -2.3139 -1.6363 -0.0458
  899MOL0     H21362   0.291   0.642   7.460  0.4557  0.2322 -0.5778
  899MOL0     H21363   0.523   0.650   7.457 -0.7086  0.7576  0.8938
  899MOL0     H21364   0.505   0.766   7.327 -1.6314 -0.3508  0.2229
  899MOL0     H21365   0.627   0.793   7.462 -1.6716  0.9186  3.6996
  900MOL0     O21366   6.801   0.355   0.994  0.6550  0.0865 -0.5809
  900MOL0     C21367   6.767   0.253   1.052 -0.0923  0.3850 -0.0931
  900MOL0     O21368   6.840   0.133   1.051 -0.4210  0.2587 -0.0612
  900MOL0     C21369   6.969   0.145   1.003  0.4444  0.7062  0.4573
  900MOL0     C21370   6.986   0.097   0.873  0.1884  0.2317 -0.0443
  900MOL0     C21371   7.116   0.080   0.826  0.5651 -0.1306 -0.5742
  900MOL0     C21372   7.228   0.126   0.896  0.2523  0.7361  0.6429
  900MOL0     O21373   7.354   0.123   0.858  0.5895 -1.0843  0.4614
  900MOL0     C21374   7.409   0.015   0.781  0.2986  1.2500 -0.1679
  900MOL0     C21375   7.549   0.047   0.749  0.3904 -0.1649 -0.6737
  900MOL0     C21376   7.645  -0.013   0.860  0.7192 -0.7309  0.6810
  900MOL0     C21377   7.789   0.050   0.823 -0.0983  0.3270 -0.4130
  900MOL0     C21378   7.896   0.019   0.929 -0.0446  0.3931  0.1160
  900MOL0     C21379   7.894   0.115   1.051 -0.9958 -0.9769 -0.9689
  900MOL0     C21380   7.985   0.073   1.170  0.4036 -0.8333  0.2825
  900MOL0     C21381   7.969   0.152   1.297 -0.4152  0.0572  0.4068
  900MOL0     N21382   7.843   0.117   1.362  0.4367 -0.7490  0.5308
  900MOL0     C21383   7.730   0.194   1.373 -0.0795  0.0388  1.0943
  900MOL0     C21384   7.659   0.120   1.466 -0.1748  0.3782  0.3070
  900MOL0     C21385   7.530   0.162   1.529  0.5356 -0.3902  0.4115
  900MOL0     C21386   7.409   0.079   1.503  0.4545 -0.1554  0.4761
  900MOL0     C21387   7.398   0.047   1.352  0.3510 -0.6648 -0.2571
  900MOL0     C21388   7.253   0.010   1.303  0.1638  0.9146 -0.1778
  900MOL0     O21389   7.200  -0.084   1.395  0.1465  0.0296 -0.0031
  900MOL0     C21390   7.078  -0.143   1.369 -0.3644 -0.2519 -0.0774
  900MOL0     C21391   7.033  -0.243   1.455 -0.6400 -0.4587  0.3935
  900MOL0     C21392   6.909  -0.308   1.432  0.8400 -0.7392  0.0156
  900MOL0     C21393   6.826  -0.257   1.331  0.1473 -0.7067 -0.3181
  900MOL0     C21394   6.690  -0.312   1.306  0.4276 -0.4594 -0.0345
  900MOL0     O21395   6.600  -0.241   1.222 -0.0948 -0.2902 -0.1029
  900MOL0     C21396   6.496  -0.312   1.169  0.6402  0.0927  1.1825
  900MOL0     C21397   6.389  -0.387   1.240  0.0932 -0.9002  0.2057
  900MOL0     C21398   6.271  -0.432   1.179 -0.6611 -0.0266 -0.7070
  900MOL0     C21399   6.249  -0.402   1.043 -0.6440  0.0968  0.5308
  900MOL0     O21400   6.141  -0.437   0.969  0.4162 -0.1832 -0.1506
  900MOL0     C21401   6.008  -0.449   1.035 -0.8699  0.1841  0.1742
  900MOL0     C21402   5.902  -0.428   0.926 -0.9199  0.8128 -0.3135
  900MOL0     C21403   5.905  -0.537   0.816 -0.3918 -0.5636 -0.0043
  900MOL0     C21404   5.917  -0.681   0.871 -0.1280 -0.6427 -0.5688
  900MOL0     C21405   5.915  -0.780   0.750 -0.6812  0.0175  0.7193
  900MOL0     C21406   5.779  -0.804   0.684  0.2232  0.1856  0.1957
  900MOL0     C21407   5.783  -0.902   0.569 -0.3369 -0.4800  0.4114
  900MOL0     C21408   5.640  -0.952   0.548  0.1075  0.7214 -0.0297
  900MOL0    Cl21409   5.635  -1.105   0.641 -0.1386  0.1885 -0.1380
  900MOL0     C21410   6.347  -0.330   0.973 -0.1850 -0.6424  0.2832
  900MOL0     C21411   6.470  -0.281   1.036  1.1675  0.3345  0.0781
  900MOL0     O21412   6.660  -0.418   1.362 -0.5807 -0.1360  0.2725
  900MOL0     C21413   6.876  -0.169   1.245 -0.1415 -0.3512  0.5770
  900MOL0     C21414   7.005  -0.116   1.249  0.3152 -0.0852 -0.0832
  900MOL0     N21415   7.727   0.008   1.510 -0.4807 -0.2841 -0.6500
  900MOL0     N21416   7.840   0.015   1.452 -0.4942 -0.0730  0.4723
  900MOL0     C21417   7.210   0.180   1.023  0.4632  0.1821 -0.1411
  900MOL0     C21418   7.079   0.190   1.079  0.0865  0.6647  1.2245
  900MOL0     C21419   6.627   0.232   1.084  0.1419  0.0980 -0.0988
  900MOL0     C21420   6.579   0.100   1.116 -0.0172 -0.5552 -1.0767
  900MOL0     C21421   6.452   0.079   1.166  0.0606 -0.7365 -0.3810
  900MOL0     C21422   6.364   0.187   1.181  0.3624 -0.4126 -0.5268
  900MOL0     O21423   6.231   0.159   1.230  0.2540 -0.4886  0.2934
  900MOL0     C21424   6.137   0.191   1.128 -0.1360 -0.0971  0.2543
  900MOL0     C21425   6.120   0.085   1.021 -0.3547  0.3766  1.1882
  900MOL0     C21426   6.102  -0.057   1.089 -0.7146 -0.0887 -0.7481
  900MOL0     C21427   5.963  -0.068   1.145 -1.1757  0.1369 -0.0743
  900MOL0     C21428   5.866  -0.069   1.047 -0.0714 -0.2227  0.8627
  900MOL0     C21429   5.782  -0.080   0.958  0.2092 -0.9767  0.4996
  900MOL0     C21430   6.405   0.317   1.148 -0.3422 -0.3215  0.4245
  900MOL0     C21431   6.543   0.339   1.111  0.2046  0.2234 -0.0264
  900MOL0     C21432   6.582   0.480   1.128 -0.0170  0.0907  0.5521
  900MOL0     H21433   6.910   0.081   0.797  1.3827 -1.8885 -0.8944
  900MOL0     H21434   7.126   0.045   0.723  0.2565 -0.9300 -0.3416
  900MOL0     H21435   7.416  -0.077   0.840  1.1410 -0.7415 -3.1355
  900MOL0     H21436   7.339  -0.007   0.700 -0.8148 -0.9732  1.2823
  900MOL0     H21437   7.558   0.156   0.745  1.8067  0.1674  4.4214
  900MOL0     H21438   7.580   0.003   0.654  1.5390 -1.6294  0.3248
  900MOL0     H21439   7.638  -0.122   0.856 -2.0892 -0.7224  2.4581
  900MOL0     H21440   7.612   0.014   0.961  1.8850  1.1369  0.6109
  900MOL0     H21441   7.830  -0.004   0.738 -0.1942 -1.0322  0.3746
  900MOL0     H21442   7.791   0.159   0.809  1.4877  0.2272 -1.0840
  900MOL0     H21443   7.878  -0.081   0.968 -2.2465  0.2449 -1.1210
  900MOL0     H21444   7.994   0.031   0.882 -0.3421 -0.8587 -0.8577
  900MOL0     H21445   7.912   0.217   1.015 -0.8518 -0.5673  0.2087
  900MOL0     H21446   7.792   0.128   1.089 -1.2871 -2.8907 -0.9814
  900MOL0     H21447   8.089   0.092   1.144 -0.4681  3.0089 -1.1178
  900MOL0     H21448   7.961  -0.031   1.192  1.7614 -0.8621  1.7768
  900MOL0     H21449   8.055   0.133   1.362  0.3772 -0.5799 -0.7948
  900MOL0     H21450   7.960   0.256   1.266  0.7024 -0.0868 -0.4545
  900MOL0     H21451   7.719   0.294   1.334  2.3829  0.0343  0.1637
  900MOL0     H21452   7.552   0.162   1.636  1.0350 -0.6560  0.3150
  900MOL0     H21453   7.500   0.263   1.498  2.8390 -0.1224 -1.2017
  900MOL0     H21454   7.423  -0.010   1.565  0.9505  0.1168  0.7660
  900MOL0     H21455   7.323   0.136   1.538  0.5445  0.9673 -1.0606
  900MOL0     H21456   7.474  -0.022   1.315  1.1699 -0.4923  1.0145
  900MOL0     H21457   7.411   0.134   1.288 -3.0180  0.3879  0.3132
  900MOL0     H21458   7.258  -0.032   1.202  0.7363 -0.6037  0.4526
  900MOL0     H21459   7.188   0.098   1.312 -1.3887 -0.4152  3.9626
  900MOL0     H21460   7.097  -0.265   1.540 -0.3388  3.6042  1.4023
  900MOL0     H21461   6.869  -0.394   1.483  0.1000 -0.8909 -0.7893
  900MOL0     H21462   6.396  -0.402   1.348 -2.2125  1.3625  0.8015
  900MOL0     H21463   6.202  -0.494   1.235  0.4548  0.4717  1.3185
  900MOL0     H21464   6.021  -0.550   1.076 -0.1243  1.2006  2.6282
  900MOL0     H21465   5.998  -0.386   1.124  1.1903  1.0061 -0.1149
  900MOL0     H21466   5.799  -0.416   0.960 -1.5631 -0.7522 -1.5775
  900MOL0     H21467   5.906  -0.327   0.882 -1.8444  0.9723 -0.0463
  900MOL0     H21468   5.811  -0.525   0.762 -1.6599  2.5893  2.4913
  900MOL0     H21469   5.989  -0.517   0.749  0.8790  0.4295  1.7949
  900MOL0     H21470   5.845  -0.694   0.951 -2.2560 -0.6849 -2.3891
  900MOL0     H21471   6.019  -0.689   0.910 -0.0448  1.8076 -0.1255
  900MOL0     H21472   5.945  -0.873   0.798  0.6541  0.4270  0.7270
  900MOL0     H21473   5.984  -0.761   0.667 -2.7037 -2.5146 -1.7358
  900MOL0     H21474   5.704  -0.837   0.756  0.1614  1.2603  0.6483
  900MOL0     H21475   5.739  -0.712   0.641  0.2187  1.8121  3.3588
  900MOL0     H21476   5.858  -0.980   0.581 -0.1552 -0.8244 -2.3328
  900MOL0     H21477   5.812  -0.853   0.476 -0.3850  1.1544  1.2334
  900MOL0     H21478   5.566  -0.883   0.592  0.9242  1.9537 -0.5319
  900MOL0     H21479   5.619  -0.962   0.441 -3.4941  2.8839  0.3070
  900MOL0     H21480   6.342  -0.320   0.865  5.0288 -1.2822 -0.3017
  900MOL0     H21481   6.540  -0.220   0.981  0.5093  1.5056  0.5077
  900MOL0     H21482   6.810  -0.141   1.164  2.0673 -0.0241 -1.2254
  900MOL0     H21483   7.052  -0.059   1.169 -1.9480  1.0648 -0.6747
  900MOL0     H21484   7.299   0.204   1.080 -0.0481  2.0996 -0.0850
  900MOL0     H21485   7.066   0.230   1.179  0.1201  2.3395  0.5857
  900MOL0     H21486   6.654   0.022   1.111  1.5683  0.8881 -1.0157
  900MOL0     H21487   6.418  -0.020   1.195 -4.3674  0.4168 -0.8164
  900MOL0     H21488   6.155   0.292   1.090 -0.8634  0.7355  2.0119
  900MOL0     H21489   6.039   0.183   1.176 -0.6361  0.4032 -0.6639
  900MOL0     H21490   6.217   0.084   0.970 -0.5781  2.3985  0.6518
  900MOL0     H21491   6.047   0.117   0.947  2.0415  2.2310 -0.5299
  900MOL0     H21492   6.163  -0.068   1.179 -2.3839  0.7723  0.5334
  900MOL0     H21493   6.126  -0.141   1.023  2.3690 -0.6309  0.9006
  900MOL0     H21494   5.967  -0.160   1.203  3.4475  0.1762  0.0408
  900MOL0     H21495   5.950   0.003   1.227  1.1845 -2.0491  2.3744
  900MOL0     H21496   5.703  -0.070   0.886 -1.1716 -2.2310  1.7449
  900MOL0     H21497   6.338   0.401   1.165  1.7351  1.6497 -0.6470
  900MOL0     H21498   6.591   0.532   1.033  0.4195  0.8930  1.0158
  900MOL0     H21499   6.514   0.544   1.185 -0.1562  1.8418 -1.4803
  900MOL0     H21500   6.680   0.484   1.177  2.3944 -1.5745 -3.6214
  901MOL0     O21501   0.440   6.736   0.338  0.4647  0.3380 -0.5883
  901MOL0     C21502   0.347   6.762   0.416 -0.1702 -0.0847  0.5410
  901MOL0     O21503   0.361   6.794   0.542  0.3313  0.1628  0.4818
  901MOL0     C21504   0.473   6.852   0.588 -0.8073  0.5649  0.9217
  901MOL0     C21505   0.517   6.978   0.549  0.1474 -0.1951  0.1921
  901MOL0     C21506   0.642   7.036   0.600 -0.4795 -0.1176  0.1236
  901MOL0     C21507   0.716   6.966   0.698 -0.6242  0.2717  0.2737
  901MOL0     O21508   0.835   6.994   0.753  0.5017  0.1953 -0.2936
  901MOL0     C21509   0.930   7.064   0.673 -1.3922 -0.3492  0.9888
  901MOL0     C21510   1.071   6.985   0.676 -0.3325  0.4982 -0.3226
  901MOL0     C21511   1.056   6.832   0.641 -0.0904  0.1480  0.8183
  901MOL0     C21512   1.064   6.804   0.494  0.6492 -0.7270  0.4180
  901MOL0     C21513   1.070   6.659   0.457 -0.2381 -0.1910 -0.6258
  901MOL0     C21514   1.052   6.623   0.314  0.3743  0.1245  0.8043
  901MOL0     C21515   1.165   6.664   0.214  0.0116  0.0621 -0.3015
  901MOL0     C21516   1.164   6.593   0.085 -0.7014 -0.3058  0.1305
  901MOL0     N21517   1.063   6.658   0.007 -0.4623  0.2975  0.3727
  901MOL0     C21518   0.933   6.603  -0.001 -0.0394 -0.2180 -0.1143
  901MOL0     C21519   0.879   6.655  -0.113  0.4346  0.1062 -0.4045
  901MOL0     C21520   0.736   6.639  -0.161 -0.3871 -0.8642 -0.2736
  901MOL0     C21521   0.633   6.744  -0.099 -0.4034 -0.7269  0.0577
  901MOL0     C21522   0.496   6.677  -0.062  0.1865  0.1640 -0.1379
  901MOL0     C21523   0.402   6.669  -0.180  0.1641  0.5997  0.5441
  901MOL0     O21524   0.300   6.581  -0.143  0.2330 -0.2858 -0.0962
  901MOL0     C21525   0.168   6.593  -0.193 -0.1438 -0.5490  0.3159
  901MOL0     C21526   0.071   6.506  -0.129 -0.1014  0.0396 -0.0393
  901MOL0     C21527  -0.062   6.494  -0.174  0.2762  0.3346 -0.3716
  901MOL0     C21528  -0.102   6.552  -0.291 -0.7420 -0.3487  0.4630
  901MOL0     C21529  -0.242   6.533  -0.334 -0.3350  0.0645 -0.4895
  901MOL0     O21530  -0.290   6.605  -0.434 -0.3340 -0.3154 -0.4999
  901MOL0     C21531  -0.384   6.551  -0.519 -0.2210  0.3978  0.5910
  901MOL0     C21532  -0.366   6.424  -0.570 -0.6805 -0.0419 -0.2486
  901MOL0     C21533  -0.457   6.359  -0.648 -0.3693 -0.2576 -0.3948
  901MOL0     C21534  -0.584   6.421  -0.663 -0.5611  0.2199 -0.7950
  901MOL0     O21535  -0.677   6.344  -0.728  0.6180  0.0770  0.0037
  901MOL0     C21536  -0.796   6.407  -0.782 -0.4632 -0.3128 -0.3502
  901MOL0     C21537  -0.903   6.304  -0.820  0.1126  0.2940 -0.5416
  901MOL0     C21538  -0.916   6.189  -0.721  0.5777  0.2802  0.2475
  901MOL0     C21539  -0.986   6.076  -0.801 -0.4273 -0.6664  0.0494
  901MOL0     C21540  -1.132   6.103  -0.851 -0.5408  0.4015  0.4329
  901MOL0     C21541  -1.229   6.119  -0.731  0.3090  0.3485 -0.7733
  901MOL0     C21542  -1.370   6.093  -0.761 -0.1314  0.0598  0.8198
  901MOL0     C21543  -1.432   6.169  -0.880  0.5505 -0.2440 -0.3988
  901MOL0    Cl21544  -1.595   6.095  -0.918 -0.2551 -0.4968  0.1317
  901MOL0     C21545  -0.610   6.556  -0.618 -0.4870 -1.0209  0.4040
  901MOL0     C21546  -0.505   6.621  -0.552 -0.4594 -1.2920 -0.1980
  901MOL0     O21547  -0.305   6.443  -0.272  0.8564 -0.3197  0.6737
  901MOL0     C21548  -0.010   6.640  -0.357 -0.1372  0.3620  0.9839
  901MOL0     C21549   0.120   6.667  -0.305 -0.3010  0.2580  0.0602
  901MOL0     N21550   0.980   6.717  -0.182 -0.0566  0.2022 -0.2010
  901MOL0     N21551   1.093   6.718  -0.110  0.4968  0.5968  0.7256
  901MOL0     C21552   0.668   6.846   0.736  0.9440 -0.2834 -0.0220
  901MOL0     C21553   0.557   6.785   0.681  0.6470 -0.5687  0.0853
  901MOL0     C21554   0.215   6.750   0.360  0.1824 -0.9405 -0.0920
  901MOL0     C21555   0.177   6.628   0.302 -1.1244 -0.2636  0.6188
  901MOL0     C21556   0.049   6.607   0.251 -0.2261  0.6078  0.1302
  901MOL0     C21557  -0.057   6.702   0.268 -0.3608  0.3744  0.2548
  901MOL0     O21558  -0.175   6.661   0.215  0.4280  0.6509  0.2137
  901MOL0     C21559  -0.284   6.751   0.218 -0.0525  0.0189  0.0822
  901MOL0     C21560  -0.371   6.696   0.335  0.1830  0.1900  0.5487
  901MOL0     C21561  -0.505   6.758   0.329  0.3116  0.1107 -0.4549
  901MOL0     C21562  -0.606   6.701   0.425  0.0402  0.0842 -0.0553
  901MOL0     C21563  -0.747   6.748   0.410  0.2778  0.0129 -0.5540
  901MOL0     C21564  -0.862   6.785   0.401  1.0944 -0.3656 -0.7048
  901MOL0     C21565  -0.020   6.830   0.316  0.1309  0.3308  0.6329
  901MOL0     C21566   0.119   6.855   0.366 -0.2753  0.8293 -0.2473
  901MOL0     C21567   0.135   6.985   0.442 -0.5336  0.1512 -0.1587
  901MOL0     H21568   0.457   7.030   0.475 -1.1661 -1.9013  0.0154
  901MOL0     H21569   0.673   7.135   0.570  0.1743 -0.1423  0.7074
  901MOL0     H21570   0.908   7.070   0.566  0.4920 -1.7190  0.4731
  901MOL0     H21571   0.956   7.161   0.718 -2.3258  0.2702  0.2180
  901MOL0     H21572   1.107   6.998   0.779 -2.8477  0.8899  0.5886
  901MOL0     H21573   1.148   7.030   0.614 -2.5028  1.1427 -2.7351
  901MOL0     H21574   0.967   6.780   0.678 -0.4613  0.0567 -0.1818
  901MOL0     H21575   1.146   6.791   0.686  0.0114  0.4816  0.9223
  901MOL0     H21576   0.975   6.851   0.452 -1.4158 -3.9536  0.8219
  901MOL0     H21577   1.152   6.847   0.447 -0.0040 -1.1901 -1.2777
  901MOL0     H21578   1.169   6.629   0.491  0.9361  3.3787 -0.4978
  901MOL0     H21579   1.000   6.611   0.526 -0.7915  2.9759  1.2431
  901MOL0     H21580   1.022   6.518   0.304  0.0926  0.3308 -0.8016
  901MOL0     H21581   0.967   6.680   0.275  1.6103  0.3800 -1.7215
  901MOL0     H21582   1.255   6.637   0.270 -1.0023  1.9991  2.4351
  901MOL0     H21583   1.183   6.771   0.199  1.3276 -0.0948  0.0008
  901MOL0     H21584   1.258   6.599   0.029 -0.7559 -0.9960 -0.0448
  901MOL0     H21585   1.133   6.489   0.100 -1.0823  0.0402  1.9580
  901MOL0     H21586   0.878   6.540   0.068  1.4655 -2.3001 -0.6920
  901MOL0     H21587   0.742   6.643  -0.270  0.9620 -2.8382 -0.3380
  901MOL0     H21588   0.697   6.539  -0.140 -1.4295 -0.6291 -1.0163
  901MOL0     H21589   0.675   6.790  -0.008  0.9690 -1.8762  0.0342
  901MOL0     H21590   0.618   6.820  -0.177  1.7924 -0.1529  0.1202
  901MOL0     H21591   0.442   6.731   0.016 -1.0984 -1.6169  0.2902
  901MOL0     H21592   0.509   6.577  -0.019 -0.8451  0.3122  0.5518
  901MOL0     H21593   0.449   6.631  -0.272 -0.5824 -1.2566  0.8903
  901MOL0     H21594   0.367   6.765  -0.218 -2.2228 -0.6339 -0.5671
  901MOL0     H21595   0.112   6.450  -0.047  0.8411 -2.5332 -2.1136
  901MOL0     H21596  -0.132   6.431  -0.120  2.0990 -0.7450  0.8201
  901MOL0     H21597  -0.278   6.368  -0.541 -1.7453 -0.3975  2.5765
  901MOL0     H21598  -0.433   6.262  -0.691  1.2558  0.1935 -0.5815
  901MOL0     H21599  -0.839   6.474  -0.706 -1.8036 -0.7788 -0.6748
  901MOL0     H21600  -0.762   6.473  -0.862  0.8389 -1.4108 -0.7284
  901MOL0     H21601  -0.997   6.353  -0.843 -2.9961 -4.4419  0.5267
  901MOL0     H21602  -0.876   6.264  -0.918  0.4633 -1.8721  0.3655
  901MOL0     H21603  -0.821   6.151  -0.683  1.4314  0.7520 -1.3258
  901MOL0     H21604  -0.982   6.226  -0.643 -2.1947 -2.6757 -0.4872
  901MOL0     H21605  -0.982   5.995  -0.728 -1.7418 -1.4072 -0.6745
  901MOL0     H21606  -0.929   6.055  -0.892 -2.0637  1.2045 -1.5189
  901MOL0     H21607  -1.166   6.011  -0.901 -3.7948  1.0569  1.2040
  901MOL0     H21608  -1.134   6.185  -0.923 -1.0389 -1.3060 -1.6363
  901MOL0     H21609  -1.214   6.041  -0.656 -2.1861 -1.7585 -2.2905
  901MOL0     H21610  -1.218   6.210  -0.671 -1.4569  0.3783 -0.4329
  901MOL0     H21611  -1.433   6.092  -0.671 -1.4427 -0.1626 -0.0677
  901MOL0     H21612  -1.367   5.988  -0.791  1.6752  0.2052  0.4307
  901MOL0     H21613  -1.452   6.269  -0.839  0.9204 -1.2491  2.4294
  901MOL0     H21614  -1.371   6.172  -0.970  0.3388 -2.3348 -0.6439
  901MOL0     H21615  -0.698   6.617  -0.636  1.3186  1.4469 -0.5946
  901MOL0     H21616  -0.493   6.722  -0.515  2.0844 -1.6369  0.1041
  901MOL0     H21617  -0.027   6.706  -0.441  1.3066  0.4301  0.7212
  901MOL0     H21618   0.185   6.733  -0.362  1.5907 -1.9752 -0.4930
  901MOL0     H21619   0.729   6.790   0.806  1.1177 -1.9383 -1.4505
  901MOL0     H21620   0.521   6.698   0.735  0.2507  0.0521  0.8342
  901MOL0     H21621   0.249   6.549   0.282 -0.6641  0.5368 -0.9776
  901MOL0     H21622   0.029   6.511   0.204  0.2359 -0.6357  2.3164
  901MOL0     H21623  -0.347   6.751   0.128 -0.6950 -1.1539  0.5139
  901MOL0     H21624  -0.258   6.857   0.223  0.6688 -0.1819  0.7072
  901MOL0     H21625  -0.322   6.726   0.428  2.2128  2.3939 -1.0821
  901MOL0     H21626  -0.374   6.588   0.317  1.1550  0.7118 -4.3209
  901MOL0     H21627  -0.543   6.720   0.234  1.5404 -1.1878 -0.4637
  901MOL0     H21628  -0.496   6.867   0.328 -0.0105  0.1666  0.9351
  901MOL0     H21629  -0.599   6.592   0.419 -0.1986  0.0988 -0.5948
  901MOL0     H21630  -0.578   6.733   0.526  2.9593 -0.3840 -0.6397
  901MOL0     H21631  -0.963   6.817   0.386  0.0362 -2.9872  0.2427
  901MOL0     H21632  -0.093   6.910   0.312  0.3741  0.5089 -0.8324
  901MOL0     H21633   0.176   6.984   0.544  1.6589  1.7938 -0.9498
  901MOL0     H21634   0.205   7.054   0.394  0.0253  1.2447  2.0676
  901MOL0     H21635   0.042   7.039   0.462  1.0157  2.1757  2.2126
  902MOL0     O21636  11.260   7.499  10.108 -0.2352 -0.3080  0.4203
  902MOL0     C21637  11.294   7.386  10.116  0.0286  0.5238  0.3561
  902MOL0     O21638  11.416   7.340  10.134 -0.4334 -0.2826  0.0861
  902MOL0     C21639  11.527   7.420  10.157 -0.3104  1.1700  0.1711
  902MOL0     C21640  11.536   7.559  10.132  0.2489 -0.0866  0.8779
  902MOL0     C21641  11.656   7.633  10.174  0.5428  0.0789  0.5400
  902MOL0     C21642  11.768   7.570  10.233  0.4197 -0.6606 -0.2675
  902MOL0     O21643  11.876   7.657  10.268 -0.7935 -0.7286  0.3108
  902MOL0     C21644  11.993   7.598  10.325 -0.1342  0.3384  0.7575
  902MOL0     C21645  12.101   7.711  10.316 -0.3666 -0.4775 -0.1964
  902MOL0     C21646  12.241   7.690  10.369  0.1654  0.2161 -0.1705
  902MOL0     C21647  12.345   7.801  10.333  0.3261 -0.1931  0.1946
  902MOL0     C21648  12.491   7.760  10.355 -0.1543  0.5105 -0.9492
  902MOL0     C21649  12.580   7.885  10.348  0.4877 -0.4088  0.5966
  902MOL0     C21650  12.728   7.854  10.372 -0.1563  0.1256 -0.2116
  902MOL0     C21651  12.813   7.792  10.265  0.2130  0.0430 -0.1328
  902MOL0     N21652  12.950   7.766  10.300  0.2396  0.3086 -0.4573
  902MOL0     C21653  13.048   7.857  10.335 -0.7249  0.0518 -0.9634
  902MOL0     C21654  13.161   7.791  10.386  0.5731 -0.8624 -0.3637
  902MOL0     C21655  13.289   7.854  10.434  0.4303 -0.0185 -0.3236
  902MOL0     C21656  13.401   7.848  10.328  0.0009  0.0350 -0.2219
  902MOL0     C21657  13.368   7.912  10.193  0.3438  0.2327 -0.5125
  902MOL0     C21658  13.484   7.889  10.094 -0.0636  0.3139 -0.2299
  902MOL0     O21659  13.472   7.755  10.039 -0.2479 -0.3032  0.7985
  902MOL0     C21660  13.559   7.702   9.952  0.4169 -0.8527 -0.2934
  902MOL0     C21661  13.671   7.773   9.900 -0.9032  1.1409  0.3687
  902MOL0     C21662  13.741   7.710   9.787 -0.0664 -0.4183  0.1180
  902MOL0     C21663  13.708   7.574   9.742 -0.3059  0.4515 -0.2019
  902MOL0     C21664  13.778   7.508   9.632  0.3704 -0.2281  0.2341
  902MOL0     O21665  13.736   7.385   9.594  0.4999  0.6270  0.3952
  902MOL0     C21666  13.786   7.312   9.489 -0.8032 -0.4336 -0.7092
  902MOL0     C21667  13.692   7.240   9.412 -0.0079 -0.0316 -0.3049
  902MOL0     C21668  13.727   7.157   9.304 -0.5649  0.0463 -0.3309
  902MOL0     C21669  13.866   7.151   9.268  0.0515  0.1470 -0.1115
  902MOL0     O21670  13.897   7.048   9.182 -0.3186 -0.1181  0.0111
  902MOL0     C21671  14.014   7.050   9.089 -0.9466  0.4819  0.3965
  902MOL0     C21672  14.148   6.984   9.133 -0.6033 -0.3736  0.0382
  902MOL0     C21673  14.249   6.991   9.016  0.4803  0.5542 -0.8006
  902MOL0     C21674  14.352   6.872   9.042  0.5680  0.4090  0.1752
  902MOL0     C21675  14.464   6.871   8.943  0.9506 -1.1965 -0.1693
  902MOL0     C21676  14.534   7.006   8.935 -0.2042 -0.5763  0.0569
  902MOL0     C21677  14.667   6.993   8.860 -0.8437 -0.5182 -0.6350
  902MOL0     C21678  14.752   7.117   8.851  0.0675  0.3091 -0.2708
  902MOL0    Cl21679  14.894   7.101   8.743 -0.0423  0.2141  0.2843
  902MOL0     C21680  13.959   7.226   9.340  0.1549  0.4026  0.2345
  902MOL0     C21681  13.921   7.310   9.450  0.2571 -0.1558  0.4387
  902MOL0     O21682  13.877   7.565   9.587 -0.3139 -0.0023  0.0874
  902MOL0     C21683  13.602   7.507   9.812 -0.4945 -0.0971  0.5677
  902MOL0     C21684  13.533   7.573   9.915 -0.1416 -0.1568  0.1766
  902MOL0     N21685  13.139   7.654  10.373  0.2230 -0.3673  0.2580
  902MOL0     N21686  13.015   7.647  10.329 -0.9832  0.5754 -0.0936
  902MOL0     C21687  11.758   7.430  10.255  0.4080  0.0506  0.6235
  902MOL0     C21688  11.638   7.355  10.228 -0.9121  0.3826  0.6749
  902MOL0     C21689  11.187   7.284  10.111 -0.6663  0.4724  0.3779
  902MOL0     C21690  11.206   7.170  10.195 -0.3544 -0.2623  0.8727
  902MOL0     C21691  11.117   7.062  10.187  0.0903 -0.5128  0.6841
  902MOL0     C21692  11.011   7.066  10.098  0.1824 -0.5803 -0.4533
  902MOL0     O21693  10.917   6.968  10.077 -0.9789  0.7157  0.0696
  902MOL0     C21694  10.918   6.835  10.147 -0.7686 -0.7561 -0.8112
  902MOL0     C21695  10.850   6.835  10.284 -0.6010 -0.2526  0.8697
  902MOL0     C21696  10.800   6.691  10.306 -0.5844 -0.2043  0.0151
  902MOL0     C21697  10.679   6.627  10.226  0.6568 -0.5061  0.5919
  902MOL0     C21698  10.691   6.479  10.230 -0.4197 -0.2169 -0.0763
  902MOL0     C21699  10.701   6.362  10.240 -1.0771 -0.4099 -0.3389
  902MOL0     C21700  10.981   7.183  10.027 -0.6706  0.5281 -0.0291
  902MOL0     C21701  11.070   7.295  10.035  0.2699 -0.8087  0.1542
  902MOL0     C21702  11.040   7.412   9.943 -0.4193 -0.7428  0.2620
  902MOL0     H21703  11.456   7.622  10.095  0.6203 -0.5529 -0.8019
  902MOL0     H21704  11.659   7.740  10.156 -0.2391  0.2792  1.5335
  902MOL0     H21705  11.968   7.574  10.428 -1.6811 -1.3033  0.0547
  902MOL0     H21706  12.034   7.512  10.272 -0.4955  1.8609 -2.2210
  902MOL0     H21707  12.062   7.794  10.376 -2.2259 -2.0401  0.8556
  902MOL0     H21708  12.108   7.744  10.212 -1.6850  3.1978  0.7383
  902MOL0     H21709  12.294   7.599  10.340  0.4511  0.1165  0.6551
  902MOL0     H21710  12.232   7.691  10.478  2.4484  0.3501  0.0583
  902MOL0     H21711  12.334   7.829  10.228  1.2762  2.7572  0.7751
  902MOL0     H21712  12.327   7.888  10.397  0.3194  1.0706 -1.4415
  902MOL0     H21713  12.503   7.722  10.457 -1.3525 -2.4499 -1.8149
  902MOL0     H21714  12.527   7.683  10.287  0.2010  0.6324 -0.9009
  902MOL0     H21715  12.568   7.938  10.253 -0.8293 -0.2524  0.8236
  902MOL0     H21716  12.544   7.958  10.421 -1.5333  2.8398 -3.2068
  902MOL0     H21717  12.733   7.783  10.455 -1.7019 -0.8734 -0.9146
  902MOL0     H21718  12.775   7.949  10.401  1.2837 -0.4922 -0.4754
  902MOL0     H21719  12.766   7.699  10.233  2.1732 -0.2558 -2.4599
  902MOL0     H21720  12.818   7.869  10.188  3.4840  0.2763  0.1699
  902MOL0     H21721  13.043   7.965  10.326 -0.3824  0.3270  1.4661
  902MOL0     H21722  13.258   7.947  10.481 -1.0621  0.0061 -1.2725
  902MOL0     H21723  13.343   7.792  10.507 -0.3833 -1.0601 -0.5691
  902MOL0     H21724  13.480   7.909  10.372 -1.0363  0.2248  1.4512
  902MOL0     H21725  13.432   7.744  10.311  1.0177  0.2744  0.1487
  902MOL0     H21726  13.359   8.016  10.226 -1.2069 -1.2240  4.4529
  902MOL0     H21727  13.277   7.870  10.149 -1.5267  0.9834  2.3872
  902MOL0     H21728  13.581   7.889  10.145  0.4334 -2.3878 -1.0204
  902MOL0     H21729  13.483   7.962  10.014 -0.1783 -0.9835 -1.4541
  902MOL0     H21730  13.696   7.871   9.940 -1.1076  1.0526  0.7091
  902MOL0     H21731  13.806   7.774   9.729  0.1020  1.5575  2.3357
  902MOL0     H21732  13.587   7.255   9.435  0.4459  1.8712  0.7378
  902MOL0     H21733  13.651   7.097   9.254 -2.5168  1.7096  0.4499
  902MOL0     H21734  13.967   6.999   9.005 -1.9256  0.9184  0.6554
  902MOL0     H21735  14.026   7.154   9.056 -2.4272  0.3193 -0.7745
  902MOL0     H21736  14.186   7.028   9.225 -1.2356 -2.0988  1.1822
  902MOL0     H21737  14.130   6.880   9.163 -2.1693  0.5812  2.7684
  902MOL0     H21738  14.195   6.983   8.921 -1.0551 -1.1111  0.1575
  902MOL0     H21739  14.300   7.087   9.027  2.9884 -0.9216  1.7838
  902MOL0     H21740  14.300   6.776   9.039 -0.9986  1.2385 -2.4318
  902MOL0     H21741  14.397   6.887   9.141 -1.8659 -0.5973  1.5084
  902MOL0     H21742  14.429   6.842   8.844  0.2878  1.7764 -0.8994
  902MOL0     H21743  14.534   6.794   8.977 -0.3457 -2.3718 -0.0776
  902MOL0     H21744  14.473   7.078   8.880 -2.2076 -2.0338  0.2205
  902MOL0     H21745  14.553   7.051   9.033  2.7068  0.9934 -1.1287
  902MOL0     H21746  14.635   6.967   8.759 -0.6201 -0.8734 -0.6168
  902MOL0     H21747  14.743   6.922   8.895  1.3033  2.4164  1.1931
  902MOL0     H21748  14.684   7.199   8.824 -0.2548  0.4055  0.8135
  902MOL0     H21749  14.798   7.131   8.949 -1.8328 -2.1119  1.0827
  902MOL0     H21750  14.065   7.203   9.327  0.1186 -1.0641  2.0415
  902MOL0     H21751  13.988   7.379   9.500 -1.1261  1.3025  0.3362
  902MOL0     H21752  13.581   7.405   9.785  0.7646 -0.0419 -0.7432
  902MOL0     H21753  13.447   7.520   9.954  1.3748 -2.1699  0.9747
  902MOL0     H21754  11.842   7.373  10.294  0.7755  0.8818  1.0908
  902MOL0     H21755  11.632   7.247  10.236 -0.7120  0.0385 -2.4582
  902MOL0     H21756  11.287   7.169  10.268  1.5070 -0.8121 -1.1152
  902MOL0     H21757  11.123   6.970  10.244 -0.0158 -1.5058 -0.8433
  902MOL0     H21758  11.020   6.798  10.161  0.7616  2.7135 -1.7872
  902MOL0     H21759  10.867   6.773  10.073 -1.1187 -1.0500 -0.3287
  902MOL0     H21760  10.773   6.913  10.293  0.8476  1.2089  1.1916
  902MOL0     H21761  10.926   6.875  10.352  0.2706  0.1626 -0.3209
  902MOL0     H21762  10.770   6.690  10.411 -0.1955  4.2330  0.3900
  902MOL0     H21763  10.886   6.626  10.288 -0.2589  0.6014 -1.5808
  902MOL0     H21764  10.586   6.655  10.277 -0.1343 -0.9822 -0.5383
  902MOL0     H21765  10.671   6.662  10.123  0.1349 -0.7791  0.5340
  902MOL0     H21766  10.726   6.258  10.245  0.0262 -0.1209  3.8639
  902MOL0     H21767  10.892   7.175   9.967 -0.9049  1.4791  0.1814
  902MOL0     H21768  11.009   7.497  10.004  0.2242 -0.0479 -0.3582
  902MOL0     H21769  11.130   7.449   9.892 -0.7421  1.9315  1.4410
  902MOL0     H21770  10.957   7.392   9.874  0.4670 -2.3972 -0.3776
  903MOL0     O21771   5.600  10.980   7.671  0.4542 -0.0647 -0.0885
  903MOL0     C21772   5.566  10.865   7.681 -0.1659  0.2109 -0.2510
  903MOL0     O21773   5.644  10.763   7.716  0.0608  0.3320 -0.1632
  903MOL0     C21774   5.773  10.775   7.670  0.8781 -0.2778  0.2421
  903MOL0     C21775   5.875  10.806   7.760 -0.0749 -1.7987 -0.4112
  903MOL0     C21776   6.011  10.808   7.715 -0.3023  0.1796 -0.1622
  903MOL0     C21777   6.048  10.796   7.583 -0.3417  1.0980  0.5759
  903MOL0     O21778   6.180  10.788   7.552  0.3642  0.0031  0.4063
  903MOL0     C21779   6.234  10.835   7.433  0.0675 -0.5386 -0.4907
  903MOL0     C21780   6.323  10.966   7.460 -0.0834 -0.2277 -0.9551
  903MOL0     C21781   6.448  10.947   7.542  0.0293 -0.1971  0.1933
  903MOL0     C21782   6.543  11.060   7.525 -0.2996  0.2234  0.0853
  903MOL0     C21783   6.640  11.054   7.642 -0.3624  1.0123 -0.1804
  903MOL0     C21784   6.761  11.153   7.633 -0.6264 -0.0753 -0.2082
  903MOL0     C21785   6.848  11.142   7.761 -0.0315  0.6218 -0.0182
  903MOL0     C21786   6.939  11.263   7.782 -0.5166 -0.6415 -0.0177
  903MOL0     N21787   7.074  11.258   7.726 -0.0356  0.5228  0.2869
  903MOL0     C21788   7.108  11.299   7.599 -0.7306  1.3601  0.4865
  903MOL0     C21789   7.241  11.272   7.583 -0.4086  0.3287 -0.2598
  903MOL0     C21790   7.314  11.266   7.453 -0.0314 -0.2818  0.0691
  903MOL0     C21791   7.435  11.177   7.445 -0.1628 -0.0396 -0.5288
  903MOL0     C21792   7.407  11.022   7.481 -0.8872  0.1840 -0.0443
  903MOL0     C21793   7.513  10.997   7.599  0.0792  0.3987  0.7704
  903MOL0     O21794   7.462  10.865   7.641  0.8188 -0.0625  0.0831
  903MOL0     C21795   7.524  10.749   7.596  0.0401  0.0200  0.6811
  903MOL0     C21796   7.603  10.752   7.482  0.0385  0.3791  0.4200
  903MOL0     C21797   7.681  10.640   7.450 -0.4567  0.1007 -0.1161
  903MOL0     C21798   7.685  10.530   7.535  0.6360  0.2925  0.3481
  903MOL0     C21799   7.763  10.415   7.498 -0.1277  0.8781 -0.1505
  903MOL0     O21800   7.822  10.410   7.380 -0.2799  0.0021 -0.0558
  903MOL0     C21801   7.946  10.459   7.364 -0.6484  0.7596  0.6097
  903MOL0     C21802   7.998  10.463   7.237  0.4108  0.2569  0.4150
  903MOL0     C21803   8.124  10.504   7.208  0.3804 -0.5631 -0.1764
  903MOL0     C21804   8.209  10.542   7.319  0.5697  0.4362 -0.2127
  903MOL0     O21805   8.334  10.590   7.305  0.9709 -0.0243 -0.8651
  903MOL0     C21806   8.394  10.547   7.185 -0.3967  0.5968 -0.8917
  903MOL0     C21807   8.552  10.558   7.206 -0.7555  0.3587  0.5494
  903MOL0     C21808   8.599  10.705   7.238 -0.4664 -0.9751 -0.1424
  903MOL0     C21809   8.751  10.737   7.223 -0.0857 -0.8279  0.7618
  903MOL0     C21810   8.793  10.865   7.291 -0.5313 -0.1947  0.0745
  903MOL0     C21811   8.928  10.926   7.241 -0.4010  0.3327 -0.5451
  903MOL0     C21812   9.055  10.847   7.280 -0.3774  0.4141  0.2124
  903MOL0     C21813   9.180  10.906   7.207  0.3158  1.3319 -0.1035
  903MOL0    Cl21814   9.330  10.864   7.308 -0.0214  0.1732  0.4172
  903MOL0     C21815   8.154  10.554   7.446 -0.3227  0.0317 -1.2142
  903MOL0     C21816   8.026  10.512   7.470  0.7936  0.3282  0.5163
  903MOL0     O21817   7.746  10.317   7.570  0.1919 -0.1264  0.0126
  903MOL0     C21818   7.597  10.520   7.639 -0.3833 -0.3357 -0.0134
  903MOL0     C21819   7.526  10.632   7.670  0.2045 -0.2787 -0.3571
  903MOL0     N21820   7.286  11.211   7.702  0.2862  0.2089 -0.4656
  903MOL0     N21821   7.175  11.199   7.784 -0.0157  0.3843 -0.8043
  903MOL0     C21822   5.942  10.764   7.489  0.2278  0.5354  0.6251
  903MOL0     C21823   5.804  10.750   7.528  0.5231  0.3101 -0.4381
  903MOL0     C21824   5.419  10.828   7.666 -0.3469 -0.5605 -0.8218
  903MOL0     C21825   5.396  10.693   7.642 -0.2119 -1.2469  1.4797
  903MOL0     C21826   5.265  10.646   7.608 -0.3127  0.7363 -1.2794
  903MOL0     C21827   5.154  10.732   7.608  0.4054 -0.1792 -0.2268
  903MOL0     O21828   5.028  10.694   7.583 -0.1421  0.0598  0.1661
  903MOL0     C21829   5.009  10.627   7.453 -0.4229  0.4682  0.0172
  903MOL0     C21830   4.879  10.543   7.446  0.1661  0.0724 -0.2399
  903MOL0     C21831   4.847  10.453   7.571 -0.2417 -0.2158  0.9463
  903MOL0     C21832   4.957  10.343   7.590 -0.8538 -0.0151  0.3195
  903MOL0     C21833   4.962  10.234   7.497 -0.4464  0.5101 -0.5392
  903MOL0     C21834   4.961  10.137   7.424  0.2053 -0.7217  0.0217
  903MOL0     C21835   5.181  10.865   7.641 -0.0221 -0.6645 -0.9526
  903MOL0     C21836   5.311  10.923   7.671  0.1266  0.1846  0.1693
  903MOL0     C21837   5.322  11.075   7.703 -0.7451 -0.4426  0.5136
  903MOL0     H21838   5.863  10.832   7.865  1.7857  1.2716 -0.8311
  903MOL0     H21839   6.100  10.817   7.776  1.5477 -1.8474 -2.3569
  903MOL0     H21840   6.294  10.760   7.382 -0.1954 -1.3185  0.3288
  903MOL0     H21841   6.152  10.856   7.364  2.0723  1.2591 -2.4724
  903MOL0     H21842   6.266  11.050   7.501 -0.8677 -0.9900 -0.4600
  903MOL0     H21843   6.351  10.998   7.359 -1.4269 -1.9386 -1.9303
  903MOL0     H21844   6.502  10.863   7.497  0.1313  0.9135 -1.8778
  903MOL0     H21845   6.429  10.937   7.649  0.3841 -0.5253  0.2269
  903MOL0     H21846   6.592  11.061   7.428  0.0792 -3.1238  0.1411
  903MOL0     H21847   6.484  11.152   7.535  0.5505  0.7437  0.5095
  903MOL0     H21848   6.581  11.066   7.733 -0.5671 -0.4624 -0.0992
  903MOL0     H21849   6.681  10.953   7.644 -2.6412  0.0539  1.8802
  903MOL0     H21850   6.820  11.121   7.547  0.2921 -0.7400  0.6384
  903MOL0     H21851   6.736  11.259   7.618 -0.5635  0.1035  0.8672
  903MOL0     H21852   6.886  11.040   7.763 -3.7734 -0.9298 -0.0049
  903MOL0     H21853   6.777  11.138   7.844 -1.1169 -1.8470 -0.9689
  903MOL0     H21854   6.886  11.354   7.753 -0.4841 -0.6832 -0.2108
  903MOL0     H21855   6.949  11.264   7.891 -0.1332 -0.6293 -0.0518
  903MOL0     H21856   7.044  11.335   7.520 -1.2060 -1.8973 -0.7589
  903MOL0     H21857   7.240  11.222   7.386 -0.0933 -2.6147  1.5544
  903MOL0     H21858   7.338  11.367   7.417 -2.8520 -0.0400 -1.4326
  903MOL0     H21859   7.468  11.182   7.341  0.2075 -2.8895 -0.6527
  903MOL0     H21860   7.521  11.219   7.498 -0.2984  0.1936 -0.4927
  903MOL0     H21861   7.428  10.956   7.396 -0.9136  0.0871  0.0230
  903MOL0     H21862   7.302  11.014   7.508 -1.2229  0.1391 -1.2794
  903MOL0     H21863   7.487  11.063   7.682 -1.2669 -2.0481  2.3991
  903MOL0     H21864   7.618  10.988   7.570  0.4337 -0.8273  2.3057
  903MOL0     H21865   7.603  10.834   7.411 -0.8187  0.7100  0.7908
  903MOL0     H21866   7.745  10.648   7.364 -1.3353  0.0424 -0.7900
  903MOL0     H21867   7.939  10.444   7.148  3.9235  4.0124 -3.2016
  903MOL0     H21868   8.152  10.537   7.109 -2.2178 -1.0996 -1.1655
  903MOL0     H21869   8.383  10.439   7.169  2.8866  0.2760 -1.6524
  903MOL0     H21870   8.359  10.602   7.098  0.7379  2.3840 -0.2606
  903MOL0     H21871   8.579  10.500   7.295 -0.7920  0.9495  0.9491
  903MOL0     H21872   8.602  10.520   7.116 -3.2756  0.7269 -1.0979
  903MOL0     H21873   8.541  10.783   7.189  1.3341  0.0289 -0.7787
  903MOL0     H21874   8.573  10.723   7.343  0.1437  0.8090 -0.2553
  903MOL0     H21875   8.763  10.733   7.114 -1.7241 -2.4390  0.5913
  903MOL0     H21876   8.823  10.669   7.269 -0.8437 -2.3803 -0.2813
  903MOL0     H21877   8.799  10.845   7.398  1.8787  1.2767  0.2835
  903MOL0     H21878   8.718  10.944   7.279  0.8081  1.1476  0.1561
  903MOL0     H21879   8.920  10.946   7.134  0.6847 -3.4238 -1.4654
  903MOL0     H21880   8.921  11.022   7.293  1.2892  0.3371 -0.2490
  903MOL0     H21881   9.041  10.743   7.249  0.4354  0.5684 -0.7235
  903MOL0     H21882   9.066  10.845   7.389  0.0547  0.1668  0.1657
  903MOL0     H21883   9.192  10.853   7.112  0.5617 -4.3700  2.6996
  903MOL0     H21884   9.168  11.014   7.197  4.1819  1.8270 -0.9615
  903MOL0     H21885   8.216  10.587   7.529 -1.7757 -2.4817  1.0352
  903MOL0     H21886   7.975  10.534   7.564 -0.7249  2.8254 -0.7830
  903MOL0     H21887   7.576  10.434   7.703 -0.5604 -1.7911 -1.9347
  903MOL0     H21888   7.461  10.625   7.756  1.6571 -0.0263  0.8099
  903MOL0     H21889   5.978  10.733   7.392  0.4185 -0.3003  0.9494
  903MOL0     H21890   5.731  10.721   7.454 -0.6904  1.3705  0.3144
  903MOL0     H21891   5.480  10.629   7.616  2.1594  2.3819 -0.8029
  903MOL0     H21892   5.263  10.541   7.581 -0.2041 -0.6983  3.4743
  903MOL0     H21893   5.095  10.560   7.440  0.0553  0.5035  2.5686
  903MOL0     H21894   5.009  10.699   7.370  3.3980 -0.1371 -0.6885
  903MOL0     H21895   4.888  10.486   7.353 -0.8055  1.5052 -1.2539
  903MOL0     H21896   4.799  10.617   7.447 -0.2790 -0.3579 -1.6593
  903MOL0     H21897   4.750  10.406   7.553  0.0073 -0.3889 -0.0313
  903MOL0     H21898   4.837  10.513   7.662  1.6533  0.8572  0.5111
  903MOL0     H21899   5.049  10.400   7.607 -2.5025  2.9903 -0.0354
  903MOL0     H21900   4.923  10.298   7.683  0.5863 -1.2094  0.2973
  903MOL0     H21901   4.942  10.045   7.372  0.7014 -1.8410  1.7135
  903MOL0     H21902   5.102  10.940   7.638 -0.3230 -1.0010 -1.9017
  903MOL0     H21903   5.366  11.101   7.800  0.0137  2.2801 -0.4700
  903MOL0     H21904   5.386  11.125   7.630 -1.7080 -1.2376 -0.9425
  903MOL0     H21905   5.226  11.127   7.706 -1.0435 -0.8309 -1.3528
  904MOL0     O21906   0.202  11.307   1.449 -0.1888  0.5817  0.3045
  904MOL0     C21907   0.216  11.231   1.547  0.1736 -0.1071  0.3930
  904MOL0     O21908   0.321  11.166   1.589  0.1605 -0.0236 -0.4292
  904MOL0     C21909   0.444  11.163   1.524 -0.0953  0.0567 -0.5525
  904MOL0     C21910   0.498  11.270   1.452  0.0238  0.3374 -0.4274
  904MOL0     C21911   0.617  11.254   1.383 -0.6308  0.3513  0.1822
  904MOL0     C21912   0.689  11.130   1.390 -0.1376  0.2373 -0.4922
  904MOL0     O21913   0.824  11.111   1.355 -0.2629 -0.0772  0.3360
  904MOL0     C21914   0.907  11.218   1.393 -0.6488 -0.7105  0.2961
  904MOL0     C21915   1.052  11.172   1.396 -0.7232 -0.0992 -0.5318
  904MOL0     C21916   1.149  11.295   1.421  0.9416 -0.1645 -0.2686
  904MOL0     C21917   1.290  11.235   1.433 -1.1022 -0.2813  0.0004
  904MOL0     C21918   1.401  11.351   1.462 -0.2404  0.7409 -1.2337
  904MOL0     C21919   1.537  11.290   1.503  0.4008 -0.9175 -0.1752
  904MOL0     C21920   1.650  11.402   1.491 -0.6779 -0.2017  2.1482
  904MOL0     C21921   1.795  11.362   1.468  0.2564 -0.0952 -0.2008
  904MOL0     N21922   1.819  11.342   1.322 -0.4726  0.4382 -0.5600
  904MOL0     C21923   1.803  11.431   1.212 -0.1709  0.2153 -0.6638
  904MOL0     C21924   1.871  11.375   1.112 -0.0414  0.4302  0.9561
  904MOL0     C21925   1.914  11.428   0.980 -0.4892  0.2521  0.2701
  904MOL0     C21926   1.824  11.543   0.919  0.4702 -0.8600 -0.7395
  904MOL0     C21927   1.671  11.526   0.910 -0.2383  0.2225  0.6077
  904MOL0     C21928   1.636  11.400   0.828  0.4139 -0.6746  0.5445
  904MOL0     O21929   1.510  11.421   0.763 -0.0550  1.0328  0.0672
  904MOL0     C21930   1.446  11.309   0.709  0.0680  0.4983 -0.9622
  904MOL0     C21931   1.322  11.326   0.648  0.4806 -0.0775 -0.2215
  904MOL0     C21932   1.251  11.223   0.600  0.3142 -0.2121  0.5516
  904MOL0     C21933   1.302  11.088   0.606  0.4242  0.7936 -0.1911
  904MOL0     C21934   1.225  10.975   0.550  0.1541  0.6087 -0.6718
  904MOL0     O21935   1.099  11.013   0.509  0.4133  0.4028  0.3680
  904MOL0     C21936   0.996  10.925   0.492 -0.1653  0.8848  0.0317
  904MOL0     C21937   0.879  10.954   0.560 -0.7757 -0.0588  0.2408
  904MOL0     C21938   0.772  10.873   0.556 -0.2985 -0.1156 -0.7329
  904MOL0     C21939   0.772  10.758   0.476  0.9893  0.0902  0.7606
  904MOL0     O21940   0.667  10.666   0.464 -0.6912  0.1338 -0.7524
  904MOL0     C21941   0.583  10.661   0.586 -1.1194  0.8914  0.4031
  904MOL0     C21942   0.509  10.517   0.592 -0.3344 -0.5933 -0.7467
  904MOL0     C21943   0.403  10.489   0.705 -0.4284  0.0630 -0.9676
  904MOL0     C21944   0.301  10.601   0.701 -0.1872  0.0488  0.1288
  904MOL0     C21945   0.202  10.578   0.814 -1.1526 -0.1298  0.0893
  904MOL0     C21946   0.271  10.622   0.948 -0.6326  0.5793 -1.0229
  904MOL0     C21947   0.300  10.503   1.041  0.0595 -0.1011 -0.2302
  904MOL0     C21948   0.378  10.547   1.159  0.6920 -1.0797 -0.3462
  904MOL0    Cl21949   0.286  10.657   1.273 -0.0645  0.1249 -0.4394
  904MOL0     C21950   0.885  10.729   0.397  0.6199  0.0138 -0.4342
  904MOL0     C21951   0.999  10.815   0.405 -0.0833 -0.5352  0.2740
  904MOL0     O21952   1.265  10.858   0.555  0.2948 -0.4300  0.7082
  904MOL0     C21953   1.435  11.063   0.646  0.9365 -0.0578 -0.3886
  904MOL0     C21954   1.503  11.177   0.707 -0.2660  0.8354 -0.2495
  904MOL0     N21955   1.889  11.242   1.153 -0.3250  0.1255  0.9856
  904MOL0     N21956   1.860  11.219   1.280  0.2781  0.1263  0.5875
  904MOL0     C21957   0.632  11.026   1.455  0.1390 -0.3081 -0.3020
  904MOL0     C21958   0.508  11.043   1.518  0.1750 -0.2589  0.5573
  904MOL0     C21959   0.105  11.228   1.641  1.0128  0.4919  0.0734
  904MOL0     C21960   0.107  11.143   1.752  0.8339  0.2115 -0.5210
  904MOL0     C21961  -0.001  11.133   1.841 -0.2226  0.1655 -0.8962
  904MOL0     C21962  -0.112  11.213   1.828  0.4938  0.3156  0.2431
  904MOL0     O21963  -0.203  11.202   1.929  0.1267  0.3684  0.8363
  904MOL0     C21964  -0.256  11.324   1.985  0.3080 -0.1590  0.6932
  904MOL0     C21965  -0.319  11.313   2.132  0.0658 -0.5795 -0.1007
  904MOL0     C21966  -0.437  11.230   2.144 -0.1351 -0.0066  0.0847
  904MOL0     C21967  -0.410  11.079   2.109 -0.2666  0.2340  0.2687
  904MOL0     C21968  -0.484  10.992   2.202  0.0555 -0.2219 -0.7656
  904MOL0     C21969  -0.518  10.923   2.291  1.2113  0.5828 -1.3211
  904MOL0     C21970  -0.127  11.288   1.713  0.8869  0.0133 -0.7792
  904MOL0     C21971  -0.020  11.301   1.629 -0.2373  0.2278  1.4493
  904MOL0     C21972  -0.047  11.409   1.520 -0.2787 -0.0938  0.5243
  904MOL0     H21973   0.450  11.367   1.446  0.5827  0.5335 -2.9236
  904MOL0     H21974   0.683  11.329   1.340  1.2309 -0.3321  1.7139
  904MOL0     H21975   0.909  11.291   1.312  5.1805 -1.0249 -0.2514
  904MOL0     H21976   0.874  11.263   1.487  0.4930 -2.5186  1.6234
  904MOL0     H21977   1.077  11.117   1.305  1.2641 -0.2090  0.0463
  904MOL0     H21978   1.062  11.097   1.475  2.3711  0.0677 -0.6610
  904MOL0     H21979   1.113  11.354   1.506 -0.2503  0.2564 -1.0302
  904MOL0     H21980   1.143  11.360   1.334 -0.2238 -0.9337 -0.7959
  904MOL0     H21981   1.288  11.162   1.515  0.4564 -0.7240 -0.3106
  904MOL0     H21982   1.315  11.184   1.339  1.0622 -2.1697  1.4710
  904MOL0     H21983   1.413  11.409   1.370 -4.2554  4.2117  0.1023
  904MOL0     H21984   1.368  11.423   1.537  0.0505  0.4448 -0.8191
  904MOL0     H21985   1.521  11.272   1.609  1.5465  0.9216  0.3606
  904MOL0     H21986   1.571  11.199   1.453  1.3726  0.2468 -1.7641
  904MOL0     H21987   1.648  11.463   1.582 -1.9686  3.3904 -0.0851
  904MOL0     H21988   1.623  11.473   1.413  1.0436  1.3298  2.8793
  904MOL0     H21989   1.856  11.446   1.503  3.2320 -1.2366 -2.2522
  904MOL0     H21990   1.816  11.267   1.519 -1.4599  0.1466  1.0454
  904MOL0     H21991   1.769  11.532   1.231 -2.5176 -0.6837  0.2065
  904MOL0     H21992   2.012  11.477   0.986 -0.0223 -0.2402 -2.2681
  904MOL0     H21993   1.935  11.347   0.910  2.7770  1.4420 -0.3160
  904MOL0     H21994   1.862  11.637   0.959  4.1335 -0.4666 -4.3770
  904MOL0     H21995   1.862  11.572   0.820 -0.7032 -0.1738 -0.9984
  904MOL0     H21996   1.628  11.620   0.874  0.4424  0.0940 -0.6197
  904MOL0     H21997   1.618  11.523   1.006 -1.0772 -1.0966  0.1313
  904MOL0     H21998   1.641  11.311   0.892 -2.2633 -1.9306 -0.8405
  904MOL0     H21999   1.711  11.387   0.750  0.8784  1.5231  0.5777
  904MOL0     H22000   1.282  11.426   0.639 -1.8657 -0.7816  1.4709
  904MOL0     H22001   1.146  11.247   0.589  0.9625  2.6044 -0.1042
  904MOL0     H22002   0.893  11.037   0.630  3.7175 -0.7172  0.4465
  904MOL0     H22003   0.683  10.895   0.614 -2.2009  1.0110 -3.7772
  904MOL0     H22004   0.649  10.648   0.672  0.9626  1.9481 -0.9409
  904MOL0     H22005   0.516  10.747   0.583 -2.4460 -0.1305 -0.4418
  904MOL0     H22006   0.453  10.512   0.498  0.6998 -0.7515 -1.3679
  904MOL0     H22007   0.576  10.430   0.590 -1.9105 -1.8405 -0.8893
  904MOL0     H22008   0.358  10.390   0.696  2.0070 -1.0400 -2.1034
  904MOL0     H22009   0.467  10.498   0.794  0.0967  0.6714 -1.3932
  904MOL0     H22010   0.255  10.581   0.603  0.2443  0.9072 -0.2596
  904MOL0     H22011   0.345  10.701   0.701 -0.4788  0.2855 -3.2420
  904MOL0     H22012   0.171  10.474   0.824  0.0445 -0.6016 -0.8300
  904MOL0     H22013   0.113  10.641   0.803 -1.2152 -0.4347 -1.2379
  904MOL0     H22014   0.366  10.675   0.931  0.3356 -0.5054  0.7081
  904MOL0     H22015   0.203  10.689   1.002 -1.9327 -0.2844 -1.5433
  904MOL0     H22016   0.374  10.432   1.003  1.8272  0.9806  1.0409
  904MOL0     H22017   0.215  10.436   1.058 -1.4585  1.7528 -0.2207
  904MOL0     H22018   0.424  10.461   1.209  1.5404  0.8936  2.5008
  904MOL0     H22019   0.463  10.608   1.125 -0.7684  1.6259  0.5711
  904MOL0     H22020   0.889  10.634   0.343  0.0382 -0.6568  0.6758
  904MOL0     H22021   1.080  10.804   0.334 -0.0497 -1.5869  0.4515
  904MOL0     H22022   1.480  10.967   0.623  0.4590 -0.3673 -0.0540
  904MOL0     H22023   1.607  11.170   0.740 -0.3132  2.0866  0.2129
  904MOL0     H22024   0.676  10.928   1.440 -1.0642 -0.8390 -0.4485
  904MOL0     H22025   0.459  10.957   1.562  1.4574 -1.2178  0.1849
  904MOL0     H22026   0.195  11.079   1.763 -1.2217 -2.6040  0.7718
  904MOL0     H22027  -0.007  11.069   1.929 -1.2966 -0.0451 -1.1136
  904MOL0     H22028  -0.340  11.348   1.919  1.5984  0.4683 -0.7781
  904MOL0     H22029  -0.181  11.403   1.972  0.3772  0.2668  3.1761
  904MOL0     H22030  -0.361  11.405   2.173 -2.7182 -1.8970  0.2010
  904MOL0     H22031  -0.237  11.279   2.196 -0.4143  0.3688  1.0546
  904MOL0     H22032  -0.508  11.266   2.069  0.2883  2.0688  0.6069
  904MOL0     H22033  -0.475  11.237   2.247  1.1694 -0.4775  0.6214
  904MOL0     H22034  -0.429  11.049   2.006  0.0774  1.4372 -0.1688
  904MOL0     H22035  -0.307  11.052   2.135 -0.7125 -0.4266  1.3998
  904MOL0     H22036  -0.558  10.855   2.362 -1.0706  1.4974 -1.6494
  904MOL0     H22037  -0.221  11.341   1.699  0.4453 -0.0320  1.5329
  904MOL0     H22038  -0.051  11.367   1.419 -0.3276 -0.0715  0.5176
  904MOL0     H22039  -0.124  11.482   1.544  1.6731  1.8094  1.3927
  904MOL0     H22040   0.040  11.476   1.511 -1.2071  1.0479 -0.1850
  905MOL0     O22041   8.536  10.207   3.944  0.0764  0.1836 -0.0683
  905MOL0     C22042   8.449  10.250   4.021 -0.0786  0.7760  0.4290
  905MOL0     O22043   8.460  10.374   4.075 -0.2191 -0.5287 -0.4000
  905MOL0     C22044   8.581  10.422   4.122 -0.4981 -0.8024  0.0289
  905MOL0     C22045   8.597  10.563   4.119 -0.2398  0.1809 -0.4506
  905MOL0     C22046   8.712  10.623   4.171  0.8726  0.4701 -0.6617
  905MOL0     C22047   8.813  10.551   4.229 -0.8583  1.8206 -1.0995
  905MOL0     O22048   8.930  10.609   4.277  1.1449 -0.9431  0.2754
  905MOL0     C22049   9.046  10.525   4.300 -0.2375 -0.0816  0.7392
  905MOL0     C22050   9.169  10.612   4.298  0.3656 -0.5995 -0.1539
  905MOL0     C22051   9.301  10.553   4.365  0.3100 -0.5057  0.3749
  905MOL0     C22052   9.418  10.651   4.354 -0.2580  0.2767  0.5649
  905MOL0     C22053   9.539  10.597   4.432 -0.4561 -0.0925 -0.4418
  905MOL0     C22054   9.655  10.706   4.419  0.7734  0.6888  1.0235
  905MOL0     C22055   9.768  10.678   4.519  0.0204 -0.2512  0.4548
  905MOL0     C22056   9.825  10.533   4.518 -0.5320 -0.1082  0.2468
  905MOL0     N22057   9.902  10.502   4.639 -0.2814  0.6633  0.4463
  905MOL0     C22058   9.986  10.394   4.646  0.0897 -0.0714 -0.0716
  905MOL0     C22059  10.040  10.391   4.773  0.1617  0.0195  0.2607
  905MOL0     C22060  10.138  10.298   4.836 -0.4586 -0.5141 -0.6933
  905MOL0     C22061  10.284  10.340   4.811  0.3719 -0.2822  0.2327
  905MOL0     C22062  10.328  10.469   4.887 -0.1131 -1.0742  0.2779
  905MOL0     C22063  10.482  10.489   4.895  0.4834  0.1065  0.5440
  905MOL0     O22064  10.545  10.404   4.993  0.4499 -0.0844 -0.3175
  905MOL0     C22065  10.659  10.332   4.960 -1.0033 -0.9372  0.4868
  905MOL0     C22066  10.773  10.394   4.894  0.7176 -0.4457 -0.6782
  905MOL0     C22067  10.892  10.318   4.873  0.5417  0.7305  1.0822
  905MOL0     C22068  10.903  10.187   4.917  0.0269 -0.9584  0.3680
  905MOL0     C22069  11.030  10.111   4.913  0.5626  0.0050  0.4172
  905MOL0     O22070  11.022   9.975   4.933 -0.1656 -0.1362 -0.5445
  905MOL0     C22071  11.138   9.910   4.923 -0.5394 -0.6101 -0.4717
  905MOL0     C22072  11.167   9.859   4.800 -0.0481 -0.2631 -0.0384
  905MOL0     C22073  11.288   9.793   4.776 -0.5812  0.3640 -0.0451
  905MOL0     C22074  11.385   9.775   4.875  0.1517 -0.5398 -0.1851
  905MOL0     O22075  11.515   9.734   4.857  0.1746  0.1119 -0.6078
  905MOL0     C22076  11.526   9.602   4.791 -0.0580 -0.8412  0.1248
  905MOL0     C22077  11.475   9.487   4.874 -0.7618 -0.7692  0.4058
  905MOL0     C22078  11.349   9.427   4.796  0.1455 -0.2179 -0.5194
  905MOL0     C22079  11.257   9.363   4.902 -0.1838 -0.2463 -0.0912
  905MOL0     C22080  11.121   9.343   4.845 -0.3590 -0.1861  0.3638
  905MOL0     C22081  11.023   9.282   4.950 -0.0519  0.8863  0.1707
  905MOL0     C22082  10.903   9.212   4.889  0.2305 -0.2232 -0.4198
  905MOL0     C22083  10.816   9.159   5.012 -0.1400  0.5013  0.4866
  905MOL0    Cl22084  10.805   9.283   5.126  0.4053  0.1304 -0.3336
  905MOL0     C22085  11.351   9.818   5.006  0.4577  0.3273 -2.0151
  905MOL0     C22086  11.232   9.890   5.033  0.4941  0.2158  0.5541
  905MOL0     O22087  11.129  10.177   4.889 -0.2251  0.3898  0.3068
  905MOL0     C22088  10.785  10.125   4.956 -0.5235 -0.1078 -0.2712
  905MOL0     C22089  10.666  10.199   4.973  0.1942  0.3520 -0.0643
  905MOL0     N22090   9.992  10.507   4.827 -0.5327 -0.2728 -0.0478
  905MOL0     N22091   9.908  10.571   4.753 -0.3482 -0.0567 -0.6812
  905MOL0     C22092   8.797  10.401   4.228  0.0359 -0.2781 -0.3120
  905MOL0     C22093   8.679  10.346   4.178 -0.8591  1.0642 -0.2906
  905MOL0     C22094   8.326  10.171   4.045 -1.5730  0.2874 -0.5969
  905MOL0     C22095   8.205  10.234   4.062  0.1217 -0.0655  0.3636
  905MOL0     C22096   8.089  10.164   4.061  0.2455 -0.5346  0.4680
  905MOL0     C22097   8.084  10.027   4.059 -0.1724 -0.1254  0.4936
  905MOL0     O22098   7.969   9.949   4.071  0.3429 -0.0287 -0.1512
  905MOL0     C22099   7.860   9.995   4.163  0.0569  0.5596  0.2560
  905MOL0     C22100   7.725  10.000   4.098 -0.1662  0.1734  0.0008
  905MOL0     C22101   7.691   9.859   4.045 -0.8045 -0.4548  0.0850
  905MOL0     C22102   7.550   9.840   3.995  0.7209  0.3454 -1.0982
  905MOL0     C22103   7.447   9.877   4.104  0.0973  0.3204  0.1356
  905MOL0     C22104   7.366   9.910   4.185  0.0029 -0.3090 -0.2457
  905MOL0     C22105   8.208   9.956   4.053 -1.2000  0.6738 -0.4698
  905MOL0     C22106   8.330  10.026   4.044  0.9026 -0.1091  1.1897
  905MOL0     C22107   8.451   9.946   4.009  0.2617  0.1162 -0.2902
  905MOL0     H22108   8.516  10.625   4.083 -1.2340 -1.7505 -1.7040
  905MOL0     H22109   8.717  10.731   4.170 -3.5048  0.8534 -1.5818
  905MOL0     H22110   9.041  10.478   4.399  1.4948  0.2372  1.0047
  905MOL0     H22111   9.062  10.445   4.227 -0.6135 -0.7130  1.3317
  905MOL0     H22112   9.124  10.703   4.339 -2.1488 -0.9259 -1.9534
  905MOL0     H22113   9.186  10.635   4.192 -0.1024 -1.0922 -0.3372
  905MOL0     H22114   9.325  10.457   4.319  0.1569 -0.9731  1.2607
  905MOL0     H22115   9.280  10.539   4.471 -4.1940 -0.2767 -0.2768
  905MOL0     H22116   9.436  10.650   4.246 -2.0403 -0.0819  0.2346
  905MOL0     H22117   9.397  10.755   4.382  3.5730  1.3224  0.1146
  905MOL0     H22118   9.518  10.595   4.540 -1.5974 -0.2132 -0.6508
  905MOL0     H22119   9.569  10.494   4.410 -0.4511 -0.3636  0.7415
  905MOL0     H22120   9.695  10.697   4.317  1.0089  1.2203  1.0667
  905MOL0     H22121   9.611  10.805   4.432 -3.1139 -0.6664 -0.3750
  905MOL0     H22122   9.713  10.691   4.613  0.0648  1.2155  0.2984
  905MOL0     H22123   9.847  10.754   4.525 -0.0301 -0.1776  0.2135
  905MOL0     H22124   9.749  10.455   4.513 -0.8744  0.0859  1.9322
  905MOL0     H22125   9.894  10.527   4.433  0.6279  2.7526  0.8475
  905MOL0     H22126   9.994  10.329   4.560 -4.2118  0.2456 -0.9267
  905MOL0     H22127  10.126  10.304   4.944  0.5337 -2.4007 -0.4373
  905MOL0     H22128  10.120  10.192   4.815 -2.0307 -0.4176  0.0444
  905MOL0     H22129  10.348  10.256   4.840 -1.2606 -1.1877  1.3786
  905MOL0     H22130  10.294  10.357   4.703 -0.3394 -1.2999 -0.0045
  905MOL0     H22131  10.284  10.471   4.987  0.3834  1.0246  0.4966
  905MOL0     H22132  10.285  10.560   4.842  2.1711 -1.0252 -2.0421
  905MOL0     H22133  10.504  10.595   4.914  3.4239  0.1582 -2.3926
  905MOL0     H22134  10.518  10.467   4.795  1.5278 -1.1721  1.1656
  905MOL0     H22135  10.764  10.501   4.878  0.4391 -0.1586  1.2363
  905MOL0     H22136  10.987  10.364   4.846  0.0848  0.7749 -0.5475
  905MOL0     H22137  11.089   9.860   4.725  0.7168 -0.7004 -0.8611
  905MOL0     H22138  11.312   9.763   4.675 -0.2429 -1.8214  0.6270
  905MOL0     H22139  11.470   9.610   4.697  0.6910 -0.5127 -0.3025
  905MOL0     H22140  11.629   9.578   4.760  1.0096  2.3415  0.8847
  905MOL0     H22141  11.549   9.407   4.888 -0.6110 -0.2882  2.7163
  905MOL0     H22142  11.464   9.520   4.978  3.4995  0.0849  0.7920
  905MOL0     H22143  11.291   9.508   4.751 -1.4756 -0.0190  1.7579
  905MOL0     H22144  11.390   9.363   4.716  0.1473  4.0669 -4.3400
  905MOL0     H22145  11.257   9.434   4.985  2.2635 -0.8165  0.4572
  905MOL0     H22146  11.298   9.267   4.937 -1.0001 -0.5811 -0.0283
  905MOL0     H22147  11.132   9.287   4.752  2.9601 -1.1051  1.1597
  905MOL0     H22148  11.084   9.438   4.805 -0.2672 -0.6341 -0.8228
  905MOL0     H22149  11.086   9.210   5.002  0.7699  1.6809  0.3004
  905MOL0     H22150  10.995   9.363   5.018 -1.3814 -1.6975  2.9432
  905MOL0     H22151  10.935   9.130   4.825  0.5805 -0.3066 -0.1416
  905MOL0     H22152  10.841   9.273   4.822 -0.2102 -3.2782 -3.0160
  905MOL0     H22153  10.721   9.132   4.965 -0.3215  1.5122  0.2372
  905MOL0     H22154  10.857   9.076   5.070 -0.2540  1.0538  1.3620
  905MOL0     H22155  11.428   9.799   5.081  0.1577  0.4638 -1.6722
  905MOL0     H22156  11.223   9.941   5.128  0.1895  3.0837 -0.8895
  905MOL0     H22157  10.791  10.022   4.988  0.8248  0.3163  0.9201
  905MOL0     H22158  10.573  10.147   4.994  1.0913 -1.8056 -1.1311
  905MOL0     H22159   8.862  10.325   4.270  1.7545 -0.2991 -2.7777
  905MOL0     H22160   8.682  10.238   4.170  2.6455  1.0776 -0.7941
  905MOL0     H22161   8.198  10.342   4.071 -0.8710 -0.2406  1.9861
  905MOL0     H22162   7.997  10.221   4.065 -1.5209 -3.0794 -1.0709
  905MOL0     H22163   7.891  10.080   4.223 -1.2761  0.7803  0.6621
  905MOL0     H22164   7.847   9.919   4.241 -0.3151 -0.1275 -0.4566
  905MOL0     H22165   7.721  10.085   4.029 -4.5160  0.1939  0.0142
  905MOL0     H22166   7.648  10.026   4.172  0.1574 -0.0151  0.4076
  905MOL0     H22167   7.705   9.799   4.136 -0.5366  2.3966  2.0568
  905MOL0     H22168   7.752   9.841   3.957  0.1545  1.4596  0.3213
  905MOL0     H22169   7.524   9.913   3.918 -0.1774  1.4493  0.2090
  905MOL0     H22170   7.527   9.737   3.965 -0.1006 -0.1224  0.9800
  905MOL0     H22171   7.281   9.925   4.248  0.8576 -4.8110  2.4468
  905MOL0     H22172   8.215   9.848   4.047 -1.1243  0.3861  2.9265
  905MOL0     H22173   8.461   9.932   3.901  0.8618  1.6604 -0.4569
  905MOL0     H22174   8.544   9.979   4.055 -1.1000  3.5505  0.3059
  905MOL0     H22175   8.431   9.842   4.038  0.1047  0.3129  0.3157
  906MOL0     O22176   8.731   6.596   9.788 -0.2004  0.0137  0.1530
  906MOL0     C22177   8.764   6.634   9.675  0.0478 -0.5511 -0.9292
  906MOL0     O22178   8.868   6.716   9.648  0.0384 -0.5552  0.6161
  906MOL0     C22179   8.970   6.702   9.738 -0.5773  0.5051  0.3487
  906MOL0     C22180   9.013   6.811   9.811  0.2323  0.4719  0.2081
  906MOL0     C22181   9.127   6.798   9.888  0.5200  0.0234  0.6469
  906MOL0     C22182   9.185   6.671   9.913 -0.0526 -0.1936 -0.2705
  906MOL0     O22183   9.297   6.668   9.999  0.1230 -0.0322  0.4337
  906MOL0     C22184   9.390   6.557   9.983  0.4945  0.2970  0.1459
  906MOL0     C22185   9.472   6.573   9.851 -0.0043  0.1831  0.2566
  906MOL0     C22186   9.522   6.717   9.843  0.5231  0.4611  0.2034
  906MOL0     C22187   9.631   6.725   9.740 -0.6782  0.3460  0.4831
  906MOL0     C22188   9.589   6.715   9.593 -0.2974 -0.0201 -0.1906
  906MOL0     C22189   9.697   6.777   9.501  0.4108  0.2973 -0.0606
  906MOL0     C22190   9.826   6.695   9.487  0.0579  0.3887 -0.2761
  906MOL0     C22191   9.801   6.556   9.425 -0.3722  0.3468  0.0944
  906MOL0     N22192   9.928   6.498   9.380  1.3262 -0.1519 -0.1599
  906MOL0     C22193   9.996   6.534   9.274 -0.4178 -0.2677 -0.1849
  906MOL0     C22194  10.115   6.478   9.289 -0.0091 -0.1112 -0.3157
  906MOL0     C22195  10.223   6.490   9.177 -0.0892 -0.5240  0.1896
  906MOL0     C22196  10.364   6.507   9.236 -0.8703  0.4226  0.9769
  906MOL0     C22197  10.399   6.631   9.317 -0.6540 -0.4426 -0.3870
  906MOL0     C22198  10.551   6.649   9.334 -0.5247 -0.4971  0.1626
  906MOL0     O22199  10.614   6.526   9.365  0.3674 -0.2020  0.1557
  906MOL0     C22200  10.749   6.533   9.405  0.1570 -0.7444 -0.0742
  906MOL0     C22201  10.841   6.638   9.368  0.3714  0.1667 -0.0837
  906MOL0     C22202  10.978   6.611   9.373  0.4156 -0.4402 -0.5074
  906MOL0     C22203  11.021   6.484   9.420 -0.4363  0.2035  0.4502
  906MOL0     C22204  11.168   6.455   9.401  0.0550 -0.1793  0.5029
  906MOL0     O22205  11.201   6.337   9.338 -0.3792  0.2623  0.2614
  906MOL0     C22206  11.333   6.301   9.334  0.9794 -0.5885  0.2743
  906MOL0     C22207  11.383   6.187   9.410  0.7219 -0.6003  0.6143
  906MOL0     C22208  11.513   6.155   9.399 -0.0546  0.3891 -0.0780
  906MOL0     C22209  11.591   6.227   9.313 -0.6305 -0.1179 -1.1543
  906MOL0     O22210  11.720   6.200   9.296 -0.2764 -0.3966 -0.1324
  906MOL0     C22211  11.772   6.108   9.391 -0.8694 -0.5023 -0.6390
  906MOL0     C22212  11.925   6.117   9.380 -0.9811  0.6914  0.5246
  906MOL0     C22213  11.994   6.017   9.279 -0.0827  0.3309  0.5728
  906MOL0     C22214  12.148   6.012   9.304 -0.1235  0.2203 -0.8151
  906MOL0     C22215  12.234   6.107   9.228 -0.5510 -0.7931  0.7941
  906MOL0     C22216  12.374   6.109   9.270  0.0414  0.2355  0.1576
  906MOL0     C22217  12.468   6.181   9.164  0.3217  0.4021  0.0315
  906MOL0     C22218  12.614   6.179   9.211 -0.2543 -0.6233 -0.0412
  906MOL0    Cl22219  12.716   6.207   9.063  0.0443  0.5765  0.1167
  906MOL0     C22220  11.547   6.339   9.240 -0.6132  0.5256  0.8885
  906MOL0     C22221  11.412   6.378   9.250 -0.5732  0.4687  0.5888
  906MOL0     O22222  11.248   6.533   9.453  0.1023  0.2294 -0.3035
  906MOL0     C22223  10.935   6.391   9.477 -0.2244 -0.4778 -0.4873
  906MOL0     C22224  10.798   6.417   9.471  0.0454 -0.8446 -0.1801
  906MOL0     N22225  10.120   6.409   9.411  0.2338 -0.2502 -0.5540
  906MOL0     N22226  10.012   6.427   9.463  0.8718  0.0907  0.2700
  906MOL0     C22227   9.133   6.560   9.852  0.4530  0.7661 -0.5897
  906MOL0     C22228   9.029   6.580   9.753  0.5489 -0.5950 -0.3638
  906MOL0     C22229   8.664   6.595   9.573  0.1528  0.0548 -0.0417
  906MOL0     C22230   8.662   6.670   9.450  0.2852 -1.1585  0.1765
  906MOL0     C22231   8.569   6.647   9.349 -0.4080 -0.1692  0.8510
  906MOL0     C22232   8.469   6.546   9.371 -0.5460 -0.3084 -0.0164
  906MOL0     O22233   8.372   6.522   9.274  0.7828 -0.3824  0.8053
  906MOL0     C22234   8.351   6.606   9.160  0.2843  0.4003 -0.6743
  906MOL0     C22235   8.441   6.550   9.039  0.0671 -0.7282 -0.0559
  906MOL0     C22236   8.450   6.643   8.916  0.9631 -0.4419  0.8943
  906MOL0     C22237   8.311   6.661   8.845  0.0220 -0.5878 -0.1290
  906MOL0     C22238   8.214   6.749   8.903 -0.8413 -0.2328  0.3219
  906MOL0     C22239   8.141   6.813   8.968  0.3582 -0.0361  0.4669
  906MOL0     C22240   8.469   6.473   9.486  0.4036  0.1547  0.0553
  906MOL0     C22241   8.560   6.499   9.583  0.0403  0.3734  0.0662
  906MOL0     C22242   8.541   6.412   9.705  0.1293  0.1264 -0.3479
  906MOL0     H22243   8.977   6.909   9.782 -0.1284  0.2955  0.0513
  906MOL0     H22244   9.169   6.879   9.946  3.4166 -1.2724  0.5252
  906MOL0     H22245   9.460   6.555  10.066  1.6721  1.5553 -0.7708
  906MOL0     H22246   9.335   6.462   9.984  2.3066 -0.9091 -2.5685
  906MOL0     H22247   9.412   6.545   9.765 -0.8993 -0.1350  0.9647
  906MOL0     H22248   9.552   6.498   9.854 -0.1673 -0.1665 -2.2255
  906MOL0     H22249   9.562   6.754   9.938  1.1323 -0.8161  0.4597
  906MOL0     H22250   9.432   6.773   9.812  0.4474  1.4620  2.0932
  906MOL0     H22251   9.677   6.824   9.752  2.5936 -1.1085  1.0055
  906MOL0     H22252   9.712   6.653   9.758 -2.6973 -2.2303 -0.1214
  906MOL0     H22253   9.578   6.610   9.565  0.7339  0.3554 -2.2354
  906MOL0     H22254   9.498   6.776   9.589  1.1050  2.4576  2.3885
  906MOL0     H22255   9.640   6.780   9.408  0.2818 -1.6734 -0.0903
  906MOL0     H22256   9.728   6.876   9.535  1.2158  0.2456 -0.6150
  906MOL0     H22257   9.882   6.681   9.580  2.8925  0.7999 -1.8074
  906MOL0     H22258   9.896   6.744   9.419  0.1784  0.0901 -0.3686
  906MOL0     H22259   9.761   6.487   9.499  4.1727 -1.4561  1.1995
  906MOL0     H22260   9.731   6.564   9.341  2.9878  1.2272 -2.8817
  906MOL0     H22261   9.959   6.587   9.187 -1.9212 -1.2491 -0.1849
  906MOL0     H22262  10.213   6.399   9.117 -0.9881 -1.0018  1.0394
  906MOL0     H22263  10.202   6.576   9.113 -2.0626 -0.7475  0.4863
  906MOL0     H22264  10.380   6.412   9.287 -0.1735 -1.3962 -2.3049
  906MOL0     H22265  10.438   6.498   9.156 -0.8952  2.6272  0.6455
  906MOL0     H22266  10.351   6.622   9.415 -1.5087 -1.2328 -0.8689
  906MOL0     H22267  10.365   6.717   9.259  1.9421 -0.3585 -1.9685
  906MOL0     H22268  10.572   6.730   9.404 -2.7131  0.0425  0.2869
  906MOL0     H22269  10.596   6.680   9.239 -2.8505 -0.2995 -0.9489
  906MOL0     H22270  10.814   6.725   9.308  2.7244 -0.0147 -1.5206
  906MOL0     H22271  11.054   6.673   9.327  3.2984 -1.8897  1.9389
  906MOL0     H22272  11.311   6.132   9.469 -0.0893  0.5273  0.7069
  906MOL0     H22273  11.548   6.073   9.459  0.9153 -0.8857 -2.2505
  906MOL0     H22274  11.747   6.151   9.489  4.0865 -1.3685  1.2829
  906MOL0     H22275  11.733   6.008   9.370 -0.4057 -1.2581  1.7700
  906MOL0     H22276  11.955   6.218   9.351  0.3719  0.0046 -0.6144
  906MOL0     H22277  11.960   6.101   9.483 -1.8118 -0.7967  0.6058
  906MOL0     H22278  11.952   5.916   9.294  1.1183 -0.4047 -0.7602
  906MOL0     H22279  11.975   6.039   9.174  1.6973  1.7024  0.4957
  906MOL0     H22280  12.180   5.909   9.286  2.1597  1.1289 -2.5873
  906MOL0     H22281  12.182   6.032   9.406  2.7088 -0.2897 -1.5485
  906MOL0     H22282  12.209   6.212   9.243 -0.8633 -0.7673  0.1621
  906MOL0     H22283  12.217   6.080   9.123  0.2039  0.1253  0.4271
  906MOL0     H22284  12.379   6.160   9.367  1.2844 -0.8471  0.6914
  906MOL0     H22285  12.408   6.005   9.261 -1.7328 -0.2264 -2.4232
  906MOL0     H22286  12.434   6.285   9.161  2.3043  1.0816 -0.1586
  906MOL0     H22287  12.458   6.129   9.068  0.4592 -0.3485  0.4228
  906MOL0     H22288  12.642   6.258   9.282  0.5730 -1.4470  0.5827
  906MOL0     H22289  12.643   6.080   9.248 -2.1171 -0.9575  0.6343
  906MOL0     H22290  11.615   6.387   9.169  0.6232 -0.4568  1.3661
  906MOL0     H22291  11.369   6.458   9.190 -1.4638  0.6864  1.5033
  906MOL0     H22292  10.967   6.307   9.537  1.3079  1.9290  2.3297
  906MOL0     H22293  10.734   6.341   9.517  1.4270 -0.7688  1.9762
  906MOL0     H22294   9.181   6.463   9.858  1.3569  1.1939 -0.7912
  906MOL0     H22295   9.000   6.492   9.696 -0.2774 -2.1349  2.2720
  906MOL0     H22296   8.730   6.755   9.444  0.7737 -1.3986  1.6700
  906MOL0     H22297   8.571   6.714   9.264 -0.1121  0.0379  1.0153
  906MOL0     H22298   8.361   6.712   9.186 -0.4639  0.6167 -1.2585
  906MOL0     H22299   8.248   6.591   9.127  1.4811 -1.2489 -4.1409
  906MOL0     H22300   8.411   6.451   9.004  0.3967 -1.8093  2.5073
  906MOL0     H22301   8.538   6.529   9.086  0.3570  1.0545  0.1975
  906MOL0     H22302   8.522   6.600   8.846  1.0982 -0.4209  1.0187
  906MOL0     H22303   8.494   6.738   8.947  4.2151 -2.2544  2.4213
  906MOL0     H22304   8.319   6.693   8.741  1.7712  0.4424  0.2759
  906MOL0     H22305   8.256   6.568   8.829 -3.1922  0.7476  1.9291
  906MOL0     H22306   8.073   6.857   9.037  0.3240  2.7419 -1.2073
  906MOL0     H22307   8.387   6.403   9.493  1.5738 -1.2944 -0.3745
  906MOL0     H22308   8.531   6.473   9.795  1.3146 -0.1893  0.0231
  906MOL0     H22309   8.464   6.335   9.692  1.3969 -1.4388  1.0366
  906MOL0     H22310   8.630   6.351   9.724 -0.2558  0.2987  2.4255
  907MOL0     O22311   9.937   5.080   7.643 -0.3165  0.0206 -0.7563
  907MOL0     C22312   9.957   4.961   7.645  0.1020  1.2882  0.3928
  907MOL0     O22313  10.082   4.904   7.641  0.3481  0.1373 -0.0650
  907MOL0     C22314  10.198   4.983   7.670  0.2428 -0.2060  0.5747
  907MOL0     C22315  10.320   4.934   7.630 -0.1526 -0.0838  0.3105
  907MOL0     C22316  10.442   4.999   7.648 -0.1551 -0.8027 -0.0664
  907MOL0     C22317  10.444   5.118   7.728 -0.1463  1.1879 -0.8633
  907MOL0     O22318  10.558   5.194   7.756  0.5772 -1.0316 -0.3689
  907MOL0     C22319  10.673   5.152   7.696 -0.3194 -0.4928 -0.6885
  907MOL0     C22320  10.794   5.237   7.759  0.3279 -0.1590 -0.0324
  907MOL0     C22321  10.925   5.188   7.703 -0.1051 -0.6370 -0.2639
  907MOL0     C22322  11.048   5.215   7.799  1.1007  0.4588  0.3563
  907MOL0     C22323  11.167   5.172   7.723 -0.3042 -0.5659 -0.3458
  907MOL0     C22324  11.298   5.182   7.785  0.0992 -0.4884 -0.0542
  907MOL0     C22325  11.362   5.319   7.831  0.5077 -0.4929 -0.6348
  907MOL0     C22326  11.393   5.413   7.710  0.4769  0.9275 -0.1654
  907MOL0     N22327  11.469   5.529   7.760  0.1959 -0.2091  0.1489
  907MOL0     C22328  11.453   5.592   7.882 -0.3993  0.0614 -0.6863
  907MOL0     C22329  11.563   5.673   7.879  0.7424 -0.0575  0.4257
  907MOL0     C22330  11.582   5.786   7.975 -0.6912 -1.1031  0.4666
  907MOL0     C22331  11.728   5.841   7.981  0.3393  1.6926  0.3597
  907MOL0     C22332  11.746   5.940   8.094 -0.5116  0.2044  0.4013
  907MOL0     C22333  11.888   5.991   8.099  0.3267  0.6935 -0.8016
  907MOL0     O22334  11.932   6.082   8.000 -0.7966  0.1957  0.1905
  907MOL0     C22335  12.072   6.091   7.981  0.2441  0.0401  0.2763
  907MOL0     C22336  12.121   6.167   7.875  0.3437  0.1204  0.0176
  907MOL0     C22337  12.253   6.188   7.845  0.1354  0.7326  0.9164
  907MOL0     C22338  12.348   6.120   7.922 -0.5439  0.1450 -0.2005
  907MOL0     C22339  12.494   6.143   7.907  1.4531  0.0058  0.1776
  907MOL0     O22340  12.573   6.048   7.954 -0.3791 -0.0658 -0.3311
  907MOL0     C22341  12.711   6.067   7.951  0.4342  1.4283  0.2973
  907MOL0     C22342  12.776   6.051   7.829 -0.0817 -0.0076 -0.0982
  907MOL0     C22343  12.914   6.065   7.828  0.2931  0.0612 -0.0296
  907MOL0     C22344  12.992   6.123   7.931  0.4754 -0.1380 -0.7141
  907MOL0     O22345  13.124   6.156   7.909  0.3506 -0.1062  0.6457
  907MOL0     C22346  13.209   6.194   8.023  0.0200  0.0704 -0.2502
  907MOL0     C22347  13.351   6.214   7.955  0.0957 -0.1392  0.8383
  907MOL0     C22348  13.404   6.092   7.875  0.1505 -0.0094 -0.0563
  907MOL0     C22349  13.546   6.127   7.818  0.1406  0.4376  0.2324
  907MOL0     C22350  13.573   6.047   7.691  0.6050  0.4357 -0.6720
  907MOL0     C22351  13.721   6.044   7.655  0.3615  0.8277 -0.4580
  907MOL0     C22352  13.755   5.907   7.581 -0.1993 -0.2180  0.4353
  907MOL0     C22353  13.895   5.924   7.513  0.8091  0.0024 -0.5481
  907MOL0    Cl22354  14.006   5.899   7.645  0.3701  0.2686 -0.3655
  907MOL0     C22355  12.917   6.145   8.059 -0.0118  0.0580  1.0023
  907MOL0     C22356  12.784   6.109   8.065 -0.2442 -0.2608  0.5784
  907MOL0     O22357  12.528   6.256   7.856 -0.1707 -0.8639  0.4486
  907MOL0     C22358  12.304   6.028   8.024 -0.6810 -0.1069  0.4378
  907MOL0     C22359  12.169   6.019   8.049 -0.5661 -0.3033 -0.1696
  907MOL0     N22360  11.633   5.666   7.767  0.0347 -0.4128 -0.9029
  907MOL0     N22361  11.575   5.581   7.690 -0.6218 -0.1951  0.6846
  907MOL0     C22362  10.322   5.165   7.771 -0.0212 -0.7601  0.1929
  907MOL0     C22363  10.203   5.096   7.747  0.2252 -0.2169 -0.4541
  907MOL0     C22364   9.850   4.863   7.663  0.6295 -0.7178  0.3408
  907MOL0     C22365   9.717   4.923   7.662 -0.1887  0.8582 -0.6247
  907MOL0     C22366   9.608   4.837   7.664  0.7000 -0.5848  0.1900
  907MOL0     C22367   9.620   4.701   7.668  0.5316 -0.2874  0.7122
  907MOL0     O22368   9.509   4.622   7.686 -0.5658  0.5323  0.6280
  907MOL0     C22369   9.407   4.673   7.771  0.6991 -1.1131  0.2219
  907MOL0     C22370   9.281   4.729   7.702  0.4392  0.2395 -0.9491
  907MOL0     C22371   9.191   4.627   7.644  0.5591  1.0591  0.7999
  907MOL0     C22372   9.047   4.680   7.610 -0.8066 -0.0780 -0.3110
  907MOL0     C22373   9.029   4.778   7.512  0.1038 -0.1821 -0.0997
  907MOL0     C22374   9.022   4.875   7.437  0.5281  1.0170 -0.3375
  907MOL0     C22375   9.746   4.646   7.671  0.7907 -0.1767 -0.5165
  907MOL0     C22376   9.858   4.717   7.671  0.3448  0.4606 -0.0183
  907MOL0     C22377   9.991   4.646   7.680  0.5032 -0.1276 -0.3314
  907MOL0     H22378  10.317   4.847   7.566  1.8276  0.8893 -1.2252
  907MOL0     H22379  10.525   4.958   7.591  0.8580  1.9454 -0.7717
  907MOL0     H22380  10.697   5.047   7.715  5.4079  0.2704 -1.7863
  907MOL0     H22381  10.660   5.176   7.590 -2.4359 -0.6030 -0.4995
  907MOL0     H22382  10.803   5.222   7.867  0.2003  0.6697  0.0960
  907MOL0     H22383  10.777   5.344   7.745  2.0993  0.1714  0.0637
  907MOL0     H22384  10.942   5.246   7.612  3.0452 -0.8504  0.0614
  907MOL0     H22385  10.928   5.083   7.671  0.5824 -1.4515  2.2808
  907MOL0     H22386  11.058   5.323   7.811 -1.3101  0.9589 -1.4530
  907MOL0     H22387  11.033   5.172   7.898  1.2704 -1.4119 -0.3806
  907MOL0     H22388  11.164   5.067   7.693  1.0654 -0.9126  0.6272
  907MOL0     H22389  11.172   5.229   7.630 -1.0126  2.4427  1.3343
  907MOL0     H22390  11.292   5.114   7.871 -1.5767 -2.7751 -1.8325
  907MOL0     H22391  11.372   5.143   7.715 -1.7947 -2.5003 -1.0539
  907MOL0     H22392  11.462   5.307   7.875  0.1677  1.1611  0.7010
  907MOL0     H22393  11.288   5.356   7.902  1.9004  1.2560 -0.0042
  907MOL0     H22394  11.439   5.349   7.634 -3.3973 -1.0950 -1.0718
  907MOL0     H22395  11.301   5.443   7.659  0.1986  0.6964  0.1971
  907MOL0     H22396  11.387   5.580   7.967  1.2207 -0.6452  0.5109
  907MOL0     H22397  11.517   5.869   7.948  0.3731 -0.4273 -0.0610
  907MOL0     H22398  11.548   5.742   8.069  0.5038  0.5946  1.7402
  907MOL0     H22399  11.793   5.755   8.002  0.1475  1.2013 -0.9751
  907MOL0     H22400  11.756   5.885   7.885 -2.4441  0.7047 -0.9868
  907MOL0     H22401  11.709   5.896   8.187  0.9607  1.1928  1.5094
  907MOL0     H22402  11.666   6.015   8.083 -1.8849 -0.8732  2.3639
  907MOL0     H22403  11.946   5.898   8.106 -0.2942  0.3924  0.9581
  907MOL0     H22404  11.893   6.042   8.196  0.6407 -2.3165  0.8825
  907MOL0     H22405  12.045   6.211   7.811  0.3224 -1.7407 -1.3296
  907MOL0     H22406  12.284   6.243   7.757  1.5240 -4.9446 -2.6841
  907MOL0     H22407  12.729   6.032   7.733  1.4091 -1.0162 -0.6771
  907MOL0     H22408  12.964   6.067   7.732  0.2474  0.4003 -0.0498
  907MOL0     H22409  13.179   6.291   8.062 -3.0123 -1.0574  0.4909
  907MOL0     H22410  13.206   6.119   8.103  0.8952  1.1268  0.8075
  907MOL0     H22411  13.342   6.306   7.897  0.6159  1.1014  2.6202
  907MOL0     H22412  13.420   6.239   8.037  1.0435 -2.7564  0.9545
  907MOL0     H22413  13.422   6.007   7.942 -1.2562 -1.1105 -1.0088
  907MOL0     H22414  13.330   6.057   7.803 -1.4317 -1.2387  2.0449
  907MOL0     H22415  13.625   6.116   7.892 -1.5215  0.6793  2.1326
  907MOL0     H22416  13.547   6.233   7.790  3.8333  0.9260  1.7314
  907MOL0     H22417  13.509   6.078   7.608  1.2418  3.8059 -0.0642
  907MOL0     H22418  13.530   5.949   7.714 -2.4294  1.3905 -1.8075
  907MOL0     H22419  13.745   6.134   7.598  3.6708  1.2060  1.2978
  907MOL0     H22420  13.777   6.050   7.749 -3.9636  0.5746  2.4138
  907MOL0     H22421  13.681   5.882   7.503  1.8247 -5.2298 -0.2979
  907MOL0     H22422  13.754   5.817   7.643  2.0402 -0.8480 -0.3502
  907MOL0     H22423  13.906   5.848   7.436  0.6607 -0.3499 -0.2252
  907MOL0     H22424  13.921   6.016   7.460  3.6968 -0.9082 -0.8484
  907MOL0     H22425  12.974   6.172   8.147 -0.9263  1.3979  1.2197
  907MOL0     H22426  12.718   6.124   8.150 -0.4356  2.4304  0.0447
  907MOL0     H22427  12.371   5.970   8.087 -4.4218 -1.9554  3.0859
  907MOL0     H22428  12.134   5.951   8.126  0.8407  1.0029  1.7097
  907MOL0     H22429  10.309   5.257   7.828 -3.5088 -0.6057 -0.6122
  907MOL0     H22430  10.117   5.141   7.795  1.9887  1.3592  1.3948
  907MOL0     H22431   9.696   5.029   7.672 -0.4626  0.7835 -0.4309
  907MOL0     H22432   9.511   4.886   7.656  1.2173  0.2088 -1.4001
  907MOL0     H22433   9.448   4.752   7.834  0.7920 -0.6274 -0.4268
  907MOL0     H22434   9.371   4.592   7.835  0.2320  0.5605  2.1678
  907MOL0     H22435   9.301   4.818   7.641  1.1211  1.0876  0.4568
  907MOL0     H22436   9.221   4.765   7.785  1.4860  1.8860 -0.8644
  907MOL0     H22437   9.177   4.545   7.715 -0.9425  0.7288  0.1517
  907MOL0     H22438   9.240   4.583   7.556  0.5392  2.5006  0.0459
  907MOL0     H22439   8.978   4.600   7.582 -0.1235 -0.5145 -0.7972
  907MOL0     H22440   9.015   4.719   7.707  3.3013 -0.4559  1.4090
  907MOL0     H22441   9.004   4.956   7.370 -1.7509 -0.4240 -1.5921
  907MOL0     H22442   9.733   4.539   7.679 -2.3804  0.0609 -1.1654
  907MOL0     H22443  10.043   4.682   7.770 -1.4698 -0.4458  1.0056
  907MOL0     H22444   9.978   4.538   7.692  1.3414 -0.2729 -0.6708
  907MOL0     H22445  10.036   4.683   7.588  2.0826 -0.1908  0.3708
  908MOL0     O22446   9.558   5.426   3.616 -0.9687  0.7346 -0.6117
  908MOL0     C22447   9.594   5.309   3.604 -0.2194 -0.2934  0.6924
  908MOL0     O22448   9.722   5.266   3.627 -0.1048  0.6223 -0.6049
  908MOL0     C22449   9.831   5.352   3.627  0.6276 -0.3953 -0.5630
  908MOL0     C22450   9.943   5.311   3.697  0.0428 -0.0074  0.1406
  908MOL0     C22451  10.066   5.398   3.693 -0.6809  0.2253 -0.7732
  908MOL0     C22452  10.064   5.525   3.627 -0.2142  0.3834 -0.1167
  908MOL0     O22453  10.173   5.604   3.644 -0.1246 -0.5775  0.1625
  908MOL0     C22454  10.152   5.744   3.672 -0.5765  0.0519  0.9205
  908MOL0     C22455  10.270   5.814   3.733 -0.5701  0.0486  0.2397
  908MOL0     C22456  10.355   5.742   3.839  0.1141 -0.1658 -0.1632
  908MOL0     C22457  10.459   5.832   3.904  1.1613  0.1974 -0.2416
  908MOL0     C22458  10.536   5.745   4.008 -0.3470 -0.1795  0.1214
  908MOL0     C22459  10.644   5.810   4.088 -0.0675  0.3524 -0.2931
  908MOL0     C22460  10.601   5.928   4.176  0.5078 -0.3112  1.1288
  908MOL0     C22461  10.714   5.972   4.261 -0.2017  0.0766 -0.0772
  908MOL0     N22462  10.667   6.081   4.342 -0.0025  0.4688 -0.1646
  908MOL0     C22463  10.629   6.210   4.312 -0.1069 -0.6370  0.1561
  908MOL0     C22464  10.612   6.267   4.437  0.4240 -0.3238  0.0728
  908MOL0     C22465  10.592   6.406   4.475 -0.4121 -0.0191  0.1232
  908MOL0     C22466  10.707   6.506   4.450 -0.5777 -0.2353 -0.1979
  908MOL0     C22467  10.814   6.478   4.550 -0.1494  0.2966  0.1400
  908MOL0     C22468  10.933   6.577   4.539  0.3480  0.4180 -0.0673
  908MOL0     O22469  10.963   6.612   4.410  0.8130  0.0127 -0.5418
  908MOL0     C22470  11.101   6.630   4.384  0.2350  1.2222  0.1424
  908MOL0     C22471  11.162   6.574   4.269 -0.3312 -0.8982 -0.2326
  908MOL0     C22472  11.291   6.599   4.243 -0.5466 -0.4639  0.0158
  908MOL0     C22473  11.371   6.688   4.316 -0.0241  0.1782  0.3517
  908MOL0     C22474  11.515   6.711   4.280 -0.2465 -0.4979 -0.5273
  908MOL0     O22475  11.578   6.629   4.194 -0.8713 -0.7969  0.0504
  908MOL0     C22476  11.708   6.640   4.151  0.1050  1.0541 -0.2332
  908MOL0     C22477  11.776   6.519   4.121  0.5203 -0.6195  0.1449
  908MOL0     C22478  11.911   6.525   4.076  0.1527 -0.1381 -0.1754
  908MOL0     C22479  11.979   6.649   4.068  1.1418  0.0324 -0.3256
  908MOL0     O22480  12.112   6.639   4.034 -0.1331 -0.7395  0.1827
  908MOL0     C22481  12.155   6.734   3.934  0.1675  0.3827  0.0527
  908MOL0     C22482  12.254   6.669   3.835  0.1933 -0.7796  0.0001
  908MOL0     C22483  12.378   6.615   3.906  0.3188 -0.7451 -0.4409
  908MOL0     C22484  12.476   6.565   3.799  0.0750 -1.1312 -0.1288
  908MOL0     C22485  12.611   6.522   3.866  0.2658 -0.1178 -0.5287
  908MOL0     C22486  12.728   6.504   3.770 -0.0900 -0.2208  0.7638
  908MOL0     C22487  12.859   6.478   3.838 -0.3683  0.2579  0.0094
  908MOL0     C22488  12.947   6.388   3.743  0.7870  0.5790 -1.3118
  908MOL0    Cl22489  13.113   6.361   3.810  0.1562 -0.0418  0.2496
  908MOL0     C22490  11.914   6.765   4.098  0.7861 -0.8829 -0.0158
  908MOL0     C22491  11.778   6.763   4.139  0.4749  0.6716  0.8424
  908MOL0     O22492  11.573   6.798   4.339 -0.5574 -0.3871 -0.1379
  908MOL0     C22493  11.320   6.741   4.428  0.2775  0.0795 -0.9521
  908MOL0     C22494  11.183   6.716   4.456 -0.1924  0.1144  0.1561
  908MOL0     N22495  10.623   6.175   4.532 -0.4378 -0.5526 -0.5053
  908MOL0     N22496  10.657   6.061   4.479 -0.1866  0.1928 -0.0697
  908MOL0     C22497   9.952   5.559   3.555  0.6855  0.6614  0.1474
  908MOL0     C22498   9.836   5.471   3.554 -0.9497 -0.0555 -1.8321
  908MOL0     C22499   9.483   5.213   3.574  0.7515 -0.2302 -0.1784
  908MOL0     C22500   9.356   5.244   3.513 -0.1270 -0.0799  0.2853
  908MOL0     C22501   9.250   5.149   3.500  0.0904 -0.0158  0.3293
  908MOL0     C22502   9.262   5.015   3.544  0.2261  0.7358 -0.9511
  908MOL0     O22503   9.158   4.923   3.555  0.1336  0.0541  0.0508
  908MOL0     C22504   9.036   4.974   3.496  0.1681 -0.7707 -0.2133
  908MOL0     C22505   8.923   4.882   3.537  0.6842 -0.0752  0.6473
  908MOL0     C22506   8.893   4.893   3.680 -0.1479 -0.4936  0.8655
  908MOL0     C22507   8.754   4.831   3.719  0.7509 -1.0213  0.0236
  908MOL0     C22508   8.636   4.897   3.664  1.5421  0.0083  0.4204
  908MOL0     C22509   8.527   4.932   3.619  0.6135  0.0593  0.5797
  908MOL0     C22510   9.382   4.993   3.614 -0.2711 -0.0029 -0.3717
  908MOL0     C22511   9.493   5.080   3.626 -0.4281 -0.3907  0.5311
  908MOL0     C22512   9.608   5.029   3.708 -0.4828 -0.0756 -0.5058
  908MOL0     H22513   9.948   5.213   3.745 -0.0247 -0.8787 -1.5622
  908MOL0     H22514  10.152   5.371   3.752  1.4731  3.3243 -2.2073
  908MOL0     H22515  10.124   5.789   3.577 -0.5650 -1.0975  0.3568
  908MOL0     H22516  10.066   5.746   3.740 -1.2593  0.3019  0.0579
  908MOL0     H22517  10.225   5.903   3.778 -0.0077  0.1603  0.5877
  908MOL0     H22518  10.339   5.851   3.656 -0.9850  2.1111  0.7818
  908MOL0     H22519  10.406   5.660   3.787  2.2023  1.6853 -1.2037
  908MOL0     H22520  10.290   5.709   3.921  0.3546 -1.2058 -0.3734
  908MOL0     H22521  10.524   5.873   3.827  1.5890 -0.7944 -0.4336
  908MOL0     H22522  10.406   5.911   3.957 -3.1902 -1.5596 -1.4641
  908MOL0     H22523  10.464   5.715   4.085  0.8739 -0.4957  1.1591
  908MOL0     H22524  10.570   5.665   3.942 -1.0473 -0.9631  0.6916
  908MOL0     H22525  10.695   5.733   4.147 -1.9963 -0.6634  0.1053
  908MOL0     H22526  10.720   5.848   4.019  0.6557  1.0237  0.8204
  908MOL0     H22527  10.507   5.910   4.228 -2.5454  0.7024 -3.4308
  908MOL0     H22528  10.563   6.008   4.112 -2.3942 -2.8128 -0.5652
  908MOL0     H22529  10.763   5.892   4.317  1.0352  0.5178 -0.4837
  908MOL0     H22530  10.798   6.016   4.206 -0.5255  0.7172 -0.0638
  908MOL0     H22531  10.619   6.271   4.222 -1.3176 -1.1196 -0.0587
  908MOL0     H22532  10.504   6.434   4.415  0.1571  3.0104  0.5516
  908MOL0     H22533  10.567   6.400   4.581 -1.6078 -1.0504 -0.1864
  908MOL0     H22534  10.732   6.504   4.344 -1.5998  0.4172 -0.4688
  908MOL0     H22535  10.666   6.607   4.460  2.3299  1.2699 -2.0391
  908MOL0     H22536  10.850   6.376   4.533  0.3387  0.5768 -0.5550
  908MOL0     H22537  10.780   6.487   4.654  0.2779 -2.0509  0.5441
  908MOL0     H22538  11.017   6.521   4.582 -1.1152 -0.4693  1.8207
  908MOL0     H22539  10.919   6.660   4.609 -2.6561  0.0337 -0.0550
  908MOL0     H22540  11.103   6.508   4.206 -2.4840  0.3009  0.3922
  908MOL0     H22541  11.341   6.551   4.159 -0.9651  0.2520 -0.6616
  908MOL0     H22542  11.726   6.425   4.141  0.9937 -0.8229  0.3977
  908MOL0     H22543  11.966   6.435   4.053  2.4518  0.6912  1.6956
  908MOL0     H22544  12.074   6.764   3.867  0.1360  3.5773  1.3506
  908MOL0     H22545  12.205   6.812   3.992  2.8951 -2.3287  1.6989
  908MOL0     H22546  12.197   6.586   3.792 -1.0439  0.5901 -1.1129
  908MOL0     H22547  12.284   6.736   3.754  3.3274  0.2455  1.8064
  908MOL0     H22548  12.416   6.706   3.953  1.8967 -1.4246 -0.3400
  908MOL0     H22549  12.356   6.543   3.985  0.2065  1.2502  1.4567
  908MOL0     H22550  12.500   6.642   3.725 -1.1419 -2.3189 -1.8207
  908MOL0     H22551  12.419   6.493   3.739  0.4070 -1.0515 -0.5440
  908MOL0     H22552  12.606   6.433   3.929 -0.6761  1.2856  1.4926
  908MOL0     H22553  12.640   6.603   3.934 -3.0662 -0.6081  1.7100
  908MOL0     H22554  12.707   6.427   3.695 -0.1443  1.5429 -1.1473
  908MOL0     H22555  12.749   6.596   3.714  2.3584 -1.3214 -0.2615
  908MOL0     H22556  12.846   6.425   3.933  1.1948  2.0037  1.2613
  908MOL0     H22557  12.905   6.576   3.853 -1.4460  1.1765 -2.1745
  908MOL0     H22558  12.906   6.288   3.725  1.2282  0.0355  0.4955
  908MOL0     H22559  12.960   6.436   3.645  0.9378  1.6658 -0.7705
  908MOL0     H22560  11.969   6.858   4.088  0.7714 -0.9997 -1.2582
  908MOL0     H22561  11.733   6.861   4.149  1.2282  1.2751 -1.1763
  908MOL0     H22562  11.387   6.804   4.486  0.5287  0.6694 -1.8588
  908MOL0     H22563  11.148   6.760   4.549  0.5604 -1.4141  1.2058
  908MOL0     H22564   9.939   5.656   3.508  0.6510  0.8744  0.6006
  908MOL0     H22565   9.751   5.498   3.492 -0.2203  1.4690 -2.2289
  908MOL0     H22566   9.328   5.341   3.471 -0.0345 -0.2532 -0.1821
  908MOL0     H22567   9.161   5.202   3.467  0.6057  2.0790  2.0803
  908MOL0     H22568   9.054   4.981   3.388  0.1816 -3.1330 -0.4262
  908MOL0     H22569   8.997   5.071   3.526 -1.1090 -1.8104  1.6620
  908MOL0     H22570   8.944   4.782   3.497 -0.7190  0.0049 -0.3880
  908MOL0     H22571   8.836   4.914   3.478  1.6538 -0.2195 -0.9313
  908MOL0     H22572   8.883   4.998   3.709 -1.3565 -0.3959  0.1531
  908MOL0     H22573   8.969   4.843   3.741  2.1233 -0.2651 -1.5931
  908MOL0     H22574   8.749   4.722   3.710  0.1030 -1.0458  0.6187
  908MOL0     H22575   8.730   4.853   3.824 -1.2768 -3.5970  0.1994
  908MOL0     H22576   8.428   4.966   3.595  0.6794 -0.0449  0.1570
  908MOL0     H22577   9.398   4.895   3.657  1.4906  0.4263  0.0493
  908MOL0     H22578   9.622   5.093   3.795 -4.4732 -0.7323  0.8258
  908MOL0     H22579   9.569   4.938   3.753 -0.0876  0.9800  2.1398
  908MOL0     H22580   9.695   5.012   3.643 -0.8539  0.4803 -1.1691
  909MOL0     O22581   8.195   8.919   5.246 -0.2755  1.0340  0.5919
  909MOL0     C22582   8.147   9.006   5.183 -0.1941  0.4874  0.4149
  909MOL0     O22583   8.211   9.122   5.149  0.0316 -0.1695 -0.3679
  909MOL0     C22584   8.345   9.137   5.162 -0.0673  0.4550 -0.2157
  909MOL0     C22585   8.423   9.101   5.266 -0.3911  0.5406 -0.7444
  909MOL0     C22586   8.564   9.112   5.264  0.1982 -0.6057  0.3985
  909MOL0     C22587   8.620   9.165   5.140 -0.5895 -0.1275 -0.4907
  909MOL0     O22588   8.755   9.189   5.144  0.0073 -0.3432 -1.0978
  909MOL0     C22589   8.823   9.067   5.093 -0.2459  1.0689  0.1861
  909MOL0     C22590   8.971   9.086   5.116  0.0767 -1.1869  0.6405
  909MOL0     C22591   9.058   9.000   5.021 -0.1315  0.1137 -0.1342
  909MOL0     C22592   9.212   9.023   5.040 -1.1989 -0.3484  0.2530
  909MOL0     C22593   9.291   8.923   4.960 -0.1983 -0.0666  0.4595
  909MOL0     C22594   9.447   8.940   4.975 -0.0728  0.6697 -0.7345
  909MOL0     C22595   9.529   8.986   4.846 -0.1269  0.3482  0.1237
  909MOL0     C22596   9.672   9.004   4.877 -0.3981  0.2881  0.2206
  909MOL0     N22597   9.742   9.031   4.748  0.0247 -0.0117 -0.4539
  909MOL0     C22598   9.787   8.926   4.673  0.1051 -0.2284  0.6590
  909MOL0     C22599   9.880   8.980   4.588 -0.5979 -0.0715  0.7745
  909MOL0     C22600   9.960   8.917   4.475  0.1780 -0.0364 -0.1389
  909MOL0     C22601   9.921   8.978   4.339  0.1632 -0.1241  0.5357
  909MOL0     C22602   9.991   9.113   4.307 -0.0348 -0.7991 -0.4311
  909MOL0     C22603   9.969   9.162   4.155  0.0081 -0.1953 -0.4860
  909MOL0     O22604  10.077   9.134   4.066  0.6531 -0.8705  0.1688
  909MOL0     C22605  10.204   9.184   4.098  0.1349 -0.5687 -0.3886
  909MOL0     C22606  10.230   9.289   4.182 -0.0699 -1.1977  0.0651
  909MOL0     C22607  10.359   9.323   4.225  0.7426 -0.5087 -0.3681
  909MOL0     C22608  10.477   9.258   4.185  0.1702  0.1820  0.3097
  909MOL0     C22609  10.603   9.288   4.240 -0.0576 -0.2893 -0.8685
  909MOL0     O22610  10.694   9.188   4.224  0.0537  0.4138 -0.1393
  909MOL0     C22611  10.823   9.209   4.266  0.2462 -0.5339 -0.1291
  909MOL0     C22612  10.914   9.249   4.182  0.3674  0.3032  0.8253
  909MOL0     C22613  11.048   9.259   4.223  0.8634  1.0862  0.0680
  909MOL0     C22614  11.083   9.231   4.356 -0.1758 -0.1102 -0.4626
  909MOL0     O22615  11.214   9.240   4.411  0.2498 -0.1542  0.0464
  909MOL0     C22616  11.312   9.285   4.326 -0.5017  0.0219  0.0555
  909MOL0     C22617  11.446   9.273   4.408 -0.2374  0.2548  0.3502
  909MOL0     C22618  11.483   9.137   4.444 -0.3269 -0.5229 -0.7277
  909MOL0     C22619  11.430   9.102   4.583  0.5020  0.1562  0.5130
  909MOL0     C22620  11.454   8.946   4.610  0.4772 -0.6135 -0.1007
  909MOL0     C22621  11.346   8.852   4.562  0.3161 -0.7242 -0.0732
  909MOL0     C22622  11.214   8.852   4.650 -0.3222  0.3173 -0.1134
  909MOL0     C22623  11.099   8.787   4.578  0.7801 -0.1482  0.2687
  909MOL0    Cl22624  10.950   8.814   4.674 -0.3968  0.1825 -0.4433
  909MOL0     C22625  10.979   9.201   4.447 -0.7456 -0.3292  0.2321
  909MOL0     C22626  10.849   9.189   4.401 -0.4395 -0.0523  1.5765
  909MOL0     O22627  10.625   9.393   4.295 -0.3521  0.5507  0.0035
  909MOL0     C22628  10.458   9.153   4.098  0.2652 -0.0593  0.3781
  909MOL0     C22629  10.321   9.124   4.054  0.5622  0.1711 -0.5385
  909MOL0     N22630   9.892   9.115   4.622 -0.6830  0.3410  0.0976
  909MOL0     N22631   9.820   9.143   4.724  0.5478 -0.0427 -0.9931
  909MOL0     C22632   8.541   9.202   5.031  1.2043 -0.5104  0.1915
  909MOL0     C22633   8.410   9.176   5.041 -0.4208  0.3399  0.3579
  909MOL0     C22634   8.005   8.991   5.154  0.4721  0.1961 -0.4133
  909MOL0     C22635   7.932   9.115   5.153  0.2382 -0.2503 -0.0961
  909MOL0     C22636   7.805   9.121   5.099  0.0056  0.4089 -0.1401
  909MOL0     C22637   7.732   9.008   5.065  0.0916 -0.2542  0.1705
  909MOL0     O22638   7.609   9.032   5.007 -0.6528 -0.4969 -0.6122
  909MOL0     C22639   7.520   8.913   5.016 -0.5981  0.2905 -0.3345
  909MOL0     C22640   7.400   8.936   4.920 -0.2496 -0.0058  0.1526
  909MOL0     C22641   7.308   8.816   4.912  0.3313  0.5318  0.2551
  909MOL0     C22642   7.192   8.789   5.008 -0.2433  0.7465 -1.2611
  909MOL0     C22643   7.236   8.776   5.149  0.4564 -0.1210 -0.5787
  909MOL0     C22644   7.259   8.760   5.269  0.4647 -0.7371  0.2801
  909MOL0     C22645   7.796   8.886   5.083 -0.4188 -0.2783 -0.9222
  909MOL0     C22646   7.936   8.873   5.119  0.2436 -0.6563 -0.7338
  909MOL0     C22647   8.007   8.736   5.116 -1.1500  0.0541  0.2552
  909MOL0     H22648   8.378   9.050   5.351 -1.7521 -0.7462 -2.1593
  909MOL0     H22649   8.620   9.101   5.356  3.7536  0.6363 -1.4622
  909MOL0     H22650   8.790   8.975   5.142 -1.2907  1.1340 -0.3794
  909MOL0     H22651   8.807   9.059   4.985  0.4685  0.4109  0.1202
  909MOL0     H22652   8.998   9.070   5.220  0.5586 -3.5956  0.2062
  909MOL0     H22653   9.005   9.188   5.095  1.1110 -1.2611  1.8468
  909MOL0     H22654   9.017   9.015   4.921 -3.1441 -0.5006  0.9071
  909MOL0     H22655   9.042   8.898   5.056  0.3344  0.3660  0.8575
  909MOL0     H22656   9.250   9.122   5.015  2.5204 -2.2715 -2.5600
  909MOL0     H22657   9.234   9.007   5.146 -1.1242 -1.0785  0.1336
  909MOL0     H22658   9.271   8.819   4.988  2.8845 -0.9809 -0.3695
  909MOL0     H22659   9.271   8.942   4.855 -0.3615  0.3734  0.5713
  909MOL0     H22660   9.456   9.018   5.051 -0.9082  0.3686 -0.3204
  909MOL0     H22661   9.488   8.849   5.020 -1.4140 -0.2398 -1.2890
  909MOL0     H22662   9.497   9.088   4.825  0.7209  0.9453  1.5762
  909MOL0     H22663   9.513   8.916   4.763 -0.8955 -0.0381  0.5765
  909MOL0     H22664   9.685   9.092   4.940  0.7868  1.3974 -1.4553
  909MOL0     H22665   9.719   8.917   4.923  2.0166  0.6051 -1.4559
  909MOL0     H22666   9.763   8.820   4.672 -1.4561  0.1070 -0.1935
  909MOL0     H22667  10.068   8.933   4.487  0.9271 -3.0680 -1.8862
  909MOL0     H22668   9.952   8.809   4.471  1.5188 -0.2604  1.6515
  909MOL0     H22669   9.949   8.902   4.266 -1.0514 -1.2395  1.1842
  909MOL0     H22670   9.812   8.994   4.338  0.3946  1.7181  1.2065
  909MOL0     H22671  10.098   9.104   4.328  0.1264  2.0756  0.4372
  909MOL0     H22672   9.955   9.193   4.373  0.8154 -1.4566  0.8620
  909MOL0     H22673   9.959   9.270   4.151  0.6885 -0.1442 -1.0448
  909MOL0     H22674   9.879   9.114   4.116 -2.1023  3.4555 -0.5497
  909MOL0     H22675  10.154   9.360   4.212  1.5078  0.2809  0.7043
  909MOL0     H22676  10.370   9.412   4.286  0.1006  0.3374 -1.4359
  909MOL0     H22677  10.887   9.267   4.079 -1.0541 -2.2714  0.6742
  909MOL0     H22678  11.115   9.297   4.146 -0.0218  1.8611 -0.3466
  909MOL0     H22679  11.325   9.224   4.237  2.1430  1.3931 -0.6044
  909MOL0     H22680  11.310   9.393   4.308  1.9405  0.8625  3.6209
  909MOL0     H22681  11.537   9.313   4.362  1.2574 -2.7117  0.4734
  909MOL0     H22682  11.428   9.331   4.498 -3.8119  2.5083 -1.5847
  909MOL0     H22683  11.453   9.072   4.362  0.5751 -1.4528 -0.3473
  909MOL0     H22684  11.592   9.128   4.454 -0.2812 -1.4170 -1.9353
  909MOL0     H22685  11.325   9.131   4.595  0.3584 -0.7035  1.6237
  909MOL0     H22686  11.468   9.163   4.666  0.7412  2.1924 -1.0229
  909MOL0     H22687  11.467   8.926   4.717  0.5141  1.4568  0.3070
  909MOL0     H22688  11.539   8.907   4.553  1.0055  1.2120 -0.6018
  909MOL0     H22689  11.328   8.867   4.456 -1.0686  0.3093  0.2759
  909MOL0     H22690  11.385   8.751   4.580  2.0896  0.2613  2.1842
  909MOL0     H22691  11.188   8.952   4.685 -3.0576 -1.1176  2.5029
  909MOL0     H22692  11.252   8.791   4.733  3.0948  2.2627 -0.0854
  909MOL0     H22693  11.087   8.818   4.473  0.7130 -2.3908 -0.4447
  909MOL0     H22694  11.116   8.679   4.569 -0.4516 -0.2419 -1.5940
  909MOL0     H22695  11.003   9.180   4.551  0.3454  1.9128  0.4796
  909MOL0     H22696  10.772   9.141   4.460 -0.7000  3.0568  3.9539
  909MOL0     H22697  10.544   9.093   4.071  1.1139  1.2502  0.0795
  909MOL0     H22698  10.313   9.037   3.990 -0.6934 -1.5576  1.8263
  909MOL0     H22699   8.589   9.231   4.938 -0.5645  4.3935  0.5714
  909MOL0     H22700   8.348   9.192   4.953 -1.5444  1.2561  1.2801
  909MOL0     H22701   7.971   9.212   5.180 -0.6959 -0.5081  2.3630
  909MOL0     H22702   7.762   9.220   5.087  1.9473  1.1727 -1.2462
  909MOL0     H22703   7.501   8.889   5.121  1.7653  0.7421  0.2541
  909MOL0     H22704   7.559   8.818   4.979 -1.0532  0.9774 -2.8274
  909MOL0     H22705   7.450   8.947   4.824  0.5604 -0.7083  0.4826
  909MOL0     H22706   7.346   9.026   4.950  2.2350  2.1274 -1.3794
  909MOL0     H22707   7.361   8.723   4.888  0.5085  0.8769 -0.7248
  909MOL0     H22708   7.254   8.832   4.819  0.4329 -0.9752 -0.0845
  909MOL0     H22709   7.116   8.867   5.009 -0.0771  0.9281  0.5958
  909MOL0     H22710   7.153   8.691   4.977  1.1853 -0.0810 -0.5526
  909MOL0     H22711   7.274   8.732   5.371  4.0707 -2.2473 -0.5263
  909MOL0     H22712   7.751   8.793   5.051 -0.0400 -0.5937 -0.5344
  909MOL0     H22713   7.949   8.658   5.065  0.1984  0.6098 -2.2391
  909MOL0     H22714   8.107   8.734   5.073 -1.2417 -3.4636 -0.0994
  909MOL0     H22715   8.033   8.708   5.219 -0.1703  2.3377  0.6875
  910MOL0     O22716   7.957   6.163   3.201 -0.0141 -0.0518 -0.2840
  910MOL0     C22717   8.052   6.085   3.220  1.0282 -0.4841 -0.4748
  910MOL0     O22718   8.089   6.042   3.337  0.6473 -0.0246 -0.2701
  910MOL0     C22719   8.015   6.049   3.454 -0.2336 -0.3992 -0.0631
  910MOL0     C22720   8.097   6.044   3.567 -0.6896  0.3680 -0.2421
  910MOL0     C22721   8.035   6.047   3.701  0.5861  0.0876 -0.4827
  910MOL0     C22722   7.900   6.079   3.705 -1.2558  0.3503  0.3468
  910MOL0     O22723   7.851   6.092   3.829  0.0951  0.5884 -0.3575
  910MOL0     C22724   7.788   6.211   3.851  0.6457  0.3897 -0.0915
  910MOL0     C22725   7.731   6.218   3.992  0.2120  0.4067 -0.4494
  910MOL0     C22726   7.666   6.357   4.018  0.5506 -0.1200  0.8861
  910MOL0     C22727   7.613   6.353   4.163  0.2460 -0.7630 -0.4616
  910MOL0     C22728   7.534   6.477   4.210 -0.2534  0.1805 -1.3811
  910MOL0     C22729   7.627   6.586   4.236 -0.8089  0.0123 -0.7434
  910MOL0     C22730   7.554   6.717   4.270  0.2592  0.2043 -0.3740
  910MOL0     C22731   7.564   6.748   4.421  0.2849  0.5192  0.2432
  910MOL0     N22732   7.478   6.860   4.466  0.7956  0.6317  0.6275
  910MOL0     C22733   7.346   6.835   4.503  0.2338 -0.9642  0.4723
  910MOL0     C22734   7.299   6.951   4.546 -0.4708  0.3051  0.6962
  910MOL0     C22735   7.154   6.986   4.544 -1.1564 -0.5054 -0.5484
  910MOL0     C22736   7.079   6.962   4.405  0.9810  0.1913 -0.9459
  910MOL0     C22737   6.940   7.027   4.393  0.0088  0.0555 -0.3043
  910MOL0     C22738   6.844   6.961   4.492  0.2762 -0.4675  0.9005
  910MOL0     O22739   6.800   6.830   4.440 -0.3413 -0.2774  0.5849
  910MOL0     C22740   6.700   6.762   4.505 -0.5146  0.1580  0.5205
  910MOL0     C22741   6.688   6.764   4.646 -0.5818 -1.1261  0.1123
  910MOL0     C22742   6.599   6.688   4.718 -0.6044  1.0521 -0.3844
  910MOL0     C22743   6.506   6.598   4.658 -0.0906 -0.6442 -0.1736
  910MOL0     C22744   6.409   6.521   4.734  0.4445  0.1962 -0.1393
  910MOL0     O22745   6.390   6.564   4.863 -0.6180  0.4642 -0.1030
  910MOL0     C22746   6.326   6.484   4.960  0.4010  0.1952 -0.1979
  910MOL0     C22747   6.184   6.482   4.961  0.1780  0.9298 -0.0617
  910MOL0     C22748   6.125   6.404   5.061  0.4710 -0.1767  0.7161
  910MOL0     C22749   6.195   6.334   5.157 -0.2093  0.0801  0.4413
  910MOL0     O22750   6.126   6.302   5.274  0.2014  0.2307  0.4267
  910MOL0     C22751   6.068   6.172   5.289  0.5680 -0.2703  0.7378
  910MOL0     C22752   6.110   6.113   5.425 -0.1037  0.6617  0.1964
  910MOL0     C22753   6.255   6.149   5.479 -0.1942 -0.0446 -0.4832
  910MOL0     C22754   6.282   6.078   5.609  0.9337 -0.0132 -0.7985
  910MOL0     C22755   6.411   6.123   5.665 -0.1291 -0.6644  0.1173
  910MOL0     C22756   6.526   6.066   5.599  0.1120 -0.6525  0.5971
  910MOL0     C22757   6.660   6.118   5.661  0.7411  0.9322  0.2736
  910MOL0     C22758   6.676   6.266   5.645 -0.3938  0.4062 -0.3347
  910MOL0    Cl22759   6.841   6.302   5.697  0.0554 -0.2096  0.0310
  910MOL0     C22760   6.336   6.343   5.154 -0.1606 -0.1894 -0.2421
  910MOL0     C22761   6.400   6.416   5.052  0.0189  0.3569 -0.8156
  910MOL0     O22762   6.344   6.437   4.674  0.4727  0.8242 -0.0434
  910MOL0     C22763   6.519   6.590   4.521 -0.6501 -0.2279 -0.3455
  910MOL0     C22764   6.616   6.662   4.442  0.3077  0.1836 -0.1856
  910MOL0     N22765   7.396   7.048   4.535 -0.7942 -0.3757  0.4539
  910MOL0     N22766   7.504   6.994   4.478  0.2511  0.9301  0.0106
  910MOL0     C22767   7.822   6.074   3.592  0.1394 -1.0300  0.1032
  910MOL0     C22768   7.881   6.053   3.468  0.6952 -0.7141 -0.2473
  910MOL0     C22769   8.130   6.039   3.096 -0.0976 -1.1341  0.1572
  910MOL0     C22770   8.264   6.025   3.109 -0.4874  0.3748  0.8425
  910MOL0     C22771   8.340   5.964   3.006 -0.1896  0.3195 -0.3579
  910MOL0     C22772   8.287   5.935   2.878  0.1335 -0.3709 -0.2991
  910MOL0     O22773   8.369   5.893   2.777 -0.2170 -0.0334  0.1076
  910MOL0     C22774   8.308   5.849   2.651 -0.1116 -0.6073  0.0958
  910MOL0     C22775   8.245   5.709   2.655 -0.3988  0.1348 -0.1503
  910MOL0     C22776   8.144   5.685   2.541 -0.3647 -0.1088 -0.2778
  910MOL0     C22777   8.089   5.553   2.533  0.6754  0.7994  0.3285
  910MOL0     C22778   7.988   5.554   2.430 -0.0742 -0.2171  0.3254
  910MOL0     C22779   7.915   5.550   2.335 -0.2929  0.7373 -0.0399
  910MOL0     C22780   8.150   5.951   2.866  0.9154  0.2269 -0.1002
  910MOL0     C22781   8.068   6.006   2.974 -0.5255 -0.4167  0.4702
  910MOL0     C22782   7.918   6.015   2.950  0.9349  1.0495 -0.6112
  910MOL0     H22783   8.204   6.024   3.565 -0.8562 -0.4927 -1.0142
  910MOL0     H22784   8.105   6.044   3.784  2.4318 -2.5329 -2.0061
  910MOL0     H22785   7.861   6.293   3.845 -2.6791  3.5245 -1.4453
  910MOL0     H22786   7.709   6.231   3.778  1.1574  0.7101 -0.5662
  910MOL0     H22787   7.815   6.197   4.059 -0.7022  1.7678  1.2099
  910MOL0     H22788   7.657   6.138   3.996 -1.8803  2.2713  1.4784
  910MOL0     H22789   7.584   6.367   3.946  0.0921 -2.8967  0.9078
  910MOL0     H22790   7.740   6.437   4.003  1.2177 -0.5423  1.8328
  910MOL0     H22791   7.548   6.265   4.170 -4.2421  2.1346 -1.0829
  910MOL0     H22792   7.701   6.338   4.225  0.5566 -1.5155 -1.0742
  910MOL0     H22793   7.468   6.503   4.126  1.3025 -1.7695 -3.3534
  910MOL0     H22794   7.481   6.446   4.301  1.9656 -0.4413 -0.2410
  910MOL0     H22795   7.698   6.557   4.313 -2.0951 -0.5836  0.2509
  910MOL0     H22796   7.689   6.603   4.147 -1.6225  1.4702 -1.0703
  910MOL0     H22797   7.449   6.704   4.242  0.8350 -0.2944 -2.5227
  910MOL0     H22798   7.599   6.798   4.211  2.8794 -0.4042  0.6384
  910MOL0     H22799   7.551   6.656   4.479  0.3492 -0.0180 -0.5798
  910MOL0     H22800   7.665   6.781   4.451  0.1449  2.5872 -1.3184
  910MOL0     H22801   7.285   6.746   4.503 -5.3021  2.3143 -0.9658
  910MOL0     H22802   7.091   6.937   4.619 -0.0319 -2.6896 -0.9326
  910MOL0     H22803   7.154   7.095   4.551 -0.7037 -0.4169 -1.6417
  910MOL0     H22804   7.144   6.995   4.324 -0.8255 -2.6464 -3.7965
  910MOL0     H22805   7.075   6.855   4.384 -0.8943  0.5126 -2.5102
  910MOL0     H22806   6.911   7.016   4.288 -0.1323  4.5959 -0.9535
  910MOL0     H22807   6.950   7.136   4.397  0.9561  0.1783 -3.3911
  910MOL0     H22808   6.766   7.037   4.502  2.5872  1.9207  2.1304
  910MOL0     H22809   6.892   6.962   4.591  0.2097 -1.0512  0.9450
  910MOL0     H22810   6.757   6.820   4.708 -2.0623  1.9715 -0.8779
  910MOL0     H22811   6.602   6.709   4.824  1.0744  0.3668 -0.2585
  910MOL0     H22812   6.134   6.529   4.877  0.5132 -0.1847 -0.9073
  910MOL0     H22813   6.018   6.407   5.082  0.4871  1.5229  0.7501
  910MOL0     H22814   5.959   6.184   5.293  0.8114  2.5951  0.5337
  910MOL0     H22815   6.085   6.110   5.200  3.0733 -1.4085  1.9136
  910MOL0     H22816   6.042   6.138   5.507  1.0232 -0.9886  1.7069
  910MOL0     H22817   6.115   6.004   5.424  2.5017  0.7255 -1.0576
  910MOL0     H22818   6.330   6.143   5.400 -1.1516  0.9098 -1.4949
  910MOL0     H22819   6.247   6.255   5.505 -1.5179 -0.2627  0.0947
  910MOL0     H22820   6.269   5.969   5.602 -0.1717 -0.0174  0.8574
  910MOL0     H22821   6.200   6.101   5.677  0.5586 -1.7977 -0.5945
  910MOL0     H22822   6.418   6.093   5.770 -4.2313  0.9980  1.0303
  910MOL0     H22823   6.417   6.231   5.649  0.8167 -1.0249 -2.5884
  910MOL0     H22824   6.516   5.957   5.608 -3.1856 -0.4671  0.3306
  910MOL0     H22825   6.525   6.096   5.494  0.4887 -2.8559 -0.0850
  910MOL0     H22826   6.731   6.055   5.608  0.5628  0.8383  0.1453
  910MOL0     H22827   6.658   6.090   5.767 -0.4753 -1.8485 -0.4124
  910MOL0     H22828   6.658   6.303   5.543 -1.3141  1.4904  0.2094
  910MOL0     H22829   6.612   6.317   5.717 -2.9021 -3.4601  0.4600
  910MOL0     H22830   6.383   6.262   5.209 -1.2778  0.3943  1.6770
  910MOL0     H22831   6.508   6.413   5.043  0.0190 -2.2012 -0.6321
  910MOL0     H22832   6.450   6.520   4.474 -2.1269 -0.9192  2.6185
  910MOL0     H22833   6.604   6.643   4.335 -2.1427 -2.5400  0.4545
  910MOL0     H22834   7.715   6.061   3.607  0.2581 -1.1965  0.8469
  910MOL0     H22835   7.809   6.040   3.388 -1.2038  1.5105  0.9803
  910MOL0     H22836   8.319   6.046   3.200  5.6563 -1.6046 -1.8536
  910MOL0     H22837   8.441   5.934   3.031 -0.7433 -2.6091 -1.2771
  910MOL0     H22838   8.390   5.846   2.579  0.3438 -3.1005  0.6239
  910MOL0     H22839   8.241   5.927   2.615 -0.4168 -1.5616 -1.4757
  910MOL0     H22840   8.190   5.691   2.747 -0.2527 -4.1538 -0.7002
  910MOL0     H22841   8.330   5.640   2.664  0.7797  0.9401 -3.5145
  910MOL0     H22842   8.193   5.692   2.443 -0.9101 -0.0101 -0.5472
  910MOL0     H22843   8.060   5.753   2.556  0.1719  0.5123 -0.0352
  910MOL0     H22844   8.165   5.483   2.496 -0.2655 -1.8059  2.9342
  910MOL0     H22845   8.050   5.515   2.628 -0.1752  2.1425  0.5338
  910MOL0     H22846   7.842   5.559   2.258 -0.1244 -0.5661 -0.3802
  910MOL0     H22847   8.108   5.929   2.768  2.7435  1.8134 -1.3095
  910MOL0     H22848   7.876   6.109   2.986 -2.2122 -1.1421  2.0879
  910MOL0     H22849   7.900   5.996   2.844 -0.7273 -0.0303 -0.1774
  910MOL0     H22850   7.862   5.938   3.004  0.6035  0.7429 -1.3876
  911MOL0     O22851   5.194   1.875   2.053 -0.4021  0.3738 -0.1638
  911MOL0     C22852   5.109   1.925   1.988  0.8443 -0.0268  1.0953
  911MOL0     O22853   5.127   1.994   1.870 -0.5045  0.0583  0.2734
  911MOL0     C22854   5.264   2.031   1.854  0.9071  0.5404 -0.2762
  911MOL0     C22855   5.316   2.145   1.910  0.0842 -0.5900  0.0543
  911MOL0     C22856   5.447   2.174   1.905 -0.4378  0.8348  0.1735
  911MOL0     C22857   5.522   2.103   1.804  0.2527  0.2504  0.1062
  911MOL0     O22858   5.645   2.161   1.781 -0.5685 -0.5903  0.9268
  911MOL0     C22859   5.746   2.070   1.725  0.5774  0.1524 -0.0004
  911MOL0     C22860   5.888   2.124   1.749 -0.2712  0.1491  0.1751
  911MOL0     C22861   5.921   2.151   1.894 -0.4505  0.3380  0.0742
  911MOL0     C22862   6.079   2.172   1.902  0.1489 -0.2978 -0.3252
  911MOL0     C22863   6.137   2.194   2.040  0.6167  0.1058  0.3281
  911MOL0     C22864   6.093   2.331   2.095  0.5132  0.4890  0.5237
  911MOL0     C22865   6.161   2.363   2.233 -0.1568 -0.3378 -0.3608
  911MOL0     C22866   6.312   2.393   2.217  1.3025  0.0437  0.1119
  911MOL0     N22867   6.333   2.539   2.242 -0.4474  0.0413 -0.8183
  911MOL0     C22868   6.277   2.638   2.163 -0.1990  0.4205  0.3288
  911MOL0     C22869   6.239   2.733   2.251  0.5169 -0.5306  0.6145
  911MOL0     C22870   6.174   2.864   2.222 -0.1025  0.6211 -0.8504
  911MOL0     C22871   6.266   2.971   2.161  0.0016  0.5372 -0.5270
  911MOL0     C22872   6.173   3.083   2.111  0.1283  0.3923 -0.4885
  911MOL0     C22873   6.258   3.201   2.072 -0.8042 -0.9088  0.0557
  911MOL0     O22874   6.385   3.169   2.001  1.0868 -0.1796 -0.1674
  911MOL0     C22875   6.470   3.271   1.961  0.4168  0.4459  0.3805
  911MOL0     C22876   6.585   3.238   1.886 -0.5340 -1.0640 -0.5014
  911MOL0     C22877   6.673   3.339   1.847  0.4340 -0.6784  0.5934
  911MOL0     C22878   6.660   3.475   1.893  0.4617 -0.2241 -0.4552
  911MOL0     C22879   6.759   3.576   1.872  0.2971 -0.4869 -0.2162
  911MOL0     O22880   6.876   3.528   1.824  0.3086 -0.0257  0.2103
  911MOL0     C22881   6.988   3.606   1.826  0.4216 -0.2703 -0.5300
  911MOL0     C22882   7.070   3.603   1.713  0.8499 -0.0302 -0.3678
  911MOL0     C22883   7.178   3.685   1.703 -0.0177  1.0732  0.4660
  911MOL0     C22884   7.205   3.774   1.799 -0.3611 -0.1474 -1.1155
  911MOL0     O22885   7.314   3.846   1.775 -0.0940 -0.1191  0.2140
  911MOL0     C22886   7.351   3.949   1.863  0.1721 -0.4143  0.6666
  911MOL0     C22887   7.456   4.031   1.787 -0.6387  0.1066  0.7890
  911MOL0     C22888   7.498   4.162   1.849  0.1714  0.1698  0.2371
  911MOL0     C22889   7.595   4.230   1.752 -0.9505  0.5308 -0.0037
  911MOL0     C22890   7.641   4.362   1.811 -0.8423  0.3419  1.0495
  911MOL0     C22891   7.722   4.438   1.714  0.2203 -1.0167  0.8382
  911MOL0     C22892   7.789   4.552   1.801  0.2998 -1.1064 -0.3629
  911MOL0     C22893   7.897   4.631   1.720  0.0029  0.4331  0.6913
  911MOL0    Cl22894   8.049   4.540   1.700  0.1898  0.1334  0.0374
  911MOL0     C22895   7.137   3.772   1.919  0.4044 -0.3924 -0.0570
  911MOL0     C22896   7.029   3.685   1.931  0.1618  0.4416 -0.1285
  911MOL0     O22897   6.728   3.696   1.882 -0.2433  0.7155 -0.2593
  911MOL0     C22898   6.536   3.503   1.954  0.2111  1.3670 -0.7784
  911MOL0     C22899   6.444   3.402   1.989  0.1640 -0.0053 -0.7140
  911MOL0     N22900   6.299   2.699   2.369  0.0526 -0.7020 -0.0067
  911MOL0     N22901   6.359   2.585   2.370  0.5583 -0.4158 -0.1837
  911MOL0     C22902   5.472   1.987   1.750 -0.2888 -0.3190 -0.1777
  911MOL0     C22903   5.343   1.951   1.778  1.0105  0.2380  0.1596
  911MOL0     C22904   4.963   1.891   2.013  0.4550  1.3621 -0.6301
  911MOL0     C22905   4.858   1.948   1.942  0.1264 -0.5891 -0.2707
  911MOL0     C22906   4.725   1.910   1.964 -0.1475 -1.3637 -0.4551
  911MOL0     C22907   4.696   1.817   2.070 -0.5915 -0.6800 -0.8395
  911MOL0     O22908   4.572   1.763   2.099  0.4260  0.6503 -0.1724
  911MOL0     C22909   4.453   1.792   2.017  0.4052  0.3253 -0.4141
  911MOL0     C22910   4.336   1.694   2.051 -0.2342  0.1000  0.1111
  911MOL0     C22911   4.291   1.712   2.195 -0.0630 -0.4974 -0.0984
  911MOL0     C22912   4.131   1.682   2.202 -0.5456  0.8638  0.8334
  911MOL0     C22913   4.081   1.689   2.343  0.3953  0.1224  0.7496
  911MOL0     C22914   4.049   1.713   2.454  0.2207  0.6286  0.0903
  911MOL0     C22915   4.799   1.766   2.150 -0.3435 -0.2164 -0.6350
  911MOL0     C22916   4.930   1.800   2.127  0.4773  0.3538  0.8520
  911MOL0     C22917   5.031   1.716   2.197 -0.1482  0.1725 -0.6698
  911MOL0     H22918   5.250   2.216   1.959 -1.8985 -0.3838 -2.6610
  911MOL0     H22919   5.491   2.254   1.963  0.8087 -1.3821  2.5464
  911MOL0     H22920   5.739   1.971   1.770  2.1561  0.1627  0.3347
  911MOL0     H22921   5.742   2.063   1.615  2.2296 -0.7566 -0.0399
  911MOL0     H22922   5.902   2.213   1.687 -0.5552 -1.2862 -2.0708
  911MOL0     H22923   5.955   2.049   1.704 -0.5617  0.6107 -1.0654
  911MOL0     H22924   5.900   2.066   1.959  2.6029 -0.5050  0.1103
  911MOL0     H22925   5.869   2.241   1.926 -0.9595 -0.8301  2.7763
  911MOL0     H22926   6.126   2.083   1.859 -0.9212 -0.4245 -1.2604
  911MOL0     H22927   6.111   2.256   1.839  0.6139 -0.0595  0.2200
  911MOL0     H22928   6.109   2.103   2.094 -1.6602  0.8506  0.5161
  911MOL0     H22929   6.245   2.194   2.024  0.2502 -1.7437 -3.3381
  911MOL0     H22930   6.114   2.411   2.024  2.9186 -0.4353  0.0941
  911MOL0     H22931   5.985   2.320   2.112  0.9052 -2.9311  1.7198
  911MOL0     H22932   6.151   2.277   2.299  0.0717 -1.9294 -2.2973
  911MOL0     H22933   6.111   2.448   2.280  1.8108  0.7139 -0.0406
  911MOL0     H22934   6.359   2.328   2.292  1.4088  0.8514  0.7613
  911MOL0     H22935   6.342   2.369   2.114 -2.0416 -2.2490 -0.4737
  911MOL0     H22936   6.258   2.648   2.056 -0.5113  0.7196  0.4107
  911MOL0     H22937   6.090   2.851   2.153  1.9927 -3.3200 -2.9873
  911MOL0     H22938   6.125   2.906   2.311 -0.7408 -0.9024 -0.4512
  911MOL0     H22939   6.331   3.012   2.239 -0.7910  0.7431  0.0481
  911MOL0     H22940   6.325   2.934   2.077 -0.1486  0.4740 -0.6040
  911MOL0     H22941   6.107   3.110   2.194  1.8394  0.1208  1.0422
  911MOL0     H22942   6.122   3.037   2.026  0.1753 -0.5367 -0.0267
  911MOL0     H22943   6.285   3.265   2.157 -2.2897 -3.1197  2.2912
  911MOL0     H22944   6.197   3.265   2.007 -0.6640  0.0386  0.8257
  911MOL0     H22945   6.603   3.135   1.856  1.6495 -0.9792  0.3130
  911MOL0     H22946   6.762   3.310   1.792 -0.8121 -0.3085 -1.7738
  911MOL0     H22947   7.042   3.542   1.628  0.8674  0.0744 -0.4477
  911MOL0     H22948   7.233   3.686   1.609 -0.8956 -1.1439 -0.1357
  911MOL0     H22949   7.264   4.005   1.897 -1.6348 -3.0850  0.7235
  911MOL0     H22950   7.392   3.910   1.957 -2.2533 -1.3919  1.3963
  911MOL0     H22951   7.539   3.967   1.757 -1.0828 -0.6563  1.1680
  911MOL0     H22952   7.403   4.064   1.697  0.6791  1.8422  0.5918
  911MOL0     H22953   7.419   4.230   1.881 -0.8073 -1.8757  2.4820
  911MOL0     H22954   7.550   4.148   1.944  1.9705 -0.4664 -0.7768
  911MOL0     H22955   7.552   4.243   1.653 -0.9522 -2.4066 -0.4770
  911MOL0     H22956   7.679   4.159   1.746 -1.5403 -0.1343 -0.5166
  911MOL0     H22957   7.700   4.351   1.902  2.2629 -0.1532 -0.8551
  911MOL0     H22958   7.562   4.425   1.852 -1.5060 -0.3602  0.8630
  911MOL0     H22959   7.795   4.377   1.659 -0.8158 -1.5402  0.0143
  911MOL0     H22960   7.660   4.461   1.627  0.3540 -1.0908  0.7225
  911MOL0     H22961   7.834   4.519   1.895 -0.9137 -2.8199 -0.3424
  911MOL0     H22962   7.705   4.616   1.830  0.0305 -0.7281 -1.8885
  911MOL0     H22963   7.848   4.661   1.626  0.0158 -0.1477  0.4915
  911MOL0     H22964   7.919   4.720   1.780 -4.9027  2.0764  0.5465
  911MOL0     H22965   7.167   3.829   2.007 -0.0919 -0.7877  0.3757
  911MOL0     H22966   6.967   3.679   2.020 -2.4691 -0.3289 -1.8745
  911MOL0     H22967   6.516   3.607   1.977 -0.5924  0.9566  0.4609
  911MOL0     H22968   6.351   3.432   2.037  0.2233  2.4001 -1.9673
  911MOL0     H22969   5.529   1.928   1.680 -2.1094  1.4912 -3.4204
  911MOL0     H22970   5.306   1.853   1.749 -1.8691  0.8812  1.3055
  911MOL0     H22971   4.884   2.022   1.867  0.0315 -1.8853 -1.6081
  911MOL0     H22972   4.646   1.949   1.900 -0.1282 -1.4215 -0.5139
  911MOL0     H22973   4.480   1.770   1.914  0.5352 -0.8180 -0.1516
  911MOL0     H22974   4.426   1.897   2.026  3.5872  1.1326  1.7915
  911MOL0     H22975   4.366   1.589   2.051  1.2956  0.4639  2.7706
  911MOL0     H22976   4.253   1.714   1.983 -1.7819  1.0261  2.1563
  911MOL0     H22977   4.306   1.812   2.237 -2.0230 -0.1339 -0.1479
  911MOL0     H22978   4.345   1.646   2.264  2.6386  1.0120 -0.6421
  911MOL0     H22979   4.077   1.763   2.151 -0.7954  1.3262  1.7955
  911MOL0     H22980   4.118   1.583   2.159  3.1532 -0.2944  2.0530
  911MOL0     H22981   4.038   1.744   2.557  1.8861  0.4843  0.3357
  911MOL0     H22982   4.779   1.685   2.219 -0.3903  0.8138  0.6061
  911MOL0     H22983   5.085   1.649   2.129 -1.4993 -3.4621  1.5469
  911MOL0     H22984   5.100   1.778   2.254 -0.2649  0.6973 -1.0986
  911MOL0     H22985   4.988   1.647   2.271  0.5029 -0.0215 -0.4651
  912MOL0     O22986   7.218   5.274   2.829 -0.5914  0.0285  0.4057
  912MOL0     C22987   7.221   5.248   2.712  0.8353 -1.0196  0.0682
  912MOL0     O22988   7.331   5.241   2.637  0.1626  0.9049  0.0267
  912MOL0     C22989   7.449   5.294   2.693  0.8318  0.2085  0.4384
  912MOL0     C22990   7.509   5.269   2.822  0.8356 -0.0724  0.1757
  912MOL0     C22991   7.622   5.333   2.861  0.3877  0.2129  0.2922
  912MOL0     C22992   7.685   5.421   2.776 -0.4380  0.8002 -1.4767
  912MOL0     O22993   7.806   5.478   2.815 -0.0715  0.0502  0.1993
  912MOL0     C22994   7.853   5.478   2.952  0.5816  0.5934  1.0345
  912MOL0     C22995   7.963   5.578   2.954  0.0724 -0.1590  0.7324
  912MOL0     C22996   8.000   5.602   3.097  0.7068  0.5669  0.1314
  912MOL0     C22997   8.137   5.653   3.109 -0.8230 -0.3907  0.3970
  912MOL0     C22998   8.168   5.695   3.255 -0.3770 -0.3492 -0.3644
  912MOL0     C22999   8.314   5.710   3.282  0.2204  0.1774 -0.7106
  912MOL0     C23000   8.329   5.740   3.430 -1.1823 -0.1819 -0.2969
  912MOL0     C23001   8.469   5.795   3.456 -0.4557  0.3776 -0.4650
  912MOL0     N23002   8.507   5.794   3.597 -0.5582 -0.0981  0.0881
  912MOL0     C23003   8.517   5.683   3.683  0.1729  0.0586  0.7343
  912MOL0     C23004   8.546   5.740   3.803 -0.7359 -0.0791  0.0889
  912MOL0     C23005   8.590   5.661   3.924  1.2195 -0.6597  0.4328
  912MOL0     C23006   8.739   5.625   3.919 -0.3055  0.3719  0.1237
  912MOL0     C23007   8.831   5.748   3.942 -0.1515  0.0081 -0.1924
  912MOL0     C23008   8.971   5.693   3.981 -0.0772  0.3566  0.8255
  912MOL0     O23009   9.067   5.800   3.975  0.0618 -0.2638  0.0583
  912MOL0     C23010   9.195   5.765   3.989  0.7560 -0.9419 -0.3134
  912MOL0     C23011   9.285   5.868   3.961 -0.4780  0.0246 -0.0549
  912MOL0     C23012   9.424   5.854   3.971 -0.1742 -0.1797 -0.2965
  912MOL0     C23013   9.470   5.726   4.011 -0.2931  0.4071 -0.6780
  912MOL0     C23014   9.610   5.706   4.027 -0.2480  0.3606 -0.9031
  912MOL0     O23015   9.655   5.575   4.035 -0.0988  0.3769  0.2992
  912MOL0     C23016   9.785   5.551   4.070 -0.1779  0.3526  0.6528
  912MOL0     C23017   9.819   5.486   4.183 -0.0804 -0.8255 -0.1496
  912MOL0     C23018   9.954   5.466   4.210 -0.4211 -0.3125 -0.2900
  912MOL0     C23019  10.054   5.504   4.121 -0.0346  0.4737  0.0029
  912MOL0     O23020  10.187   5.473   4.118  0.1842 -0.2822 -0.4850
  912MOL0     C23021  10.254   5.420   4.235 -0.0548  0.1343 -0.1043
  912MOL0     C23022  10.406   5.442   4.226  1.0085 -0.3978 -0.5553
  912MOL0     C23023  10.480   5.389   4.106  0.2982  0.6897  1.2750
  912MOL0     C23024  10.632   5.388   4.132  0.2989  0.1688 -1.0419
  912MOL0     C23025  10.701   5.292   4.036 -0.0352  0.5384  0.2424
  912MOL0     C23026  10.690   5.315   3.886 -0.3530  0.3483  0.3159
  912MOL0     C23027  10.750   5.201   3.797 -0.6064 -0.8673  0.1758
  912MOL0     C23028  10.754   5.248   3.651 -0.4392 -0.7142  0.0571
  912MOL0    Cl23029  10.634   5.164   3.552 -0.9300  0.4082 -0.0497
  912MOL0     C23030  10.016   5.553   3.992 -0.3460 -1.6950  0.4020
  912MOL0     C23031   9.876   5.584   3.970  0.0610 -0.4436  0.4666
  912MOL0     O23032   9.677   5.807   4.021 -0.0660 -0.0395  0.1576
  912MOL0     C23033   9.381   5.631   4.050 -0.5010  0.0036  0.6848
  912MOL0     C23034   9.245   5.643   4.032 -0.2495  0.4660  0.1534
  912MOL0     N23035   8.538   5.881   3.794 -0.5837 -0.5377 -0.5982
  912MOL0     N23036   8.500   5.910   3.671 -0.4173 -0.9350 -0.8756
  912MOL0     C23037   7.633   5.448   2.651 -0.6355 -0.6841 -0.0308
  912MOL0     C23038   7.510   5.388   2.607 -0.6827  0.1027 -0.0560
  912MOL0     C23039   7.088   5.206   2.659  0.3997 -0.4441 -0.0551
  912MOL0     C23040   6.986   5.145   2.743 -0.4334 -0.7275 -0.5361
  912MOL0     C23041   6.863   5.110   2.699  0.1917 -0.5364 -0.4343
  912MOL0     C23042   6.834   5.119   2.563  0.0658  0.4801  0.1054
  912MOL0     O23043   6.713   5.070   2.533  0.1529  0.3476  0.0580
  912MOL0     C23044   6.676   5.051   2.400  0.4354 -0.2837  0.2037
  912MOL0     C23045   6.525   5.012   2.389 -0.5207  0.4812  0.2341
  912MOL0     C23046   6.435   5.105   2.468  0.3079  0.4380 -0.3399
  912MOL0     C23047   6.292   5.111   2.424 -0.6194 -0.0534  0.1913
  912MOL0     C23048   6.233   4.984   2.387  0.3877 -1.4047 -0.5999
  912MOL0     C23049   6.203   4.872   2.357  0.6139  0.0836  0.4641
  912MOL0     C23050   6.925   5.177   2.479 -0.9165 -0.2479  0.1901
  912MOL0     C23051   7.050   5.219   2.527 -0.4182  0.2550  1.2336
  912MOL0     C23052   7.142   5.291   2.425  0.7148 -0.8177  0.0931
  912MOL0     H23053   7.442   5.206   2.880 -1.7232  0.1079 -2.3713
  912MOL0     H23054   7.657   5.308   2.960 -1.0744  2.7611  1.5721
  912MOL0     H23055   7.773   5.503   3.021  0.2372  2.6694 -0.0350
  912MOL0     H23056   7.888   5.379   2.984  0.3128  0.8363  2.1021
  912MOL0     H23057   7.936   5.678   2.920  0.7412  1.0562  3.5241
  912MOL0     H23058   8.040   5.551   2.880  0.7108 -0.1296  1.3799
  912MOL0     H23059   7.992   5.514   3.162 -4.7108  2.6758  3.0165
  912MOL0     H23060   7.928   5.669   3.144  0.0628 -0.7339  1.0795
  912MOL0     H23061   8.204   5.569   3.089 -1.1073 -1.2735  2.8822
  912MOL0     H23062   8.157   5.727   3.030  1.3646 -1.1660  0.1464
  912MOL0     H23063   8.110   5.783   3.283  0.9665  1.0017 -1.6702
  912MOL0     H23064   8.141   5.606   3.313  3.3445  0.1595  2.5900
  912MOL0     H23065   8.372   5.621   3.257 -1.1440 -1.2877  1.0468
  912MOL0     H23066   8.346   5.794   3.219  1.2059  1.6848  1.6389
  912MOL0     H23067   8.318   5.651   3.493 -2.7443 -0.0993 -0.3947
  912MOL0     H23068   8.258   5.816   3.464  0.1545  1.3849 -0.8945
  912MOL0     H23069   8.542   5.730   3.406  1.1075 -0.2675  2.4719
  912MOL0     H23070   8.491   5.896   3.418 -2.5717  0.9474 -0.2953
  912MOL0     H23071   8.512   5.576   3.664 -1.0048  0.1069  0.6836
  912MOL0     H23072   8.564   5.720   4.013  0.5338  0.2376 -0.3367
  912MOL0     H23073   8.535   5.567   3.931  0.0225 -0.1725 -1.6006
  912MOL0     H23074   8.769   5.552   3.995  3.6474 -0.3403 -1.8267
  912MOL0     H23075   8.777   5.581   3.826  1.0809 -0.4063  1.0210
  912MOL0     H23076   8.805   5.821   4.020  1.3198  0.8933 -0.4767
  912MOL0     H23077   8.831   5.811   3.853  0.1830 -1.7643 -1.4855
  912MOL0     H23078   8.998   5.632   3.894 -0.6631  1.5768 -0.2520
  912MOL0     H23079   8.973   5.647   4.081  3.1424  1.1251  1.2128
  912MOL0     H23080   9.242   5.963   3.930 -0.2803  0.5524  1.2256
  912MOL0     H23081   9.490   5.938   3.950  1.0376 -1.3818 -1.4886
  912MOL0     H23082   9.741   5.469   4.257  1.5374  0.2589  1.9171
  912MOL0     H23083   9.989   5.426   4.305  2.8975 -2.0601 -2.0510
  912MOL0     H23084  10.216   5.473   4.324  0.5855 -0.1896  0.3729
  912MOL0     H23085  10.228   5.317   4.260  0.7698 -0.3067 -1.0428
  912MOL0     H23086  10.430   5.549   4.225 -0.0599 -0.1413 -0.4787
  912MOL0     H23087  10.448   5.413   4.323  0.2214  5.2550  1.9021
  912MOL0     H23088  10.432   5.291   4.098 -0.9004  1.0858  2.9536
  912MOL0     H23089  10.470   5.447   4.014  0.5820 -0.3962  0.5331
  912MOL0     H23090  10.657   5.352   4.232 -2.9950  2.1483  0.6674
  912MOL0     H23091  10.664   5.492   4.127 -2.4163  1.2453  0.9962
  912MOL0     H23092  10.658   5.194   4.061 -0.0075 -0.2322 -2.3788
  912MOL0     H23093  10.806   5.276   4.063  0.6398  1.9986 -1.3263
  912MOL0     H23094  10.583   5.323   3.864 -0.8731 -0.2097  2.4430
  912MOL0     H23095  10.724   5.416   3.864  1.4825  0.1618  2.0870
  912MOL0     H23096  10.695   5.108   3.813 -2.1058  0.0706  0.6211
  912MOL0     H23097  10.856   5.194   3.822 -0.8006  0.0112  1.3697
  912MOL0     H23098  10.752   5.357   3.646  0.9715 -0.7225 -1.9229
  912MOL0     H23099  10.853   5.240   3.605 -1.5912  2.1892 -3.3267
  912MOL0     H23100  10.083   5.593   3.916 -1.0753  1.3894  1.2060
  912MOL0     H23101   9.853   5.633   3.876 -0.3665  0.9658  1.2782
  912MOL0     H23102   9.412   5.539   4.098 -0.9556  0.1369  1.2361
  912MOL0     H23103   9.185   5.554   4.049  0.1047 -0.4174 -2.6428
  912MOL0     H23104   7.695   5.515   2.592  2.0770 -2.0334  1.0886
  912MOL0     H23105   7.475   5.416   2.509 -0.3958 -1.8862 -0.7655
  912MOL0     H23106   7.019   5.142   2.846  1.2807  1.1356 -0.9689
  912MOL0     H23107   6.791   5.087   2.777 -0.0944 -3.2022 -1.3726
  912MOL0     H23108   6.738   4.982   2.342  1.1160  0.7343 -0.3047
  912MOL0     H23109   6.689   5.149   2.353 -0.0135  0.4462  1.5216
  912MOL0     H23110   6.516   4.911   2.432  1.5897  0.8581  1.7400
  912MOL0     H23111   6.498   5.005   2.284 -1.1709 -1.5502  0.4800
  912MOL0     H23112   6.473   5.207   2.459 -0.7366  0.9851  1.1338
  912MOL0     H23113   6.444   5.072   2.572  0.2924  1.4979  0.0132
  912MOL0     H23114   6.235   5.164   2.500 -0.2447 -1.4053  1.4449
  912MOL0     H23115   6.286   5.171   2.332  0.8949 -1.9088 -1.2003
  912MOL0     H23116   6.183   4.775   2.316 -0.8464  1.6122 -2.7395
  912MOL0     H23117   6.919   5.164   2.371  1.2498 -1.3752  0.1376
  912MOL0     H23118   7.192   5.378   2.470  1.4407 -0.8973 -0.5315
  912MOL0     H23119   7.221   5.229   2.381  0.9897 -1.4812  1.4509
  912MOL0     H23120   7.086   5.335   2.342 -0.3917 -0.3529  1.0489
  913MOL0     O23121   1.912   6.546   0.096 -1.0293  0.0823  0.0134
  913MOL0     C23122   1.930   6.594  -0.017  0.0332  0.1807 -0.0865
  913MOL0     O23123   1.832   6.618  -0.115  0.3342 -0.1906 -0.0723
  913MOL0     C23124   1.716   6.557  -0.106  0.4896 -0.3078  0.5653
  913MOL0     C23125   1.674   6.462  -0.013 -0.4769 -0.3480 -0.1008
  913MOL0     C23126   1.551   6.398  -0.036 -0.8949  0.6901 -0.6080
  913MOL0     C23127   1.463   6.426  -0.142  0.8785 -0.2716  0.9393
  913MOL0     O23128   1.336   6.371  -0.146 -0.4638 -0.1746 -0.4347
  913MOL0     C23129   1.252   6.406  -0.253  0.5579  0.1065  0.4784
  913MOL0     C23130   1.126   6.321  -0.249  0.6326 -1.1083  0.1249
  913MOL0     C23131   1.005   6.362  -0.341  0.2056 -0.8029 -0.2090
  913MOL0     C23132   0.882   6.276  -0.331 -1.2704 -0.0403  0.3945
  913MOL0     C23133   0.775   6.327  -0.421  0.2437 -0.2708  0.5391
  913MOL0     C23134   0.654   6.235  -0.409  0.0073  0.9552 -0.1791
  913MOL0     C23135   0.532   6.291  -0.485 -0.3412  0.7287 -0.1647
  913MOL0     C23136   0.453   6.403  -0.422 -0.6731 -0.4079  0.8708
  913MOL0     N23137   0.332   6.452  -0.494 -0.3111  0.9866 -0.4569
  913MOL0     C23138   0.213   6.390  -0.505  0.1344 -0.4087 -0.6050
  913MOL0     C23139   0.151   6.460  -0.600  0.5224  0.1877 -0.5464
  913MOL0     C23140   0.017   6.414  -0.642  0.0767 -0.3197  0.2147
  913MOL0     C23141   0.012   6.280  -0.717  0.2670  0.3603 -0.7420
  913MOL0     C23142   0.064   6.279  -0.854  0.5014  0.3513  0.9573
  913MOL0     C23143   0.054   6.128  -0.922  0.3375  0.3507 -0.4748
  913MOL0     O23144   0.104   6.026  -0.839 -0.2951  0.6774  0.1258
  913MOL0     C23145   0.237   6.036  -0.796  0.6912  0.7335 -0.3787
  913MOL0     C23146   0.257   5.953  -0.690 -0.8553  0.1058  0.3153
  913MOL0     C23147   0.377   5.938  -0.630  0.0020  1.1954  0.4371
  913MOL0     C23148   0.493   5.992  -0.692 -1.1279 -0.5232  0.0468
  913MOL0     C23149   0.624   5.960  -0.634 -0.9839  0.0726 -0.5312
  913MOL0     O23150   0.733   6.029  -0.686  0.4788  0.2827 -0.4316
  913MOL0     C23151   0.866   6.008  -0.649  0.6665  0.0662 -0.2911
  913MOL0     C23152   0.923   5.949  -0.532  0.8641 -0.8872  0.1251
  913MOL0     C23153   1.056   5.960  -0.512  1.2103 -0.0712  0.3183
  913MOL0     C23154   1.143   6.030  -0.587  1.1386  1.0062 -0.5852
  913MOL0     O23155   1.277   6.047  -0.561  0.0037  0.5874  0.1711
  913MOL0     C23156   1.371   6.037  -0.667  0.6384 -0.2239  1.0285
  913MOL0     C23157   1.514   6.005  -0.607 -0.5045  0.5813  0.0587
  913MOL0     C23158   1.618   5.946  -0.705  0.2085  0.3976  0.4365
  913MOL0     C23159   1.663   6.053  -0.794 -0.0032 -0.2727  0.1686
  913MOL0     C23160   1.773   6.010  -0.891 -0.7376 -0.0555  0.3479
  913MOL0     C23161   1.713   6.026  -1.027  0.3086  0.0455  0.9083
  913MOL0     C23162   1.807   5.940  -1.131  0.6246 -0.1150 -0.3214
  913MOL0     C23163   1.761   5.956  -1.280  0.0999 -1.3659 -0.2112
  913MOL0    Cl23164   1.584   5.959  -1.293 -0.1407  0.2140 -0.4252
  913MOL0     C23165   1.090   6.074  -0.710  0.0427 -0.3791 -0.9054
  913MOL0     C23166   0.952   6.057  -0.741 -0.1093 -0.7886 -0.1364
  913MOL0     O23167   0.634   5.884  -0.540 -0.0232 -0.3642  0.2284
  913MOL0     C23168   0.471   6.082  -0.801 -0.0120 -0.0875  0.9111
  913MOL0     C23169   0.346   6.111  -0.853  0.7057 -0.3642  0.9692
  913MOL0     N23170   0.229   6.563  -0.645  0.0797  1.2112 -0.6542
  913MOL0     N23171   0.331   6.561  -0.562  0.4165  0.5595 -0.6668
  913MOL0     C23172   1.510   6.523  -0.228 -0.8961 -0.3364  0.1983
  913MOL0     C23173   1.637   6.586  -0.221  0.0904  0.5626 -0.4175
  913MOL0     C23174   2.070   6.638  -0.034  0.4135  0.7201 -0.0105
  913MOL0     C23175   2.147   6.672   0.082 -0.6314 -0.6947 -0.7396
  913MOL0     C23176   2.269   6.733   0.068  0.0428 -0.9480 -0.5040
  913MOL0     C23177   2.332   6.755  -0.058  0.2852 -0.3582  0.6505
  913MOL0     O23178   2.468   6.781  -0.055  1.5838  0.1677 -0.3778
  913MOL0     C23179   2.540   6.791  -0.181 -0.4895  1.0075  0.3252
  913MOL0     C23180   2.682   6.820  -0.138  0.3594  0.1279  0.2863
  913MOL0     C23181   2.691   6.955  -0.049  0.1041  0.5401  0.3232
  913MOL0     C23182   2.835   6.976  -0.011  1.0111  0.1191 -0.1762
  913MOL0     C23183   2.857   7.085   0.087 -0.5587  0.5243  0.0979
  913MOL0     C23184   2.861   7.174   0.167 -0.3792 -0.4208 -0.2834
  913MOL0     C23185   2.263   6.711  -0.170 -0.1358 -0.1151  0.3448
  913MOL0     C23186   2.132   6.661  -0.163 -0.4876 -0.0080 -1.2522
  913MOL0     C23187   2.064   6.641  -0.300 -0.3430  1.1682  0.0640
  913MOL0     H23188   1.728   6.430   0.076 -1.8853  0.9985  1.3082
  913MOL0     H23189   1.519   6.320   0.032  2.4416  0.3201  0.7508
  913MOL0     H23190   1.229   6.512  -0.247  2.2810  0.6518 -1.3350
  913MOL0     H23191   1.300   6.391  -0.351 -0.3578  0.0045  0.0362
  913MOL0     H23192   1.066   6.320  -0.157 -0.9617  1.2645 -0.7736
  913MOL0     H23193   1.158   6.218  -0.264  0.2944 -1.2802  0.5367
  913MOL0     H23194   1.032   6.372  -0.446 -0.0688 -0.1667 -0.2264
  913MOL0     H23195   0.983   6.464  -0.307 -1.0216 -0.5779 -1.5609
  913MOL0     H23196   0.914   6.174  -0.356  1.7057  0.4481  1.7479
  913MOL0     H23197   0.853   6.274  -0.225 -0.6535 -0.6315  0.5599
  913MOL0     H23198   0.744   6.429  -0.399 -0.8182 -0.2245 -0.9983
  913MOL0     H23199   0.800   6.326  -0.527 -4.1741 -1.0788 -0.6869
  913MOL0     H23200   0.681   6.139  -0.454  0.5933  0.1794  1.7004
  913MOL0     H23201   0.628   6.211  -0.305  2.2816 -2.6069 -0.2503
  913MOL0     H23202   0.467   6.204  -0.497 -0.0562  0.6340 -1.1609
  913MOL0     H23203   0.563   6.320  -0.587 -0.2106  0.9207 -0.0718
  913MOL0     H23204   0.429   6.368  -0.322  0.3689 -2.0004  0.5876
  913MOL0     H23205   0.525   6.486  -0.422 -1.1941  0.0632  0.0370
  913MOL0     H23206   0.187   6.292  -0.465  0.9256 -0.2279  0.3934
  913MOL0     H23207  -0.045   6.396  -0.554 -1.8824  2.0209 -0.5785
  913MOL0     H23208  -0.028   6.491  -0.705 -1.9009 -1.2974  0.3388
  913MOL0     H23209   0.054   6.201  -0.656  2.0382  1.2243 -0.7825
  913MOL0     H23210  -0.095   6.255  -0.721 -0.2985  2.5299 -0.8110
  913MOL0     H23211   0.169   6.309  -0.847  1.0629 -1.2539  0.0091
  913MOL0     H23212   0.014   6.355  -0.914  1.3760 -0.1156 -0.4384
  913MOL0     H23213   0.089   6.115  -1.025  1.6961 -0.7651  0.0936
  913MOL0     H23214  -0.055   6.124  -0.918  0.1612  2.2616 -1.9966
  913MOL0     H23215   0.168   5.899  -0.659 -1.4806 -0.5119 -2.3499
  913MOL0     H23216   0.394   5.862  -0.554 -0.3283  0.9315  0.2490
  913MOL0     H23217   0.854   5.899  -0.464  0.8847  0.2335  0.9982
  913MOL0     H23218   1.082   5.921  -0.414 -2.0027 -1.3089  0.7997
  913MOL0     H23219   1.350   5.963  -0.745  0.2350 -0.4941  1.3848
  913MOL0     H23220   1.373   6.136  -0.711 -0.8762  0.1275  1.6691
  913MOL0     H23221   1.549   6.102  -0.574  1.3750 -0.1912  0.4225
  913MOL0     H23222   1.501   5.936  -0.524 -1.3955  0.7923  0.1125
  913MOL0     H23223   1.697   5.890  -0.654 -0.5976 -0.3070  0.9385
  913MOL0     H23224   1.561   5.872  -0.762 -1.2591 -0.4471  2.8258
  913MOL0     H23225   1.695   6.142  -0.740  2.0395 -0.3384 -0.8313
  913MOL0     H23226   1.578   6.092  -0.852 -0.0061 -0.3656  0.1105
  913MOL0     H23227   1.792   5.903  -0.873 -0.6458  0.2532  2.3032
  913MOL0     H23228   1.863   6.069  -0.869  0.6676 -1.5952 -0.9450
  913MOL0     H23229   1.614   5.979  -1.028 -1.4600  3.4460  1.6568
  913MOL0     H23230   1.698   6.131  -1.051 -1.8061 -0.7507 -1.8209
  913MOL0     H23231   1.808   5.833  -1.108 -2.9455 -0.5155 -1.4511
  913MOL0     H23232   1.906   5.983  -1.114 -0.2812  2.7338 -1.6516
  913MOL0     H23233   1.792   6.056  -1.311 -0.2083 -2.0467 -2.9677
  913MOL0     H23234   1.787   5.872  -1.345  1.9808 -0.3923 -0.7813
  913MOL0     H23235   1.152   6.131  -0.778 -0.0920 -0.4938 -1.1291
  913MOL0     H23236   0.919   6.108  -0.831  3.6332  0.4372 -1.0130
  913MOL0     H23237   0.555   6.135  -0.845  0.3726 -0.4464  1.2030
  913MOL0     H23238   0.322   6.179  -0.934 -1.0154 -2.1570 -0.1027
  913MOL0     H23239   1.458   6.571  -0.311  2.3040  0.7008 -1.3859
  913MOL0     H23240   1.667   6.654  -0.300 -0.2163  0.3350 -0.7356
  913MOL0     H23241   2.111   6.651   0.183  1.9710  0.1384  0.4379
  913MOL0     H23242   2.318   6.759   0.161 -1.4691  0.4612 -0.0297
  913MOL0     H23243   2.522   6.868  -0.256  0.7018  1.9013  0.9280
  913MOL0     H23244   2.537   6.691  -0.225  0.2613  0.3816  1.6285
  913MOL0     H23245   2.730   6.832  -0.235 -3.9769  0.1119 -2.1308
  913MOL0     H23246   2.713   6.725  -0.094 -2.5264 -0.2706  1.7320
  913MOL0     H23247   2.640   6.948   0.047  1.9684 -1.7389  1.2592
  913MOL0     H23248   2.649   7.036  -0.109  0.5956  0.7842  0.3022
  913MOL0     H23249   2.874   6.882   0.031 -2.1192 -2.9587 -3.4493
  913MOL0     H23250   2.893   6.990  -0.103 -1.0743 -0.4596 -1.6398
  913MOL0     H23251   2.850   7.261   0.229  0.7029 -1.0181  0.7991
  913MOL0     H23252   2.320   6.712  -0.263 -1.1933  2.0745 -0.3526
  913MOL0     H23253   2.127   6.641  -0.390 -1.7589 -0.4012 -1.0012
  913MOL0     H23254   2.017   6.542  -0.290  1.1280  0.6107  2.2253
  913MOL0     H23255   1.996   6.726  -0.311 -2.0238  0.1142  1.6261
  914MOL0     O23256  10.349   9.803   0.929  0.6088  0.1035  0.0261
  914MOL0     C23257  10.368   9.896   0.851 -0.0511  0.3564 -0.3960
  914MOL0     O23258  10.500   9.929   0.800 -0.0603 -0.2258  0.2014
  914MOL0     C23259  10.624   9.882   0.854 -0.0207 -0.6095 -0.3115
  914MOL0     C23260  10.730   9.878   0.763 -0.0188  0.1391 -0.5586
  914MOL0     C23261  10.858   9.838   0.804  0.1398  0.1630 -0.0516
  914MOL0     C23262  10.879   9.798   0.934 -0.2227  0.1567 -0.1903
  914MOL0     O23263  11.001   9.751   0.983 -0.1844  0.1136  0.2816
  914MOL0     C23264  11.108   9.757   0.900 -0.3386  0.6253  0.3539
  914MOL0     C23265  11.234   9.751   0.980 -0.5007  0.6827 -0.5215
  914MOL0     C23266  11.285   9.604   1.014  0.9165  0.1978 -0.2962
  914MOL0     C23267  11.391   9.594   1.124 -0.1691 -0.4198 -0.4890
  914MOL0     C23268  11.337   9.628   1.269 -0.5668 -0.0122 -0.1343
  914MOL0     C23269  11.204   9.557   1.308 -0.0778  0.6175  0.0982
  914MOL0     C23270  11.210   9.397   1.307 -0.6354 -0.7698 -0.2419
  914MOL0     C23271  11.080   9.339   1.370 -0.2464 -0.3310  0.6741
  914MOL0     N23272  11.074   9.360   1.515 -0.1900 -0.4855 -0.2795
  914MOL0     C23273  10.995   9.455   1.575  0.1295  0.3399  0.1012
  914MOL0     C23274  11.021   9.436   1.709 -0.5419 -0.8092 -1.1169
  914MOL0     C23275  10.931   9.510   1.809  0.5840 -0.5350 -0.5852
  914MOL0     C23276  11.010   9.599   1.910  0.5208  0.2985  1.0116
  914MOL0     C23277  10.979   9.742   1.932 -0.5256 -0.3120 -0.2847
  914MOL0     C23278  11.009   9.833   1.806 -0.5064  0.3429  0.6092
  914MOL0     O23279  11.144   9.815   1.768 -0.4243  0.1025  0.8899
  914MOL0     C23280  11.190   9.862   1.650  0.4524 -0.4567 -0.4973
  914MOL0     C23281  11.120   9.915   1.543  0.7995  0.4575  0.2311
  914MOL0     C23282  11.185   9.954   1.432 -0.1980 -0.5414  0.4968
  914MOL0     C23283  11.327   9.946   1.418 -0.1747  0.5557  0.0178
  914MOL0     C23284  11.395   9.997   1.299  0.7513  0.2311  0.8642
  914MOL0     O23285  11.507   9.937   1.280 -0.4505  0.5349 -0.4382
  914MOL0     C23286  11.601   9.994   1.199 -0.1403  0.0245 -0.9723
  914MOL0     C23287  11.687  10.089   1.246  0.2222 -0.0534  0.3038
  914MOL0     C23288  11.791  10.142   1.162 -0.0020  0.5609 -0.0775
  914MOL0     C23289  11.802  10.086   1.030  0.7872 -0.4682 -0.4489
  914MOL0     O23290  11.889  10.138   0.923  0.1840  0.1919 -0.2146
  914MOL0     C23291  11.983  10.236   0.962 -0.8355 -0.2314  0.8256
  914MOL0     C23292  12.069  10.262   0.837  0.1862  0.3589  0.3353
  914MOL0     C23293  12.188  10.353   0.871 -0.9316  0.1065 -0.9899
  914MOL0     C23294  12.274  10.367   0.750 -0.0500  0.2603  0.0310
  914MOL0     C23295  12.418  10.409   0.795  0.4017 -0.1566 -0.2787
  914MOL0     C23296  12.520  10.403   0.677 -0.8564 -0.6689  0.4991
  914MOL0     C23297  12.456  10.476   0.559 -0.0566 -0.6008 -0.4127
  914MOL0     C23298  12.557  10.482   0.436 -0.3487 -0.4742  0.4318
  914MOL0    Cl23299  12.600  10.328   0.366  0.2582 -0.2050 -0.0011
  914MOL0     C23300  11.705   9.991   0.984 -0.3315  0.3849 -1.1170
  914MOL0     C23301  11.610   9.946   1.067  1.4599 -0.5617 -0.3230
  914MOL0     O23302  11.360  10.100   1.235  0.2246  0.3115  0.1051
  914MOL0     C23303  11.398   9.899   1.528  0.6003 -0.0811  0.6070
  914MOL0     C23304  11.330   9.855   1.639  0.7949 -0.9035  0.0993
  914MOL0     N23305  11.113   9.344   1.732  0.1242 -0.0876  0.2504
  914MOL0     N23306  11.146   9.291   1.612 -0.0217  0.4982 -0.3675
  914MOL0     C23307  10.771   9.805   1.024 -1.1200 -1.0592 -0.1614
  914MOL0     C23308  10.637   9.841   0.982 -0.2137 -1.0536 -1.4827
  914MOL0     C23309  10.245   9.960   0.798  0.1387 -0.6933 -0.1339
  914MOL0     C23310  10.146   9.877   0.742  0.3596 -0.0004  0.3002
  914MOL0     C23311  10.039   9.930   0.677  0.8033 -0.3348  0.4736
  914MOL0     C23312  10.025  10.070   0.650 -0.1031  0.8153 -0.5214
  914MOL0     O23313   9.919  10.126   0.581 -0.1471  0.7138 -0.0551
  914MOL0     C23314   9.910  10.075   0.444  0.2319  0.0335  0.1620
  914MOL0     C23315   9.813  10.157   0.354  0.1681 -0.7151 -0.2574
  914MOL0     C23316   9.685  10.084   0.314 -0.1923 -0.5002  0.3519
  914MOL0     C23317   9.584  10.169   0.252  0.2098  0.4399 -0.3182
  914MOL0     C23318   9.542  10.278   0.338  0.6698  0.4297 -0.3819
  914MOL0     C23319   9.502  10.364   0.415 -0.5741 -0.4382  0.8995
  914MOL0     C23320  10.124  10.157   0.704  0.0033  0.7480 -0.2580
  914MOL0     C23321  10.231  10.105   0.779 -0.1091  0.3558 -0.0955
  914MOL0     C23322  10.326  10.205   0.845  0.7974  0.0275 -0.0460
  914MOL0     H23323  10.707   9.914   0.663 -0.2169 -1.8929 -1.2982
  914MOL0     H23324  10.944   9.837   0.737  1.8146  0.6195  2.0073
  914MOL0     H23325  11.110   9.692   0.812 -0.6155  2.2504 -0.8947
  914MOL0     H23326  11.123   9.860   0.866  2.0307  0.7485  1.5221
  914MOL0     H23327  11.206   9.805   1.071 -0.7290 -4.1500  2.5997
  914MOL0     H23328  11.310   9.808   0.925  3.7570 -2.6664  1.3652
  914MOL0     H23329  11.325   9.559   0.922  0.6569  0.4284 -0.5252
  914MOL0     H23330  11.201   9.548   1.055  2.1721 -0.2912  1.7334
  914MOL0     H23331  11.439   9.496   1.112 -1.1127 -1.2143  1.6567
  914MOL0     H23332  11.472   9.665   1.109 -1.5982  1.7683  1.4792
  914MOL0     H23333  11.409   9.600   1.347  0.8034 -3.4266 -2.3643
  914MOL0     H23334  11.319   9.736   1.268 -0.6611  0.0538 -3.5038
  914MOL0     H23335  11.178   9.588   1.410  0.9037 -0.3277  0.6585
  914MOL0     H23336  11.124   9.592   1.242  1.3938  0.5469 -1.8150
  914MOL0     H23337  11.306   9.361   1.346 -0.7899  0.1824  1.0797
  914MOL0     H23338  11.218   9.374   1.201  1.8592  0.1266 -0.2981
  914MOL0     H23339  10.992   9.375   1.316 -1.3757 -0.5697  2.2755
  914MOL0     H23340  11.069   9.231   1.360 -2.0734 -0.4898  3.4186
  914MOL0     H23341  10.922   9.524   1.535  1.8413  2.9437  1.1489
  914MOL0     H23342  10.869   9.588   1.764 -1.2986 -1.1454  0.8468
  914MOL0     H23343  10.865   9.440   1.861 -0.5710  0.7934 -0.2095
  914MOL0     H23344  11.012   9.559   2.012  2.4708 -0.9178  0.5479
  914MOL0     H23345  11.113   9.582   1.878  0.1762 -0.8683  0.4838
  914MOL0     H23346  11.026   9.783   2.022 -1.1856 -1.9766  0.8546
  914MOL0     H23347  10.871   9.745   1.950 -0.9293 -0.5291 -2.3596
  914MOL0     H23348  10.988   9.936   1.838  0.6063  0.0672  2.3759
  914MOL0     H23349  10.944   9.802   1.724 -0.1234 -0.9082  0.7589
  914MOL0     H23350  11.013   9.927   1.528  0.8050  0.0303 -0.1856
  914MOL0     H23351  11.128   9.993   1.349  1.1035 -0.2394 -0.2823
  914MOL0     H23352  11.672  10.120   1.349 -0.3440  2.7004 -0.5045
  914MOL0     H23353  11.879  10.189   1.204  0.2233 -0.3638  0.5174
  914MOL0     H23354  11.940  10.333   0.988 -0.9682  0.4491 -1.6640
  914MOL0     H23355  12.056  10.208   1.037 -1.4792 -1.2576  1.0984
  914MOL0     H23356  12.100  10.167   0.795 -2.9585 -0.1297 -1.1381
  914MOL0     H23357  12.013  10.323   0.765  0.0219 -0.2887 -0.0929
  914MOL0     H23358  12.175  10.456   0.904  0.3555  0.0493 -0.2582
  914MOL0     H23359  12.236  10.306   0.957  0.0413  0.6666 -1.2210
  914MOL0     H23360  12.230  10.445   0.687  0.9377  1.9731  1.3575
  914MOL0     H23361  12.284  10.273   0.695  1.1428 -1.6016  3.1400
  914MOL0     H23362  12.452  10.357   0.885 -1.3288  1.8246  1.6283
  914MOL0     H23363  12.415  10.517   0.816  0.7315  0.3690 -2.6574
  914MOL0     H23364  12.619  10.446   0.689 -1.4520  1.3011 -1.1760
  914MOL0     H23365  12.542  10.298   0.656  1.0361 -0.2467  0.1853
  914MOL0     H23366  12.427  10.579   0.583 -0.2382  0.0269 -3.0556
  914MOL0     H23367  12.370  10.420   0.522 -1.7086 -0.0035  2.2134
  914MOL0     H23368  12.506  10.543   0.361  0.4386  0.3536  0.5496
  914MOL0     H23369  12.647  10.539   0.464 -0.6088 -1.3085  3.2623
  914MOL0     H23370  11.716   9.945   0.887 -0.9653 -2.0477 -0.0915
  914MOL0     H23371  11.536   9.871   1.040  1.5120 -0.8072  0.2020
  914MOL0     H23372  11.505   9.884   1.531  1.0817  1.7469 -2.8343
  914MOL0     H23373  11.380   9.806   1.722 -0.8303 -0.0175  1.6570
  914MOL0     H23374  10.780   9.770   1.127  0.4665  1.8118  0.7926
  914MOL0     H23375  10.551   9.825   1.046 -0.6895  1.5644 -1.3814
  914MOL0     H23376  10.148   9.771   0.762  0.7189  0.2115  1.5150
  914MOL0     H23377   9.956   9.868   0.645  0.4268  1.0406 -1.4348
  914MOL0     H23378   9.887   9.969   0.455  2.5812 -0.5247  0.1055
  914MOL0     H23379  10.010  10.086   0.402 -0.0713  0.3898 -0.4879
  914MOL0     H23380   9.863  10.169   0.257 -0.2307 -1.8906 -0.6213
  914MOL0     H23381   9.786  10.252   0.402 -3.3334 -2.6151  1.8781
  914MOL0     H23382   9.645  10.050   0.410  0.3269  1.7735  1.4543
  914MOL0     H23383   9.705  10.006   0.241  0.1331 -0.6272  0.5765
  914MOL0     H23384   9.644  10.206   0.169  2.3668  0.6804  1.2664
  914MOL0     H23385   9.493  10.120   0.214  0.7101  0.9138 -2.2062
  914MOL0     H23386   9.454  10.424   0.489 -1.0269 -3.9746  3.7592
  914MOL0     H23387  10.122  10.265   0.701  1.1777  0.7579 -2.0603
  914MOL0     H23388  10.372  10.156   0.931 -1.9459 -2.5250  0.1508
  914MOL0     H23389  10.409  10.233   0.779  1.3561  2.3103  1.5118
  914MOL0     H23390  10.274  10.292   0.885 -0.8983 -1.4281  1.0943
  915MOL0     O23391   0.799   8.789   3.402  0.0032 -0.3129  0.3999
  915MOL0     C23392   0.682   8.825   3.405 -0.1978 -0.2287  0.6458
  915MOL0     O23393   0.643   8.952   3.427 -0.0687  0.2151  0.7007
  915MOL0     C23394   0.748   9.038   3.437 -1.4403  0.8270  0.4715
  915MOL0     C23395   0.797   9.065   3.561 -0.3441 -1.0350  0.8408
  915MOL0     C23396   0.895   9.161   3.591 -0.5298 -0.0919  0.2627
  915MOL0     C23397   0.945   9.236   3.489  0.3761  0.3357  0.7955
  915MOL0     O23398   1.022   9.343   3.501 -0.8425 -0.0588 -0.0660
  915MOL0     C23399   1.092   9.368   3.627  0.3180  0.0488 -0.3642
  915MOL0     C23400   1.182   9.480   3.598 -0.0187 -0.4738 -0.5325
  915MOL0     C23401   1.295   9.490   3.697 -0.6706 -1.0784  0.0923
  915MOL0     C23402   1.397   9.594   3.652 -0.7531  0.5987  0.1202
  915MOL0     C23403   1.529   9.542   3.582  0.0154 -0.7132 -0.3004
  915MOL0     C23404   1.503   9.430   3.478 -0.6399  0.5612 -0.0264
  915MOL0     C23405   1.608   9.411   3.377  0.0215 -0.1940 -0.1274
  915MOL0     C23406   1.734   9.355   3.437  0.3068  1.1727 -0.3979
  915MOL0     N23407   1.847   9.341   3.344  0.0084 -0.7326  0.7356
  915MOL0     C23408   1.891   9.228   3.282 -0.6610  0.4337 -0.0592
  915MOL0     C23409   2.001   9.263   3.209 -1.3260  0.7412  0.4928
  915MOL0     C23410   2.092   9.166   3.132  0.1232 -0.4823  0.2990
  915MOL0     C23411   2.197   9.237   3.050 -0.9197 -0.1340 -0.4639
  915MOL0     C23412   2.315   9.140   3.021 -0.0820  0.0370 -0.0164
  915MOL0     C23413   2.433   9.197   2.937 -0.2791 -0.0357 -0.3506
  915MOL0     O23414   2.538   9.092   2.932  0.6604 -0.1489 -0.6813
  915MOL0     C23415   2.648   9.097   2.859  0.3062 -0.1837  0.3168
  915MOL0     C23416   2.682   9.201   2.763 -0.0594 -0.8916 -0.2454
  915MOL0     C23417   2.802   9.193   2.696 -0.0277 -0.8535 -0.1686
  915MOL0     C23418   2.904   9.121   2.746 -0.1948  0.3544 -0.0954
  915MOL0     C23419   3.047   9.163   2.707  1.0657 -0.1717 -0.3884
  915MOL0     O23420   3.143   9.090   2.777 -0.5075  0.0036  0.1387
  915MOL0     C23421   3.276   9.108   2.760 -0.5381  1.3457  0.2670
  915MOL0     C23422   3.348   9.145   2.648 -0.0606  0.7810  0.2260
  915MOL0     C23423   3.482   9.144   2.646  0.6615 -0.1867 -0.0997
  915MOL0     C23424   3.564   9.115   2.758 -1.2089 -0.6405 -0.2778
  915MOL0     O23425   3.704   9.090   2.752  0.3749 -0.2875 -0.0140
  915MOL0     C23426   3.776   9.131   2.638 -0.7163  0.2720  0.8966
  915MOL0     C23427   3.777   9.033   2.526 -0.0834  0.3497 -0.0227
  915MOL0     C23428   3.919   9.010   2.481 -0.2562 -0.1596 -0.6958
  915MOL0     C23429   3.983   9.123   2.398  0.9098  0.4913 -0.3790
  915MOL0     C23430   4.125   9.075   2.338  0.8178 -0.1018 -0.1545
  915MOL0     C23431   4.174   9.181   2.240 -0.1480  0.6586 -0.4867
  915MOL0     C23432   4.233   9.305   2.300  0.2847 -0.3939 -0.3000
  915MOL0     C23433   4.279   9.396   2.186 -0.0023  0.1887 -0.2557
  915MOL0    Cl23434   4.324   9.561   2.242  0.0195 -0.0063  0.1758
  915MOL0     C23435   3.490   9.083   2.879 -0.9340  1.6651 -0.3272
  915MOL0     C23436   3.348   9.069   2.872 -0.5800  0.0327 -0.6779
  915MOL0     O23437   3.065   9.264   2.637 -0.2906 -0.2353 -0.5588
  915MOL0     C23438   2.882   9.023   2.844 -0.0487  0.3199  0.0367
  915MOL0     C23439   2.755   9.006   2.896  0.2140 -1.0028 -0.6841
  915MOL0     N23440   2.030   9.397   3.248  0.2132 -0.1798 -0.1683
  915MOL0     N23441   1.924   9.445   3.306 -0.8346 -0.1821 -0.1729
  915MOL0     C23442   0.901   9.202   3.357 -0.5947  1.1008  0.0309
  915MOL0     C23443   0.807   9.102   3.329  0.5838 -0.1301  0.6858
  915MOL0     C23444   0.569   8.722   3.378  0.0607 -0.4489  0.4918
  915MOL0     C23445   0.440   8.763   3.421  0.6723 -0.2826  0.3524
  915MOL0     C23446   0.331   8.681   3.409  0.5205 -0.2642  0.2876
  915MOL0     C23447   0.346   8.560   3.354  0.2271  0.2082 -1.0172
  915MOL0     O23448   0.230   8.481   3.350  0.6351  0.1487 -0.1730
  915MOL0     C23449   0.193   8.414   3.226  0.7181 -0.8960  0.5043
  915MOL0     C23450   0.098   8.519   3.143  0.7918  0.0737  0.4091
  915MOL0     C23451  -0.009   8.589   3.225  0.5579  0.5271  0.1047
  915MOL0     C23452  -0.109   8.497   3.296 -0.8714 -0.4033  0.0646
  915MOL0     C23453  -0.212   8.443   3.199 -0.1409  0.1424 -0.5527
  915MOL0     C23454  -0.296   8.419   3.122 -0.4341 -0.4140  0.4625
  915MOL0     C23455   0.468   8.510   3.317 -0.1444 -0.2462  0.0781
  915MOL0     C23456   0.584   8.590   3.329  0.1492  1.0428 -0.6274
  915MOL0     C23457   0.710   8.549   3.263  0.1099  0.3376 -0.2170
  915MOL0     H23458   0.761   9.005   3.644  1.7756  0.0039  2.6122
  915MOL0     H23459   0.906   9.185   3.696 -1.8701  1.8049  0.0228
  915MOL0     H23460   1.032   9.382   3.717  1.8386 -2.4494  1.1435
  915MOL0     H23461   1.157   9.280   3.636  0.3014  0.0617 -0.1138
  915MOL0     H23462   1.136   9.579   3.593  3.3388  1.2491  0.1005
  915MOL0     H23463   1.221   9.465   3.497  1.2715 -2.0363  0.1603
  915MOL0     H23464   1.340   9.390   3.706 -1.2868 -1.2146  1.9106
  915MOL0     H23465   1.245   9.511   3.791  0.5468  3.1943 -0.0146
  915MOL0     H23466   1.348   9.662   3.583 -1.7050 -0.6339 -0.4515
  915MOL0     H23467   1.430   9.659   3.734  1.8495  1.1505 -1.2335
  915MOL0     H23468   1.569   9.634   3.539  1.6704 -1.0773  0.3792
  915MOL0     H23469   1.605   9.514   3.656  0.7536  1.7203 -0.0462
  915MOL0     H23470   1.496   9.338   3.537  0.0701  1.7056  1.9245
  915MOL0     H23471   1.408   9.453   3.429 -1.0188 -0.6962  0.0953
  915MOL0     H23472   1.636   9.508   3.334  3.0082  0.5717  3.1038
  915MOL0     H23473   1.581   9.352   3.289  1.9220 -1.3508 -0.0018
  915MOL0     H23474   1.766   9.416   3.523  1.5610 -0.5467  0.4142
  915MOL0     H23475   1.721   9.256   3.481 -0.4601  2.0041  1.3468
  915MOL0     H23476   1.840   9.133   3.282  1.0543 -0.5375  0.1877
  915MOL0     H23477   2.137   9.104   3.211 -5.1694 -2.2065  2.3809
  915MOL0     H23478   2.030   9.103   3.068  1.8873 -0.8712 -1.1204
  915MOL0     H23479   2.158   9.274   2.955 -0.3176  1.4747 -0.1156
  915MOL0     H23480   2.239   9.314   3.115 -1.9944 -1.1783  1.5690
  915MOL0     H23481   2.290   9.041   2.980  1.5877 -1.1213  1.5820
  915MOL0     H23482   2.359   9.110   3.116 -1.2633  1.8752  1.1725
  915MOL0     H23483   2.474   9.287   2.984 -1.7507  0.7645 -0.5403
  915MOL0     H23484   2.397   9.223   2.837 -0.9291 -4.0233 -1.3405
  915MOL0     H23485   2.608   9.278   2.741 -0.2058 -1.5079 -2.0884
  915MOL0     H23486   2.816   9.260   2.611 -0.6612 -0.2863  0.1645
  915MOL0     H23487   3.310   9.165   2.548  3.3896  0.2660 -1.3531
  915MOL0     H23488   3.522   9.160   2.547  1.5203 -0.9968  0.1054
  915MOL0     H23489   3.735   9.222   2.593  0.7620  1.1215  1.2283
  915MOL0     H23490   3.877   9.154   2.672 -0.0737 -3.1861  1.7147
  915MOL0     H23491   3.731   8.941   2.566 -4.5675  2.1374 -0.4463
  915MOL0     H23492   3.722   9.070   2.438  1.1513 -0.8511 -1.3707
  915MOL0     H23493   3.993   8.984   2.558 -0.1584  1.4432 -0.2025
  915MOL0     H23494   3.910   8.927   2.411  0.4182 -0.8004 -0.0400
  915MOL0     H23495   4.000   9.208   2.465 -2.6981  2.4765 -1.7071
  915MOL0     H23496   3.917   9.142   2.313  0.1606 -0.6827 -0.0848
  915MOL0     H23497   4.098   8.979   2.294  2.8851 -1.5080  1.4286
  915MOL0     H23498   4.200   9.050   2.414  1.0395 -0.1465 -0.3864
  915MOL0     H23499   4.246   9.144   2.167 -2.8719 -0.6149 -2.7391
  915MOL0     H23500   4.093   9.217   2.175 -3.4679  2.0561  3.9480
  915MOL0     H23501   4.324   9.279   2.355  0.8293  1.3775 -0.2841
  915MOL0     H23502   4.161   9.356   2.364 -1.2952 -3.2038  0.3005
  915MOL0     H23503   4.364   9.357   2.130 -0.4450  0.7443 -1.3413
  915MOL0     H23504   4.205   9.387   2.106  2.4374  1.5920 -2.8507
  915MOL0     H23505   3.549   9.054   2.966  0.8036 -3.7167 -2.8495
  915MOL0     H23506   3.291   9.030   2.956 -0.1745  3.3045  1.2817
  915MOL0     H23507   2.961   8.960   2.885 -0.0436  0.4398  0.2103
  915MOL0     H23508   2.747   8.939   2.981 -0.0859 -0.1374 -0.0235
  915MOL0     H23509   0.935   9.273   3.281 -0.3644  3.5214  2.2656
  915MOL0     H23510   0.773   9.082   3.228 -0.1805  1.0330  0.6910
  915MOL0     H23511   0.419   8.860   3.467  0.0604 -0.1162 -0.2537
  915MOL0     H23512   0.229   8.713   3.429  1.1800  1.6384  0.7530
  915MOL0     H23513   0.128   8.329   3.249 -0.2183  0.1399  1.8875
  915MOL0     H23514   0.279   8.376   3.171  1.1125  0.6670 -0.0264
  915MOL0     H23515   0.039   8.460   3.073  0.0259  0.4799  0.7030
  915MOL0     H23516   0.168   8.589   3.096  2.8857 -2.1728 -0.0442
  915MOL0     H23517  -0.061   8.666   3.167 -0.7639 -0.8694 -0.6544
  915MOL0     H23518   0.039   8.645   3.305  0.7699  1.2461 -0.5139
  915MOL0     H23519  -0.059   8.419   3.355 -2.7216 -2.2598 -0.6767
  915MOL0     H23520  -0.168   8.549   3.372 -0.4172  0.5623 -0.2280
  915MOL0     H23521  -0.380   8.398   3.060 -0.2251  0.4794 -0.1345
  915MOL0     H23522   0.467   8.418   3.259 -5.3335 -1.3433  1.3461
  915MOL0     H23523   0.778   8.513   3.341 -1.5098 -0.8111  0.7317
  915MOL0     H23524   0.699   8.468   3.191  1.4997 -1.0857  1.0887
  915MOL0     H23525   0.749   8.639   3.214 -1.4986  0.7684 -0.7597
  916MOL0     O23526   1.033   7.606   7.494  0.1858  0.0303 -0.3699
  916MOL0     C23527   0.992   7.507   7.435 -0.4438  1.2065  0.6097
  916MOL0     O23528   1.067   7.420   7.363 -0.0570 -0.2089 -0.8146
  916MOL0     C23529   1.198   7.453   7.335  0.0028  0.2314  0.3443
  916MOL0     C23530   1.234   7.497   7.207 -0.5008  0.3574  0.1245
  916MOL0     C23531   1.371   7.535   7.176  0.1046  0.3922 -0.6633
  916MOL0     C23532   1.468   7.528   7.279  0.4111  0.3612 -0.3673
  916MOL0     O23533   1.591   7.584   7.250 -0.5720 -0.0905 -0.9743
  916MOL0     C23534   1.705   7.547   7.325  0.0725 -0.0403 -0.0914
  916MOL0     C23535   1.828   7.590   7.247  0.2643 -0.2444 -0.2318
  916MOL0     C23536   1.810   7.537   7.100 -0.4906  0.0144  0.4790
  916MOL0     C23537   1.814   7.387   7.080  0.6944 -0.7204 -0.1806
  916MOL0     C23538   1.810   7.348   6.942 -0.2074  0.8064  0.2055
  916MOL0     C23539   1.855   7.197   6.932 -1.1563  1.2386 -0.4880
  916MOL0     C23540   2.006   7.177   6.949 -0.0388 -0.4246  0.2601
  916MOL0     C23541   2.057   7.056   6.869 -0.8502 -0.0303  0.2542
  916MOL0     N23542   2.205   7.037   6.878  0.2197  0.2813  0.1734
  916MOL0     C23543   2.272   6.922   6.913 -0.1854  0.3450 -0.8879
  916MOL0     C23544   2.404   6.942   6.887 -0.1985 -0.0207 -0.6812
  916MOL0     C23545   2.531   6.850   6.926  0.9271  0.2201 -0.3742
  916MOL0     C23546   2.628   6.831   6.808 -0.0757 -0.8103 -0.1392
  916MOL0     C23547   2.740   6.748   6.846 -0.1342 -0.1881 -0.4417
  916MOL0     C23548   2.860   6.754   6.750  0.3744  0.2639  0.3773
  916MOL0     O23549   2.939   6.640   6.756  0.4541  0.6605 -0.3768
  916MOL0     C23550   3.059   6.622   6.690 -0.3561  0.1714 -0.1719
  916MOL0     C23551   3.155   6.526   6.721  0.0520 -0.7650  0.8953
  916MOL0     C23552   3.272   6.510   6.643  0.3625 -0.5479  0.0154
  916MOL0     C23553   3.304   6.596   6.531 -0.3594 -0.6113 -0.5282
  916MOL0     C23554   3.424   6.568   6.438 -0.0036  0.2829  0.0563
  916MOL0     O23555   3.428   6.646   6.325  0.3801  0.1300 -0.4835
  916MOL0     C23556   3.539   6.623   6.248  0.2972 -0.7440 -0.5621
  916MOL0     C23557   3.665   6.658   6.279 -0.8067 -0.3573 -0.3156
  916MOL0     C23558   3.777   6.627   6.195 -0.3975  0.4237 -0.7269
  916MOL0     C23559   3.754   6.565   6.071  0.1992  0.8468  0.4312
  916MOL0     O23560   3.852   6.552   5.975  0.4553 -0.2087 -0.0638
  916MOL0     C23561   3.987   6.514   6.012  0.1702  0.2610  0.5252
  916MOL0     C23562   4.072   6.496   5.881 -0.4870  0.6773 -0.2161
  916MOL0     C23563   4.225   6.497   5.913  0.4193 -0.3186 -0.4787
  916MOL0     C23564   4.326   6.486   5.797 -0.2362  0.5738  0.5896
  916MOL0     C23565   4.462   6.475   5.862  0.1992 -0.8110 -0.3196
  916MOL0     C23566   4.583   6.434   5.767  0.8293 -0.3127 -0.7797
  916MOL0     C23567   4.706   6.463   5.829  0.0914  0.6155 -0.0853
  916MOL0     C23568   4.820   6.433   5.729 -0.3284  0.1151 -0.0236
  916MOL0    Cl23569   4.967   6.469   5.823 -0.2063  0.1032  0.1195
  916MOL0     C23570   3.622   6.523   6.042 -0.2467  0.1874  0.5781
  916MOL0     C23571   3.521   6.553   6.128  0.6635  0.2841  0.1876
  916MOL0     O23572   3.495   6.470   6.464 -0.2114  0.5011  0.0900
  916MOL0     C23573   3.208   6.697   6.500 -0.4542  0.5577 -0.2558
  916MOL0     C23574   3.092   6.711   6.583  0.2513  0.7947 -0.1491
  916MOL0     N23575   2.416   7.065   6.833 -0.0271  0.0375  0.6744
  916MOL0     N23576   2.305   7.128   6.844  0.8504  0.1007 -0.2139
  916MOL0     C23577   1.431   7.484   7.411 -0.5502  0.2064  0.2556
  916MOL0     C23578   1.299   7.451   7.434 -0.4445 -0.1057  0.5413
  916MOL0     C23579   0.847   7.465   7.433  0.0856 -0.1308  0.1858
  916MOL0     C23580   0.798   7.375   7.342  0.0911  0.6578  0.4332
  916MOL0     C23581   0.672   7.329   7.327 -0.3219  0.4076 -0.7121
  916MOL0     C23582   0.571   7.379   7.410 -0.3610  0.2041  0.3156
  916MOL0     O23583   0.452   7.326   7.405 -0.1627 -0.4821 -0.6526
  916MOL0     C23584   0.348   7.366   7.493 -0.0693  0.1037 -0.2459
  916MOL0     C23585   0.352   7.292   7.621  0.3563  0.1918  0.3309
  916MOL0     C23586   0.295   7.150   7.615 -0.2190  0.1269 -0.0744
  916MOL0     C23587   0.145   7.154   7.645 -0.6179  0.6967  0.7540
  916MOL0     C23588   0.100   7.012   7.650  0.2893 -0.4844  0.8827
  916MOL0     C23589   0.035   6.908   7.637  0.1266  0.6154  0.2645
  916MOL0     C23590   0.611   7.484   7.495  0.3974  0.0863  0.2708
  916MOL0     C23591   0.746   7.512   7.527 -0.0713 -0.3852  0.8825
  916MOL0     C23592   0.778   7.596   7.648 -0.9253 -0.0896 -0.6442
  916MOL0     H23593   1.157   7.496   7.131  0.9442  0.5699 -1.4019
  916MOL0     H23594   1.401   7.573   7.079  2.4027 -0.5906 -0.4064
  916MOL0     H23595   1.699   7.600   7.420 -3.2443  1.3338 -0.8925
  916MOL0     H23596   1.713   7.438   7.329  1.6607  0.0158 -0.8797
  916MOL0     H23597   1.917   7.548   7.294 -0.4293 -0.1179  1.2468
  916MOL0     H23598   1.835   7.699   7.253  0.3680 -0.3038  1.0950
  916MOL0     H23599   1.888   7.583   7.038  1.0026 -0.4235  1.9632
  916MOL0     H23600   1.715   7.573   7.060 -0.4953  0.0498  0.5221
  916MOL0     H23601   1.905   7.350   7.129  0.9603 -0.3556 -0.3965
  916MOL0     H23602   1.728   7.340   7.128  0.1484 -1.5609 -1.8781
  916MOL0     H23603   1.705   7.347   6.913  0.3010 -2.0434 -1.9816
  916MOL0     H23604   1.868   7.412   6.875 -1.5400  0.7880 -0.9992
  916MOL0     H23605   1.813   7.123   7.000 -0.7743  0.1253 -1.4279
  916MOL0     H23606   1.819   7.179   6.830 -0.0210  1.7437 -1.0051
  916MOL0     H23607   2.018   7.167   7.057 -0.5863 -0.8058  0.2911
  916MOL0     H23608   2.047   7.269   6.908 -2.2451  0.8488  0.7356
  916MOL0     H23609   2.014   6.963   6.906 -0.7322 -0.4042 -0.5271
  916MOL0     H23610   2.032   7.079   6.764  1.6514  0.7579 -0.2383
  916MOL0     H23611   2.223   6.840   6.964  0.4602  0.2774 -0.3552
  916MOL0     H23612   2.585   6.904   7.005 -2.1602  0.3339  1.8590
  916MOL0     H23613   2.500   6.754   6.969 -0.1110  1.3745  1.6031
  916MOL0     H23614   2.567   6.784   6.731 -0.7649  1.6632 -1.1923
  916MOL0     H23615   2.658   6.930   6.773  1.9508 -1.2938  0.1012
  916MOL0     H23616   2.712   6.643   6.862  1.1380 -0.1090  3.8006
  916MOL0     H23617   2.770   6.788   6.944 -1.5465  1.8565 -0.7909
  916MOL0     H23618   2.906   6.852   6.766 -1.1879  1.2429 -0.8372
  916MOL0     H23619   2.823   6.753   6.647 -1.9400 -0.7723  1.1594
  916MOL0     H23620   3.131   6.465   6.808 -0.0234 -2.9749 -0.5811
  916MOL0     H23621   3.342   6.432   6.669 -0.4606 -0.6868  1.9412
  916MOL0     H23622   3.679   6.717   6.369 -0.6686  1.6338 -1.5835
  916MOL0     H23623   3.881   6.650   6.216  1.5056 -3.6553 -4.1051
  916MOL0     H23624   4.031   6.582   6.086 -1.9154 -0.0395  2.1321
  916MOL0     H23625   3.978   6.419   6.066 -1.1418  0.4586  0.6927
  916MOL0     H23626   4.053   6.401   5.831 -0.6249  1.5691 -1.9372
  916MOL0     H23627   4.047   6.573   5.808  0.3720  1.9444  0.7740
  916MOL0     H23628   4.239   6.601   5.947 -0.8053 -1.0051  2.4394
  916MOL0     H23629   4.246   6.424   5.992 -1.8961  0.0016  0.5097
  916MOL0     H23630   4.302   6.567   5.728 -1.6061 -0.9774 -0.8334
  916MOL0     H23631   4.311   6.391   5.745  3.8761  0.2196 -0.3364
  916MOL0     H23632   4.460   6.408   5.948 -4.1078 -2.1001 -1.1646
  916MOL0     H23633   4.489   6.573   5.901  2.5266 -2.3203  2.1894
  916MOL0     H23634   4.575   6.327   5.744  1.1517  0.0030 -2.4750
  916MOL0     H23635   4.566   6.498   5.679  1.3893 -0.0811 -0.7217
  916MOL0     H23636   4.718   6.405   5.920 -0.8441  1.7200  0.7798
  916MOL0     H23637   4.717   6.567   5.862  2.1329 -0.1419  1.7981
  916MOL0     H23638   4.816   6.328   5.697 -1.0241  0.1055  0.0951
  916MOL0     H23639   4.821   6.500   5.642  3.1217  1.0827  0.6153
  916MOL0     H23640   3.599   6.488   5.942 -0.6804 -1.9897  1.3634
  916MOL0     H23641   3.420   6.530   6.095  1.4259 -0.3240 -1.8897
  916MOL0     H23642   3.213   6.758   6.411 -1.0032  0.2137 -0.5238
  916MOL0     H23643   3.017   6.785   6.556 -0.9784  0.0018  0.9601
  916MOL0     H23644   1.505   7.475   7.489  1.3449 -0.3590 -1.4988
  916MOL0     H23645   1.272   7.408   7.530 -0.7580 -0.9124  0.0999
  916MOL0     H23646   0.871   7.338   7.270  0.7394  0.9976  0.9016
  916MOL0     H23647   0.668   7.269   7.237  1.3055  0.3105 -0.7539
  916MOL0     H23648   0.257   7.347   7.435  1.9877  0.6299 -3.9357
  916MOL0     H23649   0.351   7.474   7.513 -1.6627  0.3235 -1.0324
  916MOL0     H23650   0.294   7.348   7.695 -1.2776  1.9548 -2.1077
  916MOL0     H23651   0.451   7.281   7.667 -0.1093 -0.3586  1.2403
  916MOL0     H23652   0.360   7.099   7.687  2.2285  2.9615 -0.1133
  916MOL0     H23653   0.318   7.106   7.517  3.9411 -0.2544  0.9206
  916MOL0     H23654   0.135   7.202   7.742  0.8395  1.4103  0.5823
  916MOL0     H23655   0.104   7.211   7.560  1.0392 -0.4013 -0.8608
  916MOL0     H23656  -0.016   6.815   7.624 -1.2322  1.3316  0.2479
  916MOL0     H23657   0.542   7.543   7.555  1.0782  1.3369 -0.1682
  916MOL0     H23658   0.684   7.618   7.700  0.9804  1.9550  2.1882
  916MOL0     H23659   0.846   7.541   7.714 -2.1686 -3.4891 -1.9530
  916MOL0     H23660   0.813   7.696   7.620 -2.1779  0.8246  0.8764
  917MOL0     O23661   6.198   3.609   7.461  0.2020 -0.3139 -0.3313
  917MOL0     C23662   6.247   3.561   7.361 -0.3100  0.2876  0.4339
  917MOL0     O23663   6.363   3.492   7.353 -0.4026  0.4939 -0.4521
  917MOL0     C23664   6.447   3.471   7.453  0.8447 -0.8582 -0.2682
  917MOL0     C23665   6.517   3.573   7.516 -0.5502  0.1409  0.1165
  917MOL0     C23666   6.614   3.547   7.611 -0.2450  0.2068 -0.8131
  917MOL0     C23667   6.646   3.422   7.651  0.4853  0.7916 -1.1699
  917MOL0     O23668   6.753   3.410   7.733  0.3684  0.0258  0.5797
  917MOL0     C23669   6.785   3.269   7.767 -0.4431 -0.2016 -0.5615
  917MOL0     C23670   6.915   3.262   7.849  0.8895  0.3761 -0.1503
  917MOL0     C23671   6.900   3.332   7.986  0.3403  0.4812 -0.7519
  917MOL0     C23672   6.918   3.487   7.983  0.3687  0.0054  0.7088
  917MOL0     C23673   7.069   3.521   7.966  0.6801  0.3437  0.2326
  917MOL0     C23674   7.081   3.665   7.929 -0.3636 -0.2498  0.0904
  917MOL0     C23675   7.218   3.714   7.958  1.0548  0.0088 -0.0107
  917MOL0     C23676   7.227   3.868   7.960 -0.4838  0.5591 -0.6367
  917MOL0     N23677   7.150   3.940   8.067  0.1877  1.0302  0.3607
  917MOL0     C23678   7.216   3.976   8.178 -0.3212 -0.8493 -0.1090
  917MOL0     C23679   7.141   4.061   8.245 -0.1308  0.6079 -0.3865
  917MOL0     C23680   7.179   4.123   8.376 -0.3441 -0.0528 -0.3412
  917MOL0     C23681   7.120   4.261   8.407 -0.0016 -0.1675  0.3512
  917MOL0     C23682   7.185   4.326   8.532 -0.0097 -0.9513 -0.1045
  917MOL0     C23683   7.304   4.414   8.497 -0.7949 -0.0475 -0.4676
  917MOL0     O23684   7.390   4.320   8.439  0.5035 -0.1268  0.6351
  917MOL0     C23685   7.524   4.350   8.435 -0.5141  0.1464  0.0704
  917MOL0     C23686   7.600   4.261   8.362 -0.3064  0.5236  0.4071
  917MOL0     C23687   7.739   4.282   8.341 -0.1842  0.5023  0.2426
  917MOL0     C23688   7.797   4.397   8.396 -0.5471 -0.1144 -0.6131
  917MOL0     C23689   7.945   4.400   8.388 -0.6585 -0.3711  0.6902
  917MOL0     O23690   8.013   4.299   8.315 -0.4711 -0.1621 -0.1445
  917MOL0     C23691   8.153   4.318   8.314  0.2804  0.7840 -0.1317
  917MOL0     C23692   8.214   4.432   8.261 -0.4173 -0.0516  0.5058
  917MOL0     C23693   8.353   4.441   8.245  0.6893  0.7990  0.3322
  917MOL0     C23694   8.438   4.338   8.284  0.7588  1.1241  0.1135
  917MOL0     O23695   8.571   4.357   8.261 -0.2142 -0.3866 -0.2093
  917MOL0     C23696   8.660   4.256   8.291  0.1288 -0.4091  0.4005
  917MOL0     C23697   8.798   4.321   8.313  0.2530  0.0273  0.1751
  917MOL0     C23698   8.846   4.387   8.181  0.8048  0.7527 -0.0314
  917MOL0     C23699   8.981   4.448   8.186  0.0329  0.3016 -0.7868
  917MOL0     C23700   9.024   4.511   8.056 -0.7641  0.2483  0.9149
  917MOL0     C23701   9.147   4.604   8.076  0.2008  0.7639 -0.1274
  917MOL0     C23702   9.101   4.738   8.124 -1.2600 -0.1370 -0.8288
  917MOL0     C23703   9.218   4.821   8.190  0.4946  1.2719  0.8938
  917MOL0    Cl23704   9.342   4.815   8.072 -0.5297 -0.2818 -0.1824
  917MOL0     C23705   8.372   4.218   8.334 -0.1385  0.2216  0.3533
  917MOL0     C23706   8.229   4.209   8.346  0.0658 -0.2832 -0.2940
  917MOL0     O23707   8.000   4.498   8.432  0.1648  0.7150 -0.1523
  917MOL0     C23708   7.723   4.490   8.467 -1.2978  0.4607 -0.4161
  917MOL0     C23709   7.589   4.464   8.486  1.1871 -0.6622 -0.2429
  917MOL0     N23710   7.026   4.077   8.169 -0.2005 -0.2623  0.1831
  917MOL0     N23711   7.030   4.001   8.064  0.2189 -0.4660  0.2188
  917MOL0     C23712   6.573   3.320   7.593  0.2170  0.0310 -0.9277
  917MOL0     C23713   6.481   3.348   7.496  0.9895  1.3272  0.5420
  917MOL0     C23714   6.191   3.600   7.224  0.2879 -0.3384  0.0731
  917MOL0     C23715   6.280   3.594   7.122 -0.6077  0.6711 -0.2829
  917MOL0     C23716   6.241   3.627   6.995 -0.2162 -0.2204 -0.0791
  917MOL0     C23717   6.118   3.678   6.976  0.4969 -0.8559 -0.0412
  917MOL0     O23718   6.098   3.717   6.847 -0.0243  0.5799  0.5092
  917MOL0     C23719   6.045   3.844   6.829 -0.0428  0.8793 -0.5265
  917MOL0     C23720   5.992   3.856   6.686 -0.0261 -0.2636 -0.9257
  917MOL0     C23721   5.975   4.001   6.647 -0.5055  0.1608 -0.7064
  917MOL0     C23722   5.902   4.022   6.515  0.0511  0.2136 -0.5201
  917MOL0     C23723   5.968   3.954   6.405 -0.0141  0.7309  0.6745
  917MOL0     C23724   6.047   3.894   6.327  0.5145 -0.2758  0.2722
  917MOL0     C23725   6.021   3.694   7.080  0.7244  0.4890  0.1538
  917MOL0     C23726   6.054   3.646   7.207  0.2883  0.7377 -0.0533
  917MOL0     C23727   5.955   3.645   7.312  0.7863  0.1539  0.1966
  917MOL0     H23728   6.503   3.679   7.497  2.2975  1.5623  4.4503
  917MOL0     H23729   6.680   3.630   7.636  1.0314 -0.6612 -1.1938
  917MOL0     H23730   6.699   3.237   7.826  0.6681 -0.8296  0.7730
  917MOL0     H23731   6.789   3.201   7.682 -3.0206 -1.0839 -0.0725
  917MOL0     H23732   6.983   3.312   7.779 -0.7287 -1.6850 -3.4224
  917MOL0     H23733   6.947   3.159   7.865  3.2490  0.8747 -1.1628
  917MOL0     H23734   6.976   3.286   8.051 -1.0091  0.5090  0.9432
  917MOL0     H23735   6.809   3.299   8.037 -0.2671  0.3297 -1.9024
  917MOL0     H23736   6.856   3.536   7.908 -2.0582 -1.5082  1.6177
  917MOL0     H23737   6.889   3.542   8.073  1.4082  0.4153  0.8177
  917MOL0     H23738   7.112   3.514   8.066  1.0475 -2.4740 -0.0346
  917MOL0     H23739   7.105   3.446   7.896 -3.6874 -1.2273 -0.6520
  917MOL0     H23740   7.059   3.675   7.823  3.3827 -1.0370 -0.9205
  917MOL0     H23741   7.018   3.725   7.995 -0.7369  1.6530 -1.8880
  917MOL0     H23742   7.280   3.677   7.876  2.4067  1.8135  0.1330
  917MOL0     H23743   7.247   3.675   8.056  2.8217  0.5249 -0.2802
  917MOL0     H23744   7.335   3.888   7.965  0.4992 -3.1408 -3.1178
  917MOL0     H23745   7.195   3.896   7.859 -0.3122  0.3740 -0.7435
  917MOL0     H23746   7.317   3.950   8.206  0.3290  1.8623  0.3276
  917MOL0     H23747   7.145   4.060   8.459  0.9585 -1.5191 -0.8622
  917MOL0     H23748   7.288   4.124   8.372 -0.2803  3.1574 -0.3163
  917MOL0     H23749   7.116   4.330   8.322  0.4825 -0.8578 -0.2430
  917MOL0     H23750   7.014   4.253   8.433 -0.9964 -0.3030 -3.1885
  917MOL0     H23751   7.218   4.243   8.595 -0.4251 -1.5160 -0.6161
  917MOL0     H23752   7.106   4.382   8.582  0.2744  0.2340 -0.9469
  917MOL0     H23753   7.345   4.470   8.581 -0.8778  1.3617 -1.3431
  917MOL0     H23754   7.276   4.486   8.420 -0.5682 -0.6650 -1.1427
  917MOL0     H23755   7.542   4.179   8.321 -0.7643  0.8317  0.4263
  917MOL0     H23756   7.803   4.214   8.286  1.4307 -1.2325  3.8798
  917MOL0     H23757   8.158   4.507   8.208 -0.8072 -1.2069 -0.7721
  917MOL0     H23758   8.402   4.521   8.190 -1.4774  1.6271 -0.4925
  917MOL0     H23759   8.635   4.195   8.379  5.0591 -1.9382  1.0214
  917MOL0     H23760   8.656   4.195   8.200  0.8569  1.4902 -0.9591
  917MOL0     H23761   8.793   4.383   8.402  1.0404  2.0254 -1.1111
  917MOL0     H23762   8.862   4.235   8.338 -2.7537 -2.6852 -0.7811
  917MOL0     H23763   8.856   4.309   8.105 -3.7136 -1.0905  0.9950
  917MOL0     H23764   8.775   4.458   8.136 -0.8234 -1.3362 -0.9363
  917MOL0     H23765   9.059   4.386   8.232 -2.1487 -3.4050 -1.7661
  917MOL0     H23766   8.974   4.528   8.261 -0.5620 -0.3309 -0.1501
  917MOL0     H23767   8.952   4.579   8.011  1.4288  1.5103 -0.9152
  917MOL0     H23768   9.052   4.430   7.988  4.0521  1.8738  0.5910
  917MOL0     H23769   9.220   4.553   8.138  1.2254 -0.7076 -2.4115
  917MOL0     H23770   9.185   4.618   7.974 -0.5194 -1.0242 -0.6760
  917MOL0     H23771   9.019   4.724   8.196 -0.0607 -1.2737  0.3785
  917MOL0     H23772   9.063   4.801   8.044  0.9136  1.3496 -0.7574
  917MOL0     H23773   9.188   4.925   8.201 -1.0188  1.2118 -1.8407
  917MOL0     H23774   9.250   4.776   8.284  1.2081 -0.8513 -0.2959
  917MOL0     H23775   8.431   4.129   8.355 -0.1211  0.4993  1.5518
  917MOL0     H23776   8.175   4.121   8.380  0.1605  0.0484  0.7474
  917MOL0     H23777   7.774   4.577   8.507  0.4368 -0.0402 -1.4048
  917MOL0     H23778   7.539   4.541   8.544  2.3503  0.7154 -0.9750
  917MOL0     H23779   6.568   3.221   7.637  0.3524  0.2980 -0.2982
  917MOL0     H23780   6.433   3.268   7.439  1.3699  0.5740  1.2635
  917MOL0     H23781   6.381   3.557   7.136 -0.9171 -0.1590 -0.1966
  917MOL0     H23782   6.314   3.626   6.915 -2.6343  0.0675 -2.4464
  917MOL0     H23783   6.120   3.919   6.857  1.5912 -1.5047  2.1037
  917MOL0     H23784   5.966   3.855   6.903  1.4501 -1.8637  1.6954
  917MOL0     H23785   5.893   3.811   6.670  0.6710 -1.6898 -1.4425
  917MOL0     H23786   6.062   3.806   6.619 -1.5538 -2.7385 -0.8132
  917MOL0     H23787   6.068   4.057   6.640 -0.2693 -0.0131  0.6995
  917MOL0     H23788   5.910   4.031   6.730  0.8677 -2.0319  1.3028
  917MOL0     H23789   5.798   3.996   6.538  0.3769  1.1239  2.3557
  917MOL0     H23790   5.900   4.128   6.489 -1.0327  0.4369  0.3780
  917MOL0     H23791   6.117   3.839   6.269  1.7795  0.8225  0.7075
  917MOL0     H23792   5.931   3.746   7.048  2.0255  1.3548 -2.4013
  917MOL0     H23793   5.948   3.747   7.351  3.4375  0.2626  0.5100
  917MOL0     H23794   5.858   3.630   7.263  1.0838  0.0502 -0.3741
  917MOL0     H23795   5.962   3.565   7.386  0.2389 -1.0717 -1.0346
  918MOL0     O23796   8.880   4.990   4.810  0.2267 -0.5788  0.0063
  918MOL0     C23797   8.840   5.078   4.737 -0.3104  0.0664  0.6554
  918MOL0     O23798   8.913   5.186   4.684 -0.3875  0.8943  0.5715
  918MOL0     C23799   9.051   5.175   4.700  0.7617  0.4813  0.2535
  918MOL0     C23800   9.124   5.074   4.636  0.1287  0.7406 -0.2716
  918MOL0     C23801   9.260   5.056   4.661  0.3623  0.3309 -0.7440
  918MOL0     C23802   9.332   5.164   4.725 -0.1272  0.1939  0.6044
  918MOL0     O23803   9.462   5.174   4.728 -0.0850  0.0855 -0.1204
  918MOL0     C23804   9.556   5.066   4.701  0.0224  0.4731 -0.1792
  918MOL0     C23805   9.688   5.089   4.774 -0.3128  0.5851  0.3869
  918MOL0     C23806   9.796   4.979   4.747 -0.6177 -0.0509  0.1825
  918MOL0     C23807   9.934   5.015   4.809  0.5418  0.2943  0.3992
  918MOL0     C23808  10.031   4.899   4.791  0.8063  0.7477  0.9095
  918MOL0     C23809  10.163   4.934   4.835 -0.3215 -0.2721  0.4405
  918MOL0     C23810  10.242   4.802   4.843 -0.7438  0.4495 -1.1532
  918MOL0     C23811  10.384   4.837   4.867  0.3224 -0.4259 -0.7676
  918MOL0     N23812  10.473   4.721   4.838 -0.1284 -0.1897  0.2428
  918MOL0     C23813  10.473   4.613   4.915 -0.6400  0.9321  0.3388
  918MOL0     C23814  10.535   4.519   4.840 -0.5429 -0.5783 -1.5864
  918MOL0     C23815  10.560   4.375   4.866  0.2168  0.0251  0.2461
  918MOL0     C23816  10.693   4.341   4.934 -0.7489  0.0129 -0.9381
  918MOL0     C23817  10.695   4.363   5.081  0.1442 -0.4246  0.1795
  918MOL0     C23818  10.832   4.347   5.145 -0.6004 -0.5734  0.4384
  918MOL0     O23819  10.897   4.234   5.089 -0.3993  0.2162  0.1117
  918MOL0     C23820  11.034   4.223   5.103  0.6357 -0.1845 -0.1286
  918MOL0     C23821  11.085   4.099   5.134  0.0592  1.1494 -0.4749
  918MOL0     C23822  11.216   4.070   5.150  0.1349 -0.5495  0.0536
  918MOL0     C23823  11.311   4.171   5.161  0.2932 -0.7305  0.1812
  918MOL0     C23824  11.455   4.149   5.177  0.4400  0.1446  0.7416
  918MOL0     O23825  11.489   4.027   5.200  0.5904 -0.0573 -0.3012
  918MOL0     C23826  11.618   3.991   5.186  0.2316 -0.2017  0.4099
  918MOL0     C23827  11.676   3.903   5.286  1.6822 -0.2519 -0.1806
  918MOL0     C23828  11.811   3.862   5.269 -0.6669 -0.2453  1.2364
  918MOL0     C23829  11.891   3.913   5.167 -0.7643  0.2380  0.1171
  918MOL0     O23830  12.026   3.879   5.157 -0.4708 -0.6491  0.6108
  918MOL0     C23831  12.108   3.920   5.266 -1.1499 -0.5451 -1.4454
  918MOL0     C23832  12.256   3.878   5.242  0.8132 -0.4273 -0.2158
  918MOL0     C23833  12.328   3.965   5.137  0.9664  0.5771  1.0071
  918MOL0     C23834  12.463   3.893   5.106 -1.0048  0.3138  0.7120
  918MOL0     C23835  12.547   3.965   5.005  1.0740  0.6461 -0.5460
  918MOL0     C23836  12.661   3.885   4.952  0.2330 -0.7532  0.2256
  918MOL0     C23837  12.778   3.868   5.053  0.5974 -0.0000  0.0454
  918MOL0     C23838  12.901   3.790   4.990 -0.2092  0.9056  0.0599
  918MOL0    Cl23839  12.958   3.817   4.834  0.0699  0.0398 -0.0426
  918MOL0     C23840  11.839   3.990   5.069  0.8035  1.3606 -0.0471
  918MOL0     C23841  11.704   4.036   5.083 -0.5839  0.0008  0.3255
  918MOL0     O23842  11.530   4.249   5.162  0.5478  0.1558 -0.1430
  918MOL0     C23843  11.255   4.302   5.139 -0.3976 -0.2996  0.4719
  918MOL0     C23844  11.127   4.327   5.105  0.1477  0.4485  0.9069
  918MOL0     N23845  10.567   4.570   4.719 -0.6583 -0.3325 -0.0851
  918MOL0     N23846  10.536   4.696   4.717  0.6306  0.0223  0.8676
  918MOL0     C23847   9.259   5.279   4.768 -0.3707  0.2631 -0.6818
  918MOL0     C23848   9.120   5.275   4.758  0.0341  1.0624  0.2476
  918MOL0     C23849   8.700   5.059   4.674  0.2739  0.3616  0.7487
  918MOL0     C23850   8.638   4.936   4.687  0.0489  0.0345 -0.1559
  918MOL0     C23851   8.512   4.906   4.627 -0.8770  0.1365 -0.6697
  918MOL0     C23852   8.446   5.003   4.554 -0.2781 -0.5901 -0.1531
  918MOL0     O23853   8.323   4.993   4.505  0.5876  0.1371  0.1534
  918MOL0     C23854   8.301   4.865   4.436 -0.4339 -0.1834 -0.2261
  918MOL0     C23855   8.172   4.872   4.360  0.2814  1.0528  0.6564
  918MOL0     C23856   8.116   4.733   4.313 -0.3961 -0.1541 -0.7990
  918MOL0     C23857   8.215   4.656   4.219 -0.1089  0.8251 -0.1653
  918MOL0     C23858   8.141   4.546   4.145  0.3171  0.4047 -0.2049
  918MOL0     C23859   8.078   4.462   4.087 -0.7004 -0.1609 -0.2957
  918MOL0     C23860   8.503   5.126   4.550 -0.6814  0.8101  0.9700
  918MOL0     C23861   8.628   5.160   4.599 -0.1907  0.5853  0.5947
  918MOL0     C23862   8.684   5.298   4.578 -0.1048  0.1192 -0.4602
  918MOL0     H23863   9.066   5.002   4.579  3.0442 -1.8749 -0.2024
  918MOL0     H23864   9.314   4.970   4.621  1.2015 -0.4279  1.8136
  918MOL0     H23865   9.511   4.974   4.740  0.0764 -0.5775 -2.4709
  918MOL0     H23866   9.579   5.065   4.594  4.5762  2.3527  0.5377
  918MOL0     H23867   9.660   5.090   4.880  1.5979 -2.7242  1.0602
  918MOL0     H23868   9.737   5.181   4.740  0.9340  0.4984  1.8518
  918MOL0     H23869   9.807   4.962   4.639  1.5013  0.5899  0.2554
  918MOL0     H23870   9.768   4.881   4.785  1.1635  0.1210  2.0768
  918MOL0     H23871   9.971   5.091   4.740 -1.0217  2.2351  1.6326
  918MOL0     H23872   9.936   5.040   4.915 -1.0434  1.0494  0.2697
  918MOL0     H23873   9.994   4.819   4.856  0.9983 -2.1680 -2.2918
  918MOL0     H23874  10.034   4.861   4.688  0.9411 -1.2322  1.5979
  918MOL0     H23875  10.206   5.018   4.779  0.6597  0.4084  2.1506
  918MOL0     H23876  10.145   4.981   4.932 -0.1840  2.3127 -0.7121
  918MOL0     H23877  10.234   4.740   4.753  1.2731  0.1425 -1.1653
  918MOL0     H23878  10.210   4.745   4.931  2.1825 -2.7911 -1.9507
  918MOL0     H23879  10.417   4.922   4.806  3.4263 -0.4136  0.7300
  918MOL0     H23880  10.388   4.870   4.971  0.8633  0.5322 -1.0822
  918MOL0     H23881  10.426   4.604   5.013 -2.4040 -0.1800 -0.5561
  918MOL0     H23882  10.476   4.334   4.923  0.9136 -1.3554  0.3178
  918MOL0     H23883  10.558   4.323   4.770  1.7434  0.2425  0.0617
  918MOL0     H23884  10.708   4.234   4.916 -1.1652 -0.1876 -0.1363
  918MOL0     H23885  10.771   4.397   4.882 -2.2039  3.6595  0.4585
  918MOL0     H23886  10.624   4.294   5.128 -1.2681  2.4467  2.5824
  918MOL0     H23887  10.652   4.462   5.098 -0.2096 -0.2948 -1.3207
  918MOL0     H23888  10.827   4.347   5.254 -2.6880 -2.1674  0.4019
  918MOL0     H23889  10.886   4.441   5.126  1.6637 -1.1634  3.3331
  918MOL0     H23890  11.008   4.023   5.133 -2.0308  3.1319 -0.9289
  918MOL0     H23891  11.239   3.965   5.161  0.0716 -0.4472  1.3113
  918MOL0     H23892  11.605   3.877   5.364 -0.2848  2.3590 -0.9528
  918MOL0     H23893  11.853   3.785   5.332 -2.1870 -1.2917  1.0101
  918MOL0     H23894  12.109   4.027   5.286  0.5785 -0.6467 -0.8442
  918MOL0     H23895  12.072   3.867   5.354 -1.2681 -1.7183 -2.1720
  918MOL0     H23896  12.308   3.866   5.337 -2.4986  0.4663  1.8659
  918MOL0     H23897  12.251   3.777   5.200  1.6183 -0.6043  0.0858
  918MOL0     H23898  12.278   3.951   5.041  1.9980  1.0796  0.3743
  918MOL0     H23899  12.336   4.072   5.158  1.3825  1.4332 -2.7892
  918MOL0     H23900  12.435   3.797   5.062 -0.2947 -0.1907  1.3399
  918MOL0     H23901  12.521   3.872   5.196  0.7326 -0.0556 -0.4594
  918MOL0     H23902  12.581   4.059   5.050  3.7251 -0.2543 -0.4757
  918MOL0     H23903  12.485   4.010   4.927 -0.7556  1.4177  1.2794
  918MOL0     H23904  12.612   3.794   4.914 -0.2996  0.2751 -1.6963
  918MOL0     H23905  12.704   3.948   4.874 -2.1870 -1.3465 -1.7117
  918MOL0     H23906  12.752   3.821   5.148  1.3121 -1.7933 -0.6035
  918MOL0     H23907  12.800   3.971   5.082 -0.1483  0.3670 -0.6280
  918MOL0     H23908  12.989   3.801   5.054  0.1013 -0.2736 -0.1324
  918MOL0     H23909  12.873   3.684   4.987 -0.9877  1.1154 -0.1970
  918MOL0     H23910  11.908   4.029   4.995 -1.0610  2.8173 -1.1338
  918MOL0     H23911  11.677   4.114   5.012  1.2212 -0.4278 -0.9137
  918MOL0     H23912  11.320   4.388   5.127 -0.9008 -0.3035 -6.7375
  918MOL0     H23913  11.095   4.429   5.083  0.0127  0.6774  2.0856
  918MOL0     H23914   9.306   5.364   4.817 -1.6596  0.0224  1.0804
  918MOL0     H23915   9.077   5.365   4.801  2.8490  1.4401  2.5724
  918MOL0     H23916   8.686   4.864   4.752  0.7677  1.8243  1.4013
  918MOL0     H23917   8.467   4.808   4.639  2.5816 -1.4979  0.1737
  918MOL0     H23918   8.288   4.785   4.510 -1.2421 -0.4250 -0.6285
  918MOL0     H23919   8.384   4.833   4.372  0.1567 -0.5434  0.6889
  918MOL0     H23920   8.179   4.938   4.274 -2.4046 -0.9062 -1.2310
  918MOL0     H23921   8.097   4.922   4.422 -0.1857  1.5223 -0.2669
  918MOL0     H23922   8.018   4.743   4.265 -1.1594  2.3961  1.0246
  918MOL0     H23923   8.105   4.679   4.408 -0.1749  2.6568  0.9563
  918MOL0     H23924   8.263   4.730   4.154  0.6458  0.8350  0.4064
  918MOL0     H23925   8.287   4.601   4.279 -0.5419  2.1509  1.6561
  918MOL0     H23926   8.017   4.389   4.039 -0.2128 -1.6500  1.2443
  918MOL0     H23927   8.453   5.204   4.494 -1.5579  0.6212  1.4601
  918MOL0     H23928   8.761   5.294   4.500  0.9167  0.4788  0.4976
  918MOL0     H23929   8.604   5.368   4.554  0.0589 -0.2353 -2.1360
  918MOL0     H23930   8.726   5.339   4.671 -1.2861  3.6739 -1.3342
  919MOL0     O23931   8.820   8.451  10.034  0.0703 -0.0644  0.4519
  919MOL0     C23932   8.812   8.332  10.070 -0.1535 -0.1448 -0.5674
  919MOL0     O23933   8.896   8.269  10.160  0.8583 -0.3917 -0.5480
  919MOL0     C23934   8.999   8.339  10.213 -0.3066  0.1982 -0.3668
  919MOL0     C23935   9.121   8.273  10.210 -0.0975  1.2856  0.6552
  919MOL0     C23936   9.231   8.335  10.263 -0.1827  0.8852 -0.4750
  919MOL0     C23937   9.216   8.462  10.318  0.2238  0.4929  0.5737
  919MOL0     O23938   9.312   8.533  10.381  0.0524 -0.0107 -0.0592
  919MOL0     C23939   9.384   8.451  10.462 -0.3426  0.1875 -0.5181
  919MOL0     C23940   9.478   8.527  10.567  0.7178 -0.0016 -0.2190
  919MOL0     C23941   9.561   8.433  10.659 -0.4880 -0.7184 -1.3054
  919MOL0     C23942   9.657   8.507  10.748  0.8512  0.3518  0.6675
  919MOL0     C23943   9.747   8.419  10.836  0.5223  0.3039  0.5755
  919MOL0     C23944   9.848   8.334  10.759 -0.1167  0.7572 -0.0839
  919MOL0     C23945   9.922   8.242  10.860  0.4054 -1.0508  0.0805
  919MOL0     C23946   9.992   8.126  10.784  0.0704  0.0909  0.6447
  919MOL0     N23947  10.092   8.173  10.686 -0.5757  0.1557  0.8031
  919MOL0     C23948  10.076   8.183  10.544 -0.5391 -0.5538 -0.3553
  919MOL0     C23949  10.202   8.225  10.502  0.2968  0.1334  0.0904
  919MOL0     C23950  10.227   8.223  10.351 -0.1455 -0.3243  0.4195
  919MOL0     C23951  10.189   8.365  10.301  0.6290 -0.7418  0.4746
  919MOL0     C23952  10.313   8.439  10.259  0.0091 -0.4583 -1.3717
  919MOL0     C23953  10.374   8.516  10.384 -0.2009  0.1282 -0.5014
  919MOL0     O23954  10.501   8.573  10.351 -0.3871 -1.0156  0.0482
  919MOL0     C23955  10.516   8.679  10.262 -0.3972 -0.0640 -0.1594
  919MOL0     C23956  10.644   8.704  10.226 -0.3781  0.4674  0.7909
  919MOL0     C23957  10.674   8.811  10.142 -0.2061  0.6759 -0.3117
  919MOL0     C23958  10.576   8.902  10.104 -0.5669 -0.2795 -0.0169
  919MOL0     C23959  10.619   9.023  10.032  0.7684  0.2374  0.3389
  919MOL0     O23960  10.753   9.043  10.003 -0.6971 -0.6395  0.2274
  919MOL0     C23961  10.792   9.147   9.918  0.5127 -1.1179 -0.4907
  919MOL0     C23962  10.729   9.174   9.800  0.3211 -0.5935  0.3638
  919MOL0     C23963  10.789   9.281   9.719 -0.2018  0.3062  0.0129
  919MOL0     C23964  10.912   9.337   9.742 -0.2213 -1.0012  0.3018
  919MOL0     O23965  10.959   9.440   9.663  0.1932 -0.3150  0.3398
  919MOL0     C23966  10.886   9.499   9.542 -0.2883 -0.1987  0.7898
  919MOL0     C23967  10.988   9.482   9.431 -0.2086  0.3675  0.5269
  919MOL0     C23968  11.116   9.561   9.451 -0.1496  0.9700 -1.2270
  919MOL0     C23969  11.224   9.542   9.348 -0.2064 -0.3319 -0.4725
  919MOL0     C23970  11.350   9.623   9.392  0.2104 -1.1382  0.1848
  919MOL0     C23971  11.324   9.780   9.384 -0.0699  0.5024  0.3141
  919MOL0     C23972  11.459   9.828   9.425 -0.4502 -0.3814 -0.1323
  919MOL0     C23973  11.461   9.977   9.409 -0.6527  0.2152  0.3332
  919MOL0    Cl23974  11.625  10.029   9.462  0.2019  0.0423 -0.2625
  919MOL0     C23975  10.981   9.301   9.860  0.2873  0.8007  0.5940
  919MOL0     C23976  10.920   9.217   9.944 -0.1198  0.1272  0.2482
  919MOL0     O23977  10.528   9.106  10.010  0.4953  0.0730 -0.5459
  919MOL0     C23978  10.442   8.867  10.131 -0.2116  0.0064 -0.2359
  919MOL0     C23979  10.413   8.763  10.218  0.7388 -0.4886 -0.2958
  919MOL0     N23980  10.281   8.238  10.613 -0.3671 -0.1178  0.0977
  919MOL0     N23981  10.211   8.223  10.719 -0.0823 -0.2943 -0.5203
  919MOL0     C23982   9.094   8.529  10.305 -0.8641  0.8933 -0.1695
  919MOL0     C23983   8.984   8.477  10.250  0.2249 -0.0662  0.8043
  919MOL0     C23984   8.700   8.247  10.021 -0.7312 -0.9300  0.1018
  919MOL0     C23985   8.731   8.114   9.985 -0.3394 -0.1867 -0.1259
  919MOL0     C23986   8.627   8.036   9.944 -1.2287 -0.1301  0.4668
  919MOL0     C23987   8.502   8.086   9.913 -0.4295 -0.3375  0.4299
  919MOL0     O23988   8.427   7.994   9.851 -0.3235  0.1326 -0.5885
  919MOL0     C23989   8.297   8.038   9.809  0.3426 -0.3726  0.6520
  919MOL0     C23990   8.196   7.913   9.803  0.6778 -0.2256  0.5661
  919MOL0     C23991   8.052   7.968   9.767  0.6439  0.6651 -0.7996
  919MOL0     C23992   7.931   7.864   9.788 -0.6878  0.3347 -0.8217
  919MOL0     C23993   7.924   7.811   9.927  0.6462 -0.8364  1.3382
  919MOL0     C23994   7.915   7.759  10.030  0.1481  0.0405 -0.0358
  919MOL0     C23995   8.479   8.215   9.938  0.9129 -0.3916 -0.6951
  919MOL0     C23996   8.570   8.298  10.005 -0.2856 -0.1686  0.2701
  919MOL0     C23997   8.529   8.436  10.041 -0.1847  0.4090 -0.4606
  919MOL0     H23998   9.125   8.170  10.175 -0.6054  1.1074  1.1050
  919MOL0     H23999   9.323   8.276  10.268 -1.5885 -1.7087  6.3260
  919MOL0     H24000   9.327   8.375  10.516  1.3614  0.0204  1.1657
  919MOL0     H24001   9.466   8.405  10.406 -0.5660  0.5512 -1.1436
  919MOL0     H24002   9.409   8.589  10.625 -0.6822 -2.8230  1.3510
  919MOL0     H24003   9.548   8.591  10.515 -3.6761  4.2677 -1.6526
  919MOL0     H24004   9.625   8.370  10.597  2.5240  2.7376 -2.0322
  919MOL0     H24005   9.489   8.377  10.721  0.9841 -0.3034  0.8993
  919MOL0     H24006   9.709   8.578  10.682  0.0929 -0.7674 -1.2172
  919MOL0     H24007   9.596   8.571  10.813  1.4007  3.4995 -1.6338
  919MOL0     H24008   9.803   8.471  10.915  2.0269  0.5211 -0.5985
  919MOL0     H24009   9.673   8.357  10.888 -1.2261  2.2433  0.5631
  919MOL0     H24010   9.795   8.267  10.690  1.0143  1.8146 -2.0703
  919MOL0     H24011   9.918   8.401  10.708  3.1153  0.5498  3.6203
  919MOL0     H24012   9.850   8.191  10.924 -1.7431  1.0271 -0.5317
  919MOL0     H24013   9.994   8.297  10.921  0.2385 -0.3568 -0.3344
  919MOL0     H24014  10.036   8.060  10.859 -0.4182 -1.6156 -0.5330
  919MOL0     H24015   9.912   8.069  10.738  1.1060 -0.3520 -0.6537
  919MOL0     H24016   9.987   8.169  10.484 -1.0355  0.0625  0.2150
  919MOL0     H24017  10.328   8.189  10.325 -0.2168 -0.1682 -0.0762
  919MOL0     H24018  10.165   8.145  10.305  1.0323 -1.5682  0.8509
  919MOL0     H24019  10.126   8.364  10.212  1.7816  3.5361 -0.6400
  919MOL0     H24020  10.129   8.417  10.376 -3.3947 -0.8577 -2.3474
  919MOL0     H24021  10.295   8.511  10.180 -1.9610  1.9501  1.0808
  919MOL0     H24022  10.390   8.372  10.220 -1.0738 -3.5949  1.3443
  919MOL0     H24023  10.401   8.443  10.460  1.0414  1.7566  0.7002
  919MOL0     H24024  10.308   8.595  10.423  2.4447  3.0800 -1.5514
  919MOL0     H24025  10.715   8.628  10.257  0.1821  0.7348  0.1818
  919MOL0     H24026  10.775   8.835  10.111 -0.0187 -1.3097 -1.3864
  919MOL0     H24027  10.645   9.118   9.760  0.4138 -0.0640 -0.6049
  919MOL0     H24028  10.742   9.294   9.622 -0.2645  1.0741  0.1402
  919MOL0     H24029  10.788   9.457   9.519  0.2839 -1.0743 -0.0828
  919MOL0     H24030  10.866   9.607   9.543  1.7113  0.2982 -1.7714
  919MOL0     H24031  11.007   9.376   9.412 -2.3685  0.0059  0.1583
  919MOL0     H24032  10.941   9.523   9.341  0.8048  0.3250 -0.0397
  919MOL0     H24033  11.090   9.667   9.458  0.1906  0.9490  1.9173
  919MOL0     H24034  11.167   9.534   9.544  1.4010 -0.5988 -2.4639
  919MOL0     H24035  11.178   9.587   9.260 -1.9387 -0.4827  0.3163
  919MOL0     H24036  11.239   9.435   9.330  1.9648 -0.2380  0.4680
  919MOL0     H24037  11.428   9.601   9.319  1.3967  3.7116 -0.3391
  919MOL0     H24038  11.380   9.595   9.494  1.4759  0.8835  0.4142
  919MOL0     H24039  11.314   9.808   9.279 -2.6769 -3.3015 -0.6444
  919MOL0     H24040  11.240   9.819   9.442 -0.5471  1.4582 -0.9809
  919MOL0     H24041  11.535   9.779   9.363 -1.3941 -1.3625 -0.5535
  919MOL0     H24042  11.481   9.807   9.530 -2.2638  1.5124  0.6900
  919MOL0     H24043  11.436  10.003   9.306  3.3912  3.1749 -0.1535
  919MOL0     H24044  11.383  10.021   9.472  0.1710  0.6994  1.0386
  919MOL0     H24045  11.086   9.327   9.866  0.1685  1.6125 -0.4787
  919MOL0     H24046  10.983   9.184  10.027  0.7216 -0.0729 -0.4562
  919MOL0     H24047  10.364   8.939  10.110 -2.6188 -1.0473  3.9604
  919MOL0     H24048  10.315   8.740  10.258  0.3392  4.8882  2.7812
  919MOL0     H24049   9.082   8.629  10.347  3.0568  0.5685  2.2108
  919MOL0     H24050   8.890   8.530  10.258 -0.8642 -1.5505 -1.2082
  919MOL0     H24051   8.831   8.071   9.991  1.3208  3.3526  0.0362
  919MOL0     H24052   8.633   7.933   9.911 -1.0773 -0.2198  0.7666
  919MOL0     H24053   8.306   8.087   9.711  0.1595  0.5696  1.0950
  919MOL0     H24054   8.247   8.103   9.881  0.4008  0.7904 -0.3232
  919MOL0     H24055   8.210   7.861   9.898 -0.9619 -2.1251 -0.1518
  919MOL0     H24056   8.226   7.846   9.722  0.1840  1.8595 -1.4773
  919MOL0     H24057   8.057   8.016   9.669 -1.9414 -1.3402 -2.0244
  919MOL0     H24058   8.033   8.048   9.840 -3.4714 -1.2593  0.5346
  919MOL0     H24059   7.834   7.911   9.769 -1.7975 -1.4656  0.1142
  919MOL0     H24060   7.939   7.782   9.717  4.3765 -1.7669  1.6674
  919MOL0     H24061   7.904   7.719  10.129  3.0824 -2.3312 -0.5251
  919MOL0     H24062   8.386   8.263   9.913  0.6618 -0.4042  0.1853
  919MOL0     H24063   8.598   8.476  10.116 -0.6634 -1.3625  1.0250
  919MOL0     H24064   8.530   8.492   9.947 -1.6233  1.9817  0.3984
  919MOL0     H24065   8.427   8.435  10.081 -0.5547 -1.4042 -1.3369
  920MOL0     O24066   3.570  10.436   0.479 -0.4101  0.3133 -0.3732
  920MOL0     C24067   3.500  10.534   0.458 -0.1847  1.4572 -0.3081
  920MOL0     O24068   3.532  10.660   0.486 -0.7638  0.2384  0.5786
  920MOL0     C24069   3.655  10.690   0.543  0.4832  0.0112  0.0384
  920MOL0     C24070   3.776  10.669   0.473 -0.4075  0.9007 -0.2105
  920MOL0     C24071   3.901  10.719   0.525 -0.1463 -0.3560 -0.1746
  920MOL0     C24072   3.908  10.779   0.652  0.7125 -0.0258 -0.5627
  920MOL0     O24073   4.029  10.818   0.706  0.4587 -0.2134  0.5321
  920MOL0     C24074   4.032  10.879   0.830  0.4496 -0.6093  0.0799
  920MOL0     C24075   4.182  10.908   0.871  1.2195 -0.1510  1.1693
  920MOL0     C24076   4.188  10.958   1.024  1.7947 -0.8638  0.5214
  920MOL0     C24077   4.329  10.938   1.075 -0.0939  0.2228  0.4191
  920MOL0     C24078   4.359  11.020   1.193 -0.1412 -0.0393 -0.0822
  920MOL0     C24079   4.319  10.954   1.318  0.5827  0.5721 -0.1593
  920MOL0     C24080   4.352  11.035   1.445  1.0740  1.3697 -1.3862
  920MOL0     C24081   4.498  11.034   1.486 -0.4107 -0.0316  0.0139
  920MOL0     N24082   4.529  10.905   1.553  0.2592 -0.3635 -0.4032
  920MOL0     C24083   4.571  10.797   1.479  0.9997  0.7643  0.3015
  920MOL0     C24084   4.559  10.700   1.575  0.2566  0.4567 -0.0837
  920MOL0     C24085   4.607  10.562   1.551 -0.1949  0.0839 -0.2680
  920MOL0     C24086   4.756  10.548   1.559  0.5138 -0.3516 -0.5060
  920MOL0     C24087   4.804  10.575   1.704  0.6467 -0.7028 -0.3576
  920MOL0     C24088   4.758  10.481   1.810  0.9153  0.6483 -0.5666
  920MOL0     O24089   4.830  10.501   1.931 -0.3139  0.3423 -0.6154
  920MOL0     C24090   4.942  10.418   1.964  1.2165 -0.0702 -0.8262
  920MOL0     C24091   5.006  10.338   1.866  0.3471 -0.7937  1.0694
  920MOL0     C24092   5.126  10.277   1.893  0.7854  0.1453 -0.3603
  920MOL0     C24093   5.191  10.299   2.021 -0.0185 -0.3829 -0.0865
  920MOL0     C24094   5.329  10.248   2.044 -0.1517 -0.4587  0.9660
  920MOL0     O24095   5.359  10.215   2.172  0.1359  0.5184  0.5171
  920MOL0     C24096   5.475  10.172   2.220  0.7189  0.6755 -0.1112
  920MOL0     C24097   5.522  10.221   2.347 -0.0228  0.4649 -1.0177
  920MOL0     C24098   5.632  10.164   2.415  0.4118 -0.7443 -0.8448
  920MOL0     C24099   5.696  10.039   2.364  0.3602 -0.8346 -0.5973
  920MOL0     O24100   5.782   9.966   2.434  0.3087 -0.1494 -0.4951
  920MOL0     C24101   5.860  10.015   2.541 -0.1048  0.3715 -0.0437
  920MOL0     C24102   5.943   9.895   2.599 -0.3996 -0.8362 -0.6512
  920MOL0     C24103   6.045   9.938   2.704 -0.0812  0.3987  0.0035
  920MOL0     C24104   6.116   9.832   2.803 -0.7521  0.6444  0.5444
  920MOL0     C24105   6.217   9.745   2.720 -0.0033 -0.3612 -0.3197
  920MOL0     C24106   6.297   9.655   2.808  0.0431  1.1559  0.1799
  920MOL0     C24107   6.216   9.535   2.860 -0.1862  0.0241 -0.4470
  920MOL0     C24108   6.309   9.471   2.964 -0.0930 -0.6871  0.0371
  920MOL0    Cl24109   6.413   9.365   2.875  0.2194  0.0049 -0.0784
  920MOL0     C24110   5.642  10.001   2.232 -1.3538 -0.4196  1.0537
  920MOL0     C24111   5.546  10.074   2.162  0.0767 -0.1595 -0.1828
  920MOL0     O24112   5.402  10.247   1.946  0.3626  0.1540 -0.3259
  920MOL0     C24113   5.120  10.370   2.114  0.2541 -0.3948  0.0966
  920MOL0     C24114   5.005  10.439   2.087  0.2248 -0.1153 -0.8637
  920MOL0     N24115   4.525  10.751   1.703  0.5969 -0.2708 -0.5572
  920MOL0     N24116   4.497  10.877   1.684 -0.7780  0.2568  0.3710
  920MOL0     C24117   3.783  10.782   0.726 -0.6338 -0.2219 -0.5752
  920MOL0     C24118   3.662  10.745   0.672  0.4571  0.1125  0.2862
  920MOL0     C24119   3.353  10.518   0.437  0.2803  0.2218 -0.4399
  920MOL0     C24120   3.275  10.620   0.370  1.5344  0.7507  0.3822
  920MOL0     C24121   3.140  10.605   0.340  0.4369  0.2563  0.0600
  920MOL0     C24122   3.066  10.490   0.380 -0.4765 -0.2635  0.1061
  920MOL0     O24123   2.933  10.481   0.369  0.3665  0.4292 -0.5106
  920MOL0     C24124   2.863  10.563   0.272 -0.8383  1.0937  0.0424
  920MOL0     C24125   2.728  10.514   0.241 -0.1513 -0.5341 -0.1177
  920MOL0     C24126   2.623  10.525   0.342 -0.2615  0.7886 -0.6477
  920MOL0     C24127   2.500  10.460   0.275  0.5078  0.1538 -0.1690
  920MOL0     C24128   2.379  10.467   0.367  0.0809  0.7772 -0.5486
  920MOL0     C24129   2.282  10.461   0.446  0.6661 -0.5991  0.8491
  920MOL0     C24130   3.134  10.398   0.455  0.1628 -0.1773 -1.0502
  920MOL0     C24131   3.277  10.404   0.485 -0.0796  0.5277  0.0590
  920MOL0     C24132   3.340  10.280   0.551 -0.6982 -0.7151  0.2266
  920MOL0     H24133   3.759  10.637   0.370 -1.3245  1.5762 -0.2932
  920MOL0     H24134   3.981  10.726   0.452 -0.0004 -3.2859 -0.4419
  920MOL0     H24135   3.979  10.973   0.813 -0.9080 -1.4073 -0.2913
  920MOL0     H24136   3.987  10.815   0.907 -1.0065  0.3161  0.0266
  920MOL0     H24137   4.217  10.984   0.800 -1.9869 -0.8324 -1.3753
  920MOL0     H24138   4.242  10.818   0.855 -0.8827 -1.7403  1.7847
  920MOL0     H24139   4.120  10.891   1.077  1.9195 -1.3449  0.0774
  920MOL0     H24140   4.154  11.062   1.019  3.3117 -0.2766  1.5631
  920MOL0     H24141   4.350  10.831   1.088 -3.3708 -0.5531  0.0560
  920MOL0     H24142   4.388  10.984   0.996 -2.3936  2.5339 -0.0830
  920MOL0     H24143   4.467  11.039   1.195 -0.1010 -0.1243 -1.1787
  920MOL0     H24144   4.307  11.117   1.188 -2.4758 -1.1963  0.4293
  920MOL0     H24145   4.213  10.929   1.316  0.3019  1.6831 -0.1247
  920MOL0     H24146   4.375  10.861   1.321  2.0171  1.4249  0.8987
  920MOL0     H24147   4.291  11.004   1.530  3.6309  1.2656  0.5210
  920MOL0     H24148   4.330  11.138   1.416  0.5643  2.0236  1.0646
  920MOL0     H24149   4.558  11.046   1.396  0.4338 -2.0460  0.2571
  920MOL0     H24150   4.527  11.120   1.547 -0.8376  0.0144  0.1567
  920MOL0     H24151   4.618  10.787   1.382  1.0572  0.9721  0.3066
  920MOL0     H24152   4.556  10.496   1.622 -1.0266 -1.7276 -2.4185
  920MOL0     H24153   4.577  10.520   1.455  2.4307 -2.3963 -0.1322
  920MOL0     H24154   4.777  10.445   1.528 -0.6324 -1.3927  1.9069
  920MOL0     H24155   4.804  10.622   1.495 -0.8813 -1.2717 -2.7463
  920MOL0     H24156   4.779  10.678   1.732 -1.8889 -1.1687 -0.6363
  920MOL0     H24157   4.912  10.562   1.696  0.4124 -1.6519 -2.8474
  920MOL0     H24158   4.768  10.376   1.780 -1.2741  0.2992 -0.2227
  920MOL0     H24159   4.651  10.492   1.829  0.4629 -1.8335 -1.3009
  920MOL0     H24160   4.974  10.336   1.762 -0.1684 -3.5954  1.2067
  920MOL0     H24161   5.166  10.209   1.817  2.8309 -1.5336  2.0509
  920MOL0     H24162   5.487  10.312   2.395  1.5720 -0.2307  1.7031
  920MOL0     H24163   5.660  10.211   2.508 -1.9809  0.6646 -0.7350
  920MOL0     H24164   5.913  10.102   2.503 -0.7261  1.4469  1.4609
  920MOL0     H24165   5.791  10.045   2.621 -1.4586 -1.9605 -0.2428
  920MOL0     H24166   5.874   9.822   2.642 -0.7874 -1.1967 -1.8504
  920MOL0     H24167   5.990   9.854   2.509 -1.3388  2.5281 -2.8722
  920MOL0     H24168   6.118  10.004   2.656 -1.5314  1.7937 -0.3570
  920MOL0     H24169   5.979   9.997   2.768 -0.9962 -1.0043  0.4004
  920MOL0     H24170   6.038   9.774   2.854 -3.1449  2.2907 -1.0255
  920MOL0     H24171   6.177   9.889   2.874 -0.3835 -1.6056  2.1332
  920MOL0     H24172   6.291   9.811   2.676 -1.2561  0.6353 -0.9729
  920MOL0     H24173   6.169   9.683   2.643 -3.1291  3.6450 -1.9575
  920MOL0     H24174   6.375   9.609   2.746  1.7663  0.5029  2.6953
  920MOL0     H24175   6.342   9.708   2.892 -2.1050  3.4467  0.0029
  920MOL0     H24176   6.187   9.464   2.782  2.1808 -0.0045 -1.4037
  920MOL0     H24177   6.124   9.569   2.908 -0.3402 -0.3979 -0.4365
  920MOL0     H24178   6.352   9.552   3.024 -0.7326  0.2917 -0.7886
  920MOL0     H24179   6.256   9.411   3.038  0.2411 -0.0731  0.7895
  920MOL0     H24180   5.683   9.913   2.184 -3.9136 -0.0544 -2.1076
  920MOL0     H24181   5.519  10.033   2.065  1.2022 -0.4864 -0.3846
  920MOL0     H24182   5.150  10.395   2.215 -1.3553 -2.4457  1.1653
  920MOL0     H24183   4.965  10.503   2.166 -1.4652 -2.0587 -0.0705
  920MOL0     H24184   3.783  10.819   0.828 -1.7176  2.6496 -1.5329
  920MOL0     H24185   3.574  10.772   0.728  0.9624  1.2768  0.5490
  920MOL0     H24186   3.313  10.714   0.331 -0.0730  1.8590  1.3829
  920MOL0     H24187   3.083  10.679   0.285 -1.4057 -0.4994  0.9020
  920MOL0     H24188   2.907  10.546   0.174 -3.5741  0.1026 -1.1112
  920MOL0     H24189   2.858  10.670   0.297 -4.1661  0.7201  1.5017
  920MOL0     H24190   2.738  10.409   0.211  1.0248 -1.5095  3.2151
  920MOL0     H24191   2.712  10.577   0.154  3.9952 -0.8081 -1.2742
  920MOL0     H24192   2.612  10.626   0.381  2.8698  0.3886  1.7535
  920MOL0     H24193   2.651  10.457   0.423 -0.7381 -0.4627 -1.5026
  920MOL0     H24194   2.479  10.507   0.179  0.1506  0.3771  0.0166
  920MOL0     H24195   2.533  10.356   0.259  0.3445  0.4789 -3.2373
  920MOL0     H24196   2.189  10.460   0.499 -0.5455  2.2012 -0.9737
  920MOL0     H24197   3.073  10.318   0.496  0.7896 -0.9113 -1.5029
  920MOL0     H24198   3.261  10.208   0.572 -1.3406 -0.1173 -0.0918
  920MOL0     H24199   3.404  10.232   0.476  0.7469  1.2836  0.0829
  920MOL0     H24200   3.394  10.305   0.643 -1.4588  2.7613 -0.1213
  921MOL0     O24201   8.635   0.759   8.244 -0.3677 -0.2469  0.0122
  921MOL0     C24202   8.709   0.667   8.284 -0.6999  0.8815  0.6107
  921MOL0     O24203   8.672   0.543   8.327  0.3855 -0.5510 -0.2824
  921MOL0     C24204   8.539   0.507   8.336  0.4527 -0.3299 -0.0680
  921MOL0     C24205   8.489   0.409   8.423  0.2610  0.0721  0.1474
  921MOL0     C24206   8.360   0.355   8.417 -0.6858 -0.1163 -0.1835
  921MOL0     C24207   8.262   0.408   8.336 -0.3091  0.2603  0.4141
  921MOL0     O24208   8.134   0.364   8.312 -0.3688  0.1986  0.1022
  921MOL0     C24209   8.062   0.280   8.403  0.7049 -0.4188 -0.0587
  921MOL0     C24210   7.914   0.262   8.375  0.2732 -0.0168  0.1030
  921MOL0     C24211   7.877   0.169   8.260  0.0888  0.1107  0.5157
  921MOL0     C24212   7.724   0.165   8.255  0.7276 -0.7963 -0.5717
  921MOL0     C24213   7.667   0.107   8.129 -0.3090 -0.3709 -1.0807
  921MOL0     C24214   7.513   0.102   8.129  0.6712  0.0972 -0.1151
  921MOL0     C24215   7.445   0.046   7.999 -0.3517 -0.4140 -0.0289
  921MOL0     C24216   7.515  -0.079   7.949  0.5839  0.7575  0.7931
  921MOL0     N24217   7.480  -0.193   8.038  0.6940 -0.9601 -0.0588
  921MOL0     C24218   7.414  -0.312   8.010  1.3188 -0.6081  0.2871
  921MOL0     C24219   7.431  -0.401   8.114 -0.1763 -0.1217  0.5124
  921MOL0     C24220   7.377  -0.543   8.118 -0.5438 -1.0634  0.6082
  921MOL0     C24221   7.479  -0.622   8.031  0.7587  0.7596  0.1503
  921MOL0     C24222   7.623  -0.619   8.077  0.2123 -0.0369 -0.1121
  921MOL0     C24223   7.643  -0.684   8.219  0.1280  0.6010  0.6561
  921MOL0     O24224   7.772  -0.742   8.226  0.2374 -0.0848 -0.3177
  921MOL0     C24225   7.894  -0.665   8.233  0.2226  0.3234 -0.3069
  921MOL0     C24226   7.903  -0.522   8.243 -0.0803 -0.1567 -0.2257
  921MOL0     C24227   8.017  -0.446   8.226 -0.9276  0.1874  0.0038
  921MOL0     C24228   8.144  -0.517   8.201  0.8639 -0.7376  0.3170
  921MOL0     C24229   8.273  -0.448   8.201 -0.3924  0.0317 -1.0082
  921MOL0     O24230   8.386  -0.523   8.188 -0.0293  0.6269 -0.5320
  921MOL0     C24231   8.513  -0.450   8.185  1.4124  0.1188 -0.2600
  921MOL0     C24232   8.550  -0.349   8.269 -0.2208 -1.3143  0.2720
  921MOL0     C24233   8.669  -0.280   8.229  0.7634  1.4115 -0.0267
  921MOL0     C24234   8.747  -0.307   8.117 -0.2511  0.4350 -0.9272
  921MOL0     O24235   8.853  -0.224   8.088  0.4980  0.4142  0.4876
  921MOL0     C24236   8.967  -0.277   8.026  0.4494  0.6115 -0.0763
  921MOL0     C24237   9.092  -0.210   8.089  1.0109  0.0638 -0.0654
  921MOL0     C24238   9.090  -0.061   8.057  0.0070 -0.0683  0.4341
  921MOL0     C24239   9.164   0.025   8.159 -0.3850  0.4826  0.5518
  921MOL0     C24240   9.169   0.173   8.122  0.1269  0.4429  0.1591
  921MOL0     C24241   9.298   0.246   8.183 -0.3843  0.2875  0.0339
  921MOL0     C24242   9.419   0.233   8.084  0.6032 -0.7206 -0.2900
  921MOL0     C24243   9.552   0.290   8.151 -0.0505 -0.5495 -0.7309
  921MOL0    Cl24244   9.671   0.368   8.047 -0.0183  0.2652 -0.2154
  921MOL0     C24245   8.703  -0.411   8.034 -0.3235  0.4639 -0.1703
  921MOL0     C24246   8.588  -0.480   8.071  0.7538 -0.0764  0.1767
  921MOL0     O24247   8.272  -0.328   8.214  0.0584  0.2251  0.1761
  921MOL0     C24248   8.138  -0.658   8.193 -0.0601 -0.4710  0.2845
  921MOL0     C24249   8.018  -0.724   8.210  0.6109  0.3926  0.3016
  921MOL0     N24250   7.534  -0.349   8.189  0.2319 -0.3126 -0.6489
  921MOL0     N24251   7.557  -0.231   8.145 -0.2136  0.1204 -0.1314
  921MOL0     C24252   8.307   0.515   8.252  1.1342  0.4384  0.1651
  921MOL0     C24253   8.438   0.555   8.251 -0.5631 -0.7599 -0.6935
  921MOL0     C24254   8.858   0.704   8.274  0.4648 -0.3775  0.0029
  921MOL0     C24255   8.897   0.786   8.165  0.1287 -0.0909 -0.7737
  921MOL0     C24256   9.029   0.823   8.157 -0.4140 -0.8721  0.6745
  921MOL0     C24257   9.124   0.777   8.252  0.5532 -0.3954  0.0721
  921MOL0     O24258   9.261   0.804   8.254 -0.5357 -0.2071  0.3697
  921MOL0     C24259   9.333   0.740   8.144  0.1252  0.6577  0.1124
  921MOL0     C24260   9.472   0.806   8.112  0.7915 -0.1595 -0.4991
  921MOL0     C24261   9.574   0.766   8.217  0.3922 -0.4277 -0.1781
  921MOL0     C24262   9.717   0.826   8.211  0.0100  0.7690 -1.1469
  921MOL0     C24263   9.719   0.967   8.247 -0.1252 -0.3129  0.0740
  921MOL0     C24264   9.757   1.078   8.289 -0.1336 -0.3717 -0.4111
  921MOL0     C24265   9.082   0.706   8.363  0.3353  0.6317 -0.0398
  921MOL0     C24266   8.946   0.671   8.372 -0.4260 -0.9139 -0.6651
  921MOL0     C24267   8.915   0.596   8.499 -0.3276 -0.6246 -0.0156
  921MOL0     H24268   8.563   0.370   8.492  0.5020 -2.4345 -1.3935
  921MOL0     H24269   8.322   0.281   8.487 -1.1878 -0.8785 -1.2184
  921MOL0     H24270   8.105   0.179   8.397 -0.4492 -1.0104  1.1878
  921MOL0     H24271   8.070   0.305   8.509  1.8984 -2.1946  0.3025
  921MOL0     H24272   7.873   0.363   8.369 -2.0680 -0.9207 -0.1997
  921MOL0     H24273   7.870   0.211   8.461 -1.0860  1.3995  0.2996
  921MOL0     H24274   7.925   0.071   8.267 -2.2926 -1.3853 -2.1584
  921MOL0     H24275   7.919   0.211   8.168 -1.2482 -1.2353 -0.7553
  921MOL0     H24276   7.682   0.103   8.335  0.3715 -0.6532 -0.6449
  921MOL0     H24277   7.684   0.265   8.269  0.9858 -0.5704 -1.3593
  921MOL0     H24278   7.703   0.171   8.048  2.0114 -1.7777 -1.2513
  921MOL0     H24279   7.705   0.007   8.108  0.6396 -0.6014  1.4082
  921MOL0     H24280   7.478   0.033   8.206  2.2196 -0.7410 -0.1171
  921MOL0     H24281   7.472   0.201   8.152 -3.3098 -0.9818 -1.6932
  921MOL0     H24282   7.460   0.117   7.917  0.4385  0.8413  1.1569
  921MOL0     H24283   7.340   0.026   8.018 -0.4438 -0.8051 -0.9245
  921MOL0     H24284   7.472  -0.113   7.854 -0.3501  0.0583  1.4512
  921MOL0     H24285   7.622  -0.072   7.925  0.0681  0.2590 -2.0639
  921MOL0     H24286   7.344  -0.324   7.928  2.5441  0.7074 -1.0367
  921MOL0     H24287   7.370  -0.586   8.218 -0.8532 -3.0539 -0.2129
  921MOL0     H24288   7.272  -0.546   8.085 -0.2624 -2.0556 -0.2690
  921MOL0     H24289   7.445  -0.726   8.032  0.2461  0.8781 -1.4982
  921MOL0     H24290   7.477  -0.582   7.929  0.1508  1.8286  0.5720
  921MOL0     H24291   7.670  -0.520   8.076  2.1412 -0.8904 -1.2979
  921MOL0     H24292   7.693  -0.676   8.015 -1.6816 -1.9116 -0.6515
  921MOL0     H24293   7.565  -0.758   8.234 -1.9590  2.8519  1.6107
  921MOL0     H24294   7.636  -0.609   8.299  0.7521  1.4995 -0.1063
  921MOL0     H24295   7.812  -0.464   8.252 -1.2257 -2.0920  1.5355
  921MOL0     H24296   8.021  -0.340   8.251 -1.9087  0.7124 -1.8957
  921MOL0     H24297   8.489  -0.320   8.354  1.7039 -0.3812  1.3941
  921MOL0     H24298   8.691  -0.192   8.290  1.7427 -0.3012  2.2236
  921MOL0     H24299   8.964  -0.382   8.054 -2.7660  1.0212  1.6802
  921MOL0     H24300   8.968  -0.257   7.918  0.0363  0.7644 -0.0577
  921MOL0     H24301   9.083  -0.220   8.198  0.5638 -1.3729 -0.2118
  921MOL0     H24302   9.183  -0.257   8.052  1.2990  0.6384 -0.0957
  921MOL0     H24303   9.147  -0.048   7.964 -0.1196 -1.4758  0.1401
  921MOL0     H24304   8.989  -0.027   8.035  0.7945  0.8341 -2.2190
  921MOL0     H24305   9.267  -0.010   8.163  0.4973  3.0016  2.1383
  921MOL0     H24306   9.122   0.010   8.259 -0.5285  0.4169  0.4825
  921MOL0     H24307   9.081   0.233   8.144 -0.5273  0.4164 -2.1165
  921MOL0     H24308   9.171   0.183   8.013 -0.7529  2.5467  0.2895
  921MOL0     H24309   9.283   0.353   8.199  3.1000  0.9876 -0.5333
  921MOL0     H24310   9.318   0.202   8.281  0.5230 -0.9076 -0.6591
  921MOL0     H24311   9.407   0.294   7.994  0.9831  0.5587  0.4919
  921MOL0     H24312   9.443   0.127   8.072  2.4195 -0.2663 -1.0957
  921MOL0     H24313   9.530   0.362   8.230  1.1067 -2.1424  1.1546
  921MOL0     H24314   9.598   0.211   8.212 -2.4066 -0.6397  1.0725
  921MOL0     H24315   8.761  -0.427   7.944  1.6429 -0.4140  1.1657
  921MOL0     H24316   8.545  -0.567   8.021  1.0293 -1.1620  1.7685
  921MOL0     H24317   8.222  -0.713   8.153  1.1326  3.0522 -2.7222
  921MOL0     H24318   8.020  -0.831   8.194 -2.8873  0.4922 -1.9064
  921MOL0     H24319   8.235   0.557   8.182  0.8368 -1.1945 -0.5662
  921MOL0     H24320   8.456   0.634   8.179 -1.5657  0.3845  0.2647
  921MOL0     H24321   8.838   0.829   8.085  0.7244  0.7908 -0.7454
  921MOL0     H24322   9.057   0.877   8.068 -0.5734 -0.4229  0.8955
  921MOL0     H24323   9.269   0.735   8.056 -0.8348 -2.7308  0.8687
  921MOL0     H24324   9.360   0.636   8.165  1.0337  0.4950 -1.6834
  921MOL0     H24325   9.475   0.915   8.096 -1.3267  0.2598  1.5410
  921MOL0     H24326   9.510   0.759   8.020 -0.3779 -1.3138 -0.4097
  921MOL0     H24327   9.592   0.658   8.214  0.0889 -0.4954  0.3146
  921MOL0     H24328   9.534   0.796   8.314 -0.2892 -0.3192 -0.4854
  921MOL0     H24329   9.773   0.766   8.283 -1.0856  1.2284  0.1503
  921MOL0     H24330   9.769   0.807   8.117  1.6733  1.8453 -0.4751
  921MOL0     H24331   9.785   1.176   8.322  0.1550 -0.0187 -1.6642
  921MOL0     H24332   9.153   0.673   8.438 -1.4068 -1.9108  0.6210
  921MOL0     H24333   8.988   0.632   8.572  1.3728 -0.1364 -1.8577
  921MOL0     H24334   8.813   0.617   8.530 -0.2368  0.4556 -0.3846
  921MOL0     H24335   8.927   0.491   8.472  1.7486 -0.8045  1.3990
  922MOL0     O24336   0.352   0.496   8.369 -0.1711 -0.5062  0.1316
  922MOL0     C24337   0.325   0.516   8.488  0.1926 -0.3907 -0.6517
  922MOL0     O24338   0.403   0.607   8.568  0.4754  0.0012 -0.3489
  922MOL0     C24339   0.503   0.674   8.512  0.5434 -0.4559  0.8416
  922MOL0     C24340   0.629   0.640   8.563 -0.4900  0.2280 -0.7059
  922MOL0     C24341   0.742   0.691   8.500  0.4554 -0.7527 -0.1011
  922MOL0     C24342   0.728   0.776   8.388  0.1421 -0.0748  0.4563
  922MOL0     O24343   0.842   0.793   8.313  0.3864  0.6418 -0.7437
  922MOL0     C24344   0.819   0.779   8.175 -0.4684  0.0131  0.0896
  922MOL0     C24345   0.960   0.755   8.104  0.4582  0.2052 -0.5400
  922MOL0     C24346   1.017   0.897   8.060  0.4772  0.0460 -0.4974
  922MOL0     C24347   1.170   0.914   8.037 -0.1530 -0.2578 -0.1772
  922MOL0     C24348   1.184   1.056   7.982  0.0442  0.0538 -0.0712
  922MOL0     C24349   1.336   1.086   7.985  0.8837 -0.4956 -0.8269
  922MOL0     C24350   1.381   1.223   7.928 -0.3641 -0.4123 -0.1525
  922MOL0     C24351   1.534   1.236   7.950  0.2292  0.2892 -1.1435
  922MOL0     N24352   1.582   1.370   7.918  0.0565  0.6986  0.3648
  922MOL0     C24353   1.710   1.397   7.950 -0.2848 -0.2412 -0.5576
  922MOL0     C24354   1.714   1.537   7.918 -0.1768 -0.2067 -0.2143
  922MOL0     C24355   1.840   1.625   7.942  0.3062  0.4052 -0.6015
  922MOL0     C24356   1.977   1.549   7.982 -0.7903  0.0242  0.3911
  922MOL0     C24357   2.038   1.482   7.864  0.7292 -0.5695  0.2162
  922MOL0     C24358   2.156   1.389   7.905 -0.1891 -0.2502  0.5970
  922MOL0     O24359   2.266   1.473   7.948 -0.1773 -0.2746 -0.7835
  922MOL0     C24360   2.390   1.408   7.946 -0.4742 -0.1265  0.2390
  922MOL0     C24361   2.419   1.275   7.902 -0.2391 -0.3734 -0.5124
  922MOL0     C24362   2.553   1.229   7.906  0.0921 -0.1115  0.2884
  922MOL0     C24363   2.656   1.309   7.946 -0.2923 -0.8184 -0.9566
  922MOL0     C24364   2.789   1.253   7.960  0.6776 -0.9718  0.3624
  922MOL0     O24365   2.885   1.342   8.006  0.1178  0.0276 -0.0412
  922MOL0     C24366   3.010   1.296   8.017  0.7999 -0.0610 -0.6262
  922MOL0     C24367   3.101   1.338   7.922 -0.7308 -0.2491 -0.6162
  922MOL0     C24368   3.241   1.313   7.933  0.0703 -0.0417 -0.6050
  922MOL0     C24369   3.283   1.258   8.062  0.3816  0.0595  0.0978
  922MOL0     O24370   3.402   1.235   8.100 -0.0199  0.3610  0.2409
  922MOL0     C24371   3.498   1.198   7.992 -0.1211  0.4253 -0.2673
  922MOL0     C24372   3.632   1.149   8.058 -0.6638 -0.5764  0.0417
  922MOL0     C24373   3.733   1.104   7.950 -0.1925 -0.2149 -0.3229
  922MOL0     C24374   3.872   1.065   8.018  0.5402 -0.7773 -0.6968
  922MOL0     C24375   3.974   1.019   7.914  0.4076  0.6291 -0.2204
  922MOL0     C24376   4.099   0.960   8.001 -0.0161 -0.1068 -0.5460
  922MOL0     C24377   4.208   0.914   7.911 -0.0291  0.0953  0.6416
  922MOL0     C24378   4.242   0.771   7.949  0.4132 -0.5150  0.4830
  922MOL0    Cl24379   4.342   0.700   7.816 -0.1177  0.0556  0.3776
  922MOL0     C24380   3.188   1.233   8.162  0.1808  0.0370 -0.7544
  922MOL0     C24381   3.054   1.249   8.143  0.3887  0.1628 -0.3403
  922MOL0     O24382   2.803   1.136   7.925 -0.5285  0.0695 -0.0153
  922MOL0     C24383   2.635   1.440   8.003 -0.0333 -0.4063  0.2710
  922MOL0     C24384   2.501   1.487   7.989  0.8110 -0.1742  0.1501
  922MOL0     N24385   1.595   1.576   7.860 -0.1630 -0.4957  0.3752
  922MOL0     N24386   1.513   1.478   7.862 -0.6000 -0.1395 -0.3591
  922MOL0     C24387   0.601   0.823   8.342 -0.6785  0.5555 -0.4510
  922MOL0     C24388   0.487   0.774   8.410  1.1325  0.3421  0.6378
  922MOL0     C24389   0.239   0.431   8.568 -0.2007  0.6042 -0.3663
  922MOL0     C24390   0.290   0.396   8.694  0.6052  0.4012 -0.0329
  922MOL0     C24391   0.209   0.311   8.778  0.3954 -0.0798 -0.0486
  922MOL0     C24392   0.084   0.267   8.741 -1.1564  0.1746  0.8853
  922MOL0     O24393   0.037   0.171   8.824  1.4507  0.3209 -0.1051
  922MOL0     C24394  -0.096   0.118   8.815  0.2455 -0.3451  0.3444
  922MOL0     C24395  -0.207   0.222   8.852 -0.7079 -0.4917  0.4254
  922MOL0     C24396  -0.186   0.266   8.990 -0.8585 -1.0964  0.1600
  922MOL0     C24397  -0.309   0.343   9.043 -0.0178 -0.2895  0.1764
  922MOL0     C24398  -0.294   0.360   9.188  0.0151 -0.1510 -0.1049
  922MOL0     C24399  -0.283   0.388   9.306 -1.3645 -0.5451 -0.1082
  922MOL0     C24400   0.036   0.303   8.613 -1.3045 -0.0457 -0.1538
  922MOL0     C24401   0.119   0.379   8.521 -0.1192  0.4997 -0.0456
  922MOL0     C24402   0.075   0.398   8.372  0.1507 -0.0557 -0.0235
  922MOL0     H24403   0.644   0.576   8.650  0.7603  2.7984  1.1102
  922MOL0     H24404   0.843   0.661   8.525  0.8638  1.6702  1.4641
  922MOL0     H24405   0.746   0.700   8.156  1.0247 -1.9810  2.0361
  922MOL0     H24406   0.787   0.874   8.133  0.8673 -0.0232 -1.1119
  922MOL0     H24407   0.944   0.693   8.016 -2.4144 -1.4719  1.0147
  922MOL0     H24408   1.026   0.705   8.175  0.6048  0.2600 -0.6374
  922MOL0     H24409   0.994   0.970   8.138  0.7205 -0.1961 -0.1991
  922MOL0     H24410   0.960   0.912   7.968 -3.1168 -4.3685  0.6817
  922MOL0     H24411   1.217   0.895   8.134  0.8259  0.7347 -0.4421
  922MOL0     H24412   1.215   0.843   7.967 -1.5205 -3.1418  1.6543
  922MOL0     H24413   1.151   1.051   7.878  3.1374 -0.2313 -1.1155
  922MOL0     H24414   1.129   1.135   8.033  1.1868  1.3713 -0.8438
  922MOL0     H24415   1.358   1.080   8.092 -2.2921 -2.9639 -0.1404
  922MOL0     H24416   1.393   1.005   7.939 -0.8346 -2.2711  0.0608
  922MOL0     H24417   1.328   1.303   7.981  0.1654  2.9738 -4.2073
  922MOL0     H24418   1.353   1.238   7.823 -0.8329 -1.5894 -0.2163
  922MOL0     H24419   1.566   1.211   8.052 -0.7887 -0.2660 -0.9538
  922MOL0     H24420   1.579   1.158   7.887  0.5087  0.5800 -1.3069
  922MOL0     H24421   1.786   1.335   7.997  3.0324  3.2140 -0.8753
  922MOL0     H24422   1.858   1.689   7.855 -0.6879 -0.0104 -1.1272
  922MOL0     H24423   1.809   1.680   8.031 -3.2898 -1.2897 -0.6025
  922MOL0     H24424   2.054   1.617   8.019 -1.4310  0.0480  1.7330
  922MOL0     H24425   1.947   1.474   8.056 -0.6389 -2.9571 -2.3335
  922MOL0     H24426   2.074   1.556   7.792  0.4247 -0.1507  0.4899
  922MOL0     H24427   1.968   1.416   7.813  0.1957 -0.3373  0.6380
  922MOL0     H24428   2.172   1.340   7.808 -1.8083  1.6295 -0.7162
  922MOL0     H24429   2.135   1.316   7.984 -0.9604  0.8959  1.4859
  922MOL0     H24430   2.334   1.210   7.879 -0.7215  0.5187 -1.3449
  922MOL0     H24431   2.573   1.127   7.876 -2.0790 -0.0420 -1.7294
  922MOL0     H24432   3.067   1.373   7.825  3.5306  0.2423 -2.1243
  922MOL0     H24433   3.302   1.335   7.846  2.1360  0.8479  0.9680
  922MOL0     H24434   3.463   1.127   7.917  1.9768  0.2950 -1.1660
  922MOL0     H24435   3.509   1.291   7.935  1.4381  0.1273 -0.4728
  922MOL0     H24436   3.669   1.235   8.114  1.1777 -0.5790 -1.0893
  922MOL0     H24437   3.615   1.069   8.131  1.7190 -0.6227  0.6271
  922MOL0     H24438   3.696   1.017   7.896 -2.1390  1.0603 -1.1521
  922MOL0     H24439   3.745   1.181   7.873  0.9671  0.0091  0.0669
  922MOL0     H24440   3.841   0.992   8.092  0.8340 -2.4042 -2.1086
  922MOL0     H24441   3.929   1.140   8.074  1.0785 -1.2488 -0.6061
  922MOL0     H24442   4.003   1.089   7.836  0.4554 -3.2275 -4.0315
  922MOL0     H24443   3.926   0.939   7.856  1.4926  2.5792 -4.1372
  922MOL0     H24444   4.131   1.050   8.056 -1.4762  0.0250  0.1309
  922MOL0     H24445   4.060   0.885   8.070 -0.9674  1.0692  0.2291
  922MOL0     H24446   4.290   0.985   7.927  0.0302  0.8432 -2.3395
  922MOL0     H24447   4.182   0.927   7.805 -0.0778  1.2215  0.7726
  922MOL0     H24448   4.299   0.780   8.042  1.6244  1.1154 -0.3647
  922MOL0     H24449   4.154   0.713   7.978 -0.5762  1.2365  1.1152
  922MOL0     H24450   3.229   1.206   8.258  1.9656 -1.4016 -1.8411
  922MOL0     H24451   3.003   1.217   8.233  2.5546 -2.8128 -0.0293
  922MOL0     H24452   2.713   1.504   8.043  1.4996 -3.0444  1.8134
  922MOL0     H24453   2.480   1.589   8.020  0.8763  0.3227 -1.3584
  922MOL0     H24454   0.595   0.890   8.257 -1.9721 -0.6969 -1.3981
  922MOL0     H24455   0.389   0.811   8.381  1.3651  2.4204  2.1848
  922MOL0     H24456   0.383   0.440   8.726 -0.9381  5.0300 -1.1747
  922MOL0     H24457   0.244   0.289   8.878  0.3949 -2.2622 -0.4976
  922MOL0     H24458  -0.103   0.026   8.874 -0.4390 -0.2921  0.3495
  922MOL0     H24459  -0.112   0.093   8.710  1.2586  2.5583 -0.6182
  922MOL0     H24460  -0.304   0.172   8.848 -0.1634 -1.6056  0.7819
  922MOL0     H24461  -0.209   0.314   8.793 -4.5605 -0.4004  0.4063
  922MOL0     H24462  -0.108   0.342   8.986 -1.4102 -0.5620 -1.0512
  922MOL0     H24463  -0.158   0.188   9.061  0.5987 -0.5322  0.2373
  922MOL0     H24464  -0.311   0.437   8.986  3.2726 -0.9106 -1.2665
  922MOL0     H24465  -0.403   0.293   9.019 -1.1483  0.9268  1.8399
  922MOL0     H24466  -0.277   0.416   9.409  0.3160 -1.6476  0.1311
  922MOL0     H24467  -0.063   0.280   8.577 -1.6082  0.5531  0.2864
  922MOL0     H24468  -0.026   0.357   8.362 -0.0969  0.3428  0.7409
  922MOL0     H24469   0.074   0.498   8.330  1.2351 -0.6294 -1.5091
  922MOL0     H24470   0.129   0.340   8.297 -4.1493 -2.6144 -1.4827
  923MOL0     O24471   8.083   3.146   8.311  0.3362  0.0897 -0.1554
  923MOL0     C24472   8.063   3.025   8.287 -0.3117 -0.5987 -0.0096
  923MOL0     O24473   8.159   2.931   8.312  0.0996  0.3039  0.6981
  923MOL0     C24474   8.278   2.969   8.363 -0.1399 -0.7255  0.2957
  923MOL0     C24475   8.307   2.947   8.495 -0.5914  0.5385  0.7662
  923MOL0     C24476   8.434   2.968   8.541 -0.1569 -0.8210  1.1427
  923MOL0     C24477   8.528   3.019   8.459 -0.2697 -0.5338  0.1464
  923MOL0     O24478   8.661   3.038   8.504  0.3054  0.2976 -0.3433
  923MOL0     C24479   8.757   2.994   8.413 -0.1646  0.4610  0.1544
  923MOL0     C24480   8.889   2.977   8.483  0.1511  0.4046 -0.6572
  923MOL0     C24481   8.997   2.919   8.393  0.3934 -0.6932  1.0964
  923MOL0     C24482   9.146   2.950   8.424 -0.2274  0.0209 -0.2444
  923MOL0     C24483   9.193   2.861   8.545 -0.5466 -0.2944  0.1010
  923MOL0     C24484   9.345   2.810   8.528  1.0118  0.4124 -0.1435
  923MOL0     C24485   9.463   2.911   8.519 -0.1641 -0.1154  0.0657
  923MOL0     C24486   9.610   2.860   8.516  0.1614 -0.0117  0.4025
  923MOL0     N24487   9.654   2.820   8.657  0.1476 -0.4218  0.7276
  923MOL0     C24488   9.726   2.898   8.749  0.0933 -0.1190  1.2202
  923MOL0     C24489   9.755   2.811   8.846  0.2089  0.7194 -0.3392
  923MOL0     C24490   9.839   2.831   8.971 -0.5381  0.4936  0.0261
  923MOL0     C24491   9.979   2.763   8.958  0.7890 -0.0313  0.0568
  923MOL0     C24492  10.088   2.863   8.899 -0.3024  0.8782 -0.4595
  923MOL0     C24493  10.229   2.805   8.887 -0.2220  0.2133  0.0014
  923MOL0     O24494  10.286   2.772   9.019 -0.0974  0.3232 -0.2784
  923MOL0     C24495  10.423   2.745   9.017  0.3403  0.2811  0.1660
  923MOL0     C24496  10.469   2.690   9.139 -0.8967 -0.9392  0.0298
  923MOL0     C24497  10.604   2.647   9.153  0.5630 -0.9491  0.1656
  923MOL0     C24498  10.696   2.672   9.046  0.4812  0.0108 -0.2411
  923MOL0     C24499  10.841   2.641   9.059 -0.0098  0.2784  0.5704
  923MOL0     O24500  10.891   2.633   9.187  0.1161  0.4297  0.1023
  923MOL0     C24501  11.022   2.600   9.201 -0.3522 -0.7307  0.1244
  923MOL0     C24502  11.082   2.484   9.150  0.4655 -0.7236  0.7852
  923MOL0     C24503  11.218   2.452   9.173 -1.0290 -0.5155  0.5565
  923MOL0     C24504  11.297   2.532   9.245 -0.1053 -0.0988 -0.8414
  923MOL0     O24505  11.426   2.494   9.265 -0.1864  0.0995  0.4687
  923MOL0     C24506  11.517   2.561   9.345 -0.7038 -0.9833  0.2641
  923MOL0     C24507  11.659   2.497   9.315 -0.0644 -0.6287 -1.1476
  923MOL0     C24508  11.747   2.534   9.424  0.4896  0.5803 -0.2505
  923MOL0     C24509  11.890   2.489   9.397 -1.0813  0.4415 -0.0098
  923MOL0     C24510  11.982   2.487   9.526  0.4429 -0.8003 -0.0126
  923MOL0     C24511  12.043   2.629   9.572 -0.0918  0.8392  0.6609
  923MOL0     C24512  12.152   2.669   9.470  0.0350  0.1934  0.2354
  923MOL0     C24513  12.216   2.811   9.489  0.3736  0.4655  0.6862
  923MOL0    Cl24514  12.338   2.859   9.360  0.0419 -0.0159 -0.0013
  923MOL0     C24515  11.231   2.643   9.302 -0.5679 -0.4621  1.6321
  923MOL0     C24516  11.105   2.684   9.270  0.1823  0.1500  0.1223
  923MOL0     O24517  10.904   2.622   8.959 -0.1031 -0.0682  0.1364
  923MOL0     C24518  10.641   2.725   8.923 -0.0153 -0.6804  0.4063
  923MOL0     C24519  10.506   2.762   8.907 -0.0349 -0.3201 -0.9152
  923MOL0     N24520   9.706   2.685   8.820  0.1760 -0.3232 -0.1913
  923MOL0     N24521   9.653   2.688   8.700  0.1423 -0.0205  0.1594
  923MOL0     C24522   8.493   3.056   8.333  0.2543 -0.2969 -0.4248
  923MOL0     C24523   8.371   3.024   8.281 -0.9712  0.9061  0.5666
  923MOL0     C24524   7.923   2.991   8.247 -0.0059  0.1103 -0.0447
  923MOL0     C24525   7.898   2.857   8.226  0.0848  0.3433  0.9602
  923MOL0     C24526   7.779   2.808   8.176  0.0268  0.1756  0.7584
  923MOL0     C24527   7.671   2.897   8.158  0.2080  0.3981 -1.2246
  923MOL0     O24528   7.556   2.852   8.098 -0.1273 -0.0356 -0.2688
  923MOL0     C24529   7.436   2.896   8.154  0.3504 -0.2874 -0.4806
  923MOL0     C24530   7.315   2.807   8.113 -0.5091  0.3317 -0.2157
  923MOL0     C24531   7.210   2.817   8.222  0.2642 -0.8529  0.6018
  923MOL0     C24532   7.080   2.743   8.186 -0.5879  0.1887  0.2019
  923MOL0     C24533   6.992   2.803   8.082  0.2992  0.1204  0.0289
  923MOL0     C24534   6.910   2.867   8.007  0.5319 -0.3441  0.3222
  923MOL0     C24535   7.691   3.026   8.192  0.0486  0.4095  0.1932
  923MOL0     C24536   7.809   3.083   8.242 -0.4039  0.6137  0.3630
  923MOL0     C24537   7.808   3.235   8.261  0.0450  0.0854 -0.7671
  923MOL0     H24538   8.241   2.905   8.570  0.7462  0.1460  1.7606
  923MOL0     H24539   8.452   2.937   8.643 -0.5426 -2.0847  0.8421
  923MOL0     H24540   8.722   2.898   8.373 -1.8179  1.6988 -1.5996
  923MOL0     H24541   8.776   3.067   8.334  2.1950 -0.5804 -0.3303
  923MOL0     H24542   8.873   2.916   8.573 -2.3483  3.3036  1.0640
  923MOL0     H24543   8.904   3.080   8.518 -1.6081  0.5755 -0.3526
  923MOL0     H24544   8.997   2.963   8.293 -1.1195 -0.7990  1.0280
  923MOL0     H24545   8.990   2.811   8.378  1.2578 -0.8586  1.7734
  923MOL0     H24546   9.210   2.911   8.344 -2.2245 -2.8164 -0.6488
  923MOL0     H24547   9.162   3.056   8.441 -1.2850 -0.2456  3.1241
  923MOL0     H24548   9.203   2.913   8.641 -0.8109  0.0326 -0.0461
  923MOL0     H24549   9.131   2.772   8.553 -0.7249 -0.4621 -2.2550
  923MOL0     H24550   9.369   2.760   8.622  3.0906  0.2511 -0.7084
  923MOL0     H24551   9.337   2.744   8.441  0.3712 -0.1397  0.3225
  923MOL0     H24552   9.454   2.984   8.600 -1.3324  3.6666 -3.1894
  923MOL0     H24553   9.448   2.968   8.427  2.2016  1.2742  0.4468
  923MOL0     H24554   9.602   2.771   8.453  0.0591 -1.8445  2.8893
  923MOL0     H24555   9.670   2.941   8.474 -3.8749  0.7996 -4.9331
  923MOL0     H24556   9.743   3.004   8.756 -1.1189  0.3922 -1.9051
  923MOL0     H24557   9.844   2.938   8.994 -2.4746  0.8309 -0.8919
  923MOL0     H24558   9.800   2.779   9.060 -1.3211 -0.0387 -0.6102
  923MOL0     H24559  10.009   2.736   9.060  0.2883  2.7811  1.0272
  923MOL0     H24560   9.969   2.668   8.904 -1.2178 -1.7471  3.1705
  923MOL0     H24561  10.094   2.946   8.970 -0.0818 -0.4178  1.0816
  923MOL0     H24562  10.056   2.899   8.800  1.1788  1.7510 -0.6592
  923MOL0     H24563  10.280   2.893   8.846 -0.5663  0.6620  0.5126
  923MOL0     H24564  10.241   2.719   8.821  1.5458 -0.8960  1.6519
  923MOL0     H24565  10.391   2.684   9.214 -0.0579  0.6275  1.0882
  923MOL0     H24566  10.630   2.616   9.254 -1.2060  2.2290  1.7740
  923MOL0     H24567  11.014   2.416   9.099 -2.2251  1.8748  0.6155
  923MOL0     H24568  11.259   2.358   9.139  0.3665  1.0700 -2.4893
  923MOL0     H24569  11.519   2.669   9.327 -1.5852 -1.1560 -1.0290
  923MOL0     H24570  11.495   2.546   9.451 -2.8109 -1.4767 -0.2086
  923MOL0     H24571  11.645   2.389   9.323  2.1329 -0.8074  1.7254
  923MOL0     H24572  11.699   2.515   9.215  2.4045  2.6727  0.2655
  923MOL0     H24573  11.748   2.642   9.437 -2.2768  0.4709  1.7982
  923MOL0     H24574  11.710   2.502   9.522  0.3663  2.1974  0.2467
  923MOL0     H24575  11.930   2.549   9.315 -1.4324 -1.6733 -1.8208
  923MOL0     H24576  11.883   2.387   9.358 -1.3806  0.6585 -0.5344
  923MOL0     H24577  12.073   2.427   9.514  0.8448 -0.5141  1.4139
  923MOL0     H24578  11.935   2.436   9.611 -0.4976 -0.3853 -0.2737
  923MOL0     H24579  11.959   2.698   9.575 -0.0207  0.9304  0.5552
  923MOL0     H24580  12.096   2.635   9.667  0.6623  1.0788  0.2326
  923MOL0     H24581  12.108   2.667   9.369  0.3811 -1.6723  0.0734
  923MOL0     H24582  12.229   2.591   9.476  0.3448  0.6112  2.0450
  923MOL0     H24583  12.133   2.880   9.470 -0.1609 -0.6741 -1.4667
  923MOL0     H24584  12.261   2.821   9.588 -0.8219  2.3271  1.0954
  923MOL0     H24585  11.281   2.709   9.372 -0.8951  0.1505  1.2912
  923MOL0     H24586  11.070   2.773   9.322  0.9328 -0.7104  2.2190
  923MOL0     H24587  10.712   2.744   8.843  1.2759  1.0305  1.8858
  923MOL0     H24588  10.471   2.801   8.812  0.1380  2.9607  0.2561
  923MOL0     H24589   8.561   3.111   8.269  0.9844  0.7649  1.2076
  923MOL0     H24590   8.359   3.037   8.174  0.2943 -1.8152  0.0045
  923MOL0     H24591   7.970   2.779   8.250  1.4064  0.7003 -1.5052
  923MOL0     H24592   7.790   2.705   8.145  0.9438  1.0682 -2.2000
  923MOL0     H24593   7.419   2.997   8.116  0.5812 -0.0541  0.0311
  923MOL0     H24594   7.450   2.893   8.262  0.5760 -1.9179 -0.5381
  923MOL0     H24595   7.357   2.707   8.097 -0.8909  0.3875 -1.6711
  923MOL0     H24596   7.275   2.829   8.014  0.5283 -0.3565 -0.8182
  923MOL0     H24597   7.189   2.923   8.235  2.9464 -0.4012  1.7473
  923MOL0     H24598   7.254   2.770   8.310  1.5728 -0.3301  0.2482
  923MOL0     H24599   7.107   2.644   8.148 -1.5361 -1.7019  4.0077
  923MOL0     H24600   7.023   2.732   8.279 -0.6175  3.5670  0.7010
  923MOL0     H24601   6.832   2.931   7.970  0.0561 -1.3271 -0.4255
  923MOL0     H24602   7.604   3.089   8.176  0.6593  1.7513  1.8629
  923MOL0     H24603   7.845   3.244   8.364 -0.2322  0.1284 -0.6722
  923MOL0     H24604   7.882   3.288   8.200 -1.4991  2.7980 -0.4051
  923MOL0     H24605   7.717   3.294   8.253  0.8696  1.1757 -2.7635
  924MOL0     O24606   3.874   8.662  10.511  0.8902 -0.0961  0.3298
  924MOL0     C24607   3.812   8.557  10.536 -0.0781 -0.2139 -0.3744
  924MOL0     O24608   3.871   8.444  10.581 -0.5254  0.2084 -0.3371
  924MOL0     C24609   4.011   8.442  10.584 -0.5501  0.8118 -0.5324
  924MOL0     C24610   4.066   8.407  10.708  0.2676  0.4040  1.3908
  924MOL0     C24611   4.203   8.414  10.719 -0.3559  0.0301 -0.0904
  924MOL0     C24612   4.294   8.449  10.614 -0.1369  0.4341 -0.3742
  924MOL0     O24613   4.425   8.428  10.632  0.8065 -0.2585 -0.6299
  924MOL0     C24614   4.512   8.403  10.522  0.7510  0.5400  0.6562
  924MOL0     C24615   4.623   8.315  10.577 -0.0585  0.3167 -0.7502
  924MOL0     C24616   4.728   8.297  10.461  0.3320  0.4783 -0.5572
  924MOL0     C24617   4.670   8.251  10.331 -0.0921 -0.3161 -0.3472
  924MOL0     C24618   4.780   8.205  10.236  0.7574  0.0386  0.0729
  924MOL0     C24619   4.725   8.151  10.104  0.5289 -0.2905 -0.1266
  924MOL0     C24620   4.818   8.153   9.988 -0.9181 -0.1232  0.6289
  924MOL0     C24621   4.907   8.028   9.980 -1.0328 -0.3929  0.0782
  924MOL0     N24622   5.046   8.040   9.921 -0.8013 -0.0657 -0.0528
  924MOL0     C24623   5.075   8.043   9.779 -0.4094  0.5790 -0.3254
  924MOL0     C24624   5.201   8.089   9.777  0.0614 -0.4982 -0.1185
  924MOL0     C24625   5.286   8.088   9.647  0.4717 -0.2393 -0.1314
  924MOL0     C24626   5.289   7.958   9.572 -0.0816 -0.3791  0.2446
  924MOL0     C24627   5.387   7.846   9.626 -0.2487  0.3482 -0.3267
  924MOL0     C24628   5.362   7.799   9.772 -0.2696  0.2277 -0.0004
  924MOL0     O24629   5.235   7.729   9.771  0.8692  0.3416 -0.5957
  924MOL0     C24630   5.167   7.704   9.884  0.6708  0.0968 -0.2059
  924MOL0     C24631   5.216   7.718  10.021 -0.9345  0.3722  0.3834
  924MOL0     C24632   5.142   7.704  10.134  0.0467  0.1175  0.5209
  924MOL0     C24633   5.003   7.674  10.118  0.0953  0.7624 -0.1905
  924MOL0     C24634   4.910   7.683  10.230 -0.5358 -0.6935 -0.3827
  924MOL0     O24635   4.953   7.754  10.339  0.4285 -0.5752  0.4669
  924MOL0     C24636   4.861   7.818  10.425 -0.1011  0.3558 -0.1829
  924MOL0     C24637   4.737   7.862  10.381  0.2190  0.5675 -0.0209
  924MOL0     C24638   4.652   7.928  10.477 -0.9314  0.7566 -0.0201
  924MOL0     C24639   4.694   7.945  10.606  0.0579 -0.5399 -0.5934
  924MOL0     O24640   4.595   8.003  10.682 -0.1346  0.2103  0.0755
  924MOL0     C24641   4.550   7.922  10.789  0.0799  0.5467  0.2761
  924MOL0     C24642   4.450   7.992  10.876  0.1173 -0.2606 -0.2694
  924MOL0     C24643   4.304   7.995  10.817 -0.3221 -0.3484 -0.3110
  924MOL0     C24644   4.212   8.053  10.930 -0.4831 -0.1261 -0.2016
  924MOL0     C24645   4.068   8.079  10.885 -0.8338 -0.9231 -0.0252
  924MOL0     C24646   3.990   8.162  10.994 -0.7946 -0.3264  0.4562
  924MOL0     C24647   3.951   8.071  11.109  0.7021 -0.3102 -0.2418
  924MOL0     C24648   3.862   8.156  11.206  0.6046  0.7937 -0.5091
  924MOL0    Cl24649   3.786   8.051  11.322  0.2480  0.3009  0.0711
  924MOL0     C24650   4.820   7.913  10.640 -0.1427  0.2704 -1.0160
  924MOL0     C24651   4.905   7.849  10.555 -0.4688 -0.6383  0.4210
  924MOL0     O24652   4.798   7.628  10.225  0.8964 -0.4725  0.5743
  924MOL0     C24653   4.958   7.649   9.992  0.5829 -1.4696  0.5124
  924MOL0     C24654   5.043   7.654   9.879 -0.3839  0.5388  0.6607
  924MOL0     N24655   5.256   8.109   9.905  0.3581 -0.0006 -0.9146
  924MOL0     N24656   5.160   8.084   9.994 -0.4116  0.7126 -0.5159
  924MOL0     C24657   4.234   8.493  10.499  0.8862  0.2817  0.3336
  924MOL0     C24658   4.094   8.483  10.474  0.0850  0.4606 -0.4312
  924MOL0     C24659   3.675   8.536  10.484 -0.0005  0.7792  0.4918
  924MOL0     C24660   3.636   8.409  10.432 -0.1550 -0.9064 -0.4950
  924MOL0     C24661   3.506   8.382  10.398 -0.2582 -0.0266  0.3292
  924MOL0     C24662   3.409   8.481  10.404 -0.1997  0.5683  0.1477
  924MOL0     O24663   3.273   8.444  10.377  0.3897 -0.1400 -0.3982
  924MOL0     C24664   3.168   8.472  10.475  0.4390  0.0873  0.0490
  924MOL0     C24665   3.064   8.356  10.485 -0.1343 -0.3248 -0.1360
  924MOL0     C24666   3.079   8.294  10.628 -0.4431  0.2058  0.1811
  924MOL0     C24667   2.965   8.201  10.676 -0.4367  0.6620 -0.4364
  924MOL0     C24668   3.010   8.136  10.805 -0.3132  0.3505 -1.1450
  924MOL0     C24669   3.049   8.096  10.911 -0.7808 -0.6076 -0.0328
  924MOL0     C24670   3.446   8.614  10.444  0.5079  0.1371 -1.1582
  924MOL0     C24671   3.576   8.637  10.481 -0.1358  0.4783 -1.2216
  924MOL0     C24672   3.613   8.783  10.503  0.0509  0.5121  0.1922
  924MOL0     H24673   3.998   8.390  10.791 -2.3154  1.3556 -0.3982
  924MOL0     H24674   4.238   8.380  10.816  3.2618  2.2609 -0.4367
  924MOL0     H24675   4.462   8.359  10.435 -0.4200  1.2928  0.9350
  924MOL0     H24676   4.551   8.497  10.480  1.8968 -1.0100 -2.0322
  924MOL0     H24677   4.571   8.221  10.599 -2.4807  1.9486  1.1416
  924MOL0     H24678   4.662   8.355  10.671  0.0037 -1.7184  0.1545
  924MOL0     H24679   4.798   8.224  10.503  2.1570  2.1624 -0.5085
  924MOL0     H24680   4.785   8.387  10.436  1.6655 -0.7893 -2.3047
  924MOL0     H24681   4.595   8.172  10.344  1.0486 -1.1868  1.2666
  924MOL0     H24682   4.619   8.329  10.273 -1.8334 -1.4116 -0.3711
  924MOL0     H24683   4.844   8.290  10.209  1.2909  0.1341  1.5525
  924MOL0     H24684   4.841   8.123  10.277 -0.3312 -0.2656  1.1388
  924MOL0     H24685   4.686   8.049  10.107 -3.3015  1.0333  1.1617
  924MOL0     H24686   4.644   8.221  10.080  0.3484  0.6246  2.8102
  924MOL0     H24687   4.860   8.253   9.974 -1.6914  0.6493  3.2433
  924MOL0     H24688   4.757   8.131   9.900  0.9265 -1.3744 -0.4170
  924MOL0     H24689   4.913   7.996  10.085 -1.2854  0.3704  0.3360
  924MOL0     H24690   4.848   7.942   9.947 -2.4581  0.2142  0.9497
  924MOL0     H24691   5.011   8.010   9.698 -2.0510  0.8625  0.8079
  924MOL0     H24692   5.251   8.166   9.579 -0.9930  1.2064  2.1479
  924MOL0     H24693   5.386   8.119   9.680  1.4207 -2.1506 -1.0457
  924MOL0     H24694   5.188   7.917   9.566 -1.0071  1.7926  0.0669
  924MOL0     H24695   5.331   7.978   9.473 -0.5924  3.9546  0.7345
  924MOL0     H24696   5.490   7.883   9.620  0.2925 -1.2043 -1.2103
  924MOL0     H24697   5.364   7.755   9.569 -4.1644  0.4601  0.7507
  924MOL0     H24698   5.358   7.888   9.836  2.6003 -0.5085  1.3842
  924MOL0     H24699   5.449   7.745   9.810  0.8007  0.8963 -1.4046
  924MOL0     H24700   5.317   7.757  10.035 -1.0583  1.2655 -0.9540
  924MOL0     H24701   5.185   7.734  10.229  2.8154 -3.8893  0.7886
  924MOL0     H24702   4.717   7.839  10.277  1.0555 -1.4953  0.2247
  924MOL0     H24703   4.561   7.973  10.439 -1.7809 -1.4794 -0.7956
  924MOL0     H24704   4.503   7.831  10.753 -0.2652  0.4874  0.8615
  924MOL0     H24705   4.628   7.892  10.860 -1.6196 -1.9966  1.2172
  924MOL0     H24706   4.441   7.948  10.976 -1.6529  2.1551  0.7330
  924MOL0     H24707   4.477   8.098  10.890 -1.7433  1.1464 -5.3660
  924MOL0     H24708   4.292   8.055  10.726 -0.0380  0.2527  0.0437
  924MOL0     H24709   4.274   7.895  10.783 -0.0669 -0.3669 -0.4922
  924MOL0     H24710   4.258   8.138  10.982 -0.7746 -0.4630  0.6202
  924MOL0     H24711   4.214   7.983  11.014 -1.0597 -0.7024 -0.6558
  924MOL0     H24712   4.023   7.982  10.864 -2.4441  0.2738 -2.7062
  924MOL0     H24713   4.063   8.127  10.787 -1.8263  0.6897  0.7566
  924MOL0     H24714   4.050   8.248  11.029 -0.7122 -0.2000  0.0136
  924MOL0     H24715   3.895   8.199  10.956 -1.3590 -1.5005  0.6988
  924MOL0     H24716   4.041   8.035  11.160 -0.1401 -2.5472 -0.2104
  924MOL0     H24717   3.907   7.983  11.062  1.1232 -0.5305 -0.2255
  924MOL0     H24718   3.929   8.226  11.256  0.1155  0.5859  0.4564
  924MOL0     H24719   3.785   8.211  11.152 -1.1464  0.3842  1.4480
  924MOL0     H24720   4.868   7.927  10.737 -2.4079  0.3762  0.1648
  924MOL0     H24721   4.994   7.806  10.600  0.4030  0.0966 -0.5537
  924MOL0     H24722   4.856   7.612   9.991 -0.4833  1.0873  2.4988
  924MOL0     H24723   5.007   7.632   9.779  3.9996  4.3336 -2.1485
  924MOL0     H24724   4.297   8.526  10.417 -2.3163 -0.0865 -2.5279
  924MOL0     H24725   4.046   8.502  10.379 -1.1695 -1.4429 -0.2361
  924MOL0     H24726   3.712   8.332  10.429  1.3021  0.4967 -1.4562
  924MOL0     H24727   3.483   8.280  10.370 -1.5154 -0.8691  3.9131
  924MOL0     H24728   3.106   8.560  10.454 -1.2905 -0.1472  3.4673
  924MOL0     H24729   3.221   8.487  10.569 -2.6397  1.5058  1.6995
  924MOL0     H24730   3.082   8.281  10.408  0.5157 -0.6479  0.3200
  924MOL0     H24731   2.963   8.397  10.479  0.0960  0.1483 -0.8656
  924MOL0     H24732   3.072   8.372  10.705 -0.6360 -0.1202  0.4987
  924MOL0     H24733   3.172   8.238  10.640 -0.6105  0.1710  1.4680
  924MOL0     H24734   2.872   8.259  10.677 -0.9060 -0.0599  0.8809
  924MOL0     H24735   2.947   8.131  10.594  1.3014 -0.6884  0.2770
  924MOL0     H24736   3.067   8.051  11.007 -0.3323 -0.8107 -0.2142
  924MOL0     H24737   3.366   8.685  10.434 -1.5201 -1.5515  1.5253
  924MOL0     H24738   3.525   8.848  10.501 -0.3904  0.1397  2.8773
  924MOL0     H24739   3.667   8.813  10.593  1.8308  2.5503 -1.4628
  924MOL0     H24740   3.669   8.808  10.412 -2.3899 -1.8275 -2.1601
  925MOL0     O24741   2.083  11.038   5.796 -0.3051 -0.3090 -0.3120
  925MOL0     C24742   1.992  10.964   5.846 -0.0324  0.3833 -0.2301
  925MOL0     O24743   2.015  10.847   5.917  0.5584  0.7362  0.1613
  925MOL0     C24744   2.138  10.784   5.942  0.0662  2.0034 -0.1749
  925MOL0     C24745   2.262  10.833   5.918  0.0131 -0.1401  0.1755
  925MOL0     C24746   2.379  10.761   5.955  0.5795 -0.6518 -0.3231
  925MOL0     C24747   2.375  10.640   6.025 -0.0022  0.5426 -0.3405
  925MOL0     O24748   2.489  10.562   6.059  0.0542 -0.2246  0.3316
  925MOL0     C24749   2.611  10.636   6.088  0.7309  0.2079 -0.0873
  925MOL0     C24750   2.716  10.536   6.119 -0.4504 -0.2150 -0.1559
  925MOL0     C24751   2.845  10.615   6.145  0.7437 -0.0756  0.8131
  925MOL0     C24752   2.840  10.666   6.290  0.6328  0.4174 -0.0762
  925MOL0     C24753   2.975  10.708   6.327  0.1424  1.4944 -0.8471
  925MOL0     C24754   3.047  10.817   6.243  0.7017 -0.6293 -0.6663
  925MOL0     C24755   3.177  10.848   6.323 -0.4273  0.4702 -0.2248
  925MOL0     C24756   3.244  10.970   6.266 -0.6262 -0.2837  0.7025
  925MOL0     N24757   3.362  11.005   6.344  0.0537  0.1739 -0.7899
  925MOL0     C24758   3.428  11.131   6.338 -0.6672 -0.2117  0.2859
  925MOL0     C24759   3.546  11.112   6.402 -0.3842 -0.3503  0.7455
  925MOL0     C24760   3.654  11.218   6.417  0.0459 -0.1291  0.3046
  925MOL0     C24761   3.796  11.169   6.379 -1.2318 -0.1158  0.5222
  925MOL0     C24762   3.902  11.281   6.352  0.9628  0.1413  0.0478
  925MOL0     C24763   3.932  11.378   6.463 -0.3197 -0.9919 -0.2475
  925MOL0     O24764   3.986  11.308   6.572  0.2266  0.3958  0.2489
  925MOL0     C24765   4.124  11.282   6.581 -0.0685 -0.5203  0.5749
  925MOL0     C24766   4.220  11.285   6.477 -0.3112  0.2869  0.7291
  925MOL0     C24767   4.359  11.265   6.505  0.0462  0.0190  0.1698
  925MOL0     C24768   4.402  11.224   6.640  0.3734 -0.6402  0.2709
  925MOL0     C24769   4.541  11.199   6.672 -0.1212 -0.2211 -0.1338
  925MOL0     O24770   4.568  11.184   6.804  0.0043 -0.3492 -0.3324
  925MOL0     C24771   4.668  11.101   6.856 -0.7462 -0.1463 -0.4365
  925MOL0     C24772   4.737  11.006   6.776 -0.2409 -0.0455 -0.3187
  925MOL0     C24773   4.856  10.946   6.823 -0.0118  0.0040 -0.0613
  925MOL0     C24774   4.899  10.978   6.954 -1.0991  0.6819 -0.4647
  925MOL0     O24775   5.014  10.912   7.002  1.0537  0.0444  0.7281
  925MOL0     C24776   5.071  10.944   7.130 -0.2474  0.0568  0.2997
  925MOL0     C24777   5.203  10.874   7.151 -0.1825 -0.1074 -0.0889
  925MOL0     C24778   5.251  10.890   7.284 -0.0373 -0.1006 -0.3291
  925MOL0     C24779   5.295  11.035   7.314  0.0116 -0.3114  0.7406
  925MOL0     C24780   5.441  11.065   7.364  0.1752  0.8888  0.1011
  925MOL0     C24781   5.537  11.016   7.265  0.1356  1.0474 -0.4956
  925MOL0     C24782   5.678  11.065   7.293  0.8403  0.2173  0.8884
  925MOL0     C24783   5.777  10.971   7.219 -0.5403 -0.2726 -0.5028
  925MOL0    Cl24784   5.942  11.014   7.266  0.3724  0.0463 -0.0107
  925MOL0     C24785   4.832  11.075   7.034 -0.1293 -0.9053 -1.0664
  925MOL0     C24786   4.712  11.125   6.981 -1.0481 -1.3825  0.1449
  925MOL0     O24787   4.624  11.211   6.578  0.4200 -0.3704  0.2404
  925MOL0     C24788   4.300  11.222   6.745  0.1921 -0.7364  0.5272
  925MOL0     C24789   4.166  11.255   6.713  0.5772  0.9068 -0.1248
  925MOL0     N24790   3.541  10.986   6.443 -0.2046  0.8726  0.1878
  925MOL0     N24791   3.440  10.920   6.410 -0.2542 -0.4447  0.0720
  925MOL0     C24792   2.248  10.587   6.041 -0.8255  0.4009 -1.5549
  925MOL0     C24793   2.136  10.659   5.998 -0.0599 -0.0998 -0.2475
  925MOL0     C24794   1.848  10.993   5.818  0.6110  0.9909 -0.1949
  925MOL0     C24795   1.740  10.901   5.844  0.2435  0.6150  0.3068
  925MOL0     C24796   1.603  10.922   5.812  0.2015 -1.0882 -0.5064
  925MOL0     C24797   1.575  11.033   5.730  0.0759  0.7186 -0.5801
  925MOL0     O24798   1.450  11.071   5.691 -0.4106  0.6487  0.0709
  925MOL0     C24799   1.335  11.009   5.752  0.0696  0.0108  0.2231
  925MOL0     C24800   1.213  11.074   5.683 -0.2246 -0.8759  0.1972
  925MOL0     C24801   1.194  11.226   5.722 -0.9145 -0.5317 -0.7358
  925MOL0     C24802   1.063  11.287   5.660  1.5666 -0.2632 -0.0632
  925MOL0     C24803   1.027  11.416   5.722 -0.0418 -0.4404 -0.3550
  925MOL0     C24804   0.974  11.516   5.760 -0.5447 -0.3850 -0.5853
  925MOL0     C24805   1.685  11.109   5.698 -0.5139  0.4181  0.4420
  925MOL0     C24806   1.810  11.112   5.750 -0.6596  0.7287  0.4419
  925MOL0     C24807   1.890  11.239   5.732 -0.0297 -0.8799  0.0387
  925MOL0     H24808   2.269  10.931   5.871 -5.2175  1.3365  1.8132
  925MOL0     H24809   2.473  10.791   5.910 -0.2759  2.0082 -0.4562
  925MOL0     H24810   2.641  10.685   5.995  2.7946  2.6778  1.7159
  925MOL0     H24811   2.585  10.704   6.169 -1.3384 -1.4569  0.7410
  925MOL0     H24812   2.720  10.467   6.034 -3.7639 -1.6397  0.6865
  925MOL0     H24813   2.688  10.472   6.204 -0.1859  1.2085  1.0526
  925MOL0     H24814   2.858  10.701   6.079  0.5250 -0.1235  0.7064
  925MOL0     H24815   2.934  10.556   6.124  1.0515  1.6667 -3.9846
  925MOL0     H24816   2.767  10.740   6.322 -1.2070 -1.3023 -0.0755
  925MOL0     H24817   2.814  10.583   6.356 -2.7337  0.8880 -0.6400
  925MOL0     H24818   2.973  10.743   6.431  3.4022  2.4836 -0.9811
  925MOL0     H24819   3.035  10.617   6.339  1.2635  2.5800  3.3009
  925MOL0     H24820   3.074  10.776   6.145  0.7337  1.5258 -1.6066
  925MOL0     H24821   2.979  10.902   6.230 -1.5999 -1.9099  1.8308
  925MOL0     H24822   3.242  10.760   6.319 -0.2423  0.5740  0.4581
  925MOL0     H24823   3.161  10.860   6.430 -1.9012  2.1029 -0.5820
  925MOL0     H24824   3.276  10.956   6.162 -0.8162  1.6016  0.3476
  925MOL0     H24825   3.176  11.056   6.271  0.5744  0.7780 -0.4394
  925MOL0     H24826   3.394  11.224   6.292  0.8414 -1.0009 -2.6792
  925MOL0     H24827   3.638  11.291   6.338  3.9014 -0.8100 -1.3446
  925MOL0     H24828   3.643  11.258   6.519 -1.2819 -2.6786  1.2455
  925MOL0     H24829   3.834  11.096   6.451 -0.2636 -0.8294 -0.6618
  925MOL0     H24830   3.793  11.107   6.289  3.6657 -1.4297  0.9693
  925MOL0     H24831   3.868  11.341   6.267  3.0042  1.5511  0.1645
  925MOL0     H24832   4.001  11.244   6.323  1.0806 -1.0442  1.8034
  925MOL0     H24833   3.835  11.422   6.486  0.6800 -0.0794  2.6156
  925MOL0     H24834   3.990  11.465   6.431 -0.3469 -0.6886  0.5173
  925MOL0     H24835   4.179  11.316   6.382  1.3290  1.5630  0.3950
  925MOL0     H24836   4.433  11.272   6.427  2.0558 -0.2762  1.9463
  925MOL0     H24837   4.696  10.977   6.680  3.2043  1.5837 -2.4846
  925MOL0     H24838   4.895  10.865   6.763 -0.8945  0.4226 -1.2208
  925MOL0     H24839   5.083  11.053   7.133 -0.5495  0.1002  0.0341
  925MOL0     H24840   4.998  10.912   7.205 -2.2029  0.7986 -1.1981
  925MOL0     H24841   5.194  10.767   7.130  0.9586 -1.1311  3.9367
  925MOL0     H24842   5.285  10.909   7.088  1.1866 -1.2555  0.9966
  925MOL0     H24843   5.161  10.860   7.340 -3.4537  3.3831 -3.4031
  925MOL0     H24844   5.328  10.816   7.306 -0.8875 -1.5342 -1.9805
  925MOL0     H24845   5.232  11.083   7.389 -2.1801  0.5613 -1.5048
  925MOL0     H24846   5.278  11.097   7.226  0.9243 -1.0607  0.0102
  925MOL0     H24847   5.468  11.006   7.452  3.7202 -3.1275 -3.2545
  925MOL0     H24848   5.453  11.173   7.377 -0.2512  1.4712 -3.4515
  925MOL0     H24849   5.528  10.908   7.251  2.0984  0.9226 -1.0953
  925MOL0     H24850   5.503  11.060   7.170 -3.5331 -0.2976  0.0077
  925MOL0     H24851   5.698  11.061   7.400  2.2828  2.4556  0.7712
  925MOL0     H24852   5.692  11.167   7.256  0.6532 -0.3170 -0.7396
  925MOL0     H24853   5.770  10.864   7.239  0.4067 -0.4844 -1.2473
  925MOL0     H24854   5.778  10.987   7.111  1.4020  1.9161 -0.2333
  925MOL0     H24855   4.856  11.095   7.138 -1.1141  0.2203 -1.0278
  925MOL0     H24856   4.672  11.206   7.042  1.3729  0.7987 -0.9480
  925MOL0     H24857   4.341  11.201   6.843  3.4088  0.3668 -0.4434
  925MOL0     H24858   4.087  11.258   6.787 -0.0230  3.7654 -0.7664
  925MOL0     H24859   2.231  10.493   6.093 -2.0542  0.7004 -1.3887
  925MOL0     H24860   2.039  10.613   6.017  0.5785 -0.4717  2.6330
  925MOL0     H24861   1.772  10.812   5.899  0.4561  0.5259  0.0454
  925MOL0     H24862   1.521  10.855   5.832 -2.2252  1.2378 -2.0144
  925MOL0     H24863   1.338  11.033   5.859  2.1233  0.3612  0.1400
  925MOL0     H24864   1.319  10.902   5.743  1.0802 -0.2828  1.6445
  925MOL0     H24865   1.123  11.021   5.714 -1.7500 -0.6762 -3.3827
  925MOL0     H24866   1.219  11.071   5.574 -1.7576 -0.1501  0.0591
  925MOL0     H24867   1.274  11.292   5.687  1.0201 -2.8768 -0.9675
  925MOL0     H24868   1.195  11.242   5.830  0.5501  2.5597 -1.1025
  925MOL0     H24869   1.074  11.299   5.552 -1.1656 -1.1083 -0.5165
  925MOL0     H24870   0.984  11.213   5.679  1.6578  0.0001  1.5129
  925MOL0     H24871   0.935  11.610   5.794 -0.8478 -0.8444  0.3992
  925MOL0     H24872   1.652  11.191   5.636  3.4499  2.4836  0.7150
  925MOL0     H24873   1.979  11.216   5.673 -0.9810 -1.1561 -1.3221
  925MOL0     H24874   1.829  11.307   5.673 -0.6568 -1.4058  0.0666
  925MOL0     H24875   1.920  11.289   5.825  0.7086 -2.0457  0.4452
  926MOL0     O24876   8.411   3.371   6.358  0.2573 -0.6831 -0.2799
  926MOL0     C24877   8.404   3.329   6.242 -0.2714  0.5656  0.2148
  926MOL0     O24878   8.502   3.342   6.149  0.3016 -0.1308  0.2877
  926MOL0     C24879   8.616   3.404   6.171  0.0497 -0.7909  0.1452
  926MOL0     C24880   8.634   3.529   6.227 -0.0461  0.1644 -0.4843
  926MOL0     C24881   8.759   3.590   6.245  0.4285 -0.3252 -0.8511
  926MOL0     C24882   8.871   3.514   6.216  0.3424 -0.6106  0.0283
  926MOL0     O24883   8.990   3.572   6.258 -0.6092  0.2638 -0.3968
  926MOL0     C24884   9.111   3.538   6.183 -1.0399  0.6321  0.5048
  926MOL0     C24885   9.220   3.612   6.248 -0.6907  0.1194  0.0379
  926MOL0     C24886   9.357   3.564   6.187 -0.2762 -0.5652  0.5550
  926MOL0     C24887   9.465   3.669   6.180 -0.4201 -0.9977  0.0158
  926MOL0     C24888   9.605   3.604   6.204  1.0183 -0.5696  0.6445
  926MOL0     C24889   9.703   3.718   6.207 -0.0697  0.5643  0.1818
  926MOL0     C24890   9.851   3.675   6.238 -0.3069 -0.5552 -0.5096
  926MOL0     C24891   9.914   3.548   6.170  0.6725 -0.9979  0.2977
  926MOL0     N24892  10.052   3.532   6.228  0.1090 -0.6303 -0.4487
  926MOL0     C24893  10.077   3.497   6.362  0.3256  0.2696  0.5968
  926MOL0     C24894  10.214   3.489   6.379  0.1425  1.2888  1.0332
  926MOL0     C24895  10.283   3.462   6.506 -0.1176  0.2326 -0.3292
  926MOL0     C24896  10.437   3.493   6.511  0.3615  0.3615 -0.1394
  926MOL0     C24897  10.527   3.380   6.478  0.2732 -0.4726  0.0754
  926MOL0     C24898  10.536   3.266   6.586  0.3680  0.6492  0.3015
  926MOL0     O24899  10.640   3.160   6.551  1.0693 -0.7171 -0.1109
  926MOL0     C24900  10.774   3.192   6.560 -0.2253 -0.3728  0.1583
  926MOL0     C24901  10.858   3.104   6.497 -0.2233  0.4262  0.7105
  926MOL0     C24902  10.996   3.137   6.501 -0.2894  0.0115  0.2867
  926MOL0     C24903  11.050   3.242   6.579 -0.2162  0.2406 -0.3542
  926MOL0     C24904  11.193   3.257   6.596 -0.0599  0.1216  0.1022
  926MOL0     O24905  11.259   3.172   6.514 -0.1085  0.0099  0.6783
  926MOL0     C24906  11.396   3.178   6.507  0.2736  0.0381  1.0994
  926MOL0     C24907  11.443   3.260   6.403  0.5907  0.6016 -0.8827
  926MOL0     C24908  11.576   3.249   6.376  0.0519  0.0503  0.5493
  926MOL0     C24909  11.663   3.149   6.440  0.9576 -0.8879  0.4139
  926MOL0     O24910  11.795   3.145   6.422  0.3225 -0.5485  0.1021
  926MOL0     C24911  11.866   3.257   6.355 -0.3190 -0.8299 -0.0243
  926MOL0     C24912  12.022   3.248   6.356 -0.5340 -0.6112  0.1033
  926MOL0     C24913  12.069   3.126   6.288  0.6241 -0.1505 -0.2958
  926MOL0     C24914  12.221   3.113   6.309 -0.1699  0.1232 -0.3324
  926MOL0     C24915  12.270   2.968   6.288 -0.1934  0.6289 -0.3533
  926MOL0     C24916  12.410   2.940   6.337 -0.3151 -0.3578  0.1395
  926MOL0     C24917  12.484   2.815   6.298  0.5101  0.4713  1.3205
  926MOL0     C24918  12.606   2.778   6.385 -0.8747 -0.3383 -1.1377
  926MOL0    Cl24919  12.672   2.623   6.334  0.3167 -0.8018 -0.1281
  926MOL0     C24920  11.612   3.073   6.530  1.3062  0.8776  0.0250
  926MOL0     C24921  11.478   3.083   6.564  0.3610 -0.1974  0.1360
  926MOL0     O24922  11.248   3.347   6.659  0.1042 -0.3614 -0.4477
  926MOL0     C24923  10.962   3.323   6.643  0.3398  0.0685 -0.0981
  926MOL0     C24924  10.821   3.297   6.642 -0.3170  0.2885 -0.2526
  926MOL0     N24925  10.264   3.508   6.248  0.7310 -0.1475  0.4546
  926MOL0     N24926  10.171   3.535   6.167  0.5086 -1.1802  0.4659
  926MOL0     C24927   8.864   3.389   6.161  0.2897  0.2803  0.1002
  926MOL0     C24928   8.737   3.341   6.134  1.1209  0.0665  0.3415
  926MOL0     C24929   8.292   3.243   6.205 -0.1206 -0.4553  0.5953
  926MOL0     C24930   8.168   3.293   6.210  0.1332 -0.5566  0.0273
  926MOL0     C24931   8.055   3.227   6.159 -0.5932  0.5581 -0.3149
  926MOL0     C24932   8.070   3.104   6.104 -0.6491  0.4388 -0.1160
  926MOL0     O24933   7.955   3.046   6.065 -0.2345  0.4004  0.2866
  926MOL0     C24934   7.915   2.925   6.143 -0.2187 -0.5304 -0.2990
  926MOL0     C24935   7.822   2.980   6.254  0.1903 -0.3326  0.1743
  926MOL0     C24936   7.690   3.039   6.211 -0.4227  1.0107 -0.7835
  926MOL0     C24937   7.625   3.095   6.335  0.3504  0.3827 -0.0198
  926MOL0     C24938   7.481   3.107   6.301  0.6759  0.3780 -0.1665
  926MOL0     C24939   7.368   3.090   6.260  0.5500 -0.6540 -0.1350
  926MOL0     C24940   8.197   3.043   6.108 -0.3235 -1.3246  1.6812
  926MOL0     C24941   8.312   3.111   6.157  0.8613 -0.2547  0.0712
  926MOL0     C24942   8.450   3.044   6.151 -0.1695  0.7460 -0.2912
  926MOL0     H24943   8.543   3.574   6.268 -0.6705 -0.7256 -0.8561
  926MOL0     H24944   8.757   3.687   6.293  4.9959 -0.9001  0.9818
  926MOL0     H24945   9.131   3.430   6.188 -0.3841  0.7938  1.7822
  926MOL0     H24946   9.102   3.570   6.079 -0.5953  0.2943  0.3564
  926MOL0     H24947   9.210   3.589   6.354 -6.5831 -2.1912 -0.5895
  926MOL0     H24948   9.207   3.721   6.240 -0.6369  0.2392  1.3449
  926MOL0     H24949   9.344   3.520   6.088  0.3176  2.3158 -0.9306
  926MOL0     H24950   9.384   3.480   6.251  1.0500 -1.0321 -0.5659
  926MOL0     H24951   9.471   3.712   6.079  1.3034 -3.2813 -0.9662
  926MOL0     H24952   9.439   3.748   6.251 -0.6616  0.3841 -1.5332
  926MOL0     H24953   9.595   3.560   6.303 -1.1636  1.7450  1.5622
  926MOL0     H24954   9.615   3.525   6.129 -0.8257 -0.6600  0.4284
  926MOL0     H24955   9.697   3.777   6.115  4.3447  0.6172 -0.2997
  926MOL0     H24956   9.675   3.777   6.295 -0.7823  0.3852  0.0760
  926MOL0     H24957   9.859   3.663   6.346 -1.0490 -0.1569 -0.4014
  926MOL0     H24958   9.915   3.761   6.217 -1.8417  0.3924 -1.5022
  926MOL0     H24959   9.853   3.458   6.186 -0.5806 -0.0895  0.7078
  926MOL0     H24960   9.911   3.563   6.061 -0.5940 -2.2397  0.1342
  926MOL0     H24961  10.005   3.486   6.441  1.3397  1.6548  1.7635
  926MOL0     H24962  10.230   3.520   6.582 -2.5058  2.1974 -3.2868
  926MOL0     H24963  10.261   3.360   6.537  2.0316  0.0585  0.8392
  926MOL0     H24964  10.474   3.583   6.461  1.4628  0.2474  0.4354
  926MOL0     H24965  10.452   3.517   6.617 -1.1562  0.3596  0.1058
  926MOL0     H24966  10.632   3.409   6.473 -0.1239  1.8662  2.7115
  926MOL0     H24967  10.480   3.343   6.386 -1.0095 -1.5113  1.1205
  926MOL0     H24968  10.442   3.211   6.574  1.5505 -1.3014 -0.6883
  926MOL0     H24969  10.555   3.297   6.689  1.5662 -1.1554  0.6740
  926MOL0     H24970  10.820   3.021   6.438 -0.1191 -0.7359  2.2184
  926MOL0     H24971  11.073   3.076   6.454 -2.1026 -2.2178  0.0675
  926MOL0     H24972  11.370   3.325   6.355  0.1444  1.7991  1.2524
  926MOL0     H24973  11.616   3.317   6.302  1.4024 -0.4621  0.7779
  926MOL0     H24974  11.835   3.271   6.251  1.5106  1.2303 -0.3568
  926MOL0     H24975  11.842   3.353   6.402  1.1240 -1.4392  2.0793
  926MOL0     H24976  12.068   3.329   6.300  0.9006 -0.3545  1.5796
  926MOL0     H24977  12.048   3.265   6.461  0.6393  0.0547 -0.2821
  926MOL0     H24978  12.021   3.034   6.323 -0.2797 -0.8008 -3.0350
  926MOL0     H24979  12.041   3.115   6.183 -0.6561  0.2178 -0.0109
  926MOL0     H24980  12.253   3.152   6.407 -3.2499  0.7445  0.5242
  926MOL0     H24981  12.269   3.189   6.248 -0.2712  0.9204  0.5581
  926MOL0     H24982  12.263   2.948   6.181 -1.9879  0.7722 -0.2881
  926MOL0     H24983  12.205   2.894   6.336 -0.8497  0.5320 -1.3547
  926MOL0     H24984  12.472   3.027   6.314 -0.8749  0.0344  0.0797
  926MOL0     H24985  12.405   2.939   6.447 -0.5959 -0.6386  0.1263
  926MOL0     H24986  12.530   2.813   6.199  0.1894 -1.2648  1.1752
  926MOL0     H24987  12.405   2.740   6.292 -0.5192  1.5880 -3.7548
  926MOL0     H24988  12.677   2.861   6.387 -1.1199 -0.0958  1.7053
  926MOL0     H24989  12.581   2.780   6.492 -0.6598 -1.0302 -1.0714
  926MOL0     H24990  11.677   2.993   6.565 -0.8516 -1.8190 -1.6484
  926MOL0     H24991  11.441   3.009   6.635 -0.3149 -0.6269 -0.6524
  926MOL0     H24992  10.992   3.411   6.700 -2.3563  2.8455 -2.5835
  926MOL0     H24993  10.755   3.362   6.699 -1.0301 -0.9452  0.3640
  926MOL0     H24994   8.956   3.332   6.149  0.5891  0.2297  2.2433
  926MOL0     H24995   8.731   3.241   6.091  1.8904  0.7804 -1.5331
  926MOL0     H24996   8.157   3.391   6.256 -0.6285 -0.4741 -0.3173
  926MOL0     H24997   7.951   3.259   6.166 -0.9690 -0.7881  0.7520
  926MOL0     H24998   8.002   2.883   6.195  1.0235  0.2549 -1.6422
  926MOL0     H24999   7.871   2.845   6.083  2.2993 -1.6146 -0.8578
  926MOL0     H25000   7.871   3.068   6.297 -0.2526  0.8811 -1.6631
  926MOL0     H25001   7.794   2.902   6.325 -0.5908 -0.3222 -0.1100
  926MOL0     H25002   7.628   2.965   6.161  0.2092 -0.1094  0.0508
  926MOL0     H25003   7.712   3.124   6.145  1.9940  0.2844 -1.0336
  926MOL0     H25004   7.633   3.029   6.422 -1.9421  0.8673  0.6188
  926MOL0     H25005   7.666   3.192   6.363 -0.6154  0.4694  1.1604
  926MOL0     H25006   7.265   3.070   6.237 -0.3879  1.7788  1.4939
  926MOL0     H25007   8.208   2.946   6.061  1.1621  0.7257 -2.7223
  926MOL0     H25008   8.508   3.049   6.058  0.7854 -0.4322  0.2096
  926MOL0     H25009   8.514   3.084   6.230  2.3113 -2.0247 -0.7244
  926MOL0     H25010   8.442   2.938   6.178 -3.5290  1.3901  1.8399
  927MOL0     O25011   5.765   2.535   8.137  0.2450 -0.4911  0.5637
  927MOL0     C25012   5.719   2.525   8.022  0.0777 -0.2986 -0.5488
  927MOL0     O25013   5.794   2.472   7.919  0.6417  0.1315 -0.0939
  927MOL0     C25014   5.929   2.493   7.921  0.5335  0.1434 -0.3268
  927MOL0     C25015   6.002   2.439   8.023  0.2359 -0.4976 -0.3109
  927MOL0     C25016   6.139   2.467   8.040 -0.0815  0.0824 -0.0083
  927MOL0     C25017   6.205   2.546   7.950  1.0408 -0.9608  0.4943
  927MOL0     O25018   6.346   2.552   7.970 -0.4942 -0.2514  0.2122
  927MOL0     C25019   6.438   2.632   7.885 -0.0673  1.2185  0.2491
  927MOL0     C25020   6.581   2.611   7.937 -0.9306  0.0492  0.0631
  927MOL0     C25021   6.600   2.630   8.084 -0.0803  0.3759  0.0075
  927MOL0     C25022   6.580   2.775   8.124  0.5392  0.1173  0.1581
  927MOL0     C25023   6.605   2.817   8.266 -0.2078  0.6994 -0.2024
  927MOL0     C25024   6.569   2.718   8.377  0.7902 -0.3647 -0.2979
  927MOL0     C25025   6.652   2.757   8.501  0.2868  0.2762  0.2426
  927MOL0     C25026   6.625   2.895   8.549  0.3939 -0.3231 -0.2028
  927MOL0     N25027   6.662   2.914   8.692 -0.0821 -0.0563  0.0857
  927MOL0     C25028   6.774   2.868   8.759  0.1395  0.0194 -0.0839
  927MOL0     C25029   6.775   2.945   8.870 -0.4018 -0.0808 -0.8483
  927MOL0     C25030   6.877   2.924   8.967 -0.8487 -0.6238  0.3167
  927MOL0     C25031   6.877   2.789   9.038 -0.1184  0.2151 -0.5638
  927MOL0     C25032   6.976   2.796   9.149  0.2652 -0.4039  0.4251
  927MOL0     C25033   7.012   2.652   9.195  0.1759 -1.1501  1.0209
  927MOL0     O25034   7.142   2.639   9.252 -0.1159  0.0247  0.4883
  927MOL0     C25035   7.163   2.665   9.385 -0.3810 -0.6369  0.8308
  927MOL0     C25036   7.069   2.679   9.485 -0.4154  0.1640  0.5361
  927MOL0     C25037   7.117   2.699   9.614 -0.5245  0.2034 -0.1190
  927MOL0     C25038   7.254   2.704   9.650 -0.3612 -0.6842  0.2866
  927MOL0     C25039   7.301   2.717   9.786  0.0181 -0.1248 -0.1443
  927MOL0     O25040   7.428   2.670   9.802 -0.0650  0.0199 -0.2232
  927MOL0     C25041   7.484   2.669   9.930  0.6671  0.3339 -0.0808
  927MOL0     C25042   7.455   2.762  10.032  0.2127  0.2667  0.2026
  927MOL0     C25043   7.508   2.750  10.164  0.8516  0.5329  0.6751
  927MOL0     C25044   7.599   2.646  10.197  0.3501  0.7061  0.3749
  927MOL0     O25045   7.649   2.633  10.321 -0.4753  0.4731 -0.2839
  927MOL0     C25046   7.646   2.503  10.395 -0.3490  0.9363  0.0449
  927MOL0     C25047   7.792   2.461  10.399  0.2566 -0.5664  0.2096
  927MOL0     C25048   7.864   2.455  10.538 -0.1658 -0.4426  0.2480
  927MOL0     C25049   7.911   2.598  10.588 -0.3201  0.4175  0.9488
  927MOL0     C25050   8.016   2.661  10.498 -0.3664  0.0785  0.7350
  927MOL0     C25051   8.133   2.585  10.445 -0.2337  0.5789  0.1864
  927MOL0     C25052   8.243   2.677  10.386  0.3512  0.2480  0.8767
  927MOL0     C25053   8.350   2.595  10.311 -0.6268  0.2752  0.0173
  927MOL0    Cl25054   8.297   2.552  10.146  0.0953 -0.2267 -0.2523
  927MOL0     C25055   7.624   2.549  10.096 -0.5397 -0.1421  0.4716
  927MOL0     C25056   7.567   2.563   9.970  0.1105  0.5700 -0.8458
  927MOL0     O25057   7.213   2.738   9.875  0.2240 -0.0418  1.0181
  927MOL0     C25058   7.345   2.700   9.544  1.0237  0.0678  0.6842
  927MOL0     C25059   7.301   2.674   9.415  0.3967 -0.2899  0.6811
  927MOL0     N25060   6.661   3.017   8.882  0.0413  1.0292  0.6113
  927MOL0     N25061   6.600   3.010   8.769  0.7057  0.1620 -0.2598
  927MOL0     C25062   6.141   2.590   7.839  0.6272  1.3241  0.4225
  927MOL0     C25063   6.001   2.571   7.821 -0.0883  0.3515 -0.7926
  927MOL0     C25064   5.582   2.570   8.012  1.0420  0.2676  0.3612
  927MOL0     C25065   5.499   2.592   8.133 -0.5020  0.2175 -0.7474
  927MOL0     C25066   5.367   2.596   8.123 -0.0666 -0.2591  0.3190
  927MOL0     C25067   5.295   2.579   8.012 -0.6204 -0.3818  0.4212
  927MOL0     O25068   5.161   2.584   8.035 -0.3924 -0.4962 -0.5120
  927MOL0     C25069   5.078   2.565   7.921  0.2812 -0.5098 -0.1949
  927MOL0     C25070   4.935   2.594   7.960  0.4746 -0.1646  0.7080
  927MOL0     C25071   4.847   2.543   7.856 -0.1638 -0.1309 -0.1698
  927MOL0     C25072   4.700   2.584   7.874 -0.4879  0.0989 -0.4597
  927MOL0     C25073   4.619   2.551   7.760  1.0354 -0.9365 -0.0938
  927MOL0     C25074   4.546   2.533   7.670  0.2366  0.2924  0.9072
  927MOL0     C25075   5.362   2.566   7.889  0.1239 -0.6165 -0.5181
  927MOL0     C25076   5.506   2.564   7.890  0.2739 -0.0065  0.4442
  927MOL0     C25077   5.584   2.559   7.754  0.1569 -1.0683 -0.3989
  927MOL0     H25078   5.954   2.373   8.095 -2.5760  3.9948  2.4580
  927MOL0     H25079   6.183   2.418   8.127 -0.5909 -1.0024 -0.3466
  927MOL0     H25080   6.418   2.597   7.784 -0.1579 -0.0303  0.6852
  927MOL0     H25081   6.414   2.738   7.899  1.3211  1.5116  0.6172
  927MOL0     H25082   6.645   2.683   7.885 -0.1175 -1.0369 -0.4852
  927MOL0     H25083   6.612   2.507   7.923 -2.0809 -0.3384  0.2894
  927MOL0     H25084   6.702   2.607   8.114 -0.5079 -0.3282  0.9873
  927MOL0     H25085   6.533   2.567   8.143  0.4734  1.1914  1.5605
  927MOL0     H25086   6.635   2.850   8.067  1.6134  1.4366  2.7763
  927MOL0     H25087   6.476   2.805   8.110 -0.3278 -3.4386 -2.5171
  927MOL0     H25088   6.710   2.849   8.272 -0.2925  0.7454  1.7315
  927MOL0     H25089   6.558   2.911   8.294  1.8633  1.9439 -0.6872
  927MOL0     H25090   6.462   2.734   8.393  0.9262  0.9571 -0.5499
  927MOL0     H25091   6.595   2.615   8.350  3.0725  0.0811  0.0102
  927MOL0     H25092   6.759   2.745   8.485 -0.0735 -1.3194 -1.3328
  927MOL0     H25093   6.630   2.687   8.583  2.6660  0.0142  0.7435
  927MOL0     H25094   6.689   2.959   8.488 -0.2557 -2.0591 -2.8808
  927MOL0     H25095   6.523   2.927   8.531 -0.9524 -2.8622  2.1150
  927MOL0     H25096   6.845   2.795   8.720  0.5666 -0.6618  1.8531
  927MOL0     H25097   6.974   2.918   8.916 -0.2987 -0.0098  1.2499
  927MOL0     H25098   6.885   3.003   9.043  1.7989 -1.2055  0.7370
  927MOL0     H25099   6.776   2.765   9.071  0.4416 -0.2250  0.9302
  927MOL0     H25100   6.897   2.706   8.969  0.6311 -0.1734  0.0978
  927MOL0     H25101   6.943   2.856   9.235  1.9030 -0.1062  0.8745
  927MOL0     H25102   7.067   2.845   9.114 -1.9235  4.2231  0.4317
  927MOL0     H25103   7.004   2.590   9.106 -1.2236 -0.5462  0.7083
  927MOL0     H25104   6.931   2.621   9.261 -1.1514  4.7766  2.8354
  927MOL0     H25105   6.961   2.675   9.484 -0.6252  3.1961  1.8157
  927MOL0     H25106   7.044   2.710   9.693  1.4934  0.6995  1.7886
  927MOL0     H25107   7.389   2.847  10.022 -0.8020 -0.3820  1.0972
  927MOL0     H25108   7.472   2.825  10.233 -0.2942  0.5188  0.1223
  927MOL0     H25109   7.618   2.516  10.500 -0.1424 -1.8436  0.5372
  927MOL0     H25110   7.580   2.433  10.343  0.9598  2.3721 -3.9831
  927MOL0     H25111   7.805   2.368  10.342  0.4819 -0.4619  0.0854
  927MOL0     H25112   7.850   2.530  10.336  0.5054  1.3387  2.3818
  927MOL0     H25113   7.788   2.409  10.601  0.8044 -2.4232  0.0558
  927MOL0     H25114   7.951   2.389  10.541  0.4163  0.3031  0.1905
  927MOL0     H25115   7.952   2.597  10.689 -0.3362  0.3045  0.9547
  927MOL0     H25116   7.820   2.659  10.594 -2.1869 -1.6997 -2.5566
  927MOL0     H25117   8.056   2.745  10.557 -1.3439  3.8369 -3.4174
  927MOL0     H25118   7.951   2.706  10.422 -1.3900 -0.5646  1.2093
  927MOL0     H25119   8.181   2.526  10.524  1.5644  1.1751 -0.4025
  927MOL0     H25120   8.101   2.523  10.361 -2.2801  1.1094  0.5300
  927MOL0     H25121   8.296   2.725  10.469 -1.0585  1.9641  0.8304
  927MOL0     H25122   8.210   2.756  10.318  1.1180  1.5928  2.0315
  927MOL0     H25123   8.442   2.648  10.287 -2.2699  4.2301  1.7195
  927MOL0     H25124   8.368   2.506  10.372  0.5825  1.6514  1.7759
  927MOL0     H25125   7.685   2.462  10.116  2.6478  1.6439 -0.6811
  927MOL0     H25126   7.573   2.476   9.905 -0.4491 -0.1789  0.0827
  927MOL0     H25127   7.451   2.691   9.569  1.2455 -1.6864 -0.6316
  927MOL0     H25128   7.372   2.668   9.333  1.3268 -1.2152  1.5373
  927MOL0     H25129   6.202   2.654   7.776 -0.7360  3.7437  1.3968
  927MOL0     H25130   5.949   2.621   7.740  0.7130  2.6006 -0.0147
  927MOL0     H25131   5.537   2.571   8.233  2.1004 -1.4576 -1.9895
  927MOL0     H25132   5.312   2.623   8.213  1.8341  1.7407  0.9594
  927MOL0     H25133   5.087   2.457   7.906 -1.0013 -1.0867  2.5648
  927MOL0     H25134   5.110   2.623   7.835 -0.6246 -1.1383 -0.9812
  927MOL0     H25135   4.914   2.701   7.964 -0.3090 -0.2680 -0.3210
  927MOL0     H25136   4.910   2.551   8.057  1.0141 -2.6454 -0.1779
  927MOL0     H25137   4.855   2.434   7.847 -3.0376 -0.5603  1.4434
  927MOL0     H25138   4.872   2.592   7.761 -3.8467  0.6995 -0.8462
  927MOL0     H25139   4.668   2.544   7.971  1.6495  2.2114  1.2211
  927MOL0     H25140   4.694   2.693   7.881  0.8376  0.0829  1.8203
  927MOL0     H25141   4.492   2.554   7.579 -0.9106 -1.0884  1.2352
  927MOL0     H25142   5.310   2.572   7.794  0.6643 -0.4870 -0.8087
  927MOL0     H25143   5.677   2.616   7.756 -0.3502 -0.1523 -1.4813
  927MOL0     H25144   5.608   2.454   7.739  3.3137 -0.3623 -0.9655
  927MOL0     H25145   5.512   2.582   7.675 -0.0335 -2.3469 -0.6247
  928MOL0     O25146   8.458   3.863   3.473 -0.5398  0.0560 -0.5733
  928MOL0     C25147   8.395   3.841   3.370  0.0108 -0.8667 -0.1955
  928MOL0     O25148   8.443   3.862   3.245 -0.1562  0.6387 -0.0964
  928MOL0     C25149   8.581   3.857   3.229 -0.2734 -0.6055 -0.3708
  928MOL0     C25150   8.657   3.742   3.190 -0.5031 -0.3870 -0.1819
  928MOL0     C25151   8.794   3.754   3.173 -0.2268 -0.3038  0.3309
  928MOL0     C25152   8.862   3.873   3.189 -0.3038  0.0252  0.6434
  928MOL0     O25153   9.003   3.873   3.189 -1.1130  0.3239  0.0065
  928MOL0     C25154   9.084   3.955   3.271  1.2576 -0.6542  0.6843
  928MOL0     C25155   9.230   3.912   3.264 -0.0971 -0.4085  0.6755
  928MOL0     C25156   9.309   3.935   3.138 -0.1118 -0.6213  0.5406
  928MOL0     C25157   9.424   3.833   3.130 -0.6373  0.1668  1.5420
  928MOL0     C25158   9.472   3.811   2.987  1.0653 -0.3985 -0.9986
  928MOL0     C25159   9.592   3.724   2.987  0.5039 -0.6191 -0.1453
  928MOL0     C25160   9.608   3.665   2.857 -0.3251  0.1153 -0.1249
  928MOL0     C25161   9.740   3.587   2.854 -0.6568  0.1063 -0.3910
  928MOL0     N25162   9.778   3.560   2.710 -0.3527 -0.0404 -0.8650
  928MOL0     C25163   9.700   3.491   2.619 -0.2665  0.2645  0.4633
  928MOL0     C25164   9.764   3.508   2.495 -0.8489 -0.1517 -0.2320
  928MOL0     C25165   9.736   3.449   2.360 -0.0988  0.8427 -0.3778
  928MOL0     C25166   9.793   3.313   2.334 -0.3216 -0.5258  0.3776
  928MOL0     C25167   9.944   3.317   2.274 -0.2342  1.0028 -0.3371
  928MOL0     C25168  10.052   3.328   2.394 -0.1303 -0.7179  1.0207
  928MOL0     O25169  10.179   3.317   2.332  0.4771 -0.4417 -0.3384
  928MOL0     C25170  10.295   3.331   2.408  0.5373  0.8425 -0.7960
  928MOL0     C25171  10.294   3.361   2.543  0.0406  0.2130  0.1379
  928MOL0     C25172  10.423   3.365   2.605  0.3499  0.5322 -0.3031
  928MOL0     C25173  10.543   3.352   2.533 -0.8147  0.1766 -0.2623
  928MOL0     C25174  10.680   3.367   2.598  0.0740 -0.2705  0.5352
  928MOL0     O25175  10.771   3.434   2.529  0.2461  0.0522 -0.4848
  928MOL0     C25176  10.901   3.442   2.571  0.3876 -0.6117 -0.7646
  928MOL0     C25177  10.994   3.471   2.480 -0.7715  0.4657  0.0332
  928MOL0     C25178  11.132   3.482   2.517 -0.0560  0.2660 -1.0483
  928MOL0     C25179  11.167   3.465   2.656 -0.1183 -1.4203 -0.3235
  928MOL0     O25180  11.293   3.502   2.691  0.1413 -0.3922  0.1630
  928MOL0     C25181  11.347   3.412   2.794  0.0673 -0.9304  0.0455
  928MOL0     C25182  11.498   3.453   2.796  0.0784 -0.3742 -0.2669
  928MOL0     C25183  11.531   3.602   2.795 -0.3334 -0.3602  0.0396
  928MOL0     C25184  11.681   3.618   2.764  1.2088 -0.9456 -0.7504
  928MOL0     C25185  11.717   3.758   2.728 -0.7185 -0.3832  0.6892
  928MOL0     C25186  11.868   3.768   2.727 -0.2654 -0.7152  0.3724
  928MOL0     C25187  11.947   3.651   2.665 -0.0785  0.7728 -0.2440
  928MOL0     C25188  12.086   3.680   2.642 -1.1881 -1.0445  0.1214
  928MOL0    Cl25189  12.177   3.695   2.788  0.1729 -0.1918 -0.2383
  928MOL0     C25190  11.070   3.444   2.752  0.7012  0.6990 -0.1179
  928MOL0     C25191  10.940   3.443   2.707  0.9415  0.4873  0.6800
  928MOL0     O25192  10.691   3.309   2.702 -0.0765 -0.0955  0.5195
  928MOL0     C25193  10.542   3.316   2.401  0.2211 -0.5773 -0.3477
  928MOL0     C25194  10.418   3.307   2.340 -0.0891  0.4380  0.7652
  928MOL0     N25195   9.881   3.583   2.516  0.1039  0.0494 -0.5766
  928MOL0     N25196   9.880   3.617   2.641 -0.2264  0.8368 -0.3009
  928MOL0     C25197   8.789   3.986   3.213 -0.0019 -1.0365 -0.2947
  928MOL0     C25198   8.645   3.985   3.228  0.2075 -0.7445 -0.8684
  928MOL0     C25199   8.250   3.808   3.391  1.1391 -0.1184  0.3416
  928MOL0     C25200   8.179   3.810   3.516 -0.2820  0.7497 -0.2212
  928MOL0     C25201   8.041   3.791   3.541 -0.4770 -0.1037  1.1235
  928MOL0     C25202   7.957   3.757   3.428 -1.0558  0.2677 -0.6302
  928MOL0     O25203   7.825   3.733   3.448 -0.2849  0.2905 -0.1902
  928MOL0     C25204   7.752   3.754   3.569 -0.2342  0.1854 -0.2678
  928MOL0     C25205   7.604   3.708   3.561  0.2562 -0.1484 -0.2156
  928MOL0     C25206   7.530   3.717   3.693 -0.6383  0.0861 -0.2911
  928MOL0     C25207   7.379   3.713   3.669  0.4655 -0.0531  0.5486
  928MOL0     C25208   7.290   3.756   3.775 -0.5076  0.7172 -0.4979
  928MOL0     C25209   7.224   3.762   3.875 -0.1366 -0.0195  0.0631
  928MOL0     C25210   8.021   3.748   3.304  0.1736 -0.4490 -0.0535
  928MOL0     C25211   8.167   3.766   3.281 -0.4715 -0.9258 -0.0383
  928MOL0     C25212   8.205   3.762   3.141 -1.0131  0.6041 -0.2857
  928MOL0     H25213   8.601   3.652   3.168 -0.4466 -0.3845 -0.3368
  928MOL0     H25214   8.863   3.674   3.150  1.2967  0.7997  0.9125
  928MOL0     H25215   9.075   4.058   3.236  1.1476 -1.1741 -0.8973
  928MOL0     H25216   9.043   3.957   3.372 -3.8499  1.7442 -1.1019
  928MOL0     H25217   9.232   3.808   3.298 -0.7486  0.0940  2.3911
  928MOL0     H25218   9.269   3.972   3.347  1.2951 -2.2599  1.4328
  928MOL0     H25219   9.360   4.032   3.137 -0.1406 -0.5593  2.1856
  928MOL0     H25220   9.240   3.916   3.056  0.9496 -0.5860 -0.3788
  928MOL0     H25221   9.511   3.863   3.188  0.5924  1.8102 -1.0117
  928MOL0     H25222   9.401   3.737   3.177  0.7463  0.0205  1.9470
  928MOL0     H25223   9.393   3.752   2.939  1.1166 -1.9586  0.7131
  928MOL0     H25224   9.485   3.909   2.942 -0.4486  1.5452  2.4541
  928MOL0     H25225   9.681   3.781   3.015  0.6096 -1.2308  0.8011
  928MOL0     H25226   9.567   3.651   3.064 -3.6476 -1.0880 -1.6602
  928MOL0     H25227   9.605   3.750   2.788  2.7983  1.6642  1.4126
  928MOL0     H25228   9.520   3.604   2.837 -2.5533  3.1157 -0.1260
  928MOL0     H25229   9.816   3.646   2.905  1.1539 -1.5393 -1.0528
  928MOL0     H25230   9.727   3.491   2.905 -1.9959  2.0855  3.4010
  928MOL0     H25231   9.612   3.429   2.629 -0.3750  0.5782  1.6089
  928MOL0     H25232   9.627   3.438   2.362 -0.1266  1.0178 -0.7274
  928MOL0     H25233   9.756   3.529   2.288 -2.0680  5.1685  3.3660
  928MOL0     H25234   9.799   3.238   2.414  1.5135 -2.4022 -1.3838
  928MOL0     H25235   9.738   3.269   2.250  2.4347 -0.8609 -1.3700
  928MOL0     H25236   9.946   3.391   2.194 -0.4957  0.0244 -1.2798
  928MOL0     H25237   9.962   3.221   2.225 -0.6951  0.9255 -0.3608
  928MOL0     H25238  10.040   3.238   2.454  0.2455 -1.4712 -0.0064
  928MOL0     H25239  10.039   3.418   2.455 -4.0902 -0.2551 -0.1974
  928MOL0     H25240  10.209   3.391   2.602  0.4119  2.8291 -0.5203
  928MOL0     H25241  10.427   3.395   2.709  1.4860 -1.6367  0.3392
  928MOL0     H25242  10.964   3.475   2.375  1.9918  1.0106 -0.8196
  928MOL0     H25243  11.211   3.509   2.447 -1.8337 -0.4630 -3.4653
  928MOL0     H25244  11.315   3.422   2.898 -0.7303 -0.0914 -0.2717
  928MOL0     H25245  11.344   3.306   2.765  2.8744 -0.7549 -1.1842
  928MOL0     H25246  11.542   3.410   2.886  1.4978 -1.1751 -1.3165
  928MOL0     H25247  11.553   3.413   2.710 -0.8731  0.4756 -1.3131
  928MOL0     H25248  11.486   3.659   2.713  0.7998 -0.4217 -0.6546
  928MOL0     H25249  11.497   3.644   2.890  0.0006 -2.0063  0.9225
  928MOL0     H25250  11.701   3.553   2.678 -0.1559  0.6710 -2.3955
  928MOL0     H25251  11.745   3.581   2.844 -0.4756  0.3115  1.2921
  928MOL0     H25252  11.678   3.825   2.805 -0.3905  1.1720 -0.4659
  928MOL0     H25253  11.667   3.783   2.634 -0.8418 -3.3552 -0.1452
  928MOL0     H25254  11.886   3.863   2.675 -2.8560  0.8781  2.1774
  928MOL0     H25255  11.903   3.787   2.829 -0.7199  1.1972  0.2261
  928MOL0     H25256  11.913   3.629   2.564  1.3364 -0.3909 -0.5032
  928MOL0     H25257  11.947   3.558   2.722 -0.9177  0.1922 -1.1603
  928MOL0     H25258  12.135   3.597   2.591 -0.6876 -1.2794  0.9708
  928MOL0     H25259  12.106   3.761   2.571  3.5172 -3.2216 -1.4718
  928MOL0     H25260  11.087   3.439   2.859 -0.4977 -1.5407  0.0248
  928MOL0     H25261  10.860   3.451   2.780  0.4407  1.7155  0.0320
  928MOL0     H25262  10.631   3.295   2.342  0.7959 -0.5974  0.5063
  928MOL0     H25263  10.406   3.277   2.237  3.3634 -0.4125  0.4942
  928MOL0     H25264   8.839   4.082   3.211 -1.3695 -0.3035 -0.8838
  928MOL0     H25265   8.595   4.078   3.253 -1.2635 -1.8845  0.7215
  928MOL0     H25266   8.239   3.835   3.603  0.0308  0.3028 -0.3073
  928MOL0     H25267   8.012   3.782   3.645  3.3670  1.5216  2.4857
  928MOL0     H25268   7.745   3.860   3.594 -0.2407  0.7328 -2.4383
  928MOL0     H25269   7.798   3.701   3.653  0.2365 -0.5041 -0.9487
  928MOL0     H25270   7.600   3.607   3.519 -1.5095  0.3901 -1.4964
  928MOL0     H25271   7.555   3.773   3.488 -0.0706  0.1656  0.2794
  928MOL0     H25272   7.550   3.810   3.747 -3.6515  0.5088  0.2610
  928MOL0     H25273   7.553   3.627   3.751  0.7678  2.4120  3.1205
  928MOL0     H25274   7.345   3.749   3.572  2.1347  1.2130  0.3811
  928MOL0     H25275   7.364   3.605   3.666  2.7194 -0.4618  1.6892
  928MOL0     H25276   7.156   3.781   3.956  1.0416  0.4905  0.9622
  928MOL0     H25277   7.958   3.732   3.218 -1.3742 -0.5432  1.0641
  928MOL0     H25278   8.226   3.864   3.108  0.8501 -0.5192 -2.8424
  928MOL0     H25279   8.288   3.691   3.146 -1.3587  0.2611  3.2005
  928MOL0     H25280   8.131   3.717   3.074 -0.2465  2.9979 -2.9408
  929MOL0     O25281   3.186   6.182   8.018 -0.2583  0.2752  0.5025
  929MOL0     C25282   3.121   6.107   7.949  0.2530 -0.1921 -0.2245
  929MOL0     O25283   3.162   6.031   7.855 -0.0813  0.4614  0.4476
  929MOL0     C25284   3.290   6.051   7.802 -0.4847 -0.8560 -0.3590
  929MOL0     C25285   3.408   6.017   7.871  0.2066 -0.4374 -0.3652
  929MOL0     C25286   3.531   6.065   7.833  0.2595  0.9727 -0.0419
  929MOL0     C25287   3.543   6.144   7.718 -0.6135 -0.3882 -0.1536
  929MOL0     O25288   3.671   6.185   7.677  0.2529  0.0753 -0.1309
  929MOL0     C25289   3.777   6.095   7.682 -0.1257  0.2568  0.6079
  929MOL0     C25290   3.899   6.134   7.606  1.3595 -0.3645  1.2446
  929MOL0     C25291   3.985   6.244   7.684 -0.2217  0.3356  0.0532
  929MOL0     C25292   4.116   6.261   7.604  0.6035 -0.0440 -1.1277
  929MOL0     C25293   4.220   6.360   7.672  0.4762  0.7092 -0.3694
  929MOL0     C25294   4.281   6.322   7.810 -0.1046  0.3660 -0.7240
  929MOL0     C25295   4.414   6.401   7.827  0.1297  0.3713  0.3689
  929MOL0     C25296   4.483   6.368   7.951 -1.4541  0.6059  0.2342
  929MOL0     N25297   4.624   6.421   7.969 -0.3430 -0.1476 -0.1483
  929MOL0     C25298   4.709   6.446   7.862 -0.2481 -0.6809  0.1505
  929MOL0     C25299   4.825   6.485   7.915 -0.5821 -0.5887  0.1447
  929MOL0     C25300   4.947   6.519   7.827 -0.5391 -0.9677  0.1143
  929MOL0     C25301   5.070   6.559   7.911 -0.4778 -0.2865  0.5716
  929MOL0     C25302   5.192   6.618   7.826 -0.2768 -0.4485  0.6047
  929MOL0     C25303   5.271   6.515   7.750  0.7180  0.6923 -0.7310
  929MOL0     O25304   5.346   6.563   7.640  0.2188 -0.5300  0.2542
  929MOL0     C25305   5.466   6.605   7.664 -0.4624 -0.2211 -0.1085
  929MOL0     C25306   5.573   6.528   7.604  0.1519  0.2728 -1.0670
  929MOL0     C25307   5.704   6.563   7.633 -0.1761 -0.1478 -0.3948
  929MOL0     C25308   5.731   6.668   7.717 -0.3174  0.4011 -0.5361
  929MOL0     C25309   5.870   6.700   7.761 -0.2801  0.4844  1.0633
  929MOL0     O25310   5.972   6.648   7.680  0.5595  0.5228  0.0082
  929MOL0     C25311   6.103   6.651   7.720  1.1024  0.0920  0.3936
  929MOL0     C25312   6.160   6.558   7.804  0.3764  0.8809  0.3795
  929MOL0     C25313   6.287   6.562   7.854  0.0552 -0.5098 -0.7980
  929MOL0     C25314   6.369   6.670   7.806 -0.9038 -0.7562 -0.0544
  929MOL0     O25315   6.509   6.679   7.830 -0.0152  0.4807 -0.8383
  929MOL0     C25316   6.593   6.566   7.808  0.0180 -0.0141  0.0177
  929MOL0     C25317   6.738   6.601   7.809 -0.0216  0.3326  0.5288
  929MOL0     C25318   6.794   6.622   7.668 -0.1196  0.3500 -0.2980
  929MOL0     C25319   6.935   6.684   7.685 -0.1750 -0.0902 -0.9023
  929MOL0     C25320   7.015   6.698   7.553  0.2267  0.4403  0.1224
  929MOL0     C25321   7.088   6.576   7.526 -0.1200 -0.0560  0.2625
  929MOL0     C25322   7.146   6.566   7.382  0.5101  0.2734 -0.2686
  929MOL0     C25323   7.217   6.435   7.341 -0.7867  0.0080 -1.0142
  929MOL0    Cl25324   7.371   6.418   7.444  0.1216  0.2453 -0.1248
  929MOL0     C25325   6.319   6.770   7.729 -0.6750  0.8398  0.4261
  929MOL0     C25326   6.182   6.767   7.680 -0.7808 -0.7483 -0.5246
  929MOL0     O25327   5.889   6.756   7.872 -0.3494  1.0145  0.1611
  929MOL0     C25328   5.624   6.735   7.788 -0.4390  0.9507 -0.0619
  929MOL0     C25329   5.490   6.706   7.754  0.3845 -1.0355 -0.7035
  929MOL0     N25330   4.818   6.485   8.052 -0.6362 -0.7108 -0.3750
  929MOL0     N25331   4.694   6.456   8.080 -0.2328  0.2565 -0.0132
  929MOL0     C25332   3.426   6.186   7.654  0.0759 -0.1179  0.0552
  929MOL0     C25333   3.304   6.141   7.689  0.1217  0.4379  0.1149
  929MOL0     C25334   2.981   6.088   7.985  0.4778 -0.0906  0.7359
  929MOL0     C25335   2.944   6.059   8.122 -0.4206  0.2817 -0.0541
  929MOL0     C25336   2.806   6.056   8.148 -0.5640 -0.0270 -0.7831
  929MOL0     C25337   2.707   6.050   8.047 -0.0571 -0.1440 -0.8257
  929MOL0     O25338   2.580   6.035   8.084  0.2314 -0.4766  0.5182
  929MOL0     C25339   2.495   6.154   8.097 -0.4202 -0.2027  0.4965
  929MOL0     C25340   2.514   6.219   8.230  0.0444  0.2207  0.2801
  929MOL0     C25341   2.409   6.332   8.246  0.5145  0.2699 -0.3622
  929MOL0     C25342   2.288   6.273   8.317 -0.7340  0.3095  0.3000
  929MOL0     C25343   2.171   6.360   8.308 -0.6066 -0.2374 -0.2791
  929MOL0     C25344   2.071   6.429   8.307 -0.4407 -0.3104  0.0471
  929MOL0     C25345   2.747   6.082   7.921 -0.5853 -0.4442 -0.0554
  929MOL0     C25346   2.880   6.108   7.887  0.4419  0.8330  0.5063
  929MOL0     C25347   2.915   6.139   7.741  0.2542  0.7152 -0.6106
  929MOL0     H25348   3.389   5.956   7.959  1.9286 -0.0570  0.3242
  929MOL0     H25349   3.615   6.039   7.897  2.1067  1.2724 -2.2104
  929MOL0     H25350   3.809   6.076   7.785  0.0491 -2.9471  0.0536
  929MOL0     H25351   3.742   5.997   7.648 -0.7108  0.5993  0.2107
  929MOL0     H25352   3.869   6.176   7.510  0.2770  3.2619  2.9646
  929MOL0     H25353   3.970   6.051   7.598 -0.1128 -1.4680 -1.3607
  929MOL0     H25354   4.001   6.209   7.787 -0.3755 -2.6155 -0.8258
  929MOL0     H25355   3.934   6.340   7.683  0.6935  0.8978  1.8324
  929MOL0     H25356   4.173   6.168   7.602  0.1653 -0.3755  0.5122
  929MOL0     H25357   4.105   6.299   7.502 -4.1901 -0.3741 -0.9611
  929MOL0     H25358   4.304   6.370   7.602  1.3811 -1.1598  0.3884
  929MOL0     H25359   4.180   6.462   7.672  2.6153  1.6072 -0.0839
  929MOL0     H25360   4.210   6.346   7.889  0.4937 -0.6660  0.1583
  929MOL0     H25361   4.311   6.216   7.812 -1.0061  0.1083  0.5834
  929MOL0     H25362   4.375   6.503   7.817  2.2551  1.0216 -2.4478
  929MOL0     H25363   4.477   6.377   7.741  1.3848 -1.5897  1.7495
  929MOL0     H25364   4.411   6.378   8.032 -2.3621 -0.3843 -0.4154
  929MOL0     H25365   4.513   6.263   7.943  2.6554  1.7410 -2.5114
  929MOL0     H25366   4.704   6.443   7.753  3.8717  0.6627 -0.2704
  929MOL0     H25367   4.976   6.436   7.763  3.2596 -0.1577  0.5258
  929MOL0     H25368   4.923   6.604   7.761  0.5343 -0.0011  0.9161
  929MOL0     H25369   5.040   6.643   7.974 -1.5746  1.5367 -2.1668
  929MOL0     H25370   5.090   6.479   7.983 -0.1599 -2.0698 -1.4009
  929MOL0     H25371   5.262   6.652   7.903  1.6327  1.3887 -1.7791
  929MOL0     H25372   5.146   6.701   7.773 -2.4864  0.2445  3.3644
  929MOL0     H25373   5.195   6.455   7.700  1.4638 -0.4560 -0.5091
  929MOL0     H25374   5.332   6.449   7.812  1.1779  2.5329  0.8756
  929MOL0     H25375   5.552   6.450   7.532  1.4803 -1.0206 -0.1160
  929MOL0     H25376   5.782   6.506   7.582 -1.5386 -0.7907 -1.8380
  929MOL0     H25377   6.092   6.484   7.846 -0.3068  0.0649 -2.0418
  929MOL0     H25378   6.329   6.500   7.932  2.0992 -1.4808 -2.5735
  929MOL0     H25379   6.581   6.491   7.886  0.8498  0.8806  1.0489
  929MOL0     H25380   6.562   6.522   7.713 -0.8082  1.8396 -0.6289
  929MOL0     H25381   6.745   6.695   7.865  0.8325 -0.3038  1.5243
  929MOL0     H25382   6.786   6.526   7.871 -1.0329 -0.8976 -0.1410
  929MOL0     H25383   6.797   6.527   7.614 -1.7142 -0.9113  1.6654
  929MOL0     H25384   6.735   6.697   7.614  0.3155  3.4538  3.0763
  929MOL0     H25385   6.990   6.624   7.759  0.0468  0.4881 -0.5924
  929MOL0     H25386   6.919   6.780   7.734 -1.1404  0.0529 -1.4786
  929MOL0     H25387   7.076   6.788   7.544 -0.4401  0.7988 -0.9744
  929MOL0     H25388   6.947   6.715   7.469  0.6517  0.1911 -0.2756
  929MOL0     H25389   7.171   6.576   7.597  1.8076  0.9378 -1.8483
  929MOL0     H25390   7.027   6.488   7.549  0.6068 -1.3712 -2.4392
  929MOL0     H25391   7.223   6.642   7.364  1.2637 -1.2407 -4.6376
  929MOL0     H25392   7.070   6.589   7.307 -0.8047  0.7882  1.1632
  929MOL0     H25393   7.159   6.342   7.336 -0.5387 -0.2285  0.0875
  929MOL0     H25394   7.261   6.458   7.244  2.7488  3.6291  1.0925
  929MOL0     H25395   6.380   6.856   7.705  1.2075 -0.7201 -0.6237
  929MOL0     H25396   6.161   6.851   7.615  1.8664  1.3819  1.1716
  929MOL0     H25397   5.652   6.807   7.865  2.9218 -0.3302  0.0861
  929MOL0     H25398   5.402   6.745   7.803  0.0440 -0.2708 -1.8613
  929MOL0     H25399   3.433   6.256   7.570 -1.6656 -0.1288 -0.1377
  929MOL0     H25400   3.214   6.179   7.642 -1.0378 -3.8247 -1.5274
  929MOL0     H25401   3.021   6.052   8.198  0.9026 -2.5195 -1.4897
  929MOL0     H25402   2.774   6.034   8.250  0.7561 -4.3707 -1.0844
  929MOL0     H25403   2.392   6.125   8.078 -0.1849 -0.1741 -1.0117
  929MOL0     H25404   2.519   6.227   8.019 -2.0884  0.6953  0.7829
  929MOL0     H25405   2.610   6.271   8.236  0.2017 -0.1465  0.9773
  929MOL0     H25406   2.500   6.149   8.312  0.2870  2.7526  2.6475
  929MOL0     H25407   2.387   6.367   8.145  0.7929  1.8840  0.1004
  929MOL0     H25408   2.452   6.411   8.308  2.6676 -1.0057 -0.1515
  929MOL0     H25409   2.268   6.172   8.278 -0.8046 -0.2111  1.6258
  929MOL0     H25410   2.328   6.258   8.417  1.2508 -0.1817 -0.5194
  929MOL0     H25411   1.978   6.483   8.308 -0.3087 -0.0835  0.2731
  929MOL0     H25412   2.664   6.097   7.852 -1.1226  1.9653  0.9843
  929MOL0     H25413   2.829   6.171   7.682 -0.6071  2.5487  1.5098
  929MOL0     H25414   2.993   6.216   7.732 -0.6086  1.3625 -3.9454
  929MOL0     H25415   2.943   6.049   7.685  1.6353  1.2299 -0.7960
  930MOL0     O25416   0.328   6.369   9.914 -0.8658 -0.4964  0.3065
  930MOL0     C25417   0.249   6.300   9.973  0.1490 -0.0306  0.5040
  930MOL0     O25418   0.254   6.268  10.110  0.3800  0.7782 -0.0845
  930MOL0     C25419   0.348   6.332  10.186 -0.5901  0.3049  0.2204
  930MOL0     C25420   0.336   6.454  10.246 -0.5982 -0.2776  0.1449
  930MOL0     C25421   0.438   6.507  10.326  0.1252  0.4342 -0.3975
  930MOL0     C25422   0.566   6.457  10.325  0.1270  0.3744 -0.3552
  930MOL0     O25423   0.670   6.492  10.409  0.3294  0.9165  0.0962
  930MOL0     C25424   0.676   6.630  10.462  0.8014  0.7492  0.2789
  930MOL0     C25425   0.805   6.664  10.523  1.0915 -0.1587 -0.4166
  930MOL0     C25426   0.802   6.824  10.527 -0.1263 -0.3899  0.6100
  930MOL0     C25427   0.901   6.858  10.636  0.6580  0.5555  0.1643
  930MOL0     C25428   0.946   7.004  10.641 -0.8196 -0.6107  0.0692
  930MOL0     C25429   1.033   7.029  10.758  0.0930  0.1344  0.2107
  930MOL0     C25430   1.115   7.162  10.751 -0.6627 -0.7105  0.2486
  930MOL0     C25431   1.023   7.280  10.767  0.3305  0.6613 -0.2638
  930MOL0     N25432   1.111   7.394  10.793 -0.2565  0.7123 -0.6433
  930MOL0     C25433   1.186   7.446  10.686  0.9041  0.2345  0.1661
  930MOL0     C25434   1.264   7.534  10.748 -0.4007 -0.0666 -0.4224
  930MOL0     C25435   1.378   7.609  10.675 -0.1299 -0.1337 -0.7226
  930MOL0     C25436   1.513   7.601  10.755  0.3507  0.2364  0.3916
  930MOL0     C25437   1.631   7.642  10.661 -0.5107 -0.2131  0.1704
  930MOL0     C25438   1.769   7.632  10.736  0.5947 -0.4273  0.4973
  930MOL0     O25439   1.762   7.734  10.828  0.7846  0.3546  0.2866
  930MOL0     C25440   1.883   7.800  10.837  0.7156 -1.0852 -0.5763
  930MOL0     C25441   1.891   7.923  10.778  0.2802  0.1956 -0.4524
  930MOL0     C25442   2.001   8.001  10.782  0.2800  0.8284  0.4296
  930MOL0     C25443   2.116   7.952  10.847 -0.5060  0.8219  0.1425
  930MOL0     C25444   2.235   8.039  10.871  0.7864  0.4503 -0.0428
  930MOL0     O25445   2.309   8.006  10.979  0.8821  0.2709  0.5036
  930MOL0     C25446   2.418   8.083  11.011  0.6658 -0.7263  0.0528
  930MOL0     C25447   2.406   8.186  11.106 -0.2256  0.1966  0.0207
  930MOL0     C25448   2.507   8.280  11.128  0.0860  0.9517 -0.2601
  930MOL0     C25449   2.632   8.273  11.055  0.0166  0.3466 -0.0459
  930MOL0     O25450   2.736   8.356  11.080 -0.3217  0.3822 -0.3126
  930MOL0     C25451   2.840   8.380  10.980  1.0725  0.2163 -0.6961
  930MOL0     C25452   2.906   8.515  11.023 -0.3562 -0.2235 -0.7852
  930MOL0     C25453   3.020   8.571  10.929 -0.0209 -0.7152 -1.0161
  930MOL0     C25454   2.962   8.640  10.813 -0.0737 -0.8103 -1.6882
  930MOL0     C25455   3.057   8.734  10.758 -0.5610  0.4909  0.1496
  930MOL0     C25456   2.984   8.822  10.656 -0.0519  1.0309 -0.2010
  930MOL0     C25457   3.084   8.922  10.597  0.2117 -0.1663  0.0595
  930MOL0     C25458   2.996   9.031  10.534 -0.4565  0.0226  0.4777
  930MOL0    Cl25459   3.111   9.116  10.433  0.3575  0.2183  0.1362
  930MOL0     C25460   2.646   8.172  10.955  0.6105  0.0669 -0.2918
  930MOL0     C25461   2.532   8.090  10.931  0.2541 -0.6138 -0.5372
  930MOL0     O25462   2.241   8.145  10.813 -0.1867  1.2194  0.3469
  930MOL0     C25463   2.113   7.824  10.909 -0.6167  0.1616  0.4031
  930MOL0     C25464   1.993   7.744  10.903  0.2898 -0.2566 -0.5018
  930MOL0     N25465   1.233   7.541  10.882 -0.2322 -0.4369 -0.5305
  930MOL0     N25466   1.138   7.460  10.907 -0.0420 -0.3394 -0.7529
  930MOL0     C25467   0.585   6.337  10.253 -0.2298  0.3075  0.5046
  930MOL0     C25468   0.470   6.276  10.184 -1.5422 -0.1538  0.4905
  930MOL0     C25469   0.127   6.266   9.898 -0.4478  0.7943  0.2992
  930MOL0     C25470   0.062   6.145   9.928 -0.3890 -0.5825  0.3096
  930MOL0     C25471  -0.048   6.101   9.861  0.6888  0.8061  0.7626
  930MOL0     C25472  -0.102   6.171   9.752  0.1220 -0.2961  0.1650
  930MOL0     O25473  -0.226   6.139   9.694 -0.0924 -0.0898 -0.3560
  930MOL0     C25474  -0.264   6.003   9.682 -0.2111  0.2052 -0.0548
  930MOL0     C25475  -0.401   5.991   9.621  0.0556  1.5144 -0.4371
  930MOL0     C25476  -0.508   5.939   9.714  0.4931 -0.0829 -0.3854
  930MOL0     C25477  -0.540   6.037   9.833 -0.5284 -1.0986  0.0377
  930MOL0     C25478  -0.640   5.989   9.931  0.2235 -0.3950 -0.5124
  930MOL0     C25479  -0.735   5.939   9.992 -0.7809  0.4019 -0.0590
  930MOL0     C25480  -0.032   6.293   9.721  0.4392 -1.0449 -0.6060
  930MOL0     C25481   0.077   6.343   9.793 -0.1153 -0.1377 -0.5430
  930MOL0     C25482   0.125   6.481   9.762  0.0579  0.3568 -0.3330
  930MOL0     H25483   0.249   6.513  10.220 -1.5993 -1.7499  0.0912
  930MOL0     H25484   0.412   6.590  10.392 -0.4599 -0.7029  0.8372
  930MOL0     H25485   0.654   6.700  10.380 -0.4340  0.5434  0.4096
  930MOL0     H25486   0.597   6.641  10.537 -0.5460 -0.6286 -0.8759
  930MOL0     H25487   0.887   6.631  10.459  1.5447 -0.1169  0.1370
  930MOL0     H25488   0.803   6.613  10.620 -0.9303 -0.2290 -0.4602
  930MOL0     H25489   0.704   6.868  10.549 -0.7302 -1.1164 -0.5468
  930MOL0     H25490   0.832   6.864  10.430 -1.2892 -3.3955 -1.1408
  930MOL0     H25491   0.846   6.830  10.725 -2.8798  1.6528 -1.5016
  930MOL0     H25492   0.995   6.807  10.611  1.5720  1.7694  0.9891
  930MOL0     H25493   1.000   7.040  10.553 -2.5212 -0.0831 -0.7974
  930MOL0     H25494   0.860   7.068  10.661 -1.0481 -0.6701 -0.6692
  930MOL0     H25495   0.964   7.030  10.843  1.6985 -1.6805  1.6266
  930MOL0     H25496   1.097   6.940  10.758  0.3451  0.3135  0.5743
  930MOL0     H25497   1.181   7.170  10.664  1.5602 -3.9772  1.4334
  930MOL0     H25498   1.182   7.158  10.837 -0.6565 -1.1786  0.2249
  930MOL0     H25499   0.974   7.299  10.671  2.3506  2.1893 -1.0445
  930MOL0     H25500   0.943   7.254  10.837 -2.2331  0.4786 -3.0656
  930MOL0     H25501   1.189   7.414  10.582  0.8276 -2.3670  0.9118
  930MOL0     H25502   1.391   7.568  10.575  0.5695 -1.7369 -0.0169
  930MOL0     H25503   1.361   7.717  10.672 -0.3538 -0.1961 -2.5004
  930MOL0     H25504   1.516   7.657  10.848 -0.9330  2.0152 -0.5777
  930MOL0     H25505   1.531   7.502  10.798 -2.7881 -1.0240 -0.8206
  930MOL0     H25506   1.622   7.750  10.648 -2.2485 -0.3353  0.0678
  930MOL0     H25507   1.642   7.586  10.568  1.8640  0.2032  0.1297
  930MOL0     H25508   1.858   7.638  10.672  0.3751  0.4477  0.2650
  930MOL0     H25509   1.785   7.544  10.800  1.3290 -0.2054  0.6279
  930MOL0     H25510   1.804   7.946  10.718 -1.1294 -0.6695  1.1807
  930MOL0     H25511   1.994   8.088  10.717 -1.8728  0.5360  0.1823
  930MOL0     H25512   2.307   8.201  11.146 -1.2044 -2.6288 -1.0596
  930MOL0     H25513   2.493   8.364  11.194  1.0705  0.3569  0.7436
  930MOL0     H25514   2.923   8.308  10.976  1.5578  0.6440  0.8072
  930MOL0     H25515   2.801   8.379  10.879 -0.8144 -0.1485  0.0050
  930MOL0     H25516   2.827   8.590  11.028  1.6978  1.9914  1.1081
  930MOL0     H25517   2.945   8.489  11.122  2.0451 -0.6993 -1.7654
  930MOL0     H25518   3.087   8.638  10.983  0.2786 -1.5559 -0.3293
  930MOL0     H25519   3.093   8.496  10.897  0.3541 -1.1224  0.6998
  930MOL0     H25520   2.873   8.696  10.843  0.4968 -1.1093  0.8182
  930MOL0     H25521   2.937   8.573  10.730  1.2646 -1.7327 -1.3886
  930MOL0     H25522   3.147   8.686  10.718 -0.9592  0.3026 -0.5261
  930MOL0     H25523   3.092   8.808  10.831  0.5167 -1.9422  2.2173
  930MOL0     H25524   2.952   8.764  10.569  0.6292  1.9177 -1.0784
  930MOL0     H25525   2.906   8.877  10.711  2.0236  2.2681  1.6760
  930MOL0     H25526   3.135   8.861  10.522 -4.3669 -3.0019 -1.1151
  930MOL0     H25527   3.155   8.958  10.672  0.7735  0.2020 -0.6320
  930MOL0     H25528   2.927   8.984  10.463  0.1535 -0.4082  0.1598
  930MOL0     H25529   2.942   9.090  10.608 -1.4105 -0.7052  0.3753
  930MOL0     H25530   2.743   8.156  10.908  1.5176 -0.2056  1.6070
  930MOL0     H25531   2.518   8.034  10.839 -0.1587 -0.9129 -0.2966
  930MOL0     H25532   2.199   7.783  10.961  2.1767 -0.7229 -4.3428
  930MOL0     H25533   1.987   7.646  10.949  2.5234 -1.2087 -2.0797
  930MOL0     H25534   0.685   6.296  10.253 -0.1609  0.3336 -2.2776
  930MOL0     H25535   0.497   6.196  10.116  1.7371 -1.2316  2.8342
  930MOL0     H25536   0.102   6.087  10.011 -2.2333 -1.3664  0.6966
  930MOL0     H25537  -0.104   6.011   9.884 -0.2501  0.2770 -2.8449
  930MOL0     H25538  -0.280   5.945   9.773 -2.1291 -0.0676 -0.5155
  930MOL0     H25539  -0.190   5.955   9.618 -0.4610 -0.5497  0.2071
  930MOL0     H25540  -0.399   5.913   9.545 -1.0444 -1.0308  1.9500
  930MOL0     H25541  -0.430   6.087   9.577  0.6751  1.7875 -0.2632
  930MOL0     H25542  -0.485   5.845   9.766 -0.7772  0.2552  0.8353
  930MOL0     H25543  -0.594   5.912   9.652  1.9390 -2.6815 -1.4396
  930MOL0     H25544  -0.451   6.059   9.893  1.3999  0.7699 -3.2033
  930MOL0     H25545  -0.578   6.127   9.785 -0.5707 -1.2221 -0.1628
  930MOL0     H25546  -0.824   5.908  10.044 -1.3021  0.0680 -1.1184
  930MOL0     H25547  -0.073   6.359   9.645 -2.7030  0.7128  2.3132
  930MOL0     H25548   0.064   6.524   9.682  0.9246 -0.7839 -1.6534
  930MOL0     H25549   0.121   6.549   9.848  2.3025  1.0788 -0.7135
  930MOL0     H25550   0.229   6.493   9.729 -0.3885 -0.3999 -2.1210
  931MOL0     O25551   2.917   2.235   1.619  0.1989 -0.6638 -0.2732
  931MOL0     C25552   2.840   2.265   1.712  0.1679 -0.4339  1.3565
  931MOL0     O25553   2.861   2.248   1.845  0.1019 -0.0937  0.6725
  931MOL0     C25554   2.972   2.195   1.899 -0.1759  0.0716  0.3675
  931MOL0     C25555   3.040   2.085   1.841 -0.0109 -0.5277  0.1436
  931MOL0     C25556   3.155   2.028   1.906  0.7046  0.1401 -0.1805
  931MOL0     C25557   3.205   2.074   2.034 -0.8726  0.2213  0.3855
  931MOL0     O25558   3.312   2.022   2.091  0.4089  0.1856 -0.2295
  931MOL0     C25559   3.301   1.879   2.125 -0.0401 -0.5347 -0.1932
  931MOL0     C25560   3.429   1.839   2.187 -0.5687  0.1115 -1.0356
  931MOL0     C25561   3.481   1.920   2.307  0.2559  0.3585 -0.8966
  931MOL0     C25562   3.618   1.877   2.360  0.0973 -0.1615  0.1284
  931MOL0     C25563   3.666   2.002   2.450  0.4159 -1.0586 -0.6909
  931MOL0     C25564   3.705   2.128   2.361  0.0427  0.0990  0.3518
  931MOL0     C25565   3.864   2.129   2.331  0.0022  0.5048 -0.2955
  931MOL0     C25566   3.917   2.015   2.245 -0.0124 -0.2591  0.0135
  931MOL0     N25567   4.039   2.054   2.185 -0.3132 -0.5883  0.1693
  931MOL0     C25568   4.051   2.125   2.069 -1.0774  0.2997  0.2434
  931MOL0     C25569   4.181   2.137   2.042 -0.7745  0.4026  0.5496
  931MOL0     C25570   4.264   2.209   1.931  1.0481  0.2516 -0.5411
  931MOL0     C25571   4.314   2.352   1.959  0.3062  0.9617 -0.2632
  931MOL0     C25572   4.411   2.360   2.072 -0.6661  0.4020 -0.5309
  931MOL0     C25573   4.523   2.252   2.069 -0.5259 -0.1673 -0.6447
  931MOL0     O25574   4.580   2.234   1.939  0.2862  0.1962  0.2499
  931MOL0     C25575   4.698   2.293   1.909 -0.5126 -0.4860  1.0055
  931MOL0     C25576   4.820   2.270   1.977  0.2947  0.5750 -0.2757
  931MOL0     C25577   4.944   2.316   1.935 -0.5183 -0.6494  0.3245
  931MOL0     C25578   4.947   2.405   1.823  0.4631  0.7691  0.1814
  931MOL0     C25579   5.075   2.474   1.793  0.7967 -0.1921  0.0702
  931MOL0     O25580   5.077   2.550   1.683 -0.6188 -0.2763  0.1342
  931MOL0     C25581   5.191   2.607   1.651 -0.1541 -0.4317 -0.1007
  931MOL0     C25582   5.314   2.543   1.626 -0.6768  0.6872  0.1051
  931MOL0     C25583   5.435   2.621   1.599 -0.1651 -0.7025  0.2514
  931MOL0     C25584   5.427   2.761   1.594 -0.5483  0.3961  0.3935
  931MOL0     O25585   5.532   2.844   1.557  0.3187 -0.2837 -0.2841
  931MOL0     C25586   5.651   2.843   1.643  0.4901  0.5476  0.2409
  931MOL0     C25587   5.758   2.881   1.542  0.6883 -0.6122 -0.1371
  931MOL0     C25588   5.776   3.030   1.526 -0.2437  0.7296  0.1704
  931MOL0     C25589   5.676   3.103   1.443 -0.5117  0.1095 -0.0805
  931MOL0     C25590   5.615   3.041   1.307  0.4347  0.7178 -0.5476
  931MOL0     C25591   5.497   3.123   1.252 -0.0369  0.2817 -0.5865
  931MOL0     C25592   5.355   3.126   1.324 -0.1832 -1.1287 -0.1338
  931MOL0     C25593   5.246   3.126   1.208  0.2644  0.4959 -0.9270
  931MOL0    Cl25594   5.246   3.285   1.130  0.4975  0.4115  0.0645
  931MOL0     C25595   5.306   2.826   1.618  0.6063  0.0901  0.9404
  931MOL0     C25596   5.188   2.749   1.630  0.2976 -0.3428  0.1072
  931MOL0     O25597   5.165   2.465   1.873  0.3318 -0.2508 -0.0516
  931MOL0     C25598   4.829   2.436   1.760  1.0011 -0.8760  0.1840
  931MOL0     C25599   4.706   2.376   1.802 -0.2693  0.2519 -0.4461
  931MOL0     N25600   4.248   2.077   2.147  0.0717 -0.6058  0.0255
  931MOL0     N25601   4.162   2.033   2.234  0.2319  0.2879  0.7951
  931MOL0     C25602   3.136   2.196   2.080 -0.4141  0.5574 -0.7150
  931MOL0     C25603   3.018   2.248   2.015 -0.0719 -0.0920 -0.1645
  931MOL0     C25604   2.694   2.308   1.673 -0.2120 -0.1385 -0.0723
  931MOL0     C25605   2.589   2.306   1.768  0.0143  0.0964  1.2288
  931MOL0     C25606   2.457   2.342   1.733  0.0765 -0.7407 -0.2838
  931MOL0     C25607   2.426   2.390   1.604  0.1649 -0.3764  0.2101
  931MOL0     O25608   2.298   2.422   1.581 -0.5280 -0.1072  0.1947
  931MOL0     C25609   2.268   2.517   1.473  0.0611  0.5230  1.0186
  931MOL0     C25610   2.153   2.611   1.515 -0.6520  0.1366  0.6133
  931MOL0     C25611   2.171   2.665   1.657  0.3538 -0.8735  0.4007
  931MOL0     C25612   2.068   2.768   1.712  0.2760 -1.1705 -0.0789
  931MOL0     C25613   1.935   2.734   1.654 -0.3147 -0.0223 -0.9366
  931MOL0     C25614   1.842   2.710   1.582 -0.4458  0.9957 -0.5744
  931MOL0     C25615   2.527   2.393   1.508 -0.5703  0.3675 -0.1246
  931MOL0     C25616   2.655   2.347   1.542 -0.6445  0.3503  0.8944
  931MOL0     C25617   2.745   2.364   1.419 -0.3062 -0.0251 -0.2284
  931MOL0     H25618   3.000   2.043   1.749 -1.8114 -0.5517  0.9059
  931MOL0     H25619   3.187   1.938   1.855 -0.1848 -0.5758  0.5018
  931MOL0     H25620   3.224   1.867   2.202 -1.2503 -0.2301 -1.3078
  931MOL0     H25621   3.267   1.820   2.039 -1.6281  0.7349 -0.5004
  931MOL0     H25622   3.501   1.836   2.105 -0.8144  0.3443 -1.2636
  931MOL0     H25623   3.398   1.743   2.229 -0.9982  1.2813  1.5006
  931MOL0     H25624   3.412   1.899   2.390  1.5559 -1.8648 -0.3003
  931MOL0     H25625   3.470   2.027   2.286 -3.1840  0.4142  0.4583
  931MOL0     H25626   3.610   1.791   2.426 -0.1154  0.6084  1.1400
  931MOL0     H25627   3.681   1.858   2.273 -0.7901  0.3253 -0.6305
  931MOL0     H25628   3.581   2.016   2.517 -0.1338 -3.3766 -0.8369
  931MOL0     H25629   3.755   1.976   2.507 -0.7737  0.2064  1.8689
  931MOL0     H25630   3.643   2.128   2.270  1.7310 -1.4354 -0.8724
  931MOL0     H25631   3.683   2.222   2.412  0.4762  1.0342 -1.1001
  931MOL0     H25632   3.920   2.140   2.424 -0.9781 -1.4360  0.5918
  931MOL0     H25633   3.875   2.223   2.276 -2.2005  0.5579 -0.7613
  931MOL0     H25634   3.941   1.925   2.302  0.3768 -1.4689 -1.9781
  931MOL0     H25635   3.850   1.980   2.166  2.1959 -4.8907 -0.1415
  931MOL0     H25636   3.965   2.175   2.023 -0.4627 -0.2301 -1.5599
  931MOL0     H25637   4.352   2.146   1.912  2.9270  2.0697  1.5211
  931MOL0     H25638   4.205   2.213   1.840 -1.5829 -4.5796  0.6208
  931MOL0     H25639   4.372   2.390   1.875 -0.4243  0.7641 -0.8656
  931MOL0     H25640   4.232   2.422   1.974 -0.5081 -0.3747  2.1804
  931MOL0     H25641   4.363   2.361   2.170  1.4503  0.1585  0.5769
  931MOL0     H25642   4.469   2.452   2.063  2.4252 -1.4744 -1.8411
  931MOL0     H25643   4.491   2.151   2.098  0.1955  0.1104  1.2216
  931MOL0     H25644   4.602   2.275   2.141 -2.5912 -0.8152  1.9541
  931MOL0     H25645   4.809   2.208   2.066  0.8176  1.7065  0.5998
  931MOL0     H25646   5.029   2.291   1.999  0.6170 -2.4220 -1.7531
  931MOL0     H25647   5.314   2.435   1.639  1.9500  0.4773 -0.9945
  931MOL0     H25648   5.528   2.566   1.584 -0.8213 -1.6858 -0.3060
  931MOL0     H25649   5.650   2.918   1.722 -1.2965  1.1527 -0.3103
  931MOL0     H25650   5.663   2.739   1.677 -4.9035 -0.0681  1.2894
  931MOL0     H25651   5.852   2.848   1.587  0.1911  0.0663  1.4609
  931MOL0     H25652   5.744   2.835   1.443  1.2992  2.3196 -1.7182
  931MOL0     H25653   5.800   3.078   1.621 -1.2989 -0.5058  1.1015
  931MOL0     H25654   5.869   3.039   1.469  0.0694 -3.9635 -0.3964
  931MOL0     H25655   5.712   3.201   1.411 -1.1537  0.1684 -0.6408
  931MOL0     H25656   5.593   3.112   1.514  0.5082  0.3089  1.1131
  931MOL0     H25657   5.589   2.937   1.327 -0.6490  1.1555  0.4024
  931MOL0     H25658   5.692   3.036   1.229 -0.5676  2.0446 -1.6717
  931MOL0     H25659   5.538   3.224   1.248  0.9545 -0.0518  0.6134
  931MOL0     H25660   5.472   3.100   1.148 -0.7400  1.8242 -0.7847
  931MOL0     H25661   5.338   3.211   1.390  0.5705 -0.3260 -0.9315
  931MOL0     H25662   5.350   3.030   1.377  1.3360 -1.3010 -0.2691
  931MOL0     H25663   5.269   3.051   1.132 -1.0772  0.0894 -0.9459
  931MOL0     H25664   5.147   3.108   1.250  0.9350  0.4148  0.6951
  931MOL0     H25665   5.312   2.934   1.613 -0.8322  0.2752  2.2829
  931MOL0     H25666   5.090   2.793   1.646  0.7146  0.6361  0.0783
  931MOL0     H25667   4.837   2.501   1.674  0.3954  0.8197  1.3702
  931MOL0     H25668   4.616   2.408   1.751 -0.3771  1.6060  0.5363
  931MOL0     H25669   3.194   2.237   2.163  1.0531  1.0540 -1.9338
  931MOL0     H25670   2.955   2.326   2.057  0.6551  0.5643 -0.2553
  931MOL0     H25671   2.604   2.283   1.873 -0.8865 -1.9407  0.9604
  931MOL0     H25672   2.371   2.328   1.797  0.0107 -1.3785 -0.5017
  931MOL0     H25673   2.245   2.456   1.385  0.7007  1.7186 -0.0099
  931MOL0     H25674   2.358   2.577   1.455  1.0067 -1.6541 -2.6013
  931MOL0     H25675   2.060   2.553   1.520  1.6746 -3.9400  3.1032
  931MOL0     H25676   2.150   2.694   1.445  2.5330 -1.5481 -1.7813
  931MOL0     H25677   2.272   2.701   1.676  0.5836 -0.9379 -0.6341
  931MOL0     H25678   2.169   2.580   1.726  3.6511 -0.0105  1.7548
  931MOL0     H25679   2.066   2.760   1.821  1.0920 -0.1974  0.0256
  931MOL0     H25680   2.102   2.867   1.681  0.8978 -1.0426  0.9509
  931MOL0     H25681   1.753   2.680   1.530  1.8640  1.1427 -5.0242
  931MOL0     H25682   2.506   2.426   1.407  2.7556  2.5683 -0.2506
  931MOL0     H25683   2.720   2.444   1.348  0.3460  0.6421  0.2792
  931MOL0     H25684   2.843   2.389   1.459 -0.3668 -1.3143  0.7811
  931MOL0     H25685   2.753   2.267   1.369 -1.4091 -0.4305  0.3343
  932MOL0     O25686   1.946   0.824   9.508  0.6963  0.9879 -0.2143
  932MOL0     C25687   1.874   0.911   9.555  1.1633 -0.1946  0.3551
  932MOL0     O25688   1.918   1.020   9.615  0.4868  0.2582  0.1153
  932MOL0     C25689   2.050   1.046   9.645  1.0762  0.0730 -0.3182
  932MOL0     C25690   2.162   0.950   9.660 -0.6322  0.7218  0.1394
  932MOL0     C25691   2.292   0.999   9.706  0.2590 -0.0779  0.5477
  932MOL0     C25692   2.312   1.139   9.706 -0.6971 -0.0456 -0.1804
  932MOL0     O25693   2.431   1.188   9.753  0.7270 -0.5299 -0.1507
  932MOL0     C25694   2.504   1.278   9.657  0.6072  0.3171  0.3054
  932MOL0     C25695   2.633   1.333   9.708 -0.1084 -0.4271 -0.0157
  932MOL0     C25696   2.623   1.458   9.795  0.6160  0.5563  0.2799
  932MOL0     C25697   2.757   1.485   9.851 -0.3781  0.5220  0.4257
  932MOL0     C25698   2.760   1.628   9.915  0.5198  0.4061  0.0152
  932MOL0     C25699   2.885   1.646   9.998 -0.4080 -0.1186  0.1812
  932MOL0     C25700   2.884   1.776  10.074  0.7655 -0.1083 -0.4673
  932MOL0     C25701   2.856   1.898   9.994 -0.1720 -0.4732  0.4646
  932MOL0     N25702   2.959   1.907   9.897 -0.6583 -0.4938  0.1570
  932MOL0     C25703   3.074   1.984   9.922  0.2004 -0.4294 -0.7931
  932MOL0     C25704   3.155   1.958   9.820 -0.4101  0.3850  0.7318
  932MOL0     C25705   3.299   1.992   9.795  0.1986  0.0760 -0.0243
  932MOL0     C25706   3.369   1.850   9.770  0.1741  0.3040 -0.2417
  932MOL0     C25707   3.514   1.880   9.755  1.0292 -0.1926 -0.0663
  932MOL0     C25708   3.601   1.772   9.717 -1.3868  1.4760 -0.7889
  932MOL0     O25709   3.733   1.833   9.685 -0.1869  0.3516  0.1227
  932MOL0     C25710   3.843   1.750   9.663  0.2841  0.7782 -0.6508
  932MOL0     C25711   3.842   1.605   9.683  1.0162  0.5772 -0.8367
  932MOL0     C25712   3.960   1.530   9.659  0.8138 -0.7974  0.7903
  932MOL0     C25713   4.079   1.590   9.607  0.3693 -0.7623  0.1853
  932MOL0     C25714   4.205   1.522   9.558  0.1958 -1.2452 -0.5727
  932MOL0     O25715   4.296   1.598   9.486  0.0750 -0.1457 -0.5487
  932MOL0     C25716   4.422   1.550   9.454  0.5764 -0.7779 -0.1439
  932MOL0     C25717   4.521   1.644   9.410 -0.3073 -0.6328  0.3168
  932MOL0     C25718   4.647   1.610   9.358  0.0186 -0.0054  0.4502
  932MOL0     C25719   4.687   1.474   9.361 -0.0097  0.4391  0.3740
  932MOL0     O25720   4.803   1.432   9.313  0.8623 -0.2693 -0.0454
  932MOL0     C25721   4.866   1.334   9.395 -0.3295  0.0325 -0.6009
  932MOL0     C25722   5.021   1.316   9.378 -0.0116  1.2538 -0.3428
  932MOL0     C25723   5.099   1.441   9.412  0.3599 -0.7368  0.5340
  932MOL0     C25724   5.249   1.432   9.384 -0.2713 -0.2153 -0.0048
  932MOL0     C25725   5.334   1.507   9.496 -0.5242 -0.0290 -0.0275
  932MOL0     C25726   5.485   1.516   9.470  0.1023 -0.9826  0.4645
  932MOL0     C25727   5.544   1.386   9.418 -0.8361 -0.0631 -0.2299
  932MOL0     C25728   5.694   1.392   9.424 -0.2291 -0.6332 -0.2526
  932MOL0    Cl25729   5.779   1.237   9.389 -0.0658  0.2906  0.6599
  932MOL0     C25730   4.592   1.371   9.396 -0.8364 -0.7386  0.6316
  932MOL0     C25731   4.460   1.413   9.440  0.2425  0.6594 -0.1481
  932MOL0     O25732   4.228   1.412   9.609 -0.2146  0.1650 -0.2063
  932MOL0     C25733   4.075   1.736   9.583 -0.3863 -0.1853 -1.3424
  932MOL0     C25734   3.958   1.807   9.609 -0.2527  0.5395 -0.0333
  932MOL0     N25735   3.093   1.870   9.733  0.0760 -0.7337  0.2173
  932MOL0     N25736   2.974   1.846   9.778  0.2950 -0.0519  0.4640
  932MOL0     C25737   2.202   1.224   9.691  0.2170 -0.2832 -0.0960
  932MOL0     C25738   2.076   1.181   9.664  0.6606  1.0743  0.9196
  932MOL0     C25739   1.730   0.910   9.514  1.1461 -0.2913 -0.3842
  932MOL0     C25740   1.703   0.872   9.379 -0.1480  0.3182  0.7353
  932MOL0     C25741   1.575   0.881   9.320 -0.8007 -0.1358 -0.2998
  932MOL0     C25742   1.468   0.926   9.392 -0.2348  0.2862 -0.4983
  932MOL0     O25743   1.344   0.944   9.333  0.1343  0.3668  0.4494
  932MOL0     C25744   1.232   0.946   9.418 -0.1655 -0.1217  0.3899
  932MOL0     C25745   1.099   0.937   9.336  0.2690  0.2594 -0.1683
  932MOL0     C25746   0.976   0.929   9.433  0.4219 -0.2121 -0.0568
  932MOL0     C25747   0.839   0.964   9.366  0.1189  0.0999 -0.5625
  932MOL0     C25748   0.832   0.900   9.230  0.4843 -1.3643  0.2825
  932MOL0     C25749   0.820   0.838   9.127 -0.1300  0.6810 -0.8672
  932MOL0     C25750   1.495   0.955   9.525  0.0189  0.1106  0.4902
  932MOL0     C25751   1.617   0.952   9.584 -0.5303 -0.1155  0.4149
  932MOL0     C25752   1.625   0.985   9.731 -1.0617 -0.1321  0.0621
  932MOL0     H25753   2.144   0.845   9.643  0.1253  0.5273  0.5155
  932MOL0     H25754   2.364   0.924   9.737 -1.1805  0.1046  4.9803
  932MOL0     H25755   2.536   1.231   9.564  2.8696 -0.0668  1.2098
  932MOL0     H25756   2.440   1.364   9.633 -1.2995 -0.9897  0.5268
  932MOL0     H25757   2.691   1.375   9.626  3.3971 -1.4786  1.7292
  932MOL0     H25758   2.686   1.257   9.766 -2.3771 -1.4034  0.9121
  932MOL0     H25759   2.559   1.444   9.882  2.2546  0.6665  1.5653
  932MOL0     H25760   2.581   1.541   9.736  1.1619  0.6986  0.0790
  932MOL0     H25761   2.776   1.413   9.931 -2.7062  0.4320  0.9809
  932MOL0     H25762   2.833   1.475   9.774 -0.7490 -1.7820  0.2938
  932MOL0     H25763   2.761   1.698   9.831 -0.4969  0.4096 -0.0086
  932MOL0     H25764   2.668   1.641   9.973 -0.4896  0.6599 -1.5988
  932MOL0     H25765   2.902   1.567  10.072  3.7963  0.7168  0.3447
  932MOL0     H25766   2.971   1.649   9.932  0.2370 -2.5356  0.8123
  932MOL0     H25767   2.976   1.786  10.133  0.3275 -0.6703  0.3264
  932MOL0     H25768   2.812   1.779  10.156  3.0898  2.4181  1.6902
  932MOL0     H25769   2.756   1.885   9.951 -1.3305  1.7540  2.2471
  932MOL0     H25770   2.866   1.986  10.057  0.9306 -0.1146 -0.1912
  932MOL0     H25771   3.078   2.041  10.014  1.6021  0.8164 -1.5815
  932MOL0     H25772   3.312   2.069   9.719  2.0829  1.7072  1.8103
  932MOL0     H25773   3.325   2.043   9.889 -0.5499  0.9687 -0.2918
  932MOL0     H25774   3.347   1.782   9.854  1.3985 -2.1712 -1.7864
  932MOL0     H25775   3.357   1.793   9.678  0.4127 -2.8278  1.5022
  932MOL0     H25776   3.534   1.916   9.857 -3.8101 -1.2502  1.4977
  932MOL0     H25777   3.512   1.961   9.682 -1.9967 -1.7974 -1.9569
  932MOL0     H25778   3.562   1.723   9.627  0.2212  0.0459 -0.7524
  932MOL0     H25779   3.601   1.706   9.804  1.7662  1.5500 -0.6204
  932MOL0     H25780   3.759   1.554   9.730  0.9392  1.1477 -0.3376
  932MOL0     H25781   3.956   1.423   9.677  0.9763 -1.1103 -0.9234
  932MOL0     H25782   4.505   1.751   9.413  3.0035 -0.0520  0.9901
  932MOL0     H25783   4.718   1.690   9.337  0.9953 -1.2014 -1.0674
  932MOL0     H25784   4.867   1.363   9.501  3.3636  0.8966 -0.7311
  932MOL0     H25785   4.819   1.235   9.395 -0.7871  0.2472 -0.6560
  932MOL0     H25786   5.046   1.238   9.451  0.7471  1.1013 -0.7585
  932MOL0     H25787   5.040   1.282   9.275  0.4279  0.8473 -0.1320
  932MOL0     H25788   5.060   1.532   9.365  1.7246 -0.0150  0.7621
  932MOL0     H25789   5.085   1.453   9.520 -0.6740  0.9510  0.2446
  932MOL0     H25790   5.284   1.466   9.287  4.2387 -0.3876  1.3083
  932MOL0     H25791   5.289   1.330   9.389  0.4887 -0.2235 -3.6457
  932MOL0     H25792   5.308   1.459   9.591  2.8785 -0.9083  0.5881
  932MOL0     H25793   5.291   1.608   9.493 -0.6660 -0.0583 -3.8292
  932MOL0     H25794   5.495   1.597   9.397 -1.2244  0.4284  1.7822
  932MOL0     H25795   5.539   1.543   9.561 -0.6329  1.5746  0.2247
  932MOL0     H25796   5.509   1.356   9.319 -0.4574 -0.6053 -0.1986
  932MOL0     H25797   5.508   1.314   9.491 -1.0128  2.1569  2.0159
  932MOL0     H25798   5.717   1.481   9.364 -1.2969  1.0375  1.7049
  932MOL0     H25799   5.726   1.421   9.525  0.6087  1.2137 -1.0025
  932MOL0     H25800   4.604   1.263   9.392  0.5488 -0.5704 -1.8954
  932MOL0     H25801   4.392   1.329   9.452 -1.0300  1.8921  1.7437
  932MOL0     H25802   4.162   1.790   9.546 -1.2157  1.3534 -1.1599
  932MOL0     H25803   3.957   1.914   9.596 -0.6096  0.3640 -1.5515
  932MOL0     H25804   2.224   1.330   9.679 -2.1487  0.0963 -1.6721
  932MOL0     H25805   2.010   1.262   9.633  0.6347  0.7550  0.1063
  932MOL0     H25806   1.790   0.839   9.323 -1.2451  0.1125 -0.9179
  932MOL0     H25807   1.557   0.861   9.215  0.1919 -0.5997 -0.3940
  932MOL0     H25808   1.226   1.039   9.475 -2.0900 -0.3555  0.6296
  932MOL0     H25809   1.236   0.868   9.494  0.0633  0.2351  0.7502
  932MOL0     H25810   1.101   0.857   9.262 -3.4912  1.1959 -1.5335
  932MOL0     H25811   1.079   1.035   9.291  0.0670  1.5159  2.4722
  932MOL0     H25812   0.989   0.995   9.519 -0.0534 -1.2790  0.8512
  932MOL0     H25813   0.964   0.827   9.468 -1.4103 -1.2106 -3.1961
  932MOL0     H25814   0.742   0.939   9.410 -1.1009  3.6246 -0.9298
  932MOL0     H25815   0.843   1.072   9.348  0.0662 -0.1237 -1.9931
  932MOL0     H25816   0.817   0.791   9.031 -1.3325  2.0496 -1.5400
  932MOL0     H25817   1.417   0.986   9.595 -1.5955 -1.3098 -0.6185
  932MOL0     H25818   1.585   1.085   9.750  1.0322  0.2889  2.9661
  932MOL0     H25819   1.570   0.907   9.783 -1.6856  0.4193  0.2440
  932MOL0     H25820   1.729   0.997   9.763 -1.2936  3.8082 -0.0915
  933MOL0     O25821  10.128   2.077   9.987 -0.1588  0.4557  0.1054
  933MOL0     C25822  10.113   2.189  10.038 -0.2314 -1.2296 -0.2501
  933MOL0     O25823  10.212   2.279  10.066 -0.3490  0.0166 -0.1717
  933MOL0     C25824  10.343   2.237  10.041 -0.3188  0.1468 -0.6894
  933MOL0     C25825  10.405   2.156  10.140  0.2954  0.5660  1.0175
  933MOL0     C25826  10.530   2.116  10.114  0.1595 -0.2764 -0.0935
  933MOL0     C25827  10.599   2.147   9.996  0.0193 -0.5688 -0.5646
  933MOL0     O25828  10.726   2.108   9.970 -0.6402  0.3192  0.8988
  933MOL0     C25829  10.769   1.975  10.001 -0.7980  0.0824 -0.6290
  933MOL0     C25830  10.904   1.958   9.929 -0.4478 -0.5202 -0.7529
  933MOL0     C25831  10.983   1.825   9.972  0.2529 -0.1162  0.5285
  933MOL0     C25832  11.056   1.847  10.101 -0.0393  0.1863 -0.3922
  933MOL0     C25833  11.129   1.723  10.158  0.6809 -0.3919  0.0555
  933MOL0     C25834  11.187   1.755  10.294 -0.5742 -0.2196  0.3760
  933MOL0     C25835  11.231   1.627  10.356  0.2170  0.5225 -0.6261
  933MOL0     C25836  11.355   1.559  10.280 -0.3394 -0.7594 -0.2421
  933MOL0     N25837  11.483   1.644  10.298 -0.5155  0.3169 -0.0024
  933MOL0     C25838  11.537   1.716  10.402  0.5015 -0.0125  0.0070
  933MOL0     C25839  11.660   1.770  10.361 -0.7331 -0.0657  0.1200
  933MOL0     C25840  11.757   1.853  10.446 -0.4566 -0.3030  0.3643
  933MOL0     C25841  11.863   1.763  10.503 -0.5757 -0.1603  0.7566
  933MOL0     C25842  11.970   1.834  10.587  0.6727  1.0777 -0.4152
  933MOL0     C25843  12.054   1.940  10.518  0.7559 -0.4993 -1.4599
  933MOL0     O25844  12.089   1.880  10.392  0.4875  0.3459 -0.0631
  933MOL0     C25845  12.208   1.814  10.398 -0.2633  0.1351 -1.0279
  933MOL0     C25846  12.206   1.676  10.365 -0.3993 -1.4251  0.3657
  933MOL0     C25847  12.320   1.599  10.366 -0.0401  0.1429 -0.9871
  933MOL0     C25848  12.449   1.657  10.405 -0.6587  0.7484  0.5394
  933MOL0     C25849  12.584   1.575  10.387  0.3507 -0.5015  0.1875
  933MOL0     O25850  12.695   1.618  10.459 -0.5267 -0.6746  1.0349
  933MOL0     C25851  12.814   1.557  10.441  0.9571  0.2037 -0.1773
  933MOL0     C25852  12.877   1.502  10.557 -0.2704  0.8617  0.4649
  933MOL0     C25853  13.009   1.463  10.559 -0.0662  0.2229 -0.5262
  933MOL0     C25854  13.081   1.451  10.440 -0.0729  0.4213  0.7877
  933MOL0     O25855  13.209   1.420  10.455 -0.1202  0.8197 -0.9292
  933MOL0     C25856  13.287   1.377  10.346 -0.3675 -0.1471 -0.5783
  933MOL0     C25857  13.435   1.330  10.385  0.6591  0.2967 -0.4962
  933MOL0     C25858  13.528   1.452  10.398  1.1448  0.5990  0.8508
  933MOL0     C25859  13.667   1.396  10.405  0.5156  0.2128 -0.6565
  933MOL0     C25860  13.770   1.506  10.440 -0.5567 -0.5308  0.6493
  933MOL0     C25861  13.913   1.459  10.459 -0.2871  1.4164  0.2126
  933MOL0     C25862  13.986   1.415  10.331  0.2610 -0.2222 -0.9065
  933MOL0     C25863  14.136   1.404  10.350 -0.2517  0.9387  0.9274
  933MOL0    Cl25864  14.184   1.584  10.369 -0.4974 -0.1150 -0.0359
  933MOL0     C25865  13.011   1.487  10.319 -0.3331 -0.0886 -0.1139
  933MOL0     C25866  12.880   1.535  10.321 -0.3941 -0.1948  0.2305
  933MOL0     O25867  12.580   1.482  10.311  0.0911  0.7646 -0.9598
  933MOL0     C25868  12.449   1.791  10.452 -0.3825  1.4555  1.3054
  933MOL0     C25869  12.329   1.863  10.447 -1.0423  0.8391 -0.6601
  933MOL0     N25870  11.666   1.745  10.226 -0.4339 -0.4804  1.0301
  933MOL0     N25871  11.551   1.687  10.185 -0.6256  1.4516 -0.2438
  933MOL0     C25872  10.540   2.235   9.908 -0.4613 -0.0248 -0.6747
  933MOL0     C25873  10.411   2.273   9.922 -0.1253  0.3522 -0.5150
  933MOL0     C25874   9.977   2.220  10.101  0.8349 -0.3536  0.3859
  933MOL0     C25875   9.971   2.294  10.225  0.6651 -0.4962  0.2147
  933MOL0     C25876   9.853   2.318  10.297  0.6709 -0.2658  0.3048
  933MOL0     C25877   9.735   2.262  10.250  0.0821  1.0994  0.2423
  933MOL0     O25878   9.617   2.280  10.317  0.4555  0.0724  0.5776
  933MOL0     C25879   9.520   2.176  10.320 -0.2717  0.0418 -0.5169
  933MOL0     C25880   9.561   2.051  10.398  0.0580 -0.0031  0.3401
  933MOL0     C25881   9.441   1.969  10.438 -0.7550  0.5882  0.4398
  933MOL0     C25882   9.360   1.898  10.323  0.0227  0.3788 -0.4086
  933MOL0     C25883   9.452   1.832  10.227  1.2474  0.1659 -0.2277
  933MOL0     C25884   9.502   1.773  10.137 -0.4612 -0.0420 -0.3208
  933MOL0     C25885   9.742   2.183  10.134 -0.4697  0.3638 -0.4321
  933MOL0     C25886   9.853   2.170  10.051  0.9239  0.1534 -0.4855
  933MOL0     C25887   9.835   2.105   9.914  0.0624  0.0482 -0.3111
  933MOL0     H25888  10.345   2.111  10.219 -0.9230 -1.7126 -1.0786
  933MOL0     H25889  10.595   2.084  10.195  2.4585  1.5900 -1.0837
  933MOL0     H25890  10.805   1.981  10.104  0.7634  0.4505 -1.1601
  933MOL0     H25891  10.694   1.902   9.972  1.3391 -1.3613 -2.8797
  933MOL0     H25892  10.958   2.053   9.927  1.5796 -1.6194 -0.6230
  933MOL0     H25893  10.887   1.933   9.823  1.7126  0.9188 -1.4970
  933MOL0     H25894  11.056   1.808   9.892 -0.5078 -3.4797  0.4220
  933MOL0     H25895  10.918   1.737   9.972 -0.4369  0.3539 -0.8222
  933MOL0     H25896  11.128   1.930  10.096  2.1702 -1.2212  3.5685
  933MOL0     H25897  10.977   1.872  10.172  0.1156 -2.3348  0.7967
  933MOL0     H25898  11.051   1.648  10.175  2.4762 -2.5599 -0.7473
  933MOL0     H25899  11.205   1.684  10.089  1.9951  2.1021 -0.0192
  933MOL0     H25900  11.278   1.815  10.290 -1.5153  1.1660 -2.3735
  933MOL0     H25901  11.111   1.814  10.347 -1.0453 -1.1001  0.7052
  933MOL0     H25902  11.152   1.552  10.360  1.3013 -0.5955  1.4727
  933MOL0     H25903  11.266   1.646  10.458  1.2010 -2.1435 -0.3692
  933MOL0     H25904  11.371   1.457  10.317  2.3385 -0.5517 -0.6358
  933MOL0     H25905  11.336   1.530  10.177 -0.4051 -2.2004  0.1540
  933MOL0     H25906  11.496   1.719  10.503 -2.2270 -1.9266 -0.9066
  933MOL0     H25907  11.805   1.924  10.379  2.6354 -2.4878  0.0700
  933MOL0     H25908  11.696   1.909  10.518 -2.5498 -4.3919  2.1805
  933MOL0     H25909  11.819   1.699  10.579  0.4383  0.3135  1.7704
  933MOL0     H25910  11.912   1.705  10.424 -0.9539 -0.0307  0.4222
  933MOL0     H25911  12.033   1.756  10.630  0.0856  0.8358  0.0266
  933MOL0     H25912  11.908   1.881  10.664  1.8836  0.8789  0.7045
  933MOL0     H25913  12.134   1.970  10.586 -1.7414  1.1159  0.9951
  933MOL0     H25914  11.983   2.024  10.507  0.1716 -0.7651  0.0642
  933MOL0     H25915  12.111   1.632  10.337 -1.1416  0.7348 -0.6695
  933MOL0     H25916  12.319   1.501  10.319  0.1558  0.7264 -2.2370
  933MOL0     H25917  12.830   1.489  10.654  0.4950 -0.5626  0.6655
  933MOL0     H25918  13.062   1.423  10.645 -2.4230  1.9041  1.8778
  933MOL0     H25919  13.243   1.295  10.289  1.1409 -1.5021  0.1210
  933MOL0     H25920  13.290   1.464  10.279  1.9875  1.8535  1.8575
  933MOL0     H25921  13.440   1.271  10.478  1.7326  0.5670 -0.3581
  933MOL0     H25922  13.470   1.265  10.304 -0.6028 -0.0443 -0.7818
  933MOL0     H25923  13.522   1.514  10.308  4.5849  5.0082  3.2508
  933MOL0     H25924  13.505   1.516  10.484 -1.1373 -0.6168  1.2262
  933MOL0     H25925  13.689   1.346  10.310  1.4344 -0.5488 -0.0624
  933MOL0     H25926  13.676   1.322  10.485 -2.4783 -0.5157 -0.8663
  933MOL0     H25927  13.744   1.550  10.537  2.9743  0.7890  1.1234
  933MOL0     H25928  13.766   1.581  10.360  0.2896  0.4846  1.5240
  933MOL0     H25929  13.961   1.542  10.511  0.1030 -1.5218  5.1227
  933MOL0     H25930  13.912   1.380  10.535 -2.6234  2.5322  1.4371
  933MOL0     H25931  13.958   1.478  10.246 -2.0090 -0.7063 -0.5738
  933MOL0     H25932  13.951   1.315  10.307 -0.2795 -0.8289  1.9930
  933MOL0     H25933  14.175   1.347  10.435 -2.9168 -0.5065  1.2648
  933MOL0     H25934  14.182   1.367  10.258 -1.6343 -2.0586  1.3455
  933MOL0     H25935  13.071   1.490  10.228 -1.2443  2.2083 -0.7115
  933MOL0     H25936  12.832   1.565  10.228  2.1847  0.3795 -1.0114
  933MOL0     H25937  12.546   1.829  10.483  0.1923  0.6654  0.5221
  933MOL0     H25938  12.341   1.968  10.470 -1.9738  0.4501  1.8638
  933MOL0     H25939  10.588   2.267   9.816  0.0133 -1.2011 -0.8628
  933MOL0     H25940  10.352   2.322   9.845 -1.6898 -0.6876 -0.0354
  933MOL0     H25941  10.061   2.338  10.266  0.9635 -1.5162  0.7083
  933MOL0     H25942   9.841   2.380  10.385 -2.5915  0.2371 -0.3904
  933MOL0     H25943   9.501   2.130  10.223 -1.0192 -2.1121  0.5932
  933MOL0     H25944   9.429   2.223  10.358  1.2014  0.4747  2.8472
  933MOL0     H25945   9.603   2.083  10.494  1.4366 -0.0545 -0.2186
  933MOL0     H25946   9.626   1.983  10.342 -0.1054 -0.5888  0.8496
  933MOL0     H25947   9.381   2.034  10.503 -0.0038 -0.3618  2.1426
  933MOL0     H25948   9.481   1.895  10.508  0.8351  2.1937  1.3243
  933MOL0     H25949   9.288   1.821  10.354  1.7561  0.1542  3.6052
  933MOL0     H25950   9.307   1.973  10.264  0.1479 -0.4390 -1.6040
  933MOL0     H25951   9.544   1.722  10.053  2.5179  2.0589 -0.2292
  933MOL0     H25952   9.653   2.140  10.090  0.5425  0.4515 -2.7008
  933MOL0     H25953   9.895   2.158   9.839 -0.9191 -0.5724 -1.5827
  933MOL0     H25954   9.872   2.002   9.904  0.1483  0.1943 -1.9001
  933MOL0     H25955   9.737   2.116   9.866  0.1311 -0.0066 -0.4673
  934MOL0     O25956   5.795   4.028   7.100 -0.2548  0.9072  0.5044
  934MOL0     C25957   5.708   4.107   7.082  0.7255 -1.2549  0.0618
  934MOL0     O25958   5.719   4.242   7.100 -0.2300  0.0440  0.2303
  934MOL0     C25959   5.841   4.277   7.155 -0.6604 -0.0066  0.3755
  934MOL0     C25960   5.840   4.357   7.270 -0.4102 -0.1237  0.7351
  934MOL0     C25961   5.960   4.416   7.315  0.4813 -0.1509  0.8508
  934MOL0     C25962   6.086   4.389   7.255  0.3075 -0.1947 -0.2201
  934MOL0     O25963   6.192   4.434   7.327 -0.2517  0.1726  0.2787
  934MOL0     C25964   6.320   4.442   7.260 -0.2925  0.3816 -0.0906
  934MOL0     C25965   6.416   4.328   7.303  0.6692  0.0132  0.1960
  934MOL0     C25966   6.551   4.364   7.250 -0.3585  0.3672  0.0713
  934MOL0     C25967   6.629   4.458   7.340 -0.1218 -0.0490 -0.4372
  934MOL0     C25968   6.775   4.467   7.291 -0.9523  0.6519  0.3256
  934MOL0     C25969   6.880   4.490   7.399  0.2239  0.5398  0.1105
  934MOL0     C25970   6.846   4.616   7.487  0.1387 -0.9228 -0.6057
  934MOL0     C25971   6.968   4.695   7.534  1.2455  0.0893 -0.5324
  934MOL0     N25972   7.069   4.620   7.607  0.5216  0.4324  0.0834
  934MOL0     C25973   7.034   4.536   7.714 -0.2065 -0.1194 -0.1903
  934MOL0     C25974   7.130   4.438   7.712  1.2350 -0.3143 -0.2657
  934MOL0     C25975   7.133   4.299   7.767 -0.0899  0.0250 -0.3052
  934MOL0     C25976   7.166   4.306   7.919  0.3247 -0.0620  0.5999
  934MOL0     C25977   7.300   4.373   7.935 -0.0032  0.0821  0.3580
  934MOL0     C25978   7.374   4.350   8.065  1.2423  0.0228  0.8097
  934MOL0     O25979   7.472   4.448   8.098 -0.2519 -0.1492 -0.1465
  934MOL0     C25980   7.600   4.432   8.044 -0.6253  0.1583 -0.1178
  934MOL0     C25981   7.642   4.331   7.956 -0.2885 -0.4940  0.0502
  934MOL0     C25982   7.773   4.320   7.909  0.4388 -0.2442 -1.1037
  934MOL0     C25983   7.869   4.417   7.952 -0.4556 -0.1264 -0.4411
  934MOL0     C25984   8.010   4.412   7.901  0.4545 -0.4941  1.0921
  934MOL0     O25985   8.045   4.290   7.826 -0.3591  0.3526  0.4185
  934MOL0     C25986   8.181   4.282   7.792  0.0276 -0.5199 -0.4987
  934MOL0     C25987   8.208   4.241   7.658 -0.7028  0.4244 -0.4269
  934MOL0     C25988   8.345   4.231   7.612 -0.0820 -0.0386 -0.4849
  934MOL0     C25989   8.448   4.274   7.693  0.0306 -0.6238 -0.9053
  934MOL0     O25990   8.582   4.253   7.658  0.1620  0.4190  0.0309
  934MOL0     C25991   8.691   4.288   7.744 -0.7141  0.3899  0.3059
  934MOL0     C25992   8.824   4.263   7.669  0.2240 -0.1147 -0.0333
  934MOL0     C25993   8.947   4.305   7.756  0.4435  0.5530 -0.6984
  934MOL0     C25994   9.067   4.267   7.674  0.0587  0.3715 -0.0633
  934MOL0     C25995   9.193   4.249   7.761  1.1327 -0.7077  0.1288
  934MOL0     C25996   9.305   4.220   7.671 -0.1725  0.3503  0.1303
  934MOL0     C25997   9.433   4.193   7.760  0.5261  0.1172  0.6474
  934MOL0     C25998   9.560   4.213   7.689 -0.2028  0.5295  0.3851
  934MOL0    Cl25999   9.567   4.099   7.550  0.1171 -0.1284  0.3183
  934MOL0     C26000   8.418   4.321   7.827  0.6528  0.2815  0.2301
  934MOL0     C26001   8.284   4.332   7.874 -1.6857 -0.0566  0.4231
  934MOL0     O26002   8.073   4.514   7.909  0.0128 -0.2111 -0.1283
  934MOL0     C26003   7.832   4.508   8.054 -0.1218 -0.2978  0.3967
  934MOL0     C26004   7.694   4.522   8.095  0.4383 -0.7541 -0.0961
  934MOL0     N26005   7.226   4.472   7.620  0.9610 -0.2787 -0.1558
  934MOL0     N26006   7.192   4.583   7.557  0.1314  0.1100  0.7450
  934MOL0     C26007   6.084   4.311   7.139 -0.7025 -0.0770  0.2468
  934MOL0     C26008   5.964   4.260   7.095  0.3146  0.1005  0.6288
  934MOL0     C26009   5.570   4.071   7.037  0.0976 -0.0586  0.7553
  934MOL0     C26010   5.451   4.112   7.096 -0.4172  0.7300  0.2721
  934MOL0     C26011   5.326   4.062   7.065  0.2303 -0.0783  0.0604
  934MOL0     C26012   5.313   3.964   6.967  0.0612 -0.0937  0.0179
  934MOL0     O26013   5.191   3.913   6.926 -0.3826  0.0528 -0.2508
  934MOL0     C26014   5.077   3.951   6.998 -0.6161 -0.3260  0.2961
  934MOL0     C26015   4.967   3.844   6.980  0.5518  0.0670 -0.3286
  934MOL0     C26016   4.995   3.705   7.023  0.1569  0.6155  0.2195
  934MOL0     C26017   4.990   3.684   7.174 -0.1143  0.8799 -0.4647
  934MOL0     C26018   5.112   3.707   7.241 -0.6167 -0.3315 -0.9553
  934MOL0     C26019   5.217   3.744   7.293 -0.4989  0.1801 -0.7859
  934MOL0     C26020   5.431   3.921   6.906  0.9916 -0.0345  0.4211
  934MOL0     C26021   5.557   3.963   6.941 -0.0401 -0.2526 -0.4311
  934MOL0     C26022   5.674   3.892   6.872  0.7308 -0.1607  0.4310
  934MOL0     H26023   5.737   4.364   7.302 -1.1785 -1.5988 -1.2664
  934MOL0     H26024   5.971   4.477   7.405 -1.6830  0.8488  0.5018
  934MOL0     H26025   6.301   4.446   7.152 -0.2793 -1.4248 -0.1815
  934MOL0     H26026   6.363   4.540   7.285  0.8543  0.1754 -1.1458
  934MOL0     H26027   6.381   4.240   7.248  1.5060 -1.5741  2.0941
  934MOL0     H26028   6.417   4.330   7.412  0.5641  4.1564  0.2833
  934MOL0     H26029   6.540   4.403   7.149 -1.1169  1.1950  0.4670
  934MOL0     H26030   6.615   4.275   7.260  0.8101  0.9106 -2.0183
  934MOL0     H26031   6.589   4.559   7.344  0.6413  0.2470 -0.0180
  934MOL0     H26032   6.628   4.427   7.445 -1.1678  2.4904  0.3733
  934MOL0     H26033   6.803   4.369   7.251  0.7546 -0.5535  4.0650
  934MOL0     H26034   6.790   4.537   7.208  0.6339 -0.7113 -0.6122
  934MOL0     H26035   6.894   4.404   7.465  2.1919  0.0852 -0.8171
  934MOL0     H26036   6.976   4.504   7.350  0.2782  1.9476  0.5826
  934MOL0     H26037   6.795   4.572   7.573 -0.7507  0.5640 -0.3431
  934MOL0     H26038   6.780   4.689   7.439  0.3882 -0.4605 -0.2578
  934MOL0     H26039   7.007   4.746   7.445  1.3234  2.0554  0.5797
  934MOL0     H26040   6.936   4.771   7.605  3.0260  3.2948 -2.9210
  934MOL0     H26041   6.946   4.523   7.775 -0.1022 -3.5247 -0.5789
  934MOL0     H26042   7.034   4.259   7.745  0.5082 -0.8303 -1.5472
  934MOL0     H26043   7.200   4.227   7.719  0.5258  0.7833 -0.6094
  934MOL0     H26044   7.081   4.348   7.974  2.0331  1.0004  2.5520
  934MOL0     H26045   7.179   4.201   7.948 -1.6254 -1.3061 -2.4708
  934MOL0     H26046   7.292   4.481   7.927  0.4500  0.0186 -1.3550
  934MOL0     H26047   7.357   4.338   7.848 -2.4743  3.3392 -2.8485
  934MOL0     H26048   7.428   4.255   8.063  2.4299  0.6917  0.1098
  934MOL0     H26049   7.305   4.350   8.150 -1.1781  0.8961 -1.0496
  934MOL0     H26050   7.574   4.264   7.904 -2.0638 -0.6992  2.4766
  934MOL0     H26051   7.796   4.236   7.843  1.9231  0.1372 -1.0972
  934MOL0     H26052   8.123   4.209   7.599 -1.4435  0.6926  0.4824
  934MOL0     H26053   8.358   4.191   7.512  0.9493  0.9637 -0.7617
  934MOL0     H26054   8.690   4.393   7.771 -0.7110  1.0316 -1.9502
  934MOL0     H26055   8.683   4.226   7.834  0.0313  3.0916  2.3443
  934MOL0     H26056   8.836   4.158   7.640  1.3797 -0.5572  1.8647
  934MOL0     H26057   8.817   4.315   7.573 -2.6970 -0.7198 -0.2689
  934MOL0     H26058   8.952   4.411   7.782  0.7445  0.6088 -0.9737
  934MOL0     H26059   8.940   4.249   7.850  1.5482 -4.4658 -3.2656
  934MOL0     H26060   9.090   4.340   7.596 -0.7772  3.0866  2.0651
  934MOL0     H26061   9.043   4.179   7.613 -2.1595  1.5849 -1.0978
  934MOL0     H26062   9.180   4.172   7.837  1.8656  0.3009  1.3170
  934MOL0     H26063   9.209   4.339   7.820 -2.5653  1.2595 -1.5144
  934MOL0     H26064   9.287   4.136   7.603  2.6363  1.1132 -1.7146
  934MOL0     H26065   9.336   4.299   7.603  1.8451 -0.9339 -0.5177
  934MOL0     H26066   9.421   4.093   7.801  2.4652  0.1085  1.2723
  934MOL0     H26067   9.427   4.251   7.853  1.6734 -0.3407  1.0228
  934MOL0     H26068   9.577   4.313   7.647  1.5796  1.4784  3.0507
  934MOL0     H26069   9.652   4.195   7.746 -1.3996 -0.0576  2.2383
  934MOL0     H26070   8.495   4.353   7.897  2.9442  0.2130 -2.1226
  934MOL0     H26071   8.265   4.380   7.969 -3.0459 -0.5643  0.4337
  934MOL0     H26072   7.909   4.572   8.095 -0.0681  0.8034 -1.2890
  934MOL0     H26073   7.674   4.582   8.183  0.6693 -2.8997  1.5254
  934MOL0     H26074   6.173   4.291   7.080 -0.4923 -1.0303  0.8700
  934MOL0     H26075   5.981   4.209   7.001 -0.8777 -0.5736  0.7618
  934MOL0     H26076   5.446   4.169   7.189  0.7297 -1.2107  1.5853
  934MOL0     H26077   5.240   4.115   7.107  1.2524  2.1031 -0.4372
  934MOL0     H26078   5.042   4.045   6.954 -0.2435  0.6408  1.9674
  934MOL0     H26079   5.089   3.966   7.105 -1.6409 -1.2109  0.5571
  934MOL0     H26080   4.949   3.835   6.872  1.7364 -0.9686 -0.4573
  934MOL0     H26081   4.874   3.882   7.022  0.7643  0.5031 -0.2423
  934MOL0     H26082   5.080   3.659   6.972 -0.1346 -0.5583  0.7531
  934MOL0     H26083   4.915   3.639   6.986 -1.3896  1.1193  2.4858
  934MOL0     H26084   4.915   3.749   7.220 -2.2481 -1.6003 -0.1717
  934MOL0     H26085   4.955   3.582   7.192 -0.7335  1.3653  1.2958
  934MOL0     H26086   5.313   3.771   7.332 -0.4514  0.5828 -1.1650
  934MOL0     H26087   5.416   3.852   6.824  0.6858 -1.3526  1.5523
  934MOL0     H26088   5.730   3.833   6.946  0.9156  1.4056  1.5838
  934MOL0     H26089   5.635   3.830   6.790  2.2249 -2.5074  1.3840
  934MOL0     H26090   5.737   3.967   6.823  1.1525 -1.7611 -1.6629
  935MOL0     O26091  10.665  10.256   6.527 -0.4970 -0.2449 -0.5534
  935MOL0     C26092  10.634  10.322   6.424  0.4131 -0.1225 -0.2181
  935MOL0     O26093  10.670  10.455   6.401  0.0026 -0.9915  0.6639
  935MOL0     C26094  10.773  10.531   6.457  0.4500 -0.9952 -0.2136
  935MOL0     C26095  10.882  10.488   6.525  0.6503  0.4817  0.2851
  935MOL0     C26096  10.969  10.574   6.594  0.4870 -0.2830  0.4280
  935MOL0     C26097  10.953  10.706   6.595  0.0900  0.3649 -0.5060
  935MOL0     O26098  11.044  10.768   6.678 -0.2634 -0.4042  0.0582
  935MOL0     C26099  10.999  10.895   6.730 -0.6426  0.2032  0.3500
  935MOL0     C26100  11.078  10.941   6.854  0.1477  0.8615  0.9537
  935MOL0     C26101  11.115  10.825   6.944  0.1563  0.2671  0.8640
  935MOL0     C26102  11.188  10.871   7.073  0.0387 -0.2980 -0.2717
  935MOL0     C26103  11.207  10.759   7.176  1.0524  0.7698  0.5685
  935MOL0     C26104  11.311  10.658   7.131 -0.1119 -0.5437  0.6710
  935MOL0     C26105  11.336  10.558   7.244  0.9397  0.4740  1.1052
  935MOL0     C26106  11.431  10.454   7.195  0.2406  0.3129  1.2390
  935MOL0     N26107  11.562  10.510   7.159  0.0735 -0.8034 -0.0559
  935MOL0     C26108  11.667  10.528   7.251  0.3333 -0.1770 -0.4416
  935MOL0     C26109  11.773  10.562   7.171 -0.1406  0.9383 -0.3356
  935MOL0     C26110  11.912  10.588   7.213  0.9762  0.5993  0.6727
  935MOL0     C26111  11.932  10.664   7.349 -0.7612 -0.1542  0.7169
  935MOL0     C26112  12.040  10.602   7.437 -0.2735 -0.1635 -0.1131
  935MOL0     C26113  12.051  10.690   7.560 -0.0839 -0.8657  0.0221
  935MOL0     O26114  12.116  10.816   7.530  0.3659  0.1847  0.5065
  935MOL0     C26115  12.244  10.829   7.558 -0.9984  0.0893 -0.2565
  935MOL0     C26116  12.339  10.737   7.530  0.3252  0.1498  0.2607
  935MOL0     C26117  12.471  10.756   7.566  0.1258 -0.1901 -0.2777
  935MOL0     C26118  12.510  10.880   7.632 -0.4393 -0.6503 -0.0087
  935MOL0     C26119  12.649  10.903   7.688  0.7325  0.6054 -0.5342
  935MOL0     O26120  12.687  11.019   7.740  0.2377 -0.4003  0.1782
  935MOL0     C26121  12.817  11.030   7.789  0.8444 -0.3074  0.3855
  935MOL0     C26122  12.928  10.989   7.708  0.3819 -0.4526 -0.2041
  935MOL0     C26123  13.057  10.997   7.761 -0.0996  0.1897 -0.4274
  935MOL0     C26124  13.086  11.036   7.893  0.3561  0.0945 -1.2504
  935MOL0     O26125  13.211  11.029   7.941 -0.9725 -0.5860  0.1197
  935MOL0     C26126  13.290  10.915   7.900 -0.7380 -0.3445  0.0134
  935MOL0     C26127  13.373  10.873   8.022  0.3691  0.8726 -0.4259
  935MOL0     C26128  13.280  10.821   8.132 -0.2032  0.4358 -0.6276
  935MOL0     C26129  13.353  10.783   8.263  0.1647  0.5366  0.0952
  935MOL0     C26130  13.246  10.711   8.358 -0.4667 -0.5035  0.3150
  935MOL0     C26131  13.320  10.647   8.479 -0.0189  0.1991 -0.3848
  935MOL0     C26132  13.238  10.640   8.615 -0.8252  0.2421  0.2987
  935MOL0     C26133  13.111  10.558   8.579 -0.3482  0.6084 -0.6736
  935MOL0    Cl26134  12.978  10.561   8.708  0.1871  0.2039  0.2721
  935MOL0     C26135  12.978  11.092   7.969 -0.6587 -0.0281 -0.5665
  935MOL0     C26136  12.849  11.088   7.913 -0.0987  0.4312  0.1724
  935MOL0     O26137  12.717  10.798   7.682  0.1870  0.2030 -0.4056
  935MOL0     C26138  12.410  10.980   7.658  0.6727  0.0935  0.2467
  935MOL0     C26139  12.277  10.947   7.624  0.4333 -0.5338  0.6837
  935MOL0     N26140  11.734  10.555   7.044 -0.0640 -0.4234  0.8951
  935MOL0     N26141  11.610  10.539   7.033 -0.5080  0.1200  0.0387
  935MOL0     C26142  10.843  10.760   6.526  0.2272 -0.4417  0.2577
  935MOL0     C26143  10.759  10.674   6.457 -0.4430 -0.1723  0.0464
  935MOL0     C26144  10.553  10.246   6.326  0.7058  0.0814  0.4116
  935MOL0     C26145  10.596  10.118   6.284 -0.5741  0.2801  0.7840
  935MOL0     C26146  10.519  10.045   6.192 -0.1788  0.3879  1.0135
  935MOL0     C26147  10.400  10.107   6.135 -0.7046  0.6080 -0.1066
  935MOL0     O26148  10.316  10.051   6.039 -0.3089  0.2398 -0.0170
  935MOL0     C26149  10.317   9.912   6.001 -0.0608  0.5545 -0.2943
  935MOL0     C26150  10.263   9.822   6.113  0.1060 -0.4754  0.3147
  935MOL0     C26151  10.115   9.782   6.101 -0.6466  0.0420  0.0454
  935MOL0     C26152  10.069   9.690   6.215 -0.1652  0.1902 -0.0284
  935MOL0     C26153   9.932   9.660   6.187  0.3894 -0.2109  0.7623
  935MOL0     C26154   9.816   9.633   6.184  0.4900 -0.0176  0.4700
  935MOL0     C26155  10.369  10.236   6.176 -0.0574 -0.2820  0.3109
  935MOL0     C26156  10.437  10.304   6.276 -0.5745  0.7026  0.0830
  935MOL0     C26157  10.376  10.438   6.315  0.0565 -0.0574  0.8489
  935MOL0     H26158  10.902  10.383   6.542  0.0715 -0.0302 -1.8543
  935MOL0     H26159  11.052  10.537   6.653 -1.3635 -1.8103  2.1883
  935MOL0     H26160  10.982  10.972   6.653 -1.1689  0.8761  1.1240
  935MOL0     H26161  10.897  10.873   6.763 -0.7172 -1.0760 -0.6342
  935MOL0     H26162  11.010  11.004   6.913 -1.6970  0.2570 -0.4202
  935MOL0     H26163  11.170  10.992   6.826 -0.4075  0.1979 -2.5307
  935MOL0     H26164  11.196  10.765   6.902  0.5251 -0.2852  2.2944
  935MOL0     H26165  11.032  10.757   6.969  2.3478 -1.5497  3.8943
  935MOL0     H26166  11.287  10.914   7.053  0.6562 -1.7629 -0.5425
  935MOL0     H26167  11.126  10.947   7.121  1.3479  1.1733 -0.8014
  935MOL0     H26168  11.241  10.800   7.271  1.5151  0.0373  0.7269
  935MOL0     H26169  11.113  10.705   7.190  0.0710  1.8169 -1.5569
  935MOL0     H26170  11.287  10.610   7.036  2.0103 -1.2912  0.4378
  935MOL0     H26171  11.405  10.713   7.116 -0.2436 -1.0276 -2.6780
  935MOL0     H26172  11.242  10.506   7.259  0.3305  0.1398 -2.7168
  935MOL0     H26173  11.355  10.601   7.343 -2.0332 -0.5792  2.2188
  935MOL0     H26174  11.446  10.377   7.272  1.1640 -2.0289 -1.1311
  935MOL0     H26175  11.379  10.404   7.113 -2.0700  1.2840  2.0376
  935MOL0     H26176  11.672  10.519   7.359  0.4698 -1.4950 -0.5426
  935MOL0     H26177  11.965  10.493   7.223  2.0951  1.2192  0.7412
  935MOL0     H26178  11.949  10.655   7.135 -1.6802  0.0314 -1.2039
  935MOL0     H26179  11.971  10.759   7.314  2.0274 -1.2559  0.5786
  935MOL0     H26180  11.836  10.678   7.400 -1.1200  0.0038 -0.0036
  935MOL0     H26181  12.138  10.599   7.388 -0.7110 -1.5091 -0.9524
  935MOL0     H26182  12.010  10.501   7.466 -1.7869 -0.0676 -1.2463
  935MOL0     H26183  12.105  10.639   7.640 -1.4334 -1.6120  0.4860
  935MOL0     H26184  11.951  10.711   7.601 -0.4257 -1.4366 -0.5032
  935MOL0     H26185  12.322  10.645   7.475  0.9922 -0.4674  1.0553
  935MOL0     H26186  12.540  10.674   7.549  0.7403  0.0179  1.0040
  935MOL0     H26187  12.923  10.969   7.601  1.4299 -0.0829 -0.3411
  935MOL0     H26188  13.133  10.969   7.689  0.9540  0.6728  0.4630
  935MOL0     H26189  13.228  10.831   7.866 -1.0995 -1.2337  2.6398
  935MOL0     H26190  13.358  10.952   7.823  0.4152  3.1778  2.4337
  935MOL0     H26191  13.441  10.796   7.986  0.2841  1.1775 -1.2676
  935MOL0     H26192  13.428  10.962   8.057 -0.6972  1.4219 -0.1046
  935MOL0     H26193  13.187  10.875   8.150 -1.9034 -2.7080  0.9462
  935MOL0     H26194  13.238  10.724   8.104  2.1482 -1.0970  0.8121
  935MOL0     H26195  13.389  10.875   8.310 -0.6186  0.6678  0.4640
  935MOL0     H26196  13.439  10.717   8.255 -0.1616  0.0448  0.5757
  935MOL0     H26197  13.203  10.634   8.294 -1.0258  0.0769 -0.0207
  935MOL0     H26198  13.172  10.777   8.406 -0.6179 -3.7260  5.2736
  935MOL0     H26199  13.365  10.551   8.454  5.4714  2.1633  0.4084
  935MOL0     H26200  13.410  10.708   8.497  2.2768 -2.3577 -2.3047
  935MOL0     H26201  13.218  10.736   8.664  1.2356  1.0607 -0.3893
  935MOL0     H26202  13.293  10.584   8.692 -1.3899  1.2583  1.4791
  935MOL0     H26203  13.067  10.604   8.490 -0.5122 -3.4511 -2.9486
  935MOL0     H26204  13.133  10.454   8.554 -2.1022  0.2842 -0.9279
  935MOL0     H26205  12.988  11.131   8.070 -0.0718 -0.7054 -0.3490
  935MOL0     H26206  12.773  11.134   7.977 -0.1332 -1.2438  1.4156
  935MOL0     H26207  12.434  11.076   7.702 -3.1213  1.9001 -1.1614
  935MOL0     H26208  12.197  11.010   7.662  1.0933 -0.6162  2.2704
  935MOL0     H26209  10.817  10.865   6.536 -0.2358 -0.4380 -0.7740
  935MOL0     H26210  10.673  10.718   6.409  0.2695 -0.4267 -1.5275
  935MOL0     H26211  10.690  10.079   6.320 -0.1164  2.0581  1.6481
  935MOL0     H26212  10.567   9.959   6.147 -0.2860  0.6575  0.3638
  935MOL0     H26213  10.411   9.882   5.953 -0.3686  1.1457 -1.3217
  935MOL0     H26214  10.244   9.905   5.919 -0.1553 -0.9540 -0.1017
  935MOL0     H26215  10.299   9.867   6.206  1.6127 -2.8618  0.9961
  935MOL0     H26216  10.321   9.729   6.117  0.8919  0.0357  1.0391
  935MOL0     H26217  10.105   9.737   6.002 -0.7783  0.6969 -0.2439
  935MOL0     H26218  10.068   9.880   6.111  1.0147  0.6278  4.2049
  935MOL0     H26219  10.116   9.592   6.226 -1.9868 -0.5482  1.6509
  935MOL0     H26220  10.060   9.741   6.311 -3.1822  2.7203 -1.4725
  935MOL0     H26221   9.712   9.611   6.180  0.4496  0.3024 -0.5464
  935MOL0     H26222  10.277  10.280   6.141 -0.8213 -0.6836  1.7489
  935MOL0     H26223  10.427  10.486   6.399 -0.6386 -1.4508  2.1127
  935MOL0     H26224  10.378  10.505   6.228 -1.0181 -1.7961 -0.5902
  935MOL0     H26225  10.271  10.414   6.335 -1.6435  3.7338 -2.2007
  936MOL0     O26226   4.837   1.605   5.740 -0.3221  0.0476 -0.2774
  936MOL0     C26227   4.941   1.534   5.747 -0.8456 -0.1131 -0.4413
  936MOL0     O26228   4.996   1.485   5.859  0.6204  0.3532  0.0805
  936MOL0     C26229   4.949   1.540   5.978 -0.2065 -0.1050 -0.1040
  936MOL0     C26230   4.961   1.676   6.009  0.0341  0.2046  1.1673
  936MOL0     C26231   4.893   1.735   6.115 -0.2564  0.6171 -0.4908
  936MOL0     C26232   4.819   1.647   6.198 -0.1278 -0.4430 -0.0308
  936MOL0     O26233   4.741   1.694   6.308 -0.0137 -0.4508  0.1757
  936MOL0     C26234   4.781   1.810   6.369 -0.6536 -0.2219 -0.2006
  936MOL0     C26235   4.680   1.849   6.470  0.8870  0.2805  0.0507
  936MOL0     C26236   4.708   1.989   6.540 -0.3315  0.6138 -0.2863
  936MOL0     C26237   4.824   1.986   6.644 -0.1846 -0.0969  0.1937
  936MOL0     C26238   4.841   2.116   6.717 -0.5249 -0.1894 -0.5393
  936MOL0     C26239   4.957   2.114   6.815  0.4800 -0.0331 -0.2057
  936MOL0     C26240   4.965   2.235   6.904 -0.0889  0.2174  0.8202
  936MOL0     C26241   5.060   2.212   7.023  0.7892  0.3196  0.3446
  936MOL0     N26242   5.198   2.204   6.974 -0.4075  0.1085  0.2761
  936MOL0     C26243   5.258   2.313   6.915  0.2886  0.1489  0.6426
  936MOL0     C26244   5.381   2.260   6.880  0.2189  0.4196  0.9475
  936MOL0     C26245   5.500   2.336   6.837  0.0166  0.2667  0.4626
  936MOL0     C26246   5.571   2.418   6.951 -0.3371  1.0364  0.2135
  936MOL0     C26247   5.652   2.325   7.040  0.8073 -1.4753  0.0030
  936MOL0     C26248   5.690   2.382   7.174 -0.4120  0.6515 -0.1329
  936MOL0     O26249   5.787   2.492   7.167 -0.5290 -0.1859 -0.2519
  936MOL0     C26250   5.919   2.449   7.178 -0.4235 -0.3213  0.4168
  936MOL0     C26251   6.000   2.455   7.289 -0.6184 -1.1694 -0.7081
  936MOL0     C26252   6.140   2.431   7.273 -0.0661 -0.3463 -1.3094
  936MOL0     C26253   6.202   2.404   7.150  0.2024 -0.1556  0.0964
  936MOL0     C26254   6.346   2.391   7.136  0.4673  0.4604  0.8130
  936MOL0     O26255   6.412   2.376   7.252  0.7460 -0.5699  0.2460
  936MOL0     C26256   6.553   2.367   7.260 -0.2964  0.8912  0.3049
  936MOL0     C26257   6.649   2.305   7.174  0.2767  0.1160  0.5236
  936MOL0     C26258   6.783   2.320   7.197  0.4678 -0.4953  0.5946
  936MOL0     C26259   6.838   2.401   7.298 -0.4144  0.1052 -0.8324
  936MOL0     O26260   6.971   2.391   7.332  0.7317  0.8511 -0.3098
  936MOL0     C26261   7.026   2.492   7.417 -0.4195 -0.5250 -0.7309
  936MOL0     C26262   7.177   2.489   7.443 -0.2883 -0.1090  0.3439
  936MOL0     C26263   7.257   2.470   7.317 -0.1664  0.4465 -0.1002
  936MOL0     C26264   7.391   2.401   7.354  0.3857  0.2560 -0.2970
  936MOL0     C26265   7.459   2.352   7.228 -0.7209 -0.6743 -0.4052
  936MOL0     C26266   7.566   2.452   7.191 -0.0173  0.5537  0.7786
  936MOL0     C26267   7.641   2.406   7.069 -0.8721  0.8926 -0.3739
  936MOL0     C26268   7.568   2.404   6.938 -0.7753  0.0184 -0.0486
  936MOL0    Cl26269   7.441   2.534   6.916  0.1460 -0.0795  0.0644
  936MOL0     C26270   6.746   2.483   7.366  0.6178 -0.0115  0.0059
  936MOL0     C26271   6.606   2.461   7.350 -0.6504 -0.2401 -0.0084
  936MOL0     O26272   6.402   2.386   7.022  0.4157  1.4060  0.2475
  936MOL0     C26273   6.116   2.398   7.043 -0.5335  0.8398 -0.5186
  936MOL0     C26274   5.981   2.426   7.054  0.0338  0.5166 -0.1351
  936MOL0     N26275   5.387   2.122   6.910  0.6860  0.4640 -0.1551
  936MOL0     N26276   5.277   2.095   6.966 -0.2622  1.4012 -0.1426
  936MOL0     C26277   4.809   1.520   6.171 -0.3590  0.2932 -0.0054
  936MOL0     C26278   4.868   1.459   6.060  0.7372 -0.1431  0.4188
  936MOL0     C26279   4.995   1.491   5.616  0.1371  0.8146  1.7844
  936MOL0     C26280   5.118   1.420   5.611 -0.2627 -0.3271  0.8298
  936MOL0     C26281   5.182   1.415   5.484  0.1463 -0.1864 -0.3321
  936MOL0     C26282   5.118   1.445   5.371  0.1161 -0.0672  0.5111
  936MOL0     O26283   5.173   1.428   5.248  0.0162 -0.4677  0.4601
  936MOL0     C26284   5.311   1.396   5.243 -1.1920 -0.2917 -0.6148
  936MOL0     C26285   5.379   1.405   5.100  0.5183  0.3707 -0.2184
  936MOL0     C26286   5.532   1.381   5.104  0.0147 -0.0077  0.1729
  936MOL0     C26287   5.592   1.360   4.962  0.9297 -0.3455  2.0566
  936MOL0     C26288   5.736   1.356   4.980  0.2014  0.2329  0.9591
  936MOL0     C26289   5.848   1.325   5.003  0.4670 -0.4689 -0.4214
  936MOL0     C26290   4.990   1.491   5.373  0.3053 -0.2009  0.5087
  936MOL0     C26291   4.929   1.526   5.496 -0.1591  0.2839  0.1259
  936MOL0     C26292   4.787   1.581   5.478 -0.0280 -0.6485 -0.3175
  936MOL0     H26293   5.033   1.738   5.957  0.1600 -0.6739  0.2699
  936MOL0     H26294   4.913   1.840   6.135  0.1852  0.4713 -0.1585
  936MOL0     H26295   4.880   1.790   6.411 -1.1710 -1.6115  0.4022
  936MOL0     H26296   4.788   1.889   6.293 -1.2514  0.2720  0.2465
  936MOL0     H26297   4.670   1.772   6.547 -1.1141  1.0336  0.6145
  936MOL0     H26298   4.588   1.843   6.410  2.2044 -2.5694 -1.9437
  936MOL0     H26299   4.613   2.017   6.588 -2.4636  0.1130 -3.8638
  936MOL0     H26300   4.718   2.064   6.462 -0.7745 -0.3931 -1.3458
  936MOL0     H26301   4.809   1.909   6.721  1.7488  2.1046  2.9549
  936MOL0     H26302   4.910   1.948   6.589 -0.6209 -0.7734 -0.0382
  936MOL0     H26303   4.858   2.205   6.655  4.3653 -2.1506 -2.5580
  936MOL0     H26304   4.751   2.125   6.778 -0.6423  1.7338 -0.9179
  936MOL0     H26305   4.935   2.024   6.874  3.5967 -0.5177  0.4030
  936MOL0     H26306   5.056   2.102   6.771  0.7555  3.0660 -0.6344
  936MOL0     H26307   4.865   2.252   6.946 -0.8977 -1.6797 -0.2314
  936MOL0     H26308   4.992   2.320   6.840 -4.5533  0.4272 -1.1253
  936MOL0     H26309   5.049   2.293   7.095  2.7980  0.9093  0.0296
  936MOL0     H26310   5.033   2.122   7.080  2.3886 -1.1890 -1.1453
  936MOL0     H26311   5.223   2.416   6.917 -0.9951 -0.2314 -0.4063
  936MOL0     H26312   5.573   2.273   6.785 -0.6436 -0.9178  0.9165
  936MOL0     H26313   5.472   2.409   6.761  3.3620  0.9845 -0.2423
  936MOL0     H26314   5.627   2.502   6.909  0.3394 -0.1633 -1.3511
  936MOL0     H26315   5.496   2.476   7.007 -2.1860 -0.6588 -0.3823
  936MOL0     H26316   5.745   2.298   6.989  0.3714  0.9037 -2.2617
  936MOL0     H26317   5.582   2.247   7.072  0.3628 -0.8400  0.6287
  936MOL0     H26318   5.720   2.297   7.236 -0.3382 -0.2275 -1.3370
  936MOL0     H26319   5.596   2.424   7.210 -0.8574 -0.5554  0.1647
  936MOL0     H26320   5.962   2.477   7.388  0.2150  1.3862 -0.8852
  936MOL0     H26321   6.202   2.432   7.362 -0.1431  0.7505 -1.2603
  936MOL0     H26322   6.617   2.262   7.080 -0.1604  0.1140  0.6686
  936MOL0     H26323   6.855   2.265   7.137 -0.6030 -0.9035 -0.3320
  936MOL0     H26324   6.986   2.590   7.392 -1.7970 -0.5689  1.0271
  936MOL0     H26325   6.981   2.475   7.515 -0.0094 -0.5363 -0.5393
  936MOL0     H26326   7.193   2.581   7.499 -4.6375 -0.3299  2.3314
  936MOL0     H26327   7.186   2.399   7.505 -1.5575 -0.1577  0.4856
  936MOL0     H26328   7.207   2.411   7.240  0.3400  0.8605 -0.7662
  936MOL0     H26329   7.279   2.566   7.269 -0.4994  0.7559  0.3658
  936MOL0     H26330   7.380   2.312   7.416  2.9114  0.5856  0.7749
  936MOL0     H26331   7.444   2.476   7.413  2.0437  1.0743 -2.6540
  936MOL0     H26332   7.388   2.321   7.151 -2.1089 -4.7634  2.1621
  936MOL0     H26333   7.504   2.254   7.249  0.0447 -0.6223 -1.6713
  936MOL0     H26334   7.524   2.549   7.163  0.2039  0.3274 -0.3746
  936MOL0     H26335   7.621   2.476   7.282  1.0710 -2.1253  0.9255
  936MOL0     H26336   7.686   2.311   7.098 -1.6427  0.9000  0.9459
  936MOL0     H26337   7.735   2.461   7.060  0.8283 -1.8862 -0.5751
  936MOL0     H26338   7.640   2.406   6.856  0.3984 -2.0038  0.8374
  936MOL0     H26339   7.523   2.305   6.928 -0.7300  0.0911 -0.9786
  936MOL0     H26340   6.757   2.556   7.445  2.2724  0.2426 -0.4097
  936MOL0     H26341   6.546   2.525   7.414 -1.2103  1.1567 -1.8261
  936MOL0     H26342   6.149   2.375   6.942 -3.6004  0.8726 -1.6265
  936MOL0     H26343   5.935   2.414   6.956  2.2121  1.9798 -1.4417
  936MOL0     H26344   4.752   1.468   6.246 -3.4847  1.7487 -1.2080
  936MOL0     H26345   4.856   1.354   6.036  0.8880  0.4804 -2.7766
  936MOL0     H26346   5.154   1.381   5.706  0.8686  0.7886  0.8914
  936MOL0     H26347   5.283   1.376   5.481  0.5240  0.8361 -1.2296
  936MOL0     H26348   5.333   1.302   5.295 -3.1052  1.5183  4.0458
  936MOL0     H26349   5.368   1.470   5.299 -0.7729  0.9100 -2.5295
  936MOL0     H26350   5.355   1.499   5.052  1.0071 -0.0707 -1.3573
  936MOL0     H26351   5.335   1.328   5.035  1.0627 -0.1427  0.0087
  936MOL0     H26352   5.557   1.292   5.161  0.4366  1.3276  2.1573
  936MOL0     H26353   5.588   1.462   5.152 -1.7009  2.4342 -1.6605
  936MOL0     H26354   5.554   1.268   4.918 -3.4363  0.2878  3.9554
  936MOL0     H26355   5.567   1.446   4.900 -1.8580 -2.8432 -0.5698
  936MOL0     H26356   5.955   1.316   5.006  0.6013  0.7425 -0.8824
  936MOL0     H26357   4.935   1.518   5.284 -0.1157 -0.6947  0.6138
  936MOL0     H26358   4.768   1.628   5.381  0.6755  1.8809  0.6807
  936MOL0     H26359   4.712   1.510   5.515  0.9894 -0.3647  2.5036
  936MOL0     H26360   4.773   1.669   5.542  0.1846 -2.5057  2.4963
  937MOL0     O26361   4.217   5.654   5.225  0.8788 -0.1874  0.4111
  937MOL0     C26362   4.126   5.614   5.297 -0.7286  0.1475  0.0762
  937MOL0     O26363   4.140   5.544   5.410 -0.3401  1.1156  0.0813
  937MOL0     C26364   4.266   5.493   5.430 -0.5148 -0.3988  0.3182
  937MOL0     C26365   4.311   5.373   5.365  0.2811 -0.0890  0.4931
  937MOL0     C26366   4.434   5.319   5.397 -0.6567  0.3478 -0.0654
  937MOL0     C26367   4.518   5.387   5.483 -0.4676 -0.4741  1.6178
  937MOL0     O26368   4.645   5.334   5.495  0.1871  0.2028 -0.7242
  937MOL0     C26369   4.743   5.446   5.507 -0.1627  0.1313 -0.3539
  937MOL0     C26370   4.883   5.392   5.461  0.1864  0.2284  0.4950
  937MOL0     C26371   4.990   5.502   5.462  0.4076  0.2785 -0.5933
  937MOL0     C26372   5.122   5.421   5.427 -0.5903 -1.0120  0.2765
  937MOL0     C26373   5.232   5.532   5.387 -0.2765  0.8944 -0.2355
  937MOL0     C26374   5.370   5.468   5.353 -0.3508 -0.0098 -0.7995
  937MOL0     C26375   5.459   5.571   5.280 -0.4915  0.2342  0.3100
  937MOL0     C26376   5.519   5.679   5.372 -0.2173  0.3668 -0.0976
  937MOL0     N26377   5.596   5.615   5.493 -0.2799  0.0115  0.4839
  937MOL0     C26378   5.610   5.668   5.626  0.2809  0.6232  0.3299
  937MOL0     C26379   5.708   5.595   5.678 -0.1778 -0.3482 -0.1797
  937MOL0     C26380   5.763   5.585   5.818  0.4189  1.4763  0.4477
  937MOL0     C26381   5.706   5.687   5.922 -0.5403 -0.2502  0.6623
  937MOL0     C26382   5.566   5.662   5.973  0.0640  0.2405 -0.0138
  937MOL0     C26383   5.513   5.755   6.083  0.0379  0.7506  0.3606
  937MOL0     O26384   5.379   5.727   6.100  0.3697  0.0479 -0.2611
  937MOL0     C26385   5.276   5.755   6.018 -0.2889 -0.6385  1.2991
  937MOL0     C26386   5.146   5.689   6.027  0.3786 -0.2863  0.0637
  937MOL0     C26387   5.029   5.715   5.957  0.1215 -0.3926 -0.8194
  937MOL0     C26388   5.036   5.825   5.867 -0.6421  0.2025 -0.1051
  937MOL0     C26389   4.917   5.871   5.785  0.3156 -0.0075  0.0296
  937MOL0     O26390   4.800   5.812   5.830  0.3056  0.3505 -0.0889
  937MOL0     C26391   4.684   5.852   5.773 -0.1260 -0.1352 -1.4028
  937MOL0     C26392   4.618   5.958   5.821 -0.0901 -0.3302 -0.0376
  937MOL0     C26393   4.505   6.021   5.766  0.0732  0.2801  0.7802
  937MOL0     C26394   4.447   5.960   5.653  0.4158  0.4204 -0.0374
  937MOL0     O26395   4.340   6.007   5.583 -1.0596  1.0728 -0.2318
  937MOL0     C26396   4.217   6.032   5.657 -0.7766 -0.4385 -0.5100
  937MOL0     C26397   4.166   5.886   5.674  0.3878  0.2656  0.5633
  937MOL0     C26398   4.023   5.879   5.698  0.5643  0.1725 -0.3932
  937MOL0     C26399   3.977   5.731   5.726 -0.8923 -0.2087 -0.2475
  937MOL0     C26400   3.821   5.714   5.700  0.3289 -0.3134 -0.6560
  937MOL0     C26401   3.744   5.804   5.784  1.0875  0.2245 -0.5754
  937MOL0     C26402   3.595   5.785   5.775  0.3804 -0.1382 -0.0975
  937MOL0     C26403   3.526   5.889   5.864 -0.1176 -1.4175 -0.5039
  937MOL0    Cl26404   3.354   5.905   5.816  0.4403  0.8568 -0.1727
  937MOL0     C26405   4.508   5.849   5.594 -1.0256 -0.5815 -0.5177
  937MOL0     C26406   4.626   5.798   5.661 -0.2056 -0.0024  0.6890
  937MOL0     O26407   4.928   5.953   5.697 -0.3586  0.4673  0.0455
  937MOL0     C26408   5.160   5.891   5.852 -0.1340 -0.7373 -0.2433
  937MOL0     C26409   5.277   5.855   5.920 -0.7979 -1.2712 -0.3007
  937MOL0     N26410   5.765   5.509   5.581  0.1068 -0.6993 -0.2848
  937MOL0     N26411   5.693   5.522   5.477 -1.2819 -0.4997  0.5892
  937MOL0     C26412   4.470   5.507   5.552  0.5834  0.1010  0.3126
  937MOL0     C26413   4.344   5.557   5.533 -0.0736  1.3446  0.0920
  937MOL0     C26414   3.990   5.652   5.276 -0.2237 -0.2992 -0.1097
  937MOL0     C26415   3.894   5.546   5.278  0.4931 -0.5503 -0.3359
  937MOL0     C26416   3.766   5.577   5.262  0.2940  1.2568  0.4953
  937MOL0     C26417   3.720   5.710   5.249  0.7136  0.2060  0.1704
  937MOL0     O26418   3.583   5.718   5.226 -0.4071  0.1900 -0.4106
  937MOL0     C26419   3.527   5.847   5.176 -0.3676 -0.4922 -0.4159
  937MOL0     C26420   3.463   5.930   5.293 -0.5960 -0.0632 -0.2481
  937MOL0     C26421   3.339   5.871   5.341 -0.1255 -0.4346  0.5435
  937MOL0     C26422   3.237   5.831   5.232  0.1989 -0.4650  0.3820
  937MOL0     C26423   3.106   5.813   5.306  0.5777  0.1152 -0.1866
  937MOL0     C26424   2.995   5.790   5.369 -0.0964  0.2608 -0.0842
  937MOL0     C26425   3.805   5.817   5.266 -0.1009 -0.3687  0.4492
  937MOL0     C26426   3.945   5.786   5.283  0.3367  0.8744  0.8690
  937MOL0     C26427   4.033   5.902   5.311 -0.6145  0.3459  0.0632
  937MOL0     H26428   4.233   5.327   5.306  0.3295  1.1382 -0.5909
  937MOL0     H26429   4.475   5.236   5.339 -1.0673 -0.4846  0.8113
  937MOL0     H26430   4.717   5.534   5.448  3.0771  1.4873 -0.0063
  937MOL0     H26431   4.753   5.482   5.610  1.0843 -1.6704  0.2178
  937MOL0     H26432   4.875   5.343   5.363 -0.7661 -2.2056  1.7294
  937MOL0     H26433   4.915   5.317   5.533  0.3475 -1.2808 -1.0835
  937MOL0     H26434   4.987   5.556   5.557  0.6442 -1.3057  0.3531
  937MOL0     H26435   4.961   5.566   5.378 -0.3459 -1.6036 -1.8404
  937MOL0     H26436   5.156   5.350   5.503 -1.2298 -3.7971 -1.8806
  937MOL0     H26437   5.102   5.356   5.341 -1.9069 -1.2392  0.7248
  937MOL0     H26438   5.196   5.584   5.298  0.4395 -1.1611 -1.7850
  937MOL0     H26439   5.254   5.593   5.475 -0.2032 -1.3969  1.4306
  937MOL0     H26440   5.416   5.431   5.445 -0.9109 -1.0181 -0.8968
  937MOL0     H26441   5.363   5.387   5.279  2.8995 -0.8366 -0.3578
  937MOL0     H26442   5.398   5.615   5.201  0.1759  0.2180 -0.2237
  937MOL0     H26443   5.543   5.523   5.231 -0.1517  1.8127 -0.7315
  937MOL0     H26444   5.595   5.733   5.314  1.3105 -0.7736  0.7517
  937MOL0     H26445   5.442   5.741   5.418 -0.0691 -0.8944  2.0158
  937MOL0     H26446   5.543   5.742   5.669  1.3727  2.3980 -0.8765
  937MOL0     H26447   5.752   5.482   5.852  2.7133  1.7471  2.2828
  937MOL0     H26448   5.872   5.591   5.805  0.8242 -0.9817  2.1775
  937MOL0     H26449   5.775   5.683   6.008  0.9296 -3.2667 -0.5414
  937MOL0     H26450   5.706   5.788   5.879 -0.2113 -0.3811  0.3536
  937MOL0     H26451   5.561   5.557   6.001  0.1342 -0.0361 -1.0139
  937MOL0     H26452   5.501   5.682   5.887 -2.9721  1.6138  2.4015
  937MOL0     H26453   5.518   5.863   6.063 -0.9692  0.8121  0.3665
  937MOL0     H26454   5.562   5.738   6.179 -0.5123 -1.2310  0.3452
  937MOL0     H26455   5.146   5.606   6.098 -0.2706 -0.5157 -0.2035
  937MOL0     H26456   4.937   5.666   5.985 -1.4430  2.8383  0.1798
  937MOL0     H26457   4.665   6.009   5.904  1.1548  1.2697 -1.6270
  937MOL0     H26458   4.456   6.112   5.798 -4.5132  0.3428 -4.7911
  937MOL0     H26459   4.243   6.075   5.754 -0.9649 -0.7537 -0.3204
  937MOL0     H26460   4.144   6.100   5.612  1.0813  1.4098 -0.8786
  937MOL0     H26461   4.179   5.819   5.589 -0.3253  0.7162  0.0978
  937MOL0     H26462   4.229   5.842   5.752  2.7192  1.9243 -0.2766
  937MOL0     H26463   4.002   5.933   5.791 -0.2590 -0.3799 -0.2454
  937MOL0     H26464   3.969   5.930   5.618 -0.6373  1.9442  1.4478
  937MOL0     H26465   4.021   5.700   5.821 -0.9358  0.9101  0.1466
  937MOL0     H26466   4.024   5.667   5.651 -2.1294  0.3744 -1.5552
  937MOL0     H26467   3.794   5.609   5.714  3.1667 -1.6549 -3.8136
  937MOL0     H26468   3.799   5.733   5.594  0.4664  1.5231 -0.3755
  937MOL0     H26469   3.774   5.771   5.884 -0.3098  1.0538  0.1486
  937MOL0     H26470   3.763   5.909   5.760  0.1493 -0.1543 -3.3213
  937MOL0     H26471   3.563   5.688   5.814 -1.0552 -0.2264 -1.3943
  937MOL0     H26472   3.567   5.787   5.669  1.5001 -3.7932 -0.6345
  937MOL0     H26473   3.530   5.857   5.968 -1.1222 -0.2299 -0.0832
  937MOL0     H26474   3.569   5.986   5.838 -3.2113 -0.6000 -3.2579
  937MOL0     H26475   4.480   5.807   5.498 -2.9724  0.5102 -0.4807
  937MOL0     H26476   4.679   5.713   5.618 -0.1560 -0.6029  1.8722
  937MOL0     H26477   5.179   5.971   5.780  3.5475 -1.1113  0.1209
  937MOL0     H26478   5.366   5.915   5.904 -0.9213 -1.5961 -2.4980
  937MOL0     H26479   4.533   5.560   5.623 -0.6930  1.9308  0.1361
  937MOL0     H26480   4.303   5.644   5.584 -1.0575  0.6537  0.5358
  937MOL0     H26481   3.924   5.442   5.273  0.7644 -0.4933  0.0520
  937MOL0     H26482   3.689   5.504   5.241 -1.2274  2.2933  2.1516
  937MOL0     H26483   3.457   5.830   5.093  0.5402  1.2417 -1.6106
  937MOL0     H26484   3.607   5.909   5.135  0.9861 -0.8054  1.6196
  937MOL0     H26485   3.430   6.027   5.253 -1.2478 -0.6421 -1.1415
  937MOL0     H26486   3.532   5.944   5.376 -0.9241 -1.4292  0.2806
  937MOL0     H26487   3.298   5.952   5.402 -1.5705  0.3373 -1.3566
  937MOL0     H26488   3.381   5.787   5.396  2.3309  2.1374  2.9265
  937MOL0     H26489   3.229   5.917   5.165 -1.0478  0.7592  2.0210
  937MOL0     H26490   3.258   5.738   5.178  0.7782 -0.7718  1.1032
  937MOL0     H26491   2.908   5.763   5.425  0.5316  2.9491  2.3884
  937MOL0     H26492   3.767   5.918   5.270  0.1079 -0.2976  0.7172
  937MOL0     H26493   4.062   5.888   5.415 -0.5301 -0.0506 -0.0102
  937MOL0     H26494   4.128   5.889   5.258  0.3663  1.0786  1.5939
  937MOL0     H26495   3.995   6.004   5.298 -2.6624 -0.4464 -0.5062
  938MOL0     O26496   0.842   6.766   1.065 -0.5456  0.5418  0.4207
  938MOL0     C26497   0.774   6.686   1.127 -1.0209  0.3658  0.6451
  938MOL0     O26498   0.826   6.604   1.230  0.4986 -0.1037 -0.3134
  938MOL0     C26499   0.959   6.614   1.260  0.6405  0.7003 -1.0426
  938MOL0     C26500   1.052   6.525   1.204 -0.7569  0.4950  0.3634
  938MOL0     C26501   1.185   6.521   1.257 -0.1883  0.6762  0.2517
  938MOL0     C26502   1.234   6.607   1.355 -0.2150  0.2383  0.6824
  938MOL0     O26503   1.370   6.602   1.399  0.9483  0.1049 -0.2529
  938MOL0     C26504   1.437   6.475   1.384 -1.0774  0.3583 -0.4426
  938MOL0     C26505   1.564   6.498   1.462  0.3488 -0.2424  0.1534
  938MOL0     C26506   1.546   6.515   1.616 -0.6182  0.9619  0.1065
  938MOL0     C26507   1.671   6.465   1.695 -0.2921 -0.3330 -1.0373
  938MOL0     C26508   1.801   6.541   1.673 -0.3516 -0.0667  0.5809
  938MOL0     C26509   1.923   6.453   1.723 -0.2504 -0.2048 -0.1473
  938MOL0     C26510   2.042   6.529   1.781 -0.0505 -0.2411 -0.5133
  938MOL0     C26511   2.159   6.433   1.824  0.3527  0.1590  0.4160
  938MOL0     N26512   2.109   6.352   1.941 -0.1334 -0.5039 -0.1163
  938MOL0     C26513   2.089   6.392   2.074 -0.2250  0.6788 -0.8391
  938MOL0     C26514   2.089   6.271   2.149 -0.3885  0.0743  0.2388
  938MOL0     C26515   2.066   6.253   2.299  0.2752 -1.2015  0.2969
  938MOL0     C26516   1.934   6.324   2.339 -0.0920  0.0175 -0.7675
  938MOL0     C26517   1.899   6.310   2.490 -0.4126 -0.8280  0.2421
  938MOL0     C26518   1.755   6.314   2.525  0.2855 -0.0044  0.0417
  938MOL0     O26519   1.672   6.224   2.447  0.0224  0.3138 -0.3162
  938MOL0     C26520   1.538   6.227   2.463  0.4881 -0.1225  0.2797
  938MOL0     C26521   1.466   6.160   2.363  0.8549 -0.7077  0.3109
  938MOL0     C26522   1.326   6.136   2.376 -0.1513  0.2782 -0.1701
  938MOL0     C26523   1.252   6.178   2.491  1.2329 -0.6038  0.2152
  938MOL0     C26524   1.104   6.157   2.511 -0.7030  0.3698 -0.9268
  938MOL0     O26525   1.059   6.047   2.451 -0.5115 -0.7059  0.0843
  938MOL0     C26526   0.933   6.005   2.485  0.7836  0.0224  0.2147
  938MOL0     C26527   0.832   6.033   2.398  0.6342 -0.9992  0.5008
  938MOL0     C26528   0.701   5.989   2.421  0.6420  0.0887 -0.9094
  938MOL0     C26529   0.666   5.926   2.543  0.7166 -1.9226  0.4465
  938MOL0     O26530   0.540   5.883   2.571 -0.8346  0.1823 -0.1341
  938MOL0     C26531   0.481   5.792   2.483  1.2174 -0.1959  0.4275
  938MOL0     C26532   0.344   5.824   2.422 -0.7131  0.0910 -0.5086
  938MOL0     C26533   0.333   5.960   2.347 -0.5593 -0.0743 -0.1336
  938MOL0     C26534   0.195   5.975   2.274 -0.1642  0.5120 -1.2797
  938MOL0     C26535   0.087   6.021   2.378 -0.1064 -0.4015 -0.5213
  938MOL0     C26536  -0.051   6.058   2.317  0.5165  0.0329  0.0177
  938MOL0     C26537  -0.039   6.170   2.208  0.0985  0.0920  0.1702
  938MOL0     C26538  -0.096   6.301   2.256 -0.2868 -0.2951 -1.4691
  938MOL0    Cl26539  -0.029   6.419   2.145 -0.2367  0.2502  0.3074
  938MOL0     C26540   0.769   5.899   2.635  0.1712 -0.0308  0.2408
  938MOL0     C26541   0.904   5.944   2.614  0.0992 -0.5399 -0.1306
  938MOL0     O26542   1.035   6.224   2.590  0.4716  0.2093  0.2979
  938MOL0     C26543   1.328   6.245   2.591 -0.3616  0.1057  0.3824
  938MOL0     C26544   1.465   6.268   2.580 -0.5119 -0.0825 -0.3682
  938MOL0     N26545   2.110   6.168   2.058  0.8233 -0.1987  0.0817
  938MOL0     N26546   2.113   6.218   1.941 -0.4771  0.6315  0.5244
  938MOL0     C26547   1.148   6.706   1.382 -0.4657  0.0504  1.0933
  938MOL0     C26548   1.012   6.709   1.341 -0.8112 -0.2548 -0.1133
  938MOL0     C26549   0.632   6.687   1.085  0.1577  0.1852  0.2690
  938MOL0     C26550   0.575   6.807   1.035 -0.0827 -0.2847 -0.7428
  938MOL0     C26551   0.445   6.814   0.998  0.3224  0.0038 -1.4904
  938MOL0     C26552   0.359   6.702   1.002 -0.8739  0.6754  0.2634
  938MOL0     O26553   0.228   6.694   0.967 -0.5549  0.0131 -0.6929
  938MOL0     C26554   0.180   6.810   0.895  0.7263 -0.2565 -1.0585
  938MOL0     C26555   0.040   6.795   0.839  0.1638 -0.0935 -0.5575
  938MOL0     C26556   0.032   6.666   0.747 -0.2247 -0.0405 -0.4512
  938MOL0     C26557  -0.076   6.679   0.629 -0.8418  0.0677 -0.2050
  938MOL0     C26558  -0.204   6.727   0.666  0.7105  0.1095  0.5297
  938MOL0     C26559  -0.308   6.788   0.680 -0.4980  0.1231  0.2964
  938MOL0     C26560   0.416   6.586   1.063  0.6292 -0.4495 -0.4943
  938MOL0     C26561   0.547   6.575   1.095 -0.1720  0.3751 -0.0358
  938MOL0     C26562   0.599   6.439   1.149  0.5980 -0.0222  0.6977
  938MOL0     H26563   1.032   6.458   1.120 -1.3392  1.4081 -0.2431
  938MOL0     H26564   1.237   6.440   1.207 -2.1387  0.3315 -1.3843
  938MOL0     H26565   1.379   6.395   1.429 -0.6640  0.1632 -0.2513
  938MOL0     H26566   1.459   6.454   1.279 -0.7304 -1.1195 -0.0884
  938MOL0     H26567   1.614   6.587   1.422 -2.3289  1.0179 -0.6216
  938MOL0     H26568   1.632   6.415   1.441  0.3206 -0.5452  1.2334
  938MOL0     H26569   1.455   6.467   1.652 -1.0726 -1.5478 -3.8284
  938MOL0     H26570   1.531   6.622   1.635  0.6081  0.8339  2.1985
  938MOL0     H26571   1.639   6.459   1.799 -0.4348 -2.6781 -1.1639
  938MOL0     H26572   1.695   6.364   1.661  0.3009 -1.4694  2.3937
  938MOL0     H26573   1.816   6.573   1.570  0.8680  0.1915  0.8220
  938MOL0     H26574   1.794   6.623   1.745 -0.4838  0.6161 -0.1914
  938MOL0     H26575   1.875   6.399   1.804  0.3022  0.6932  0.8001
  938MOL0     H26576   1.952   6.383   1.644 -3.3598 -1.1655 -0.5882
  938MOL0     H26577   2.005   6.585   1.866 -0.3232 -0.8919 -0.1955
  938MOL0     H26578   2.080   6.584   1.694  0.7191 -1.6111 -1.0754
  938MOL0     H26579   2.197   6.373   1.740  0.7064  0.7670  0.1392
  938MOL0     H26580   2.241   6.490   1.867 -0.2041  1.1273  0.2165
  938MOL0     H26581   2.081   6.484   2.131 -0.7664 -0.8562  1.7318
  938MOL0     H26582   2.043   6.148   2.318 -2.5172 -1.4553 -3.3632
  938MOL0     H26583   2.151   6.293   2.355 -0.7228  0.4476  0.7138
  938MOL0     H26584   1.937   6.427   2.304  0.0821 -0.2677 -1.6159
  938MOL0     H26585   1.859   6.278   2.273  0.1270  0.5361 -1.3846
  938MOL0     H26586   1.951   6.391   2.542 -1.3969 -0.5563  0.8284
  938MOL0     H26587   1.944   6.221   2.535 -1.2607 -0.2860  2.3247
  938MOL0     H26588   1.711   6.414   2.518  0.4529 -0.0460 -3.3405
  938MOL0     H26589   1.748   6.288   2.631  1.9038  0.8085  0.3852
  938MOL0     H26590   1.521   6.134   2.274 -2.2308 -3.4095 -1.0190
  938MOL0     H26591   1.282   6.090   2.289  1.6775  1.9783 -2.0870
  938MOL0     H26592   0.850   6.096   2.312  0.6668  1.2867  2.0778
  938MOL0     H26593   0.620   5.984   2.349  0.7149 -5.3674 -1.0719
  938MOL0     H26594   0.547   5.784   2.396 -0.1965  1.6064 -0.8818
  938MOL0     H26595   0.475   5.695   2.533 -0.1983 -0.0872  0.5131
  938MOL0     H26596   0.310   5.742   2.358 -1.8071 -0.6333  0.9488
  938MOL0     H26597   0.275   5.828   2.506  2.0248  0.7685  1.8569
  938MOL0     H26598   0.353   6.050   2.406  2.7183  0.8563 -2.3882
  938MOL0     H26599   0.404   5.965   2.264 -0.8021 -0.9759 -0.4115
  938MOL0     H26600   0.146   5.886   2.233 -0.7443  1.0766 -1.8354
  938MOL0     H26601   0.215   6.051   2.199 -0.0367  0.9478 -0.8116
  938MOL0     H26602   0.130   6.112   2.419  0.7764 -0.7687 -0.6002
  938MOL0     H26603   0.074   5.956   2.465  0.5074  0.8613  0.5412
  938MOL0     H26604  -0.103   5.973   2.272 -4.1021  1.6460  1.6805
  938MOL0     H26605  -0.100   6.099   2.406 -0.6260  1.2673 -1.1523
  938MOL0     H26606  -0.104   6.143   2.124 -1.6954  4.7533 -0.2163
  938MOL0     H26607   0.065   6.179   2.173  0.3120  1.3606  1.0770
  938MOL0     H26608  -0.205   6.297   2.261 -0.2457  0.2504  0.4499
  938MOL0     H26609  -0.056   6.319   2.356 -2.3472 -0.1853 -0.6271
  938MOL0     H26610   0.752   5.852   2.731  0.2164  4.2400  2.5571
  938MOL0     H26611   0.977   5.941   2.695 -0.6483  5.9132  1.3099
  938MOL0     H26612   1.270   6.288   2.673 -1.4396 -3.1868  1.5073
  938MOL0     H26613   1.508   6.342   2.647 -1.8345 -0.4024  0.8787
  938MOL0     H26614   1.185   6.773   1.460  0.6130 -0.4452  1.0351
  938MOL0     H26615   0.950   6.789   1.379  1.8211  2.7584 -1.7134
  938MOL0     H26616   0.631   6.897   1.014 -2.0873  1.7067  1.7825
  938MOL0     H26617   0.408   6.904   0.951 -0.4953  0.7192  0.4391
  938MOL0     H26618   0.240   6.821   0.804  3.4995 -0.2207  0.6509
  938MOL0     H26619   0.184   6.906   0.949 -1.8870  1.1677 -3.1422
  938MOL0     H26620   0.009   6.881   0.779 -1.3045 -1.6771 -2.2467
  938MOL0     H26621  -0.039   6.792   0.914 -1.1007 -0.8673 -1.8518
  938MOL0     H26622   0.008   6.580   0.810  0.5888  0.2722  0.2960
  938MOL0     H26623   0.134   6.650   0.710  0.9328 -2.5181  3.2653
  938MOL0     H26624  -0.017   6.755   0.576  3.4942 -1.5375  1.8219
  938MOL0     H26625  -0.077   6.593   0.563  0.5783 -1.4940  1.6784
  938MOL0     H26626  -0.400   6.839   0.695 -0.8504 -1.2370  3.4344
  938MOL0     H26627   0.342   6.506   1.061 -1.9310  1.7763 -2.4282
  938MOL0     H26628   0.595   6.429   1.258  0.9021 -2.6239  0.5567
  938MOL0     H26629   0.525   6.367   1.112  1.2467 -0.6544  0.6076
  938MOL0     H26630   0.698   6.410   1.112 -2.0437 -4.5850 -4.2180
  939MOL0     O26631  10.439   6.412   8.130 -0.1820  0.0562 -0.5556
  939MOL0     C26632  10.435   6.534   8.112  0.1697 -0.7879 -0.8718
  939MOL0     O26633  10.520   6.611   8.039 -0.4807  0.0711 -0.0548
  939MOL0     C26634  10.658   6.599   8.040 -0.4510 -0.0300 -0.2314
  939MOL0     C26635  10.745   6.519   8.118  0.2068  0.6272  0.3475
  939MOL0     C26636  10.883   6.537   8.101 -0.1705 -0.2570 -0.3158
  939MOL0     C26637  10.940   6.629   8.016  0.5919  0.8734 -0.3419
  939MOL0     O26638  11.073   6.643   8.007  0.2633  0.3000  0.2736
  939MOL0     C26639  11.131   6.771   7.966 -0.1483 -0.6119  0.3443
  939MOL0     C26640  11.273   6.745   8.018  0.2069 -0.8255  0.5457
  939MOL0     C26641  11.373   6.850   7.968  0.5326  0.4122  0.5999
  939MOL0     C26642  11.492   6.866   8.051 -0.6053  1.2731  0.1581
  939MOL0     C26643  11.597   6.966   7.985 -0.1727  0.1372  0.1161
  939MOL0     C26644  11.731   6.980   8.063 -0.0930  0.2889 -0.3359
  939MOL0     C26645  11.810   7.095   8.018 -0.3800 -1.0306  0.2420
  939MOL0     C26646  11.790   7.218   8.103  0.6535 -0.3296 -0.7764
  939MOL0     N26647  11.857   7.334   8.051 -0.2367  0.2413  0.1346
  939MOL0     C26648  11.958   7.406   8.109  0.4260 -0.0270 -0.1302
  939MOL0     C26649  11.986   7.503   8.014  0.7200 -0.4907  0.2992
  939MOL0     C26650  12.090   7.620   8.028 -0.2761  0.3202  0.1705
  939MOL0     C26651  12.046   7.714   8.148  0.5541 -0.2192 -0.4847
  939MOL0     C26652  12.129   7.848   8.140 -0.1633 -0.4091  0.4727
  939MOL0     C26653  12.134   7.921   8.271  0.0479  0.0559 -0.7329
  939MOL0     O26654  12.212   8.046   8.257  0.6533 -0.0344  0.5915
  939MOL0     C26655  12.307   8.058   8.351  0.6499  0.1669 -0.4609
  939MOL0     C26656  12.425   7.974   8.357 -0.6932 -0.1066 -0.0698
  939MOL0     C26657  12.523   8.011   8.447  0.5561 -0.0353 -0.1226
  939MOL0     C26658  12.515   8.119   8.534  0.1062 -0.3233  1.0093
  939MOL0     C26659  12.624   8.141   8.634 -0.4479  0.3523  0.8903
  939MOL0     O26660  12.735   8.056   8.635  0.7061  0.5984 -0.4311
  939MOL0     C26661  12.833   8.041   8.732  0.0931 -0.9548  0.9991
  939MOL0     C26662  12.825   8.074   8.865 -0.0631  0.9039  0.2551
  939MOL0     C26663  12.946   8.092   8.936  0.2932  0.6579 -1.0214
  939MOL0     C26664  13.068   8.069   8.878 -0.5268  0.1759 -0.1211
  939MOL0     O26665  13.179   8.100   8.957  0.5312 -0.2134  0.4474
  939MOL0     C26666  13.298   8.042   8.908  0.0603 -0.1368  0.0958
  939MOL0     C26667  13.298   7.885   8.916 -0.1039  0.2132 -0.3716
  939MOL0     C26668  13.418   7.828   8.840 -0.1143 -0.2761 -0.1821
  939MOL0     C26669  13.395   7.838   8.688 -0.3180 -0.2700 -0.1456
  939MOL0     C26670  13.485   7.726   8.617  0.2884  0.4084 -0.9767
  939MOL0     C26671  13.446   7.739   8.467 -0.7926 -0.3190 -0.3630
  939MOL0     C26672  13.549   7.669   8.369 -0.0333 -0.0834 -0.1454
  939MOL0     C26673  13.560   7.515   8.384 -1.1731 -0.7306  0.7897
  939MOL0    Cl26674  13.667   7.481   8.519 -0.0736  0.1334 -0.0511
  939MOL0     C26675  13.074   8.029   8.737 -1.0523 -0.8540 -0.8289
  939MOL0     C26676  12.950   8.009   8.671 -0.1779 -0.2807  0.0639
  939MOL0     O26677  12.605   8.231   8.712  0.8489 -0.2537 -0.4843
  939MOL0     C26678  12.392   8.203   8.527 -0.8375  1.1315 -0.9783
  939MOL0     C26679  12.298   8.167   8.430  0.9734  0.2574  0.5865
  939MOL0     N26680  11.903   7.487   7.903 -0.8846 -0.4639 -0.3759
  939MOL0     N26681  11.820   7.401   7.935  0.0050  0.4031  0.0453
  939MOL0     C26682  10.849   6.705   7.937 -0.0919 -0.4677 -0.0055
  939MOL0     C26683  10.718   6.693   7.952 -0.2096  0.2813 -0.8278
  939MOL0     C26684  10.336   6.619   8.195 -0.0969  0.2330 -0.4372
  939MOL0     C26685  10.275   6.726   8.132  0.9152  0.4254  0.4288
  939MOL0     C26686  10.167   6.798   8.199  0.1386  0.0374  0.4014
  939MOL0     C26687  10.135   6.771   8.332 -0.0015 -0.4027  0.1781
  939MOL0     O26688  10.029   6.840   8.394 -0.6853  0.5956  0.1182
  939MOL0     C26689   9.894   6.839   8.335  1.2119  0.1479 -0.0955
  939MOL0     C26690   9.793   6.831   8.445  0.5013  0.8415 -0.7402
  939MOL0     C26691   9.788   6.956   8.524 -0.6661  0.3294 -0.2098
  939MOL0     C26692   9.665   6.978   8.602  0.3316 -0.8285  0.1192
  939MOL0     C26693   9.568   7.060   8.528 -0.5295  1.3012 -0.2801
  939MOL0     C26694   9.484   7.119   8.469  0.1952 -0.8360 -0.6099
  939MOL0     C26695  10.199   6.663   8.392  0.1947 -0.5284 -0.7094
  939MOL0     C26696  10.293   6.588   8.324 -0.7839  0.0163  0.2356
  939MOL0     C26697  10.355   6.476   8.403  0.1352  0.0905  0.2682
  939MOL0     H26698  10.710   6.472   8.209 -1.1490  0.0272 -0.4487
  939MOL0     H26699  10.958   6.476   8.149  0.1532  0.2054 -0.2288
  939MOL0     H26700  11.139   6.783   7.857 -0.7269  0.0035  0.3584
  939MOL0     H26701  11.084   6.865   7.998  1.0625  1.0544 -2.3603
  939MOL0     H26702  11.308   6.644   7.995  2.9497  0.1774  0.0403
  939MOL0     H26703  11.280   6.759   8.127 -0.6341  2.8815  0.2794
  939MOL0     H26704  11.320   6.945   7.952 -1.9147 -0.3952  3.1230
  939MOL0     H26705  11.413   6.817   7.871 -1.6405 -0.3429 -0.1064
  939MOL0     H26706  11.453   6.898   8.148 -2.1469  0.3037 -0.1109
  939MOL0     H26707  11.530   6.766   8.071 -3.9794 -0.6689 -2.1965
  939MOL0     H26708  11.626   6.911   7.894 -1.9911 -3.6990  1.6270
  939MOL0     H26709  11.561   7.064   7.953 -2.0164 -0.4162  0.3508
  939MOL0     H26710  11.708   6.990   8.169  0.9380  2.7123 -0.2766
  939MOL0     H26711  11.785   6.887   8.044  0.1150  0.8480 -2.8496
  939MOL0     H26712  11.789   7.124   7.915  2.0549 -1.3718 -0.4051
  939MOL0     H26713  11.916   7.067   8.010 -0.1712  0.1159 -1.6381
  939MOL0     H26714  11.682   7.236   8.108  0.7912  0.3121  2.4185
  939MOL0     H26715  11.830   7.200   8.204 -2.9291  4.0624  1.8320
  939MOL0     H26716  12.009   7.389   8.203  0.8805  1.0968 -0.1630
  939MOL0     H26717  12.187   7.575   8.048  0.1457 -0.0673 -2.4889
  939MOL0     H26718  12.103   7.681   7.938  0.5129 -0.8110 -0.4941
  939MOL0     H26719  11.939   7.727   8.166  0.7550 -0.2108  0.8079
  939MOL0     H26720  12.071   7.658   8.239  4.1405 -1.1602 -1.8733
  939MOL0     H26721  12.104   7.919   8.060 -0.2697  1.6761  2.2756
  939MOL0     H26722  12.227   7.804   8.121 -1.1606 -1.8843 -1.7231
  939MOL0     H26723  12.164   7.856   8.354  0.3379  0.8288 -0.2166
  939MOL0     H26724  12.031   7.951   8.294  0.4416  0.7207  0.2083
  939MOL0     H26725  12.423   7.895   8.282 -0.0298 -0.4220  0.2354
  939MOL0     H26726  12.602   7.939   8.466 -0.0184  0.1146  3.8592
  939MOL0     H26727  12.722   8.089   8.893 -0.9700 -2.4769 -0.7500
  939MOL0     H26728  12.948   8.110   9.043 -1.0075 -0.0644 -0.8617
  939MOL0     H26729  13.324   8.079   8.809 -2.3631  0.1581 -0.5028
  939MOL0     H26730  13.374   8.078   8.978  0.8983  0.1304 -0.9346
  939MOL0     H26731  13.305   7.864   9.023  0.3475 -0.7098 -0.5754
  939MOL0     H26732  13.201   7.845   8.883 -0.4124  0.8574 -0.2742
  939MOL0     H26733  13.499   7.896   8.868 -1.1885  1.0862 -0.2450
  939MOL0     H26734  13.448   7.728   8.873  2.6854  0.2839 -0.7922
  939MOL0     H26735  13.409   7.943   8.660  1.2264  0.8626  4.1500
  939MOL0     H26736  13.288   7.824   8.670 -0.7771  0.4140  1.8431
  939MOL0     H26737  13.464   7.626   8.655  1.2116  0.2692 -0.8149
  939MOL0     H26738  13.586   7.750   8.651  0.7235 -3.9256  1.4294
  939MOL0     H26739  13.346   7.701   8.443 -1.1478 -0.5284  1.3676
  939MOL0     H26740  13.459   7.844   8.441  0.7089 -0.1151  1.0384
  939MOL0     H26741  13.646   7.719   8.379  0.1428 -0.2244 -1.0268
  939MOL0     H26742  13.520   7.696   8.267  1.4573  0.4885 -0.4405
  939MOL0     H26743  13.466   7.462   8.398  0.1540 -4.2211 -1.8887
  939MOL0     H26744  13.603   7.481   8.289 -0.7062 -0.0106  0.7344
  939MOL0     H26745  13.168   8.005   8.689 -0.2304  0.3654  0.1111
  939MOL0     H26746  12.957   7.993   8.564 -0.6446  0.2010 -0.0429
  939MOL0     H26747  12.375   8.281   8.600 -1.4555  0.2095 -0.1132
  939MOL0     H26748  12.202   8.217   8.425  0.1830 -1.2582  0.2350
  939MOL0     H26749  10.882   6.774   7.861 -0.5949  0.2217  0.3908
  939MOL0     H26750  10.653   6.772   7.915  1.5512  4.3221  3.5939
  939MOL0     H26751  10.311   6.738   8.030 -0.1469 -0.1487 -0.0368
  939MOL0     H26752  10.113   6.883   8.158 -0.8540  0.7131  2.9225
  939MOL0     H26753   9.880   6.751   8.272 -0.8385  0.1761  0.2341
  939MOL0     H26754   9.888   6.929   8.272 -4.7334  0.4815  0.3543
  939MOL0     H26755   9.807   6.740   8.503  0.3537  0.1038 -1.8342
  939MOL0     H26756   9.698   6.812   8.394  1.5190 -3.0738 -1.5166
  939MOL0     H26757   9.813   7.046   8.468  0.6736  0.2767  0.2629
  939MOL0     H26758   9.868   6.960   8.599 -0.8631  1.6593 -0.0409
  939MOL0     H26759   9.611   6.891   8.641  0.9192 -1.8624 -1.2985
  939MOL0     H26760   9.682   7.032   8.695  3.1924 -1.1436 -0.1436
  939MOL0     H26761   9.401   7.161   8.416  1.7220  1.7570 -1.1140
  939MOL0     H26762  10.174   6.642   8.496  2.4863 -2.0966 -0.3758
  939MOL0     H26763  10.311   6.378   8.382  0.1155  0.2747 -0.5918
  939MOL0     H26764  10.458   6.466   8.366 -0.5881  0.1948 -1.8841
  939MOL0     H26765  10.358   6.495   8.511 -1.3945 -0.4116  0.4197
  940MOL0     O26766   8.842   6.565   1.743  0.1025 -0.2667  0.3532
  940MOL0     C26767   8.782   6.461   1.778 -1.2315 -1.0398 -0.8724
  940MOL0     O26768   8.849   6.353   1.830  0.3813  0.5265 -0.4373
  940MOL0     C26769   8.979   6.367   1.861 -1.3200  0.1617  0.3221
  940MOL0     C26770   9.089   6.346   1.765 -0.2131 -0.0295  0.1918
  940MOL0     C26771   9.224   6.367   1.813  0.4448 -0.2411  0.9672
  940MOL0     C26772   9.260   6.421   1.936 -0.6121  0.3530  0.0489
  940MOL0     O26773   9.383   6.468   1.974  0.4132  0.5378 -0.0157
  940MOL0     C26774   9.467   6.510   1.864  0.0061  0.4512 -0.1454
  940MOL0     C26775   9.611   6.543   1.911  0.1541 -0.3724 -0.5545
  940MOL0     C26776   9.694   6.423   1.970 -0.1879 -0.4522 -0.1212
  940MOL0     C26777   9.821   6.483   2.034  0.0952  0.1967  0.8102
  940MOL0     C26778   9.925   6.535   1.940  0.2585 -0.9368 -0.2637
  940MOL0     C26779  10.063   6.560   2.023 -0.2190 -1.2547 -1.3134
  940MOL0     C26780  10.172   6.599   1.929 -0.2544  0.0138 -0.0249
  940MOL0     C26781  10.262   6.490   1.865 -0.2414 -0.6170  0.2878
  940MOL0     N26782  10.371   6.544   1.788  0.2459  0.6450  0.7204
  940MOL0     C26783  10.463   6.629   1.834  0.1941 -0.0907  0.0294
  940MOL0     C26784  10.539   6.658   1.728 -0.2118 -0.7159  0.8411
  940MOL0     C26785  10.660   6.749   1.745  0.4006  0.5989  0.9669
  940MOL0     C26786  10.789   6.727   1.665  0.0169  0.4179  0.5551
  940MOL0     C26787  10.852   6.589   1.703 -0.2449  0.1627  0.7804
  940MOL0     C26788  11.000   6.590   1.703 -0.3650  0.5276  0.8631
  940MOL0     O26789  11.057   6.465   1.737 -0.2155  0.3357 -0.7306
  940MOL0     C26790  11.197   6.468   1.746 -0.3985 -0.3556  0.2550
  940MOL0     C26791  11.282   6.578   1.718  0.2730  0.8762 -0.7331
  940MOL0     C26792  11.420   6.568   1.741  0.0359 -0.8010 -0.1979
  940MOL0     C26793  11.473   6.448   1.788 -0.3872 -0.7694  0.8166
  940MOL0     C26794  11.614   6.447   1.841 -0.3386 -0.9617 -0.2577
  940MOL0     O26795  11.662   6.330   1.888  0.4022  0.9502 -0.5134
  940MOL0     C26796  11.778   6.323   1.966  0.0041 -0.0701 -0.7859
  940MOL0     C26797  11.813   6.397   2.082  0.3579  1.6573  0.1706
  940MOL0     C26798  11.940   6.401   2.137  0.6031 -0.2772  0.8502
  940MOL0     C26799  12.050   6.329   2.084  0.0569  0.5888  0.9245
  940MOL0     O26800  12.178   6.342   2.134 -0.4325 -0.3249  0.2504
  940MOL0     C26801  12.191   6.416   2.259  0.1121  0.5179  0.3434
  940MOL0     C26802  12.335   6.412   2.307 -0.5141  0.0876  0.4273
  940MOL0     C26803  12.435   6.487   2.212 -0.1655  0.1596  0.1044
  940MOL0     C26804  12.579   6.448   2.263 -0.0905 -0.2976  0.4019
  940MOL0     C26805  12.678   6.518   2.171 -0.1852 -0.3097 -0.0197
  940MOL0     C26806  12.824   6.491   2.215 -0.3811 -0.4638  0.3050
  940MOL0     C26807  12.911   6.589   2.146  0.2593  0.2707 -0.3408
  940MOL0     C26808  13.055   6.540   2.138  0.1958 -0.3977  0.3520
  940MOL0    Cl26809  13.164   6.644   2.044 -0.4454  0.3694  0.3411
  940MOL0     C26810  12.016   6.243   1.976 -0.1592 -0.0056  0.4118
  940MOL0     C26811  11.878   6.226   1.928  0.4272  0.3353 -0.9501
  940MOL0     O26812  11.682   6.556   1.831  0.0926 -0.1514  0.9437
  940MOL0     C26813  11.389   6.335   1.804  1.0364 -0.7287 -0.5602
  940MOL0     C26814  11.254   6.348   1.780 -0.4375 -0.0762 -0.1343
  940MOL0     N26815  10.503   6.586   1.621 -0.2210  0.7874 -0.2810
  940MOL0     N26816  10.399   6.512   1.658 -0.0325 -0.1517  0.7264
  940MOL0     C26817   9.153   6.433   2.026  0.7241  0.4184  0.1657
  940MOL0     C26818   9.017   6.409   1.993 -0.1911 -0.0621 -0.7565
  940MOL0     C26819   8.639   6.444   1.768 -0.9748 -0.2236 -1.2374
  940MOL0     C26820   8.591   6.308   1.763 -0.2100  0.4666 -0.4240
  940MOL0     C26821   8.453   6.281   1.763  0.1758 -0.3401  0.0141
  940MOL0     C26822   8.364   6.386   1.730  0.2521 -0.5799  0.2241
  940MOL0     O26823   8.228   6.374   1.712 -0.1732 -0.9398  1.2527
  940MOL0     C26824   8.153   6.258   1.760  0.0341  0.2819 -0.4444
  940MOL0     C26825   8.102   6.280   1.900 -0.3024 -0.7746  0.4628
  940MOL0     C26826   7.983   6.376   1.907 -0.2833  0.0722  0.5142
  940MOL0     C26827   7.941   6.406   2.046 -1.3393  0.8863  0.0453
  940MOL0     C26828   7.832   6.501   2.053 -0.2053  0.6280 -0.6150
  940MOL0     C26829   7.725   6.556   2.078 -0.2185  0.5280 -0.9195
  940MOL0     C26830   8.419   6.513   1.723  0.1652 -0.0730  0.7545
  940MOL0     C26831   8.549   6.547   1.752  0.3237  0.2969 -0.0057
  940MOL0     C26832   8.582   6.698   1.765  0.1098 -1.3386  0.4702
  940MOL0     H26833   9.073   6.316   1.662 -0.5084  0.9384 -0.0631
  940MOL0     H26834   9.304   6.354   1.741 -0.0886  0.3061  0.2673
  940MOL0     H26835   9.476   6.434   1.786 -2.4912  2.2906 -2.3822
  940MOL0     H26836   9.419   6.596   1.817 -0.9564  0.1012  0.1717
  940MOL0     H26837   9.598   6.625   1.982 -0.2160  0.2591 -1.3496
  940MOL0     H26838   9.664   6.575   1.821 -0.5975 -0.1685 -0.9270
  940MOL0     H26839   9.724   6.351   1.895  1.7828 -0.3146  0.4864
  940MOL0     H26840   9.641   6.380   2.056 -0.9215  0.8257  0.0964
  940MOL0     H26841   9.784   6.558   2.104 -0.4081 -0.5591  1.3622
  940MOL0     H26842   9.868   6.401   2.090  0.6480  0.5655  0.9002
  940MOL0     H26843   9.930   6.464   1.857  1.8379  0.5776 -1.5375
  940MOL0     H26844   9.892   6.628   1.892  0.5775 -1.5919 -1.8061
  940MOL0     H26845  10.053   6.643   2.094 -3.8062 -0.7559 -2.1967
  940MOL0     H26846  10.092   6.474   2.083  1.5630 -0.7574 -1.4135
  940MOL0     H26847  10.239   6.667   1.983  0.5275  1.9245 -3.1578
  940MOL0     H26848  10.128   6.656   1.847 -0.6413 -0.8161 -0.4025
  940MOL0     H26849  10.308   6.429   1.944 -1.4565 -0.6483  1.0010
  940MOL0     H26850  10.198   6.424   1.805  1.3080 -1.0653 -0.9319
  940MOL0     H26851  10.467   6.666   1.936 -0.0679  0.8256 -0.2823
  940MOL0     H26852  10.621   6.847   1.717 -2.0156 -1.0165 -1.9236
  940MOL0     H26853  10.683   6.745   1.852  2.3018 -0.9081  0.5538
  940MOL0     H26854  10.768   6.723   1.558  1.1056  1.1797  0.2865
  940MOL0     H26855  10.849   6.819   1.672 -1.4095  1.4022  0.2706
  940MOL0     H26856  10.815   6.522   1.624  0.1981 -0.4369  1.0730
  940MOL0     H26857  10.820   6.548   1.799  0.8939 -2.5968  0.0879
  940MOL0     H26858  11.042   6.668   1.766  2.7391 -0.0137 -0.3879
  940MOL0     H26859  11.015   6.610   1.596 -3.6825 -1.6279 -0.1656
  940MOL0     H26860  11.232   6.669   1.687 -4.2520 -1.4071 -0.8232
  940MOL0     H26861  11.486   6.651   1.718  0.8007 -1.5589 -0.8312
  940MOL0     H26862  11.741   6.466   2.123  0.3609  1.5393  0.3772
  940MOL0     H26863  11.945   6.462   2.226 -2.6951 -1.1604  1.7489
  940MOL0     H26864  12.173   6.523   2.246 -0.1305  0.5329  0.7912
  940MOL0     H26865  12.128   6.361   2.330  0.1258 -2.1164 -1.5161
  940MOL0     H26866  12.340   6.464   2.403 -0.8461 -0.1853  0.5907
  940MOL0     H26867  12.376   6.311   2.319  1.3273  0.8508  0.9558
  940MOL0     H26868  12.425   6.459   2.106 -2.2035  1.0243  0.0271
  940MOL0     H26869  12.413   6.594   2.220  0.2470  0.2792 -0.2922
  940MOL0     H26870  12.596   6.342   2.241 -0.9688 -0.6724  1.4222
  940MOL0     H26871  12.609   6.465   2.367  4.1992 -2.4571 -0.2852
  940MOL0     H26872  12.656   6.625   2.181  2.2061  0.7155 -3.5244
  940MOL0     H26873  12.667   6.486   2.067  2.3846 -0.9934 -0.1577
  940MOL0     H26874  12.851   6.495   2.321  0.8799  2.9007 -0.0115
  940MOL0     H26875  12.850   6.391   2.180 -1.2550 -0.9024  0.8951
  940MOL0     H26876  12.915   6.680   2.206 -2.8547 -1.3468  2.6614
  940MOL0     H26877  12.886   6.613   2.042  1.5104  0.6615 -0.5718
  940MOL0     H26878  13.092   6.529   2.241  2.0625  0.3926 -0.1966
  940MOL0     H26879  13.048   6.443   2.089 -3.0251 -0.5138  0.7984
  940MOL0     H26880  12.095   6.190   1.924  1.5726  1.9917  0.8549
  940MOL0     H26881  11.861   6.155   1.848  3.3406 -2.5339  0.7314
  940MOL0     H26882  11.428   6.240   1.838 -1.2370 -1.3709  0.4859
  940MOL0     H26883  11.196   6.258   1.799 -2.4363  1.5043  1.7384
  940MOL0     H26884   9.184   6.466   2.125  2.5872 -1.0187  0.1027
  940MOL0     H26885   8.943   6.420   2.072  0.1630 -2.8444  0.0650
  940MOL0     H26886   8.659   6.224   1.777  1.8110  2.2912  1.7397
  940MOL0     H26887   8.423   6.177   1.769  2.0356 -1.0109 -1.3340
  940MOL0     H26888   8.224   6.175   1.759  1.3514  1.3639 -0.9846
  940MOL0     H26889   8.070   6.232   1.694 -0.7691  3.4720 -0.8714
  940MOL0     H26890   8.189   6.311   1.959  0.3172 -3.3152  0.9743
  940MOL0     H26891   8.065   6.185   1.939  1.9096 -1.6568  0.5088
  940MOL0     H26892   7.907   6.323   1.849 -0.8652 -1.1442  2.2771
  940MOL0     H26893   8.024   6.463   1.855  2.7853 -1.4940  0.1118
  940MOL0     H26894   7.910   6.327   2.115 -0.1325  0.6958  0.3806
  940MOL0     H26895   8.028   6.451   2.095  0.4688 -1.4524 -0.8574
  940MOL0     H26896   7.627   6.592   2.103 -0.4527 -1.2238  0.9459
  940MOL0     H26897   8.347   6.591   1.697  0.4251 -0.2550 -0.6098
  940MOL0     H26898   8.486   6.749   1.751  2.2958  4.0645  2.4209
  940MOL0     H26899   8.621   6.738   1.859  0.3726 -0.7532  0.1173
  940MOL0     H26900   8.640   6.738   1.682 -0.0350  0.3560  1.1494
  941MOL0     O26901  10.800   6.643   1.176  0.3181  0.6048  0.0320
  941MOL0     C26902  10.893   6.717   1.149 -0.8330 -0.2429 -0.5981
  941MOL0     O26903  10.883   6.816   1.055  0.4152 -0.0492 -0.5760
  941MOL0     C26904  10.755   6.850   1.016 -0.5295 -0.0497  0.0860
  941MOL0     C26905  10.679   6.774   0.931  0.0808 -0.0255  0.2103
  941MOL0     C26906  10.561   6.828   0.875  0.2853 -0.6873 -0.8572
  941MOL0     C26907  10.510   6.949   0.911  0.2929  0.1093  0.1656
  941MOL0     O26908  10.393   6.978   0.853 -0.8041  0.3934  0.3819
  941MOL0     C26909  10.340   7.104   0.877  0.3074 -0.4333 -0.1747
  941MOL0     C26910  10.199   7.113   0.813  0.0153 -0.3593  0.9786
  941MOL0     C26911  10.110   6.991   0.860  0.3847  0.5417 -0.3845
  941MOL0     C26912  10.087   6.897   0.745 -0.3160 -0.2652  0.4437
  941MOL0     C26913   9.992   6.780   0.773  0.1549  0.5542  1.1028
  941MOL0     C26914  10.054   6.666   0.857  0.0552 -1.0287 -0.0127
  941MOL0     C26915  10.146   6.589   0.760 -0.1865 -0.0567  0.2195
  941MOL0     C26916  10.190   6.451   0.820 -0.5656  0.4080  0.5854
  941MOL0     N26917  10.245   6.479   0.957  0.3881  0.1165  0.1094
  941MOL0     C26918  10.337   6.577   1.001  0.0524  1.0257 -0.0585
  941MOL0     C26919  10.357   6.553   1.135  0.3618  0.5445 -0.1706
  941MOL0     C26920  10.436   6.619   1.243 -0.2218 -1.2155  0.9322
  941MOL0     C26921  10.406   6.770   1.238 -0.1828  0.2166 -0.4395
  941MOL0     C26922  10.469   6.835   1.369  0.4836  0.0148 -0.5182
  941MOL0     C26923  10.488   6.980   1.348  0.3776  0.3172  0.6230
  941MOL0     O26924  10.543   7.049   1.459  0.5618 -1.1712  0.4447
  941MOL0     C26925  10.676   7.064   1.462  0.0504  0.8666  0.4966
  941MOL0     C26926  10.772   6.975   1.410  0.8349 -0.2535  0.1239
  941MOL0     C26927  10.909   6.988   1.439  0.0591 -0.4621 -0.0505
  941MOL0     C26928  10.952   7.099   1.517  0.3388 -0.4431  0.5692
  941MOL0     C26929  11.097   7.110   1.551  0.3776 -0.0726 -0.9122
  941MOL0     O26930  11.174   7.000   1.524  0.6113  0.0240 -0.4300
  941MOL0     C26931  11.308   7.001   1.564  0.1861 -0.2515  0.2165
  941MOL0     C26932  11.411   7.050   1.486  0.7324  0.3246 -0.0733
  941MOL0     C26933  11.543   7.051   1.534 -0.8395  0.5248 -0.2866
  941MOL0     C26934  11.569   6.999   1.665 -0.3872  0.0891  0.0105
  941MOL0     O26935  11.703   7.000   1.711  0.2434  0.5691 -0.0807
  941MOL0     C26936  11.735   6.911   1.819  0.4687  0.3535 -0.1384
  941MOL0     C26937  11.886   6.901   1.827 -0.2806 -0.6307  0.6432
  941MOL0     C26938  11.933   6.769   1.895 -0.2259 -0.3559 -1.0796
  941MOL0     C26939  12.084   6.789   1.928  0.2114 -0.8678  0.2956
  941MOL0     C26940  12.169   6.727   1.820  0.3731  0.4038 -0.0179
  941MOL0     C26941  12.312   6.714   1.859 -0.0017 -0.3828 -0.5138
  941MOL0     C26942  12.379   6.617   1.758 -0.3186 -0.1156  0.9514
  941MOL0     C26943  12.523   6.595   1.768  0.7867  0.3186 -0.2391
  941MOL0    Cl26944  12.625   6.723   1.718  0.3292  0.2361  0.3046
  941MOL0     C26945  11.467   6.938   1.742  0.2476 -0.0187 -0.3179
  941MOL0     C26946  11.337   6.946   1.692 -0.4953  0.5484  0.3518
  941MOL0     O26947  11.133   7.213   1.612 -0.3069  0.1510  0.0481
  941MOL0     C26948  10.861   7.193   1.569  0.0404  0.4515  0.4094
  941MOL0     C26949  10.728   7.167   1.532 -0.3364 -0.9971 -0.0107
  941MOL0     N26950  10.300   6.431   1.157 -0.0423  0.5794 -0.9191
  941MOL0     N26951  10.235   6.388   1.056 -0.0278  0.0948  0.6249
  941MOL0     C26952  10.578   7.017   1.005  0.3797 -0.3845  0.5081
  941MOL0     C26953  10.704   6.980   1.055  0.4108  0.4580 -1.0875
  941MOL0     C26954  11.033   6.688   1.205  0.6310 -0.0609 -0.5873
  941MOL0     C26955  11.059   6.566   1.269  0.0082  0.0746  0.7574
  941MOL0     C26956  11.183   6.529   1.310 -0.9057  0.3684  0.2160
  941MOL0     C26957  11.293   6.613   1.295  0.5439 -0.3986 -0.0739
  941MOL0     O26958  11.414   6.573   1.347 -0.2620 -0.0263 -0.1059
  941MOL0     C26959  11.529   6.658   1.332  0.4752  0.1699 -0.0492
  941MOL0     C26960  11.654   6.584   1.387 -0.7863 -0.7434  0.7287
  941MOL0     C26961  11.744   6.697   1.440 -0.0002  0.5334  0.0586
  941MOL0     C26962  11.877   6.633   1.478 -0.0831 -0.3442  0.5685
  941MOL0     C26963  11.977   6.740   1.505  0.4522  0.2124 -0.2289
  941MOL0     C26964  12.058   6.831   1.513  0.5604  0.1227 -0.9337
  941MOL0     C26965  11.266   6.738   1.250  0.5516  0.1657  0.4165
  941MOL0     C26966  11.136   6.779   1.198  0.3673 -0.0154  0.5257
  941MOL0     C26967  11.124   6.915   1.135 -0.2598  0.2746 -0.7267
  941MOL0     H26968  10.717   6.678   0.897  1.0421  0.5796 -0.4884
  941MOL0     H26969  10.508   6.772   0.799 -1.4859 -2.1439  1.3306
  941MOL0     H26970  10.337   7.138   0.981  4.2457  4.3170 -1.1866
  941MOL0     H26971  10.411   7.174   0.831  1.9341 -2.4383 -0.8650
  941MOL0     H26972  10.211   7.122   0.704 -1.2905  0.5083  0.8763
  941MOL0     H26973  10.135   7.199   0.834 -1.0476 -0.6066 -0.9863
  941MOL0     H26974  10.013   7.029   0.894  0.4443  0.6116 -0.2937
  941MOL0     H26975  10.153   6.931   0.942  0.9952  0.7005 -0.5881
  941MOL0     H26976  10.053   6.946   0.653  3.0679 -2.1228 -2.0006
  941MOL0     H26977  10.187   6.859   0.721  1.5054  4.1598  0.0112
  941MOL0     H26978   9.910   6.823   0.830  0.8735  0.4591  2.2347
  941MOL0     H26979   9.958   6.743   0.675 -1.7271  2.8434  0.8058
  941MOL0     H26980  10.110   6.711   0.940 -0.6177 -0.2679  0.0426
  941MOL0     H26981   9.973   6.604   0.895 -1.7863  2.1411  1.7158
  941MOL0     H26982  10.231   6.654   0.737  2.0348 -2.3927  1.2707
  941MOL0     H26983  10.097   6.587   0.663 -0.6516  1.7968  0.3722
  941MOL0     H26984  10.113   6.375   0.834 -0.5096  0.3802  0.7417
  941MOL0     H26985  10.270   6.410   0.758 -1.5518 -2.5517  1.1200
  941MOL0     H26986  10.373   6.666   0.950  0.0477  0.7919 -0.4743
  941MOL0     H26987  10.401   6.581   1.340  0.5801 -0.0953  1.6826
  941MOL0     H26988  10.540   6.594   1.223  0.3750  0.7959  1.2718
  941MOL0     H26989  10.445   6.818   1.148 -3.5356 -0.2724 -2.3014
  941MOL0     H26990  10.298   6.782   1.245  0.1032  2.0187  2.1039
  941MOL0     H26991  10.558   6.778   1.397 -0.9174 -2.0985 -0.1109
  941MOL0     H26992  10.400   6.808   1.450 -1.0621 -1.4273 -2.2435
  941MOL0     H26993  10.388   7.014   1.320 -0.6198 -2.3505  0.6486
  941MOL0     H26994  10.541   7.005   1.256 -2.4475  1.8032 -0.7040
  941MOL0     H26995  10.747   6.882   1.359  2.5755  0.5972 -2.5040
  941MOL0     H26996  10.981   6.913   1.410  1.0141  0.6660 -0.7240
  941MOL0     H26997  11.377   7.083   1.389  1.0653  0.6908 -0.0685
  941MOL0     H26998  11.630   7.070   1.472 -1.6156  2.4443 -0.8455
  941MOL0     H26999  11.698   6.947   1.916  0.2719 -0.7049  0.1899
  941MOL0     H27000  11.689   6.814   1.799  0.2461  0.6497 -1.1008
  941MOL0     H27001  11.942   6.892   1.734 -2.6936 -1.1821 -0.8350
  941MOL0     H27002  11.915   6.990   1.883 -1.1690 -0.7716  1.3519
  941MOL0     H27003  11.882   6.745   1.988  1.7162  0.2798  0.1974
  941MOL0     H27004  11.929   6.687   1.822  2.4510 -0.9291 -0.6968
  941MOL0     H27005  12.119   6.740   2.019  3.6036 -1.4669 -1.1461
  941MOL0     H27006  12.103   6.895   1.941 -1.7594 -0.5219  0.6929
  941MOL0     H27007  12.161   6.792   1.732 -0.2668 -0.4586 -0.6209
  941MOL0     H27008  12.136   6.626   1.792  1.7986 -0.8576  2.5056
  941MOL0     H27009  12.357   6.814   1.856 -1.0818  0.1403 -3.9784
  941MOL0     H27010  12.326   6.667   1.956  3.0656  1.3775  0.0235
  941MOL0     H27011  12.360   6.642   1.653  2.1002 -0.0814  0.4705
  941MOL0     H27012  12.325   6.523   1.777  1.9337 -2.0382 -1.4517
  941MOL0     H27013  12.548   6.580   1.873  2.7024  0.0766 -0.6817
  941MOL0     H27014  12.547   6.496   1.729 -0.1916 -0.2899  0.6654
  941MOL0     H27015  11.483   6.917   1.847  1.8596  1.8334 -0.1125
  941MOL0     H27016  11.254   6.904   1.749  0.4151 -1.4273  0.3241
  941MOL0     H27017  10.877   7.295   1.600 -0.8196  1.7276 -2.9008
  941MOL0     H27018  10.661   7.236   1.582  0.0035  1.7392 -3.0511
  941MOL0     H27019  10.537   7.113   1.037 -0.9738 -0.4515 -0.9535
  941MOL0     H27020  10.758   7.042   1.126 -1.8883  0.1919  1.0426
  941MOL0     H27021  10.979   6.492   1.262  0.7383 -0.5825 -1.9326
  941MOL0     H27022  11.187   6.426   1.343 -1.0879  0.7025  1.3222
  941MOL0     H27023  11.509   6.755   1.378 -2.5054 -0.6408  0.6365
  941MOL0     H27024  11.549   6.661   1.225  0.5453 -0.8838 -0.0734
  941MOL0     H27025  11.688   6.531   1.298 -4.5039  1.4794 -2.3725
  941MOL0     H27026  11.636   6.520   1.473  4.0697 -1.6157  1.3326
  941MOL0     H27027  11.702   6.738   1.533  0.6872  1.0779  0.1435
  941MOL0     H27028  11.763   6.773   1.364 -0.0767  0.3381 -0.1558
  941MOL0     H27029  11.863   6.572   1.568 -0.2422  1.0100  1.4883
  941MOL0     H27030  11.916   6.579   1.390  0.8197 -1.2822  1.5142
  941MOL0     H27031  12.116   6.920   1.500  0.0118  0.8033  0.9585
  941MOL0     H27032  11.346   6.812   1.256  0.8403 -0.2900  3.7060
  941MOL0     H27033  11.052   6.988   1.174  0.4474 -0.1993  1.5901
  941MOL0     H27034  11.218   6.963   1.163 -0.7251 -0.3895  2.3123
  941MOL0     H27035  11.116   6.911   1.026 -4.1546 -1.4704 -0.5354
  942MOL0     O27036   4.817   8.268  11.087  0.4463  0.0538 -0.4471
  942MOL0     C27037   4.781   8.151  11.073  0.1936 -0.3571  0.7555
  942MOL0     O27038   4.847   8.060  10.998  0.5185 -0.5895  0.2552
  942MOL0     C27039   4.945   8.097  10.909 -0.1245 -0.9530  0.1243
  942MOL0     C27040   4.940   8.217  10.834  0.0627 -0.4006 -0.0278
  942MOL0     C27041   5.041   8.246  10.741 -0.2372  0.2349 -0.4015
  942MOL0     C27042   5.150   8.162  10.722  0.3489 -0.1367 -0.2642
  942MOL0     O27043   5.258   8.196  10.637 -0.1296 -0.1557 -0.1100
  942MOL0     C27044   5.235   8.287  10.519  0.3811  1.5656 -0.1347
  942MOL0     C27045   5.160   8.217  10.406  0.2517 -0.3274  0.0336
  942MOL0     C27046   5.162   8.287  10.272 -0.2281  0.4376  0.1864
  942MOL0     C27047   5.128   8.440  10.288  0.2429  0.5002  0.2313
  942MOL0     C27048   5.099   8.513  10.156  0.0711 -0.4875 -1.0787
  942MOL0     C27049   5.212   8.482  10.061  0.2242 -0.1683  0.4266
  942MOL0     C27050   5.198   8.564   9.925 -0.6666 -0.1166  0.2103
  942MOL0     C27051   5.329   8.574   9.851  0.6648  0.4564 -1.2522
  942MOL0     N27052   5.316   8.634   9.717  0.6514 -0.0795  0.3071
  942MOL0     C27053   5.325   8.765   9.687 -0.1986 -1.6646  0.6955
  942MOL0     C27054   5.364   8.776   9.549  0.5187  0.3578 -0.2227
  942MOL0     C27055   5.379   8.890   9.457 -0.8701 -0.1948 -0.4602
  942MOL0     C27056   5.521   8.883   9.386  0.5577  0.5147 -1.0216
  942MOL0     C27057   5.543   9.000   9.296  0.3091  0.1000  0.3652
  942MOL0     C27058   5.690   9.021   9.256 -0.9747  1.1177 -0.1161
  942MOL0     O27059   5.706   9.131   9.163 -0.1458  0.3363  0.1925
  942MOL0     C27060   5.811   9.137   9.075 -0.6337  0.0829  0.2826
  942MOL0     C27061   5.939   9.143   9.131  0.0432  0.4908 -0.4940
  942MOL0     C27062   6.052   9.158   9.047  0.4050 -0.4968 -0.2451
  942MOL0     C27063   6.035   9.178   8.911  1.2044  0.1822  0.7719
  942MOL0     C27064   6.152   9.187   8.810  1.1635 -0.5003 -1.4915
  942MOL0     O27065   6.124   9.224   8.684 -0.1911 -0.0376 -0.0195
  942MOL0     C27066   6.227   9.232   8.593 -0.3688 -0.0377 -0.0911
  942MOL0     C27067   6.237   9.144   8.482  0.4523  0.4747 -0.3921
  942MOL0     C27068   6.350   9.149   8.394 -0.2777 -0.2489 -0.1913
  942MOL0     C27069   6.435   9.263   8.393 -0.3797 -0.1511 -0.9778
  942MOL0     O27070   6.536   9.290   8.308  0.4187  0.4661 -0.2075
  942MOL0     C27071   6.514   9.255   8.169 -0.1778 -0.2396 -0.6056
  942MOL0     C27072   6.648   9.252   8.091 -0.0605  1.0568  0.5581
  942MOL0     C27073   6.700   9.395   8.073 -0.4112  0.3282  0.1927
  942MOL0     C27074   6.792   9.417   7.952 -0.0132 -0.4146  1.1676
  942MOL0     C27075   6.876   9.544   7.966 -0.3246 -0.5044  0.3627
  942MOL0     C27076   6.957   9.571   7.837 -0.2046 -0.3656  0.2596
  942MOL0     C27077   7.034   9.457   7.783 -0.2214  0.1103  0.2805
  942MOL0     C27078   7.117   9.480   7.660 -0.4228  0.0113  0.1684
  942MOL0    Cl27079   7.244   9.592   7.720 -0.4264  0.1572 -0.4813
  942MOL0     C27080   6.428   9.346   8.506  0.1774  0.2452 -0.4959
  942MOL0     C27081   6.325   9.334   8.604  0.1284  0.3000 -0.6684
  942MOL0     O27082   6.265   9.186   8.861 -0.3783 -0.1212 -0.3092
  942MOL0     C27083   5.906   9.192   8.860  0.6325  0.6981 -0.3243
  942MOL0     C27084   5.790   9.172   8.944  0.7164  0.4694  0.0377
  942MOL0     N27085   5.369   8.646   9.502 -0.1873  0.3514  0.9134
  942MOL0     N27086   5.337   8.572   9.599 -0.2820  0.4292 -1.0476
  942MOL0     C27087   5.151   8.037  10.796 -1.2675  0.1755  0.2587
  942MOL0     C27088   5.053   8.012  10.889  0.1198  0.3958  0.6257
  942MOL0     C27089   4.676   8.101  11.165 -0.4451  0.1414  0.0730
  942MOL0     C27090   4.699   7.971  11.234 -0.2612 -1.0014  0.2359
  942MOL0     C27091   4.594   7.920  11.312 -0.7208 -0.3075 -0.0055
  942MOL0     C27092   4.482   7.995  11.339  0.3081 -0.1901  0.1369
  942MOL0     O27093   4.396   7.961  11.432  0.1473 -0.6976 -0.5405
  942MOL0     C27094   4.281   7.902  11.382  0.5740  0.5227  0.6819
  942MOL0     C27095   4.208   7.860  11.508 -0.0831 -0.8187  0.4455
  942MOL0     C27096   4.085   7.787  11.478  0.0344 -0.1460  0.5550
  942MOL0     C27097   4.101   7.654  11.402  0.4527 -0.3432 -0.0550
  942MOL0     C27098   4.177   7.558  11.496  0.4261 -1.1333  0.3570
  942MOL0     C27099   4.237   7.479  11.566  0.0493  0.1218 -0.1678
  942MOL0     C27100   4.460   8.119  11.277  0.0074 -0.5649  0.9194
  942MOL0     C27101   4.562   8.172  11.194 -0.0510  0.2908 -0.9821
  942MOL0     C27102   4.528   8.306  11.131 -0.0367 -0.3015  0.1200
  942MOL0     H27103   4.854   8.283  10.841  0.6019  0.6681 -2.4388
  942MOL0     H27104   5.032   8.338  10.683  1.5733  1.2192  0.7491
  942MOL0     H27105   5.182   8.381  10.539  1.4446  2.1520  0.0521
  942MOL0     H27106   5.334   8.317  10.484  1.3237 -1.7889 -0.6867
  942MOL0     H27107   5.054   8.202  10.431  0.0738 -0.9790 -1.0379
  942MOL0     H27108   5.203   8.117  10.397  0.8703  0.0014 -0.7737
  942MOL0     H27109   5.088   8.247  10.201  2.1911 -0.9976 -1.6789
  942MOL0     H27110   5.264   8.281  10.232  1.1984 -1.8919  3.6856
  942MOL0     H27111   5.043   8.469  10.351 -0.2809  4.2282 -1.9036
  942MOL0     H27112   5.217   8.491  10.326  0.1715 -0.8592  2.4287
  942MOL0     H27113   5.006   8.481  10.110 -0.0672 -2.0547  0.2199
  942MOL0     H27114   5.098   8.620  10.181  2.8113  0.0810 -2.8802
  942MOL0     H27115   5.303   8.511  10.115 -1.2564  2.3640  1.7424
  942MOL0     H27116   5.203   8.375  10.040 -3.1636 -0.4397  2.5667
  942MOL0     H27117   5.172   8.661   9.968  0.0090 -0.7841  2.2328
  942MOL0     H27118   5.116   8.517   9.870 -0.4765 -0.0856 -0.1006
  942MOL0     H27119   5.394   8.637   9.914 -0.3605  0.9148 -0.6374
  942MOL0     H27120   5.363   8.470   9.852 -0.0595  0.0450  2.9689
  942MOL0     H27121   5.295   8.843   9.756  1.5755 -1.2150  1.0173
  942MOL0     H27122   5.298   8.882   9.384 -2.1607 -1.3780  1.0323
  942MOL0     H27123   5.359   8.992   9.492 -0.6535  0.3454 -1.8741
  942MOL0     H27124   5.605   8.896   9.455 -1.7721  2.9801  1.6019
  942MOL0     H27125   5.515   8.789   9.331 -1.3257 -1.2966  2.0356
  942MOL0     H27126   5.501   9.091   9.340  1.9108  1.4020 -0.6581
  942MOL0     H27127   5.485   8.973   9.207  0.3189 -0.4595  0.5222
  942MOL0     H27128   5.726   8.927   9.212 -3.3486 -1.1785  2.4024
  942MOL0     H27129   5.748   9.042   9.347 -0.4399  1.6796 -0.5864
  942MOL0     H27130   5.959   9.134   9.237 -2.0487  2.9275  0.2191
  942MOL0     H27131   6.152   9.156   9.089  0.2274 -0.0077  0.2176
  942MOL0     H27132   6.152   9.078   8.475 -0.1888  1.0610  1.4358
  942MOL0     H27133   6.356   9.083   8.309  2.8192  1.3995 -1.4223
  942MOL0     H27134   6.469   9.155   8.163 -1.7406  0.5159 -2.6262
  942MOL0     H27135   6.438   9.320   8.124 -2.2117 -1.3420  1.0188
  942MOL0     H27136   6.731   9.201   8.142  1.4387  1.4657 -1.3473
  942MOL0     H27137   6.630   9.191   8.002  3.2524 -0.6361  0.8867
  942MOL0     H27138   6.618   9.466   8.080 -0.7724  0.0114 -0.6522
  942MOL0     H27139   6.760   9.413   8.163  2.4191  3.6254 -2.1198
  942MOL0     H27140   6.727   9.421   7.865  2.9164  2.5303 -1.1525
  942MOL0     H27141   6.859   9.331   7.939 -1.0243 -1.0293 -0.2594
  942MOL0     H27142   6.947   9.529   8.048  2.0661 -0.9197 -1.6686
  942MOL0     H27143   6.818   9.633   7.993 -2.2702 -0.7580 -2.5293
  942MOL0     H27144   6.887   9.607   7.762  1.1542  0.1530 -0.7840
  942MOL0     H27145   7.024   9.656   7.854  1.1363 -0.8178 -2.4014
  942MOL0     H27146   6.972   9.368   7.772  1.5424 -1.0251 -1.1493
  942MOL0     H27147   7.093   9.426   7.869  0.1603 -1.0758 -0.3819
  942MOL0     H27148   7.163   9.386   7.626 -1.3433 -0.2773 -0.3294
  942MOL0     H27149   7.059   9.515   7.574 -0.5240 -1.9005 -0.6025
  942MOL0     H27150   6.498   9.428   8.515  0.5435 -0.2066  1.2186
  942MOL0     H27151   6.325   9.391   8.697  3.2830 -2.7462  1.4307
  942MOL0     H27152   5.890   9.223   8.757  3.9702 -2.3880 -1.9795
  942MOL0     H27153   5.684   9.169   8.919  0.6896 -1.0618  0.2413
  942MOL0     H27154   5.242   7.978  10.794 -0.3830  1.4331  1.4742
  942MOL0     H27155   5.067   7.926  10.954 -1.1852  2.4939  3.9445
  942MOL0     H27156   4.792   7.915  11.236  0.0379 -0.7065 -2.3088
  942MOL0     H27157   4.616   7.831  11.370  0.8693  1.0372  1.5579
  942MOL0     H27158   4.297   7.817  11.315  0.8081  0.9854  0.1388
  942MOL0     H27159   4.222   7.971  11.320  1.2903 -0.3466 -1.0298
  942MOL0     H27160   4.190   7.952  11.564  2.7372  1.2673 -1.7695
  942MOL0     H27161   4.282   7.798  11.559 -0.2900 -2.2056 -0.8667
  942MOL0     H27162   4.015   7.849  11.421  1.5148  1.0755  0.0084
  942MOL0     H27163   4.032   7.767  11.571 -2.7308  0.6551 -0.7346
  942MOL0     H27164   4.001   7.610  11.404  0.5684 -0.6050  0.0535
  942MOL0     H27165   4.151   7.658  11.306  2.1150  0.0409  0.7956
  942MOL0     H27166   4.285   7.405  11.627 -0.9323 -0.9963 -0.7190
  942MOL0     H27167   4.365   8.166  11.300 -0.8787 -2.2424  0.8047
  942MOL0     H27168   4.432   8.346  11.166 -0.0195  2.6906 -2.7679
  942MOL0     H27169   4.607   8.379  11.150 -0.3596  0.1923 -0.4043
  942MOL0     H27170   4.511   8.291  11.024 -0.7603 -0.6881  0.2804
  943MOL0     O27171   8.946   0.914   4.519  0.1582  0.4109 -0.6432
  943MOL0     C27172   8.967   0.805   4.565  0.0696  0.8892  0.7110
  943MOL0     O27173   9.091   0.764   4.615  0.0714  0.3514 -0.2086
  943MOL0     C27174   9.179   0.857   4.648 -0.7719  0.3579  0.5807
  943MOL0     C27175   9.305   0.839   4.587  0.3387  0.9708  0.4515
  943MOL0     C27176   9.413   0.925   4.627 -0.4426 -0.2269  0.0341
  943MOL0     C27177   9.396   1.034   4.708  0.3622 -0.1904  0.1006
  943MOL0     O27178   9.482   1.126   4.750 -0.7807 -0.0592 -0.3816
  943MOL0     C27179   9.621   1.115   4.709 -1.1778 -0.6411  0.4787
  943MOL0     C27180   9.699   1.236   4.745 -0.7087  0.1040 -0.4105
  943MOL0     C27181   9.845   1.213   4.687 -0.3178 -0.7587  0.7176
  943MOL0     C27182   9.950   1.319   4.729 -1.1363 -0.2613  0.1618
  943MOL0     C27183  10.081   1.278   4.666 -0.5835 -0.0654  1.2396
  943MOL0     C27184  10.193   1.396   4.672  0.0711  1.4896 -0.3468
  943MOL0     C27185  10.327   1.340   4.617  0.1421 -0.8264  0.0934
  943MOL0     C27186  10.454   1.418   4.661 -0.3327 -0.2224 -0.1049
  943MOL0     N27187  10.575   1.337   4.640 -0.0832 -0.3748  0.2325
  943MOL0     C27188  10.701   1.382   4.646 -0.1987  0.0916  0.5739
  943MOL0     C27189  10.787   1.279   4.644 -0.4495 -0.0055  0.0522
  943MOL0     C27190  10.938   1.298   4.664 -0.1571  0.9212 -0.4329
  943MOL0     C27191  10.981   1.386   4.546 -0.7036 -0.9395  0.7617
  943MOL0     C27192  11.124   1.342   4.489 -0.0538 -0.8111 -0.0395
  943MOL0     C27193  11.249   1.378   4.577  1.1702  0.2932  0.2083
  943MOL0     O27194  11.242   1.516   4.627  0.1605  0.1388 -0.2137
  943MOL0     C27195  11.361   1.569   4.672 -0.0375  0.4608  0.7532
  943MOL0     C27196  11.392   1.603   4.805  0.6659 -0.3813  0.6448
  943MOL0     C27197  11.516   1.667   4.844 -0.2853 -0.3295  0.6065
  943MOL0     C27198  11.608   1.696   4.744  0.6366  0.6249 -0.2905
  943MOL0     C27199  11.745   1.754   4.779  0.1002 -0.1588 -0.7065
  943MOL0     O27200  11.825   1.777   4.674 -0.5941  0.5385 -0.2845
  943MOL0     C27201  11.952   1.828   4.681  0.6835 -0.4918 -0.2456
  943MOL0     C27202  12.018   1.879   4.799 -0.0391 -0.6031  0.4027
  943MOL0     C27203  12.140   1.939   4.784 -0.3796  0.3149  0.0063
  943MOL0     C27204  12.201   1.939   4.663  0.2991 -0.1937  0.6921
  943MOL0     O27205  12.325   1.994   4.665 -0.0338  0.2728  1.0518
  943MOL0     C27206  12.429   2.004   4.561  0.2476  0.2293  0.2004
  943MOL0     C27207  12.538   2.108   4.605  0.5673  0.2048 -0.0342
  943MOL0     C27208  12.672   2.086   4.535 -0.4417  0.8933 -0.0267
  943MOL0     C27209  12.683   2.089   4.385 -0.3406  0.8158 -0.4990
  943MOL0     C27210  12.827   2.128   4.344  0.2571 -0.0515  0.6512
  943MOL0     C27211  12.926   2.016   4.393 -0.1249 -0.3302  0.0696
  943MOL0     C27212  13.067   2.044   4.335  0.4033 -0.2006 -0.1510
  943MOL0     C27213  13.143   2.157   4.397 -0.4873  0.8330  0.2801
  943MOL0    Cl27214  13.213   2.110   4.553 -0.0591  0.1101  0.2192
  943MOL0     C27215  12.151   1.884   4.552  0.8792 -0.2728 -0.3565
  943MOL0     C27216  12.018   1.838   4.558  0.4479 -0.5383 -0.5753
  943MOL0     O27217  11.763   1.794   4.895  0.0081  0.4841  0.4659
  943MOL0     C27218  11.579   1.663   4.606 -0.4098  0.1371  0.8368
  943MOL0     C27219  11.456   1.601   4.574 -0.5528 -0.4217  0.2400
  943MOL0     N27220  10.711   1.168   4.634  0.3902 -0.3027  0.1992
  943MOL0     N27221  10.588   1.205   4.626  0.5325 -0.5189 -0.8145
  943MOL0     C27222   9.270   1.050   4.766  0.6677 -0.1729  0.9871
  943MOL0     C27223   9.160   0.968   4.736 -0.7194  0.7620 -0.4912
  943MOL0     C27224   8.856   0.704   4.560 -0.6367  0.7056 -0.0298
  943MOL0     C27225   8.886   0.566   4.557 -0.3408 -0.6046  1.3708
  943MOL0     C27226   8.786   0.476   4.582  0.1666 -0.0007  0.6090
  943MOL0     C27227   8.651   0.503   4.586  0.1869  0.0591 -0.2622
  943MOL0     O27228   8.574   0.396   4.598  0.2487 -0.1074 -0.2503
  943MOL0     C27229   8.434   0.415   4.601 -0.1762  0.1641  0.6527
  943MOL0     C27230   8.367   0.448   4.732 -0.0270 -0.1834  0.3090
  943MOL0     C27231   8.217   0.457   4.729  0.7468  0.2455  1.2454
  943MOL0     C27232   8.142   0.319   4.721 -0.6083 -1.0482 -0.2639
  943MOL0     C27233   8.006   0.341   4.691 -0.3064 -0.4680 -1.1095
  943MOL0     C27234   7.891   0.353   4.668 -0.2462  0.6928 -0.0020
  943MOL0     C27235   8.620   0.641   4.585  0.5892  0.1052  0.5254
  943MOL0     C27236   8.715   0.736   4.566  0.5281  0.1207 -0.0004
  943MOL0     C27237   8.665   0.879   4.575 -0.3338  0.2088  0.6338
  943MOL0     H27238   9.298   0.752   4.522  0.1798  1.7996 -0.6664
  943MOL0     H27239   9.513   0.909   4.588 -0.7971 -2.4800 -0.0869
  943MOL0     H27240   9.669   1.026   4.750  0.1141 -0.4274 -0.5146
  943MOL0     H27241   9.633   1.112   4.600  2.7263  2.6471  0.5741
  943MOL0     H27242   9.693   1.248   4.853 -1.7010  1.9823 -0.6303
  943MOL0     H27243   9.657   1.328   4.703  2.2626  1.2332 -1.2097
  943MOL0     H27244   9.842   1.209   4.578  0.6372 -2.9648  0.7246
  943MOL0     H27245   9.876   1.110   4.703 -0.8710 -0.7610  1.8785
  943MOL0     H27246   9.916   1.416   4.693  2.9693  1.2191 -0.2780
  943MOL0     H27247   9.950   1.326   4.838 -0.5544  1.2436  0.0813
  943MOL0     H27248  10.118   1.190   4.719  1.6040 -0.2382 -0.4447
  943MOL0     H27249  10.065   1.247   4.563  0.1047 -0.0132  1.1117
  943MOL0     H27250  10.157   1.476   4.607  1.5986  0.5109 -2.5037
  943MOL0     H27251  10.211   1.424   4.776  2.3256 -1.8722  0.3230
  943MOL0     H27252  10.312   1.341   4.508 -2.3576 -1.9618  0.3589
  943MOL0     H27253  10.340   1.234   4.640 -0.0509 -1.8969 -3.9617
  943MOL0     H27254  10.463   1.514   4.609 -2.5921  2.7492  4.3341
  943MOL0     H27255  10.455   1.432   4.769  1.9008  0.2758 -0.1357
  943MOL0     H27256  10.729   1.486   4.664  2.2221 -0.0358 -1.7944
  943MOL0     H27257  10.966   1.342   4.760  1.5759 -3.7620  1.5041
  943MOL0     H27258  10.988   1.201   4.657 -0.2476  0.7818  0.7666
  943MOL0     H27259  10.912   1.363   4.465  0.4112 -0.5586 -0.3245
  943MOL0     H27260  10.981   1.491   4.576 -3.0072 -1.0287  1.2686
  943MOL0     H27261  11.125   1.393   4.393 -1.2299 -0.4662  0.1244
  943MOL0     H27262  11.125   1.233   4.476 -0.9045 -1.2313  2.6554
  943MOL0     H27263  11.330   1.355   4.507 -1.7299 -2.9727 -2.4592
  943MOL0     H27264  11.262   1.316   4.667  1.9865 -0.1694 -0.2111
  943MOL0     H27265  11.318   1.579   4.881  1.2586 -1.2420  0.9635
  943MOL0     H27266  11.529   1.706   4.944 -1.9661  0.8795  0.3969
  943MOL0     H27267  11.984   1.870   4.902  0.5248 -2.4970  0.4622
  943MOL0     H27268  12.191   1.998   4.860 -4.6284  1.3803  2.3827
  943MOL0     H27269  12.482   1.908   4.555  2.1458  1.3160 -1.5856
  943MOL0     H27270  12.384   2.035   4.467  0.2386  1.7850  0.6920
  943MOL0     H27271  12.497   2.209   4.602  1.3453  0.5337  0.0501
  943MOL0     H27272  12.564   2.098   4.711  0.2099  0.3962  0.0705
  943MOL0     H27273  12.730   2.164   4.584 -1.2687  1.2442  0.4188
  943MOL0     H27274  12.709   1.987   4.565 -0.8330  0.7022 -0.1662
  943MOL0     H27275  12.606   2.152   4.340 -1.2631 -0.3854 -0.6619
  943MOL0     H27276  12.658   1.993   4.339  2.8736  0.1033 -1.0572
  943MOL0     H27277  12.858   2.225   4.383  2.2873 -1.0364  1.6569
  943MOL0     H27278  12.842   2.135   4.236 -1.7198  0.9216  0.3993
  943MOL0     H27279  12.921   2.014   4.503  0.1421 -0.3492  0.0814
  943MOL0     H27280  12.898   1.921   4.348  0.6973  0.2206 -1.6710
  943MOL0     H27281  13.044   2.071   4.232 -2.7297  0.0594  0.5137
  943MOL0     H27282  13.118   1.947   4.339 -1.7853 -1.5300 -1.9876
  943MOL0     H27283  13.224   2.195   4.334 -0.1503 -1.2650 -0.6439
  943MOL0     H27284  13.072   2.238   4.419  0.1621  1.2661  0.8403
  943MOL0     H27285  12.200   1.897   4.456 -0.1766  3.3795 -0.5687
  943MOL0     H27286  11.970   1.811   4.465  0.5254  0.9069 -1.0717
  943MOL0     H27287  11.640   1.670   4.517 -1.8436 -4.5060 -0.8003
  943MOL0     H27288  11.431   1.593   4.468  1.0736 -2.3983 -0.0432
  943MOL0     H27289   9.245   1.116   4.848  1.8813 -3.0370  3.9010
  943MOL0     H27290   9.071   0.985   4.796 -0.3482 -0.5814  0.4886
  943MOL0     H27291   8.989   0.533   4.546  0.4172  1.4913  1.6492
  943MOL0     H27292   8.821   0.373   4.583  2.8513  0.7598 -1.2273
  943MOL0     H27293   8.392   0.323   4.558  1.6627  1.1476 -3.8646
  943MOL0     H27294   8.420   0.503   4.538  3.7783  1.0141  0.7113
  943MOL0     H27295   8.407   0.540   4.776  2.0249 -1.3751  1.0563
  943MOL0     H27296   8.399   0.373   4.805 -0.2936  0.0542  0.6750
  943MOL0     H27297   8.198   0.518   4.640  4.6595  3.0098  2.0692
  943MOL0     H27298   8.185   0.516   4.815 -2.0313 -0.0560  0.5145
  943MOL0     H27299   8.194   0.247   4.658 -0.7197 -0.6220 -0.8500
  943MOL0     H27300   8.138   0.279   4.823 -0.4450  0.6881  0.4646
  943MOL0     H27301   7.787   0.376   4.656 -0.2373 -0.5152 -3.3552
  943MOL0     H27302   8.515   0.667   4.601  0.7419  1.8375 -0.9854
  943MOL0     H27303   8.557   0.888   4.590 -0.8122 -2.2205 -0.7328
  943MOL0     H27304   8.724   0.922   4.657  3.3860  0.8045 -2.1029
  943MOL0     H27305   8.695   0.928   4.482  2.8594 -1.4622  0.6384
  944MOL0     O27306   7.298   9.911  10.488 -0.1627 -0.6257  0.4815
  944MOL0     C27307   7.238   9.877  10.388  0.2742 -0.6519 -0.1195
  944MOL0     O27308   7.301   9.818  10.282 -0.0966 -0.1268  0.5422
  944MOL0     C27309   7.443   9.801  10.284 -0.1453 -0.2456  0.4809
  944MOL0     C27310   7.543   9.889  10.317 -0.0843 -0.2003  1.2560
  944MOL0     C27311   7.678   9.858  10.302  0.2449 -0.1567 -0.2940
  944MOL0     C27312   7.705   9.747  10.225  0.3938  0.8092 -0.7340
  944MOL0     O27313   7.828   9.732  10.179 -0.7783 -0.4508  1.1724
  944MOL0     C27314   7.900   9.611  10.199 -0.0257  0.4271  0.0234
  944MOL0     C27315   7.981   9.583  10.081  1.1970  0.0665 -0.1799
  944MOL0     C27316   8.085   9.685  10.050 -0.6038 -0.4839  0.4134
  944MOL0     C27317   8.199   9.689  10.157  0.3585  0.3077  0.4174
  944MOL0     C27318   8.325   9.757  10.103  0.2702  0.0327 -0.5249
  944MOL0     C27319   8.428   9.737  10.221 -0.6391 -0.6745 -0.3109
  944MOL0     C27320   8.555   9.824  10.197  0.3611 -0.0481 -0.4278
  944MOL0     C27321   8.655   9.803  10.311  0.0448  0.9429 -0.3365
  944MOL0     N27322   8.743   9.912  10.353 -0.1927 -0.1206  0.1636
  944MOL0     C27323   8.824   9.987  10.265 -0.1453 -0.1575  0.0334
  944MOL0     C27324   8.876  10.083  10.341 -0.3224 -0.0590  0.0037
  944MOL0     C27325   8.964  10.191  10.297 -0.2655 -0.8386  0.4862
  944MOL0     C27326   9.075  10.226  10.393 -0.7725  0.3471  0.0546
  944MOL0     C27327   9.144  10.372  10.367  0.3656  0.1579 -0.4109
  944MOL0     C27328   9.262  10.396  10.469  0.4959 -0.0339  0.0004
  944MOL0     O27329   9.364  10.297  10.436 -0.3253  0.1395  0.5806
  944MOL0     C27330   9.484  10.288  10.516  0.1985  0.8085 -0.4296
  944MOL0     C27331   9.572  10.186  10.499  0.7383 -0.0785  0.4807
  944MOL0     C27332   9.687  10.168  10.578 -0.1159 -0.3025 -0.9262
  944MOL0     C27333   9.724  10.262  10.678  0.8301  0.5110  0.1017
  944MOL0     C27334   9.836  10.235  10.776 -0.3358 -0.1820 -0.1289
  944MOL0     O27335   9.928  10.144  10.748  0.0333  0.2690 -0.1067
  944MOL0     C27336  10.013  10.100  10.846  0.3629 -0.8333 -0.4894
  944MOL0     C27337  10.018   9.963  10.877  0.5042 -1.1251  0.0799
  944MOL0     C27338  10.112   9.908  10.969  0.8135  0.4872  0.9422
  944MOL0     C27339  10.196   9.991  11.032 -0.3909 -0.2914 -0.3732
  944MOL0     O27340  10.300   9.961  11.120  0.3422 -0.8190 -0.3989
  944MOL0     C27341  10.339   9.827  11.157 -0.1671 -0.4226  0.0214
  944MOL0     C27342  10.466   9.837  11.247  0.1909  0.1664 -0.4019
  944MOL0     C27343  10.508   9.708  11.301 -0.0641  0.4893 -0.0620
  944MOL0     C27344  10.645   9.702  11.361  0.0228 -0.4510 -0.1389
  944MOL0     C27345  10.689   9.558  11.379 -0.1543  0.7137  0.0498
  944MOL0     C27346  10.613   9.491  11.495 -0.2757  0.3403  0.1719
  944MOL0     C27347  10.682   9.355  11.516  1.1224  0.2563  0.1811
  944MOL0     C27348  10.565   9.253  11.559 -0.8867  0.6771  0.4831
  944MOL0    Cl27349  10.650   9.102  11.613 -0.6494 -0.0206 -0.0865
  944MOL0     C27350  10.182  10.127  11.011  0.1599  0.2865 -0.1526
  944MOL0     C27351  10.104  10.186  10.909  0.5311  0.2404  0.0705
  944MOL0     O27352   9.829  10.301  10.880 -0.3979  0.8864 -1.0238
  944MOL0     C27353   9.635  10.369  10.694 -0.5393 -0.3534 -0.9015
  944MOL0     C27354   9.527  10.380  10.617 -0.2372 -0.1576 -0.2382
  944MOL0     N27355   8.842  10.050  10.473 -0.0217 -0.5396 -0.4335
  944MOL0     N27356   8.752   9.954  10.478 -0.3676 -0.2037 -0.1979
  944MOL0     C27357   7.605   9.662  10.188  0.0514  0.1972 -0.5205
  944MOL0     C27358   7.474   9.686  10.208 -0.5659 -0.4367 -1.0642
  944MOL0     C27359   7.094   9.911  10.377  0.0901  0.6997 -0.3938
  944MOL0     C27360   7.020   9.832  10.281 -0.1749 -0.1840  0.2433
  944MOL0     C27361   6.892   9.881  10.243  0.3529  0.3028 -0.6474
  944MOL0     C27362   6.835   9.986  10.306 -0.2844  0.1403  0.7955
  944MOL0     O27363   6.706  10.015  10.257  0.1176 -0.8752  0.6094
  944MOL0     C27364   6.646  10.144  10.280 -0.5308  0.2170 -0.2821
  944MOL0     C27365   6.524  10.159  10.200  0.9057  0.1701  0.4877
  944MOL0     C27366   6.436  10.045  10.254 -0.2786  0.2385  0.7628
  944MOL0     C27367   6.294  10.067  10.198 -0.2907  0.4833 -0.5190
  944MOL0     C27368   6.204  10.135  10.295 -0.7067 -0.0766  0.0662
  944MOL0     C27369   6.141  10.194  10.379 -0.0212 -0.5368 -0.0188
  944MOL0     C27370   6.906  10.057  10.403  0.1914  0.1342 -0.0972
  944MOL0     C27371   7.041  10.023  10.438  0.3887 -0.0163  1.2248
  944MOL0     C27372   7.115  10.122  10.511  0.8712 -0.5756  0.0404
  944MOL0     H27373   7.519   9.981  10.369 -2.6635 -0.5403  0.8048
  944MOL0     H27374   7.758   9.926  10.330 -0.9740  1.4703 -0.5915
  944MOL0     H27375   7.961   9.620  10.290  2.0973  0.6308 -1.3450
  944MOL0     H27376   7.842   9.519  10.215  1.8536 -0.7548  0.3928
  944MOL0     H27377   7.911   9.575   9.998  1.6471 -3.1897 -0.3633
  944MOL0     H27378   8.027   9.486  10.102  0.6476 -1.1075 -3.7238
  944MOL0     H27379   8.037   9.783  10.037  0.0552 -0.5061 -2.8795
  944MOL0     H27380   8.136   9.650   9.960  0.4345  0.1582  0.7381
  944MOL0     H27381   8.166   9.741  10.248  0.6700 -0.1485  0.7906
  944MOL0     H27382   8.223   9.587  10.188  0.8091 -1.0911 -3.8053
  944MOL0     H27383   8.364   9.698  10.020 -0.2752 -2.1806  0.7052
  944MOL0     H27384   8.319   9.862  10.073  1.0240 -0.0050 -0.8256
  944MOL0     H27385   8.390   9.767  10.318 -1.1465  0.0215 -0.7174
  944MOL0     H27386   8.467   9.636  10.232  1.6550  0.2652  0.8949
  944MOL0     H27387   8.528   9.930  10.196  0.4679 -0.0215 -1.5694
  944MOL0     H27388   8.604   9.822  10.099  2.0746 -0.8067  0.3915
  944MOL0     H27389   8.592   9.784  10.399 -0.6634  1.0114 -0.8204
  944MOL0     H27390   8.717   9.715  10.292 -3.4631 -1.6816 -0.6544
  944MOL0     H27391   8.833   9.980  10.157  0.6702  1.0786  0.0003
  944MOL0     H27392   9.010  10.159  10.203  0.5310  0.4836  0.3891
  944MOL0     H27393   8.916  10.288  10.281  0.7244 -0.5469 -0.8714
  944MOL0     H27394   9.039  10.228  10.496  1.2066  2.7389  0.7918
  944MOL0     H27395   9.160  10.159  10.378 -0.2901  1.4030 -2.3241
  944MOL0     H27396   9.072  10.449  10.395  0.4935  0.0389  0.2531
  944MOL0     H27397   9.181  10.396  10.267  2.0688  1.6583  0.5288
  944MOL0     H27398   9.243  10.385  10.576  4.2537 -3.2459  0.5573
  944MOL0     H27399   9.285  10.502  10.457 -4.2722  1.0984 -1.0253
  944MOL0     H27400   9.539  10.107  10.433 -1.2730 -0.0249  1.3505
  944MOL0     H27401   9.743  10.078  10.557  2.9109  0.5539  2.4603
  944MOL0     H27402   9.942   9.903  10.827  1.8252 -1.9919 -0.9773
  944MOL0     H27403  10.128   9.802  10.986  1.1746  0.3172 -0.3023
  944MOL0     H27404  10.252   9.771  11.194 -0.9659 -1.4402 -3.0415
  944MOL0     H27405  10.362   9.777  11.062 -1.9324  0.9859 -1.2274
  944MOL0     H27406  10.552   9.878  11.193 -0.2793 -1.1460 -2.2549
  944MOL0     H27407  10.438   9.909  11.325 -0.6980 -0.8941  0.2923
  944MOL0     H27408  10.429   9.671  11.367 -2.5634  0.7494 -2.6988
  944MOL0     H27409  10.500   9.632  11.223  0.1992  1.3124 -0.9019
  944MOL0     H27410  10.674   9.761  11.449  2.2336 -1.8272  0.1488
  944MOL0     H27411  10.716   9.745  11.289 -1.3293  1.0971 -0.5953
  944MOL0     H27412  10.796   9.561  11.400 -0.0873 -0.6883 -0.0035
  944MOL0     H27413  10.685   9.504  11.284 -0.9367  1.3388 -0.2888
  944MOL0     H27414  10.624   9.552  11.585  0.9941  1.1263 -0.4943
  944MOL0     H27415  10.505   9.473  11.485 -0.4467  0.3540  1.8058
  944MOL0     H27416  10.751   9.363  11.600  0.1410  0.9585  0.9451
  944MOL0     H27417  10.737   9.333  11.424 -0.6482  1.5433 -1.2511
  944MOL0     H27418  10.521   9.280  11.655  0.6244 -1.4474  1.8472
  944MOL0     H27419  10.487   9.229  11.486  0.5290  0.7895 -1.1382
  944MOL0     H27420  10.237  10.206  11.062  1.3882  0.0196 -1.0028
  944MOL0     H27421  10.109  10.293  10.890 -1.1390  0.5084  0.9271
  944MOL0     H27422   9.650  10.430  10.782  0.5476 -1.2549 -0.4215
  944MOL0     H27423   9.456  10.455  10.650  1.1151 -0.3401  3.6561
  944MOL0     H27424   7.646   9.584  10.124 -0.2560  1.7678 -2.7438
  944MOL0     H27425   7.401   9.629  10.152 -1.0436  0.7190 -1.6490
  944MOL0     H27426   7.058   9.745  10.228 -0.2508 -1.1952  1.8005
  944MOL0     H27427   6.833   9.837  10.163  0.1695 -0.6249 -0.0170
  944MOL0     H27428   6.704  10.233  10.253 -0.3717  0.0281 -0.5622
  944MOL0     H27429   6.633  10.154  10.388 -1.3914 -0.5854 -0.2999
  944MOL0     H27430   6.551  10.153  10.094  0.2449  0.2778  0.3110
  944MOL0     H27431   6.483  10.260  10.211  0.9513  0.0778  1.6325
  944MOL0     H27432   6.445  10.034  10.363  2.4356 -0.4563  0.5172
  944MOL0     H27433   6.471   9.951  10.212  0.3280  0.4847  0.7073
  944MOL0     H27434   6.292  10.105  10.095  0.2152 -1.7017 -1.4070
  944MOL0     H27435   6.252   9.967  10.183  0.3201  0.1262  0.1165
  944MOL0     H27436   6.079  10.244  10.452  1.8100 -1.0315  1.9783
  944MOL0     H27437   6.856  10.144  10.443 -3.1437 -1.8335  0.3661
  944MOL0     H27438   7.201  10.158  10.454  0.6522  0.9316  0.6151
  944MOL0     H27439   7.059  10.212  10.539  1.6170  0.1181 -0.6512
  944MOL0     H27440   7.153  10.078  10.604 -0.8662  0.0963  1.1337
  945MOL0     O27441   7.921   8.259   9.413 -0.0042  0.1099 -0.4630
  945MOL0     C27442   7.869   8.255   9.303  0.3422  0.2335 -0.7647
  945MOL0     O27443   7.886   8.344   9.198 -0.4405 -0.1976 -0.1254
  945MOL0     C27444   7.984   8.432   9.222  0.4949  0.9703 -0.0783
  945MOL0     C27445   7.977   8.543   9.303 -0.7406 -0.0139 -0.8240
  945MOL0     C27446   8.089   8.629   9.304  0.4906 -0.2388 -0.9106
  945MOL0     C27447   8.191   8.616   9.210  0.2017 -0.7780  0.6937
  945MOL0     O27448   8.278   8.721   9.197 -0.4225 -0.2830 -0.5228
  945MOL0     C27449   8.413   8.695   9.141 -0.7473 -0.2010  0.1527
  945MOL0     C27450   8.505   8.813   9.139  0.1397 -0.8098  0.1417
  945MOL0     C27451   8.576   8.840   9.271  0.0628  0.1868 -0.4352
  945MOL0     C27452   8.674   8.724   9.301  0.8389 -0.2968  0.1533
  945MOL0     C27453   8.784   8.754   9.398  0.5143 -0.3306 -0.4187
  945MOL0     C27454   8.738   8.787   9.546  0.5612  0.3625  0.5963
  945MOL0     C27455   8.841   8.791   9.659  0.4024 -0.1682  0.7396
  945MOL0     C27456   8.942   8.676   9.668  0.8421  1.4000 -0.0132
  945MOL0     N27457   9.061   8.697   9.588  0.5787  0.0033  0.3930
  945MOL0     C27458   9.087   8.650   9.456 -0.5026  0.1104 -0.9634
  945MOL0     C27459   9.201   8.713   9.424 -0.1373 -0.2771  0.8503
  945MOL0     C27460   9.265   8.709   9.290  0.5648 -0.2826  1.1446
  945MOL0     C27461   9.421   8.686   9.308  0.3996 -0.1336 -0.1900
  945MOL0     C27462   9.492   8.670   9.176  0.7839  0.2006 -0.0615
  945MOL0     C27463   9.643   8.656   9.201  0.0065 -0.4628 -0.5690
  945MOL0     O27464   9.711   8.670   9.070 -0.6630  0.1515  0.3221
  945MOL0     C27465   9.842   8.674   9.087  0.0673  0.4073 -0.7005
  945MOL0     C27466   9.923   8.791   9.074  0.0040 -0.0513 -0.4062
  945MOL0     C27467  10.057   8.788   9.093 -0.0711 -0.8850  0.1393
  945MOL0     C27468  10.124   8.676   9.117 -0.0216 -0.3346 -0.0321
  945MOL0     C27469  10.269   8.676   9.135 -0.4205 -0.5447  0.1581
  945MOL0     O27470  10.346   8.780   9.079  0.3286 -0.4003 -0.4330
  945MOL0     C27471  10.464   8.817   9.145 -0.4829 -0.9741  0.5091
  945MOL0     C27472  10.600   8.784   9.106 -0.1549  0.2742 -0.7459
  945MOL0     C27473  10.717   8.812   9.171 -0.1300  0.3255 -0.1861
  945MOL0     C27474  10.703   8.904   9.283 -0.0966  0.8546  0.3342
  945MOL0     O27475  10.823   8.943   9.349  0.4249 -0.4199  0.5915
  945MOL0     C27476  10.812   9.018   9.474 -0.0356 -0.7998  0.4071
  945MOL0     C27477  10.958   9.055   9.496  0.0502 -0.2068  0.9235
  945MOL0     C27478  11.043   8.956   9.570 -0.7590  0.8415 -0.0990
  945MOL0     C27479  11.158   9.028   9.662  0.0555  0.5140  0.6601
  945MOL0     C27480  11.286   9.065   9.590  0.0031 -0.1840 -0.0796
  945MOL0     C27481  11.379   8.948   9.546  0.3521 -0.1623  0.4755
  945MOL0     C27482  11.430   8.849   9.667 -0.1491 -0.9932 -0.2592
  945MOL0     C27483  11.519   8.736   9.608  0.0545 -0.0127  1.0856
  945MOL0    Cl27484  11.518   8.582   9.705 -0.0399 -0.3474  0.4927
  945MOL0     C27485  10.573   8.941   9.322 -0.8623 -0.3632 -0.8922
  945MOL0     C27486  10.460   8.902   9.254  0.0819 -0.5339  0.3093
  945MOL0     O27487  10.320   8.581   9.193  0.3355  0.1037  0.4295
  945MOL0     C27488  10.051   8.556   9.111 -0.5733 -0.1945 -0.9246
  945MOL0     C27489   9.911   8.553   9.091 -0.2428  0.8562  0.1765
  945MOL0     N27490   9.234   8.802   9.521  0.6854 -0.0059 -0.0616
  945MOL0     N27491   9.158   8.790   9.616  0.1232  0.9979  0.3464
  945MOL0     C27492   8.190   8.510   9.115 -0.2887  0.5321  0.4118
  945MOL0     C27493   8.101   8.412   9.142  0.7567 -0.5208 -0.5839
  945MOL0     C27494   7.761   8.150   9.279  0.0952 -0.0405 -0.1438
  945MOL0     C27495   7.730   8.115   9.140 -0.6152  0.1629 -0.9867
  945MOL0     C27496   7.623   8.028   9.112 -0.7411  0.3578 -0.7523
  945MOL0     C27497   7.562   7.956   9.213  0.4292  0.1524  0.0145
  945MOL0     O27498   7.462   7.854   9.199  0.1877 -0.3332  0.5645
  945MOL0     C27499   7.377   7.838   9.088  0.1736  0.4757 -0.2977
  945MOL0     C27500   7.236   7.774   9.115  0.0719  0.4589  0.4007
  945MOL0     C27501   7.225   7.626   9.092 -0.6125  0.3773 -0.7383
  945MOL0     C27502   7.323   7.547   9.186  0.0099 -0.3750  0.4835
  945MOL0     C27503   7.275   7.523   9.321  1.1573 -0.7384  0.1404
  945MOL0     C27504   7.214   7.499   9.428  0.0465  0.7484  0.1265
  945MOL0     C27505   7.594   7.995   9.346  1.9255 -0.3887  0.1731
  945MOL0     C27506   7.690   8.088   9.377 -0.9489  0.6683 -0.9454
  945MOL0     C27507   7.710   8.111   9.533  0.2720  0.1964  0.6383
  945MOL0     H27508   7.889   8.567   9.362 -1.4963 -3.1545 -0.5051
  945MOL0     H27509   8.095   8.708   9.378 -3.1118 -0.6963  0.0417
  945MOL0     H27510   8.452   8.607   9.191 -2.0381  0.5879  2.6806
  945MOL0     H27511   8.405   8.677   9.033  1.0023 -0.1697 -0.0053
  945MOL0     H27512   8.450   8.899   9.100 -0.9249 -1.7605 -0.5302
  945MOL0     H27513   8.582   8.793   9.064 -1.5593  1.9274 -2.5378
  945MOL0     H27514   8.515   8.855   9.361 -1.8628  1.1837 -1.8414
  945MOL0     H27515   8.639   8.927   9.248  0.4061 -0.6461 -2.9150
  945MOL0     H27516   8.620   8.634   9.333  1.4707  0.2077  2.8649
  945MOL0     H27517   8.730   8.697   9.211 -1.2181 -3.4882 -0.3285
  945MOL0     H27518   8.843   8.663   9.411 -2.1812 -2.1118  0.3579
  945MOL0     H27519   8.848   8.840   9.376  3.3406 -2.3395 -0.5233
  945MOL0     H27520   8.697   8.888   9.548  0.6705  0.4214  3.1457
  945MOL0     H27521   8.660   8.714   9.571 -0.0645  0.6121 -0.5357
  945MOL0     H27522   8.776   8.799   9.746 -1.4995 -0.0928 -0.6197
  945MOL0     H27523   8.904   8.880   9.661 -1.4584  1.2071  0.8537
  945MOL0     H27524   8.969   8.660   9.773  1.4501  0.3664 -0.3170
  945MOL0     H27525   8.897   8.580   9.639 -3.3939  3.5598 -1.5051
  945MOL0     H27526   9.025   8.577   9.405 -2.2235  1.2152 -0.5397
  945MOL0     H27527   9.223   8.634   9.223  1.4458 -1.5652  1.9945
  945MOL0     H27528   9.260   8.809   9.246 -4.1839 -0.9247 -0.4621
  945MOL0     H27529   9.468   8.772   9.356  1.3104 -1.4908  1.4427
  945MOL0     H27530   9.436   8.600   9.373 -2.6911 -0.4668  0.2510
  945MOL0     H27531   9.462   8.760   9.121  0.1290  0.1025  0.1390
  945MOL0     H27532   9.460   8.581   9.121 -0.6473  0.1469  0.8204
  945MOL0     H27533   9.674   8.571   9.262 -1.5206  0.2215  1.2433
  945MOL0     H27534   9.663   8.742   9.265 -0.7087  0.1567 -1.1555
  945MOL0     H27535   9.878   8.887   9.053  0.4372  0.3035  0.2457
  945MOL0     H27536  10.113   8.881   9.091 -0.5451 -0.6004 -0.4446
  945MOL0     H27537  10.594   8.721   9.018 -0.3184 -0.7453 -0.0214
  945MOL0     H27538  10.815   8.769   9.154 -1.0368 -2.3812  0.7771
  945MOL0     H27539  10.760   9.114   9.467 -1.4280 -1.2943  2.8358
  945MOL0     H27540  10.766   8.957   9.552  0.7993 -0.4376  1.1995
  945MOL0     H27541  11.002   9.071   9.397 -0.7175  2.7013  0.9657
  945MOL0     H27542  10.969   9.151   9.547 -2.8868  0.8895 -0.3015
  945MOL0     H27543  10.968   8.902   9.628 -1.7052  0.4546 -1.6311
  945MOL0     H27544  11.096   8.888   9.504  1.1171  2.8656 -0.7882
  945MOL0     H27545  11.180   8.962   9.747  0.9576  2.0696  1.6905
  945MOL0     H27546  11.099   9.104   9.715 -2.6682 -0.8788 -0.1628
  945MOL0     H27547  11.343   9.118   9.666  0.4665 -1.3058  0.3785
  945MOL0     H27548  11.263   9.132   9.507 -0.1180 -2.2724 -1.8294
  945MOL0     H27549  11.342   8.892   9.460  2.3715 -0.3422 -0.3321
  945MOL0     H27550  11.470   8.996   9.509 -1.3170  1.2335 -2.1386
  945MOL0     H27551  11.352   8.801   9.727 -2.2957  1.4064 -0.9598
  945MOL0     H27552  11.488   8.910   9.737 -2.1723 -2.4660  2.9450
  945MOL0     H27553  11.495   8.725   9.502 -0.7484  2.2915  0.9856
  945MOL0     H27554  11.622   8.771   9.593  0.1492 -1.6183 -3.3649
  945MOL0     H27555  10.569   8.993   9.417  1.9629 -0.9610 -0.3468
  945MOL0     H27556  10.364   8.938   9.287  0.9427  1.1157  1.0783
  945MOL0     H27557  10.101   8.461   9.119  1.6672  0.9982 -0.1260
  945MOL0     H27558   9.857   8.461   9.069 -1.1844  1.5733 -0.5491
  945MOL0     H27559   8.272   8.501   9.044  0.4868  1.5524  1.1533
  945MOL0     H27560   8.111   8.321   9.084 -0.4407  0.4411 -2.4073
  945MOL0     H27561   7.780   8.160   9.055 -1.4462  0.2895 -1.4213
  945MOL0     H27562   7.594   8.004   9.010 -0.1741 -0.1160 -0.8087
  945MOL0     H27563   7.436   7.786   9.013  1.1417 -0.8394  1.2992
  945MOL0     H27564   7.365   7.939   9.047 -0.9724 -0.0046 -1.1793
  945MOL0     H27565   7.156   7.821   9.058 -1.8481 -1.2399  1.5674
  945MOL0     H27566   7.197   7.814   9.209 -1.7632  5.5645 -2.1861
  945MOL0     H27567   7.254   7.591   8.993  1.2696 -2.9416  0.8367
  945MOL0     H27568   7.128   7.575   9.099  0.9301 -2.6541  0.3415
  945MOL0     H27569   7.342   7.445   9.150  2.2017 -0.6876  2.2590
  945MOL0     H27570   7.423   7.593   9.192 -0.2492  0.1179  1.0981
  945MOL0     H27571   7.152   7.470   9.511 -0.0243 -1.2854 -0.5819
  945MOL0     H27572   7.541   7.955   9.432 -0.5833 -1.3310 -1.6875
  945MOL0     H27573   7.719   8.216   9.562 -2.2248  0.4187  0.7998
  945MOL0     H27574   7.618   8.082   9.584  0.0914 -1.4360 -0.5433
  945MOL0     H27575   7.792   8.052   9.574  0.0518 -0.6664 -0.1303
  946MOL0     O27576   5.188   0.528   5.385  0.0203  0.1503 -0.4612
  946MOL0     C27577   5.192   0.582   5.279  0.2569  0.1596  0.1725
  946MOL0     O27578   5.297   0.586   5.190  0.1854 -0.3070  0.3163
  946MOL0     C27579   5.412   0.526   5.241 -0.1606  0.5484 -0.4264
  946MOL0     C27580   5.432   0.390   5.222 -0.2267  0.7464  0.2834
  946MOL0     C27581   5.549   0.332   5.260 -0.2058  0.0476  0.5413
  946MOL0     C27582   5.662   0.399   5.315  0.6941  0.3156  0.6817
  946MOL0     O27583   5.780   0.343   5.330  0.3087  0.6272 -0.3856
  946MOL0     C27584   5.845   0.353   5.459 -0.0426  0.5950 -0.0943
  946MOL0     C27585   6.000   0.324   5.455  1.1832 -0.0239 -0.1526
  946MOL0     C27586   6.054   0.364   5.589 -1.0181 -0.1942 -0.5728
  946MOL0     C27587   6.210   0.375   5.588 -1.0064  0.1157 -0.0454
  946MOL0     C27588   6.284   0.257   5.543 -0.2583 -0.9405  0.0693
  946MOL0     C27589   6.428   0.251   5.604 -0.0626 -0.0715 -0.1406
  946MOL0     C27590   6.529   0.162   5.525 -0.0100  0.0938 -0.5236
  946MOL0     C27591   6.482   0.022   5.480 -0.4725  0.6984 -0.6583
  946MOL0     N27592   6.590  -0.056   5.408 -0.1642  0.1651 -0.0151
  946MOL0     C27593   6.653  -0.025   5.288 -0.5542 -0.4563  0.0796
  946MOL0     C27594   6.766  -0.096   5.285 -1.0707 -0.5822  0.5063
  946MOL0     C27595   6.879  -0.073   5.192  0.1531  0.1067  0.4350
  946MOL0     C27596   7.009  -0.023   5.248 -0.3553 -0.2412  0.5101
  946MOL0     C27597   7.121   0.007   5.151  0.2071 -0.2355  0.1957
  946MOL0     C27598   7.232   0.094   5.209  0.2159 -0.0467 -0.0635
  946MOL0     O27599   7.199   0.239   5.204  0.2630  0.3344 -0.3680
  946MOL0     C27600   7.302   0.335   5.193 -0.0444  0.8625  0.7385
  946MOL0     C27601   7.438   0.311   5.229 -0.8684  0.3382  0.3806
  946MOL0     C27602   7.524   0.417   5.215 -0.7054 -0.3741 -0.4055
  946MOL0     C27603   7.474   0.544   5.179 -0.5018 -0.7421 -0.8216
  946MOL0     C27604   7.566   0.660   5.190 -0.5083 -1.3060 -0.1501
  946MOL0     O27605   7.508   0.786   5.155  0.6626  0.1819 -0.6401
  946MOL0     C27606   7.595   0.890   5.149 -0.7762  0.6682 -1.0982
  946MOL0     C27607   7.701   0.892   5.050  0.6978  0.1619 -0.2149
  946MOL0     C27608   7.783   1.002   5.046  0.1092  0.3667 -0.0334
  946MOL0     C27609   7.754   1.113   5.124 -0.9914 -0.0960  0.4503
  946MOL0     O27610   7.813   1.235   5.113 -0.2716  0.5356  0.1433
  946MOL0     C27611   7.881   1.269   4.995  0.1534 -0.2655  0.3408
  946MOL0     C27612   7.963   1.397   5.031  0.0027 -0.1700 -0.9963
  946MOL0     C27613   8.036   1.454   4.903 -0.2433 -0.2267  0.3754
  946MOL0     C27614   8.168   1.375   4.878  0.5140  0.1114 -0.5694
  946MOL0     C27615   8.235   1.419   4.743  0.9339 -0.1814 -0.1894
  946MOL0     C27616   8.288   1.563   4.732  0.6207  0.3118  0.6547
  946MOL0     C27617   8.379   1.618   4.837 -0.1754  0.3929  0.1823
  946MOL0     C27618   8.512   1.544   4.829  0.5804  1.0522 -0.6440
  946MOL0    Cl27619   8.594   1.598   4.683 -0.7049  0.4441 -0.0734
  946MOL0     C27620   7.653   1.111   5.221  0.0748  0.2874 -0.2477
  946MOL0     C27621   7.571   1.001   5.230 -0.3138  0.4677 -0.0566
  946MOL0     O27622   7.689   0.638   5.207  0.3597  0.1904  0.5597
  946MOL0     C27623   7.342   0.563   5.153  0.0000  0.2051  0.6146
  946MOL0     C27624   7.252   0.452   5.147 -0.3450 -0.8039 -0.3069
  946MOL0     N27625   6.770  -0.173   5.404 -0.3660  0.3012  0.5162
  946MOL0     N27626   6.666  -0.147   5.473  1.0402 -0.4154 -0.5751
  946MOL0     C27627   5.637   0.535   5.347 -0.2247  0.0510  1.3594
  946MOL0     C27628   5.511   0.595   5.309  0.6271 -0.3644 -0.6467
  946MOL0     C27629   5.072   0.660   5.235 -0.0514  0.3732  0.0543
  946MOL0     C27630   5.046   0.654   5.094 -0.4196  0.2564 -0.8671
  946MOL0     C27631   4.921   0.697   5.041 -0.0908  0.3269  0.0831
  946MOL0     C27632   4.831   0.768   5.127 -0.6075 -0.0838  0.7906
  946MOL0     O27633   4.721   0.817   5.064 -0.0125 -0.3218 -0.7817
  946MOL0     C27634   4.638   0.916   5.127 -0.0715  0.2230 -0.3995
  946MOL0     C27635   4.538   0.969   5.014  0.2075 -0.5576  0.0116
  946MOL0     C27636   4.398   0.931   5.062  0.8613  0.1804 -0.3723
  946MOL0     C27637   4.290   1.016   4.997  0.5748 -0.0891 -0.8406
  946MOL0     C27638   4.267   0.984   4.860 -0.0153  2.1682  0.1750
  946MOL0     C27639   4.239   0.953   4.742  0.0792  0.0736  0.0818
  946MOL0     C27640   4.864   0.792   5.262  0.6276 -0.2590  0.3201
  946MOL0     C27641   4.981   0.735   5.316 -0.2778  0.1424 -0.6875
  946MOL0     C27642   5.008   0.750   5.461  0.4014  0.6139  0.1593
  946MOL0     H27643   5.355   0.329   5.176  0.3881 -0.8803  1.3204
  946MOL0     H27644   5.563   0.229   5.227 -3.3697 -0.2905 -0.0520
  946MOL0     H27645   5.828   0.455   5.495 -0.4462  0.5498 -0.1464
  946MOL0     H27646   5.797   0.274   5.517 -0.4375  0.5543 -0.4649
  946MOL0     H27647   6.044   0.380   5.371 -0.2543 -1.2210 -1.7785
  946MOL0     H27648   6.023   0.218   5.437 -2.0775 -0.9117  0.3547
  946MOL0     H27649   6.027   0.285   5.658  1.9686 -0.3241  0.5934
  946MOL0     H27650   6.013   0.454   5.636  1.1016  0.7618 -0.4493
  946MOL0     H27651   6.236   0.470   5.542 -2.3604  0.1195 -0.8497
  946MOL0     H27652   6.239   0.382   5.694  0.7779 -2.9462 -0.1960
  946MOL0     H27653   6.228   0.167   5.569 -0.2814 -0.8635  0.2908
  946MOL0     H27654   6.277   0.260   5.434  0.0543 -2.0048  0.0084
  946MOL0     H27655   6.471   0.351   5.610  0.3214 -0.2620  0.2874
  946MOL0     H27656   6.404   0.219   5.706 -3.0542  2.6219  0.1420
  946MOL0     H27657   6.621   0.152   5.582 -0.5088 -2.0342  0.0281
  946MOL0     H27658   6.562   0.216   5.435 -4.6168  3.6464 -0.4710
  946MOL0     H27659   6.445  -0.033   5.567 -0.2746  0.0361 -0.9847
  946MOL0     H27660   6.394   0.029   5.415 -2.3909  1.1098  1.8583
  946MOL0     H27661   6.631   0.053   5.215  1.2854 -1.5643 -1.7653
  946MOL0     H27662   6.904  -0.165   5.138  1.1182  0.4878  0.2117
  946MOL0     H27663   6.846  -0.010   5.109 -1.2320  0.8262  1.4988
  946MOL0     H27664   6.982   0.074   5.291 -0.7919 -0.8178  1.5664
  946MOL0     H27665   7.046  -0.085   5.330  0.8768 -1.2014 -0.7096
  946MOL0     H27666   7.082   0.061   5.064  1.6317 -0.5437 -0.6782
  946MOL0     H27667   7.175  -0.081   5.115  2.0610  0.6699  0.6090
  946MOL0     H27668   7.325   0.081   5.154 -0.8326  1.1133 -2.2563
  946MOL0     H27669   7.256   0.071   5.314 -1.8003  2.0732  0.9633
  946MOL0     H27670   7.467   0.210   5.257 -1.0803  0.1808  0.0463
  946MOL0     H27671   7.629   0.403   5.240 -0.4769 -2.6157 -2.2330
  946MOL0     H27672   7.740   0.803   5.003  0.8992 -0.0320  0.3095
  946MOL0     H27673   7.868   0.999   4.979  1.1742 -0.6082  1.3227
  946MOL0     H27674   7.959   1.194   4.978  1.9051  0.7646  3.1430
  946MOL0     H27675   7.815   1.285   4.910  2.4986 -0.8840 -1.6990
  946MOL0     H27676   7.898   1.479   5.062  0.0749  0.5655 -2.6694
  946MOL0     H27677   8.039   1.380   5.108  1.0381 -0.6750 -2.0738
  946MOL0     H27678   7.974   1.451   4.813 -2.6179 -0.0355  1.9030
  946MOL0     H27679   8.059   1.560   4.918  0.9802 -0.0297 -2.4476
  946MOL0     H27680   8.150   1.268   4.877  0.4686  0.1204 -0.7212
  946MOL0     H27681   8.237   1.382   4.963 -1.1052 -2.8537  1.1588
  946MOL0     H27682   8.175   1.393   4.655  2.1605 -4.0470 -0.0433
  946MOL0     H27683   8.317   1.348   4.732  0.1008 -1.5453  1.8774
  946MOL0     H27684   8.334   1.575   4.634 -0.6472 -0.8838 -0.1295
  946MOL0     H27685   8.200   1.628   4.729  0.7156  0.4000 -1.0218
  946MOL0     H27686   8.340   1.595   4.936  0.3628  0.8381  0.5053
  946MOL0     H27687   8.395   1.726   4.824  0.9952  0.0505 -1.6752
  946MOL0     H27688   8.572   1.555   4.920 -2.5976  1.1844  1.6036
  946MOL0     H27689   8.492   1.438   4.811 -0.4335  0.9499  0.8984
  946MOL0     H27690   7.642   1.196   5.287 -0.8497  0.6437 -0.8397
  946MOL0     H27691   7.481   0.986   5.289 -0.6192  1.6591 -0.1953
  946MOL0     H27692   7.303   0.658   5.118  0.9084 -0.4656 -2.4910
  946MOL0     H27693   7.151   0.467   5.112 -0.0296 -0.9838 -1.3355
  946MOL0     H27694   5.714   0.591   5.400  0.0755 -2.2205  3.5229
  946MOL0     H27695   5.496   0.702   5.327 -3.8910 -1.1158  1.7953
  946MOL0     H27696   5.116   0.604   5.028  0.7293  0.3777  0.2324
  946MOL0     H27697   4.893   0.671   4.939  1.1160 -1.6913  0.2052
  946MOL0     H27698   4.710   0.994   5.154  1.5586 -0.1382 -3.3678
  946MOL0     H27699   4.591   0.875   5.217  2.0638 -1.3057  0.0862
  946MOL0     H27700   4.554   0.914   4.921  0.2258 -1.2505  0.4185
  946MOL0     H27701   4.543   1.078   5.015 -3.9819 -0.2033 -0.4436
  946MOL0     H27702   4.395   0.938   5.171 -1.2840  0.9707 -0.4238
  946MOL0     H27703   4.386   0.824   5.045  2.2669 -0.6927  3.1133
  946MOL0     H27704   4.195   0.995   5.047  0.6716 -1.0147 -1.0317
  946MOL0     H27705   4.311   1.122   5.014  2.0050 -0.4381 -0.2863
  946MOL0     H27706   4.205   0.937   4.642 -4.1754  1.6631  1.0904
  946MOL0     H27707   4.807   0.867   5.316 -0.4282 -0.3205 -0.6735
  946MOL0     H27708   5.113   0.782   5.461  0.7557 -0.4797  1.1172
  946MOL0     H27709   4.941   0.823   5.508  1.2881  1.5652 -0.0215
  946MOL0     H27710   4.998   0.656   5.517 -4.2562  1.4712  1.1558
  947MOL0     O27711   5.167  10.486  11.134 -0.6134 -0.0321 -0.3336
  947MOL0     C27712   5.138  10.597  11.087  0.3392  0.5595 -0.0186
  947MOL0     O27713   5.210  10.708  11.073 -0.5921 -0.4060  0.4180
  947MOL0     C27714   5.346  10.694  11.082 -0.1317  0.3553  0.2810
  947MOL0     C27715   5.418  10.653  10.970  0.6485  0.2109 -0.0882
  947MOL0     C27716   5.558  10.643  10.960  0.1407 -0.6596 -1.0468
  947MOL0     C27717   5.626  10.685  11.068  0.0676  0.2042 -0.5582
  947MOL0     O27718   5.759  10.706  11.082 -1.0217  0.3456 -0.3486
  947MOL0     C27719   5.841  10.681  10.962 -0.3823  0.0163 -0.0929
  947MOL0     C27720   5.988  10.712  11.001  0.7207 -0.6714  0.4905
  947MOL0     C27721   6.052  10.630  11.106 -0.3602  0.7669  0.2788
  947MOL0     C27722   6.200  10.661  11.129  0.1303  0.3485  0.3062
  947MOL0     C27723   6.266  10.554  11.210 -0.1598  0.2868 -0.8574
  947MOL0     C27724   6.407  10.585  11.259  0.0154 -0.8620 -0.3340
  947MOL0     C27725   6.474  10.471  11.347  0.1774 -0.2875  0.3035
  947MOL0     C27726   6.602  10.533  11.399  0.6843  0.1459  0.8102
  947MOL0     N27727   6.631  10.497  11.541 -0.2076 -0.2315 -0.2212
  947MOL0     C27728   6.714  10.401  11.587  0.1327  0.4223 -0.1099
  947MOL0     C27729   6.726  10.427  11.721  0.2640 -0.3927 -0.1264
  947MOL0     C27730   6.818  10.361  11.829  0.8146 -1.0180  0.6086
  947MOL0     C27731   6.972  10.361  11.787  0.2367  0.1287 -1.0745
  947MOL0     C27732   7.061  10.338  11.907  0.4942 -0.7077  0.5521
  947MOL0     C27733   7.205  10.369  11.879  0.6119  0.0471 -0.7359
  947MOL0     O27734   7.280  10.256  11.829 -0.0296 -0.3701 -0.0910
  947MOL0     C27735   7.403  10.229  11.880 -0.7939  0.2564 -0.2569
  947MOL0     C27736   7.448  10.095  11.880  0.1278 -0.5205  0.3532
  947MOL0     C27737   7.577  10.067  11.920 -1.0108 -0.1311 -0.1728
  947MOL0     C27738   7.675  10.170  11.948  0.2682 -0.0502 -0.6199
  947MOL0     C27739   7.814  10.139  12.002  0.8817 -0.7511  0.4098
  947MOL0     O27740   7.881  10.237  12.075  0.3364  0.1000  0.6471
  947MOL0     C27741   8.016  10.244  12.079  0.1785 -0.1865 -0.0775
  947MOL0     C27742   8.099  10.141  12.136 -0.2989 -0.2913  1.0395
  947MOL0     C27743   8.239  10.161  12.148 -0.5713 -0.3594 -0.4288
  947MOL0     C27744   8.299  10.272  12.090 -0.2487 -0.0443  0.7955
  947MOL0     O27745   8.433  10.297  12.074  0.6448 -0.5569 -0.9342
  947MOL0     C27746   8.518  10.182  12.087 -0.7747 -0.0897  0.6259
  947MOL0     C27747   8.665  10.225  12.058 -1.2395  0.5554 -1.0566
  947MOL0     C27748   8.774  10.132  12.109  0.2732 -0.3658 -0.2563
  947MOL0     C27749   8.769  10.007  12.020 -0.6127 -0.0827  0.2538
  947MOL0     C27750   8.883   9.903  12.046  0.4069  0.0554  0.5373
  947MOL0     C27751   8.915   9.839  11.914  0.1139  0.3746 -0.1949
  947MOL0     C27752   8.978   9.702  11.926  0.2569 -0.6162  1.0438
  947MOL0     C27753   9.011   9.635  11.783 -0.1003  0.3875 -0.9593
  947MOL0    Cl27754   9.192   9.650  11.764  0.3707  0.2915  0.1910
  947MOL0     C27755   8.218  10.369  12.037  0.3503  0.3121 -0.2439
  947MOL0     C27756   8.080  10.355  12.027 -0.3281  1.7258 -0.0460
  947MOL0     O27757   7.857  10.028  11.978 -1.0513  0.1306  0.7582
  947MOL0     C27758   7.628  10.303  11.953 -0.8077  0.5100 -0.5491
  947MOL0     C27759   7.494  10.332  11.922 -0.1255 -0.8903 -0.4708
  947MOL0     N27760   6.652  10.531  11.756 -0.2223 -0.5911 -0.1044
  947MOL0     N27761   6.601  10.581  11.647 -0.2451 -0.1711 -0.5222
  947MOL0     C27762   5.556  10.723  11.183  0.2922 -0.3875  0.0556
  947MOL0     C27763   5.411  10.722  11.193 -0.4132  0.4602  0.5170
  947MOL0     C27764   5.002  10.609  11.048 -0.5524 -0.0468  0.1799
  947MOL0     C27765   4.924  10.702  11.114  0.6659 -0.7587  0.0869
  947MOL0     C27766   4.785  10.713  11.092  0.5284  0.8031  0.4251
  947MOL0     C27767   4.727  10.623  11.010  1.4134 -0.4416 -0.0852
  947MOL0     O27768   4.597  10.640  10.985 -0.1163  0.1304  0.1179
  947MOL0     C27769   4.515  10.585  11.090  0.3714  0.1402 -0.0681
  947MOL0     C27770   4.512  10.431  11.084  0.7485 -0.7370 -0.7049
  947MOL0     C27771   4.415  10.402  10.973  0.2102  0.1172  0.9602
  947MOL0     C27772   4.380  10.258  10.964  0.5262  0.0830 -0.4881
  947MOL0     C27773   4.322  10.251  10.840 -0.3083  0.4062 -0.8590
  947MOL0     C27774   4.265  10.239  10.733  0.1509 -0.0515  0.3233
  947MOL0     C27775   4.798  10.527  10.945 -0.4017 -0.2508 -0.2838
  947MOL0     C27776   4.939  10.518  10.958 -0.2242  0.5584 -0.0228
  947MOL0     C27777   5.026  10.430  10.873  1.0171 -0.4632  0.2767
  947MOL0     H27778   5.362  10.633  10.880  2.3146 -1.3110 -0.8347
  947MOL0     H27779   5.606  10.620  10.866  3.8908  0.3350  0.4569
  947MOL0     H27780   5.827  10.578  10.930 -0.9338 -0.2106  0.8195
  947MOL0     H27781   5.823  10.749  10.878  1.8851  1.2166  0.3000
  947MOL0     H27782   5.983  10.814  11.041 -2.1330 -0.2912 -0.5865
  947MOL0     H27783   6.043  10.697  10.907 -0.1840 -2.2624  0.1705
  947MOL0     H27784   6.040  10.523  11.085  1.8553  0.5118  0.0661
  947MOL0     H27785   6.005  10.645  11.204 -1.4368 -0.9144  0.0656
  947MOL0     H27786   6.246  10.661  11.029  2.2331  1.3131  1.2279
  947MOL0     H27787   6.209  10.761  11.173 -0.7167  0.8482 -0.5977
  947MOL0     H27788   6.199  10.533  11.294 -0.3416  2.6930 -0.3341
  947MOL0     H27789   6.272  10.465  11.147  0.6976 -0.4231  0.1900
  947MOL0     H27790   6.478  10.611  11.180  1.2258  1.2481  1.3369
  947MOL0     H27791   6.397  10.685  11.303  1.7873 -0.2474 -1.2475
  947MOL0     H27792   6.492  10.376  11.295 -0.3935 -2.4691  3.7605
  947MOL0     H27793   6.406  10.445  11.429 -1.5627 -0.1600 -1.0490
  947MOL0     H27794   6.691  10.495  11.347 -0.2317 -2.5204  1.0461
  947MOL0     H27795   6.598  10.640  11.376  1.8088 -0.0817 -0.6361
  947MOL0     H27796   6.758  10.321  11.528 -2.5758 -2.7269  1.7357
  947MOL0     H27797   6.797  10.404  11.927  3.3687 -3.1406  2.2212
  947MOL0     H27798   6.778  10.259  11.832 -1.9072 -0.0155  2.2524
  947MOL0     H27799   6.984  10.278  11.716 -1.3490 -2.5860  1.5670
  947MOL0     H27800   6.997  10.462  11.754  0.9633  0.4387  0.3796
  947MOL0     H27801   7.044  10.237  11.945  2.0293 -0.6931  1.3499
  947MOL0     H27802   7.027  10.397  11.992 -1.9257  1.1538 -1.5602
  947MOL0     H27803   7.235  10.388  11.982 -2.5209 -1.7010  0.6515
  947MOL0     H27804   7.224  10.460  11.820  2.2434 -0.2015 -0.6387
  947MOL0     H27805   7.391  10.010  11.843 -0.7082  1.0037 -2.0999
  947MOL0     H27806   7.616   9.967  11.931 -1.3945 -0.4417 -1.4353
  947MOL0     H27807   8.048  10.052  12.170  1.1329 -1.3165  0.5970
  947MOL0     H27808   8.289  10.080  12.199 -0.1393  0.9229  1.2960
  947MOL0     H27809   8.523  10.144  12.190  2.5382 -2.8440 -0.3472
  947MOL0     H27810   8.484  10.105  12.018 -2.1161  0.0274  1.1290
  947MOL0     H27811   8.670  10.246  11.951 -1.0800 -2.3217 -1.7124
  947MOL0     H27812   8.683  10.322  12.104  0.3458 -0.0260 -0.3782
  947MOL0     H27813   8.868  10.187  12.106  0.8357 -0.9878  2.7497
  947MOL0     H27814   8.750  10.121  12.215  0.8912  0.1493 -0.0549
  947MOL0     H27815   8.767  10.055  11.923 -1.1516  1.8003  1.1542
  947MOL0     H27816   8.674   9.952  12.031  0.4579 -2.2772 -0.8130
  947MOL0     H27817   8.840   9.839  12.123  3.3335  2.2584  4.3917
  947MOL0     H27818   8.971   9.946  12.095  1.6731 -4.6821  3.0434
  947MOL0     H27819   8.831   9.833  11.843  1.0574 -1.5211 -1.2259
  947MOL0     H27820   8.999   9.885  11.862 -0.7342  0.5007 -1.4871
  947MOL0     H27821   8.919   9.639  11.993  0.2919 -0.7480  0.9494
  947MOL0     H27822   9.072   9.716  11.982  0.8757  2.0142 -0.4802
  947MOL0     H27823   9.001   9.527  11.799 -0.1851  0.2228 -2.0539
  947MOL0     H27824   8.956   9.671  11.695 -1.6074 -1.3992 -0.8067
  947MOL0     H27825   8.270  10.457  12.001  0.8074 -1.1553 -3.4807
  947MOL0     H27826   8.011  10.425  11.981 -4.7535 -2.4982 -0.6923
  947MOL0     H27827   7.690  10.389  11.977  2.3778 -2.0231  1.0541
  947MOL0     H27828   7.460  10.435  11.919 -0.9237 -1.1310  0.0585
  947MOL0     H27829   5.620  10.753  11.265 -0.3884 -2.3888  1.3884
  947MOL0     H27830   5.357  10.754  11.282  1.3939  1.4666  1.3112
  947MOL0     H27831   4.967  10.775  11.182 -1.6232 -0.3972  1.2513
  947MOL0     H27832   4.726  10.795  11.132 -3.5249 -1.3183 -0.6754
  947MOL0     H27833   4.413  10.622  11.077 -0.3503 -1.0252  1.8045
  947MOL0     H27834   4.552  10.618  11.188  2.7318  1.3138 -1.2856
  947MOL0     H27835   4.470  10.389  11.177 -0.9471  1.1288 -0.5703
  947MOL0     H27836   4.610  10.384  11.079  0.6432 -0.9207 -1.0917
  947MOL0     H27837   4.465  10.425  10.879 -0.8240  3.1124  1.0278
  947MOL0     H27838   4.323  10.460  10.982 -1.1231 -1.8892  0.9531
  947MOL0     H27839   4.459  10.183  10.970 -2.3913 -3.3347 -1.5829
  947MOL0     H27840   4.293  10.229  11.023 -1.4317  2.6538 -1.8749
  947MOL0     H27841   4.219  10.238  10.636 -0.9367 -1.7363  0.8234
  947MOL0     H27842   4.751  10.460  10.873  0.3867  1.1019 -2.1234
  947MOL0     H27843   5.056  10.486  10.784 -0.6275 -1.9159 -1.2494
  947MOL0     H27844   5.118  10.405  10.926  2.3404  3.8394  0.4209
  947MOL0     H27845   4.973  10.337  10.853 -0.3062  0.2741  0.1962
  948MOL0     O27846   8.908  10.553   0.133  0.3228 -0.0554  0.4222
  948MOL0     C27847   8.891  10.549   0.014 -0.3265 -0.1932  0.9665
  948MOL0     O27848   8.975  10.597  -0.079  0.4453  0.6286 -0.0343
  948MOL0     C27849   9.105  10.594  -0.056 -0.4545 -0.3428 -0.0730
  948MOL0     C27850   9.167  10.499   0.034 -0.2318  0.1219 -0.4372
  948MOL0     C27851   9.310  10.512   0.055  0.1947 -0.1576 -0.0112
  948MOL0     C27852   9.379  10.619   0.002 -0.1157 -0.0550  0.3412
  948MOL0     O27853   9.515  10.636   0.017 -0.8736 -0.9622  0.1293
  948MOL0     C27854   9.578  10.611   0.145  0.8226 -0.6456  0.0626
  948MOL0     C27855   9.546  10.727   0.238 -0.3580 -0.0482  0.0830
  948MOL0     C27856   9.605  10.860   0.182 -0.2001 -1.2111 -0.4284
  948MOL0     C27857   9.744  10.886   0.241  0.0625 -0.2922 -0.1334
  948MOL0     C27858   9.844  10.936   0.129 -0.0600  0.2825 -0.9929
  948MOL0     C27859   9.993  10.931   0.167 -0.6733 -0.0835 -0.7400
  948MOL0     C27860  10.041  11.015   0.280 -0.7360 -0.3211 -0.3989
  948MOL0     C27861  10.186  10.982   0.323 -0.2343  0.4152  0.0417
  948MOL0     N27862  10.293  11.000   0.215  0.9067  1.4020 -0.9802
  948MOL0     C27863  10.336  10.885   0.143  0.4378 -0.6691 -0.8190
  948MOL0     C27864  10.423  10.953   0.062 -0.2570 -0.4130  0.0941
  948MOL0     C27865  10.491  10.884  -0.053  0.1888  0.0757  0.0446
  948MOL0     C27866  10.602  10.790  -0.002 -0.1455 -0.3856  0.0425
  948MOL0     C27867  10.698  10.758  -0.120 -0.5561  0.4520  0.1875
  948MOL0     C27868  10.715  10.601  -0.111 -0.1651 -0.3900  0.2199
  948MOL0     O27869  10.772  10.552   0.008 -0.4210  0.2442  0.0839
  948MOL0     C27870  10.895  10.483   0.002  0.0135  0.1034  0.0542
  948MOL0     C27871  10.922  10.369   0.092 -0.0589  1.0145  0.2214
  948MOL0     C27872  11.046  10.306   0.099  0.6131 -0.3398  0.1674
  948MOL0     C27873  11.141  10.340   0.001 -0.2798 -0.6891  0.0077
  948MOL0     C27874  11.266  10.266   0.017  0.1839 -0.1286 -0.4682
  948MOL0     O27875  11.260  10.148   0.086 -1.0098  0.9471  0.0499
  948MOL0     C27876  11.384  10.081   0.101 -0.5968  0.1506  0.7151
  948MOL0     C27877  11.405  10.025   0.224  0.3139  0.7458 -0.3089
  948MOL0     C27878  11.508   9.927   0.252  0.6292 -0.0101  0.0535
  948MOL0     C27879  11.599   9.898   0.139  0.6157 -0.9315  0.5381
  948MOL0     O27880  11.717   9.823   0.146 -0.0221 -0.6498  0.6667
  948MOL0     C27881  11.794   9.829   0.263  0.3915  0.5284 -0.6700
  948MOL0     C27882  11.935   9.796   0.231 -0.3678 -0.0079  0.6065
  948MOL0     C27883  11.941   9.649   0.199 -0.5530 -0.2184 -0.1537
  948MOL0     C27884  12.086   9.618   0.170 -0.0624 -0.4076 -0.0226
  948MOL0     C27885  12.101   9.499   0.076  0.7172 -0.1201 -0.5135
  948MOL0     C27886  12.097   9.364   0.152 -0.2695 -0.0436 -0.3510
  948MOL0     C27887  12.075   9.246   0.055 -0.1729  0.3938 -0.3115
  948MOL0     C27888  11.925   9.198   0.046 -0.5485 -0.6287 -0.0585
  948MOL0    Cl27889  11.831   9.337  -0.013  0.0768  0.1473  0.5965
  948MOL0     C27890  11.574   9.962   0.010 -0.7398  0.1178  0.2044
  948MOL0     C27891  11.466  10.048  -0.010  0.3401  0.0389 -0.3586
  948MOL0     O27892  11.368  10.315  -0.027 -0.3244  0.1216 -0.0473
  948MOL0     C27893  11.122  10.437  -0.090  0.0576 -0.1787 -0.0614
  948MOL0     C27894  11.003  10.522  -0.089  0.1876  0.2335  0.5621
  948MOL0     N27895  10.430  11.093   0.078 -0.6389 -0.1123  0.3111
  948MOL0     N27896  10.343  11.117   0.172  0.5149 -0.2337  0.9758
  948MOL0     C27897   9.318  10.704  -0.086 -0.5895 -0.3233 -0.4009
  948MOL0     C27898   9.181  10.693  -0.123  0.3828 -0.8613 -0.3779
  948MOL0     C27899   8.752  10.506  -0.029 -0.5173 -0.5873 -0.2334
  948MOL0     C27900   8.741  10.449  -0.156  0.2753 -0.2585 -0.6562
  948MOL0     C27901   8.620  10.393  -0.205 -0.7129 -0.0904  0.4733
  948MOL0     C27902   8.508  10.400  -0.128 -0.0339 -0.0560  0.1758
  948MOL0     O27903   8.384  10.361  -0.173 -0.3067  0.0030  0.4012
  948MOL0     C27904   8.352  10.220  -0.169 -0.1167  0.3073  0.0598
  948MOL0     C27905   8.216  10.197  -0.228 -0.7639 -0.7324 -0.5280
  948MOL0     C27906   8.195  10.210  -0.378 -0.3310 -0.5830 -0.4104
  948MOL0     C27907   8.259  10.095  -0.460 -0.6200  0.8610 -0.1956
  948MOL0     C27908   8.406  10.091  -0.461 -0.0484 -0.7300  0.9979
  948MOL0     C27909   8.521  10.097  -0.472 -1.2822  0.5503  0.7286
  948MOL0     C27910   8.515  10.439   0.001  0.6939 -0.0198  0.6220
  948MOL0     C27911   8.635  10.502   0.051  0.2861  0.1091  0.4372
  948MOL0     C27912   8.638  10.540   0.198 -0.2175  0.5298 -0.0914
  948MOL0     H27913   9.111  10.434   0.101 -0.6258  0.8217 -0.0760
  948MOL0     H27914   9.356  10.434   0.114 -2.1055 -1.4521  0.1948
  948MOL0     H27915   9.537  10.519   0.188 -3.6650  1.4922  0.9832
  948MOL0     H27916   9.686  10.596   0.148  0.6955 -1.6952  3.7621
  948MOL0     H27917   9.583  10.708   0.339  3.5729  3.0483 -0.5651
  948MOL0     H27918   9.437  10.732   0.245 -0.4598 -0.6382 -0.8759
  948MOL0     H27919   9.541  10.936   0.229 -2.7730 -3.5712  0.1715
  948MOL0     H27920   9.597  10.870   0.073 -1.5617 -1.1730 -0.3413
  948MOL0     H27921   9.747  10.965   0.317 -2.5918 -0.2254  0.0104
  948MOL0     H27922   9.781  10.797   0.292  0.3681 -0.3856 -0.5149
  948MOL0     H27923   9.825  10.865   0.048  1.0455 -0.9818 -0.1893
  948MOL0     H27924   9.807  11.036   0.106  2.5252  1.6802  0.5210
  948MOL0     H27925   9.994  10.829   0.207 -3.4354 -0.3119 -1.0362
  948MOL0     H27926  10.055  10.933   0.077 -0.3026  0.3816 -0.4768
  948MOL0     H27927   9.981  10.998   0.370 -1.1791 -0.2330 -0.6749
  948MOL0     H27928  10.046  11.121   0.250  3.7340 -0.3826 -0.5081
  948MOL0     H27929  10.206  11.043   0.412 -0.9223 -1.8804  1.8754
  948MOL0     H27930  10.188  10.882   0.368 -1.3520 -0.1944 -1.1980
  948MOL0     H27931  10.295  10.785   0.134 -1.2872 -0.1589  0.7836
  948MOL0     H27932  10.415  10.831  -0.112  1.3112  0.1132 -1.4908
  948MOL0     H27933  10.527  10.952  -0.130 -2.4179  1.0678 -0.4007
  948MOL0     H27934  10.656  10.819   0.089 -2.3712 -1.1312  1.6814
  948MOL0     H27935  10.560  10.694   0.029  3.5358 -2.3654 -0.4855
  948MOL0     H27936  10.791  10.816  -0.119 -0.3162  0.2104 -1.8933
  948MOL0     H27937  10.665  10.777  -0.223  0.0342 -0.0572 -0.1030
  948MOL0     H27938  10.768  10.569  -0.201 -1.7992 -0.0161 -0.9065
  948MOL0     H27939  10.619  10.551  -0.124  0.6633 -3.1404  3.2038
  948MOL0     H27940  10.835  10.345   0.151 -0.5508  3.0142  0.3667
  948MOL0     H27941  11.059  10.240   0.184  5.0213  1.2346  0.9641
  948MOL0     H27942  11.326  10.059   0.290 -1.9675  1.0705 -3.0504
  948MOL0     H27943  11.518   9.889   0.353 -0.0780  0.6319  0.3756
  948MOL0     H27944  11.783   9.927   0.310 -1.0000  0.1170 -0.0760
  948MOL0     H27945  11.760   9.751   0.332  1.5875 -1.5610 -2.3417
  948MOL0     H27946  11.949   9.854   0.140  1.5670  1.9697  2.0539
  948MOL0     H27947  12.003   9.824   0.313  0.3340  0.0208  0.0280
  948MOL0     H27948  11.909   9.582   0.280  0.6818 -4.3437 -2.7334
  948MOL0     H27949  11.874   9.629   0.114  0.5214 -0.3912 -0.9807
  948MOL0     H27950  12.134   9.598   0.266  0.3019 -0.5172 -0.2261
  948MOL0     H27951  12.142   9.703   0.130 -2.6313  1.4459  0.0964
  948MOL0     H27952  12.190   9.519   0.016 -0.3725 -0.9133 -2.5003
  948MOL0     H27953  12.030   9.504  -0.008  1.9278  0.5449 -1.5396
  948MOL0     H27954  12.188   9.345   0.209  0.0355  0.1973 -0.7511
  948MOL0     H27955  12.012   9.360   0.220 -0.7749 -3.7563 -0.9966
  948MOL0     H27956  12.135   9.168   0.101 -0.1373  1.7013  2.0068
  948MOL0     H27957  12.125   9.264  -0.041 -0.0451  2.3962  0.0883
  948MOL0     H27958  11.926   9.110  -0.019 -2.1510  0.3659 -1.5249
  948MOL0     H27959  11.902   9.176   0.151  1.9326  3.1562  1.5149
  948MOL0     H27960  11.638   9.935  -0.074  0.0967 -1.4080  1.2800
  948MOL0     H27961  11.423  10.079  -0.105 -3.2096 -2.7605  0.1431
  948MOL0     H27962  11.211  10.459  -0.149  1.2022  0.1059  1.7123
  948MOL0     H27963  10.986  10.615  -0.142 -1.2295 -1.1814 -1.6100
  948MOL0     H27964   9.384  10.765  -0.148  1.9290 -2.9574 -0.5520
  948MOL0     H27965   9.129  10.745  -0.203 -3.5338 -2.9795  0.5650
  948MOL0     H27966   8.816  10.441  -0.235  0.0739 -2.6937 -0.6731
  948MOL0     H27967   8.611  10.353  -0.305 -3.0721 -4.2093  2.0783
  948MOL0     H27968   8.352  10.186  -0.065  0.7926 -0.5323 -0.2065
  948MOL0     H27969   8.429  10.152  -0.207  1.8105 -0.2950  4.4884
  948MOL0     H27970   8.153  10.273  -0.182 -1.3510 -0.7556 -1.2819
  948MOL0     H27971   8.188  10.098  -0.190  1.9968 -0.8688  1.4103
  948MOL0     H27972   8.238  10.303  -0.416 -0.9699 -0.8790 -1.9611
  948MOL0     H27973   8.088  10.218  -0.399 -0.3330  1.6532  0.1671
  948MOL0     H27974   8.229   9.998  -0.420 -0.5209 -0.3680 -2.8365
  948MOL0     H27975   8.215  10.101  -0.560  0.6424  1.0285 -0.7679
  948MOL0     H27976   8.626  10.114  -0.484 -1.3327  0.6767  0.4416
  948MOL0     H27977   8.430  10.411   0.063  0.1771 -1.2349 -0.5822
  948MOL0     H27978   8.543  10.536   0.253 -0.5009 -0.3401 -0.6262
  948MOL0     H27979   8.706  10.475   0.254 -0.2807 -0.6601 -1.3494
  948MOL0     H27980   8.665  10.645   0.212 -2.0821  1.2408 -1.3887
  949MOL0     O27981   8.819   5.056   0.248 -0.2192 -0.2540 -0.2967
  949MOL0     C27982   8.730   4.983   0.210 -0.0301 -0.6152 -0.0121
  949MOL0     O27983   8.694   4.870   0.281  0.1203 -0.1042 -0.1659
  949MOL0     C27984   8.771   4.813   0.388  0.2765 -0.8494  0.8709
  949MOL0     C27985   8.696   4.723   0.471 -0.5339 -0.0390 -0.3429
  949MOL0     C27986   8.742   4.646   0.581  0.6946  0.4898 -0.0684
  949MOL0     C27987   8.879   4.644   0.593 -1.0093 -0.1953 -0.4838
  949MOL0     O27988   8.926   4.550   0.682 -0.2244 -0.6479  0.8028
  949MOL0     C27989   9.066   4.559   0.727  0.1601  0.1257 -0.1493
  949MOL0     C27990   9.159   4.456   0.657  0.2342  0.2647  0.3428
  949MOL0     C27991   9.279   4.445   0.742 -0.5329 -0.2980 -0.0732
  949MOL0     C27992   9.376   4.334   0.686  0.4905  0.7497  0.2604
  949MOL0     C27993   9.476   4.284   0.783  0.5048  0.1671 -0.8139
  949MOL0     C27994   9.595   4.228   0.707 -0.4941 -0.0014 -0.0851
  949MOL0     C27995   9.708   4.179   0.800 -0.2739 -0.0675 -0.4712
  949MOL0     C27996   9.757   4.278   0.920  0.3365  0.5157  0.2018
  949MOL0     N27997   9.871   4.221   0.996 -0.6011 -0.0243 -0.1135
  949MOL0     C27998   9.855   4.155   1.117 -0.6718  0.0974  0.5444
  949MOL0     C27999   9.972   4.091   1.140 -0.0792  1.2089 -1.9030
  949MOL0     C28000  10.008   3.994   1.249  0.3458 -0.3012 -0.4146
  949MOL0     C28001   9.898   3.879   1.257 -0.4064 -0.2344  1.2985
  949MOL0     C28002   9.929   3.761   1.353 -0.6746 -0.9333 -0.4046
  949MOL0     C28003   9.902   3.801   1.497 -0.0258 -0.2151  0.5511
  949MOL0     O28004   9.757   3.804   1.489  0.2961  0.4416  0.5459
  949MOL0     C28005   9.688   3.821   1.603  0.0096 -0.0299 -0.2031
  949MOL0     C28006   9.740   3.898   1.712 -0.0351 -0.1003  0.4525
  949MOL0     C28007   9.685   3.900   1.837 -1.4131 -0.1928 -0.2200
  949MOL0     C28008   9.575   3.820   1.864  0.1602  1.2317  0.6496
  949MOL0     C28009   9.503   3.815   2.001  0.8235 -0.2490  1.1102
  949MOL0     O28010   9.565   3.857   2.112  0.2105  0.2097  0.0159
  949MOL0     C28011   9.502   3.875   2.226 -0.2104  0.1789 -0.6081
  949MOL0     C28012   9.543   3.798   2.334  1.1534 -0.4914 -0.3154
  949MOL0     C28013   9.481   3.822   2.465  0.1192  0.3686 -0.2603
  949MOL0     C28014   9.377   3.904   2.481 -0.0753  0.4571  0.7673
  949MOL0     O28015   9.326   3.918   2.610  0.3013 -0.3114 -0.8756
  949MOL0     C28016   9.198   3.993   2.615  0.0560  0.0755  0.3862
  949MOL0     C28017   9.131   3.992   2.743  0.4929 -0.2713 -0.6795
  949MOL0     C28018   9.014   4.087   2.749 -0.1890  0.5383 -0.1635
  949MOL0     C28019   8.882   4.037   2.703 -0.2733  0.4279  0.0239
  949MOL0     C28020   8.766   4.121   2.726  0.7608 -0.2745 -0.3008
  949MOL0     C28021   8.649   4.049   2.799 -0.1193  0.3154 -0.5727
  949MOL0     C28022   8.523   4.142   2.785  0.7312 -0.7363 -0.6340
  949MOL0     C28023   8.421   4.118   2.897  0.1016 -0.1434 -0.7794
  949MOL0    Cl28024   8.332   3.971   2.867  0.0547  0.7730  0.2943
  949MOL0     C28025   9.333   3.979   2.367 -0.4380  0.1628  0.2338
  949MOL0     C28026   9.407   3.973   2.250  0.5401  0.5909 -0.6297
  949MOL0     O28027   9.385   3.774   1.993  0.2753  0.0870  0.3102
  949MOL0     C28028   9.524   3.732   1.765  1.2565 -0.9024 -0.2092
  949MOL0     C28029   9.577   3.736   1.635 -0.1585  1.1178  0.1154
  949MOL0     N28030  10.057   4.128   1.043  0.5125 -0.6721  0.1004
  949MOL0     N28031  10.003   4.200   0.958 -0.7957 -0.1803  0.4539
  949MOL0     C28032   8.964   4.726   0.502  0.2213 -0.6250  0.7665
  949MOL0     C28033   8.905   4.828   0.415 -0.3916 -0.9063  0.0333
  949MOL0     C28034   8.652   5.013   0.088  0.7571 -0.2689  0.0157
  949MOL0     C28035   8.553   4.922   0.037 -0.4693 -0.3382  0.8917
  949MOL0     C28036   8.483   4.960  -0.077  0.4669  0.7206 -0.3355
  949MOL0     C28037   8.496   5.080  -0.142  0.1041 -0.1390 -0.3432
  949MOL0     O28038   8.428   5.123  -0.253 -0.2481 -0.1327  0.0539
  949MOL0     C28039   8.283   5.110  -0.241 -0.4368  0.0891 -0.2832
  949MOL0     C28040   8.240   5.065  -0.379 -0.9404  0.5691  0.7150
  949MOL0     C28041   8.095   5.014  -0.366 -0.3930  0.4094  0.1442
  949MOL0     C28042   7.990   5.120  -0.343 -0.5646  0.2834 -0.2119
  949MOL0     C28043   7.857   5.091  -0.409 -0.1386 -0.0982  0.2377
  949MOL0     C28044   7.743   5.075  -0.455 -0.1445  0.4550 -0.1146
  949MOL0     C28045   8.590   5.165  -0.102 -0.6554 -0.1395  0.2536
  949MOL0     C28046   8.665   5.137   0.015  1.4359  0.0641 -0.5004
  949MOL0     C28047   8.762   5.245   0.056 -0.2153  0.2032 -0.8552
  949MOL0     H28048   8.589   4.715   0.460 -0.3466 -2.2966 -1.0665
  949MOL0     H28049   8.668   4.583   0.629  1.4445  1.1254  2.0209
  949MOL0     H28050   9.122   4.653   0.723 -0.5724  0.7701  2.6491
  949MOL0     H28051   9.062   4.545   0.835  1.2230 -0.8471 -0.2172
  949MOL0     H28052   9.189   4.482   0.555  0.5644  0.4214  0.4778
  949MOL0     H28053   9.100   4.365   0.647  0.5992  0.0539  0.0856
  949MOL0     H28054   9.264   4.426   0.849  2.3548  2.1243  0.9240
  949MOL0     H28055   9.337   4.538   0.746  2.1126 -1.9031  1.5301
  949MOL0     H28056   9.321   4.241   0.672  1.8481  0.2437 -2.3883
  949MOL0     H28057   9.412   4.362   0.587  0.5842  0.2768  0.1554
  949MOL0     H28058   9.502   4.371   0.843 -2.7021 -0.8420  2.3478
  949MOL0     H28059   9.437   4.211   0.854 -0.0592  1.6918  0.4888
  949MOL0     H28060   9.554   4.138   0.661  1.0255 -0.9157  0.2886
  949MOL0     H28061   9.633   4.295   0.629 -3.1869  2.4074  0.4712
  949MOL0     H28062   9.794   4.143   0.743  1.4679  1.2018  1.2041
  949MOL0     H28063   9.678   4.090   0.855 -0.9192 -0.3077 -1.1965
  949MOL0     H28064   9.796   4.370   0.873 -0.2770  1.8786  2.2484
  949MOL0     H28065   9.679   4.305   0.991  0.3967 -0.2621  0.5755
  949MOL0     H28066   9.758   4.132   1.159 -2.0482 -1.9267 -3.2426
  949MOL0     H28067  10.102   3.941   1.232 -0.1439 -0.7780 -1.8036
  949MOL0     H28068  10.001   4.046   1.345 -1.4708 -0.7747 -0.2539
  949MOL0     H28069   9.802   3.926   1.278  0.1839  0.3723  2.7882
  949MOL0     H28070   9.883   3.832   1.159  0.5098  0.4975  0.7899
  949MOL0     H28071  10.036   3.739   1.350 -0.2075  1.0538 -0.0676
  949MOL0     H28072   9.869   3.676   1.320 -2.2420  0.0278 -0.1112
  949MOL0     H28073   9.940   3.899   1.526  0.4274 -0.0401 -0.5735
  949MOL0     H28074   9.941   3.726   1.566  0.7115  0.7188  1.1703
  949MOL0     H28075   9.823   3.967   1.698 -2.0014  2.0915 -1.2092
  949MOL0     H28076   9.722   3.966   1.915 -0.0140  0.5741 -1.4954
  949MOL0     H28077   9.616   3.722   2.309  2.0180  0.7722 -1.7967
  949MOL0     H28078   9.527   3.763   2.543 -0.9541 -1.7757 -1.1581
  949MOL0     H28079   9.219   4.097   2.588 -0.6263 -0.4601 -2.5131
  949MOL0     H28080   9.127   3.957   2.540 -0.2252  0.9945  0.2012
  949MOL0     H28081   9.109   3.889   2.772  0.4405  0.2099  1.0517
  949MOL0     H28082   9.205   4.026   2.815  0.6287  0.6045 -1.2230
  949MOL0     H28083   9.009   4.104   2.857 -2.5422  1.9826 -0.4366
  949MOL0     H28084   9.042   4.183   2.705  2.5885  1.7534  3.6690
  949MOL0     H28085   8.870   3.945   2.761 -1.6638  0.4043 -0.2599
  949MOL0     H28086   8.891   4.008   2.598  2.8355 -0.7638  0.5136
  949MOL0     H28087   8.730   4.174   2.637 -0.7400  0.1609  0.5369
  949MOL0     H28088   8.787   4.189   2.808 -3.4905  1.6394 -0.5318
  949MOL0     H28089   8.638   3.946   2.766  1.6669 -0.0850  0.0130
  949MOL0     H28090   8.688   4.037   2.900  2.1030 -0.5154 -1.4829
  949MOL0     H28091   8.469   4.139   2.690 -2.3088  0.3008  0.9232
  949MOL0     H28092   8.554   4.247   2.795  0.1582 -0.5093 -1.1608
  949MOL0     H28093   8.482   4.121   2.987  3.4679 -0.0912 -2.8657
  949MOL0     H28094   8.350   4.201   2.886 -0.1548 -0.2408  0.0795
  949MOL0     H28095   9.250   4.046   2.387 -0.9213 -1.2455  3.6414
  949MOL0     H28096   9.382   4.053   2.182  1.2452  0.5200 -0.9887
  949MOL0     H28097   9.449   3.658   1.792 -1.1124  1.9394  1.6885
  949MOL0     H28098   9.548   3.665   1.557  1.6504  0.6440 -0.1744
  949MOL0     H28099   9.072   4.714   0.500  0.4266  0.3199 -3.6369
  949MOL0     H28100   8.975   4.894   0.365 -1.2981 -0.1008 -0.1924
  949MOL0     H28101   8.532   4.821   0.073 -1.3222  0.0074  1.3921
  949MOL0     H28102   8.401   4.901  -0.115 -0.2238  2.3276 -1.4809
  949MOL0     H28103   8.243   5.211  -0.236  1.9132  1.1469 -1.0290
  949MOL0     H28104   8.254   5.048  -0.156  1.1342  0.1041  0.3120
  949MOL0     H28105   8.300   4.978  -0.407 -1.2182  0.4102  0.6100
  949MOL0     H28106   8.269   5.149  -0.442  1.3161  1.0809  2.3400
  949MOL0     H28107   8.078   4.940  -0.288 -2.9160  0.6970 -0.0518
  949MOL0     H28108   8.072   4.980  -0.467 -0.4038  2.4118 -0.5823
  949MOL0     H28109   7.969   5.146  -0.239 -1.0696  0.5163 -0.3696
  949MOL0     H28110   8.015   5.215  -0.391 -2.0182  0.7362 -0.1188
  949MOL0     H28111   7.642   5.060  -0.490 -0.3028 -1.8161  1.1202
  949MOL0     H28112   8.613   5.258  -0.153 -1.6112 -0.3047 -0.5241
  949MOL0     H28113   8.864   5.221   0.027  0.3729 -0.7072  1.7772
  949MOL0     H28114   8.737   5.335  -0.002  0.7652 -0.1116 -1.7961
  949MOL0     H28115   8.751   5.260   0.163 -0.3268  0.9538 -0.9661
  950MOL0     O28116   6.926   5.601  10.558 -0.2429 -0.1260  0.2116
  950MOL0     C28117   6.950   5.652  10.448  0.4829  0.4672  0.6330
  950MOL0     O28118   7.060   5.727  10.423 -0.0418  0.5992 -0.2322
  950MOL0     C28119   7.155   5.760  10.508 -0.7052  0.0286 -0.4017
  950MOL0     C28120   7.214   5.684  10.609 -0.3255 -0.7875 -0.0737
  950MOL0     C28121   7.323   5.728  10.676 -0.1263 -0.9517  1.0310
  950MOL0     C28122   7.370   5.856  10.658  0.4326  0.1557  1.1166
  950MOL0     O28123   7.461   5.912  10.741 -0.4109  0.2972  0.5656
  950MOL0     C28124   7.594   5.854  10.722  0.3706 -0.1619  0.0109
  950MOL0     C28125   7.708   5.954  10.762  0.0167  0.8629 -0.0128
  950MOL0     C28126   7.704   6.074  10.656 -1.1497 -0.0701  0.5507
  950MOL0     C28127   7.806   6.189  10.673  1.2839  0.3431  0.3048
  950MOL0     C28128   7.792   6.282  10.791 -0.3831 -0.6068 -0.4732
  950MOL0     C28129   7.904   6.392  10.802 -0.3649 -0.9251  0.1183
  950MOL0     C28130   7.932   6.427  10.943  0.1573  1.3993  0.6037
  950MOL0     C28131   7.811   6.481  11.014  0.4870 -0.3043  0.1816
  950MOL0     N28132   7.766   6.618  10.975  0.0733 -0.7336 -0.2063
  950MOL0     C28133   7.842   6.734  10.991  0.7859 -0.1192 -0.5862
  950MOL0     C28134   7.780   6.824  10.910  0.6281 -0.4483  0.7030
  950MOL0     C28135   7.807   6.973  10.899 -0.3601  0.7276 -0.0498
  950MOL0     C28136   7.928   7.016  10.818 -0.3636  0.5682 -0.1757
  950MOL0     C28137   8.062   6.984  10.888 -0.3075  0.7631  0.1749
  950MOL0     C28138   8.092   7.084  10.995  0.1360 -0.4756 -0.0439
  950MOL0     O28139   8.156   7.206  10.938 -0.4138 -0.4187  0.4008
  950MOL0     C28140   8.280   7.232  10.987 -0.1345  0.8410  0.1726
  950MOL0     C28141   8.307   7.250  11.121 -1.1363 -0.0462 -0.6593
  950MOL0     C28142   8.419   7.292  11.176 -0.8173  0.0701 -0.9213
  950MOL0     C28143   8.527   7.300  11.091 -0.3747 -0.8749 -0.7681
  950MOL0     C28144   8.659   7.323  11.149 -0.4778  0.1691 -0.2607
  950MOL0     O28145   8.673   7.349  11.286 -0.5697  0.4379 -0.5918
  950MOL0     C28146   8.794   7.353  11.334  0.0846  0.2290  0.1342
  950MOL0     C28147   8.848   7.242  11.408 -0.3473  0.2211  0.0567
  950MOL0     C28148   8.965   7.265  11.480  0.5952 -0.2033  0.0565
  950MOL0     C28149   9.038   7.383  11.465  0.7862  0.3021  0.8294
  950MOL0     O28150   9.140   7.409  11.537 -0.8743 -0.1992 -0.3650
  950MOL0     C28151   9.234   7.302  11.575  0.0414 -0.3810  0.5641
  950MOL0     C28152   9.378   7.339  11.608  0.6489  0.1542 -0.1941
  950MOL0     C28153   9.466   7.219  11.658 -0.0298 -0.9829  0.0310
  950MOL0     C28154   9.601   7.270  11.709 -0.1184  0.1845 -0.1227
  950MOL0     C28155   9.705   7.157  11.691  0.0248  0.1731 -0.3525
  950MOL0     C28156   9.840   7.181  11.743  0.6732  0.7240 -0.2236
  950MOL0     C28157   9.946   7.076  11.696  1.5257 -0.3313 -0.3341
  950MOL0     C28158   9.908   6.935  11.741  1.4304  0.3483  0.3459
  950MOL0    Cl28159  10.056   6.837  11.713  0.2701  0.1213  0.0496
  950MOL0     C28160   8.981   7.485  11.388  1.1628  1.3321 -0.1649
  950MOL0     C28161   8.856   7.476  11.323 -0.2515  0.7008 -0.2704
  950MOL0     O28162   8.750   7.316  11.071  0.1130  0.4303  0.0098
  950MOL0     C28163   8.513   7.287  10.949 -0.3401  1.5867 -0.5564
  950MOL0     C28164   8.385   7.256  10.904 -0.7391 -0.6480 -0.9293
  950MOL0     N28165   7.679   6.761  10.841  0.1735  0.0822 -0.2650
  950MOL0     N28166   7.680   6.637  10.877  0.5754 -0.5720  0.1656
  950MOL0     C28167   7.309   5.944  10.561  0.1976  0.1457  0.6518
  950MOL0     C28168   7.208   5.890  10.482 -0.6981 -0.2490 -0.2558
  950MOL0     C28169   6.866   5.627  10.335 -0.5306 -0.6635 -0.0153
  950MOL0     C28170   6.871   5.719  10.229  0.4294  0.3359 -0.7211
  950MOL0     C28171   6.795   5.693  10.119 -0.0270 -0.5471 -0.5362
  950MOL0     C28172   6.703   5.596  10.101  0.0434 -0.5636  0.5847
  950MOL0     O28173   6.623   5.591   9.986 -0.3836  0.1762  0.5834
  950MOL0     C28174   6.501   5.513   9.991  0.9604  1.1666  0.2909
  950MOL0     C28175   6.410   5.571   9.881  0.5470 -0.4100  0.4013
  950MOL0     C28176   6.331   5.462   9.823 -0.4212  0.0317 -0.6631
  950MOL0     C28177   6.200   5.519   9.753  1.0153  0.7633  0.2195
  950MOL0     C28178   6.124   5.415   9.678  0.7500  0.6654  0.9044
  950MOL0     C28179   6.048   5.345   9.626 -0.2978  0.2968 -0.1192
  950MOL0     C28180   6.701   5.504  10.208 -0.0834 -0.5776  0.3612
  950MOL0     C28181   6.789   5.506  10.316  0.3061  0.9169  0.8321
  950MOL0     C28182   6.776   5.378  10.397 -0.0789 -0.4128 -0.5590
  950MOL0     H28183   7.182   5.581  10.618  0.9051 -1.1573  0.3002
  950MOL0     H28184   7.362   5.666  10.756  0.8571  1.6636  2.7267
  950MOL0     H28185   7.604   5.760  10.777 -3.3968  1.6632  4.4675
  950MOL0     H28186   7.610   5.835  10.615 -0.7526  1.9775 -0.5893
  950MOL0     H28187   7.796   5.888  10.758  1.7238  2.8907  1.6908
  950MOL0     H28188   7.704   5.981  10.868 -0.4418  0.0503  0.1848
  950MOL0     H28189   7.601   6.113  10.653 -0.8912  0.5798 -0.3537
  950MOL0     H28190   7.725   6.036  10.556 -0.5789 -0.3630  0.7791
  950MOL0     H28191   7.899   6.137  10.694  1.8430  0.0894 -2.4242
  950MOL0     H28192   7.808   6.246  10.580 -1.1815  0.2276  0.1157
  950MOL0     H28193   7.694   6.325  10.766 -0.2713 -1.7725 -3.2546
  950MOL0     H28194   7.785   6.221  10.881 -0.4287  0.9304  0.6034
  950MOL0     H28195   7.993   6.359  10.748 -1.6828 -2.4103 -1.2768
  950MOL0     H28196   7.854   6.473  10.747  2.0149  0.7059  0.2464
  950MOL0     H28197   8.008   6.506  10.949  1.0479  0.5269  1.3108
  950MOL0     H28198   7.974   6.339  10.992  2.0518  0.6319 -2.1537
  950MOL0     H28199   7.719   6.421  11.016  1.8726 -2.5160  1.0653
  950MOL0     H28200   7.846   6.480  11.117  1.2844 -0.5456 -0.0878
  950MOL0     H28201   7.920   6.764  11.061  2.2716  0.8917 -2.5784
  950MOL0     H28202   7.724   7.020  10.846 -1.0779 -0.8539 -0.3908
  950MOL0     H28203   7.817   7.010  11.001  0.5012  0.8537 -0.1678
  950MOL0     H28204   7.928   6.964  10.722  2.9302 -0.3284  0.1806
  950MOL0     H28205   7.915   7.121  10.791 -4.1204  0.6998  1.4684
  950MOL0     H28206   8.143   6.989  10.815  1.3108  2.5158  1.9659
  950MOL0     H28207   8.042   6.885  10.930 -2.4328  0.3872 -1.5502
  950MOL0     H28208   8.160   7.035  11.065 -0.4031 -2.2905 -0.7179
  950MOL0     H28209   8.000   7.119  11.043 -0.5034 -0.5900 -1.1589
  950MOL0     H28210   8.226   7.230  11.191  0.4669  1.3350  1.7261
  950MOL0     H28211   8.416   7.300  11.284 -2.7216 -3.5209 -0.5573
  950MOL0     H28212   8.797   7.148  11.428 -1.0949 -0.3098 -3.6177
  950MOL0     H28213   9.001   7.185  11.545  1.2223  0.9070  1.1181
  950MOL0     H28214   9.184   7.251  11.658 -1.2226  0.7835  0.5578
  950MOL0     H28215   9.239   7.221  11.501 -2.0011 -0.2858  0.2607
  950MOL0     H28216   9.412   7.372  11.509  0.7170  1.4791  0.2544
  950MOL0     H28217   9.385   7.425  11.675  0.2094  1.4100 -1.6854
  950MOL0     H28218   9.414   7.161  11.734  1.7322 -2.2042  0.3861
  950MOL0     H28219   9.481   7.151  11.573 -1.4875 -1.0486 -0.1848
  950MOL0     H28220   9.598   7.310  11.811  2.2587  2.2433 -0.7377
  950MOL0     H28221   9.623   7.364  11.658 -1.9552  0.3553 -0.6662
  950MOL0     H28222   9.725   7.130  11.587  3.4697  2.3061 -0.4018
  950MOL0     H28223   9.658   7.072  11.741 -1.1779  0.0905 -1.5569
  950MOL0     H28224   9.881   7.276  11.706  4.1965 -1.0732 -1.3378
  950MOL0     H28225   9.843   7.178  11.853 -0.2734 -1.7987 -0.2167
  950MOL0     H28226  10.036   7.115  11.745 -1.0992  3.3934  2.0905
  950MOL0     H28227   9.951   7.068  11.587  1.2438  0.8962 -0.4497
  950MOL0     H28228   9.894   6.941  11.849  3.4789 -1.5988  0.8038
  950MOL0     H28229   9.828   6.884  11.687  1.6184  0.7363 -0.3061
  950MOL0     H28230   9.035   7.579  11.395  1.0720  1.3061  1.0339
  950MOL0     H28231   8.818   7.551  11.253 -0.9314 -0.0697 -0.7551
  950MOL0     H28232   8.594   7.271  10.879  0.0494 -0.1404  0.2251
  950MOL0     H28233   8.380   7.246  10.796 -2.2879 -1.6572 -0.8031
  950MOL0     H28234   7.340   6.046  10.542 -1.2619  0.1039 -2.4330
  950MOL0     H28235   7.163   5.956  10.410 -0.1526 -0.0975 -0.4630
  950MOL0     H28236   6.929   5.811  10.227  1.9335 -0.5354  0.5026
  950MOL0     H28237   6.817   5.763  10.039  0.7366  1.1527  1.0810
  950MOL0     H28238   6.439   5.512  10.081 -0.2635 -0.0404 -0.5420
  950MOL0     H28239   6.524   5.409   9.970 -0.2709  0.8793  0.2750
  950MOL0     H28240   6.478   5.626   9.815  0.1778  0.8251  1.0161
  950MOL0     H28241   6.341   5.643   9.925  1.7278 -0.8076  3.1424
  950MOL0     H28242   6.301   5.393   9.903 -2.5012  0.9709 -0.5799
  950MOL0     H28243   6.382   5.399   9.749 -0.2773  0.9147 -1.3247
  950MOL0     H28244   6.131   5.553   9.831  1.3160 -2.3118  1.9958
  950MOL0     H28245   6.229   5.598   9.684 -1.0959  0.2412 -1.3884
  950MOL0     H28246   5.967   5.289   9.583  1.4244 -1.5678 -1.1151
  950MOL0     H28247   6.641   5.415  10.194  1.8581 -1.5923 -2.2477
  950MOL0     H28248   6.766   5.300  10.322  1.2285  0.3071 -1.5259
  950MOL0     H28249   6.863   5.369  10.463 -2.5964 -2.8011  2.7913
  950MOL0     H28250   6.689   5.368  10.463  1.7972 -0.9649  1.9679
  951MOL0     O28251   6.840   2.745   3.803  0.2407  0.4633 -0.0057
  951MOL0     C28252   6.783   2.848   3.773  0.0972  0.8545  0.3797
  951MOL0     O28253   6.844   2.960   3.732 -0.2903 -0.6316 -0.0243
  951MOL0     C28254   6.958   2.965   3.659 -0.2737 -0.3085  0.5105
  951MOL0     C28255   7.021   2.857   3.600 -0.1614  0.3454 -1.0206
  951MOL0     C28256   7.138   2.875   3.527  0.2104 -0.1267 -0.8881
  951MOL0     C28257   7.188   2.997   3.499  1.0226 -0.2279  0.0289
  951MOL0     O28258   7.295   3.017   3.413 -1.0256 -0.4734 -1.0561
  951MOL0     C28259   7.397   3.107   3.472 -0.3980  0.6498 -0.2014
  951MOL0     C28260   7.521   3.105   3.384  0.1633  0.4078 -0.3640
  951MOL0     C28261   7.624   3.203   3.440  0.6990 -0.2436 -0.1277
  951MOL0     C28262   7.745   3.217   3.351  0.4307  0.2943 -0.1098
  951MOL0     C28263   7.836   3.323   3.414  0.4707  0.0610  0.9672
  951MOL0     C28264   7.956   3.345   3.326  0.3187  0.1671 -0.2389
  951MOL0     C28265   8.069   3.393   3.419 -0.2334  0.0470 -0.5300
  951MOL0     C28266   8.206   3.394   3.348 -1.1281 -0.6575  0.4773
  951MOL0     N28267   8.313   3.422   3.444 -0.1345  0.4677  0.2582
  951MOL0     C28268   8.417   3.503   3.406 -0.0646  0.5359 -0.3757
  951MOL0     C28269   8.477   3.533   3.519 -0.2236 -0.2624 -0.1381
  951MOL0     C28270   8.604   3.600   3.550 -0.3578 -0.1447 -0.7183
  951MOL0     C28271   8.727   3.503   3.574  0.2299 -0.2577 -0.7029
  951MOL0     C28272   8.762   3.426   3.450 -0.3840  0.3351 -0.6857
  951MOL0     C28273   8.906   3.372   3.438 -0.2150  0.3371  0.0847
  951MOL0     O28274   8.946   3.285   3.550 -0.7107 -0.4857  0.5920
  951MOL0     C28275   9.077   3.261   3.571  0.1946 -0.5092 -0.4850
  951MOL0     C28276   9.095   3.224   3.703 -0.3714  1.3004 -0.5299
  951MOL0     C28277   9.222   3.180   3.740  0.0689  0.4102  0.2931
  951MOL0     C28278   9.325   3.175   3.640 -0.0655 -0.3680 -0.8954
  951MOL0     C28279   9.456   3.103   3.674  0.6947 -0.3557 -0.6922
  951MOL0     O28280   9.561   3.125   3.578  0.3293  0.2127 -0.2992
  951MOL0     C28281   9.687   3.080   3.595 -0.1451 -0.0493 -0.7215
  951MOL0     C28282   9.775   3.079   3.489 -0.7042  0.9758 -0.0541
  951MOL0     C28283   9.914   3.051   3.501 -0.6553  1.0754  0.9307
  951MOL0     C28284   9.963   3.012   3.620 -0.1991 -0.2042 -0.1534
  951MOL0     O28285  10.091   2.975   3.606  0.1066 -0.0924 -0.2965
  951MOL0     C28286  10.155   2.914   3.718  0.5526  1.1120  0.0399
  951MOL0     C28287  10.308   2.903   3.685  0.1526  0.2465  0.2480
  951MOL0     C28288  10.402   2.848   3.790 -0.8125  0.0293 -0.5443
  951MOL0     C28289  10.357   2.709   3.840 -0.4717  0.3238  0.0110
  951MOL0     C28290  10.463   2.633   3.925  0.4617 -0.5698 -0.0184
  951MOL0     C28291  10.593   2.595   3.857 -0.4516 -0.1635  0.1495
  951MOL0     C28292  10.715   2.575   3.953  0.0223 -0.2516  0.9619
  951MOL0     C28293  10.852   2.569   3.879  0.0173 -0.3086 -0.8678
  951MOL0    Cl28294  10.970   2.554   4.004  0.0581  0.0513  0.1856
  951MOL0     C28295   9.882   3.026   3.733 -0.4244 -0.4374 -0.1081
  951MOL0     C28296   9.747   3.056   3.718  0.2385  0.3937  0.2415
  951MOL0     O28297   9.466   3.030   3.777 -0.1455  0.0954  0.1441
  951MOL0     C28298   9.304   3.219   3.511 -0.1734  0.0874  0.8963
  951MOL0     C28299   9.181   3.267   3.481  0.1901  0.1511  0.0115
  951MOL0     N28300   8.417   3.470   3.618  0.6897  1.2046 -0.0652
  951MOL0     N28301   8.318   3.407   3.574  0.6452  0.4728 -0.2946
  951MOL0     C28302   7.124   3.113   3.559 -0.2067 -0.8374 -0.1998
  951MOL0     C28303   7.013   3.088   3.638  0.5990 -0.4549  0.2077
  951MOL0     C28304   6.632   2.854   3.786 -0.0769 -1.8815 -0.3821
  951MOL0     C28305   6.574   2.982   3.804  0.3025 -0.3253 -0.1780
  951MOL0     C28306   6.437   3.000   3.814 -0.4627 -0.0988 -0.6414
  951MOL0     C28307   6.358   2.889   3.816  0.9404 -0.2772  0.2261
  951MOL0     O28308   6.221   2.893   3.854 -0.0069  0.6411 -0.2716
  951MOL0     C28309   6.150   3.017   3.855  1.0694  0.2462 -0.1809
  951MOL0     C28310   6.138   3.081   3.999 -0.1795  0.5605  0.2840
  951MOL0     C28311   6.089   2.991   4.115 -0.2817  1.1273 -0.2483
  951MOL0     C28312   6.070   3.057   4.252 -0.1695 -0.1476 -0.9140
  951MOL0     C28313   5.997   2.965   4.336 -0.4015 -0.0564 -0.3865
  951MOL0     C28314   5.947   2.903   4.424  0.0414 -0.3140 -0.3921
  951MOL0     C28315   6.408   2.767   3.779 -0.1320  0.4281 -1.0805
  951MOL0     C28316   6.547   2.739   3.772 -0.3264  0.2929  0.2822
  951MOL0     C28317   6.586   2.602   3.741 -0.1906 -0.0446  1.4029
  951MOL0     H28318   6.984   2.757   3.620  0.3551  0.8467  3.2513
  951MOL0     H28319   7.199   2.796   3.483  2.3499  0.0509  1.4957
  951MOL0     H28320   7.357   3.209   3.477 -0.7697  0.4913  0.1002
  951MOL0     H28321   7.432   3.071   3.569 -2.3722 -1.3101 -0.1315
  951MOL0     H28322   7.486   3.123   3.282  1.6502  0.4911 -0.8900
  951MOL0     H28323   7.571   3.009   3.369  0.5815  0.2756  1.5772
  951MOL0     H28324   7.647   3.179   3.544 -0.6198  1.7253  0.6880
  951MOL0     H28325   7.571   3.298   3.450 -0.7435 -0.9017 -1.0849
  951MOL0     H28326   7.795   3.120   3.341  1.5196  1.0553 -3.2918
  951MOL0     H28327   7.707   3.241   3.252  1.9126  0.2850 -0.7162
  951MOL0     H28328   7.785   3.417   3.434 -0.4832 -0.5759  1.6229
  951MOL0     H28329   7.870   3.275   3.507 -0.8015 -3.3130 -0.1431
  951MOL0     H28330   7.985   3.263   3.260 -0.0335 -1.5059  1.6120
  951MOL0     H28331   7.925   3.434   3.269 -2.4272 -0.4109  0.2023
  951MOL0     H28332   8.076   3.315   3.495  1.5636 -0.2655 -0.9660
  951MOL0     H28333   8.049   3.489   3.468 -2.1353  1.5055 -3.8141
  951MOL0     H28334   8.224   3.301   3.293 -0.4493  2.0787 -4.5492
  951MOL0     H28335   8.208   3.471   3.270  0.3829 -0.0233  1.0986
  951MOL0     H28336   8.451   3.539   3.309  1.1750  0.0999 -0.1170
  951MOL0     H28337   8.633   3.671   3.473 -1.6569  1.5702  0.2995
  951MOL0     H28338   8.590   3.651   3.646  1.6768 -2.1773  0.7491
  951MOL0     H28339   8.809   3.566   3.610 -2.6239  3.6582 -0.4374
  951MOL0     H28340   8.703   3.421   3.642  0.0746 -1.4131 -2.0963
  951MOL0     H28341   8.741   3.485   3.361  3.1553 -0.6214 -2.3391
  951MOL0     H28342   8.690   3.344   3.452  1.7956 -1.9494  4.7837
  951MOL0     H28343   8.970   3.461   3.440 -1.1508  1.0232  1.8049
  951MOL0     H28344   8.917   3.317   3.345  0.8054  0.1731  0.2895
  951MOL0     H28345   9.006   3.223   3.766 -1.4605  0.4314 -2.0243
  951MOL0     H28346   9.234   3.128   3.834 -1.9503  2.8051  2.0067
  951MOL0     H28347   9.741   3.100   3.388 -0.4070  0.5692 -0.2400
  951MOL0     H28348   9.981   3.050   3.415  0.1451  3.6155  1.4535
  951MOL0     H28349  10.149   2.972   3.810  0.2329  0.3144  0.5254
  951MOL0     H28350  10.117   2.812   3.727  1.4390  0.8458  0.9676
  951MOL0     H28351  10.324   2.846   3.593  2.0220  1.3333 -0.1365
  951MOL0     H28352  10.333   3.002   3.646  0.2307 -0.2982 -1.1767
  951MOL0     H28353  10.501   2.856   3.743 -0.3492  1.9659  0.6507
  951MOL0     H28354  10.417   2.925   3.866  1.1531  0.3507 -1.1903
  951MOL0     H28355  10.316   2.647   3.759 -0.3476 -3.3370  2.4978
  951MOL0     H28356  10.271   2.731   3.904 -0.6036  1.3944 -0.5269
  951MOL0     H28357  10.410   2.545   3.964 -3.9093  1.1593 -1.5317
  951MOL0     H28358  10.485   2.702   4.007  1.0392  0.2712 -0.8753
  951MOL0     H28359  10.575   2.510   3.790 -0.4801  3.0129 -4.3435
  951MOL0     H28360  10.612   2.658   3.770 -0.9408 -2.3576 -1.6673
  951MOL0     H28361  10.702   2.481   4.006  1.3965 -0.0292  1.7418
  951MOL0     H28362  10.717   2.654   4.028 -2.2791 -0.2535  1.0754
  951MOL0     H28363  10.855   2.475   3.822  3.7657 -0.0864 -1.2610
  951MOL0     H28364  10.879   2.648   3.809  2.1978  1.0484  1.3624
  951MOL0     H28365   9.923   3.022   3.833  0.4757  0.3879 -0.4337
  951MOL0     H28366   9.686   3.044   3.808  0.5405 -0.5382  0.3331
  951MOL0     H28367   9.369   3.214   3.424 -0.8666  1.4093  0.2706
  951MOL0     H28368   9.159   3.305   3.381 -2.4980  1.5360  1.0334
  951MOL0     H28369   7.162   3.213   3.542  2.6459 -1.7430  0.3672
  951MOL0     H28370   6.964   3.175   3.681  0.3023 -0.6751  0.3150
  951MOL0     H28371   6.636   3.069   3.827  3.0365 -1.8666 -1.3270
  951MOL0     H28372   6.407   3.102   3.837  0.4931  0.4352 -1.6363
  951MOL0     H28373   6.050   3.004   3.814  0.7214 -1.4455  1.1021
  951MOL0     H28374   6.197   3.093   3.791  1.3537  0.5292  0.3517
  951MOL0     H28375   6.094   3.181   3.992  0.4191  0.7341 -1.3768
  951MOL0     H28376   6.242   3.102   4.025  0.7275 -1.8335 -1.1057
  951MOL0     H28377   6.153   2.902   4.124 -1.3672  0.2694 -0.8394
  951MOL0     H28378   5.990   2.952   4.093  1.5714 -4.3260 -0.4953
  951MOL0     H28379   6.168   3.078   4.296 -0.1842 -2.7682  0.5244
  951MOL0     H28380   6.026   3.157   4.242 -2.7583 -0.8959  1.7381
  951MOL0     H28381   5.898   2.847   4.501 -3.5880  0.6284 -1.7904
  951MOL0     H28382   6.338   2.687   3.759 -0.3733  0.3602 -0.0475
  951MOL0     H28383   6.516   2.549   3.676  0.0451 -0.9392  1.8622
  951MOL0     H28384   6.678   2.602   3.682 -1.5550  2.8507 -0.9177
  951MOL0     H28385   6.609   2.545   3.832  2.5007 -0.3454  0.6472
  952MOL0     O28386   2.951   3.462  11.056 -0.1699  0.2835 -0.1756
  952MOL0     C28387   2.866   3.538  11.017  0.8554  0.1643  0.9023
  952MOL0     O28388   2.867   3.614  10.900 -1.2294 -0.2183 -0.3188
  952MOL0     C28389   2.965   3.583  10.804  0.1366  0.4175  0.2015
  952MOL0     C28390   3.088   3.652  10.788 -0.4719  0.5428  0.0052
  952MOL0     C28391   3.176   3.626  10.676  0.0603 -0.3847 -0.5079
  952MOL0     C28392   3.131   3.525  10.588  0.3950  0.7121 -0.5589
  952MOL0     O28393   3.228   3.473  10.501 -0.0809  0.0805  0.2859
  952MOL0     C28394   3.196   3.377  10.396 -0.0026  0.3782  0.3860
  952MOL0     C28395   3.322   3.354  10.307  0.6269 -0.1662  0.2011
  952MOL0     C28396   3.291   3.361  10.152  0.4035 -1.4407 -0.1176
  952MOL0     C28397   3.430   3.363  10.078  0.9321  0.8264 -0.5857
  952MOL0     C28398   3.402   3.394   9.926  0.3564  0.4440  0.1944
  952MOL0     C28399   3.361   3.268   9.845 -0.5341 -0.4618  0.0939
  952MOL0     C28400   3.335   3.284   9.698 -0.1789 -0.0495 -0.6131
  952MOL0     C28401   3.341   3.145   9.612  0.4034 -0.3451 -0.6378
  952MOL0     N28402   3.287   3.176   9.477 -0.5493  0.0489 -0.2931
  952MOL0     C28403   3.162   3.199   9.436  0.3670  1.0928  0.6057
  952MOL0     C28404   3.174   3.232   9.307 -0.7459  0.0835 -0.2733
  952MOL0     C28405   3.065   3.276   9.212 -0.0611 -0.8052 -0.1792
  952MOL0     C28406   3.017   3.165   9.134 -0.0758 -0.6880  0.0598
  952MOL0     C28407   2.898   3.204   9.043  0.2548  0.5378  0.7746
  952MOL0     C28408   2.774   3.216   9.128 -1.1664  0.2950  0.6976
  952MOL0     O28409   2.659   3.212   9.043 -0.1488 -0.2698  0.2599
  952MOL0     C28410   2.538   3.214   9.101 -0.1017  0.1853  0.8046
  952MOL0     C28411   2.499   3.266   9.228  0.3189 -0.0604 -0.5434
  952MOL0     C28412   2.374   3.240   9.282 -0.1768  0.7201 -0.3908
  952MOL0     C28413   2.284   3.172   9.202  0.5184 -0.3999  0.5099
  952MOL0     C28414   2.149   3.142   9.255 -0.7314  0.1271 -0.3541
  952MOL0     O28415   2.048   3.123   9.168 -0.1307  0.0402 -0.1498
  952MOL0     C28416   1.926   3.103   9.224 -0.4951 -0.0055 -0.4891
  952MOL0     C28417   1.904   3.007   9.329 -0.7056  0.3342 -0.4616
  952MOL0     C28418   1.777   2.978   9.378  0.1404 -0.4890 -0.0326
  952MOL0     C28419   1.668   3.053   9.328  0.4047 -0.2983  0.1379
  952MOL0     O28420   1.546   3.023   9.387 -0.9930  0.2896  0.4405
  952MOL0     C28421   1.444   3.121   9.376 -0.4528  0.4796  0.3783
  952MOL0     C28422   1.374   3.128   9.508  0.1185 -0.0791  0.4263
  952MOL0     C28423   1.262   3.234   9.515  0.4262 -0.1898 -0.1935
  952MOL0     C28424   1.163   3.221   9.401 -0.4541  0.7046  0.5410
  952MOL0     C28425   1.037   3.293   9.416 -0.1105 -0.5510  0.0264
  952MOL0     C28426   1.067   3.442   9.405  1.0788  0.2191 -0.2762
  952MOL0     C28427   0.939   3.522   9.389 -0.2797 -0.2897 -0.1780
  952MOL0     C28428   0.992   3.669   9.402 -0.3415  0.6909  0.3388
  952MOL0    Cl28429   1.083   3.703   9.257 -0.2582  0.1468  0.7223
  952MOL0     C28430   1.681   3.146   9.220 -0.2408  0.6172  0.3757
  952MOL0     C28431   1.811   3.159   9.161  0.6758 -0.2286 -0.2301
  952MOL0     O28432   2.140   3.149   9.375  0.2317 -0.0304 -0.3003
  952MOL0     C28433   2.313   3.134   9.067  0.0245  0.3807 -0.2325
  952MOL0     C28434   2.441   3.156   9.016  0.1849 -0.6959 -1.0959
  952MOL0     N28435   3.304   3.226   9.263  0.3922 -0.2302  0.0288
  952MOL0     N28436   3.373   3.197   9.375 -0.4568  0.0472 -0.2802
  952MOL0     C28437   3.006   3.449  10.603  0.0390 -0.0398  0.1687
  952MOL0     C28438   2.921   3.499  10.705  0.4474  0.4480  0.2332
  952MOL0     C28439   2.734   3.548  11.103  0.1438 -0.9808 -0.6934
  952MOL0     C28440   2.729   3.475  11.217  0.4453  0.1903 -0.0258
  952MOL0     C28441   2.628   3.484  11.308 -0.4664  0.5308  1.6748
  952MOL0     C28442   2.520   3.571  11.285  0.4377  0.2935 -0.1400
  952MOL0     O28443   2.421   3.604  11.374 -0.4133  0.4975 -0.0263
  952MOL0     C28444   2.377   3.502  11.465  0.5968 -0.1785 -0.9247
  952MOL0     C28445   2.225   3.520  11.485  0.3731  0.2376 -0.8255
  952MOL0     C28446   2.178   3.481  11.629 -0.4162  1.5322 -0.1960
  952MOL0     C28447   2.032   3.507  11.656  0.2276  0.6142  0.6041
  952MOL0     C28448   2.008   3.476  11.791 -0.7639 -0.1278  0.3235
  952MOL0     C28449   1.999   3.446  11.909  0.3189 -0.2502 -1.0664
  952MOL0     C28450   2.519   3.648  11.171 -0.4316  1.1808  0.4007
  952MOL0     C28451   2.629   3.641  11.085  0.3383 -0.0118  0.9509
  952MOL0     C28452   2.619   3.726  10.961 -0.2178 -0.1192  0.1941
  952MOL0     H28453   3.110   3.727  10.863 -0.0077 -0.6871  1.1305
  952MOL0     H28454   3.276   3.664  10.657  0.3539  0.8707  2.8740
  952MOL0     H28455   3.161   3.279  10.431 -1.0793  0.4418 -0.4317
  952MOL0     H28456   3.117   3.425  10.337  0.9309  3.1755  1.2808
  952MOL0     H28457   3.368   3.258  10.332 -1.4932 -1.5195 -0.8367
  952MOL0     H28458   3.382   3.441  10.338 -0.6788  0.6515  0.5227
  952MOL0     H28459   3.232   3.450  10.131 -0.0681 -1.9849 -1.1511
  952MOL0     H28460   3.230   3.279  10.113  0.2768 -1.7893  0.7772
  952MOL0     H28461   3.490   3.444  10.117 -0.5004  1.2331  0.8759
  952MOL0     H28462   3.478   3.265  10.089 -1.5045 -0.2715  1.5909
  952MOL0     H28463   3.323   3.469   9.912  2.1469  2.4367  0.1352
  952MOL0     H28464   3.492   3.431   9.875  3.1563 -2.2263  2.8168
  952MOL0     H28465   3.433   3.188   9.862  1.2717  1.4945  2.2902
  952MOL0     H28466   3.263   3.237   9.883  0.1987 -0.8761  1.7421
  952MOL0     H28467   3.425   3.338   9.667  0.9562 -1.4126  0.2062
  952MOL0     H28468   3.238   3.333   9.682 -0.0861  0.1806 -0.4745
  952MOL0     H28469   3.445   3.114   9.605  0.4084 -2.0652  3.8463
  952MOL0     H28470   3.277   3.066   9.654 -0.2380 -0.0477 -1.0395
  952MOL0     H28471   3.072   3.217   9.495  2.3002  1.2731  3.7287
  952MOL0     H28472   2.983   3.326   9.265 -1.1837 -1.9939 -0.7579
  952MOL0     H28473   3.107   3.358   9.153 -0.0406  2.2201  3.6548
  952MOL0     H28474   3.095   3.137   9.062  0.1808  1.5271 -0.6044
  952MOL0     H28475   3.007   3.079   9.200 -0.5454 -0.1142  0.7445
  952MOL0     H28476   2.891   3.122   8.971 -0.2008  0.5776  0.7766
  952MOL0     H28477   2.925   3.299   8.996 -0.4435  0.7279  0.7601
  952MOL0     H28478   2.770   3.307   9.188 -3.3654  1.0188 -0.4340
  952MOL0     H28479   2.781   3.137   9.203 -1.9921  1.4107  1.9960
  952MOL0     H28480   2.578   3.318   9.282  2.0333 -0.3172 -2.6636
  952MOL0     H28481   2.349   3.276   9.381 -0.1277 -2.4871  0.8903
  952MOL0     H28482   1.982   2.946   9.373 -1.2935 -0.8767 -1.0544
  952MOL0     H28483   1.763   2.903   9.456 -1.3123  0.5346  0.7280
  952MOL0     H28484   1.470   3.225   9.356  2.4062  0.2672  2.3363
  952MOL0     H28485   1.370   3.080   9.307 -0.8152 -0.2433  1.1724
  952MOL0     H28486   1.330   3.031   9.532  2.2916 -0.4790  3.2854
  952MOL0     H28487   1.438   3.149   9.594 -1.0856 -0.2714  1.4020
  952MOL0     H28488   1.204   3.222   9.607  0.9710  3.0341  0.6941
  952MOL0     H28489   1.305   3.333   9.529  1.1570 -0.8060  2.5861
  952MOL0     H28490   1.148   3.113   9.387  1.9316  0.4433 -0.5301
  952MOL0     H28491   1.215   3.240   9.306  2.1087 -1.0045  1.4929
  952MOL0     H28492   0.979   3.264   9.504 -1.5356 -1.3912 -1.1284
  952MOL0     H28493   0.973   3.257   9.334  0.2626  0.3826 -0.6977
  952MOL0     H28494   1.115   3.477   9.497  0.5286  3.5279 -1.1342
  952MOL0     H28495   1.129   3.456   9.315  1.3838 -3.4857 -0.7919
  952MOL0     H28496   0.862   3.507   9.465  1.0202 -2.4598  0.8031
  952MOL0     H28497   0.893   3.506   9.291  0.3697  0.0548 -0.5551
  952MOL0     H28498   0.903   3.733   9.401 -0.8352  0.1199  2.3796
  952MOL0     H28499   1.050   3.678   9.494 -0.1836 -0.0895  0.3268
  952MOL0     H28500   1.592   3.184   9.171  1.8106  1.2820 -3.1824
  952MOL0     H28501   1.829   3.214   9.068  1.0501  0.4317  0.2243
  952MOL0     H28502   2.237   3.087   9.006 -0.7088  2.6083 -1.1302
  952MOL0     H28503   2.468   3.144   8.912 -2.0272  4.9099 -2.6654
  952MOL0     H28504   2.987   3.364  10.539 -0.0855  2.4560 -3.4008
  952MOL0     H28505   2.819   3.461  10.701  1.0158 -1.2690  1.1128
  952MOL0     H28506   2.817   3.415  11.236  0.6587  0.4380 -0.2143
  952MOL0     H28507   2.643   3.428  11.400 -2.4677  0.7257  2.1648
  952MOL0     H28508   2.436   3.504  11.557 -0.2863  1.3122 -0.3491
  952MOL0     H28509   2.387   3.401  11.423  0.1862 -1.4132  1.7126
  952MOL0     H28510   2.178   3.466  11.403  0.1290  0.7277 -1.0081
  952MOL0     H28511   2.194   3.625  11.475 -0.3093  0.0226 -1.0201
  952MOL0     H28512   2.244   3.531  11.700  2.0355  1.3774 -2.2416
  952MOL0     H28513   2.173   3.372  11.626 -2.0074  1.5966 -1.4340
  952MOL0     H28514   2.006   3.613  11.649 -0.4099  0.3855 -0.7693
  952MOL0     H28515   1.970   3.448  11.588  2.0540  1.0489 -1.5310
  952MOL0     H28516   1.982   3.421  12.011 -1.5677 -0.8804 -1.4961
  952MOL0     H28517   2.453   3.733  11.156  1.0222  2.5103  1.3121
  952MOL0     H28518   2.562   3.818  10.980  0.9956  0.7554 -0.2447
  952MOL0     H28519   2.715   3.766  10.926 -1.1002 -0.1269 -2.4080
  952MOL0     H28520   2.568   3.662  10.889 -0.1816 -0.1587  0.2037
  953MOL0     O28521   2.564   5.185   5.006 -0.3058 -0.3113  0.3831
  953MOL0     C28522   2.534   5.074   4.977  0.1656  0.5089  0.0213
  953MOL0     O28523   2.594   4.999   4.880  0.3698 -0.1169 -0.3330
  953MOL0     C28524   2.714   5.033   4.823 -0.8546  0.5161 -0.8848
  953MOL0     C28525   2.729   5.133   4.726  0.2254  0.3182  0.9064
  953MOL0     C28526   2.852   5.155   4.671 -0.3202 -0.4547  0.7089
  953MOL0     C28527   2.962   5.093   4.718  0.9929  0.4635  0.1766
  953MOL0     O28528   3.087   5.122   4.681 -0.3646 -0.4947 -0.2185
  953MOL0     C28529   3.139   5.035   4.580 -0.2580  0.7916  0.4182
  953MOL0     C28530   3.281   5.072   4.551  1.1638 -0.5880  0.0576
  953MOL0     C28531   3.301   5.224   4.507  0.4534 -0.9035  0.2302
  953MOL0     C28532   3.443   5.242   4.444 -0.7271 -0.0327 -0.3024
  953MOL0     C28533   3.455   5.386   4.379  0.0276  0.0772 -0.5347
  953MOL0     C28534   3.594   5.403   4.311 -0.4767  0.0692  0.4426
  953MOL0     C28535   3.632   5.545   4.268 -0.2148  0.0644  0.1345
  953MOL0     C28536   3.785   5.552   4.227 -0.2687  1.1105 -0.2596
  953MOL0     N28537   3.867   5.537   4.347 -0.1795 -0.2593  0.5463
  953MOL0     C28538   3.891   5.629   4.447 -0.3669  0.1560 -0.1436
  953MOL0     C28539   3.987   5.577   4.520 -0.2067 -0.3915 -1.0331
  953MOL0     C28540   4.049   5.634   4.648  0.0666  0.1403 -0.2263
  953MOL0     C28541   4.145   5.755   4.609 -0.3201 -0.3908 -0.0866
  953MOL0     C28542   4.292   5.704   4.615  0.0438 -0.1345  1.4658
  953MOL0     C28543   4.385   5.808   4.552 -0.2819  0.4395  0.3474
  953MOL0     O28544   4.516   5.752   4.544  0.4217  0.1840 -0.4242
  953MOL0     C28545   4.609   5.761   4.643 -0.3616 -0.3520 -0.2331
  953MOL0     C28546   4.738   5.704   4.616 -0.1055  0.4424 -0.0496
  953MOL0     C28547   4.842   5.711   4.702  0.8070 -0.0538  0.0476
  953MOL0     C28548   4.817   5.764   4.829  0.1442  0.5001 -0.0105
  953MOL0     C28549   4.928   5.772   4.916  0.7230 -0.3894 -0.0898
  953MOL0     O28550   5.037   5.830   4.864 -0.3760 -0.4180 -1.0042
  953MOL0     C28551   5.152   5.833   4.935  1.1985 -0.2951 -0.3644
  953MOL0     C28552   5.247   5.738   4.918  0.1211 -0.3682  0.5498
  953MOL0     C28553   5.373   5.755   4.969  0.4530  0.9253 -0.2291
  953MOL0     C28554   5.404   5.876   5.032  0.4068  0.6109  0.0217
  953MOL0     O28555   5.539   5.891   5.073 -0.2957 -0.9121 -0.0982
  953MOL0     C28556   5.572   6.019   5.132 -0.3629 -0.1579 -0.3027
  953MOL0     C28557   5.711   6.060   5.096  0.3286 -0.0589  0.6584
  953MOL0     C28558   5.726   6.094   4.943  0.5099 -0.1227 -0.5365
  953MOL0     C28559   5.866   6.152   4.913  0.6707  0.1938  0.1924
  953MOL0     C28560   5.906   6.141   4.770 -0.2827  0.6430  0.4851
  953MOL0     C28561   6.049   6.191   4.741  1.2216  0.4065  0.4188
  953MOL0     C28562   6.085   6.150   4.589 -0.1405  0.1112 -0.4017
  953MOL0     C28563   6.234   6.126   4.570 -0.1342 -0.5060  0.3980
  953MOL0    Cl28564   6.291   5.980   4.662 -0.0968 -0.1082 -0.0013
  953MOL0     C28565   5.292   5.962   5.067  0.0014 -0.0154  0.2020
  953MOL0     C28566   5.161   5.942   5.018  0.6692 -0.5628 -0.2399
  953MOL0     O28567   4.904   5.763   5.035  0.6890  0.1300  0.2457
  953MOL0     C28568   4.690   5.815   4.863 -0.0557  0.3846  0.4728
  953MOL0     C28569   4.584   5.803   4.770  0.5898  0.1311 -0.0343
  953MOL0     N28570   4.020   5.453   4.477 -0.5877 -0.3718  1.0565
  953MOL0     N28571   3.955   5.434   4.366  0.9717  0.9168  0.2654
  953MOL0     C28572   2.948   4.993   4.814 -0.5643 -0.3490 -0.7864
  953MOL0     C28573   2.824   4.964   4.871  0.2522 -0.9824 -0.9927
  953MOL0     C28574   2.408   5.013   5.035  0.1653 -0.5008 -0.5615
  953MOL0     C28575   2.339   5.089   5.134 -0.7469  0.0508  0.0682
  953MOL0     C28576   2.231   5.048   5.214 -0.0139  0.1523 -0.1697
  953MOL0     C28577   2.186   4.916   5.199 -0.9396  0.3530 -0.3286
  953MOL0     O28578   2.070   4.863   5.258  0.3088 -0.0640  0.2546
  953MOL0     C28579   1.972   4.954   5.323 -0.1361  0.5566 -0.4514
  953MOL0     C28580   1.851   4.869   5.359  0.2123  0.0604 -0.1116
  953MOL0     C28581   1.790   4.778   5.245  0.2318  0.3958 -0.6070
  953MOL0     C28582   1.648   4.725   5.274  0.3719 -0.4482 -0.5652
  953MOL0     C28583   1.546   4.831   5.241  0.4238 -0.3733  0.3579
  953MOL0     C28584   1.454   4.902   5.210 -0.1840 -0.6757 -0.3845
  953MOL0     C28585   2.251   4.828   5.103  0.7162  0.1480 -0.1952
  953MOL0     C28586   2.361   4.877   5.036  0.2274  0.7835  0.7230
  953MOL0     C28587   2.438   4.774   4.962 -0.0821  0.3152  0.5567
  953MOL0     H28588   2.644   5.191   4.690  0.4160  0.4539  0.6697
  953MOL0     H28589   2.861   5.245   4.611  1.6271 -0.5826  0.7298
  953MOL0     H28590   3.129   4.930   4.606 -0.2737  0.1623 -1.9135
  953MOL0     H28591   3.083   5.058   4.489  1.5614  0.4641 -0.8465
  953MOL0     H28592   3.316   5.016   4.463 -0.7827 -0.3650 -0.9139
  953MOL0     H28593   3.344   5.063   4.639 -1.1449  1.2053  2.0322
  953MOL0     H28594   3.296   5.284   4.598  0.2090  1.6108 -1.3591
  953MOL0     H28595   3.219   5.260   4.445  1.2106 -1.4000 -1.1157
  953MOL0     H28596   3.523   5.231   4.519  0.1722 -0.5159 -1.3009
  953MOL0     H28597   3.464   5.171   4.363 -0.5714  0.3946 -0.6379
  953MOL0     H28598   3.375   5.399   4.306  0.6480 -1.5236 -1.5611
  953MOL0     H28599   3.437   5.462   4.455 -2.0948  1.0983 -1.9763
  953MOL0     H28600   3.675   5.357   4.367  0.4249  0.0300 -0.8495
  953MOL0     H28601   3.584   5.342   4.221  0.1372 -0.0193  0.4349
  953MOL0     H28602   3.613   5.609   4.355 -0.2216  0.7455 -0.3645
  953MOL0     H28603   3.567   5.588   4.192 -1.5438  0.7973  1.6128
  953MOL0     H28604   3.801   5.478   4.148 -0.9978 -1.6956  2.0372
  953MOL0     H28605   3.804   5.655   4.196  0.1264  0.5382 -2.0317
  953MOL0     H28606   3.850   5.728   4.465 -1.6581 -0.6497  1.5546
  953MOL0     H28607   3.972   5.671   4.717  0.2588  3.9707 -1.8170
  953MOL0     H28608   4.096   5.549   4.697 -3.1558  0.2502  3.4851
  953MOL0     H28609   4.132   5.798   4.509  0.9055 -1.4803 -0.7513
  953MOL0     H28610   4.137   5.826   4.692 -2.8066 -4.3687  3.4975
  953MOL0     H28611   4.306   5.612   4.558 -0.9979  0.7298 -0.2581
  953MOL0     H28612   4.318   5.682   4.719  0.5676  1.0418  1.6034
  953MOL0     H28613   4.391   5.906   4.600 -0.1826  0.2015  0.8231
  953MOL0     H28614   4.356   5.834   4.450 -0.2078 -0.1204  0.1784
  953MOL0     H28615   4.755   5.667   4.516  2.3380  4.6314 -1.4618
  953MOL0     H28616   4.943   5.673   4.686  1.5787  1.3755  1.1875
  953MOL0     H28617   5.231   5.664   4.841 -6.5465  1.1702 -0.1530
  953MOL0     H28618   5.458   5.690   4.951  0.4289  0.8908 -0.2180
  953MOL0     H28619   5.505   6.103   5.113  1.9180  1.4211 -1.9090
  953MOL0     H28620   5.573   6.008   5.241 -4.9263  5.4762  0.7662
  953MOL0     H28621   5.716   6.148   5.161 -1.2578  1.2154 -0.8435
  953MOL0     H28622   5.782   5.985   5.131 -1.1618 -0.5925  2.7625
  953MOL0     H28623   5.701   6.001   4.891 -0.6936  0.0702 -0.3214
  953MOL0     H28624   5.650   6.162   4.904  0.4248  0.3765  0.4569
  953MOL0     H28625   5.942   6.104   4.974  3.1699  2.4487 -0.9567
  953MOL0     H28626   5.860   6.258   4.939 -1.1810  1.0010 -2.9339
  953MOL0     H28627   5.849   6.214   4.712 -1.2636  0.4349  1.1661
  953MOL0     H28628   5.884   6.043   4.725 -1.1435  0.9824  0.1376
  953MOL0     H28629   6.052   6.299   4.755  0.3105  0.2385  2.1069
  953MOL0     H28630   6.117   6.148   4.815 -1.0456 -3.0420  0.7480
  953MOL0     H28631   6.051   6.231   4.524  0.8714  0.9582  0.1022
  953MOL0     H28632   6.042   6.054   4.558 -2.2165  1.2201 -1.1253
  953MOL0     H28633   6.259   6.123   4.464  0.3265  3.1115  0.2903
  953MOL0     H28634   6.292   6.214   4.599  1.4922  0.0216 -3.8068
  953MOL0     H28635   5.306   6.047   5.134 -0.0689  0.0396  0.1469
  953MOL0     H28636   5.067   5.991   5.038  1.7449  0.0001  4.7979
  953MOL0     H28637   4.678   5.850   4.965  1.2292  0.2417  0.6849
  953MOL0     H28638   4.482   5.831   4.796  1.4415  0.9502  2.8333
  953MOL0     H28639   3.030   4.932   4.850 -2.2879 -1.2166  2.0561
  953MOL0     H28640   2.812   4.883   4.942 -0.4225 -1.2014 -1.3474
  953MOL0     H28641   2.369   5.193   5.147  1.2064 -0.2007 -1.8387
  953MOL0     H28642   2.191   5.109   5.295 -0.5452  0.6114 -0.7663
  953MOL0     H28643   1.938   5.043   5.269 -4.6789 -0.0130  1.0453
  953MOL0     H28644   2.028   4.995   5.408 -0.8383 -0.9324  0.7864
  953MOL0     H28645   1.779   4.935   5.408  1.3089 -0.8144  2.9078
  953MOL0     H28646   1.875   4.800   5.441  1.3903  0.3970 -0.1547
  953MOL0     H28647   1.851   4.688   5.231 -0.8810 -1.1521  3.1885
  953MOL0     H28648   1.796   4.841   5.156 -1.9045  0.2504 -0.8935
  953MOL0     H28649   1.639   4.625   5.230 -1.5088 -1.7599  2.4383
  953MOL0     H28650   1.636   4.701   5.380  1.5688  1.1672 -0.0329
  953MOL0     H28651   1.372   4.966   5.185 -0.8033 -1.5140 -0.5117
  953MOL0     H28652   2.222   4.724   5.094  0.4741  0.3658 -2.1862
  953MOL0     H28653   2.541   4.780   4.998  0.5110 -0.0056 -0.9812
  953MOL0     H28654   2.402   4.672   4.977 -1.1938  0.9698  2.8074
  953MOL0     H28655   2.459   4.798   4.857  1.3291  1.6413  1.0968
  954MOL0     O28656   0.036   8.487  10.736 -0.4597 -0.8780  0.4551
  954MOL0     C28657   0.012   8.606  10.728 -0.7041 -0.1001  0.3869
  954MOL0     O28658   0.091   8.700  10.791  0.3393 -0.4125  0.1980
  954MOL0     C28659   0.231   8.667  10.787 -0.2848  0.1830 -0.1023
  954MOL0     C28660   0.322   8.765  10.742 -0.2696  0.0671  0.2039
  954MOL0     C28661   0.464   8.749  10.749 -0.4169 -0.0412  1.0298
  954MOL0     C28662   0.514   8.631  10.802  0.7047  0.1165 -0.7393
  954MOL0     O28663   0.649   8.615  10.815  0.2002 -0.4837  0.3524
  954MOL0     C28664   0.707   8.506  10.884 -0.1366  0.7097 -0.6835
  954MOL0     C28665   0.867   8.511  10.881  0.9405  0.6130  0.7921
  954MOL0     C28666   0.919   8.371  10.927  0.0908  1.9250 -0.2003
  954MOL0     C28667   0.914   8.380  11.085 -0.2119 -0.2336  0.3187
  954MOL0     C28668   1.052   8.404  11.150  0.0179  0.9008 -0.9308
  954MOL0     C28669   1.019   8.472  11.286  0.3570  0.0575 -0.2969
  954MOL0     C28670   1.148   8.519  11.363 -1.1583  0.4596  0.8480
  954MOL0     C28671   1.246   8.399  11.396 -0.4986 -0.3516 -0.3231
  954MOL0     N28672   1.357   8.441  11.482 -0.5444  0.3143 -0.2438
  954MOL0     C28673   1.436   8.350  11.560  0.3515  0.5891 -0.1126
  954MOL0     C28674   1.544   8.422  11.585  0.2261 -0.4054 -1.5633
  954MOL0     C28675   1.667   8.361  11.633 -0.4993  0.4418 -1.5320
  954MOL0     C28676   1.798   8.445  11.603  0.1663  0.3020  0.0858
  954MOL0     C28677   1.905   8.342  11.592 -0.9512 -0.3732 -0.2921
  954MOL0     C28678   2.045   8.400  11.586  0.0698  0.8747 -0.1018
  954MOL0     O28679   2.073   8.462  11.718 -0.0945 -0.8362 -0.8424
  954MOL0     C28680   2.201   8.517  11.712  0.5560  0.4366 -0.5449
  954MOL0     C28681   2.310   8.431  11.716 -0.3195  0.0734 -0.7646
  954MOL0     C28682   2.436   8.478  11.690  0.6530  0.6896  0.0195
  954MOL0     C28683   2.465   8.615  11.661  0.7717  0.8327  0.6345
  954MOL0     C28684   2.603   8.660  11.614 -0.6422 -0.5339 -0.3491
  954MOL0     O28685   2.706   8.572  11.613 -0.0460 -0.1370  0.9658
  954MOL0     C28686   2.833   8.622  11.582  0.3862 -0.8166  0.5461
  954MOL0     C28687   2.887   8.737  11.644 -0.3252  0.6223 -0.8801
  954MOL0     C28688   3.018   8.777  11.619 -0.3313  0.4692 -0.0333
  954MOL0     C28689   3.090   8.719  11.515 -0.4843  0.6134 -0.0619
  954MOL0     O28690   3.211   8.778  11.481 -0.2901 -0.6620  0.3133
  954MOL0     C28691   3.304   8.714  11.393  0.7301 -0.0824  1.1631
  954MOL0     C28692   3.277   8.745  11.250  0.4139 -0.1483  0.3718
  954MOL0     C28693   3.364   8.676  11.151 -0.5596  0.1230  0.7076
  954MOL0     C28694   3.382   8.775  11.028  0.7007  0.6438 -0.4873
  954MOL0     C28695   3.426   8.711  10.902 -0.9105  0.7983  0.0615
  954MOL0     C28696   3.571   8.663  10.904  0.4156 -0.2111 -0.6339
  954MOL0     C28697   3.668   8.776  10.938 -0.5211 -0.4869 -0.0390
  954MOL0     C28698   3.803   8.737  10.897  0.3234 -0.4571  0.3168
  954MOL0    Cl28699   3.844   8.597  11.005  0.2400  0.3120 -0.0616
  954MOL0     C28700   3.036   8.603  11.449  0.5913  0.2882 -0.1033
  954MOL0     C28701   2.908   8.555  11.489 -0.5202  0.2006  0.0830
  954MOL0     O28702   2.613   8.785  11.591  0.1146 -0.0755  0.0818
  954MOL0     C28703   2.355   8.700  11.657 -0.1289 -0.4270 -0.3713
  954MOL0     C28704   2.223   8.649  11.682 -0.1400  0.6530  0.1283
  954MOL0     N28705   1.536   8.551  11.538 -1.2648 -0.0256  0.5475
  954MOL0     N28706   1.432   8.562  11.462 -0.3653 -0.0962  0.1723
  954MOL0     C28707   0.433   8.542  10.864  0.9421  0.9975 -0.1026
  954MOL0     C28708   0.290   8.557  10.860  0.4081 -0.5675 -0.0757
  954MOL0     C28709  -0.104   8.656  10.652  0.5987  0.3029 -0.9106
  954MOL0     C28710  -0.138   8.786  10.661 -0.5510  0.0419 -0.6061
  954MOL0     C28711  -0.233   8.846  10.580 -0.4963  0.2621  0.4529
  954MOL0     C28712  -0.314   8.758  10.505  0.4295  0.3175  0.0929
  954MOL0     O28713  -0.420   8.815  10.445  0.2495 -0.5501 -0.7498
  954MOL0     C28714  -0.546   8.818  10.516  0.1040  0.1066  1.0367
  954MOL0     C28715  -0.622   8.949  10.481 -0.0541  0.6208 -0.4424
  954MOL0     C28716  -0.774   8.916  10.508  0.3490 -0.1639 -0.4988
  954MOL0     C28717  -0.858   9.030  10.462 -0.0720  1.3409  0.2894
  954MOL0     C28718  -1.003   9.005  10.473 -0.6015  0.1770  0.1549
  954MOL0     C28719  -1.127   8.997  10.481  0.2741 -0.1278  1.1485
  954MOL0     C28720  -0.294   8.624  10.503 -0.0927 -0.7791 -0.8101
  954MOL0     C28721  -0.188   8.566  10.568  0.1358  0.4500  0.8582
  954MOL0     C28722  -0.175   8.411  10.558 -0.6345  0.4404  0.0260
  954MOL0     H28723   0.291   8.852  10.686 -1.3502  0.1845  0.9524
  954MOL0     H28724   0.527   8.822  10.699 -0.6402 -1.1714 -1.0327
  954MOL0     H28725   0.681   8.497  10.990  0.0047 -0.8090 -0.7556
  954MOL0     H28726   0.669   8.418  10.832 -1.0652  1.0867 -0.6617
  954MOL0     H28727   0.900   8.599  10.937 -2.2308  1.2751  1.8575
  954MOL0     H28728   0.890   8.538  10.778 -3.8051  2.0467 -0.1398
  954MOL0     H28729   1.022   8.350  10.897 -0.2069 -1.5226  0.7221
  954MOL0     H28730   0.856   8.292  10.884  0.7119  0.7020  1.0522
  954MOL0     H28731   0.843   8.458  11.115  1.0857 -0.0817  3.4109
  954MOL0     H28732   0.870   8.290  11.130 -2.4679  0.9618  0.6327
  954MOL0     H28733   1.116   8.317  11.166 -1.5580 -0.0022  0.8892
  954MOL0     H28734   1.110   8.485  11.104  1.6200  0.2329 -0.1568
  954MOL0     H28735   0.963   8.566  11.272  0.8015  0.2239 -1.0131
  954MOL0     H28736   0.974   8.389  11.340 -0.6315 -1.3452 -3.0760
  954MOL0     H28737   1.119   8.559  11.460  4.2199  0.0323  2.9716
  954MOL0     H28738   1.199   8.596  11.305  0.4832  0.1681  1.8430
  954MOL0     H28739   1.184   8.324  11.445 -0.1122 -1.7020 -1.8153
  954MOL0     H28740   1.274   8.352  11.301 -1.4873 -1.2007 -0.2134
  954MOL0     H28741   1.426   8.242  11.557  1.5057  0.3987  1.6741
  954MOL0     H28742   1.659   8.331  11.738  0.2003  1.9509 -1.0220
  954MOL0     H28743   1.674   8.269  11.574  3.0885  0.5032 -1.3986
  954MOL0     H28744   1.780   8.486  11.503  3.6712 -0.0139 -0.8087
  954MOL0     H28745   1.814   8.535  11.663  3.1088  0.8871 -1.4100
  954MOL0     H28746   1.884   8.275  11.508  2.8268 -0.1868 -1.5931
  954MOL0     H28747   1.905   8.283  11.684  0.8419 -0.9311 -0.6119
  954MOL0     H28748   2.052   8.481  11.513 -1.7689  0.5135 -0.7390
  954MOL0     H28749   2.112   8.314  11.572  0.1129  0.6904  1.1287
  954MOL0     H28750   2.301   8.329  11.750  2.9955 -1.1867 -3.1328
  954MOL0     H28751   2.517   8.409  11.669  0.0319  1.1989 -5.4117
  954MOL0     H28752   2.829   8.800  11.712  1.9546  0.8646  0.9659
  954MOL0     H28753   3.057   8.867  11.666  1.0347 -0.8513  1.4748
  954MOL0     H28754   3.403   8.748  11.423  0.3050  0.6912  1.7219
  954MOL0     H28755   3.307   8.605  11.397 -3.4433 -0.4359 -0.2529
  954MOL0     H28756   3.178   8.705  11.228 -0.0738  0.6598  1.0441
  954MOL0     H28757   3.270   8.854  11.238 -1.4614 -0.2504  0.2865
  954MOL0     H28758   3.461   8.653  11.194 -0.2828  2.1546  1.2772
  954MOL0     H28759   3.321   8.581  11.116 -0.9837  0.9476 -1.1076
  954MOL0     H28760   3.423   8.873  11.053 -0.5820  1.8180 -2.6366
  954MOL0     H28761   3.279   8.797  10.999  1.9111  0.9034 -5.6267
  954MOL0     H28762   3.417   8.783  10.819 -2.5027 -0.4835 -0.9262
  954MOL0     H28763   3.355   8.635  10.869 -1.1077  1.8578 -2.1865
  954MOL0     H28764   3.577   8.578  10.973  1.0734  0.0356 -0.3782
  954MOL0     H28765   3.589   8.623  10.804 -0.1954  1.0217 -1.2536
  954MOL0     H28766   3.672   8.797  11.046  5.1598  1.2711 -0.2567
  954MOL0     H28767   3.629   8.865  10.890 -0.9229 -0.8863 -0.4612
  954MOL0     H28768   3.803   8.702  10.793 -0.2671  0.7320 -0.1150
  954MOL0     H28769   3.870   8.823  10.906 -2.8717  2.1446  1.2629
  954MOL0     H28770   3.080   8.539  11.374 -0.5589  0.4149 -0.9095
  954MOL0     H28771   2.874   8.462  11.444 -0.0286 -1.2092  2.4469
  954MOL0     H28772   2.366   8.801  11.619 -1.0923 -1.1837 -2.8165
  954MOL0     H28773   2.130   8.704  11.667 -0.7876 -0.7648 -1.3888
  954MOL0     H28774   0.463   8.449  10.912 -1.6550  0.4404  0.6051
  954MOL0     H28775   0.234   8.483  10.917  1.3522 -1.4898 -0.3194
  954MOL0     H28776  -0.094   8.869  10.717 -3.7138  1.3203  0.2068
  954MOL0     H28777  -0.244   8.953  10.562  1.8570  0.3084 -1.1988
  954MOL0     H28778  -0.529   8.814  10.624  0.0394 -1.1889  1.0197
  954MOL0     H28779  -0.597   8.723  10.497 -0.5486  0.1364  2.4893
  954MOL0     H28780  -0.604   8.977  10.377  2.1316  0.8249 -0.0703
  954MOL0     H28781  -0.577   9.033  10.535  0.6981 -0.3268  0.4331
  954MOL0     H28782  -0.783   8.906  10.617  3.0382  1.2704 -0.0528
  954MOL0     H28783  -0.812   8.829  10.454  0.0992 -0.2620 -0.1664
  954MOL0     H28784  -0.841   9.115  10.529 -0.1039  0.8633  0.9127
  954MOL0     H28785  -0.838   9.049  10.356  2.2967  1.5896  0.7215
  954MOL0     H28786  -1.234   8.999  10.476  0.1816 -1.2632  2.2229
  954MOL0     H28787  -0.365   8.567  10.445 -0.5271  1.4304 -2.5988
  954MOL0     H28788  -0.079   8.377  10.518 -0.3117 -1.2780  2.0272
  954MOL0     H28789  -0.192   8.370  10.658 -1.1631  0.1027 -0.1945
  954MOL0     H28790  -0.254   8.367  10.496  0.4651 -0.2804 -0.8926
  955MOL0     O28791  10.937  11.290   2.797 -0.1425 -0.0016  0.6874
  955MOL0     C28792  10.846  11.248   2.730 -0.0329 -0.7808 -0.2246
  955MOL0     O28793  10.860  11.162   2.631  0.0080  0.9711  0.3358
  955MOL0     C28794  10.990  11.131   2.594  0.5184  0.4935  0.5039
  955MOL0     C28795  11.027  11.008   2.634 -0.4519 -0.0041  0.5523
  955MOL0     C28796  11.156  10.953   2.602  0.2855  0.2938  0.2486
  955MOL0     C28797  11.245  11.028   2.525 -0.3429  0.3157 -0.1502
  955MOL0     O28798  11.374  10.988   2.496 -0.1809  0.2330 -0.1162
  955MOL0     C28799  11.383  10.894   2.390 -0.0968 -0.0019  0.4092
  955MOL0     C28800  11.420  10.959   2.259 -0.7332 -0.5511  1.1637
  955MOL0     C28801  11.562  10.999   2.245 -1.4345 -0.2130 -0.8731
  955MOL0     C28802  11.599  11.037   2.107 -0.2904 -1.6258  0.3632
  955MOL0     C28803  11.744  11.080   2.085  0.3370  0.1128 -0.4294
  955MOL0     C28804  11.790  11.116   1.944 -0.0458  0.2834  0.6130
  955MOL0     C28805  11.938  11.167   1.959  0.2756 -0.4674 -0.6201
  955MOL0     C28806  11.977  11.254   1.836 -1.0868  0.1110 -0.0345
  955MOL0     N28807  12.113  11.303   1.862  1.0234 -0.4208  0.2557
  955MOL0     C28808  12.180  11.345   1.974  0.6656 -0.2266 -0.1769
  955MOL0     C28809  12.317  11.345   1.933  1.0430 -0.2218 -0.1147
  955MOL0     C28810  12.433  11.393   2.022  0.5151 -0.0350 -0.2011
  955MOL0     C28811  12.570  11.396   1.950  0.4526 -0.2254 -1.2563
  955MOL0     C28812  12.672  11.437   2.051 -0.0019 -0.4724  0.9082
  955MOL0     C28813  12.809  11.468   1.985  0.4387 -1.0391 -0.1927
  955MOL0     O28814  12.910  11.487   2.082  0.2430 -0.2632  0.5762
  955MOL0     C28815  13.042  11.507   2.040  0.4572 -0.4963 -0.3619
  955MOL0     C28816  13.080  11.542   1.903  0.2804 -1.3219 -0.9492
  955MOL0     C28817  13.221  11.554   1.876  0.8063  1.2593 -0.2524
  955MOL0     C28818  13.311  11.551   1.976  0.4242 -0.0302  0.3328
  955MOL0     C28819  13.455  11.570   1.943  0.0032 -0.4220 -0.2394
  955MOL0     O28820  13.481  11.654   1.844 -0.1619  0.1257 -0.1932
  955MOL0     C28821  13.608  11.676   1.811  0.2442  0.3108  0.7730
  955MOL0     C28822  13.672  11.788   1.865 -0.6925  0.3289  0.2207
  955MOL0     C28823  13.810  11.803   1.838  0.0222  0.3966 -0.1629
  955MOL0     C28824  13.885  11.710   1.758  0.1789 -1.1278  0.4084
  955MOL0     O28825  14.020  11.720   1.724  0.7560  0.0234  0.9393
  955MOL0     C28826  14.113  11.782   1.816 -0.8109  0.3846 -0.5578
  955MOL0     C28827  14.260  11.753   1.777 -0.2993 -0.8471  0.0224
  955MOL0     C28828  14.298  11.790   1.633  0.4114  0.3501 -0.5667
  955MOL0     C28829  14.438  11.763   1.604 -0.7112 -0.1208 -0.2514
  955MOL0     C28830  14.479  11.806   1.460 -0.9130 -0.5355  0.6720
  955MOL0     C28831  14.624  11.767   1.428  0.0008  0.0210 -0.9301
  955MOL0     C28832  14.680  11.858   1.321 -0.0470  0.5950  0.7924
  955MOL0     C28833  14.831  11.843   1.299  1.3125  0.5575  0.6686
  955MOL0    Cl28834  14.867  11.668   1.262 -0.0111  0.2368 -0.0623
  955MOL0     C28835  13.813  11.609   1.694 -0.5195 -0.2775 -0.5874
  955MOL0     C28836  13.674  11.594   1.721 -0.2385  0.3152 -1.2119
  955MOL0     O28837  13.536  11.514   2.012  0.2934  0.5536 -0.8474
  955MOL0     C28838  13.271  11.542   2.109  0.5413  0.3684  0.1306
  955MOL0     C28839  13.137  11.508   2.138 -1.2537  0.4657  0.1341
  955MOL0     N28840  12.327  11.318   1.806  0.3529  0.4675  0.1648
  955MOL0     N28841  12.207  11.289   1.765 -0.1987  0.1993  0.1191
  955MOL0     C28842  11.208  11.161   2.486 -0.0355  0.0917  0.0120
  955MOL0     C28843  11.078  11.202   2.516 -0.4047 -0.9118 -0.2070
  955MOL0     C28844  10.711  11.294   2.768 -0.4763  0.2141 -0.9070
  955MOL0     C28845  10.606  11.248   2.694  0.1621  0.1797 -0.2266
  955MOL0     C28846  10.472  11.286   2.721  0.3492  0.0834  0.0452
  955MOL0     C28847  10.440  11.394   2.810  0.1591  0.5674  0.0496
  955MOL0     O28848  10.316  11.453   2.832 -0.0006  0.3748  0.1650
  955MOL0     C28849  10.214  11.423   2.734 -0.4778  0.2532  0.5379
  955MOL0     C28850  10.097  11.522   2.751 -0.3986  0.0155  0.0232
  955MOL0     C28851  10.061  11.609   2.628  0.9202  0.2135 -0.0474
  955MOL0     C28852   9.931  11.690   2.649 -0.5986 -0.6634 -0.3312
  955MOL0     C28853   9.964  11.835   2.678  0.2969  1.5338  0.0512
  955MOL0     C28854   9.996  11.947   2.696  0.4545 -0.3175  0.0858
  955MOL0     C28855  10.549  11.446   2.875 -0.0451  0.4556  0.6098
  955MOL0     C28856  10.678  11.389   2.875  0.1911  0.2427 -0.0683
  955MOL0     C28857  10.774  11.446   2.980  0.2846  0.2763  0.1730
  955MOL0     H28858  10.964  10.948   2.698  0.5706  0.2251  1.8064
  955MOL0     H28859  11.191  10.856   2.636  2.1654  0.5407 -0.8563
  955MOL0     H28860  11.460  10.819   2.408  0.2267  0.1552 -0.3035
  955MOL0     H28861  11.290  10.840   2.369  1.5668 -2.6184 -0.7019
  955MOL0     H28862  11.364  11.051   2.245  2.2644  1.1126 -1.2693
  955MOL0     H28863  11.384  10.895   2.177 -2.2829  0.0340  1.3636
  955MOL0     H28864  11.623  10.916   2.282 -1.9525  1.3209  4.2326
  955MOL0     H28865  11.581  11.084   2.312  3.3562 -0.0207 -2.0981
  955MOL0     H28866  11.578  10.951   2.044  1.9803 -2.9730  1.3102
  955MOL0     H28867  11.527  11.114   2.078 -0.3089 -1.3605  1.0936
  955MOL0     H28868  11.769  11.153   2.163  1.5590  0.5857 -1.2399
  955MOL0     H28869  11.813  11.002   2.117  1.5046  0.2306 -2.4641
  955MOL0     H28870  11.768  11.035   1.875  2.1610 -0.4928  0.7664
  955MOL0     H28871  11.739  11.201   1.896  0.1527 -0.3003 -0.6621
  955MOL0     H28872  11.995  11.074   1.971  0.5090 -0.2761 -0.2566
  955MOL0     H28873  11.945  11.220   2.054 -0.4562 -2.2208  0.4565
  955MOL0     H28874  11.969  11.198   1.743  0.0520  1.6377 -1.0947
  955MOL0     H28875  11.905  11.335   1.821 -2.2386 -1.2878 -2.7189
  955MOL0     H28876  12.146  11.365   2.074 -1.0588  1.1478 -0.9990
  955MOL0     H28877  12.412  11.487   2.074  0.5852 -1.0286  1.7218
  955MOL0     H28878  12.436  11.315   2.099 -2.2208 -3.4117 -3.1757
  955MOL0     H28879  12.588  11.295   1.913 -0.3093 -2.8896  4.4780
  955MOL0     H28880  12.559  11.463   1.864 -1.0717 -1.6424 -2.2105
  955MOL0     H28881  12.688  11.352   2.118  1.7118 -1.0869 -0.1930
  955MOL0     H28882  12.638  11.523   2.109  0.0007  1.1185 -1.3323
  955MOL0     H28883  12.795  11.556   1.923 -0.6767  0.1193  1.6249
  955MOL0     H28884  12.839  11.379   1.927  0.3641 -0.8896 -0.4608
  955MOL0     H28885  13.007  11.542   1.823 -2.1014 -1.3075  1.0929
  955MOL0     H28886  13.242  11.573   1.771 -2.8819 -0.2823 -1.4285
  955MOL0     H28887  13.626  11.853   1.938 -0.8616 -1.9831  2.3107
  955MOL0     H28888  13.859  11.887   1.886 -0.5247 -1.2243  3.5968
  955MOL0     H28889  14.089  11.887   1.798  1.5430  1.3954  1.6683
  955MOL0     H28890  14.105  11.753   1.922  0.1081  1.0016 -0.3074
  955MOL0     H28891  14.327  11.813   1.840  1.1268  0.3543 -2.4814
  955MOL0     H28892  14.266  11.644   1.790 -0.6267 -0.9120 -0.3493
  955MOL0     H28893  14.239  11.735   1.560  2.6506 -1.2818 -1.2384
  955MOL0     H28894  14.274  11.896   1.620  1.5025  0.7757  0.7066
  955MOL0     H28895  14.460  11.656   1.608 -4.6947 -1.1905 -1.8980
  955MOL0     H28896  14.500  11.818   1.676 -3.8044 -0.1738  2.7170
  955MOL0     H28897  14.473  11.915   1.454 -1.0847 -0.6033 -3.3387
  955MOL0     H28898  14.407  11.776   1.383  0.6018 -0.7491 -0.7242
  955MOL0     H28899  14.682  11.782   1.519 -1.9850  0.5159  0.3195
  955MOL0     H28900  14.630  11.662   1.398 -3.0474 -0.9921  1.4685
  955MOL0     H28901  14.665  11.963   1.348 -2.9603  0.2268  0.8848
  955MOL0     H28902  14.632  11.820   1.230  0.8956 -1.6909  1.1708
  955MOL0     H28903  14.865  11.901   1.212  2.5303 -1.2577 -0.1202
  955MOL0     H28904  14.887  11.879   1.386  1.4380  0.2898  0.7001
  955MOL0     H28905  13.866  11.551   1.618 -1.4431  1.0105 -2.2928
  955MOL0     H28906  13.620  11.512   1.674 -1.1983 -0.3072  0.8604
  955MOL0     H28907  13.340  11.552   2.192  0.7417 -3.2120  0.5614
  955MOL0     H28908  13.105  11.494   2.241  1.6176 -2.1172  0.8288
  955MOL0     H28909  11.281  11.204   2.418 -0.2795  0.2096 -0.1787
  955MOL0     H28910  11.050  11.302   2.486  0.8034 -1.1357 -2.2896
  955MOL0     H28911  10.618  11.175   2.614  2.6649 -0.7989  0.9516
  955MOL0     H28912  10.391  11.244   2.662 -1.9140  1.5292  1.9659
  955MOL0     H28913  10.181  11.319   2.747 -2.0833  1.0142  3.3037
  955MOL0     H28914  10.258  11.435   2.634  0.8421 -1.0696  0.9265
  955MOL0     H28915  10.118  11.587   2.836 -3.1294  0.5303  0.4110
  955MOL0     H28916  10.005  11.468   2.775  0.5376 -1.2746  0.8392
  955MOL0     H28917  10.041  11.534   2.550  0.2198 -1.5625  1.7591
  955MOL0     H28918  10.151  11.665   2.598  1.7476 -0.9047  0.2773
  955MOL0     H28919   9.884  11.692   2.550 -1.6716  2.3680  0.1324
  955MOL0     H28920   9.858  11.653   2.722 -0.0206  0.3261  0.7821
  955MOL0     H28921  10.019  12.051   2.707  1.0879 -0.5441  1.0443
  955MOL0     H28922  10.541  11.522   2.952 -0.3446  0.3658  0.6697
  955MOL0     H28923  10.840  11.516   2.929  0.4654  0.2993  0.4412
  955MOL0     H28924  10.722  11.496   3.062  0.5105 -0.6337  0.8980
  955MOL0     H28925  10.837  11.366   3.021 -0.9620 -2.8701 -3.4000
  956MOL0     O28926   5.836  11.094   5.302  0.2308 -0.1689  0.8312
  956MOL0     C28927   5.807  11.199   5.354  0.9139  0.5189  0.1333
  956MOL0     O28928   5.874  11.256   5.453  0.2839  0.2400  0.5939
  956MOL0     C28929   5.991  11.195   5.498  0.5759  0.0114 -0.0908
  956MOL0     C28930   6.104  11.162   5.415  0.7053  0.7716  1.1162
  956MOL0     C28931   6.219  11.101   5.469 -0.0404  0.0552 -0.3306
  956MOL0     C28932   6.214  11.060   5.601  0.2072  0.5808 -0.0062
  956MOL0     O28933   6.319  10.984   5.630 -0.8314  0.2875  0.3169
  956MOL0     C28934   6.293  10.884   5.729 -1.8682  0.7838  0.1923
  956MOL0     C28935   6.393  10.768   5.727 -0.1258 -0.5382  0.5479
  956MOL0     C28936   6.357  10.661   5.630 -0.4350 -0.9356 -0.6713
  956MOL0     C28937   6.462  10.553   5.602  0.2198  0.2485 -0.1809
  956MOL0     C28938   6.559  10.589   5.498  0.3656 -0.7937 -0.7728
  956MOL0     C28939   6.652  10.480   5.442 -0.2633  0.5829 -0.1858
  956MOL0     C28940   6.723  10.515   5.315  0.7795 -0.3978 -0.1907
  956MOL0     C28941   6.853  10.445   5.280 -0.2608  0.1289 -0.2052
  956MOL0     N28942   6.828  10.306   5.241 -0.3200  0.3242 -0.0898
  956MOL0     C28943   6.793  10.271   5.110 -0.2937 -0.3239  0.0069
  956MOL0     C28944   6.773  10.135   5.125  0.1980 -0.0917 -0.8229
  956MOL0     C28945   6.771  10.043   5.009  0.1107  0.1876 -0.2594
  956MOL0     C28946   6.886   9.958   4.978 -0.0654  0.8809  0.2916
  956MOL0     C28947   7.021  10.032   4.967  0.1592  0.2960  0.3809
  956MOL0     C28948   7.092  10.055   5.101 -0.0150 -0.6924  0.0248
  956MOL0     O28949   7.228  10.087   5.061 -0.2228 -0.4080  0.1831
  956MOL0     C28950   7.315  10.085   5.167  0.2656  0.2673 -1.0765
  956MOL0     C28951   7.402  10.191   5.171  0.0039  0.0879  0.3076
  956MOL0     C28952   7.506  10.202   5.265 -0.0261 -0.0791 -0.2377
  956MOL0     C28953   7.502  10.114   5.379  0.1860 -0.4888 -0.2438
  956MOL0     C28954   7.605  10.120   5.483  0.0259  0.1501  0.1142
  956MOL0     O28955   7.660  10.243   5.497 -0.7706 -1.0861 -0.0004
  956MOL0     C28956   7.772  10.260   5.588  0.8109 -0.4224  1.3177
  956MOL0     C28957   7.887  10.187   5.592 -0.9646 -0.3152  0.0628
  956MOL0     C28958   7.992  10.222   5.678 -0.5986 -0.1155 -1.2677
  956MOL0     C28959   7.986  10.332   5.761 -0.3390  0.9940  0.1706
  956MOL0     O28960   8.075  10.372   5.865  0.6121 -0.1115  0.2386
  956MOL0     C28961   8.182  10.288   5.885 -0.3984 -0.5905  0.6085
  956MOL0     C28962   8.300  10.372   5.939  0.2401  0.2378 -0.5759
  956MOL0     C28963   8.445  10.319   5.945 -0.5991 -0.6188 -0.3294
  956MOL0     C28964   8.542  10.444   5.949  0.2492 -0.1910  1.1665
  956MOL0     C28965   8.683  10.393   5.975  0.3310  0.2623  0.4708
  956MOL0     C28966   8.782  10.496   5.914  0.3003  0.4404 -0.0109
  956MOL0     C28967   8.791  10.491   5.759  0.0403  0.6584  0.2277
  956MOL0     C28968   8.870  10.603   5.695  0.1274  1.1975  0.1853
  956MOL0    Cl28969   9.030  10.608   5.767  0.1952  0.2380  0.1010
  956MOL0     C28970   7.873  10.403   5.761  0.3786 -0.4342 -0.4939
  956MOL0     C28971   7.767  10.384   5.673 -0.6028 -0.4314  0.2194
  956MOL0     O28972   7.637  10.019   5.550 -0.7782  0.1587 -0.5475
  956MOL0     C28973   7.412  10.005   5.373  0.0139 -0.6912  1.0841
  956MOL0     C28974   7.325   9.986   5.267  0.4591 -0.1769 -0.4144
  956MOL0     N28975   6.814  10.095   5.254  0.7740  0.1446 -0.0306
  956MOL0     N28976   6.843  10.198   5.323  0.2549  0.1517 -0.2869
  956MOL0     C28977   6.100  11.085   5.682 -0.0922 -0.0739  0.3015
  956MOL0     C28978   5.992  11.160   5.629 -0.3225  0.0572 -0.0875
  956MOL0     C28979   5.676  11.265   5.332  0.3765 -0.0447  0.1837
  956MOL0     C28980   5.616  11.341   5.434 -0.1204 -1.1744 -0.3719
  956MOL0     C28981   5.480  11.392   5.423 -0.4358 -0.2099 -1.1784
  956MOL0     C28982   5.401  11.359   5.317  1.1001  0.4620  0.1179
  956MOL0     O28983   5.270  11.394   5.294 -0.1759  0.5114 -0.0160
  956MOL0     C28984   5.218  11.486   5.389  1.2776  0.4143 -0.3792
  956MOL0     C28985   5.071  11.532   5.355 -0.5036 -0.1476  0.7148
  956MOL0     C28986   5.003  11.615   5.454  0.2631 -0.3041 -0.8151
  956MOL0     C28987   4.893  11.707   5.399 -0.2702 -0.4547  0.4356
  956MOL0     C28988   4.811  11.745   5.515  0.3491 -0.1264  0.8043
  956MOL0     C28989   4.762  11.760   5.619 -0.4379  0.6961 -0.8121
  956MOL0     C28990   5.457  11.282   5.217 -0.9945 -0.1068  0.7715
  956MOL0     C28991   5.589  11.236   5.223  0.0990  0.2775 -0.5100
  956MOL0     C28992   5.641  11.156   5.095 -0.9911 -0.2689  0.4313
  956MOL0     H28993   6.103  11.185   5.309  1.9790 -1.0866  0.6486
  956MOL0     H28994   6.298  11.067   5.402  0.0309 -3.1144  1.2089
  956MOL0     H28995   6.308  10.924   5.830  0.0935 -2.5635  1.4041
  956MOL0     H28996   6.196  10.832   5.723 -0.6290 -1.5448 -0.7812
  956MOL0     H28997   6.405  10.738   5.832  0.7103  0.2283  0.6859
  956MOL0     H28998   6.490  10.815   5.706 -1.0587  0.5295 -1.6232
  956MOL0     H28999   6.328  10.710   5.537 -0.4881  0.7213  0.1888
  956MOL0     H29000   6.271  10.613   5.680 -0.3376 -0.9007 -0.4704
  956MOL0     H29001   6.511  10.524   5.695  1.5678  0.0495 -0.9277
  956MOL0     H29002   6.401  10.473   5.559  1.6816 -0.1912 -1.5567
  956MOL0     H29003   6.513  10.632   5.409 -1.1330 -1.0109 -0.1341
  956MOL0     H29004   6.633  10.657   5.542 -1.5517 -0.7965  2.8399
  956MOL0     H29005   6.720  10.445   5.520 -1.5594  3.5565  2.4858
  956MOL0     H29006   6.586  10.398   5.411  2.4629 -0.6892 -3.2421
  956MOL0     H29007   6.743  10.620   5.340  3.8396 -1.5479  3.1358
  956MOL0     H29008   6.650  10.494   5.237  3.1371 -1.0188 -2.3488
  956MOL0     H29009   6.910  10.497   5.202 -0.8908 -0.3008 -0.9716
  956MOL0     H29010   6.918  10.440   5.368 -1.3192 -1.2547  0.5365
  956MOL0     H29011   6.772  10.325   5.018 -2.2834 -0.1826  0.5156
  956MOL0     H29012   6.684   9.980   5.030 -0.6033  1.6799  1.5385
  956MOL0     H29013   6.738  10.102   4.923 -0.8850 -1.4208 -1.0177
  956MOL0     H29014   6.891   9.882   5.057 -1.1253  0.7033  0.2035
  956MOL0     H29015   6.870   9.898   4.888 -0.6211 -0.0214  0.9777
  956MOL0     H29016   7.002  10.130   4.924 -1.1479  0.5468  1.4404
  956MOL0     H29017   7.088   9.983   4.896  0.8892  0.2836  1.0604
  956MOL0     H29018   7.074   9.978   5.177  1.0243 -0.4750  0.5098
  956MOL0     H29019   7.039  10.146   5.133 -1.3922 -1.6392  0.5516
  956MOL0     H29020   7.403  10.268   5.095  4.8846  1.8301  1.7402
  956MOL0     H29021   7.577  10.284   5.258 -0.7138  0.3936 -2.3001
  956MOL0     H29022   7.902  10.105   5.522  3.6031  0.7057 -0.4793
  956MOL0     H29023   8.078  10.156   5.674  0.2500  0.9281 -0.7947
  956MOL0     H29024   8.163  10.212   5.961  1.8723 -1.4955  0.3709
  956MOL0     H29025   8.214  10.244   5.790 -1.9032 -0.0798 -0.1620
  956MOL0     H29026   8.311  10.465   5.883  2.2687 -0.0823 -0.7784
  956MOL0     H29027   8.272  10.401   6.041  1.3824  2.4191 -0.8250
  956MOL0     H29028   8.451  10.247   6.027 -0.7153  0.2521  0.4563
  956MOL0     H29029   8.460  10.260   5.854 -0.8447  0.6057 -1.1960
  956MOL0     H29030   8.512  10.516   6.026 -0.1470 -0.0292  0.8668
  956MOL0     H29031   8.527  10.497   5.854  1.1303 -2.2359 -0.2004
  956MOL0     H29032   8.700  10.302   5.917 -0.2248  0.1286  0.5119
  956MOL0     H29033   8.694  10.371   6.081 -0.1348  1.1297  0.7136
  956MOL0     H29034   8.750  10.593   5.954  1.2777  0.5962  0.4088
  956MOL0     H29035   8.873  10.456   5.959  1.0004 -0.5082 -2.1493
  956MOL0     H29036   8.690  10.491   5.717  1.2780  1.4534 -3.0742
  956MOL0     H29037   8.844  10.397   5.741 -0.6519  0.1601  0.7633
  956MOL0     H29038   8.884  10.567   5.593 -3.5177 -0.3391  0.0710
  956MOL0     H29039   8.811  10.695   5.693  1.3164  1.9620 -0.3854
  956MOL0     H29040   7.859  10.482   5.835  0.3506  0.6910 -1.6678
  956MOL0     H29041   7.681  10.449   5.684 -1.3477 -1.6304  2.1935
  956MOL0     H29042   7.413   9.916   5.435  1.4055 -1.9924 -0.6993
  956MOL0     H29043   7.267   9.894   5.269  0.8177 -0.5877 -3.6133
  956MOL0     H29044   6.088  11.041   5.781 -2.1542 -2.9838 -1.0791
  956MOL0     H29045   5.903  11.184   5.687  0.5337  1.1975  0.8138
  956MOL0     H29046   5.653  11.363   5.534 -1.7712  1.2863 -0.2268
  956MOL0     H29047   5.452  11.458   5.504  2.2570 -0.4600  0.0456
  956MOL0     H29048   5.278  11.577   5.395  2.4430 -0.3425 -0.3737
  956MOL0     H29049   5.214  11.450   5.492  0.0698  1.5385  0.0010
  956MOL0     H29050   5.012  11.445   5.325  1.1430 -1.7922  1.9578
  956MOL0     H29051   5.085  11.599   5.269  2.5426 -0.7223  0.6339
  956MOL0     H29052   5.076  11.669   5.515 -1.4527 -0.5870  1.6393
  956MOL0     H29053   4.950  11.547   5.521 -0.8141  1.7803  0.5479
  956MOL0     H29054   4.952  11.788   5.358  2.7222 -3.1420 -0.9848
  956MOL0     H29055   4.834  11.653   5.324 -1.6609 -1.9713  2.4982
  956MOL0     H29056   4.734  11.751   5.722  1.5046  1.1602 -0.2033
  956MOL0     H29057   5.396  11.231   5.143  0.4732 -0.2273 -0.3908
  956MOL0     H29058   5.656  11.053   5.129 -0.3138  0.0676  1.2148
  956MOL0     H29059   5.565  11.161   5.018  0.0302  0.8724 -0.5410
  956MOL0     H29060   5.737  11.194   5.059 -2.1681  1.3226 -1.1620
  957MOL0     O29061   1.559   1.757   9.155  0.2832 -0.5099 -0.0655
  957MOL0     C29062   1.468   1.836   9.160 -0.0164  0.1438  0.5548
  957MOL0     O29063   1.485   1.975   9.173  0.1753  0.0710 -0.0299
  957MOL0     C29064   1.606   2.042   9.182  0.5597  0.2673  0.0609
  957MOL0     C29065   1.588   2.179   9.191 -0.3703  0.0110 -0.4557
  957MOL0     C29066   1.693   2.268   9.167  0.2855 -0.0877 -0.0069
  957MOL0     C29067   1.830   2.224   9.149 -0.0781  0.6487  0.0806
  957MOL0     O29068   1.922   2.325   9.141 -0.3707 -0.1777  0.6257
  957MOL0     C29069   2.033   2.302   9.059 -0.4528  0.4692  0.4160
  957MOL0     C29070   2.108   2.436   9.040  0.2883  0.0060  0.4638
  957MOL0     C29071   2.221   2.426   8.936  0.0021  0.0792  0.3101
  957MOL0     C29072   2.313   2.560   8.920  1.0889 -0.3443  0.8850
  957MOL0     C29073   2.368   2.613   9.054  1.1321 -0.9304  0.0523
  957MOL0     C29074   2.442   2.751   9.046 -0.5031  0.8718  0.3148
  957MOL0     C29075   2.553   2.747   8.938  0.5568 -0.8838 -0.0461
  957MOL0     C29076   2.652   2.860   8.948  0.3128  0.4560  0.9973
  957MOL0     N29077   2.731   2.876   8.820  0.0449 -0.2904 -0.1373
  957MOL0     C29078   2.866   2.878   8.817 -0.1597 -0.8081 -0.0427
  957MOL0     C29079   2.898   2.898   8.679  0.0717  0.1844 -1.0369
  957MOL0     C29080   3.035   2.902   8.617  0.1368 -0.0180  0.6076
  957MOL0     C29081   3.134   3.001   8.670 -0.5841 -0.5337  0.1632
  957MOL0     C29082   3.109   3.147   8.612 -0.4254 -0.4624 -0.6068
  957MOL0     C29083   3.096   3.170   8.462  0.8276 -0.1335 -0.6071
  957MOL0     O29084   3.227   3.173   8.402  0.6334 -0.4067 -0.2522
  957MOL0     C29085   3.313   3.276   8.423 -0.4783  0.3095 -0.2746
  957MOL0     C29086   3.443   3.253   8.415  0.0977  0.0012  0.0689
  957MOL0     C29087   3.544   3.348   8.450  0.4693  0.0069 -1.5343
  957MOL0     C29088   3.507   3.476   8.502 -0.1037  1.3312  0.6515
  957MOL0     C29089   3.606   3.582   8.533  1.5008  0.3521  0.6993
  957MOL0     O29090   3.545   3.707   8.548  0.2444 -0.2213  0.0194
  957MOL0     C29091   3.621   3.815   8.576  0.0649  0.7643 -0.3572
  957MOL0     C29092   3.732   3.808   8.665  0.1386  0.1959 -0.3392
  957MOL0     C29093   3.816   3.922   8.696  0.2127 -0.7411  0.5495
  957MOL0     C29094   3.791   4.043   8.626  0.0164 -0.4916  0.5033
  957MOL0     O29095   3.872   4.153   8.627 -0.0089 -0.1391 -0.8072
  957MOL0     C29096   3.988   4.158   8.539 -0.4095 -0.2119  0.1971
  957MOL0     C29097   4.089   4.236   8.624  0.1022 -0.0212  0.4081
  957MOL0     C29098   4.053   4.383   8.639 -0.8500  0.4182 -0.2325
  957MOL0     C29099   4.091   4.466   8.518  0.8495  0.0006 -0.5460
  957MOL0     C29100   4.074   4.617   8.535  0.2502  0.2634 -0.6110
  957MOL0     C29101   4.186   4.697   8.603 -0.0020  0.2104 -0.1747
  957MOL0     C29102   4.302   4.724   8.509  0.5942  0.9455 -0.0720
  957MOL0     C29103   4.416   4.773   8.591 -0.0981  0.1465 -0.1068
  957MOL0    Cl29104   4.528   4.879   8.503  0.4004  0.2318 -0.2845
  957MOL0     C29105   3.675   4.047   8.542  0.1101 -0.1539  0.2095
  957MOL0     C29106   3.588   3.939   8.517  0.3194  0.1742  0.4012
  957MOL0     O29107   3.724   3.556   8.524 -1.0866 -0.0316 -0.1148
  957MOL0     C29108   3.368   3.493   8.509  0.0756 -0.3548 -0.0121
  957MOL0     C29109   3.274   3.399   8.475 -0.6143  0.8304 -0.2835
  957MOL0     N29110   2.774   2.911   8.614  0.2559 -0.4769 -0.3595
  957MOL0     N29111   2.678   2.901   8.696  0.4339  0.6771 -0.8596
  957MOL0     C29112   1.850   2.086   9.155 -0.4017  0.1049  0.4783
  957MOL0     C29113   1.740   1.997   9.163 -0.2588 -0.3863  0.0606
  957MOL0     C29114   1.328   1.780   9.131  0.1302  0.2525 -1.0069
  957MOL0     C29115   1.217   1.866   9.134 -0.3212  0.2614  0.9925
  957MOL0     C29116   1.086   1.828   9.113 -0.1505  0.1789 -0.4154
  957MOL0     C29117   1.056   1.697   9.109 -0.9114  0.0417  0.8748
  957MOL0     O29118   0.932   1.646   9.089 -0.2937  0.1628 -0.3901
  957MOL0     C29119   0.818   1.718   9.138 -0.8414  0.7037  0.6492
  957MOL0     C29120   0.686   1.638   9.143 -0.2865  0.0564 -1.1337
  957MOL0     C29121   0.663   1.572   9.008  1.4152  0.0192 -0.1423
  957MOL0     C29122   0.542   1.475   9.014 -0.4345  0.0168 -0.2310
  957MOL0     C29123   0.574   1.351   9.085  0.7024  0.7100 -0.5045
  957MOL0     C29124   0.587   1.252   9.151 -0.1385  1.0890  0.0001
  957MOL0     C29125   1.159   1.604   9.118  0.2289 -0.1367  0.4995
  957MOL0     C29126   1.295   1.642   9.128  0.3448 -0.1628 -0.4723
  957MOL0     C29127   1.388   1.532   9.159 -0.4979 -0.0268  0.6993
  957MOL0     H29128   1.490   2.225   9.199 -0.0222  0.6489  0.2904
  957MOL0     H29129   1.685   2.376   9.157 -0.9104 -0.1566  0.0216
  957MOL0     H29130   2.097   2.221   9.095 -1.1146 -1.1240 -1.7820
  957MOL0     H29131   1.998   2.268   8.961  1.1397 -2.4041  0.7341
  957MOL0     H29132   2.143   2.454   9.142  2.8677  2.7774 -0.7577
  957MOL0     H29133   2.029   2.510   9.021 -0.7021  0.2855  4.7111
  957MOL0     H29134   2.182   2.406   8.836  0.5565  0.9865 -0.1088
  957MOL0     H29135   2.290   2.344   8.956 -1.8906 -1.9928 -1.2199
  957MOL0     H29136   2.400   2.533   8.859  0.5413 -1.4489  0.5664
  957MOL0     H29137   2.257   2.638   8.868 -0.6906 -1.3879  1.1712
  957MOL0     H29138   2.289   2.621   9.129  0.3608  0.2407 -0.8601
  957MOL0     H29139   2.438   2.535   9.087  0.0314 -0.8440  2.8487
  957MOL0     H29140   2.370   2.831   9.025 -0.4907  1.0556  0.9683
  957MOL0     H29141   2.491   2.773   9.141 -0.7924 -1.3180  1.0233
  957MOL0     H29142   2.497   2.757   8.845 -0.8878  2.2731  1.0041
  957MOL0     H29143   2.613   2.656   8.946  3.2614  0.6800 -1.1253
  957MOL0     H29144   2.604   2.952   8.981  2.6898  1.9668  0.5481
  957MOL0     H29145   2.725   2.845   9.028  1.3334  4.2312  1.0010
  957MOL0     H29146   2.928   2.845   8.900 -1.3304 -0.5715  0.9552
  957MOL0     H29147   3.075   2.806   8.650  0.2828  0.1053  0.7845
  957MOL0     H29148   3.027   2.908   8.508 -2.8627  0.4490  0.7603
  957MOL0     H29149   3.131   3.004   8.779 -1.9264  2.1719  0.1443
  957MOL0     H29150   3.231   2.962   8.639 -0.7332  0.5251 -1.7836
  957MOL0     H29151   3.181   3.213   8.662  0.0464 -1.6230  0.3133
  957MOL0     H29152   3.010   3.171   8.651 -1.3814 -2.9529 -1.2703
  957MOL0     H29153   3.031   3.257   8.452 -0.7262 -1.2998 -1.1694
  957MOL0     H29154   3.036   3.092   8.414 -1.2637  1.2773 -0.4440
  957MOL0     H29155   3.464   3.156   8.370  2.2616 -0.0221  0.9989
  957MOL0     H29156   3.647   3.324   8.424 -0.0332 -0.1050 -3.5732
  957MOL0     H29157   3.764   3.724   8.725  1.7522  1.4547  0.6652
  957MOL0     H29158   3.905   3.911   8.757  0.7392  0.8862  0.1252
  957MOL0     H29159   4.033   4.060   8.519  4.1291  1.6211  0.4584
  957MOL0     H29160   3.973   4.210   8.444  0.4407 -0.9032 -0.3360
  957MOL0     H29161   4.093   4.184   8.720 -1.8835 -2.2832 -0.6236
  957MOL0     H29162   4.193   4.234   8.592  0.0014 -2.5817 -0.0028
  957MOL0     H29163   3.948   4.401   8.664 -0.8407 -0.4804  0.4765
  957MOL0     H29164   4.117   4.425   8.717  1.8367  0.2869 -2.2401
  957MOL0     H29165   4.032   4.424   8.436  2.1038 -2.4925 -0.2676
  957MOL0     H29166   4.198   4.464   8.495  1.0023 -0.8175  0.2096
  957MOL0     H29167   3.980   4.639   8.587 -0.2108 -0.5394 -1.0936
  957MOL0     H29168   4.058   4.668   8.440 -2.9088 -1.8860 -1.4045
  957MOL0     H29169   4.147   4.793   8.636 -0.2803 -0.0791  0.3464
  957MOL0     H29170   4.213   4.642   8.693  2.0812 -0.6499 -1.2489
  957MOL0     H29171   4.264   4.806   8.446  1.6452  3.0596  1.8908
  957MOL0     H29172   4.334   4.638   8.450  0.1867  0.5845  0.2303
  957MOL0     H29173   4.369   4.839   8.665 -1.2710  1.1676 -1.6949
  957MOL0     H29174   4.474   4.693   8.638 -0.3069  0.2752  0.3806
  957MOL0     H29175   3.648   4.137   8.489 -0.6952 -0.8622 -0.6326
  957MOL0     H29176   3.510   3.950   8.442  1.2807 -1.8893 -1.0043
  957MOL0     H29177   3.330   3.587   8.549 -0.7601 -0.7226  0.0923
  957MOL0     H29178   3.169   3.427   8.489 -1.7862 -3.0199 -0.1986
  957MOL0     H29179   1.952   2.050   9.157 -1.2907 -2.8123  3.4907
  957MOL0     H29180   1.767   1.892   9.161 -0.8850 -0.5450 -1.9671
  957MOL0     H29181   1.230   1.972   9.148  2.6526  0.1123 -0.0174
  957MOL0     H29182   1.005   1.900   9.098 -0.4456  0.6421  2.8143
  957MOL0     H29183   0.788   1.799   9.071  0.4644  2.4924  2.1304
  957MOL0     H29184   0.837   1.748   9.241 -2.2633 -0.6318  1.3408
  957MOL0     H29185   0.606   1.703   9.179  0.5468  1.1666 -1.2318
  957MOL0     H29186   0.690   1.563   9.223  1.1430  3.3544  2.2025
  957MOL0     H29187   0.749   1.516   8.971  0.7328  0.8805 -3.2963
  957MOL0     H29188   0.641   1.658   8.944  0.8736  0.6386  0.8414
  957MOL0     H29189   0.455   1.523   9.060 -3.1632 -1.4531 -3.4630
  957MOL0     H29190   0.511   1.458   8.911  0.7125 -0.0441 -0.5901
  957MOL0     H29191   0.610   1.161   9.204 -0.5679  1.0991  0.2040
  957MOL0     H29192   1.136   1.498   9.110  0.7361 -0.1125 -2.5287
  957MOL0     H29193   1.480   1.537   9.101 -0.3689  2.7850  1.0329
  957MOL0     H29194   1.426   1.546   9.261  1.1279  1.1144 -0.0292
  957MOL0     H29195   1.333   1.437   9.149 -1.3291  0.7030 -2.9936
  958MOL0     O29196   7.843   5.781  10.327  0.1823 -0.1420  0.0226
  958MOL0     C29197   7.816   5.893  10.324  0.2129 -0.9693 -0.2867
  958MOL0     O29198   7.691   5.944  10.288  0.4964  0.9791  0.2541
  958MOL0     C29199   7.605   5.845  10.248 -0.8876 -0.3142 -0.6339
  958MOL0     C29200   7.590   5.815  10.114 -0.8188 -0.5135 -0.7755
  958MOL0     C29201   7.495   5.721  10.073 -0.2752 -0.1988  0.3655
  958MOL0     C29202   7.421   5.645  10.157 -0.9463  0.4075  0.8993
  958MOL0     O29203   7.340   5.552  10.100 -0.0666  1.4393  0.0874
  958MOL0     C29204   7.211   5.525  10.174 -0.6229 -0.1824  0.2808
  958MOL0     C29205   7.113   5.454  10.085  0.3971  0.0988  0.5300
  958MOL0     C29206   7.141   5.310  10.058  0.5733 -0.3743  0.6439
  958MOL0     C29207   7.031   5.244   9.978  1.0471  0.4243  0.6806
  958MOL0     C29208   7.066   5.087   9.955  0.8501 -0.2757 -0.0391
  958MOL0     C29209   6.987   5.008   9.848 -0.7915 -0.5449  0.0275
  958MOL0     C29210   7.019   4.857   9.854  0.0715  0.1645 -0.3750
  958MOL0     C29211   7.021   4.797   9.717  0.2064 -0.6402 -0.1396
  958MOL0     N29212   6.893   4.808   9.646 -0.4564  0.6623 -0.0715
  958MOL0     C29213   6.769   4.830   9.695  0.0667 -0.5452  0.5089
  958MOL0     C29214   6.687   4.818   9.587 -0.7479 -0.1844  0.8921
  958MOL0     C29215   6.539   4.857   9.573 -0.7760 -0.2604  0.3772
  958MOL0     C29216   6.523   5.013   9.600 -0.3991 -0.0281 -0.7143
  958MOL0     C29217   6.377   5.055   9.643  0.1050  0.3281 -0.9379
  958MOL0     C29218   6.273   5.053   9.530 -0.1443 -0.1963 -0.4750
  958MOL0     O29219   6.254   4.919   9.499  0.4254  0.1949 -0.0582
  958MOL0     C29220   6.166   4.844   9.570 -0.6929 -0.4952 -0.0617
  958MOL0     C29221   6.163   4.710   9.540 -0.1076  0.1675  0.0928
  958MOL0     C29222   6.071   4.628   9.605 -0.0724 -0.3964  0.0611
  958MOL0     C29223   5.992   4.669   9.708 -1.0222  0.9003 -0.7641
  958MOL0     C29224   5.906   4.581   9.777 -0.2141 -0.4186  0.3868
  958MOL0     O29225   5.898   4.452   9.722  0.1914  0.1531  0.4169
  958MOL0     C29226   5.825   4.348   9.775  0.1757 -0.1341  0.0899
  958MOL0     C29227   5.731   4.356   9.879 -0.7656 -0.1761 -0.3046
  958MOL0     C29228   5.693   4.239   9.946  0.2027 -0.1516 -0.0958
  958MOL0     C29229   5.750   4.112   9.909  0.4432 -0.8947 -0.3057
  958MOL0     O29230   5.738   3.991   9.969  0.1296  0.4621  0.5413
  958MOL0     C29231   5.658   3.972  10.100 -0.5476 -0.7197  1.0816
  958MOL0     C29232   5.721   3.865  10.182  0.4390  0.1263  0.4251
  958MOL0     C29233   5.703   3.885  10.334 -0.5265  0.8933  0.2618
  958MOL0     C29234   5.580   3.827  10.383 -0.0535 -0.3685 -0.0775
  958MOL0     C29235   5.456   3.920  10.360  0.0932  0.3645  0.4835
  958MOL0     C29236   5.327   3.860  10.404  0.0025 -0.0260 -1.0355
  958MOL0     C29237   5.206   3.973  10.390 -0.1601  0.5644 -0.0831
  958MOL0     C29238   5.079   3.916  10.443 -0.4091  0.5674  0.8864
  958MOL0    Cl29239   5.104   3.907  10.619 -0.5618 -0.0721  0.3136
  958MOL0     C29240   5.839   4.106   9.797  0.8347  0.3995 -0.0327
  958MOL0     C29241   5.870   4.224   9.731  0.4681 -0.1441 -0.6662
  958MOL0     O29242   5.855   4.626   9.882  0.0965  0.1043  0.3229
  958MOL0     C29243   6.007   4.806   9.749 -1.1731 -0.0459  0.3991
  958MOL0     C29244   6.090   4.892   9.684 -0.7112  0.0646  0.0819
  958MOL0     N29245   6.765   4.793   9.479 -0.2160 -1.1928  0.0824
  958MOL0     N29246   6.889   4.786   9.508 -0.2178  0.0173 -0.2076
  958MOL0     C29247   7.445   5.670  10.293  0.4297 -0.0761  0.1947
  958MOL0     C29248   7.541   5.761  10.336  0.4095 -0.4027  0.1674
  958MOL0     C29249   7.907   5.991  10.377 -0.6386 -0.5821  0.6588
  958MOL0     C29250   7.916   6.111  10.304  0.2687 -1.2826 -0.0816
  958MOL0     C29251   8.002   6.217  10.332  0.0997 -0.7734 -0.3692
  958MOL0     C29252   8.084   6.201  10.440 -0.2400  0.4189  0.8660
  958MOL0     O29253   8.181   6.278  10.477  0.6691 -0.0595  0.2275
  958MOL0     C29254   8.238   6.366  10.382 -1.0992 -0.6832  0.0375
  958MOL0     C29255   8.316   6.291  10.275 -0.0058 -0.5371 -0.1062
  958MOL0     C29256   8.438   6.203  10.325  0.9140 -0.5691  0.1728
  958MOL0     C29257   8.487   6.102  10.221 -0.4809  0.1789 -0.0340
  958MOL0     C29258   8.610   6.026  10.261 -0.5196  0.5361 -0.0957
  958MOL0     C29259   8.704   5.964  10.308 -0.1888 -0.3275  0.1655
  958MOL0     C29260   8.076   6.077  10.506  0.0696 -0.6249 -0.5806
  958MOL0     C29261   7.994   5.970  10.481 -0.0006 -0.0122 -0.4621
  958MOL0     C29262   8.010   5.841  10.562 -0.4519 -0.6422 -0.3161
  958MOL0     H29263   7.651   5.869  10.042  0.1373  0.0968  0.4566
  958MOL0     H29264   7.482   5.712   9.966 -0.5009 -0.0704  0.3822
  958MOL0     H29265   7.243   5.467  10.261  3.3470 -0.0788 -0.8909
  958MOL0     H29266   7.172   5.621  10.209 -1.5269 -0.5855  0.4086
  958MOL0     H29267   7.120   5.503   9.987 -0.1699  0.0835  0.4777
  958MOL0     H29268   7.014   5.468  10.129  0.4905 -0.1381  0.8159
  958MOL0     H29269   7.158   5.249  10.147 -1.4297 -3.4438 -0.8957
  958MOL0     H29270   7.239   5.287  10.014 -0.1067 -3.6372  0.5804
  958MOL0     H29271   6.933   5.258  10.025  1.8114 -0.2234  2.5388
  958MOL0     H29272   7.039   5.293   9.880  2.9932 -2.2330 -0.6159
  958MOL0     H29273   7.174   5.086   9.933  1.0378  2.3623  0.5016
  958MOL0     H29274   7.053   5.040  10.053 -0.1316  3.6762  1.9246
  958MOL0     H29275   6.881   5.037   9.848 -1.1775 -1.8075 -1.6457
  958MOL0     H29276   7.019   5.056   9.755  0.1824  0.1082  0.6728
  958MOL0     H29277   6.953   4.798   9.918 -0.6005 -4.9323 -4.9486
  958MOL0     H29278   7.117   4.850   9.902 -0.7221  0.3768  1.3152
  958MOL0     H29279   7.093   4.857   9.662 -0.8385  0.4233 -0.3967
  958MOL0     H29280   7.054   4.694   9.731  0.9856 -0.2770  0.8059
  958MOL0     H29281   6.739   4.868   9.792  0.4625 -0.9373  0.7832
  958MOL0     H29282   6.505   4.816   9.477  0.4114 -2.4712  0.8186
  958MOL0     H29283   6.483   4.793   9.642 -1.9924 -1.1734 -1.3697
  958MOL0     H29284   6.582   5.032   9.690 -2.5772 -0.1373  0.8079
  958MOL0     H29285   6.559   5.071   9.514  0.1324 -0.9913 -1.1643
  958MOL0     H29286   6.377   5.162   9.665 -3.5934 -0.2122  3.0542
  958MOL0     H29287   6.338   5.007   9.733 -0.0265  0.2631 -1.0289
  958MOL0     H29288   6.316   5.099   9.440  3.4620 -1.1477  0.5779
  958MOL0     H29289   6.179   5.106   9.545 -0.5335 -0.7035 -1.0579
  958MOL0     H29290   6.228   4.665   9.467  0.2740 -0.4135  0.7761
  958MOL0     H29291   6.043   4.531   9.567 -0.4783  0.2838 -1.4503
  958MOL0     H29292   5.689   4.454   9.897  0.9679  0.5458  0.0601
  958MOL0     H29293   5.619   4.258  10.023 -0.2897  0.1444 -0.6237
  958MOL0     H29294   5.651   4.061  10.164  0.0381 -0.3102  0.5951
  958MOL0     H29295   5.552   3.950  10.081 -0.6088  1.0451 -1.0777
  958MOL0     H29296   5.674   3.770  10.153 -2.4236  2.0897 -1.8887
  958MOL0     H29297   5.829   3.850  10.167  0.7845  2.0568  0.7837
  958MOL0     H29298   5.777   3.817  10.377  0.1890  2.6782  1.9768
  958MOL0     H29299   5.707   3.990  10.362  0.1482  1.1519 -0.7527
  958MOL0     H29300   5.593   3.812  10.491 -0.8195 -0.7355 -0.0259
  958MOL0     H29301   5.556   3.730  10.339  3.1766 -0.4479 -1.9791
  958MOL0     H29302   5.454   3.922  10.250 -2.5522  0.6656  0.4536
  958MOL0     H29303   5.459   4.018  10.408 -1.8986  0.7222  0.0045
  958MOL0     H29304   5.290   3.771  10.352 -3.6506  0.5993  0.1353
  958MOL0     H29305   5.355   3.827  10.504  2.7576 -0.7949 -1.9875
  958MOL0     H29306   5.195   3.988  10.282  0.0409 -3.7953 -0.9025
  958MOL0     H29307   5.232   4.067  10.439 -1.4223 -0.1258  2.0568
  958MOL0     H29308   5.004   3.992  10.420 -0.8343 -0.4542 -1.3741
  958MOL0     H29309   5.048   3.819  10.403 -1.6315  0.0551  2.8726
  958MOL0     H29310   5.903   4.020   9.781  2.4581  1.4947  0.3251
  958MOL0     H29311   5.939   4.212   9.648  2.9026  0.3420  1.1691
  958MOL0     H29312   5.955   4.836   9.840  1.2947 -1.5320  2.4132
  958MOL0     H29313   6.092   4.994   9.721  0.0995 -0.1554  0.6896
  958MOL0     H29314   7.394   5.607  10.365 -1.1069 -0.5572 -1.2532
  958MOL0     H29315   7.566   5.750  10.441  0.6090  3.5614  0.6702
  958MOL0     H29316   7.848   6.138  10.223  2.3594  3.8889 -0.5185
  958MOL0     H29317   7.981   6.310  10.279  0.8325 -1.3166 -1.6655
  958MOL0     H29318   8.297   6.435  10.444 -1.9103 -0.1890  0.2704
  958MOL0     H29319   8.165   6.432  10.336  1.7468  0.9719 -2.4615
  958MOL0     H29320   8.360   6.364  10.206 -0.0598 -1.1311 -0.7865
  958MOL0     H29321   8.245   6.237  10.211 -0.3147 -0.3312  0.0539
  958MOL0     H29322   8.400   6.165  10.420 -0.6367  2.1648  0.7576
  958MOL0     H29323   8.516   6.275  10.355 -0.8346  1.5394 -0.1057
  958MOL0     H29324   8.405   6.032  10.206  0.4436 -0.6856 -1.1687
  958MOL0     H29325   8.505   6.163  10.132  2.2798 -0.8968 -0.3142
  958MOL0     H29326   8.781   5.902  10.350  0.8647  0.2764 -0.7951
  958MOL0     H29327   8.140   6.080  10.594 -0.9265 -1.1835  0.1851
  958MOL0     H29328   8.053   5.768  10.493 -0.3030  1.1282 -2.2067
  958MOL0     H29329   8.066   5.863  10.653  0.9794  1.6957 -1.6546
  958MOL0     H29330   7.906   5.825  10.592 -0.2227  0.6319  1.2997
  959MOL0     O29331   3.381  10.065   4.445 -0.2437 -0.0494 -0.7341
  959MOL0     C29332   3.454  10.009   4.529 -0.3144  0.1254  0.5540
  959MOL0     O29333   3.435   9.881   4.594 -0.2150 -0.5254  0.3886
  959MOL0     C29334   3.316   9.814   4.576  0.4603  1.1755  0.1196
  959MOL0     C29335   3.195   9.870   4.535  0.0903 -0.0662  0.4144
  959MOL0     C29336   3.080   9.792   4.522 -0.0196  0.4390  0.0535
  959MOL0     C29337   3.083   9.650   4.539 -0.3185  0.1610  0.8326
  959MOL0     O29338   2.963   9.582   4.515  0.1661 -0.5905  0.0910
  959MOL0     C29339   2.962   9.444   4.540 -0.1915  0.5286 -0.4043
  959MOL0     C29340   2.833   9.386   4.492 -0.2429  0.4979  0.7661
  959MOL0     C29341   2.705   9.458   4.537  0.3249 -0.6882 -0.3073
  959MOL0     C29342   2.641   9.381   4.660 -0.2272 -0.2504  0.1771
  959MOL0     C29343   2.493   9.438   4.675 -0.1855  0.2030 -0.3190
  959MOL0     C29344   2.430   9.427   4.814  0.3112  0.1450 -0.4499
  959MOL0     C29345   2.510   9.513   4.917  0.6367  0.3264  0.2988
  959MOL0     C29346   2.433   9.547   5.042 -0.2305  0.1991  0.1715
  959MOL0     N29347   2.510   9.647   5.108 -1.1473 -0.0152  0.1458
  959MOL0     C29348   2.503   9.781   5.112  0.7924  0.1159  0.9789
  959MOL0     C29349   2.575   9.835   5.216  0.1656 -0.8018 -0.0953
  959MOL0     C29350   2.574   9.981   5.255 -0.2986 -0.3792 -0.2999
  959MOL0     C29351   2.474  10.001   5.368 -0.2212 -0.2260  0.0432
  959MOL0     C29352   2.472  10.148   5.423  0.1294 -0.4005 -0.9016
  959MOL0     C29353   2.606  10.177   5.484  0.5866 -0.0148 -0.9221
  959MOL0     O29354   2.678  10.259   5.396 -0.6330  0.1487  0.7653
  959MOL0     C29355   2.806  10.282   5.430 -0.0680  0.2883 -0.1884
  959MOL0     C29356   2.853  10.281   5.561  0.4482 -0.8884 -0.4820
  959MOL0     C29357   2.983  10.317   5.595 -0.6617 -0.4670  0.3691
  959MOL0     C29358   3.072  10.354   5.494 -0.0031 -0.0132 -0.2782
  959MOL0     C29359   3.209  10.409   5.523 -0.0464  0.4803 -0.5949
  959MOL0     O29360   3.243  10.416   5.663 -0.4865  0.2038  0.2991
  959MOL0     C29361   3.377  10.432   5.702  0.1551 -0.4266  0.2215
  959MOL0     C29362   3.416  10.380   5.828  0.4368  0.3586 -0.1987
  959MOL0     C29363   3.550  10.404   5.880 -0.3925 -0.3110  0.0210
  959MOL0     C29364   3.635  10.494   5.805 -0.1951 -0.4451 -0.1036
  959MOL0     O29365   3.765  10.512   5.848 -0.9830 -0.1148  0.4404
  959MOL0     C29366   3.810  10.467   5.972 -0.4913  0.1493 -0.6300
  959MOL0     C29367   3.927  10.549   6.019 -0.7812  0.1918 -0.0626
  959MOL0     C29368   4.062  10.505   5.949  0.5298  0.0020  0.6493
  959MOL0     C29369   4.171  10.565   6.023 -0.1967  0.1738  0.0712
  959MOL0     C29370   4.307  10.516   5.964 -0.0735 -0.2328 -0.7531
  959MOL0     C29371   4.430  10.552   6.047 -0.6744  1.0716 -0.4826
  959MOL0     C29372   4.459  10.706   6.041 -0.6771  0.3299  0.2153
  959MOL0     C29373   4.596  10.738   6.109  0.4452  0.4049  0.4671
  959MOL0    Cl29374   4.731  10.632   6.036  0.6084  0.1112  0.0514
  959MOL0     C29375   3.604  10.536   5.680  0.2613 -0.1892  0.6149
  959MOL0     C29376   3.471  10.515   5.637 -0.4928 -0.7976 -0.3346
  959MOL0     O29377   3.276  10.450   5.435 -0.6150 -0.2007 -0.3055
  959MOL0     C29378   3.036  10.331   5.363  0.0786  0.4764  0.7467
  959MOL0     C29379   2.903  10.305   5.338  0.7189  0.1368  0.2939
  959MOL0     N29380   2.643   9.724   5.269 -0.5935 -0.3551  0.3763
  959MOL0     N29381   2.602   9.618   5.202 -0.2741  0.4147  0.0416
  959MOL0     C29382   3.211   9.597   4.578 -0.0719  0.1155  0.7167
  959MOL0     C29383   3.326   9.674   4.597 -0.3601  1.1637  0.9840
  959MOL0     C29384   3.581  10.073   4.563  0.9892 -0.0433 -0.2781
  959MOL0     C29385   3.606  10.102   4.697 -0.3328 -0.3601 -0.0795
  959MOL0     C29386   3.723  10.168   4.745  0.2251 -0.2202  0.0093
  959MOL0     C29387   3.809  10.207   4.644 -0.0294 -0.3103  0.3006
  959MOL0     O29388   3.916  10.296   4.662  0.6829 -0.1766 -0.1433
  959MOL0     C29389   3.952  10.363   4.782 -0.0490 -0.0272 -0.5187
  959MOL0     C29390   4.088  10.428   4.781 -0.7411 -0.1870 -0.1346
  959MOL0     C29391   4.209  10.338   4.782  0.6263  0.2551 -0.4469
  959MOL0     C29392   4.209  10.227   4.680  0.5188  0.3956 -0.9803
  959MOL0     C29393   4.193  10.273   4.548  0.4920  0.2430  0.5149
  959MOL0     C29394   4.194  10.327   4.438 -0.1872  0.1627 -0.2779
  959MOL0     C29395   3.787  10.186   4.510 -0.0545 -0.1168 -0.2675
  959MOL0     C29396   3.674  10.114   4.467 -0.1785  1.1122  1.0102
  959MOL0     C29397   3.664  10.089   4.315  0.3015 -0.0296 -0.4734
  959MOL0     H29398   3.180   9.977   4.530  2.0397  0.5419  3.9897
  959MOL0     H29399   2.980   9.835   4.514  0.9983  2.7054 -1.4634
  959MOL0     H29400   3.046   9.393   4.491  0.5753 -0.4038  1.7543
  959MOL0     H29401   2.979   9.419   4.645  1.3074 -0.1475 -0.7670
  959MOL0     H29402   2.834   9.280   4.521  1.2341 -0.7168 -3.1491
  959MOL0     H29403   2.840   9.388   4.383  1.3070 -3.0453  0.6685
  959MOL0     H29404   2.630   9.463   4.458  1.8310  3.8566 -1.7830
  959MOL0     H29405   2.715   9.565   4.560 -3.1033 -0.9104  3.2093
  959MOL0     H29406   2.634   9.272   4.650 -0.5339 -0.1224 -1.2262
  959MOL0     H29407   2.699   9.407   4.748  1.0249  0.2973 -0.7775
  959MOL0     H29408   2.503   9.544   4.652  1.1765  0.0117 -0.6894
  959MOL0     H29409   2.428   9.387   4.604 -0.3864  1.3782 -0.9933
  959MOL0     H29410   2.326   9.461   4.812  0.1236 -0.2893 -4.2326
  959MOL0     H29411   2.437   9.320   4.838  3.0432  0.3013 -0.1888
  959MOL0     H29412   2.551   9.602   4.867 -0.5590  0.0994 -1.1691
  959MOL0     H29413   2.604   9.462   4.939  1.1689  0.2846 -1.8644
  959MOL0     H29414   2.329   9.577   5.027 -1.3389 -1.9946  2.7749
  959MOL0     H29415   2.430   9.460   5.107 -1.6488  0.0415 -0.0669
  959MOL0     H29416   2.435   9.839   5.051  1.7404  1.6905  1.3542
  959MOL0     H29417   2.668  10.016   5.298 -0.8342  0.1627  0.4442
  959MOL0     H29418   2.554  10.056   5.178  0.1641  0.9149  0.8186
  959MOL0     H29419   2.378   9.992   5.318  0.5941  2.3583 -2.3027
  959MOL0     H29420   2.488   9.931   5.450 -3.1927 -0.9460  0.0225
  959MOL0     H29421   2.401  10.148   5.506 -1.6588  2.4670 -2.2866
  959MOL0     H29422   2.443  10.219   5.345 -2.1562 -1.8996 -1.5171
  959MOL0     H29423   2.659  10.087   5.519 -1.0941 -0.3291  0.9499
  959MOL0     H29424   2.587  10.236   5.574 -2.2622 -0.9165 -0.8545
  959MOL0     H29425   2.792  10.263   5.649 -0.2781  2.5456 -0.1730
  959MOL0     H29426   3.010  10.345   5.696 -0.7374 -0.9658  0.5319
  959MOL0     H29427   3.337  10.322   5.875 -0.6352  0.3763 -1.9071
  959MOL0     H29428   3.572  10.363   5.978 -2.0482 -1.1821  0.0571
  959MOL0     H29429   3.732  10.483   6.047 -1.0597  1.2932 -1.4201
  959MOL0     H29430   3.856  10.368   5.966  3.5988  1.8540 -0.4980
  959MOL0     H29431   3.907  10.653   5.994  0.1225  0.4894  0.4223
  959MOL0     H29432   3.945  10.534   6.126 -0.1803  0.4456 -0.1265
  959MOL0     H29433   4.068  10.396   5.939  2.9117 -0.1778  3.0503
  959MOL0     H29434   4.061  10.553   5.851 -3.0215 -1.8439 -0.3869
  959MOL0     H29435   4.162  10.521   6.123 -1.5290 -1.2693 -0.6302
  959MOL0     H29436   4.160  10.673   6.020 -0.7884  0.1003 -2.8457
  959MOL0     H29437   4.315  10.552   5.861 -1.2634 -0.6126 -0.9815
  959MOL0     H29438   4.320  10.408   5.956  2.2071 -0.1121  0.3343
  959MOL0     H29439   4.413  10.512   6.148 -0.1630 -1.8314 -1.4712
  959MOL0     H29440   4.517  10.511   5.997 -1.2485  0.1985 -0.7896
  959MOL0     H29441   4.381  10.766   6.088  0.7754  1.7883  0.9079
  959MOL0     H29442   4.474  10.743   5.939  3.8430  0.5057  0.7208
  959MOL0     H29443   4.620  10.843   6.091  0.1240  0.5360  0.7856
  959MOL0     H29444   4.591  10.720   6.217 -0.8651  1.1576  0.5587
  959MOL0     H29445   3.676  10.591   5.621  0.2128  0.3560  1.0497
  959MOL0     H29446   3.449  10.568   5.545 -0.0038  0.2236  0.1294
  959MOL0     H29447   3.110  10.341   5.285 -0.8509  1.3382 -0.0422
  959MOL0     H29448   2.876  10.286   5.234  4.6807  0.6947 -0.9744
  959MOL0     H29449   3.225   9.490   4.567  2.0827  0.5829 -2.3346
  959MOL0     H29450   3.411   9.610   4.619  1.5854  3.0446 -0.5788
  959MOL0     H29451   3.545  10.053   4.772  0.5390 -1.6418 -0.1778
  959MOL0     H29452   3.733  10.181   4.852 -0.7066  0.0012  0.0811
  959MOL0     H29453   3.959  10.293   4.866  1.9538  0.5410 -0.1603
  959MOL0     H29454   3.880  10.445   4.789 -2.6393 -1.8813 -2.9828
  959MOL0     H29455   4.107  10.492   4.868 -0.3821  0.3257 -0.5847
  959MOL0     H29456   4.100  10.486   4.689  1.8084  0.4704  0.5227
  959MOL0     H29457   4.229  10.294   4.880  1.5548  0.8162 -0.3648
  959MOL0     H29458   4.304  10.392   4.777  1.2554 -0.4902  1.9717
  959MOL0     H29459   4.301  10.169   4.692 -0.8668 -2.0860 -1.6379
  959MOL0     H29460   4.128  10.156   4.700 -0.5532  0.7012 -3.8446
  959MOL0     H29461   4.185  10.362   4.337 -0.3882  2.0136  0.3380
  959MOL0     H29462   3.866  10.219   4.443  2.8184  0.9146  3.3149
  959MOL0     H29463   3.573  10.142   4.287  1.4570  1.6440 -1.2393
  959MOL0     H29464   3.744  10.140   4.261  2.1850 -3.2031 -0.9542
  959MOL0     H29465   3.662   9.986   4.280 -1.8303 -0.5274  0.9259
  960MOL0     O29466   4.511   5.084   6.304 -0.0017 -0.2737  0.6724
  960MOL0     C29467   4.441   5.050   6.205  0.1730 -0.1992 -0.6347
  960MOL0     O29468   4.454   5.096   6.080 -0.2711 -0.1732 -0.0924
  960MOL0     C29469   4.567   5.156   6.034  0.2390  0.1655  0.8903
  960MOL0     C29470   4.560   5.195   5.902  0.6065  0.8011 -0.4227
  960MOL0     C29471   4.667   5.254   5.830 -0.1124 -0.2932  0.2282
  960MOL0     C29472   4.783   5.281   5.904 -0.2633 -0.0936 -0.0299
  960MOL0     O29473   4.893   5.334   5.834  0.4478  0.3655  0.2843
  960MOL0     C29474   5.020   5.336   5.887  0.4139 -0.0574  0.2779
  960MOL0     C29475   5.098   5.410   5.787  0.2337 -0.0049 -0.3032
  960MOL0     C29476   5.247   5.407   5.818  0.1902 -0.3687 -0.3240
  960MOL0     C29477   5.324   5.276   5.774  0.0478  0.1008 -0.4871
  960MOL0     C29478   5.474   5.282   5.817  1.3729 -0.3376 -0.4194
  960MOL0     C29479   5.510   5.179   5.919  0.0631 -0.5066 -0.5976
  960MOL0     C29480   5.651   5.199   5.982  0.4056 -0.6782  0.2307
  960MOL0     C29481   5.766   5.171   5.889 -0.3971 -0.8457  0.3518
  960MOL0     N29482   5.902   5.193   5.938 -0.2899 -0.2376  0.0883
  960MOL0     C29483   5.999   5.284   5.892 -1.0823 -0.7190 -0.5560
  960MOL0     C29484   6.091   5.287   5.994 -0.5936  0.5353  1.5344
  960MOL0     C29485   6.211   5.376   5.989  0.2468 -0.1845  0.2746
  960MOL0     C29486   6.343   5.322   6.042 -0.0347 -0.5674 -0.0331
  960MOL0     C29487   6.397   5.217   5.943  0.2375  0.3983  0.3094
  960MOL0     C29488   6.547   5.189   5.971 -0.2925 -0.0981  0.4534
  960MOL0     O29489   6.640   5.281   5.910  1.2438  0.2485 -0.1313
  960MOL0     C29490   6.693   5.259   5.786 -0.2114  0.5224  0.1879
  960MOL0     C29491   6.653   5.157   5.697  0.1391 -0.5727 -0.1186
  960MOL0     C29492   6.704   5.128   5.573  0.0276 -0.6973  0.3853
  960MOL0     C29493   6.809   5.211   5.530  0.6585 -0.1785  0.9918
  960MOL0     C29494   6.855   5.189   5.384 -0.0407 -0.1680 -0.2218
  960MOL0     O29495   6.989   5.219   5.358 -0.0682  0.2583 -0.1389
  960MOL0     C29496   7.045   5.200   5.232  0.4092 -0.9867  0.1378
  960MOL0     C29497   7.042   5.318   5.148  0.4027 -0.6991  0.3741
  960MOL0     C29498   7.102   5.320   5.021 -0.1637  0.1084  0.1045
  960MOL0     C29499   7.158   5.204   4.967 -0.2455 -0.6597  0.6256
  960MOL0     O29500   7.221   5.206   4.840  0.5117  0.3837  0.5633
  960MOL0     C29501   7.293   5.092   4.786 -0.2867  0.2933  0.1748
  960MOL0     C29502   7.352   5.132   4.654  0.3116  0.5908  0.5363
  960MOL0     C29503   7.460   5.032   4.604 -0.6282 -0.2887 -0.5915
  960MOL0     C29504   7.539   5.076   4.483 -0.4933 -1.2453  0.3128
  960MOL0     C29505   7.640   4.968   4.434  0.4344 -0.3523  0.6517
  960MOL0     C29506   7.708   5.023   4.307  0.3793  0.3074 -0.1024
  960MOL0     C29507   7.624   4.983   4.180  0.2686  0.2467  0.5557
  960MOL0     C29508   7.653   4.844   4.130  0.5689 -0.3233 -0.1277
  960MOL0    Cl29509   7.822   4.822   4.076 -0.4233  0.3307  0.5607
  960MOL0     C29510   7.163   5.094   5.052 -0.8351  0.0524  0.8515
  960MOL0     C29511   7.122   5.093   5.189 -0.1163 -0.1554  0.3177
  960MOL0     O29512   6.780   5.130   5.300 -0.8184 -0.9169  0.3270
  960MOL0     C29513   6.851   5.318   5.613 -0.9655 -0.5727 -0.8452
  960MOL0     C29514   6.797   5.334   5.747 -0.7104 -0.5039  0.2367
  960MOL0     N29515   6.048   5.211   6.098 -0.4227  0.2776  0.4295
  960MOL0     N29516   5.944   5.146   6.062  0.4008 -0.0974  0.2257
  960MOL0     C29517   4.793   5.250   6.038 -0.4714  0.6058 -0.4430
  960MOL0     C29518   4.689   5.180   6.101  1.1431  0.5501 -0.6838
  960MOL0     C29519   4.312   4.974   6.226  0.3529  0.4920  0.2062
  960MOL0     C29520   4.208   4.996   6.134 -0.4404  1.2143 -0.6072
  960MOL0     C29521   4.085   4.937   6.150 -0.8214 -0.8180 -0.1187
  960MOL0     C29522   4.058   4.853   6.260 -0.0789  0.3513  1.0917
  960MOL0     O29523   3.931   4.805   6.268 -0.2728 -0.9979  0.1200
  960MOL0     C29524   3.901   4.697   6.353  0.2422 -0.0529  0.3974
  960MOL0     C29525   3.782   4.618   6.300  0.6747  0.2143 -0.5908
  960MOL0     C29526   3.644   4.699   6.292 -0.1912  0.5163  0.3840
  960MOL0     C29527   3.518   4.625   6.240  0.2476 -0.5085 -0.6493
  960MOL0     C29528   3.396   4.711   6.253 -0.6367 -0.0691 -0.5754
  960MOL0     C29529   3.303   4.786   6.268 -0.3248 -0.2656 -0.2007
  960MOL0     C29530   4.158   4.838   6.352 -0.2879  0.2256  0.7675
  960MOL0     C29531   4.280   4.892   6.335 -0.1029 -0.3289  0.2921
  960MOL0     C29532   4.389   4.852   6.430 -0.2741  0.1379  0.2098
  960MOL0     H29533   4.465   5.185   5.849  0.8344  2.6627 -1.2476
  960MOL0     H29534   4.667   5.286   5.726 -1.3650  1.1421  0.6256
  960MOL0     H29535   5.027   5.398   5.977  1.3776  1.1802 -0.6118
  960MOL0     H29536   5.057   5.233   5.893  2.2644  0.1394 -3.9904
  960MOL0     H29537   5.066   5.514   5.789 -0.7241 -0.2606 -1.4472
  960MOL0     H29538   5.084   5.361   5.690  3.1640 -0.8140 -0.4227
  960MOL0     H29539   5.255   5.423   5.926 -1.0092  0.4475 -0.3410
  960MOL0     H29540   5.301   5.490   5.773  1.1254  0.5618  2.2894
  960MOL0     H29541   5.274   5.184   5.807  0.3517  0.2911  0.5407
  960MOL0     H29542   5.329   5.276   5.665 -1.5723 -0.9184 -0.6015
  960MOL0     H29543   5.537   5.265   5.730  1.1889 -0.1417 -0.5912
  960MOL0     H29544   5.485   5.385   5.851 -3.5084  0.6955 -1.1943
  960MOL0     H29545   5.441   5.182   6.004  2.1070  0.5219  1.1328
  960MOL0     H29546   5.501   5.077   5.881 -0.1540 -1.2204  1.2598
  960MOL0     H29547   5.661   5.130   6.066  0.6823 -0.4760  0.3655
  960MOL0     H29548   5.666   5.298   6.026 -0.4543 -0.4872  0.1227
  960MOL0     H29549   5.753   5.068   5.854  0.0580  0.4239 -4.3004
  960MOL0     H29550   5.763   5.241   5.805 -0.3994  0.0479  1.0802
  960MOL0     H29551   6.010   5.336   5.798 -2.5396  1.9179  0.6264
  960MOL0     H29552   6.215   5.405   5.883 -0.2752 -0.8366  0.0744
  960MOL0     H29553   6.175   5.466   6.039 -1.1791  0.2634 -1.4533
  960MOL0     H29554   6.416   5.403   6.044  0.7024 -1.1165 -2.2907
  960MOL0     H29555   6.325   5.287   6.145  1.1331  0.6122  0.5913
  960MOL0     H29556   6.401   5.259   5.842  2.2409  1.5208  0.7917
  960MOL0     H29557   6.337   5.126   5.944 -0.2937  0.7433  1.7379
  960MOL0     H29558   6.570   5.092   5.926  0.7920  1.1854 -1.9768
  960MOL0     H29559   6.566   5.188   6.078 -0.4236 -0.5860  0.4738
  960MOL0     H29560   6.574   5.090   5.730  0.7879 -1.7472 -0.8382
  960MOL0     H29561   6.663   5.055   5.504  1.0259  1.4171 -2.6236
  960MOL0     H29562   6.991   5.404   5.192  0.8244 -0.1112 -0.2563
  960MOL0     H29563   7.094   5.410   4.960 -0.8968  2.2933  3.1796
  960MOL0     H29564   7.373   5.064   4.855  0.9465 -0.8174 -1.6246
  960MOL0     H29565   7.223   5.009   4.772  0.6089 -0.4418 -0.0715
  960MOL0     H29566   7.271   5.133   4.580 -0.3992  1.8389  1.3034
  960MOL0     H29567   7.386   5.236   4.659 -1.2217  1.3111 -2.0584
  960MOL0     H29568   7.537   5.018   4.680 -0.9520 -0.2665 -0.2552
  960MOL0     H29569   7.426   4.930   4.582 -1.2319 -0.1921 -0.1359
  960MOL0     H29570   7.596   5.166   4.508 -0.2554 -0.7444 -1.7926
  960MOL0     H29571   7.490   5.113   4.393  2.1819  0.4848 -0.5527
  960MOL0     H29572   7.582   4.878   4.413  1.0236 -0.8719  1.2090
  960MOL0     H29573   7.714   4.925   4.502  1.7347  1.0158  0.1546
  960MOL0     H29574   7.713   5.132   4.300 -1.4819  0.4801  0.7641
  960MOL0     H29575   7.811   4.987   4.306 -0.7046 -3.3739  1.4413
  960MOL0     H29576   7.645   5.050   4.096  0.5470  1.8994  1.9036
  960MOL0     H29577   7.517   5.004   4.189 -0.3848 -1.6613 -1.6896
  960MOL0     H29578   7.630   4.769   4.206  1.5000  3.2459  4.0877
  960MOL0     H29579   7.586   4.828   4.045 -0.6333  2.8197  0.1246
  960MOL0     H29580   7.220   5.004   5.030  0.2544  0.4541  1.9093
  960MOL0     H29581   7.145   5.014   5.260 -0.6796 -0.4464  0.1754
  960MOL0     H29582   6.935   5.379   5.580  0.2712 -1.7202  0.0804
  960MOL0     H29583   6.842   5.419   5.798  0.9302 -1.3378  0.2326
  960MOL0     H29584   4.888   5.268   6.089  0.5439 -0.0776 -2.0273
  960MOL0     H29585   4.710   5.144   6.202  3.5543  1.6038 -0.7490
  960MOL0     H29586   4.225   5.062   6.049 -3.9919 -0.3328 -2.7779
  960MOL0     H29587   4.005   4.953   6.078 -1.0396 -0.8453  0.1158
  960MOL0     H29588   3.873   4.737   6.451 -0.7143  1.0649 -0.3175
  960MOL0     H29589   3.990   4.633   6.360  1.5754  1.3052 -2.3760
  960MOL0     H29590   3.759   4.540   6.373  1.0555  1.8991  1.4615
  960MOL0     H29591   3.814   4.577   6.204  1.0382  0.7853 -0.7230
  960MOL0     H29592   3.669   4.780   6.223  1.5885 -0.9319 -0.7590
  960MOL0     H29593   3.618   4.745   6.388 -2.1740 -1.2937  0.7966
  960MOL0     H29594   3.534   4.603   6.134 -2.2223  2.0154 -1.6668
  960MOL0     H29595   3.524   4.533   6.299 -0.6463 -1.0012 -1.3115
  960MOL0     H29596   3.207   4.834   6.275 -1.3868 -2.0374 -1.7317
  960MOL0     H29597   4.123   4.787   6.441 -1.7551  0.1564  0.1907
  960MOL0     H29598   4.485   4.846   6.378  1.5137  5.9423  2.1247
  960MOL0     H29599   4.398   4.931   6.504 -0.6246 -0.3535  0.7825
  960MOL0     H29600   4.374   4.760   6.487  0.1174 -1.2451 -1.8170
  961MOL0     O29601   3.555   9.290   4.665 -1.2223 -0.7549 -0.1341
  961MOL0     C29602   3.577   9.178   4.621 -0.0338  0.2057 -0.8112
  961MOL0     O29603   3.680   9.139   4.539 -0.5621  0.3342  0.2243
  961MOL0     C29604   3.796   9.207   4.517 -1.3036 -0.1087 -0.3545
  961MOL0     C29605   3.879   9.147   4.423 -0.1467  0.3599  0.9330
  961MOL0     C29606   4.005   9.191   4.385 -0.1758  0.1851 -0.1376
  961MOL0     C29607   4.069   9.292   4.464  0.4669  0.7842  0.6687
  961MOL0     O29608   4.204   9.306   4.456  0.1923  0.5674  0.1268
  961MOL0     C29609   4.225   9.444   4.401  0.3844 -0.1341 -0.0336
  961MOL0     C29610   4.373   9.459   4.370 -0.0075 -0.0686 -0.6157
  961MOL0     C29611   4.428   9.363   4.266  0.3967 -0.3857 -0.9764
  961MOL0     C29612   4.582   9.370   4.263  0.6262  0.7825  0.1790
  961MOL0     C29613   4.651   9.302   4.139  0.2749 -0.8636  0.1663
  961MOL0     C29614   4.788   9.361   4.112  0.0503  0.2495  0.0074
  961MOL0     C29615   4.890   9.370   4.228 -0.0098  0.4321  0.2463
  961MOL0     C29616   4.930   9.232   4.279 -0.4164 -0.8903 -0.6645
  961MOL0     N29617   5.023   9.175   4.183  0.0108  0.7031  0.0719
  961MOL0     C29618   4.991   9.083   4.089  0.0035 -0.3280  0.0593
  961MOL0     C29619   5.112   9.065   4.024 -0.1803  0.1168 -0.2015
  961MOL0     C29620   5.140   8.989   3.894 -0.0543 -0.2709  0.1218
  961MOL0     C29621   5.223   9.066   3.785  0.3037 -0.4595  0.0527
  961MOL0     C29622   5.157   9.195   3.744  0.4733 -0.1317  1.1897
  961MOL0     C29623   5.206   9.238   3.604 -1.0545 -0.7030  0.4787
  961MOL0     O29624   5.172   9.375   3.574  0.3894 -0.1757 -0.9082
  961MOL0     C29625   5.044   9.403   3.541 -0.2814 -0.2623 -0.5102
  961MOL0     C29626   5.006   9.539   3.541  0.1037  0.5560 -1.0176
  961MOL0     C29627   4.874   9.576   3.511 -0.2785 -0.2185 -0.7807
  961MOL0     C29628   4.777   9.482   3.484  0.5658  0.8434 -0.3815
  961MOL0     C29629   4.635   9.513   3.459 -1.4215  0.1160  0.3208
  961MOL0     O29630   4.610   9.645   3.455  0.5944 -0.7576  0.4614
  961MOL0     C29631   4.492   9.703   3.446 -0.4495 -0.3728  0.7584
  961MOL0     C29632   4.502   9.842   3.441  0.4632 -0.1101  0.3119
  961MOL0     C29633   4.391   9.921   3.453  0.2343 -0.3320 -0.5076
  961MOL0     C29634   4.257   9.874   3.436  0.4956 -0.3710  0.3820
  961MOL0     O29635   4.151   9.961   3.455 -0.1072  0.1342 -0.1746
  961MOL0     C29636   4.019   9.895   3.469  0.1282  0.3713  0.5279
  961MOL0     C29637   3.922   9.991   3.537  0.7886 -1.5268 -0.2557
  961MOL0     C29638   3.886  10.113   3.439  0.3442 -0.0029  0.0198
  961MOL0     C29639   3.786  10.208   3.509 -1.0717 -0.3428  0.0628
  961MOL0     C29640   3.755  10.334   3.418 -0.1100 -0.7306 -0.2992
  961MOL0     C29641   3.637  10.413   3.460  0.0785 -0.1471 -0.3294
  961MOL0     C29642   3.674  10.496   3.581 -0.1401  0.1947 -0.6793
  961MOL0     C29643   3.560  10.579   3.642  0.6128  0.5938 -0.3656
  961MOL0    Cl29644   3.412  10.482   3.685 -0.2303 -0.5066  0.3205
  961MOL0     C29645   4.254   9.733   3.426 -0.0735  0.1165  0.0225
  961MOL0     C29646   4.371   9.647   3.432 -0.1525  0.3348 -0.0714
  961MOL0     O29647   4.558   9.419   3.448  0.3286 -0.0561 -0.1992
  961MOL0     C29648   4.810   9.348   3.500 -0.5953 -0.3102 -1.0424
  961MOL0     C29649   4.946   9.302   3.526 -0.1478 -0.1180 -0.0322
  961MOL0     N29650   5.214   9.138   4.087 -0.4213 -0.2510 -0.0262
  961MOL0     N29651   5.161   9.200   4.185 -0.2536  0.1184 -0.4080
  961MOL0     C29652   3.979   9.373   4.556 -0.5567  0.4749 -0.4912
  961MOL0     C29653   3.847   9.328   4.578  0.1080 -0.1833  0.2200
  961MOL0     C29654   3.449   9.098   4.626 -0.1830  0.0394  0.7186
  961MOL0     C29655   3.424   9.022   4.513 -1.0556  0.1735 -0.7816
  961MOL0     C29656   3.309   8.949   4.504  0.2538  0.7448 -0.4527
  961MOL0     C29657   3.203   8.954   4.600 -0.2890  0.0687 -0.4879
  961MOL0     O29658   3.083   8.892   4.570 -0.6506  0.2207 -0.0214
  961MOL0     C29659   2.970   8.978   4.579 -0.7156  0.0222  0.4388
  961MOL0     C29660   2.891   8.966   4.708  1.3390 -0.7947 -0.8250
  961MOL0     C29661   2.821   8.832   4.738  0.0784  0.1055 -0.1867
  961MOL0     C29662   2.717   8.787   4.637  0.9810 -0.2946  0.3369
  961MOL0     C29663   2.613   8.881   4.627  0.1400  0.8203 -0.6821
  961MOL0     C29664   2.529   8.964   4.618 -0.3045  0.1742  0.2437
  961MOL0     C29665   3.225   9.039   4.709  0.5786  0.3430 -0.0248
  961MOL0     C29666   3.346   9.106   4.723  0.0915 -1.2182  0.1378
  961MOL0     C29667   3.354   9.190   4.853 -1.2916  0.8984 -0.0436
  961MOL0     H29668   3.849   9.057   4.370  2.7802  0.0245 -0.3878
  961MOL0     H29669   4.069   9.136   4.317  0.5747 -0.7997  1.3065
  961MOL0     H29670   4.172   9.446   4.305  1.9825  2.4026 -0.9689
  961MOL0     H29671   4.196   9.523   4.471 -2.4817 -0.4425 -0.7489
  961MOL0     H29672   4.429   9.449   4.463  0.0456 -1.5012 -0.7711
  961MOL0     H29673   4.386   9.559   4.327  0.6305  1.0446  1.9812
  961MOL0     H29674   4.385   9.392   4.170 -0.2182 -1.1198 -0.9317
  961MOL0     H29675   4.404   9.258   4.289 -0.5718  0.2972  1.3636
  961MOL0     H29676   4.608   9.476   4.272  1.3394  0.4881  2.4963
  961MOL0     H29677   4.625   9.320   4.350 -1.9647 -2.0489 -0.0242
  961MOL0     H29678   4.668   9.194   4.145  1.3070 -0.8906 -2.3158
  961MOL0     H29679   4.584   9.322   4.055 -0.1528 -0.8689  0.4981
  961MOL0     H29680   4.839   9.306   4.033  0.1449  1.9263 -1.1617
  961MOL0     H29681   4.774   9.461   4.069 -5.2414  0.2573  1.0940
  961MOL0     H29682   4.856   9.444   4.300  1.9338  2.0980 -0.4638
  961MOL0     H29683   4.978   9.406   4.174  0.0410 -3.3727 -2.6364
  961MOL0     H29684   4.964   9.249   4.381 -1.6492 -0.4867 -0.3000
  961MOL0     H29685   4.843   9.166   4.294  0.1791 -1.5892 -0.2115
  961MOL0     H29686   4.899   9.036   4.056  0.8516 -0.7195 -1.9647
  961MOL0     H29687   5.188   8.895   3.923 -1.1510 -0.7809  0.3408
  961MOL0     H29688   5.049   8.962   3.839  1.7745 -0.5721 -3.0444
  961MOL0     H29689   5.323   9.087   3.826 -0.0229  0.1799  0.5515
  961MOL0     H29690   5.233   9.003   3.696  1.5135  0.9693 -0.8881
  961MOL0     H29691   5.194   9.270   3.815  0.7937  1.8024 -0.8875
  961MOL0     H29692   5.048   9.196   3.756  0.3285  2.4552  0.4631
  961MOL0     H29693   5.187   9.172   3.519  1.8009 -0.1143 -0.7220
  961MOL0     H29694   5.316   9.237   3.604 -0.8305  3.4557 -1.5901
  961MOL0     H29695   5.079   9.617   3.561  0.4936  1.0287 -3.9078
  961MOL0     H29696   4.851   9.682   3.514 -0.2666 -0.2276 -0.3080
  961MOL0     H29697   4.600   9.887   3.456  0.5025  0.3305 -1.1492
  961MOL0     H29698   4.418  10.026   3.461  1.8656 -0.6336 -1.5848
  961MOL0     H29699   3.991   9.870   3.366  0.4222  0.6022  0.3920
  961MOL0     H29700   4.013   9.805   3.531 -2.1969  0.8537  1.0919
  961MOL0     H29701   3.832   9.933   3.560  1.0794 -1.1519  1.9937
  961MOL0     H29702   3.956  10.027   3.634  0.1827  1.3153 -1.0066
  961MOL0     H29703   3.977  10.171   3.420  0.6403 -0.2692  0.5912
  961MOL0     H29704   3.842  10.076   3.346 -2.4862  3.9852 -0.4433
  961MOL0     H29705   3.838  10.255   3.593  1.3997  0.1331 -1.6243
  961MOL0     H29706   3.703  10.149   3.549  1.4120 -2.1994  2.8658
  961MOL0     H29707   3.724  10.291   3.322  0.3678 -0.1780 -0.7123
  961MOL0     H29708   3.832  10.410   3.404 -2.2301  2.0698  2.0874
  961MOL0     H29709   3.592  10.472   3.379 -0.9451  2.8145  2.2041
  961MOL0     H29710   3.557  10.343   3.487 -0.5971  1.2994  1.6692
  961MOL0     H29711   3.757  10.564   3.560 -0.0208 -0.0104 -0.8744
  961MOL0     H29712   3.708  10.431   3.662 -0.6014  0.2104 -0.4679
  961MOL0     H29713   3.604  10.628   3.729  2.9118 -3.2546  0.8796
  961MOL0     H29714   3.528  10.647   3.562 -1.1921  0.1597 -0.0371
  961MOL0     H29715   4.159   9.680   3.420  0.0415 -0.1292  0.3464
  961MOL0     H29716   4.361   9.539   3.423 -0.8297  0.3023  0.9001
  961MOL0     H29717   4.733   9.271   3.501 -1.1676  0.2054  1.4917
  961MOL0     H29718   4.968   9.196   3.532  3.2473  0.5402  2.5114
  961MOL0     H29719   4.012   9.459   4.614 -0.9472 -0.5073  1.2299
  961MOL0     H29720   3.796   9.381   4.658  1.7390  1.0503  0.5097
  961MOL0     H29721   3.488   9.028   4.426 -1.4703  1.1593 -1.0373
  961MOL0     H29722   3.300   8.887   4.416  0.1622 -1.9933  1.3544
  961MOL0     H29723   2.917   8.941   4.491 -0.1022 -0.7908  0.3987
  961MOL0     H29724   2.989   9.082   4.551 -0.1179  0.5301  2.5888
  961MOL0     H29725   2.819   9.048   4.713 -0.4591 -2.3826  0.9271
  961MOL0     H29726   2.958   8.969   4.795  0.8581 -1.8681 -0.3963
  961MOL0     H29727   2.766   8.844   4.831  0.4597  0.1979  0.0280
  961MOL0     H29728   2.894   8.752   4.754 -0.3133  0.1544  2.1301
  961MOL0     H29729   2.775   8.768   4.547  0.1299 -1.8589  0.0900
  961MOL0     H29730   2.661   8.695   4.655 -2.7367  1.7964  0.4897
  961MOL0     H29731   2.453   9.039   4.618 -2.2498 -1.6400  2.4438
  961MOL0     H29732   3.144   9.054   4.779 -0.1072 -1.9765 -0.2331
  961MOL0     H29733   3.304   9.287   4.847  1.5335  2.5367  0.8216
  961MOL0     H29734   3.311   9.133   4.936  1.3508 -0.5040  0.4922
  961MOL0     H29735   3.458   9.207   4.881 -0.7688 -2.0562  0.1872
  962MOL0     O29736   3.237   9.972   5.389  0.0108  0.2741  0.3337
  962MOL0     C29737   3.254   9.873   5.456  0.0906 -0.1686 -0.0465
  962MOL0     O29738   3.363   9.848   5.526  0.1750 -0.1460 -0.4457
  962MOL0     C29739   3.477   9.923   5.510  0.4955  0.5649  0.0360
  962MOL0     C29740   3.588   9.852   5.481  0.1143 -0.2098 -0.5673
  962MOL0     C29741   3.716   9.913   5.483  0.0912 -0.1081 -0.6013
  962MOL0     C29742   3.728  10.051   5.501 -0.5932 -0.1281  0.3127
  962MOL0     O29743   3.858  10.106   5.514 -0.3079 -0.1735  0.1680
  962MOL0     C29744   3.877  10.244   5.532 -0.3116  0.0356 -0.2220
  962MOL0     C29745   4.027  10.251   5.557 -0.4072 -0.4046  0.0391
  962MOL0     C29746   4.086  10.392   5.559  0.0716  0.4794 -0.2902
  962MOL0     C29747   4.092  10.449   5.418 -0.5956 -0.4643 -0.1424
  962MOL0     C29748   4.159  10.592   5.407  0.4817  0.0264 -0.2084
  962MOL0     C29749   4.077  10.723   5.447 -0.1397  0.7313 -1.1170
  962MOL0     C29750   4.029  10.728   5.594 -0.4720  1.3682  0.7200
  962MOL0     C29751   4.006  10.870   5.643  0.5799 -0.4083 -1.1060
  962MOL0     N29752   4.128  10.941   5.653  0.1329 -0.4099  0.7009
  962MOL0     C29753   4.248  10.927   5.730 -0.0116 -0.7538 -0.1233
  962MOL0     C29754   4.321  11.035   5.690 -0.6926  0.2876  0.2411
  962MOL0     C29755   4.471  11.048   5.725 -0.1082  0.6045  0.2382
  962MOL0     C29756   4.543  11.046   5.587  1.0771  0.1788  0.0011
  962MOL0     C29757   4.582  10.918   5.516 -0.9374 -0.4576 -0.1351
  962MOL0     C29758   4.546  10.925   5.367 -0.4091 -0.2393  0.1175
  962MOL0     O29759   4.618  10.829   5.285 -0.6787  0.7813 -0.2427
  962MOL0     C29760   4.739  10.854   5.228 -0.1457 -0.0509 -0.3828
  962MOL0     C29761   4.822  10.965   5.270 -0.1319  0.5168 -0.6332
  962MOL0     C29762   4.930  11.002   5.203 -0.6046 -0.5663  0.4690
  962MOL0     C29763   4.970  10.931   5.083 -0.3804 -0.2335  0.2930
  962MOL0     C29764   5.094  10.967   5.010 -0.2734  0.0584 -1.3932
  962MOL0     O29765   5.098  10.945   4.873 -0.0126  0.4580 -0.4813
  962MOL0     C29766   5.217  10.987   4.817 -0.1666  0.1050  0.6040
  962MOL0     C29767   5.296  10.905   4.741 -0.1764  0.4919 -0.1451
  962MOL0     C29768   5.411  10.949   4.672  0.1538  0.4365  0.9567
  962MOL0     C29769   5.443  11.088   4.682 -0.5221  0.8508  0.4471
  962MOL0     O29770   5.548  11.153   4.610 -0.3175  0.3511 -0.2234
  962MOL0     C29771   5.658  11.075   4.559  0.6094 -0.1381  0.3789
  962MOL0     C29772   5.771  11.172   4.510 -0.3106  0.2681  0.4633
  962MOL0     C29773   5.902  11.094   4.481  0.1312  0.2306 -0.3973
  962MOL0     C29774   6.016  11.194   4.459  0.2659  0.2899  0.0063
  962MOL0     C29775   6.132  11.116   4.409  0.2652  0.9782 -0.1292
  962MOL0     C29776   6.263  11.182   4.414 -0.0045  1.2271 -0.9326
  962MOL0     C29777   6.372  11.076   4.383 -0.1812 -0.3274 -0.5558
  962MOL0     C29778   6.505  11.147   4.346  0.2210 -0.8210  0.7656
  962MOL0    Cl29779   6.589  11.043   4.220  0.0195 -0.0205  0.1993
  962MOL0     C29780   5.370  11.169   4.767 -0.1598  0.3126 -0.2020
  962MOL0     C29781   5.254  11.122   4.818  0.5914  0.6573  0.4438
  962MOL0     O29782   5.187  11.013   5.073 -0.1919 -0.5120 -0.3749
  962MOL0     C29783   4.892  10.824   5.043 -0.2428 -0.1381 -0.2230
  962MOL0     C29784   4.780  10.776   5.121  0.0431  0.3259  0.4783
  962MOL0     N29785   4.250  11.108   5.596 -0.0641  0.1315 -0.5828
  962MOL0     N29786   4.141  11.052   5.572  0.0454 -0.6986  0.3486
  962MOL0     C29787   3.608  10.122   5.523 -0.7681 -0.2162  0.2695
  962MOL0     C29788   3.480  10.063   5.523 -0.2620 -0.0088 -0.0924
  962MOL0     C29789   3.146   9.772   5.460 -0.3614 -0.5330 -0.2382
  962MOL0     C29790   3.181   9.653   5.525 -0.0958  0.3706  0.2186
  962MOL0     C29791   3.089   9.553   5.539  0.7990  0.2283 -0.2127
  962MOL0     C29792   2.954   9.559   5.490  0.6877  0.6434 -0.5837
  962MOL0     O29793   2.874   9.449   5.505 -0.6435  0.0838  0.5563
  962MOL0     C29794   2.744   9.456   5.439 -0.5564  0.5114 -0.4432
  962MOL0     C29795   2.675   9.320   5.453  0.7914  0.2151 -0.1826
  962MOL0     C29796   2.541   9.304   5.374  0.3828 -0.2282 -0.6427
  962MOL0     C29797   2.423   9.373   5.436 -0.1738  0.6411 -0.3034
  962MOL0     C29798   2.308   9.362   5.350  0.7510 -0.4216 -0.1192
  962MOL0     C29799   2.208   9.368   5.281 -0.8870 -0.0940 -0.2415
  962MOL0     C29800   2.922   9.681   5.431 -0.1727  0.2774 -0.1793
  962MOL0     C29801   3.019   9.787   5.414 -0.2703  0.0886 -0.2303
  962MOL0     C29802   2.969   9.906   5.344  0.4464 -0.2963  0.7304
  962MOL0     H29803   3.592   9.744   5.469 -1.5149 -0.1588 -1.8449
  962MOL0     H29804   3.814   9.868   5.474  1.9214  2.8184  2.5670
  962MOL0     H29805   3.845  10.299   5.442  1.1739 -0.2806 -0.9799
  962MOL0     H29806   3.837  10.281   5.626  1.7144 -1.7945  1.4743
  962MOL0     H29807   4.087  10.194   5.485  0.9194 -1.6854  2.0620
  962MOL0     H29808   4.052  10.207   5.653 -0.5320 -1.8301 -0.5503
  962MOL0     H29809   4.182  10.389   5.612 -0.5953  0.9653  1.0078
  962MOL0     H29810   4.015  10.452   5.617 -1.8756 -0.9892 -1.0380
  962MOL0     H29811   4.143  10.386   5.345 -0.3389  1.8547 -2.0806
  962MOL0     H29812   3.992  10.462   5.377 -0.6583 -0.2204  0.0879
  962MOL0     H29813   4.244  10.592   5.475 -0.3874  0.7708  0.9177
  962MOL0     H29814   4.205  10.600   5.308  1.2425  0.7847  0.1931
  962MOL0     H29815   4.146  10.805   5.427 -1.1492  1.9302  0.1319
  962MOL0     H29816   3.993  10.726   5.377 -1.2887 -1.8735  0.0354
  962MOL0     H29817   4.101  10.676   5.658 -0.9625  0.4350  0.5219
  962MOL0     H29818   3.936  10.672   5.598  0.5844 -0.5483 -0.1897
  962MOL0     H29819   3.943  10.927   5.575 -0.2189  0.3032  0.1786
  962MOL0     H29820   3.949  10.878   5.737  2.2092  1.3688 -0.2024
  962MOL0     H29821   4.268  10.849   5.802  1.7378 -0.9435 -0.7722
  962MOL0     H29822   4.488  11.138   5.784  0.9721  0.0719  0.7670
  962MOL0     H29823   4.508  10.962   5.781  2.7166  1.0579 -0.7727
  962MOL0     H29824   4.494  11.112   5.514 -3.0510 -1.3671  1.0843
  962MOL0     H29825   4.641  11.089   5.610  1.7767 -0.6745 -1.3409
  962MOL0     H29826   4.543  10.828   5.565  0.1785 -1.5822 -1.2348
  962MOL0     H29827   4.691  10.910   5.512 -0.8689 -4.0284  2.9894
  962MOL0     H29828   4.568  11.022   5.324  0.8314 -1.2985 -1.7771
  962MOL0     H29829   4.437  10.916   5.354 -0.3047 -1.0959 -0.2283
  962MOL0     H29830   4.782  11.036   5.341  1.1434  1.0547 -0.4283
  962MOL0     H29831   4.988  11.083   5.246 -0.3350 -0.3028 -0.3626
  962MOL0     H29832   5.259  10.804   4.731 -0.4636  0.7187 -1.5007
  962MOL0     H29833   5.461  10.880   4.604  0.2753  2.1513 -0.7759
  962MOL0     H29834   5.704  11.016   4.639  0.6449 -3.4460 -1.8765
  962MOL0     H29835   5.621  10.996   4.494  1.0756  0.3258 -0.4697
  962MOL0     H29836   5.730  11.215   4.418  2.2359  1.3224 -0.2526
  962MOL0     H29837   5.783  11.253   4.583 -1.5621  1.8896 -1.0430
  962MOL0     H29838   5.926  11.026   4.564  1.7851  1.8409  0.5112
  962MOL0     H29839   5.893  11.028   4.395 -1.0083  0.1051 -0.2008
  962MOL0     H29840   6.045  11.251   4.548  4.1366 -0.0359 -0.8738
  962MOL0     H29841   5.987  11.264   4.381 -0.2588  1.5881  1.3247
  962MOL0     H29842   6.108  11.098   4.304 -0.8552  3.2771 -0.3355
  962MOL0     H29843   6.136  11.020   4.462 -0.4797  0.0253 -1.7215
  962MOL0     H29844   6.276  11.257   4.336  1.0937 -0.6371 -2.6528
  962MOL0     H29845   6.285  11.216   4.516 -1.0207  1.1675 -0.6782
  962MOL0     H29846   6.343  11.019   4.294  0.5396  1.2522 -1.8694
  962MOL0     H29847   6.397  10.997   4.454  0.1365  0.2041 -0.0668
  962MOL0     H29848   6.483  11.246   4.304 -0.9865 -0.8066  1.3893
  962MOL0     H29849   6.549  11.153   4.446 -1.3741 -1.8422  1.5656
  962MOL0     H29850   5.402  11.273   4.773 -0.1054  0.4586 -2.2580
  962MOL0     H29851   5.187  11.187   4.873 -2.0637  0.0863 -1.8863
  962MOL0     H29852   4.909  10.768   4.952  0.6048 -1.2117  0.5583
  962MOL0     H29853   4.714  10.694   5.093  0.5186  0.5240 -1.3140
  962MOL0     H29854   3.618  10.230   5.535  1.2078 -0.4797  1.4003
  962MOL0     H29855   3.394  10.126   5.545  0.4511  1.6517 -1.8255
  962MOL0     H29856   3.283   9.637   5.558  0.4866  0.0876 -1.5913
  962MOL0     H29857   3.111   9.457   5.585 -2.3086 -0.7295 -0.5143
  962MOL0     H29858   2.750   9.493   5.336  0.9531  1.2526 -0.1236
  962MOL0     H29859   2.690   9.533   5.495  2.8435  1.0521  2.4393
  962MOL0     H29860   2.665   9.292   5.558  0.7978  1.2775  0.1076
  962MOL0     H29861   2.753   9.258   5.407  0.3507 -0.2956 -0.2475
  962MOL0     H29862   2.527   9.196   5.366 -0.8521 -0.0153 -1.6049
  962MOL0     H29863   2.563   9.337   5.272 -1.2902 -1.7799 -1.5519
  962MOL0     H29864   2.404   9.333   5.536  1.9307  0.8960  0.2558
  962MOL0     H29865   2.443   9.481   5.430  0.2412  0.5076 -1.5725
  962MOL0     H29866   2.121   9.397   5.225 -0.4568  2.3502  0.2582
  962MOL0     H29867   2.819   9.709   5.410 -0.5493  0.0357  1.2597
  962MOL0     H29868   3.032   9.932   5.259  0.6650  1.0051  1.2550
  962MOL0     H29869   2.865   9.900   5.310  0.0829  1.3238  1.4237
  962MOL0     H29870   2.971   9.993   5.411 -0.2458 -1.0407  1.7523
  963MOL0     O29871   3.041   1.846   0.167  0.6194 -0.1841  0.1748
  963MOL0     C29872   2.974   1.867   0.064 -0.5531 -1.2972 -0.8264
  963MOL0     O29873   3.031   1.905  -0.053  0.0724 -0.2818 -0.4030
  963MOL0     C29874   3.159   1.941  -0.074  0.9301  0.7156 -0.7359
  963MOL0     C29875   3.198   1.922  -0.207 -0.6101  0.4380 -0.2794
  963MOL0     C29876   3.327   1.963  -0.243  0.1006  0.3015  0.4025
  963MOL0     C29877   3.421   1.996  -0.141 -0.3772  0.0461 -0.4323
  963MOL0     O29878   3.545   2.035  -0.166 -1.0045  0.0251 -0.0861
  963MOL0     C29879   3.612   1.973  -0.282 -0.6662  0.2755  0.8860
  963MOL0     C29880   3.753   2.033  -0.275 -0.3945 -0.2565  0.0927
  963MOL0     C29881   3.839   1.968  -0.383  1.0387 -0.1199 -0.1947
  963MOL0     C29882   3.984   2.019  -0.375 -0.4582 -1.3408  0.9241
  963MOL0     C29883   4.071   1.947  -0.479 -0.1590  0.3322 -1.0044
  963MOL0     C29884   4.212   1.996  -0.469 -0.8174  0.0451  0.9122
  963MOL0     C29885   4.290   1.933  -0.588  0.1515 -0.5032 -0.2230
  963MOL0     C29886   4.436   1.971  -0.589 -0.3048  0.0372 -1.1574
  963MOL0     N29887   4.510   1.908  -0.473  0.0435 -0.5193 -0.1179
  963MOL0     C29888   4.522   1.776  -0.446 -0.6062  0.6053  0.3690
  963MOL0     C29889   4.589   1.764  -0.334 -0.5526  0.2423  0.2486
  963MOL0     C29890   4.619   1.626  -0.265  0.2028 -0.0307 -0.0706
  963MOL0     C29891   4.495   1.547  -0.214 -0.2465 -0.1877 -0.1530
  963MOL0     C29892   4.424   1.640  -0.116  0.5248 -0.6728  0.7622
  963MOL0     C29893   4.316   1.577  -0.032  0.1697  0.1856  0.8719
  963MOL0     O29894   4.247   1.493  -0.130 -0.3570 -0.2358 -0.2298
  963MOL0     C29895   4.111   1.495  -0.135  0.1354 -0.4163  0.4447
  963MOL0     C29896   4.058   1.582  -0.233 -0.0944  0.5628  0.3819
  963MOL0     C29897   3.917   1.582  -0.254  0.1168 -0.8556 -0.2098
  963MOL0     C29898   3.836   1.490  -0.181  0.0730  0.5707 -0.3416
  963MOL0     C29899   3.686   1.479  -0.202 -0.2091 -0.5396 -0.4786
  963MOL0     O29900   3.620   1.391  -0.123  0.6772 -0.0883 -0.0827
  963MOL0     C29901   3.483   1.382  -0.137 -0.6833 -1.0963  0.3654
  963MOL0     C29902   3.403   1.505  -0.154  0.1817 -0.5285  0.1242
  963MOL0     C29903   3.265   1.492  -0.176 -0.3805  0.5829 -0.5830
  963MOL0     C29904   3.204   1.366  -0.171 -0.6611 -0.0677  0.0894
  963MOL0     O29905   3.067   1.374  -0.171 -0.1022 -0.0282 -0.0186
  963MOL0     C29906   2.991   1.254  -0.181 -0.1769  0.1552  0.0504
  963MOL0     C29907   2.861   1.272  -0.256  0.9161  0.0809  0.5103
  963MOL0     C29908   2.777   1.381  -0.181  0.3918 -0.2439  0.4190
  963MOL0     C29909   2.620   1.373  -0.214 -0.7254 -0.2353  0.1677
  963MOL0     C29910   2.544   1.456  -0.111  0.3491 -0.0437  0.2122
  963MOL0     C29911   2.402   1.406  -0.096 -0.4461 -0.4480  0.0272
  963MOL0     C29912   2.307   1.479  -0.196  0.3280 -0.6029 -0.3398
  963MOL0     C29913   2.164   1.486  -0.149  0.3037  0.1535  0.4089
  963MOL0    Cl29914   2.067   1.346  -0.185  0.3394  0.0431 -0.7398
  963MOL0     C29915   3.286   1.247  -0.182  0.4610  0.4312 -1.1815
  963MOL0     C29916   3.425   1.257  -0.153 -0.1973 -0.0630 -0.2995
  963MOL0     O29917   3.635   1.552  -0.291  0.5747  0.9869  0.3574
  963MOL0     C29918   3.893   1.407  -0.088 -0.6069  0.8279 -0.1479
  963MOL0     C29919   4.032   1.408  -0.068  0.1684  0.3374  0.2619
  963MOL0     N29920   4.610   1.887  -0.280  0.0551  0.2571 -0.4299
  963MOL0     N29921   4.562   1.970  -0.364  0.3702  0.7737 -0.5068
  963MOL0     C29922   3.380   1.997  -0.004 -1.1336  0.0008 -0.5515
  963MOL0     C29923   3.244   1.992   0.025 -0.5198  0.4090  0.0018
  963MOL0     C29924   2.830   1.845   0.077  0.5425  0.4499  0.5026
  963MOL0     C29925   2.772   1.836   0.206 -0.0058  0.0321 -0.0183
  963MOL0     C29926   2.631   1.817   0.223  0.2907 -0.0384  0.5569
  963MOL0     C29927   2.541   1.805   0.120 -0.1757  0.6661  0.3988
  963MOL0     O29928   2.413   1.811   0.158 -0.1724 -0.0021 -0.5111
  963MOL0     C29929   2.311   1.792   0.066 -0.8337  0.8800 -0.1951
  963MOL0     C29930   2.291   1.923  -0.015  0.0649 -0.3432 -0.2601
  963MOL0     C29931   2.169   1.934  -0.116  0.4263  0.0934  0.0478
  963MOL0     C29932   2.023   1.918  -0.072  0.4092  0.1872 -0.1935
  963MOL0     C29933   1.989   1.984   0.054 -0.5227  0.4047  0.8736
  963MOL0     C29934   1.977   2.040   0.160 -0.1612  0.2046 -0.4154
  963MOL0     C29935   2.591   1.802  -0.006  0.4741 -0.4646  0.5646
  963MOL0     C29936   2.736   1.823  -0.028 -0.3461 -0.2426  0.1476
  963MOL0     C29937   2.788   1.808  -0.168  0.8373 -1.1040  0.1174
  963MOL0     H29938   3.128   1.874  -0.274 -1.6608  1.6563 -0.0855
  963MOL0     H29939   3.359   1.954  -0.346  0.8183 -1.0648  0.7145
  963MOL0     H29940   3.608   1.865  -0.264 -1.0955  0.0279 -0.5673
  963MOL0     H29941   3.564   2.007  -0.375 -1.8888  0.1417  1.4486
  963MOL0     H29942   3.795   2.016  -0.175  2.4365 -3.5776 -1.4530
  963MOL0     H29943   3.755   2.139  -0.300  2.9312 -0.3711 -0.6486
  963MOL0     H29944   3.804   1.979  -0.486 -0.0069  1.7164  0.3241
  963MOL0     H29945   3.838   1.861  -0.359 -0.4230  0.4861  3.0113
  963MOL0     H29946   3.989   2.128  -0.377  0.5960 -1.3817 -0.8649
  963MOL0     H29947   4.017   1.996  -0.273  1.1595 -1.8375  0.3128
  963MOL0     H29948   4.073   1.838  -0.465  1.5388  0.2395 -1.7012
  963MOL0     H29949   4.031   1.972  -0.578 -0.9006  1.4543 -0.4309
  963MOL0     H29950   4.215   2.105  -0.478  0.4165 -0.0272  0.2496
  963MOL0     H29951   4.256   1.962  -0.375 -2.3815 -0.6077  1.4392
  963MOL0     H29952   4.245   1.969  -0.680  1.5903 -0.2515 -0.8514
  963MOL0     H29953   4.280   1.824  -0.582 -3.2991 -0.2543  0.5627
  963MOL0     H29954   4.479   1.929  -0.680 -0.8464  1.2696 -2.0240
  963MOL0     H29955   4.437   2.080  -0.574 -1.4427 -0.2580  1.7645
  963MOL0     H29956   4.497   1.687  -0.503  3.6782  0.7302 -2.0936
  963MOL0     H29957   4.672   1.568  -0.341  2.4949  0.6537  0.8913
  963MOL0     H29958   4.692   1.641  -0.184  2.0937  2.0716 -2.0255
  963MOL0     H29959   4.432   1.513  -0.296  0.7080 -1.4159 -0.4180
  963MOL0     H29960   4.538   1.458  -0.166 -1.5904 -1.9099 -1.9925
  963MOL0     H29961   4.378   1.724  -0.169  0.0443 -1.5707 -0.2577
  963MOL0     H29962   4.499   1.675  -0.045  0.4276 -1.1898  1.1275
  963MOL0     H29963   4.252   1.649   0.019 -0.0179  0.7839 -0.1795
  963MOL0     H29964   4.368   1.519   0.045 -0.1834 -0.5173  0.5883
  963MOL0     H29965   4.117   1.654  -0.288 -3.4856  1.5070 -2.3990
  963MOL0     H29966   3.873   1.642  -0.333  2.5213 -1.1877 -1.8971
  963MOL0     H29967   3.438   1.608  -0.151 -3.9462  1.1240 -1.0918
  963MOL0     H29968   3.194   1.574  -0.185 -1.3045  0.1757  2.0562
  963MOL0     H29969   3.032   1.171  -0.240  0.6151  0.3690  0.2865
  963MOL0     H29970   2.980   1.210  -0.082 -1.6967  1.2081  0.3839
  963MOL0     H29971   2.864   1.295  -0.363  0.2207 -0.8530  0.2711
  963MOL0     H29972   2.798   1.182  -0.253  0.3766 -0.2890 -6.0416
  963MOL0     H29973   2.796   1.355  -0.076  1.3224  2.6713  1.0746
  963MOL0     H29974   2.821   1.480  -0.191  1.1252 -0.6812 -0.9079
  963MOL0     H29975   2.598   1.266  -0.210  2.0105 -0.8627  0.4596
  963MOL0     H29976   2.588   1.422  -0.306 -1.6363  1.8773  1.5202
  963MOL0     H29977   2.551   1.564  -0.130  2.2522  0.1520  1.6854
  963MOL0     H29978   2.598   1.440  -0.017 -2.2117 -0.0013  1.7733
  963MOL0     H29979   2.399   1.299  -0.119 -2.2910 -0.4919  0.3594
  963MOL0     H29980   2.378   1.412   0.010 -4.5925  0.8151 -0.8030
  963MOL0     H29981   2.312   1.423  -0.290  0.1447 -1.8762  0.3852
  963MOL0     H29982   2.345   1.581  -0.206 -1.8868  0.4234  0.9059
  963MOL0     H29983   2.160   1.501  -0.040  3.5424  0.0331  0.6589
  963MOL0     H29984   2.111   1.563  -0.207 -3.7865 -1.6299  1.4710
  963MOL0     H29985   3.262   1.143  -0.200 -0.5051  0.7068 -1.6141
  963MOL0     H29986   3.487   1.168  -0.160 -0.2418 -0.2233  1.0428
  963MOL0     H29987   3.851   1.334  -0.019  3.1078  2.8788  4.9204
  963MOL0     H29988   4.065   1.328  -0.003 -0.2114 -0.1559 -0.1426
  963MOL0     H29989   3.435   2.039   0.079 -3.8046 -0.1877  1.4545
  963MOL0     H29990   3.210   2.018   0.125 -0.7118  2.2686 -0.5030
  963MOL0     H29991   2.825   1.852   0.299 -1.4226  3.2427  0.3834
  963MOL0     H29992   2.599   1.817   0.327 -0.4945  0.5458  0.3218
  963MOL0     H29993   2.219   1.772   0.122 -1.2471  0.6801 -0.9279
  963MOL0     H29994   2.320   1.698   0.010 -2.0315  0.3853  0.3938
  963MOL0     H29995   2.374   1.960  -0.076 -0.6935  2.8334  0.4152
  963MOL0     H29996   2.281   1.997   0.066  0.9795 -0.3181 -0.1662
  963MOL0     H29997   2.179   1.849  -0.184 -0.3381  0.2933 -0.3184
  963MOL0     H29998   2.182   2.024  -0.176  2.2300 -0.5416 -0.5632
  963MOL0     H29999   1.951   1.943  -0.150  0.2704  3.3383  0.8130
  963MOL0     H30000   2.015   1.809  -0.060 -0.9963  0.2085 -0.6914
  963MOL0     H30001   1.969   2.097   0.250  4.3064  1.6859 -0.7313
  963MOL0     H30002   2.521   1.786  -0.087  2.8639  0.8649 -1.9271
  963MOL0     H30003   2.836   1.711  -0.181 -2.2376 -2.6193 -1.2411
  963MOL0     H30004   2.694   1.812  -0.225  0.3863 -1.9284  0.7867
  963MOL0     H30005   2.855   1.887  -0.201 -1.3806  0.3707 -1.1757
  964MOL0     O30006  11.304   5.694   9.008 -0.3831  0.7096 -0.1987
  964MOL0     C30007  11.232   5.737   8.924  0.0626  0.6194  0.2150
  964MOL0     O30008  11.239   5.710   8.791  0.2896 -0.0695  0.3513
  964MOL0     C30009  11.345   5.623   8.760 -0.0889  0.4038 -0.5263
  964MOL0     C30010  11.317   5.498   8.714  0.2565 -0.0024  0.2377
  964MOL0     C30011  11.413   5.399   8.684 -0.4289  0.2093  0.3176
  964MOL0     C30012  11.548   5.420   8.732  0.6408  1.5076 -1.2960
  964MOL0     O30013  11.636   5.313   8.708  0.4562 -0.2131 -0.3645
  964MOL0     C30014  11.773   5.325   8.748 -0.0030  0.4905 -0.4950
  964MOL0     C30015  11.852   5.406   8.641  0.0298 -0.6528  0.3867
  964MOL0     C30016  11.994   5.419   8.672 -0.2542  0.0182 -0.0009
  964MOL0     C30017  12.072   5.294   8.653 -1.1695 -0.9509 -0.6464
  964MOL0     C30018  12.220   5.309   8.656 -0.6437  0.4623  0.1346
  964MOL0     C30019  12.285   5.174   8.617  0.5400  0.4037  0.5209
  964MOL0     C30020  12.434   5.176   8.640 -0.8957  0.6405 -0.2136
  964MOL0     C30021  12.483   5.027   8.668 -0.1478  0.7247  0.6921
  964MOL0     N30022  12.621   5.008   8.637 -0.7198 -0.4184  0.9866
  964MOL0     C30023  12.723   5.038   8.724  0.0580  0.1301  0.5686
  964MOL0     C30024  12.837   5.019   8.657 -0.3971 -0.0561 -0.1544
  964MOL0     C30025  12.974   5.020   8.733  0.4402 -0.2157  0.3320
  964MOL0     C30026  13.099   5.023   8.654 -0.1752 -0.0254  0.2409
  964MOL0     C30027  13.118   5.159   8.589  0.7246 -0.3756 -0.6401
  964MOL0     C30028  13.230   5.160   8.495 -0.0515 -1.0040  0.3695
  964MOL0     O30029  13.352   5.170   8.561  0.5088  0.0024 -0.5482
  964MOL0     C30030  13.464   5.177   8.492  0.0960  0.6234  0.1121
  964MOL0     C30031  13.464   5.172   8.348 -0.2456  0.2697  0.2422
  964MOL0     C30032  13.586   5.177   8.271  0.1811  0.5589 -0.3629
  964MOL0     C30033  13.704   5.181   8.339  0.3063  0.0983 -0.3333
  964MOL0     C30034  13.841   5.163   8.284 -0.4526  0.1871 -0.4990
  964MOL0     O30035  13.847   5.149   8.147  0.6613 -0.6580 -0.7402
  964MOL0     C30036  13.957   5.140   8.062  1.0142 -0.1734 -0.0069
  964MOL0     C30037  14.089   5.106   8.100 -0.7707  0.2748 -0.3887
  964MOL0     C30038  14.185   5.078   8.008 -0.3682  0.0683  0.8742
  964MOL0     C30039  14.157   5.094   7.871  0.0411 -0.1787  0.7132
  964MOL0     O30040  14.255   5.066   7.783  0.1810  0.1711  0.2167
  964MOL0     C30041  14.253   5.114   7.650 -0.4641 -0.2798  0.4028
  964MOL0     C30042  14.253   5.268   7.645 -0.2788 -0.0771 -0.2954
  964MOL0     C30043  14.239   5.326   7.498 -0.0047 -0.1402 -0.4589
  964MOL0     C30044  14.196   5.473   7.508  1.1158  0.7635  0.3366
  964MOL0     C30045  14.264   5.555   7.402  0.6193  0.3088  0.0706
  964MOL0     C30046  14.426   5.553   7.404  0.0282  0.0343 -0.8554
  964MOL0     C30047  14.480   5.597   7.548  0.8442  0.7630 -0.6682
  964MOL0     C30048  14.638   5.590   7.562 -1.1071  1.1645 -0.1821
  964MOL0    Cl30049  14.689   5.427   7.619  0.3275 -0.4635 -0.0960
  964MOL0     C30050  14.025   5.141   7.834 -0.0719  0.3234 -0.4586
  964MOL0     C30051  13.925   5.158   7.932  0.1159  0.0211  0.1492
  964MOL0     O30052  13.940   5.163   8.356 -0.1123  0.7201 -0.4836
  964MOL0     C30053  13.700   5.185   8.477  0.5792 -1.3241  0.0385
  964MOL0     C30054  13.588   5.186   8.553  0.0381  0.4425 -0.2108
  964MOL0     N30055  12.807   4.968   8.529 -0.2490  0.2417 -0.5541
  964MOL0     N30056  12.681   4.967   8.518  0.1027  0.1452 -0.2950
  964MOL0     C30057  11.584   5.547   8.775  1.2634  0.3699 -0.6617
  964MOL0     C30058  11.486   5.649   8.790  0.5868 -0.7336 -0.2040
  964MOL0     C30059  11.110   5.816   8.979 -0.1073 -0.5642  0.5033
  964MOL0     C30060  11.137   5.897   9.088  0.0621 -0.4353 -0.0026
  964MOL0     C30061  11.036   5.980   9.146 -0.0502  0.4217 -0.2389
  964MOL0     C30062  10.907   5.973   9.103  0.6633  0.2051  0.9291
  964MOL0     O30063  10.805   6.050   9.169  0.0780 -0.2790 -0.3469
  964MOL0     C30064  10.675   6.027   9.123 -0.8471 -0.2696  0.2291
  964MOL0     C30065  10.571   6.098   9.214  1.2007 -0.5468  0.3463
  964MOL0     C30066  10.552   6.037   9.366 -0.0003 -0.2968  0.0169
  964MOL0     C30067  10.466   6.127   9.455  0.1531  0.5534 -0.7371
  964MOL0     C30068  10.320   6.117   9.432  0.4345 -0.2138  0.2668
  964MOL0     C30069  10.207   6.112   9.393  0.1884  0.2980  0.4974
  964MOL0     C30070  10.892   5.901   8.986 -0.3304 -0.2612 -0.1504
  964MOL0     C30071  10.986   5.819   8.921  1.2812 -0.4885 -0.5053
  964MOL0     C30072  10.958   5.753   8.791 -0.5057 -0.4630  0.2870
  964MOL0     H30073  11.213   5.471   8.702 -0.1916  0.4206  2.5935
  964MOL0     H30074  11.379   5.302   8.651 -0.2925 -0.3577  1.7716
  964MOL0     H30075  11.781   5.372   8.847 -2.4140  0.1494 -0.0744
  964MOL0     H30076  11.809   5.222   8.761  0.2191  0.7784  1.6072
  964MOL0     H30077  11.801   5.502   8.632  0.9796 -0.1999 -0.3438
  964MOL0     H30078  11.828   5.359   8.545 -2.9351  0.1511  0.6422
  964MOL0     H30079  12.004   5.470   8.768 -0.4854  1.1903 -0.5850
  964MOL0     H30080  12.031   5.482   8.591 -2.7598 -2.0025 -2.9470
  964MOL0     H30081  12.042   5.232   8.739  4.1725 -3.1529  0.0096
  964MOL0     H30082  12.034   5.230   8.573 -2.5162 -1.9342  0.7111
  964MOL0     H30083  12.244   5.380   8.576 -3.2412  0.8647 -0.3586
  964MOL0     H30084  12.254   5.338   8.756 -0.7519  0.4669  0.1698
  964MOL0     H30085  12.234   5.091   8.667 -1.5202  1.3117  0.0287
  964MOL0     H30086  12.268   5.175   8.509 -2.9612  0.1924  0.9700
  964MOL0     H30087  12.463   5.236   8.726 -0.8611 -1.9723  1.7277
  964MOL0     H30088  12.481   5.208   8.547  0.3773  0.7410  0.4421
  964MOL0     H30089  12.457   5.018   8.774 -1.8249  0.5681  0.2960
  964MOL0     H30090  12.417   4.957   8.616  1.7585  0.5468 -1.6463
  964MOL0     H30091  12.721   5.057   8.830  1.6484  4.0735  0.0590
  964MOL0     H30092  12.980   5.090   8.816  0.4551 -0.8192  0.8460
  964MOL0     H30093  12.974   4.923   8.783  0.7802  0.1888  1.1185
  964MOL0     H30094  13.184   5.009   8.722 -0.4398  1.4294  0.9131
  964MOL0     H30095  13.104   4.935   8.588 -3.9730  0.6069 -1.1264
  964MOL0     H30096  13.140   5.235   8.665  0.5612 -0.0314 -0.9316
  964MOL0     H30097  13.026   5.183   8.536  0.5682  0.0078 -0.2005
  964MOL0     H30098  13.209   5.240   8.423 -1.1932 -2.7279 -1.2922
  964MOL0     H30099  13.226   5.070   8.432 -1.2690  0.2277 -1.4150
  964MOL0     H30100  13.366   5.164   8.300 -0.0084  2.3129 -0.6612
  964MOL0     H30101  13.587   5.173   8.163 -1.3156  2.7482 -0.5231
  964MOL0     H30102  14.131   5.104   8.199  2.5699  0.7203 -1.6693
  964MOL0     H30103  14.284   5.060   8.047  0.5759  1.3990 -0.7664
  964MOL0     H30104  14.345   5.078   7.604 -1.3157  2.3565 -3.9371
  964MOL0     H30105  14.166   5.075   7.596  0.7161 -2.5079 -0.0039
  964MOL0     H30106  14.166   5.306   7.699 -1.5520  0.3449 -2.5280
  964MOL0     H30107  14.349   5.300   7.685  0.1146 -1.2608 -0.2411
  964MOL0     H30108  14.336   5.322   7.449  0.0129  0.1203 -0.4459
  964MOL0     H30109  14.172   5.262   7.439  1.6792 -2.0690 -0.3981
  964MOL0     H30110  14.218   5.504   7.611  0.2085 -2.0256  1.4590
  964MOL0     H30111  14.090   5.492   7.490  1.1628  2.1072  1.2803
  964MOL0     H30112  14.234   5.660   7.410 -1.7563 -0.4224  2.4029
  964MOL0     H30113  14.227   5.517   7.306 -0.9363 -1.4590  1.2883
  964MOL0     H30114  14.480   5.459   7.387  2.2155  0.4647  2.6253
  964MOL0     H30115  14.461   5.614   7.320  1.0550  2.1873  1.0273
  964MOL0     H30116  14.448   5.526   7.625  0.7472  2.1471  0.5981
  964MOL0     H30117  14.446   5.696   7.579  1.9509  1.6735 -2.1715
  964MOL0     H30118  14.695   5.615   7.472  1.9180  0.2502  1.3241
  964MOL0     H30119  14.668   5.674   7.625  2.0781  0.7232 -0.9396
  964MOL0     H30120  13.995   5.161   7.731  1.0463  3.5618 -0.2810
  964MOL0     H30121  13.822   5.186   7.910  0.1586  1.7007  1.8650
  964MOL0     H30122  13.794   5.195   8.530  0.1999  1.6664  0.3644
  964MOL0     H30123  13.598   5.208   8.658  2.8670  2.5651 -0.8032
  964MOL0     H30124  11.684   5.565   8.812  0.4772 -0.3132  2.0619
  964MOL0     H30125  11.520   5.740   8.840 -0.1494 -0.1658 -0.7182
  964MOL0     H30126  11.234   5.915   9.133 -0.6389  0.9774  0.9948
  964MOL0     H30127  11.075   6.045   9.225  1.3828 -1.5045  0.7086
  964MOL0     H30128  10.655   5.920   9.131 -0.3303 -0.6659 -2.7261
  964MOL0     H30129  10.667   6.063   9.020  0.8967 -0.5454 -0.0348
  964MOL0     H30130  10.475   6.100   9.160  1.2350  1.2956  0.2940
  964MOL0     H30131  10.612   6.196   9.237  0.7377 -0.5619  1.2676
  964MOL0     H30132  10.645   6.032   9.425 -0.7598  0.9270  1.3696
  964MOL0     H30133  10.514   5.935   9.361 -0.5977 -0.0230 -1.7266
  964MOL0     H30134  10.489   6.105   9.560  0.9001 -1.6838 -1.3067
  964MOL0     H30135  10.494   6.230   9.431 -0.5671  0.8579 -0.3198
  964MOL0     H30136  10.112   6.091   9.350  0.6586 -1.7038  0.3402
  964MOL0     H30137  10.798   5.920   8.934  0.6448  0.1714 -1.8326
  964MOL0     H30138  10.852   5.761   8.765  0.2696  0.8765 -3.1290
  964MOL0     H30139  11.001   5.817   8.713 -0.6095  1.1443  1.5184
  964MOL0     H30140  10.985   5.648   8.773  3.1389  0.4036 -0.1325
  965MOL0     O30141   5.590   2.948   3.649 -0.2465 -0.0861  0.1973
  965MOL0     C30142   5.579   2.849   3.577 -0.1298  0.6619  0.4169
  965MOL0     O30143   5.672   2.784   3.491  0.0014  0.0447  0.3382
  965MOL0     C30144   5.805   2.803   3.476  0.4218 -0.2137 -0.3915
  965MOL0     C30145   5.873   2.715   3.401  0.1372  0.4733 -0.2344
  965MOL0     C30146   6.008   2.721   3.352 -0.0690  0.2355 -0.4479
  965MOL0     C30147   6.087   2.827   3.404  0.6645  0.6092  0.4064
  965MOL0     O30148   6.219   2.830   3.367  0.2695  0.4380 -0.8873
  965MOL0     C30149   6.263   2.963   3.347 -0.8349 -0.5062 -0.0060
  965MOL0     C30150   6.396   2.947   3.265  0.0600 -0.9853  0.4661
  965MOL0     C30151   6.508   2.867   3.341  0.8794 -0.7667 -0.0371
  965MOL0     C30152   6.618   2.834   3.242  0.1360 -0.9517  0.9420
  965MOL0     C30153   6.693   2.962   3.192  0.0733  0.2065 -0.2662
  965MOL0     C30154   6.844   2.929   3.175  0.4800  0.1342 -0.1931
  965MOL0     C30155   6.905   3.003   3.059 -0.5354 -0.4396  0.6901
  965MOL0     C30156   7.055   3.046   3.072 -0.0882 -0.8534  0.4192
  965MOL0     N30157   7.114   3.089   2.940  0.3879  0.7710 -0.0868
  965MOL0     C30158   7.062   3.134   2.826  0.1291  0.2857  0.4879
  965MOL0     C30159   7.168   3.170   2.751 -0.1470 -0.3496  0.3575
  965MOL0     C30160   7.158   3.231   2.608  0.3776  0.2715 -0.7139
  965MOL0     C30161   7.278   3.277   2.530 -0.1963 -0.4596 -0.4218
  965MOL0     C30162   7.352   3.149   2.476 -0.2043 -0.1990 -0.0393
  965MOL0     C30163   7.498   3.172   2.452  0.1728  0.3652 -0.1425
  965MOL0     O30164   7.539   3.281   2.367  0.4055 -0.3349  0.0664
  965MOL0     C30165   7.654   3.354   2.393 -1.1799 -1.0347 -0.5986
  965MOL0     C30166   7.674   3.468   2.313 -0.4834  1.1696  0.3019
  965MOL0     C30167   7.785   3.554   2.323 -0.3519  0.4604 -0.0399
  965MOL0     C30168   7.899   3.509   2.394  0.6734 -0.2633 -0.1859
  965MOL0     C30169   8.021   3.581   2.391 -0.1923 -0.5548 -0.3430
  965MOL0     O30170   8.120   3.530   2.464 -0.2728 -0.4998  0.0508
  965MOL0     C30171   8.245   3.584   2.459  0.0952 -0.0054 -0.6885
  965MOL0     C30172   8.347   3.507   2.399 -0.4156  1.0749  0.5325
  965MOL0     C30173   8.475   3.548   2.380  0.3628 -0.4968  0.5813
  965MOL0     C30174   8.512   3.680   2.418 -0.1519  0.0465  0.0855
  965MOL0     O30175   8.634   3.736   2.408 -0.4266 -0.3563  0.3228
  965MOL0     C30176   8.669   3.772   2.277 -0.0486 -0.6916  0.0510
  965MOL0     C30177   8.806   3.832   2.283  0.6373 -0.2480 -0.5145
  965MOL0     C30178   8.906   3.715   2.294 -0.3648  0.3038  0.3056
  965MOL0     C30179   9.049   3.765   2.275 -0.1562  0.4930  0.1765
  965MOL0     C30180   9.155   3.657   2.277 -0.9998  0.6955 -0.5680
  965MOL0     C30181   9.170   3.598   2.418 -0.1957 -0.4772 -0.0940
  965MOL0     C30182   9.281   3.494   2.418  0.0062 -0.3203  0.1875
  965MOL0     C30183   9.303   3.418   2.548  0.4479  0.3454 -0.0575
  965MOL0    Cl30184   9.300   3.535   2.691 -0.0615 -0.3743 -0.1682
  965MOL0     C30185   8.412   3.750   2.491  0.0749  0.3955 -0.8296
  965MOL0     C30186   8.279   3.707   2.513 -0.4640  0.9622 -0.2875
  965MOL0     O30187   8.028   3.690   2.332 -0.8484  0.2144 -0.0329
  965MOL0     C30188   7.875   3.402   2.480 -0.4229  0.2459 -0.1016
  965MOL0     C30189   7.753   3.333   2.487  0.1051 -0.4738 -0.1079
  965MOL0     N30190   7.282   3.154   2.820 -0.5676  0.3733 -0.0821
  965MOL0     N30191   7.249   3.114   2.939 -0.2864 -0.1839  0.7808
  965MOL0     C30192   6.029   2.916   3.495  0.2675  0.0804  0.0177
  965MOL0     C30193   5.888   2.904   3.529  0.2834  0.0903 -0.4692
  965MOL0     C30194   5.443   2.786   3.591  0.0567 -0.1143  0.2280
  965MOL0     C30195   5.366   2.802   3.707  0.8713  1.3825 -0.6535
  965MOL0     C30196   5.231   2.750   3.716  1.4152 -0.3754  0.9077
  965MOL0     C30197   5.179   2.673   3.613 -0.1947 -0.4421 -0.3883
  965MOL0     O30198   5.055   2.602   3.617 -0.0021 -0.5684  0.7318
  965MOL0     C30199   4.960   2.635   3.714 -0.1911 -0.3442  0.3584
  965MOL0     C30200   4.823   2.616   3.648  0.4318  0.1046  0.5696
  965MOL0     C30201   4.812   2.468   3.603 -0.5977  0.9218 -0.8252
  965MOL0     C30202   4.663   2.428   3.572 -0.8320 -0.1632 -0.2473
  965MOL0     C30203   4.648   2.283   3.565 -0.2596  0.4271  0.0806
  965MOL0     C30204   4.637   2.161   3.547  0.4079 -0.9596 -0.4239
  965MOL0     C30205   5.270   2.634   3.509 -0.6816 -0.9262  0.2054
  965MOL0     C30206   5.396   2.692   3.493 -0.3024 -0.4020 -0.8700
  965MOL0     C30207   5.478   2.649   3.367 -0.3279  0.0406  0.1176
  965MOL0     H30208   5.820   2.626   3.367  0.4434  1.1421 -2.6460
  965MOL0     H30209   6.068   2.644   3.304 -0.2522  0.5469 -1.1902
  965MOL0     H30210   6.193   3.025   3.289 -1.1112 -2.0607 -1.3825
  965MOL0     H30211   6.279   3.014   3.443  1.7059  1.5431 -1.3951
  965MOL0     H30212   6.431   3.046   3.234  1.1277 -1.3682  0.4208
  965MOL0     H30213   6.368   2.899   3.171 -3.1251  1.5963 -0.1048
  965MOL0     H30214   6.469   2.772   3.378 -0.2794  0.3077  1.6853
  965MOL0     H30215   6.553   2.918   3.426 -0.5802 -1.1889  1.0295
  965MOL0     H30216   6.688   2.761   3.285  1.2851 -0.2004  0.4104
  965MOL0     H30217   6.573   2.782   3.157 -3.6180 -0.2650  2.3033
  965MOL0     H30218   6.654   2.998   3.096 -2.3023 -0.0728  0.5346
  965MOL0     H30219   6.672   3.049   3.256 -4.3347  0.8395 -2.1855
  965MOL0     H30220   6.900   2.945   3.268  0.7548 -3.3211  0.3487
  965MOL0     H30221   6.856   2.821   3.167 -1.4090 -0.1653  0.4602
  965MOL0     H30222   6.848   3.094   3.041  1.8191  1.4656  2.1383
  965MOL0     H30223   6.904   2.942   2.968  0.3310  0.3302  0.1424
  965MOL0     H30224   7.064   3.130   3.141 -2.4846 -1.2786  1.3335
  965MOL0     H30225   7.106   2.956   3.108  1.6194  0.4279  1.3516
  965MOL0     H30226   6.958   3.134   2.796 -0.8329  2.5970  3.3305
  965MOL0     H30227   7.103   3.161   2.544  0.1505 -0.7864  0.5809
  965MOL0     H30228   7.096   3.319   2.624  1.3662  0.7647  0.6038
  965MOL0     H30229   7.245   3.338   2.445 -0.4607 -0.2347 -0.1624
  965MOL0     H30230   7.340   3.353   2.579  0.3284 -1.6890  0.8905
  965MOL0     H30231   7.311   3.123   2.378 -1.8873 -1.6138  0.9862
  965MOL0     H30232   7.339   3.057   2.533  1.1480 -0.8683 -0.7766
  965MOL0     H30233   7.549   3.089   2.402  1.4230 -0.1625  1.8866
  965MOL0     H30234   7.547   3.177   2.550  3.3537 -0.9419 -1.5338
  965MOL0     H30235   7.603   3.484   2.233  3.4116  2.5357 -3.2619
  965MOL0     H30236   7.790   3.643   2.261  1.4163  0.5459  0.1579
  965MOL0     H30237   8.311   3.409   2.368 -0.6296  1.6649 -1.1935
  965MOL0     H30238   8.552   3.487   2.333 -0.5796 -0.2024 -1.4687
  965MOL0     H30239   8.679   3.679   2.220  0.8900  1.5542 -3.8198
  965MOL0     H30240   8.594   3.840   2.235  0.1032  2.5604  4.3543
  965MOL0     H30241   8.824   3.899   2.198  1.4957  0.5753  0.2917
  965MOL0     H30242   8.812   3.893   2.374 -1.5119  3.2653 -2.4768
  965MOL0     H30243   8.885   3.656   2.384 -0.5177 -0.0846  0.0202
  965MOL0     H30244   8.901   3.648   2.208  1.8727  0.3442  0.0965
  965MOL0     H30245   9.062   3.838   2.356  0.7765 -1.0715  1.5000
  965MOL0     H30246   9.053   3.829   2.187  0.4085  0.9053  0.4936
  965MOL0     H30247   9.250   3.707   2.255 -0.7538  1.6089  2.1930
  965MOL0     H30248   9.132   3.582   2.200 -0.5597 -1.4325  1.2929
  965MOL0     H30249   9.187   3.675   2.494  0.4911 -0.9382  0.2301
  965MOL0     H30250   9.076   3.543   2.434  0.1858 -2.0759 -2.6923
  965MOL0     H30251   9.368   3.561   2.413 -0.0818 -0.2939 -2.4894
  965MOL0     H30252   9.287   3.430   2.329  1.5799  2.0556 -1.5478
  965MOL0     H30253   9.225   3.342   2.553  1.1490 -0.3104  2.9903
  965MOL0     H30254   9.397   3.362   2.554 -0.2449 -0.7105  3.2307
  965MOL0     H30255   8.442   3.843   2.539  0.5826 -2.2099  4.6907
  965MOL0     H30256   8.205   3.763   2.569 -0.9318 -0.7830  0.9201
  965MOL0     H30257   7.952   3.388   2.555 -0.6792  1.0740  0.3352
  965MOL0     H30258   7.726   3.256   2.559 -1.5384  0.0011 -0.1813
  965MOL0     H30259   6.089   2.996   3.536  1.4938  0.0264 -1.6081
  965MOL0     H30260   5.845   2.976   3.598 -1.6043 -1.6622  0.2800
  965MOL0     H30261   5.401   2.855   3.795  2.2655  0.4207 -0.5990
  965MOL0     H30262   5.167   2.775   3.800  0.8876  0.5053  0.2560
  965MOL0     H30263   4.972   2.740   3.741  1.3641 -0.8026  1.5967
  965MOL0     H30264   4.973   2.574   3.804  1.7293 -0.6919 -0.1120
  965MOL0     H30265   4.818   2.681   3.561  0.5544 -0.1209  0.3923
  965MOL0     H30266   4.744   2.640   3.719  0.8252  1.8493  0.4638
  965MOL0     H30267   4.862   2.402   3.674  2.2900  1.2292 -2.3928
  965MOL0     H30268   4.871   2.472   3.510 -1.0663  1.6331 -1.0962
  965MOL0     H30269   4.593   2.464   3.647 -2.5950 -0.9464 -1.4551
  965MOL0     H30270   4.628   2.469   3.476  0.7526 -3.5899 -2.5132
  965MOL0     H30271   4.616   2.056   3.539 -1.1687 -0.7190  0.1828
  965MOL0     H30272   5.227   2.561   3.441  1.1041 -2.4961  0.6823
  965MOL0     H30273   5.505   2.740   3.313  3.9863  0.8376  3.0726
  965MOL0     H30274   5.567   2.603   3.412  1.5104  1.9425 -1.3711
  965MOL0     H30275   5.430   2.571   3.308  0.5859 -2.8232  2.8628
  966MOL0     O30276   3.530   5.564   8.667  0.7401  1.1341  0.4942
  966MOL0     C30277   3.534   5.501   8.776 -0.0372  0.8091  0.4407
  966MOL0     O30278   3.649   5.451   8.835 -0.7089 -0.2974  0.4402
  966MOL0     C30279   3.781   5.501   8.801  0.2430  0.0536 -0.1866
  966MOL0     C30280   3.876   5.495   8.902  0.0115 -0.3177 -0.2867
  966MOL0     C30281   4.003   5.554   8.886 -0.4254  0.0886 -0.4753
  966MOL0     C30282   4.043   5.605   8.755  0.0981  0.8116  0.1138
  966MOL0     O30283   4.170   5.646   8.721  0.4987  0.4502  0.4435
  966MOL0     C30284   4.269   5.619   8.828 -0.2635  0.4559  0.6141
  966MOL0     C30285   4.404   5.667   8.789 -0.1014 -0.4085 -0.4090
  966MOL0     C30286   4.401   5.824   8.786  0.0834 -0.2243 -0.3145
  966MOL0     C30287   4.533   5.862   8.743 -0.5056  0.0952  0.4332
  966MOL0     C30288   4.661   5.801   8.822  0.1302  0.5128 -1.0235
  966MOL0     C30289   4.784   5.880   8.795 -0.2763  0.3609  0.2636
  966MOL0     C30290   4.782   5.999   8.888 -0.1619 -0.5201  0.9814
  966MOL0     C30291   4.888   6.095   8.829 -0.4690 -0.1486  0.0512
  966MOL0     N30292   4.914   6.208   8.928  0.7479  0.5104  0.0336
  966MOL0     C30293   4.841   6.325   8.932 -0.6611 -0.3584 -0.4536
  966MOL0     C30294   4.921   6.401   9.005 -0.4492 -0.2170 -0.1560
  966MOL0     C30295   4.875   6.542   9.051 -0.2650  0.3477 -0.6485
  966MOL0     C30296   4.995   6.637   9.027  0.1731 -0.2229  0.3669
  966MOL0     C30297   4.949   6.775   9.053  0.7146  0.1504  0.2530
  966MOL0     C30298   4.875   6.799   9.187 -0.4208 -0.0341  0.9487
  966MOL0     O30299   4.941   6.726   9.287 -0.7248 -0.2802  0.0222
  966MOL0     C30300   5.037   6.786   9.371  0.6315 -0.5107  0.1200
  966MOL0     C30301   5.035   6.743   9.508  0.4013 -0.3233 -0.7945
  966MOL0     C30302   5.126   6.801   9.599 -0.0164 -0.7923 -0.3266
  966MOL0     C30303   5.215   6.909   9.565  0.0613  0.4296 -0.0301
  966MOL0     C30304   5.333   6.942   9.652  0.5993  0.1812  0.0949
  966MOL0     O30305   5.312   6.930   9.790 -0.0694  0.5700  0.4312
  966MOL0     C30306   5.406   6.976   9.886 -0.6558  0.4352  0.7505
  966MOL0     C30307   5.535   6.946   9.875 -0.0746  0.1436  0.2144
  966MOL0     C30308   5.630   6.995   9.963 -0.1673  0.5692 -0.1812
  966MOL0     C30309   5.593   7.050  10.087 -0.4483 -0.9547  0.1232
  966MOL0     O30310   5.686   7.106  10.170 -0.4522  0.3310  0.7100
  966MOL0     C30311   5.815   7.139  10.124 -0.6228 -0.2303 -1.0032
  966MOL0     C30312   5.862   7.249  10.232 -0.2258 -0.1871 -0.9846
  966MOL0     C30313   6.000   7.298  10.214 -0.5513  0.3034 -0.6369
  966MOL0     C30314   6.008   7.378  10.080  0.3178 -0.3887 -0.5934
  966MOL0     C30315   6.142   7.441  10.056 -0.0446  0.8160  0.0496
  966MOL0     C30316   6.165   7.476   9.913  0.7450 -0.6519 -0.2640
  966MOL0     C30317   6.052   7.564   9.839 -0.3990  0.1651  0.1989
  966MOL0     C30318   6.026   7.693   9.905 -0.0996  1.0732  0.5840
  966MOL0    Cl30319   6.156   7.803   9.868 -0.2402  0.3374  0.4638
  966MOL0     C30320   5.452   7.076  10.108  0.2180  1.1516  0.6973
  966MOL0     C30321   5.366   7.047  10.005  0.1370  0.7107  1.0764
  966MOL0     O30322   5.431   6.987   9.600 -0.0731  0.0447  0.2216
  966MOL0     C30323   5.207   6.950   9.428  0.0400  0.3116  0.0788
  966MOL0     C30324   5.118   6.896   9.339 -0.7062  0.0515 -0.0835
  966MOL0     N30325   5.025   6.331   9.063 -0.0158  0.6192 -0.1416
  966MOL0     N30326   5.025   6.215   9.008  0.0185  0.7770  0.2315
  966MOL0     C30327   3.952   5.601   8.655  0.8285 -0.4645 -1.1261
  966MOL0     C30328   3.827   5.550   8.680  0.7005 -0.8946 -0.4244
  966MOL0     C30329   3.413   5.458   8.855 -0.3614 -0.1911 -0.5037
  966MOL0     C30330   3.431   5.428   8.995  0.1492 -0.2958 -0.3387
  966MOL0     C30331   3.328   5.381   9.071  1.2789 -0.6137 -0.4856
  966MOL0     C30332   3.199   5.359   9.007  0.4690  0.2981  0.0261
  966MOL0     O30333   3.090   5.318   9.080 -0.7527 -0.4505 -0.6254
  966MOL0     C30334   3.100   5.269   9.213  0.2669 -0.7209 -0.0914
  966MOL0     C30335   2.960   5.224   9.271  0.6127  0.2560  0.3507
  966MOL0     C30336   2.891   5.125   9.178  0.0028  0.6871 -0.3669
  966MOL0     C30337   2.747   5.102   9.236 -0.1227  0.2365  0.1482
  966MOL0     C30338   2.706   4.966   9.245 -1.1399 -0.1331 -0.5718
  966MOL0     C30339   2.714   4.846   9.232  0.3224 -0.6063  0.6361
  966MOL0     C30340   3.178   5.396   8.878  0.6090 -0.6474  0.5482
  966MOL0     C30341   3.280   5.447   8.800  0.7091  0.2155 -1.0737
  966MOL0     C30342   3.248   5.483   8.657 -0.0436  0.0517  0.6502
  966MOL0     H30343   3.850   5.440   8.991 -1.1822 -3.7152 -2.5135
  966MOL0     H30344   4.064   5.562   8.976 -2.2600  1.2787  0.7223
  966MOL0     H30345   4.250   5.668   8.923 -1.8056  1.6452 -0.2603
  966MOL0     H30346   4.273   5.510   8.842  0.2266 -0.2663 -3.6384
  966MOL0     H30347   4.435   5.624   8.693  0.5678  3.3605 -2.0663
  966MOL0     H30348   4.462   5.633   8.875 -1.3338 -0.3407  0.4644
  966MOL0     H30349   4.391   5.863   8.888  0.2119  0.8760 -0.7080
  966MOL0     H30350   4.324   5.856   8.715  0.3030 -2.1578 -1.5083
  966MOL0     H30351   4.543   5.842   8.636 -1.4864  1.4050  0.0657
  966MOL0     H30352   4.545   5.971   8.754  1.6129  0.0903 -1.0912
  966MOL0     H30353   4.643   5.794   8.930 -1.3296  0.6418 -1.2449
  966MOL0     H30354   4.663   5.701   8.778 -1.9035 -0.5429  1.0712
  966MOL0     H30355   4.874   5.826   8.824 -2.5363 -1.0899  5.8391
  966MOL0     H30356   4.790   5.914   8.691 -0.4427  4.3232  1.3688
  966MOL0     H30357   4.810   5.967   8.989 -1.2130  1.4099  1.9366
  966MOL0     H30358   4.689   6.055   8.900 -0.7806 -1.7582  2.2011
  966MOL0     H30359   4.980   6.042   8.807 -0.9735 -3.0206  3.8275
  966MOL0     H30360   4.852   6.144   8.738 -3.0927 -0.6710  0.7185
  966MOL0     H30361   4.739   6.350   8.903 -0.7158  0.9866  0.7596
  966MOL0     H30362   4.788   6.581   8.998 -0.7024  0.1712 -0.0655
  966MOL0     H30363   4.837   6.532   9.153  2.1566  2.4794  0.5910
  966MOL0     H30364   5.080   6.599   9.084  1.1660  0.8580 -0.3637
  966MOL0     H30365   5.025   6.632   8.922 -1.0939 -1.8882  0.0469
  966MOL0     H30366   4.888   6.809   8.968 -2.8000 -0.9779  2.1045
  966MOL0     H30367   5.037   6.839   9.046  0.3971  0.5968  0.2905
  966MOL0     H30368   4.775   6.755   9.183  1.2487 -4.2652  0.7699
  966MOL0     H30369   4.865   6.907   9.202 -1.9916  0.1288 -0.8993
  966MOL0     H30370   4.961   6.672   9.542 -0.7567  1.3594  0.3645
  966MOL0     H30371   5.138   6.757   9.698 -0.0115 -0.0525  0.0095
  966MOL0     H30372   5.573   6.908   9.781  0.9766 -2.3868  1.5463
  966MOL0     H30373   5.732   6.971   9.932 -0.5055 -1.6095  0.2231
  966MOL0     H30374   5.889   7.059  10.128  1.7900  1.8975  2.8312
  966MOL0     H30375   5.812   7.190  10.027 -0.8685  0.3190 -0.7135
  966MOL0     H30376   5.790   7.331  10.219 -0.0494  0.0078 -0.7408
  966MOL0     H30377   5.853   7.212  10.334  1.3408  0.0696 -0.7338
  966MOL0     H30378   6.029   7.374  10.286  2.6735  0.8332 -2.3243
  966MOL0     H30379   6.070   7.215  10.230  0.1480  1.2548  1.6894
  966MOL0     H30380   5.931   7.455  10.079  1.0341  0.3506  0.0117
  966MOL0     H30381   5.991   7.313   9.993  0.7753  0.4094 -1.2950
  966MOL0     H30382   6.218   7.366  10.077 -0.0243 -0.4701 -3.8665
  966MOL0     H30383   6.144   7.531  10.119 -1.1237  1.5371 -0.9037
  966MOL0     H30384   6.260   7.525   9.889 -0.0015  2.2074  2.0106
  966MOL0     H30385   6.166   7.379   9.864 -0.8098 -0.5092 -0.6222
  966MOL0     H30386   5.960   7.504   9.842 -0.1934 -0.0913  2.3727
  966MOL0     H30387   6.086   7.570   9.735 -1.5172 -1.9000 -0.3459
  966MOL0     H30388   5.934   7.736   9.862  1.0166  1.0130 -2.0732
  966MOL0     H30389   6.000   7.684  10.010  0.2147  1.9691  0.7450
  966MOL0     H30390   5.427   7.132  10.197  2.7045  0.0643  2.1791
  966MOL0     H30391   5.265   7.087  10.008  0.8755  3.5568 -2.9139
  966MOL0     H30392   5.272   7.027   9.388 -1.1817  2.2934  1.7221
  966MOL0     H30393   5.117   6.924   9.234 -0.1823 -0.2962 -0.1850
  966MOL0     H30394   3.977   5.645   8.560 -2.1783  1.1569 -1.2874
  966MOL0     H30395   3.760   5.557   8.595 -2.6004 -0.6433  2.0022
  966MOL0     H30396   3.526   5.439   9.046 -1.4406 -0.4065  2.9260
  966MOL0     H30397   3.345   5.366   9.177 -1.4542  2.0802  0.4865
  966MOL0     H30398   3.138   5.352   9.273  2.4291 -0.9418 -1.0719
  966MOL0     H30399   3.180   5.196   9.226 -0.2929 -1.1513  1.0685
  966MOL0     H30400   2.896   5.310   9.293 -0.8105  0.0174 -2.4602
  966MOL0     H30401   2.962   5.174   9.368  2.7355 -3.5202 -1.4030
  966MOL0     H30402   2.950   5.033   9.180 -2.9020 -1.3384  1.5121
  966MOL0     H30403   2.881   5.153   9.073 -3.2620  0.2596 -0.2787
  966MOL0     H30404   2.735   5.154   9.332  0.5744  0.2338  0.2399
  966MOL0     H30405   2.685   5.151   9.160 -0.0693 -1.5318 -1.0974
  966MOL0     H30406   2.717   4.741   9.209  1.2059 -0.0031 -2.4259
  966MOL0     H30407   3.076   5.394   8.842  1.3615 -0.1700 -1.8648
  966MOL0     H30408   3.284   5.584   8.636  0.0856 -0.0182  0.5361
  966MOL0     H30409   3.300   5.414   8.590  1.0222  0.9745  0.5044
  966MOL0     H30410   3.144   5.453   8.638 -0.1142  0.2118  0.7791
  967MOL0     O30411   5.744   9.566   0.438 -0.1991  0.2801 -0.1513
  967MOL0     C30412   5.665   9.475   0.427 -0.4117 -0.0308 -0.3514
  967MOL0     O30413   5.693   9.339   0.432  0.2278  0.3264 -0.0473
  967MOL0     C30414   5.814   9.286   0.455 -0.9206  0.6192 -0.2970
  967MOL0     C30415   5.838   9.162   0.403 -0.0307  0.2819  1.0936
  967MOL0     C30416   5.963   9.106   0.404  0.4450  0.3412 -0.2584
  967MOL0     C30417   6.071   9.175   0.463  0.9043 -0.1948  0.2388
  967MOL0     O30418   6.185   9.101   0.487 -0.6623  0.1927  0.1927
  967MOL0     C30419   6.297   9.163   0.551 -0.7122 -0.3185  0.0017
  967MOL0     C30420   6.403   9.054   0.566 -0.8654 -0.0420 -0.3816
  967MOL0     C30421   6.526   9.105   0.649 -0.0722 -0.1093 -0.1976
  967MOL0     C30422   6.619   8.983   0.675 -1.2766  0.2968  0.3902
  967MOL0     C30423   6.746   9.029   0.745  0.0388 -0.1248  0.1515
  967MOL0     C30424   6.719   9.108   0.879  0.2029  1.1205  0.2612
  967MOL0     C30425   6.636   9.031   0.985 -0.5777 -0.4575  0.6723
  967MOL0     C30426   6.694   8.900   1.006  0.3473  0.5618 -0.5621
  967MOL0     N30427   6.609   8.818   1.099 -0.0691 -0.4320  0.2750
  967MOL0     C30428   6.478   8.787   1.073 -1.0027  0.3206 -0.1998
  967MOL0     C30429   6.434   8.704   1.172  0.0832  1.1161  0.6919
  967MOL0     C30430   6.293   8.665   1.192  0.5037  0.2741 -0.4553
  967MOL0     C30431   6.208   8.786   1.236  0.7311 -0.4150  0.2835
  967MOL0     C30432   6.060   8.743   1.241 -1.0871 -0.2722 -0.4237
  967MOL0     C30433   5.974   8.867   1.262 -0.6419  0.4485  0.0661
  967MOL0     O30434   5.845   8.850   1.210 -0.5101  0.0416  0.0270
  967MOL0     C30435   5.733   8.801   1.270  0.0050  0.0186 -0.0611
  967MOL0     C30436   5.730   8.679   1.338  0.2818 -0.8186  0.1118
  967MOL0     C30437   5.621   8.639   1.412 -0.3082 -0.6366 -0.2473
  967MOL0     C30438   5.500   8.721   1.410 -0.2688  0.5360 -0.8120
  967MOL0     C30439   5.376   8.676   1.478 -0.9890 -0.0336 -0.1989
  967MOL0     O30440   5.377   8.538   1.494  0.5417 -0.2061  0.3758
  967MOL0     C30441   5.259   8.472   1.521  0.2675 -0.4015  0.0382
  967MOL0     C30442   5.185   8.505   1.636  0.0834  0.0946  0.8046
  967MOL0     C30443   5.073   8.435   1.668 -0.0361 -0.4572 -0.8252
  967MOL0     C30444   5.031   8.327   1.590  0.9370 -0.5683  0.1790
  967MOL0     O30445   4.922   8.252   1.618 -0.0632 -0.1848 -0.4935
  967MOL0     C30446   4.837   8.272   1.729 -0.1522  1.3268 -0.4221
  967MOL0     C30447   4.709   8.190   1.700  0.5378 -0.3047 -0.0302
  967MOL0     C30448   4.599   8.226   1.807  0.1469  0.1222  0.1910
  967MOL0     C30449   4.628   8.166   1.943 -0.7286  0.4819  0.1936
  967MOL0     C30450   4.507   8.170   2.034 -0.4713  0.1408 -0.3853
  967MOL0     C30451   4.418   8.050   1.999  0.3606 -0.8105 -0.7492
  967MOL0     C30452   4.310   8.034   2.107  0.4333 -0.6514 -0.1974
  967MOL0     C30453   4.214   7.932   2.088  0.7844  0.1879  0.3582
  967MOL0    Cl30454   4.116   7.961   1.933 -0.0588  0.1668  0.4821
  967MOL0     C30455   5.102   8.298   1.475 -0.8065  0.3594  0.8614
  967MOL0     C30456   5.222   8.368   1.440 -0.1911  0.7699  0.3910
  967MOL0     O30457   5.285   8.756   1.490 -0.0576 -0.1977 -0.1203
  967MOL0     C30458   5.501   8.845   1.339  0.2306 -0.3005  0.0874
  967MOL0     C30459   5.621   8.881   1.273  0.3405  0.6588 -0.5572
  967MOL0     N30460   6.551   8.682   1.263  1.5938  0.0970  0.6534
  967MOL0     N30461   6.648   8.757   1.219  0.2926 -0.4156 -0.0166
  967MOL0     C30462   6.054   9.307   0.519  0.6213  0.3980  0.1585
  967MOL0     C30463   5.924   9.358   0.518  0.0975  0.2864 -0.0282
  967MOL0     C30464   5.516   9.505   0.430  0.2894 -0.0826  0.6026
  967MOL0     C30465   5.427   9.392   0.440  0.1440  0.0548 -0.1075
  967MOL0     C30466   5.293   9.424   0.452 -0.4983  0.5799 -0.2498
  967MOL0     C30467   5.239   9.558   0.430  0.0044 -1.0451  0.1077
  967MOL0     O30468   5.096   9.574   0.437 -0.0438 -0.1626  0.4472
  967MOL0     C30469   5.053   9.702   0.396  0.7546  0.3907 -1.4219
  967MOL0     C30470   4.894   9.695   0.403 -1.5310  0.6578 -0.0473
  967MOL0     C30471   4.841   9.651   0.543  0.3219  0.8098  0.9406
  967MOL0     C30472   4.693   9.677   0.544  0.1948 -0.6027  0.7025
  967MOL0     C30473   4.655   9.796   0.611  0.6347  0.4048 -0.2759
  967MOL0     C30474   4.601   9.888   0.670 -0.2903  0.0406  0.1151
  967MOL0     C30475   5.332   9.657   0.402 -0.6187  0.5493  1.0349
  967MOL0     C30476   5.467   9.633   0.399  0.7278  0.7048  0.3025
  967MOL0     C30477   5.551   9.745   0.362 -0.0255 -0.3333 -0.0626
  967MOL0     H30478   5.752   9.109   0.365  0.5264  0.3305 -0.2748
  967MOL0     H30479   5.963   9.000   0.382 -1.5059 -0.3837  2.7044
  967MOL0     H30480   6.355   9.239   0.498 -0.0146 -0.8077  0.0623
  967MOL0     H30481   6.279   9.211   0.648  0.9181 -1.5143  0.9443
  967MOL0     H30482   6.438   9.035   0.464  2.1268 -4.6442  1.1796
  967MOL0     H30483   6.353   8.963   0.603 -0.2170  0.1653  1.0793
  967MOL0     H30484   6.486   9.152   0.739  1.0246 -0.9946  0.7767
  967MOL0     H30485   6.583   9.174   0.585  0.5115 -0.2712  0.1416
  967MOL0     H30486   6.571   8.916   0.746 -1.5173  1.5767  1.4777
  967MOL0     H30487   6.648   8.925   0.587 -1.6107 -0.8420  1.0119
  967MOL0     H30488   6.808   8.939   0.753  2.4200  1.5046  1.1402
  967MOL0     H30489   6.805   9.097   0.683 -2.9502  3.5233  0.9377
  967MOL0     H30490   6.818   9.131   0.919  0.2065  0.1238  0.8541
  967MOL0     H30491   6.666   9.204   0.870 -2.2426 -0.1312  0.3036
  967MOL0     H30492   6.530   9.036   0.956 -0.4822  1.2931  0.5214
  967MOL0     H30493   6.641   9.089   1.078  0.6895  1.9773 -0.8241
  967MOL0     H30494   6.706   8.843   0.913  2.6453  1.1549 -0.6854
  967MOL0     H30495   6.796   8.918   1.040  0.3225 -0.9768  0.4308
  967MOL0     H30496   6.413   8.836   1.001 -0.1233 -0.6986 -1.7450
  967MOL0     H30497   6.251   8.619   1.102 -0.0480 -1.9897  0.8882
  967MOL0     H30498   6.286   8.588   1.269  0.3902  2.1829  1.5305
  967MOL0     H30499   6.243   8.828   1.331 -1.5928  1.1397  0.5456
  967MOL0     H30500   6.223   8.866   1.163  0.2291  0.4416  1.0975
  967MOL0     H30501   6.050   8.680   1.329  0.0521 -2.0200 -1.4921
  967MOL0     H30502   6.026   8.699   1.147 -0.3834 -0.7072 -0.4755
  967MOL0     H30503   6.012   8.951   1.202 -0.9631  3.0734  3.2684
  967MOL0     H30504   5.961   8.895   1.367  1.1146  2.1268 -0.1074
  967MOL0     H30505   5.822   8.623   1.334 -0.0473 -1.3500 -0.2117
  967MOL0     H30506   5.628   8.544   1.463  0.2748 -0.3111  0.2850
  967MOL0     H30507   5.225   8.586   1.696 -0.4762  2.2613 -1.6003
  967MOL0     H30508   5.021   8.471   1.756  2.6316 -0.5250  0.8744
  967MOL0     H30509   4.888   8.242   1.821  1.7542  2.7881 -0.9256
  967MOL0     H30510   4.809   8.378   1.732 -1.3869  1.0339 -0.9607
  967MOL0     H30511   4.672   8.230   1.605  1.0207  2.4930  0.8508
  967MOL0     H30512   4.728   8.084   1.681 -1.4527 -0.2255 -3.1731
  967MOL0     H30513   4.602   8.335   1.820  2.2774 -0.1537  3.1511
  967MOL0     H30514   4.503   8.189   1.769  0.6178 -0.1511 -0.7567
  967MOL0     H30515   4.701   8.232   1.991  0.4078 -0.3152 -0.3972
  967MOL0     H30516   4.676   8.069   1.927 -0.8329  0.6042 -0.9319
  967MOL0     H30517   4.449   8.258   2.006 -0.8633 -0.4851 -1.6330
  967MOL0     H30518   4.535   8.163   2.140 -1.9764  3.8631  0.4148
  967MOL0     H30519   4.374   8.053   1.899 -0.0015  1.7788 -0.6046
  967MOL0     H30520   4.479   7.960   1.999  0.8258 -0.5076 -0.0537
  967MOL0     H30521   4.243   8.120   2.113 -0.1757 -1.1603  0.4786
  967MOL0     H30522   4.357   8.032   2.206 -0.3151 -1.3562  0.1556
  967MOL0     H30523   4.273   7.842   2.073 -1.7522 -1.4389 -0.4068
  967MOL0     H30524   4.156   7.938   2.180  0.7785  2.5159  0.2844
  967MOL0     H30525   5.067   8.221   1.407 -0.4334  1.3915 -0.5647
  967MOL0     H30526   5.280   8.340   1.353  0.6167  1.8097  0.5728
  967MOL0     H30527   5.415   8.910   1.343 -0.9867 -1.8736  0.5480
  967MOL0     H30528   5.633   8.983   1.236  0.2846 -0.2076 -3.1973
  967MOL0     H30529   6.126   9.361   0.580 -0.4967  1.1078  0.8706
  967MOL0     H30530   5.914   9.459   0.556  1.6304  0.4395  0.0268
  967MOL0     H30531   5.477   9.299   0.465  1.7867  1.4538  2.2103
  967MOL0     H30532   5.223   9.342   0.460  0.5468 -0.7096 -2.7792
  967MOL0     H30533   5.093   9.735   0.300  1.9380  1.0067 -0.7408
  967MOL0     H30534   5.092   9.784   0.457 -0.4216  0.6481 -0.9893
  967MOL0     H30535   4.863   9.633   0.318  0.7537 -0.1796 -0.3314
  967MOL0     H30536   4.857   9.797   0.392 -3.6868  0.1300  1.4740
  967MOL0     H30537   4.895   9.702   0.624  1.2294 -0.1203  0.9504
  967MOL0     H30538   4.859   9.543   0.545 -0.9716  0.5872  0.9452
  967MOL0     H30539   4.650   9.674   0.443  1.1548 -3.0851  0.2883
  967MOL0     H30540   4.652   9.588   0.594  0.7190 -2.0713 -1.3330
  967MOL0     H30541   4.561   9.968   0.728 -0.7033 -0.9499  1.2478
  967MOL0     H30542   5.309   9.762   0.394 -2.1656  0.1412 -0.3209
  967MOL0     H30543   5.623   9.710   0.287 -1.9821 -2.5640 -1.0364
  967MOL0     H30544   5.484   9.802   0.298 -1.1348 -3.0065 -1.4462
  967MOL0     H30545   5.591   9.795   0.451  0.8285 -2.5569  0.8917
  968MOL0     O30546   3.368   5.446   7.941 -0.1420  0.1211  0.8140
  968MOL0     C30547   3.312   5.557   7.950  0.1655  0.0545 -0.6435
  968MOL0     O30548   3.376   5.682   7.936  0.1923  0.4161 -0.2395
  968MOL0     C30549   3.511   5.697   7.921  0.3018 -0.1025 -0.4876
  968MOL0     C30550   3.579   5.752   8.025 -0.6412  0.1942 -0.7953
  968MOL0     C30551   3.714   5.779   8.015 -1.5229 -0.1263 -0.7083
  968MOL0     C30552   3.794   5.736   7.902  0.5638 -0.3270 -1.4259
  968MOL0     O30553   3.927   5.742   7.881 -0.7106  0.0062 -0.1871
  968MOL0     C30554   3.996   5.852   7.923 -1.1637  0.8720 -0.3142
  968MOL0     C30555   4.149   5.821   7.915  1.1430  0.3947  0.3324
  968MOL0     C30556   4.234   5.932   7.970  0.6108  0.0138  0.5212
  968MOL0     C30557   4.374   5.886   8.010  0.4234 -0.5220 -1.0648
  968MOL0     C30558   4.427   5.985   8.112  0.1439 -0.3113  0.2808
  968MOL0     C30559   4.555   5.936   8.176  0.4712 -0.2234 -0.3903
  968MOL0     C30560   4.630   6.056   8.234 -0.5934  0.0766  0.1366
  968MOL0     C30561   4.587   6.075   8.379  0.8565  0.4433 -0.3190
  968MOL0     N30562   4.632   6.200   8.438 -0.2041 -0.9283  0.1761
  968MOL0     C30563   4.743   6.281   8.397 -0.5056  0.7534 -0.2641
  968MOL0     C30564   4.750   6.377   8.496 -0.2970  0.5703  0.2332
  968MOL0     C30565   4.829   6.506   8.489 -0.2343 -0.1858  0.4902
  968MOL0     C30566   4.931   6.506   8.607  0.6059 -0.1383 -0.8869
  968MOL0     C30567   5.032   6.611   8.594  0.6989 -0.1216  0.1588
  968MOL0     C30568   5.114   6.594   8.465 -0.5750  1.0207  0.4992
  968MOL0     O30569   5.149   6.464   8.420  0.8226 -0.4322  0.0605
  968MOL0     C30570   5.237   6.450   8.318 -0.7879 -1.2321  0.5971
  968MOL0     C30571   5.263   6.316   8.270  0.2452 -0.2611  0.1052
  968MOL0     C30572   5.347   6.300   8.167 -0.0694  0.0622  0.2221
  968MOL0     C30573   5.413   6.405   8.112  0.0903  0.6776  0.7598
  968MOL0     C30574   5.530   6.394   8.014  0.1207  0.1025  0.0482
  968MOL0     O30575   5.531   6.285   7.938 -0.0187 -0.2227 -0.1884
  968MOL0     C30576   5.620   6.246   7.848 -0.9286  0.1583 -0.2194
  968MOL0     C30577   5.558   6.164   7.748 -0.3248  0.3475 -0.4507
  968MOL0     C30578   5.640   6.124   7.640  0.7966  0.1405  0.1922
  968MOL0     C30579   5.765   6.171   7.626 -0.2572  0.2047  0.3923
  968MOL0     O30580   5.831   6.138   7.516  0.5012  0.6442 -0.0626
  968MOL0     C30581   5.957   6.191   7.474  0.4658 -0.0508 -0.5279
  968MOL0     C30582   6.081   6.151   7.559  0.2460  0.3633 -1.0585
  968MOL0     C30583   6.198   6.236   7.504  0.3407  0.1250 -0.4578
  968MOL0     C30584   6.322   6.174   7.564 -0.1265  0.1663  0.2870
  968MOL0     C30585   6.454   6.250   7.546  0.0709 -0.9897  0.5130
  968MOL0     C30586   6.487   6.256   7.394 -0.3879  0.3999  0.1222
  968MOL0     C30587   6.610   6.350   7.376  0.3625  0.3824 -0.1979
  968MOL0     C30588   6.670   6.361   7.239 -0.3782  0.0828  0.5042
  968MOL0    Cl30589   6.808   6.483   7.254 -0.4868  0.0227 -0.3772
  968MOL0     C30590   5.816   6.263   7.717 -0.2550 -0.6132  1.2339
  968MOL0     C30591   5.754   6.282   7.839  0.2831 -0.0274 -0.5137
  968MOL0     O30592   5.614   6.485   8.017  0.6544 -0.0029 -0.2005
  968MOL0     C30593   5.377   6.536   8.148  0.4225  1.2091  0.1492
  968MOL0     C30594   5.298   6.562   8.252  0.3639  0.5090 -0.4156
  968MOL0     N30595   4.662   6.340   8.600  0.1754  0.0810 -0.1328
  968MOL0     N30596   4.590   6.245   8.561  0.6145 -0.1769  0.8212
  968MOL0     C30597   3.712   5.695   7.798  0.2233  0.4750  0.1779
  968MOL0     C30598   3.580   5.667   7.805  0.5229  1.1294 -0.3562
  968MOL0     C30599   3.159   5.561   7.979 -0.7856  0.2442  0.5283
  968MOL0     C30600   3.096   5.690   7.959  0.0742 -0.3779 -0.5473
  968MOL0     C30601   2.959   5.705   7.964 -0.4499  0.1390 -0.0572
  968MOL0     C30602   2.871   5.589   7.978  1.0509  0.2306  0.8977
  968MOL0     O30603   2.736   5.592   7.981  0.0173  0.7926 -0.3920
  968MOL0     C30604   2.669   5.689   7.905 -0.1537  0.4808 -0.1527
  968MOL0     C30605   2.518   5.658   7.897 -0.3983  0.1569  0.0700
  968MOL0     C30606   2.451   5.670   8.038  0.6413  0.1012 -0.7978
  968MOL0     C30607   2.290   5.660   8.029  0.9147 -0.4229  0.0423
  968MOL0     C30608   2.253   5.514   8.013  0.0401 -1.1312 -0.8561
  968MOL0     C30609   2.214   5.399   7.986 -0.2717  1.0420  0.5532
  968MOL0     C30610   2.935   5.467   7.991  0.3040  0.2048 -0.3807
  968MOL0     C30611   3.077   5.454   7.995 -0.3979  1.3166  0.0194
  968MOL0     C30612   3.119   5.311   8.009  0.2725  0.4126  0.4678
  968MOL0     H30613   3.533   5.783   8.118  1.7145  0.4935  0.3490
  968MOL0     H30614   3.763   5.825   8.100  0.6994 -0.0015 -1.9812
  968MOL0     H30615   3.979   5.923   7.841  1.8954  1.2215 -0.7644
  968MOL0     H30616   3.964   5.885   8.022 -0.5518  1.6691 -0.3712
  968MOL0     H30617   4.165   5.805   7.808 -0.3288 -0.9890  0.2730
  968MOL0     H30618   4.177   5.726   7.962 -0.5632 -0.3304 -0.0355
  968MOL0     H30619   4.194   5.969   8.065  1.6354 -2.3718  1.9966
  968MOL0     H30620   4.241   6.013   7.897  1.9678 -0.2707  0.3039
  968MOL0     H30621   4.378   5.786   8.053  1.0399 -1.2969 -2.8304
  968MOL0     H30622   4.447   5.886   7.928  2.0675  0.3403  0.3381
  968MOL0     H30623   4.440   6.082   8.063 -0.5340  0.2531  1.1702
  968MOL0     H30624   4.355   6.005   8.193  2.7055  0.8321  2.4582
  968MOL0     H30625   4.523   5.874   8.260 -0.6248  1.9569  0.8835
  968MOL0     H30626   4.617   5.886   8.101 -2.2364 -0.2045 -2.8048
  968MOL0     H30627   4.604   6.149   8.182  3.2517  1.7771  0.9030
  968MOL0     H30628   4.738   6.043   8.229 -0.3961  1.5989 -0.2248
  968MOL0     H30629   4.479   6.057   8.387  1.0592 -1.9487 -1.7805
  968MOL0     H30630   4.626   5.988   8.432  2.7420 -0.0228 -2.3049
  968MOL0     H30631   4.801   6.289   8.306 -1.2056  0.9023 -0.7095
  968MOL0     H30632   4.880   6.522   8.394 -0.0959 -1.0385  0.4101
  968MOL0     H30633   4.760   6.591   8.497  0.7888  0.8611 -1.3404
  968MOL0     H30634   4.882   6.506   8.705  1.0693  0.4073 -0.6515
  968MOL0     H30635   4.990   6.414   8.605  0.2015 -0.4850  0.8378
  968MOL0     H30636   5.093   6.591   8.683 -0.9522 -2.0648  0.9427
  968MOL0     H30637   4.988   6.710   8.604  4.3480  1.5729  0.9315
  968MOL0     H30638   5.206   6.651   8.482  0.8328 -1.3499  1.2382
  968MOL0     H30639   5.065   6.636   8.376 -0.7507 -2.0626 -0.9812
  968MOL0     H30640   5.218   6.229   8.319  0.1243  0.0862  0.6203
  968MOL0     H30641   5.369   6.197   8.138  3.5994  0.6961  0.2461
  968MOL0     H30642   5.460   6.118   7.760  0.2390 -0.7728  0.0472
  968MOL0     H30643   5.611   6.045   7.572  3.6741 -1.8508  1.0621
  968MOL0     H30644   5.972   6.152   7.373 -0.4083 -0.2012 -0.6074
  968MOL0     H30645   5.953   6.301   7.476  1.4768 -0.0123  1.4072
  968MOL0     H30646   6.082   6.177   7.666  2.8479  0.6255 -1.0919
  968MOL0     H30647   6.096   6.043   7.552 -0.7342  0.0131  1.1221
  968MOL0     H30648   6.207   6.236   7.395 -0.6084  0.6188 -0.5561
  968MOL0     H30649   6.187   6.343   7.524 -2.9535 -0.2972  0.7571
  968MOL0     H30650   6.323   6.075   7.517 -4.0810  0.7609 -1.4856
  968MOL0     H30651   6.312   6.160   7.671  1.6472  1.1473  0.6245
  968MOL0     H30652   6.527   6.203   7.612  3.6310  1.1678 -1.5420
  968MOL0     H30653   6.441   6.349   7.590  1.1806  0.7694 -2.7656
  968MOL0     H30654   6.493   6.154   7.355  0.2154  0.9026 -1.1619
  968MOL0     H30655   6.411   6.301   7.330 -0.2390 -0.3494 -0.5976
  968MOL0     H30656   6.682   6.315   7.450 -0.0837 -0.1415 -0.0061
  968MOL0     H30657   6.572   6.449   7.403 -2.1919 -0.5710 -0.0671
  968MOL0     H30658   6.707   6.260   7.219 -0.4179 -0.5317  3.1097
  968MOL0     H30659   6.592   6.385   7.166 -0.3799 -0.3126  0.3747
  968MOL0     H30660   5.920   6.294   7.710 -0.0283 -1.6100 -0.3861
  968MOL0     H30661   5.793   6.332   7.927 -0.9864 -1.3313  0.8308
  968MOL0     H30662   5.430   6.619   8.103 -0.1527  2.3476  1.5044
  968MOL0     H30663   5.295   6.664   8.289 -3.8389  0.4055 -0.0581
  968MOL0     H30664   3.750   5.675   7.698  1.3861 -2.8309  1.1438
  968MOL0     H30665   3.529   5.628   7.717  0.2459  0.1671  0.2164
  968MOL0     H30666   3.160   5.772   7.929 -0.2648 -0.1269 -0.5937
  968MOL0     H30667   2.929   5.807   7.943  0.3064  0.3625 -0.0512
  968MOL0     H30668   2.708   5.676   7.803  2.3980 -1.9364  0.9845
  968MOL0     H30669   2.690   5.789   7.943  0.6841  0.7038 -1.1655
  968MOL0     H30670   2.503   5.558   7.854  0.7859  0.1921 -0.4692
  968MOL0     H30671   2.473   5.735   7.834 -0.7977 -0.2511 -0.1540
  968MOL0     H30672   2.471   5.769   8.080 -0.9550 -1.0742  3.1826
  968MOL0     H30673   2.483   5.594   8.110 -1.6294 -0.4716 -0.3123
  968MOL0     H30674   2.250   5.683   8.128 -0.1872  2.5748 -1.0032
  968MOL0     H30675   2.255   5.735   7.958  2.3085 -0.5833 -0.8499
  968MOL0     H30676   2.176   5.302   7.958 -2.1201  2.1838 -1.2453
  968MOL0     H30677   2.865   5.386   8.007 -1.8283  1.9281 -0.4640
  968MOL0     H30678   3.035   5.248   8.041  1.5361 -0.1245  3.0465
  968MOL0     H30679   3.154   5.274   7.913 -3.1087 -0.6317 -0.4754
  968MOL0     H30680   3.198   5.304   8.085  0.3521  2.1348  0.5983
  969MOL0     O30681   8.576   6.825   7.074  0.6469  0.3153 -0.5061
  969MOL0     C30682   8.530   6.721   7.009 -0.9239 -0.7589 -0.4942
  969MOL0     O30683   8.613   6.636   6.936 -0.5437  1.2108  0.4988
  969MOL0     C30684   8.745   6.635   6.955  0.5541  0.3222  0.2577
  969MOL0     C30685   8.823   6.701   6.868 -0.3651  0.9807 -0.0325
  969MOL0     C30686   8.963   6.695   6.873 -0.1128  0.0522  0.1576
  969MOL0     C30687   9.021   6.617   6.975  0.1677 -0.1182 -0.4512
  969MOL0     O30688   9.157   6.593   6.971 -0.2185 -0.1033 -0.0056
  969MOL0     C30689   9.233   6.698   7.047 -0.2049  0.0445  0.0228
  969MOL0     C30690   9.256   6.642   7.186  0.0051 -0.6213 -0.1488
  969MOL0     C30691   9.346   6.724   7.277  0.2317  0.8145 -0.1015
  969MOL0     C30692   9.485   6.714   7.239 -0.8471 -0.3372 -0.5874
  969MOL0     C30693   9.584   6.791   7.333  0.3310 -0.2010 -0.4636
  969MOL0     C30694   9.711   6.850   7.288 -0.3152 -0.1065  0.9121
  969MOL0     C30695   9.798   6.917   7.396  0.6998  0.1463  0.6418
  969MOL0     C30696   9.863   6.825   7.504 -0.9553 -0.0054 -0.4634
  969MOL0     N30697   9.932   6.705   7.449  0.7324 -0.7366 -0.2159
  969MOL0     C30698  10.051   6.706   7.383  1.4206  0.3699  0.2242
  969MOL0     C30699  10.065   6.578   7.340 -0.4486 -0.2676  0.0175
  969MOL0     C30700  10.160   6.521   7.231 -0.1470 -1.1330 -0.1106
  969MOL0     C30701  10.177   6.372   7.200 -0.7019  0.3938  0.7715
  969MOL0     C30702  10.267   6.299   7.303  1.0133  0.0538 -0.7791
  969MOL0     C30703  10.410   6.340   7.303 -0.7041  0.3579  0.1702
  969MOL0     O30704  10.482   6.327   7.174 -0.1080 -0.3019 -0.3526
  969MOL0     C30705  10.614   6.353   7.177  0.8935  0.6098 -0.5219
  969MOL0     C30706  10.687   6.389   7.292 -0.2706 -0.9009  0.7199
  969MOL0     C30707  10.822   6.427   7.280 -0.9026  0.0189 -0.6853
  969MOL0     C30708  10.891   6.426   7.156  0.4025 -0.1974 -0.9161
  969MOL0     C30709  11.030   6.475   7.134 -0.2602  0.1272  0.2049
  969MOL0     O30710  11.097   6.426   7.018  0.3039  0.1237 -0.3579
  969MOL0     C30711  11.227   6.454   7.010  0.1777 -0.7960 -0.5611
  969MOL0     C30712  11.289   6.519   6.908 -0.0898 -0.7368  1.0145
  969MOL0     C30713  11.425   6.542   6.916  0.2514  0.2303 -0.0058
  969MOL0     C30714  11.506   6.496   7.021  0.4211  0.4298 -0.1954
  969MOL0     O30715  11.633   6.522   7.009 -1.4871 -0.2924  0.0982
  969MOL0     C30716  11.716   6.533   7.130 -0.5624  0.1179  0.5186
  969MOL0     C30717  11.848   6.581   7.070 -0.5027 -0.1120 -0.4424
  969MOL0     C30718  11.949   6.543   7.177 -0.2942  0.7154 -0.1246
  969MOL0     C30719  12.087   6.558   7.135  0.1504 -0.5545 -0.3245
  969MOL0     C30720  12.125   6.706   7.141  0.6040  0.0964 -0.3728
  969MOL0     C30721  12.251   6.727   7.065  0.0979  0.2035  0.1762
  969MOL0     C30722  12.289   6.873   7.056  0.2909  0.2697  0.4834
  969MOL0     C30723  12.264   6.949   7.183 -0.4678 -0.2584 -0.1287
  969MOL0    Cl30724  12.346   7.105   7.167  0.0965 -0.3250  0.3699
  969MOL0     C30725  11.446   6.427   7.127 -0.5215 -1.2116  0.5114
  969MOL0     C30726  11.311   6.411   7.122  0.8462  0.9126 -0.7518
  969MOL0     O30727  11.075   6.562   7.212  1.2564 -0.3243  0.2598
  969MOL0     C30728  10.817   6.373   7.048  0.6735  2.1493  0.2665
  969MOL0     C30729  10.681   6.334   7.062 -0.6768  0.2336  0.3441
  969MOL0     N30730   9.962   6.500   7.392  0.1220 -0.0995 -0.6597
  969MOL0     N30731   9.880   6.579   7.448 -0.6452  0.5854 -0.2400
  969MOL0     C30732   8.944   6.554   7.074 -0.8454 -1.0514 -0.6616
  969MOL0     C30733   8.803   6.561   7.064 -0.8458  0.1875  0.7696
  969MOL0     C30734   8.390   6.707   7.014 -0.2709 -0.0270 -0.7896
  969MOL0     C30735   8.313   6.818   7.002 -0.5609  0.4059 -0.1030
  969MOL0     C30736   8.168   6.806   7.033 -0.0924  0.1742 -0.6025
  969MOL0     C30737   8.108   6.678   7.049  0.5621 -0.3714 -0.7102
  969MOL0     O30738   7.973   6.644   7.069 -0.1459  0.0471 -0.0235
  969MOL0     C30739   7.882   6.741   7.082 -0.2259 -0.5549 -0.3332
  969MOL0     C30740   7.760   6.667   7.142 -0.2636 -0.0318 -0.5662
  969MOL0     C30741   7.695   6.556   7.062 -0.0332 -0.0224  0.4924
  969MOL0     C30742   7.574   6.484   7.125  0.1519 -0.0306  0.3712
  969MOL0     C30743   7.626   6.362   7.172 -0.5939  0.0871 -1.3687
  969MOL0     C30744   7.684   6.257   7.199  0.6516 -0.1381  0.2329
  969MOL0     C30745   8.195   6.566   7.058 -0.2556  0.0902 -0.0465
  969MOL0     C30746   8.335   6.577   7.041 -0.0666  0.4951 -1.2335
  969MOL0     C30747   8.417   6.460   7.075  0.7637 -0.8070 -0.8832
  969MOL0     H30748   8.776   6.761   6.790 -1.2731  0.0994 -0.1851
  969MOL0     H30749   9.020   6.737   6.791 -3.4898 -1.2194 -3.1407
  969MOL0     H30750   9.326   6.720   6.994 -0.5654 -0.3056 -0.7883
  969MOL0     H30751   9.169   6.786   7.058 -1.3563 -0.7835  0.0998
  969MOL0     H30752   9.297   6.542   7.171  1.3877  0.1098 -1.4728
  969MOL0     H30753   9.169   6.625   7.250  0.8594 -2.2578  0.6372
  969MOL0     H30754   9.330   6.683   7.377 -0.7901 -0.2195 -0.6508
  969MOL0     H30755   9.310   6.827   7.279 -0.6786  0.5320 -0.8477
  969MOL0     H30756   9.510   6.609   7.219 -0.2086  0.0994 -2.2689
  969MOL0     H30757   9.501   6.752   7.138 -1.0796 -0.4868 -0.6791
  969MOL0     H30758   9.524   6.870   7.379  2.2093 -0.2242  2.2867
  969MOL0     H30759   9.625   6.718   7.403  0.9798  0.0567 -0.5720
  969MOL0     H30760   9.771   6.770   7.246  0.6250  0.6457  0.7908
  969MOL0     H30761   9.691   6.922   7.208 -0.1326  0.4980  1.4044
  969MOL0     H30762   9.744   6.996   7.449  0.4362  0.1594  0.3603
  969MOL0     H30763   9.882   6.956   7.338  2.9602 -3.2488  1.3548
  969MOL0     H30764   9.936   6.876   7.566 -1.5880 -0.3850  0.6262
  969MOL0     H30765   9.783   6.782   7.566 -1.9700  3.1476  0.5919
  969MOL0     H30766  10.118   6.787   7.357  0.3198  1.1871 -0.1277
  969MOL0     H30767  10.115   6.556   7.138  0.3086 -2.0294 -0.6800
  969MOL0     H30768  10.258   6.570   7.241  0.1383 -1.8762  0.9600
  969MOL0     H30769  10.081   6.321   7.210  0.1405 -2.3784 -3.1588
  969MOL0     H30770  10.201   6.344   7.097  0.0981 -1.8773  1.5142
  969MOL0     H30771  10.269   6.191   7.285 -0.9964 -0.4617  1.5158
  969MOL0     H30772  10.232   6.316   7.405  4.1887 -1.5046  0.7396
  969MOL0     H30773  10.465   6.272   7.369  0.9703 -0.6779 -2.1565
  969MOL0     H30774  10.424   6.439   7.347  7.0524  0.1392 -0.5101
  969MOL0     H30775  10.643   6.409   7.389 -3.8026  3.0315 -1.3336
  969MOL0     H30776  10.872   6.463   7.369 -2.5308 -1.8106  1.0886
  969MOL0     H30777  11.233   6.566   6.828  2.2611 -2.1489 -1.6019
  969MOL0     H30778  11.480   6.595   6.839  4.1286 -2.0207  0.9974
  969MOL0     H30779  11.675   6.608   7.199 -0.0793  0.5506  0.3406
  969MOL0     H30780  11.723   6.433   7.172 -0.0886 -0.0617  0.0165
  969MOL0     H30781  11.874   6.541   6.972  1.0735 -0.7134  0.1835
  969MOL0     H30782  11.852   6.690   7.063  1.2746 -0.1089  0.1543
  969MOL0     H30783  11.924   6.606   7.263  1.0176  0.1605  0.6898
  969MOL0     H30784  11.931   6.441   7.212  0.7743  1.8826  4.5127
  969MOL0     H30785  12.105   6.507   7.040 -1.1838  1.2262 -1.6030
  969MOL0     H30786  12.140   6.504   7.214  1.3318  2.8497  1.4492
  969MOL0     H30787  12.143   6.739   7.244  0.9530  0.5745 -0.5863
  969MOL0     H30788  12.045   6.765   7.097 -0.2666  0.0657  1.0792
  969MOL0     H30789  12.332   6.674   7.116  0.7916  0.8773 -0.1978
  969MOL0     H30790  12.244   6.697   6.960  0.2659 -1.9543  0.7413
  969MOL0     H30791  12.231   6.926   6.980  0.9101  1.3510  0.7455
  969MOL0     H30792  12.396   6.891   7.044  0.0656  3.2924  2.0336
  969MOL0     H30793  12.160   6.951   7.217 -0.3152 -0.1076  0.3354
  969MOL0     H30794  12.320   6.883   7.250 -1.1232 -3.2103 -2.2903
  969MOL0     H30795  11.500   6.371   7.203 -1.8587 -3.4914 -0.1317
  969MOL0     H30796  11.276   6.354   7.207  3.7204 -0.9015 -0.6542
  969MOL0     H30797  10.858   6.362   6.948  0.6958  4.3650 -0.0198
  969MOL0     H30798  10.624   6.289   6.982 -4.2033  1.5902  1.9011
  969MOL0     H30799   8.989   6.493   7.152  0.8407 -0.4961 -1.1529
  969MOL0     H30800   8.746   6.519   7.147  2.5473 -1.7791  2.3084
  969MOL0     H30801   8.365   6.912   6.987  0.9442 -0.3922 -0.1281
  969MOL0     H30802   8.105   6.894   7.034 -1.2659 -0.6297  1.6066
  969MOL0     H30803   7.858   6.801   6.994  0.3494  1.7139  0.9563
  969MOL0     H30804   7.911   6.822   7.150 -2.1225 -0.7476  0.8059
  969MOL0     H30805   7.681   6.735   7.177 -0.1086  0.3626 -0.9837
  969MOL0     H30806   7.802   6.614   7.228  2.8887  1.8570 -0.8163
  969MOL0     H30807   7.773   6.485   7.029  0.2500  0.5094 -0.0095
  969MOL0     H30808   7.664   6.602   6.968  0.6715  0.0724  0.2955
  969MOL0     H30809   7.523   6.549   7.197 -1.0137 -1.4134  0.8365
  969MOL0     H30810   7.499   6.449   7.053  0.9153 -0.1902 -0.3632
  969MOL0     H30811   7.730   6.161   7.207  1.2580  0.0815 -0.4421
  969MOL0     H30812   8.169   6.467   7.094  2.5022 -0.8452 -0.3859
  969MOL0     H30813   8.371   6.381   7.135  2.3108 -0.4586  0.8542
  969MOL0     H30814   8.461   6.414   6.986 -1.9921  0.5554 -3.1323
  969MOL0     H30815   8.488   6.489   7.153 -2.0108  0.8651  1.2078
  970MOL0     O30816   4.145   3.235   3.882 -0.4711 -0.3073 -0.0341
  970MOL0     C30817   4.079   3.341   3.887  0.3544  0.4667 -0.4793
  970MOL0     O30818   4.124   3.470   3.875 -0.6891 -0.6095  0.4662
  970MOL0     C30819   4.247   3.489   3.830 -0.0057 -0.2878  1.1152
  970MOL0     C30820   4.270   3.586   3.740  0.1493  0.3068 -0.6813
  970MOL0     C30821   4.395   3.615   3.682 -0.6376 -0.2121  0.2546
  970MOL0     C30822   4.508   3.547   3.730 -0.2247  0.1700 -0.9800
  970MOL0     O30823   4.624   3.580   3.675  0.3783  0.1494  0.1819
  970MOL0     C30824   4.736   3.524   3.741 -0.5294 -0.6085  0.2499
  970MOL0     C30825   4.856   3.559   3.660  0.2574 -0.2947 -0.4354
  970MOL0     C30826   4.859   3.490   3.522  0.3914 -0.5275  0.0219
  970MOL0     C30827   5.000   3.480   3.462  0.2042  0.5132  0.3253
  970MOL0     C30828   5.046   3.607   3.395 -0.0769  0.5184  0.4496
  970MOL0     C30829   5.188   3.593   3.346 -0.3320 -0.7001 -0.4035
  970MOL0     C30830   5.238   3.452   3.279 -0.4822 -0.0314  0.7109
  970MOL0     C30831   5.385   3.448   3.234 -0.0040 -0.2236 -0.7323
  970MOL0     N30832   5.474   3.465   3.353 -0.1955 -0.8584  0.9228
  970MOL0     C30833   5.523   3.363   3.421 -0.3467  1.1824  0.1191
  970MOL0     C30834   5.633   3.411   3.477 -1.6430  0.4287  0.8946
  970MOL0     C30835   5.727   3.334   3.568  0.7401  0.1404 -0.9421
  970MOL0     C30836   5.871   3.327   3.535 -0.1788 -0.9771  0.2137
  970MOL0     C30837   5.894   3.289   3.392 -0.7183  0.6425 -0.4463
  970MOL0     C30838   6.043   3.283   3.361  0.5356 -0.7833  0.4907
  970MOL0     O30839   6.118   3.243   3.484 -0.3542 -0.0146  0.1231
  970MOL0     C30840   6.255   3.273   3.484  0.6213 -0.3944 -0.6572
  970MOL0     C30841   6.310   3.301   3.608 -0.6165  0.3359 -0.3936
  970MOL0     C30842   6.447   3.312   3.625  0.2812 -0.5706  0.7132
  970MOL0     C30843   6.533   3.322   3.507  1.3647 -0.0651  0.1655
  970MOL0     C30844   6.678   3.339   3.523 -0.8147 -0.8549 -0.0954
  970MOL0     O30845   6.741   3.387   3.413 -0.2725  0.7654 -0.3657
  970MOL0     C30846   6.874   3.414   3.416 -0.2307 -0.2287 -0.2340
  970MOL0     C30847   6.924   3.504   3.514 -0.3652 -0.0101  1.2108
  970MOL0     C30848   7.060   3.546   3.515 -0.8989 -0.3087  0.9498
  970MOL0     C30849   7.145   3.504   3.407  0.5248 -0.1028 -0.1166
  970MOL0     O30850   7.275   3.542   3.420  0.2033 -0.6954 -0.1633
  970MOL0     C30851   7.343   3.580   3.297  0.0898 -0.0955 -0.3659
  970MOL0     C30852   7.451   3.479   3.275  0.1182 -0.2683  0.3276
  970MOL0     C30853   7.524   3.496   3.135  0.0929 -0.0911 -0.0551
  970MOL0     C30854   7.643   3.592   3.126 -0.2932  0.5024 -0.1064
  970MOL0     C30855   7.685   3.598   2.976  0.0308  0.4450 -0.4560
  970MOL0     C30856   7.824   3.634   2.952  0.0572  0.4475  0.4839
  970MOL0     C30857   7.840   3.655   2.804 -0.5227 -1.1141  0.2277
  970MOL0     C30858   7.985   3.626   2.756  0.1337 -0.0644 -0.1138
  970MOL0    Cl30859   8.112   3.728   2.818  0.1012  0.3573 -0.1908
  970MOL0     C30860   7.095   3.410   3.311 -0.7951 -0.3411 -0.6014
  970MOL0     C30861   6.958   3.379   3.314 -0.0794  0.0839 -0.3619
  970MOL0     O30862   6.732   3.317   3.636  0.1808 -0.1562  0.0231
  970MOL0     C30863   6.461   3.324   3.379 -0.2356 -0.1134 -0.6314
  970MOL0     C30864   6.332   3.293   3.370  0.1765  0.2400  0.8733
  970MOL0     N30865   5.655   3.535   3.428  0.4048  0.2855  0.0459
  970MOL0     N30866   5.555   3.571   3.361  0.0412 -0.9379  0.5516
  970MOL0     C30867   4.486   3.457   3.834 -0.4901  0.5283  0.2592
  970MOL0     C30868   4.363   3.428   3.878  0.6760  0.1796 -0.1525
  970MOL0     C30869   3.951   3.335   3.945  1.0516 -0.6653 -0.2810
  970MOL0     C30870   3.908   3.440   4.028 -0.2209 -0.4897  0.0829
  970MOL0     C30871   3.776   3.448   4.069 -0.1599 -0.0383  0.7183
  970MOL0     C30872   3.683   3.354   4.032  0.1774 -0.5679 -0.5285
  970MOL0     O30873   3.555   3.381   4.059  0.4230  0.3683 -0.1055
  970MOL0     C30874   3.452   3.294   4.005  0.0247  0.3317  0.8416
  970MOL0     C30875   3.326   3.376   4.024  0.6467  0.6955 -0.1013
  970MOL0     C30876   3.329   3.496   3.941  0.7992  0.0277  0.0641
  970MOL0     C30877   3.286   3.624   4.010 -0.5089  0.0301  1.0796
  970MOL0     C30878   3.390   3.670   4.099 -0.3764  0.1335 -0.1494
  970MOL0     C30879   3.463   3.724   4.179  0.0075  0.0648  0.0443
  970MOL0     C30880   3.726   3.242   3.969 -0.4380  0.2209 -0.1014
  970MOL0     C30881   3.859   3.226   3.922  0.4007 -0.1666  0.2603
  970MOL0     C30882   3.888   3.108   3.842  0.3556 -1.0356  0.4299
  970MOL0     H30883   4.191   3.634   3.683 -0.8084 -2.8403 -2.1845
  970MOL0     H30884   4.408   3.682   3.597  2.0517 -1.7127 -0.6210
  970MOL0     H30885   4.756   3.567   3.839  0.2639 -0.2433 -0.0598
  970MOL0     H30886   4.733   3.414   3.745 -1.7576 -0.6582 -1.1764
  970MOL0     H30887   4.934   3.507   3.717  0.5089 -0.1763 -0.6707
  970MOL0     H30888   4.874   3.667   3.653  0.6542 -0.4323 -1.6153
  970MOL0     H30889   4.782   3.530   3.455  0.3102  0.7276  0.8344
  970MOL0     H30890   4.829   3.385   3.531 -1.3246 -0.0395  0.2726
  970MOL0     H30891   5.065   3.460   3.547  0.1053  3.5022  1.2285
  970MOL0     H30892   4.979   3.399   3.391 -3.1100 -1.0802  2.8328
  970MOL0     H30893   4.979   3.639   3.315  0.4004  4.5994  1.4654
  970MOL0     H30894   5.041   3.683   3.473  1.1535  2.3813 -1.1722
  970MOL0     H30895   5.205   3.670   3.271  2.2395 -1.5440 -0.8055
  970MOL0     H30896   5.250   3.616   3.434 -0.7414  2.4777 -0.8661
  970MOL0     H30897   5.180   3.437   3.188 -0.8288  4.3780 -0.0386
  970MOL0     H30898   5.223   3.373   3.354 -0.5391 -1.8332 -1.1171
  970MOL0     H30899   5.415   3.358   3.179  0.7320 -2.4557  2.9582
  970MOL0     H30900   5.397   3.540   3.176  1.6881  0.4108  0.5285
  970MOL0     H30901   5.480   3.264   3.419  2.3310 -0.0754  0.5288
  970MOL0     H30902   5.705   3.375   3.667 -2.5274 -2.3917 -0.4228
  970MOL0     H30903   5.684   3.237   3.596 -0.5968  0.9019 -0.1925
  970MOL0     H30904   5.913   3.427   3.553 -1.2328  0.1221 -2.8395
  970MOL0     H30905   5.915   3.249   3.597  0.4288 -1.0544 -0.3027
  970MOL0     H30906   5.851   3.359   3.320  0.3238  2.3029  0.4676
  970MOL0     H30907   5.843   3.195   3.368  0.3802 -0.8473  2.5734
  970MOL0     H30908   6.077   3.383   3.333 -0.1416 -0.2624  1.4918
  970MOL0     H30909   6.060   3.216   3.275  0.3277 -3.5469  2.4674
  970MOL0     H30910   6.246   3.293   3.696 -2.3592  1.4580 -1.4886
  970MOL0     H30911   6.489   3.338   3.722  1.3845 -0.3167  0.1789
  970MOL0     H30912   6.862   3.534   3.598 -0.5804 -0.4647  1.2133
  970MOL0     H30913   7.097   3.613   3.591 -2.6904  2.3526 -0.3514
  970MOL0     H30914   7.274   3.591   3.212  1.2864 -0.2470 -1.3946
  970MOL0     H30915   7.388   3.679   3.310  0.0511 -0.2363  0.9038
  970MOL0     H30916   7.525   3.485   3.356  1.7697 -2.8935 -0.8168
  970MOL0     H30917   7.407   3.379   3.285 -1.3636  0.3072 -0.2433
  970MOL0     H30918   7.575   3.403   3.107 -2.6219 -2.0068  0.8466
  970MOL0     H30919   7.447   3.529   3.064  0.6229  3.2927  0.7697
  970MOL0     H30920   7.720   3.563   3.198 -1.7542  1.8579  2.1002
  970MOL0     H30921   7.608   3.691   3.155  2.2996  1.8543 -1.2755
  970MOL0     H30922   7.622   3.669   2.922 -2.4420 -2.4728 -1.6859
  970MOL0     H30923   7.669   3.499   2.932  0.5944  1.2672 -2.6127
  970MOL0     H30924   7.845   3.725   3.010  1.1545  0.9406 -0.6288
  970MOL0     H30925   7.882   3.553   2.998 -0.4868 -0.9594 -1.1989
  970MOL0     H30926   7.813   3.755   2.769  2.9583 -1.2541 -3.5476
  970MOL0     H30927   7.783   3.581   2.747 -1.7024  0.3685 -0.6123
  970MOL0     H30928   8.013   3.525   2.786 -1.1910 -1.5470 -3.3212
  970MOL0     H30929   7.988   3.636   2.647 -0.2107  0.4626 -0.0781
  970MOL0     H30930   7.157   3.375   3.230 -0.0184  4.7051 -2.5322
  970MOL0     H30931   6.923   3.319   3.231 -0.3769  1.3481 -1.1755
  970MOL0     H30932   6.518   3.350   3.290  0.0337  1.7292  0.0369
  970MOL0     H30933   6.290   3.304   3.270  2.2301  1.4068  0.0846
  970MOL0     H30934   4.566   3.403   3.885 -0.5533 -1.1079 -1.2775
  970MOL0     H30935   4.358   3.359   3.962 -0.2303 -1.2156 -1.3024
  970MOL0     H30936   3.974   3.518   4.064 -1.5876 -0.3583  2.5080
  970MOL0     H30937   3.741   3.532   4.129  1.8123 -0.7895  3.0987
  970MOL0     H30938   3.443   3.197   4.055 -3.8639 -1.0634 -2.0347
  970MOL0     H30939   3.477   3.270   3.901  0.5359 -1.0704  1.2628
  970MOL0     H30940   3.304   3.396   4.129  0.5640  2.0159 -0.3539
  970MOL0     H30941   3.248   3.316   3.974  1.5704  0.6766 -1.5743
  970MOL0     H30942   3.251   3.491   3.863 -0.3665 -1.8822  1.2662
  970MOL0     H30943   3.416   3.509   3.877 -1.2747 -1.4081 -3.3498
  970MOL0     H30944   3.271   3.701   3.934 -3.6701 -2.1994 -0.8075
  970MOL0     H30945   3.191   3.618   4.064 -0.7244  0.6803  0.7748
  970MOL0     H30946   3.514   3.761   4.267 -1.3712  1.9450  0.1017
  970MOL0     H30947   3.662   3.167   3.925  1.3349 -0.6292 -1.3761
  970MOL0     H30948   3.806   3.036   3.836 -1.6489  0.9954  1.7040
  970MOL0     H30949   3.908   3.150   3.744  0.6216 -0.7192  0.6179
  970MOL0     H30950   3.979   3.055   3.872  1.5875 -0.3476 -1.8580
  971MOL0     O30951   4.103   0.579   3.683 -0.0322 -0.1800 -0.1108
  971MOL0     C30952   4.035   0.602   3.782 -1.1603 -0.6493  0.3064
  971MOL0     O30953   4.091   0.594   3.913  0.0176  1.4357  0.4581
  971MOL0     C30954   4.221   0.546   3.927  0.6715  0.6132  0.1960
  971MOL0     C30955   4.306   0.626   4.005  0.1617 -0.1500  0.0508
  971MOL0     C30956   4.436   0.583   4.019 -0.2538 -0.4912  0.5548
  971MOL0     C30957   4.481   0.459   3.965  0.9399  0.3006 -0.5790
  971MOL0     O30958   4.610   0.437   3.997  0.1231  0.0192 -0.1662
  971MOL0     C30959   4.675   0.334   3.917  0.1485 -0.0270  0.3158
  971MOL0     C30960   4.821   0.319   3.953 -0.5474 -0.6222 -0.2466
  971MOL0     C30961   4.921   0.417   3.903  0.9543  0.1702  0.0919
  971MOL0     C30962   5.065   0.357   3.936 -0.0032  0.3187 -0.0145
  971MOL0     C30963   5.184   0.433   3.870 -0.3176  0.3525  0.5210
  971MOL0     C30964   5.313   0.376   3.931 -0.2515  0.8807 -0.2909
  971MOL0     C30965   5.436   0.414   3.845 -1.3274  0.3864 -0.2055
  971MOL0     C30966   5.477   0.564   3.853  0.1335 -0.1781 -0.0314
  971MOL0     N30967   5.610   0.589   3.797 -0.6316 -0.6590 -0.0292
  971MOL0     C30968   5.649   0.576   3.670 -0.2658 -0.3210 -0.0383
  971MOL0     C30969   5.784   0.593   3.663  0.6989  0.3999 -0.3261
  971MOL0     C30970   5.841   0.621   3.534 -0.2955 -0.5207  0.3918
  971MOL0     C30971   5.985   0.562   3.525 -0.5359  0.1871  0.6811
  971MOL0     C30972   6.090   0.664   3.589 -0.8024  1.0002 -0.4383
  971MOL0     C30973   6.236   0.622   3.547  0.4066  0.3813 -0.8165
  971MOL0     O30974   6.264   0.644   3.405  0.2691 -0.1000  0.5940
  971MOL0     C30975   6.398   0.618   3.376  0.1259 -0.8716  0.0565
  971MOL0     C30976   6.451   0.710   3.294  0.2865  0.4355  0.4264
  971MOL0     C30977   6.584   0.691   3.252  0.8994  0.0376  0.2958
  971MOL0     C30978   6.658   0.574   3.287 -0.2127 -0.7803  0.2697
  971MOL0     C30979   6.801   0.560   3.248  1.0828  0.5596 -0.3363
  971MOL0     O30980   6.858   0.647   3.168 -0.1273  0.3973  0.6034
  971MOL0     C30981   6.996   0.656   3.172 -0.1695 -0.3549 -0.2890
  971MOL0     C30982   7.086   0.630   3.274  0.1446 -0.3810 -0.5078
  971MOL0     C30983   7.227   0.648   3.265  0.9550 -1.1688  0.4391
  971MOL0     C30984   7.276   0.721   3.157 -0.0752  0.1977  0.2581
  971MOL0     O30985   7.416   0.737   3.156 -0.1698 -0.6601 -0.2577
  971MOL0     C30986   7.471   0.835   3.070 -0.5759  0.1740  0.5672
  971MOL0     C30987   7.427   0.979   3.115  0.0391  0.3750 -0.6135
  971MOL0     C30988   7.531   1.085   3.099 -0.3688 -1.0682 -0.0286
  971MOL0     C30989   7.521   1.194   3.208  0.4353 -0.4681 -0.4010
  971MOL0     C30990   7.637   1.297   3.220  0.0965 -0.1591 -0.3790
  971MOL0     C30991   7.602   1.439   3.272 -0.3941  0.0211 -0.2431
  971MOL0     C30992   7.725   1.524   3.280  1.1686  0.3844 -0.6917
  971MOL0     C30993   7.698   1.669   3.328 -0.2602 -0.5854 -0.4856
  971MOL0    Cl30994   7.627   1.774   3.197 -0.2097  0.0442  0.3065
  971MOL0     C30995   7.189   0.756   3.049  0.9222  0.4987  0.2217
  971MOL0     C30996   7.050   0.726   3.055  0.2631  0.2691  0.5340
  971MOL0     O30997   6.856   0.462   3.294 -0.8910 -0.4003  0.1675
  971MOL0     C30998   6.594   0.490   3.377  0.3056  0.0949  0.3366
  971MOL0     C30999   6.463   0.508   3.416  0.1375  0.2943  0.2987
  971MOL0     N31000   5.828   0.594   3.794 -0.5394  0.7473  0.4468
  971MOL0     N31001   5.724   0.597   3.871  0.1456 -0.2273  0.2669
  971MOL0     C31002   4.392   0.377   3.886 -0.4337 -0.8904 -0.7300
  971MOL0     C31003   4.262   0.427   3.871 -0.3786  0.9093  0.5628
  971MOL0     C31004   3.892   0.632   3.771  0.9023 -0.4423  0.3715
  971MOL0     C31005   3.818   0.625   3.895  0.4802  0.0269  0.4526
  971MOL0     C31006   3.683   0.650   3.892 -0.0145 -0.2487  0.1497
  971MOL0     C31007   3.611   0.675   3.772  0.3701 -0.3459  0.0564
  971MOL0     O31008   3.476   0.696   3.787  0.3713  0.1490 -0.8839
  971MOL0     C31009   3.398   0.578   3.804  0.6045 -0.4370 -0.7304
  971MOL0     C31010   3.362   0.525   3.666  0.4135 -0.2993 -0.0932
  971MOL0     C31011   3.296   0.391   3.652  0.4170 -0.0421 -0.5238
  971MOL0     C31012   3.280   0.346   3.509 -0.8820  0.3545 -0.5278
  971MOL0     C31013   3.405   0.333   3.440  0.0647 -0.2091 -0.6588
  971MOL0     C31014   3.513   0.357   3.392  0.0846  0.7291 -0.4705
  971MOL0     C31015   3.680   0.669   3.656 -0.3973  0.3761  0.3818
  971MOL0     C31016   3.820   0.647   3.647  0.3195 -0.5711 -0.4551
  971MOL0     C31017   3.889   0.652   3.517  0.5341  0.5764 -0.2637
  971MOL0     H31018   4.279   0.727   4.033 -0.2070 -0.0945 -0.4926
  971MOL0     H31019   4.503   0.644   4.077 -1.6105  1.2734  0.3597
  971MOL0     H31020   4.615   0.246   3.937 -0.7099  0.6730  0.8730
  971MOL0     H31021   4.665   0.358   3.811 -0.6489  2.1804  0.8259
  971MOL0     H31022   4.857   0.220   3.922  2.1521 -0.1363  1.0024
  971MOL0     H31023   4.827   0.312   4.062  0.2098  0.6200 -0.1790
  971MOL0     H31024   4.910   0.506   3.966  0.5357 -0.6543  1.2338
  971MOL0     H31025   4.906   0.432   3.796 -0.6680  2.0117  0.5401
  971MOL0     H31026   5.065   0.355   4.045 -2.5113 -0.6596  0.0517
  971MOL0     H31027   5.064   0.257   3.890 -2.9045  0.3230 -0.1874
  971MOL0     H31028   5.181   0.413   3.763  0.9860 -0.1625  0.5601
  971MOL0     H31029   5.182   0.540   3.889  2.7675  0.5080  0.3835
  971MOL0     H31030   5.318   0.399   4.038 -1.1981 -0.8225  0.1364
  971MOL0     H31031   5.301   0.269   3.913  0.3697  0.5288  1.2789
  971MOL0     H31032   5.428   0.381   3.741  0.6177 -1.6889  0.2277
  971MOL0     H31033   5.525   0.364   3.882 -1.8569  0.0412  0.6338
  971MOL0     H31034   5.393   0.620   3.809  1.0134  2.0763  1.0088
  971MOL0     H31035   5.478   0.584   3.960  0.2467 -1.9879  0.3361
  971MOL0     H31036   5.577   0.577   3.589 -1.1070  1.0520  0.6948
  971MOL0     H31037   5.787   0.559   3.461  0.2513 -0.3386 -0.1773
  971MOL0     H31038   5.833   0.729   3.514  2.8175 -0.1864  0.4862
  971MOL0     H31039   6.000   0.471   3.584 -1.4486  2.6333  5.0597
  971MOL0     H31040   6.015   0.551   3.420  0.6227 -1.0419  1.1090
  971MOL0     H31041   6.077   0.669   3.697 -0.7588 -0.8225 -0.3186
  971MOL0     H31042   6.079   0.766   3.552 -0.1401  1.4862  0.6529
  971MOL0     H31043   6.241   0.513   3.560 -0.5664  0.6086  1.9874
  971MOL0     H31044   6.305   0.681   3.608  0.5319  0.4057 -0.9786
  971MOL0     H31045   6.396   0.800   3.270 -2.2390 -1.4935 -1.6236
  971MOL0     H31046   6.628   0.777   3.203 -1.6625  3.0080  2.8305
  971MOL0     H31047   7.051   0.586   3.367  0.4045 -1.3772 -0.8618
  971MOL0     H31048   7.287   0.607   3.345  1.0666 -2.0575 -0.0889
  971MOL0     H31049   7.580   0.828   3.070 -0.2200  3.8279  0.3559
  971MOL0     H31050   7.436   0.825   2.966 -0.2589  1.8991  0.2654
  971MOL0     H31051   7.334   0.999   3.059 -1.5134  0.4561  1.8570
  971MOL0     H31052   7.405   0.978   3.222  1.7446  3.3237 -0.1129
  971MOL0     H31053   7.630   1.041   3.113  1.1843  2.4454  1.3996
  971MOL0     H31054   7.528   1.132   3.000  3.4867  1.1294  0.6902
  971MOL0     H31055   7.515   1.154   3.310  0.9485  0.8010  0.1582
  971MOL0     H31056   7.432   1.254   3.186  1.0277  0.6361  0.1004
  971MOL0     H31057   7.683   1.314   3.122  0.2298  2.4218  0.0592
  971MOL0     H31058   7.714   1.258   3.286  1.2427 -1.0291 -2.1455
  971MOL0     H31059   7.532   1.496   3.211 -0.4841  0.0100 -0.1501
  971MOL0     H31060   7.554   1.429   3.369 -1.7878  1.6719 -0.7134
  971MOL0     H31061   7.779   1.532   3.185 -0.0891  2.7063 -1.2865
  971MOL0     H31062   7.785   1.478   3.359 -2.5500 -1.4845  1.2930
  971MOL0     H31063   7.627   1.653   3.410 -0.8100 -2.4436 -1.2866
  971MOL0     H31064   7.782   1.721   3.375 -1.3026 -0.9403  1.9562
  971MOL0     H31065   7.220   0.812   2.961  1.0590 -1.0827 -0.7895
  971MOL0     H31066   6.997   0.744   2.963 -1.7685  0.2456  1.6353
  971MOL0     H31067   6.644   0.402   3.415 -0.3172  0.4055  1.9429
  971MOL0     H31068   6.429   0.435   3.489 -2.4181  0.1429 -0.9343
  971MOL0     H31069   4.418   0.296   3.820 -2.6908  1.8253 -5.5257
  971MOL0     H31070   4.203   0.380   3.793  3.7535  0.2247 -2.5317
  971MOL0     H31071   3.871   0.623   3.989  0.7130  1.5595  0.3738
  971MOL0     H31072   3.634   0.652   3.989 -1.9427 -0.7634 -0.7738
  971MOL0     H31073   3.309   0.587   3.868  1.0220 -1.2144 -0.0155
  971MOL0     H31074   3.454   0.504   3.862 -0.0831  1.3077  2.3844
  971MOL0     H31075   3.452   0.533   3.604 -1.0292  0.5705 -2.2113
  971MOL0     H31076   3.290   0.595   3.622  2.1848 -0.3794 -3.4569
  971MOL0     H31077   3.201   0.387   3.706 -0.5250  1.3912 -1.9769
  971MOL0     H31078   3.372   0.323   3.691 -1.2843 -1.0359  1.2313
  971MOL0     H31079   3.236   0.246   3.504  3.4049 -1.7100 -3.8136
  971MOL0     H31080   3.214   0.416   3.457 -0.7478  1.3284  0.5674
  971MOL0     H31081   3.610   0.364   3.348 -0.9142 -1.6691 -3.4672
  971MOL0     H31082   3.618   0.685   3.568 -1.0476 -0.3791  0.6980
  971MOL0     H31083   3.821   0.679   3.436  1.3821 -2.4093 -2.1522
  971MOL0     H31084   3.969   0.727   3.520 -0.3468  1.5260  0.0087
  971MOL0     H31085   3.929   0.555   3.485  0.0477 -0.2857  1.5731
  972MOL0     O31086  10.796   7.231   3.079 -0.4061 -0.3565  0.1071
  972MOL0     C31087  10.728   7.299   3.158  0.3623 -0.9998  0.5023
  972MOL0     O31088  10.772   7.371   3.270 -0.6568  0.6788  0.0299
  972MOL0     C31089  10.902   7.406   3.270 -0.2405  0.5873 -0.8858
  972MOL0     C31090  10.952   7.518   3.199  1.0206  0.7437  0.1911
  972MOL0     C31091  11.092   7.542   3.184 -1.0966 -0.1173  0.4920
  972MOL0     C31092  11.181   7.467   3.254  0.4269  0.8156 -0.0460
  972MOL0     O31093  11.322   7.457   3.243  0.3070 -0.0872  0.5002
  972MOL0     C31094  11.390   7.554   3.159  0.2539 -0.0702 -0.2984
  972MOL0     C31095  11.529   7.504   3.136  0.9650 -0.6199  0.2392
  972MOL0     C31096  11.610   7.584   3.027 -0.2409 -0.2142 -1.8394
  972MOL0     C31097  11.722   7.492   2.959 -0.1826  0.2221 -0.1659
  972MOL0     C31098  11.845   7.467   3.049 -0.1614  0.1550  0.5200
  972MOL0     C31099  11.970   7.414   2.969 -0.2853 -0.5279  0.5489
  972MOL0     C31100  12.096   7.403   3.058  0.9808  0.0751 -0.5105
  972MOL0     C31101  12.217   7.352   2.978  0.7620 -0.1517 -0.3244
  972MOL0     N31102  12.245   7.207   2.984  0.7559 -0.5301 -0.0697
  972MOL0     C31103  12.154   7.110   2.944 -1.1875  0.6341  0.5152
  972MOL0     C31104  12.215   6.990   2.986 -0.3092 -1.3253  0.4350
  972MOL0     C31105  12.175   6.855   2.976 -0.5640 -0.0165 -0.5774
  972MOL0     C31106  12.131   6.816   2.830  0.1568  0.4796  0.2570
  972MOL0     C31107  12.247   6.817   2.728  0.2572 -0.1099 -0.5650
  972MOL0     C31108  12.268   6.680   2.671 -0.4416  0.2870  0.1961
  972MOL0     O31109  12.373   6.677   2.571  0.4923  0.4881 -0.8178
  972MOL0     C31110  12.500   6.664   2.592 -1.2386  0.5840  0.6027
  972MOL0     C31111  12.582   6.721   2.493  0.2083 -0.8220  0.3253
  972MOL0     C31112  12.724   6.728   2.511  0.1862 -0.1889 -0.3037
  972MOL0     C31113  12.775   6.666   2.628 -1.0679 -0.0178  1.0796
  972MOL0     C31114  12.922   6.672   2.647  0.1855  0.7965  0.0498
  972MOL0     O31115  12.999   6.755   2.562 -0.1797  0.4995 -0.2934
  972MOL0     C31116  13.133   6.734   2.553 -0.1820  0.4510 -0.4940
  972MOL0     C31117  13.181   6.727   2.427 -0.1500 -0.5786 -0.1802
  972MOL0     C31118  13.319   6.703   2.402  0.2211  0.6724 -1.6506
  972MOL0     C31119  13.405   6.677   2.507  0.1043  0.5988  0.2567
  972MOL0     O31120  13.536   6.629   2.491  0.8552  1.0215 -0.5198
  972MOL0     C31121  13.634   6.734   2.472  0.5922 -0.2465 -0.2382
  972MOL0     C31122  13.731   6.712   2.598 -0.0968  0.6410  0.3223
  972MOL0     C31123  13.817   6.836   2.629  0.2138 -0.0907 -0.1745
  972MOL0     C31124  13.901   6.801   2.750  0.1381 -0.0493 -0.4020
  972MOL0     C31125  14.041   6.768   2.718  0.2856  0.1647  0.3652
  972MOL0     C31126  14.069   6.639   2.647  0.8156 -0.2475 -0.0421
  972MOL0     C31127  14.199   6.587   2.685 -0.5750 -0.0664  0.7725
  972MOL0     C31128  14.322   6.675   2.662  0.4970  0.4911 -0.6038
  972MOL0    Cl31129  14.333   6.714   2.488 -0.4815 -0.2586 -0.9590
  972MOL0     C31130  13.352   6.675   2.636  1.0543 -1.6866 -0.5631
  972MOL0     C31131  13.215   6.702   2.662  0.3387  0.2988  0.1309
  972MOL0     O31132  12.972   6.576   2.710  0.4377  0.2958 -0.5565
  972MOL0     C31133  12.690   6.619   2.723 -0.1645 -0.3327 -0.2641
  972MOL0     C31134  12.557   6.615   2.705  0.4809  0.2452  0.0606
  972MOL0     N31135  12.340   7.030   3.045  0.5693  0.8611  0.2670
  972MOL0     N31136  12.354   7.156   3.045  0.3084  0.3860  0.3726
  972MOL0     C31137  11.128   7.375   3.357 -0.8295 -1.0566  0.4964
  972MOL0     C31138  10.991   7.339   3.352  0.0512  0.6006 -1.0205
  972MOL0     C31139  10.584   7.277   3.148 -0.0294 -0.1245 -0.4141
  972MOL0     C31140  10.513   7.258   3.264  1.3130 -0.1495  0.3657
  972MOL0     C31141  10.377   7.251   3.272 -0.2680  1.1952  0.2524
  972MOL0     C31142  10.303   7.263   3.157 -0.8047 -0.3264  0.5040
  972MOL0     O31143  10.173   7.292   3.172 -0.0273  0.3528  0.2824
  972MOL0     C31144  10.083   7.288   3.065 -0.0661  0.8388 -0.0422
  972MOL0     C31145  10.056   7.140   3.015 -0.0479  0.7400 -1.0392
  972MOL0     C31146   9.915   7.134   2.951 -0.2398  0.4406 -0.3847
  972MOL0     C31147   9.877   6.989   2.912  0.8308  0.4720  0.3999
  972MOL0     C31148   9.953   6.953   2.796 -0.3484 -0.2434  0.4325
  972MOL0     C31149  10.022   6.933   2.695  0.7540  0.0801  0.6717
  972MOL0     C31150  10.367   7.277   3.025  0.4075 -0.0287 -0.6360
  972MOL0     C31151  10.508   7.293   3.028 -0.1137 -0.5928 -0.3620
  972MOL0     C31152  10.576   7.356   2.901  1.1545 -0.0459 -0.0140
  972MOL0     H31153  10.867   7.571   3.157 -0.0760 -1.0601  0.0467
  972MOL0     H31154  11.140   7.612   3.116  0.5137 -0.4794  1.1993
  972MOL0     H31155  11.341   7.559   3.062 -0.9309 -1.9859  0.1530
  972MOL0     H31156  11.401   7.646   3.218 -1.6134  0.1641 -0.2616
  972MOL0     H31157  11.507   7.409   3.087  0.0144  0.1311 -0.8228
  972MOL0     H31158  11.582   7.493   3.231 -0.1083  0.3608  0.9888
  972MOL0     H31159  11.658   7.668   3.077  1.9734 -0.8322 -2.8079
  972MOL0     H31160  11.537   7.613   2.950  0.2922  4.7312 -0.7626
  972MOL0     H31161  11.676   7.396   2.936 -0.3806  1.0135 -3.6383
  972MOL0     H31162  11.760   7.531   2.864  1.6066  0.2413  0.5139
  972MOL0     H31163  11.876   7.554   3.108  2.5425 -0.0679 -0.4496
  972MOL0     H31164  11.811   7.392   3.121 -1.5630  1.0246  0.7997
  972MOL0     H31165  11.933   7.323   2.920 -2.5870 -0.1339  1.4300
  972MOL0     H31166  11.989   7.495   2.898 -0.8295 -0.5252  0.3967
  972MOL0     H31167  12.081   7.350   3.153  0.8696  2.2145  0.7358
  972MOL0     H31168  12.115   7.506   3.090  3.9828 -1.1811  2.3660
  972MOL0     H31169  12.200   7.368   2.871 -2.5204 -5.1194 -0.8622
  972MOL0     H31170  12.308   7.407   3.005  2.0312 -1.0778 -2.4600
  972MOL0     H31171  12.057   7.114   2.897 -1.4237  2.7118  1.0459
  972MOL0     H31172  12.270   6.804   2.997  2.2627  4.4174 -1.2834
  972MOL0     H31173  12.099   6.824   3.048 -0.5776 -0.3509 -0.7325
  972MOL0     H31174  12.072   6.723   2.824  0.1641  0.5362 -1.1590
  972MOL0     H31175  12.064   6.899   2.806 -1.0527 -0.9552 -1.6594
  972MOL0     H31176  12.340   6.843   2.781 -1.1046  0.8797  1.4760
  972MOL0     H31177  12.219   6.878   2.642  0.6930  0.3549 -0.3877
  972MOL0     H31178  12.180   6.641   2.619 -1.3847 -1.6290  3.0038
  972MOL0     H31179  12.282   6.608   2.752  3.8763 -0.8164 -1.2276
  972MOL0     H31180  12.538   6.753   2.399  0.9706  2.6202  0.9830
  972MOL0     H31181  12.784   6.755   2.424 -3.9106  1.2923 -2.9858
  972MOL0     H31182  13.125   6.766   2.342  1.0250  2.5937  0.3622
  972MOL0     H31183  13.356   6.695   2.301  0.7629  1.5730 -1.5257
  972MOL0     H31184  13.676   6.706   2.375 -0.9278  1.2419 -1.3873
  972MOL0     H31185  13.589   6.834   2.470  1.9124  0.4842  2.4717
  972MOL0     H31186  13.661   6.685   2.677  2.4947 -1.3011  2.1170
  972MOL0     H31187  13.785   6.620   2.576  2.3031  2.2130 -0.7516
  972MOL0     H31188  13.873   6.883   2.548 -2.3217  2.5817 -0.5492
  972MOL0     H31189  13.737   6.903   2.662  0.3148  0.3100 -0.7372
  972MOL0     H31190  13.861   6.718   2.809 -1.4201 -0.3635 -1.8526
  972MOL0     H31191  13.920   6.893   2.807  0.6314  0.4418 -1.3349
  972MOL0     H31192  14.091   6.757   2.815  0.7795 -3.2561 -0.1395
  972MOL0     H31193  14.088   6.849   2.662 -0.2695  0.5002  0.3746
  972MOL0     H31194  14.000   6.559   2.675  0.9777 -0.1107  0.7608
  972MOL0     H31195  14.062   6.647   2.538 -0.4491  0.8696  0.0996
  972MOL0     H31196  14.213   6.496   2.626 -0.6179  0.8074 -0.6209
  972MOL0     H31197  14.192   6.558   2.790  0.3712 -0.9808  0.5958
  972MOL0     H31198  14.308   6.769   2.715 -0.6562 -0.3748  0.6933
  972MOL0     H31199  14.409   6.621   2.701 -0.3187 -0.4025  0.0461
  972MOL0     H31200  13.424   6.683   2.718 -0.3043  0.7003  0.5055
  972MOL0     H31201  13.174   6.696   2.763 -1.7607 -0.1923 -0.7057
  972MOL0     H31202  12.725   6.586   2.820 -1.4837 -1.1486 -0.0417
  972MOL0     H31203  12.488   6.584   2.783 -0.1367 -0.0068 -0.5736
  972MOL0     H31204  11.197   7.320   3.420 -0.1904 -0.4678  0.3157
  972MOL0     H31205  10.942   7.258   3.405 -0.1591  0.8055 -0.8985
  972MOL0     H31206  10.574   7.254   3.354 -1.3766  0.0215  2.2892
  972MOL0     H31207  10.328   7.226   3.365  1.1617 -0.2033  0.6722
  972MOL0     H31208  10.110   7.340   2.972  1.4545 -0.6087 -0.4671
  972MOL0     H31209   9.990   7.340   3.090 -0.7443 -0.2859 -0.2041
  972MOL0     H31210  10.057   7.079   3.105 -0.5659  0.7960 -0.9940
  972MOL0     H31211  10.137   7.109   2.948  1.8448 -0.0663  1.4644
  972MOL0     H31212   9.903   7.196   2.861 -1.7986  0.6670 -0.0466
  972MOL0     H31213   9.845   7.171   3.026 -2.2406 -2.1329 -0.8423
  972MOL0     H31214   9.886   6.920   2.996 -0.4906  1.6412  1.5477
  972MOL0     H31215   9.771   6.986   2.886  0.6516  0.5780  1.0925
  972MOL0     H31216  10.078   6.922   2.604 -0.7353  1.3164 -0.4460
  972MOL0     H31217  10.320   7.291   2.928  1.3343  0.1667 -1.0661
  972MOL0     H31218  10.658   7.297   2.857  0.4131 -0.9804 -0.1835
  972MOL0     H31219  10.499   7.364   2.824 -1.2743 -0.2203  2.2682
  972MOL0     H31220  10.618   7.451   2.936  3.0795 -1.0510  0.5752
  973MOL0     O31221   4.427   4.419   1.004  0.2537 -0.1789  0.4345
  973MOL0     C31222   4.343   4.499   1.040  0.7615 -0.1282  0.2955
  973MOL0     O31223   4.304   4.515   1.172  0.1637 -0.3104 -0.2551
  973MOL0     C31224   4.403   4.470   1.257  0.5446 -0.1633  0.6650
  973MOL0     C31225   4.382   4.367   1.342 -0.4108  0.3468 -0.4936
  973MOL0     C31226   4.484   4.325   1.439  0.3415  0.7554 -0.4189
  973MOL0     C31227   4.595   4.399   1.452 -0.0659 -0.4291 -0.1004
  973MOL0     O31228   4.705   4.363   1.538 -0.3925 -0.1949  0.1248
  973MOL0     C31229   4.724   4.232   1.582 -0.3849  1.0030 -0.8432
  973MOL0     C31230   4.856   4.234   1.667 -0.3038  0.5345  0.8722
  973MOL0     C31231   4.846   4.342   1.783  0.4066  0.5106  0.1942
  973MOL0     C31232   4.968   4.324   1.861 -0.4263 -0.0026 -0.5817
  973MOL0     C31233   4.982   4.435   1.981  0.8429  1.4131  0.0113
  973MOL0     C31234   5.109   4.390   2.058 -0.7279  0.0272 -0.4219
  973MOL0     C31235   5.130   4.459   2.194 -0.1099 -1.0610  0.3450
  973MOL0     C31236   4.999   4.483   2.269  0.4368  0.2005 -1.2927
  973MOL0     N31237   5.024   4.487   2.412 -0.5717 -0.4480 -0.2152
  973MOL0     C31238   5.072   4.592   2.476  0.4504  0.6124 -0.1391
  973MOL0     C31239   5.077   4.540   2.601 -0.3766 -0.2436 -0.6514
  973MOL0     C31240   5.156   4.611   2.710  0.5376  0.7743 -0.0190
  973MOL0     C31241   5.305   4.576   2.727 -0.4246  0.0546 -0.2898
  973MOL0     C31242   5.413   4.659   2.660 -0.0142 -1.4537 -0.9726
  973MOL0     C31243   5.461   4.600   2.521 -0.7123  0.1808  0.0536
  973MOL0     O31244   5.573   4.659   2.453  0.2366  0.6352 -0.6456
  973MOL0     C31245   5.692   4.660   2.517  0.4508 -0.5573  0.2695
  973MOL0     C31246   5.727   4.567   2.615  0.9207  0.3482  0.3305
  973MOL0     C31247   5.853   4.567   2.681  0.7766 -0.3479  0.2918
  973MOL0     C31248   5.951   4.657   2.640  0.6548 -0.4243  0.0031
  973MOL0     C31249   6.085   4.653   2.699  0.7334 -0.9480 -0.0678
  973MOL0     O31250   6.170   4.757   2.685 -0.7818 -0.2970  0.1247
  973MOL0     C31251   6.310   4.740   2.692  0.2197  0.9876  0.3675
  973MOL0     C31252   6.375   4.665   2.593 -0.2056  0.0121 -0.6026
  973MOL0     C31253   6.512   4.646   2.601 -0.2061  0.4080  0.0327
  973MOL0     C31254   6.594   4.721   2.687  0.0801  0.3570  0.8427
  973MOL0     O31255   6.728   4.731   2.694 -0.6556 -0.1566  0.0449
  973MOL0     C31256   6.807   4.649   2.604 -0.0022 -0.3162  0.8617
  973MOL0     C31257   6.933   4.726   2.571 -0.0938 -0.3957 -0.5399
  973MOL0     C31258   7.029   4.723   2.689  0.5115  0.2531  0.1968
  973MOL0     C31259   7.134   4.826   2.667  0.3316  0.0114 -0.2250
  973MOL0     C31260   7.250   4.838   2.762 -0.6652 -0.4137  0.2786
  973MOL0     C31261   7.369   4.739   2.734 -0.0278  0.0781  0.3287
  973MOL0     C31262   7.484   4.788   2.822 -0.4565 -0.5739  0.0410
  973MOL0     C31263   7.580   4.888   2.752  1.5245 -0.1714 -0.8859
  973MOL0    Cl31264   7.719   4.935   2.859 -0.2951 -0.1456 -0.0833
  973MOL0     C31265   6.535   4.803   2.774  0.4020 -0.0276  0.4708
  973MOL0     C31266   6.395   4.809   2.783 -0.7104  0.2979 -0.1648
  973MOL0     O31267   6.117   4.551   2.768  0.5614 -0.6024  0.8792
  973MOL0     C31268   5.917   4.745   2.535 -0.6763  0.3656 -0.0026
  973MOL0     C31269   5.791   4.742   2.475  0.1668 -1.0042  0.2211
  973MOL0     N31270   5.025   4.413   2.609  0.4198 -0.0647 -0.3560
  973MOL0     N31271   5.007   4.379   2.488 -0.0304 -0.6369 -0.4278
  973MOL0     C31272   4.619   4.507   1.371  0.2200 -0.1871  0.1753
  973MOL0     C31273   4.519   4.545   1.269  0.4878  0.7480  0.0210
  973MOL0     C31274   4.257   4.563   0.935 -0.1493 -0.1494 -0.1825
  973MOL0     C31275   4.141   4.634   0.981  0.1654  0.2414  0.3729
  973MOL0     C31276   4.052   4.688   0.883  0.8362 -0.1596 -0.5725
  973MOL0     C31277   4.083   4.676   0.749 -0.1633 -0.3082  0.0844
  973MOL0     O31278   4.006   4.737   0.656  0.0018  0.1039 -0.4054
  973MOL0     C31279   3.871   4.774   0.688 -0.2926 -0.2898 -0.2322
  973MOL0     C31280   3.861   4.930   0.677 -0.5182  0.3399  0.2637
  973MOL0     C31281   3.873   4.980   0.532 -0.5254 -0.0340  0.8664
  973MOL0     C31282   3.938   5.122   0.527  0.3478 -0.2157 -0.1500
  973MOL0     C31283   3.921   5.177   0.400 -0.5088  0.3393  0.2682
  973MOL0     C31284   3.901   5.216   0.288  0.7124 -0.0941  0.3248
  973MOL0     C31285   4.202   4.617   0.716 -0.4512 -0.5593  0.0500
  973MOL0     C31286   4.289   4.560   0.797 -0.0495  0.2225 -0.7681
  973MOL0     C31287   4.415   4.491   0.731  1.4367  0.0949  0.5586
  973MOL0     H31288   4.287   4.315   1.342 -0.3005  0.0457  1.7492
  973MOL0     H31289   4.467   4.245   1.510 -0.0129  1.2320  0.0378
  973MOL0     H31290   4.649   4.207   1.657  2.1565  0.6838  1.7807
  973MOL0     H31291   4.735   4.157   1.503 -0.0845 -0.4601  0.5377
  973MOL0     H31292   4.947   4.256   1.610  0.9059 -2.3338  1.5053
  973MOL0     H31293   4.868   4.135   1.712 -1.4034  0.0214  0.0853
  973MOL0     H31294   4.764   4.325   1.853  1.4100 -1.3711  0.9610
  973MOL0     H31295   4.858   4.442   1.740  1.1540  0.4088  0.1600
  973MOL0     H31296   4.974   4.225   1.908  3.2562  0.6572  0.6235
  973MOL0     H31297   5.054   4.335   1.795 -0.6198 -1.5044 -1.1213
  973MOL0     H31298   4.985   4.536   1.941 -3.7507  2.5855  1.9468
  973MOL0     H31299   4.886   4.437   2.035  0.7502 -2.2474  0.2865
  973MOL0     H31300   5.103   4.282   2.077  4.4481 -0.9580 -2.7385
  973MOL0     H31301   5.198   4.400   1.995 -0.9809 -0.6860 -0.9073
  973MOL0     H31302   5.171   4.559   2.175  0.6924 -1.4129  0.1939
  973MOL0     H31303   5.205   4.406   2.254  1.3384 -1.7292 -1.9454
  973MOL0     H31304   4.942   4.569   2.233 -2.0734 -0.2251  1.2992
  973MOL0     H31305   4.934   4.395   2.266  3.6062 -2.7359  3.2330
  973MOL0     H31306   5.114   4.685   2.439 -0.2343  0.7052 -0.6908
  973MOL0     H31307   5.150   4.720   2.705 -2.5000  0.7088  0.3905
  973MOL0     H31308   5.106   4.589   2.805 -1.3016  2.9884 -0.4108
  973MOL0     H31309   5.321   4.599   2.832  2.6081  0.1985 -0.6879
  973MOL0     H31310   5.320   4.470   2.703  2.6880  0.4895 -0.7494
  973MOL0     H31311   5.500   4.656   2.727 -0.7046  0.4083  0.0838
  973MOL0     H31312   5.380   4.762   2.646  1.1313 -1.2431 -2.4065
  973MOL0     H31313   5.377   4.595   2.451 -1.4098 -0.3029  0.9055
  973MOL0     H31314   5.480   4.494   2.536 -1.5845 -0.2787 -1.8475
  973MOL0     H31315   5.653   4.498   2.654 -0.5327  1.7175  0.0967
  973MOL0     H31316   5.885   4.499   2.759  0.5708 -1.5106 -0.6129
  973MOL0     H31317   6.311   4.606   2.528 -1.0734 -1.3999  1.4248
  973MOL0     H31318   6.568   4.575   2.541 -2.7753 -1.4825 -0.3293
  973MOL0     H31319   6.826   4.555   2.657 -0.2084 -1.7313 -1.4446
  973MOL0     H31320   6.748   4.626   2.515 -1.2165 -0.1926  1.6074
  973MOL0     H31321   6.978   4.671   2.488  2.9479 -0.1735  0.8221
  973MOL0     H31322   6.917   4.830   2.541 -1.1242 -0.0373  1.1452
  973MOL0     H31323   6.968   4.752   2.775 -0.9871  2.0691 -1.3666
  973MOL0     H31324   7.080   4.626   2.695  1.2820  0.7231  3.0121
  973MOL0     H31325   7.069   4.914   2.654  0.4562 -0.1743 -2.5119
  973MOL0     H31326   7.171   4.830   2.564 -0.0009  0.9144 -0.3234
  973MOL0     H31327   7.212   4.815   2.861  1.7052 -3.5359  0.6312
  973MOL0     H31328   7.289   4.940   2.769 -0.0296 -0.7366  2.0788
  973MOL0     H31329   7.346   4.633   2.747  0.6578 -0.0302  0.7657
  973MOL0     H31330   7.403   4.743   2.630  1.5827  0.0606  0.8197
  973MOL0     H31331   7.551   4.704   2.842 -1.8171 -1.7169  0.0034
  973MOL0     H31332   7.445   4.829   2.916 -1.2585  1.2978 -1.0522
  973MOL0     H31333   7.622   4.856   2.657 -1.6925 -1.7317 -1.9050
  973MOL0     H31334   7.519   4.976   2.730  1.3264 -0.7054 -2.6090
  973MOL0     H31335   6.590   4.875   2.834 -0.7114  2.1850 -1.0321
  973MOL0     H31336   6.355   4.874   2.860  0.3411  1.7234 -0.7716
  973MOL0     H31337   5.982   4.826   2.500 -1.2102  1.4231  1.3575
  973MOL0     H31338   5.757   4.813   2.399 -0.9260 -3.1077 -1.3813
  973MOL0     H31339   4.712   4.557   1.396 -1.0794  2.0387  0.8825
  973MOL0     H31340   4.542   4.626   1.201 -0.0658  2.2765  1.5659
  973MOL0     H31341   4.128   4.646   1.088  2.2871 -2.3474  1.0259
  973MOL0     H31342   3.958   4.734   0.912  0.4372 -0.6277 -1.1148
  973MOL0     H31343   3.832   4.730   0.780  0.4232 -0.9190 -0.2247
  973MOL0     H31344   3.811   4.728   0.609  0.6270 -3.0749  0.5999
  973MOL0     H31345   3.937   4.978   0.740  3.7429 -1.5903 -2.8293
  973MOL0     H31346   3.763   4.958   0.716 -0.2551  0.9989  0.4636
  973MOL0     H31347   3.771   4.981   0.492 -0.5072 -1.4952  0.7329
  973MOL0     H31348   3.930   4.907   0.474 -1.3691 -1.4501  1.7582
  973MOL0     H31349   3.890   5.183   0.605  0.0293 -1.0921  0.3561
  973MOL0     H31350   4.047   5.116   0.542  0.6146 -0.4439 -1.9809
  973MOL0     H31351   3.880   5.254   0.190 -1.4882  0.9463  1.1239
  973MOL0     H31352   4.227   4.626   0.611 -1.4363  3.0607 -0.0046
  973MOL0     H31353   4.408   4.383   0.740 -0.9524  0.0398 -1.0449
  973MOL0     H31354   4.425   4.514   0.624  2.2611  2.0271  0.9952
  973MOL0     H31355   4.509   4.535   0.766  1.6584 -0.8073  1.1118
  974MOL0     O31356   8.792   2.512   5.036 -0.5742 -0.0544 -0.5202
  974MOL0     C31357   8.720   2.462   4.947  0.0364 -0.6772 -0.4779
  974MOL0     O31358   8.750   2.435   4.817 -1.1382 -0.4363 -0.3829
  974MOL0     C31359   8.886   2.434   4.781 -0.0421  0.3929  0.3426
  974MOL0     C31360   8.952   2.313   4.774 -0.4702  0.3292  0.1554
  974MOL0     C31361   9.092   2.312   4.749 -0.8063 -0.6839 -0.1712
  974MOL0     C31362   9.162   2.429   4.715  0.5628 -0.4537 -0.0589
  974MOL0     O31363   9.300   2.439   4.679 -0.3651  0.6505 -0.9759
  974MOL0     C31364   9.359   2.310   4.646  0.4172  0.1632 -0.2975
  974MOL0     C31365   9.501   2.330   4.601 -0.1213 -0.3997 -0.1306
  974MOL0     C31366   9.592   2.409   4.688 -0.9036 -0.4450 -1.2840
  974MOL0     C31367   9.737   2.444   4.625 -0.0827  0.9412 -0.0002
  974MOL0     C31368   9.798   2.562   4.702 -0.0219  0.5634 -0.6116
  974MOL0     C31369   9.943   2.572   4.663  0.3517  0.1387 -0.1435
  974MOL0     C31370  10.012   2.700   4.719  0.3100  0.8081 -1.0029
  974MOL0     C31371  10.147   2.716   4.662  0.1769  1.1270 -0.3968
  974MOL0     N31372  10.224   2.824   4.726 -0.5951  0.1084  0.3196
  974MOL0     C31373  10.336   2.805   4.805 -0.4321  0.0335  0.1948
  974MOL0     C31374  10.385   2.929   4.838 -0.1279 -0.4624 -0.5166
  974MOL0     C31375  10.503   2.948   4.924  0.7441 -0.2035  0.6613
  974MOL0     C31376  10.627   2.903   4.855  0.7111  0.4351 -0.4867
  974MOL0     C31377  10.754   2.943   4.932  0.3304 -0.7174  0.2543
  974MOL0     C31378  10.871   2.878   4.867  1.0561  0.1751 -0.0367
  974MOL0     O31379  10.990   2.932   4.930  0.3731 -0.3314  0.6621
  974MOL0     C31380  11.117   2.935   4.870 -0.3441  0.1581  0.1227
  974MOL0     C31381  11.179   3.060   4.838  0.0266 -1.2452 -1.0486
  974MOL0     C31382  11.308   3.070   4.786 -0.8978 -0.3615  0.1438
  974MOL0     C31383  11.376   2.953   4.765 -0.7715  1.3843 -0.1282
  974MOL0     C31384  11.520   2.963   4.706 -0.0334  0.6990  1.2675
  974MOL0     O31385  11.559   2.853   4.631 -0.1697 -0.9262 -0.4097
  974MOL0     C31386  11.693   2.844   4.604 -0.5329  0.0838  0.5048
  974MOL0     C31387  11.765   2.740   4.664 -0.7875  0.4671 -0.8979
  974MOL0     C31388  11.899   2.714   4.634 -0.0965  0.1814  0.3148
  974MOL0     C31389  11.964   2.801   4.538  0.1457 -0.4556  0.9287
  974MOL0     O31390  12.095   2.785   4.506  0.0650  0.3541  0.2954
  974MOL0     C31391  12.168   2.863   4.422  0.0922 -0.1910  0.1254
  974MOL0     C31392  12.319   2.849   4.450  0.2522  0.4453 -0.5497
  974MOL0     C31393  12.405   2.929   4.346 -0.2111 -0.1601 -0.5571
  974MOL0     C31394  12.549   2.937   4.390  0.2251  0.5408  1.0319
  974MOL0     C31395  12.639   2.980   4.279  0.2212  0.2111 -0.1883
  974MOL0     C31396  12.782   2.960   4.339 -0.2100  0.2261  0.4603
  974MOL0     C31397  12.868   2.989   4.216  0.0910 -0.4023  0.0745
  974MOL0     C31398  13.017   2.977   4.269 -0.3522  0.8007  0.3784
  974MOL0    Cl31399  13.142   3.017   4.154  0.5746  0.6081 -0.3044
  974MOL0     C31400  11.884   2.900   4.470 -0.7631  0.5853  0.0794
  974MOL0     C31401  11.751   2.920   4.501 -1.2855  0.9181 -0.9982
  974MOL0     O31402  11.588   3.062   4.721  0.7372  0.4930 -0.0175
  974MOL0     C31403  11.312   2.829   4.784 -0.2965 -0.2004  0.5036
  974MOL0     C31404  11.183   2.817   4.842  0.9905  0.8729 -0.6445
  974MOL0     N31405  10.297   3.022   4.778  0.0517 -0.1618 -0.7317
  974MOL0     N31406  10.203   2.958   4.718  0.0492  0.5603 -1.0924
  974MOL0     C31407   9.097   2.548   4.718  0.4690  0.2358 -0.3670
  974MOL0     C31408   8.963   2.553   4.747  0.1544 -0.7935  0.3761
  974MOL0     C31409   8.586   2.411   4.999 -1.0950  0.6528 -0.4100
  974MOL0     C31410   8.581   2.380   5.139  0.3836  0.3317  0.2756
  974MOL0     C31411   8.464   2.324   5.192  0.5559  0.7397 -0.0576
  974MOL0     C31412   8.356   2.291   5.115  0.5896  0.3949  0.3416
  974MOL0     O31413   8.249   2.254   5.199  0.2863  0.2503 -0.0541
  974MOL0     C31414   8.133   2.207   5.140  0.4040 -0.0386  0.0903
  974MOL0     C31415   8.047   2.332   5.128 -1.1058  0.5802 -0.0475
  974MOL0     C31416   7.892   2.319   5.081 -0.8161  0.3116 -0.0484
  974MOL0     C31417   7.788   2.257   5.182 -0.0480  0.8585  0.1993
  974MOL0     C31418   7.797   2.109   5.200  0.4911  0.2285  1.1259
  974MOL0     C31419   7.810   1.996   5.231 -0.0929  0.3401 -0.8979
  974MOL0     C31420   8.363   2.335   4.983  0.2186  0.0833 -0.5781
  974MOL0     C31421   8.473   2.395   4.919  0.4476  0.3637 -0.5197
  974MOL0     C31422   8.474   2.432   4.773  0.8561 -0.3565  0.4324
  974MOL0     H31423   8.906   2.214   4.774  2.3994 -1.1277 -0.2638
  974MOL0     H31424   9.150   2.220   4.739  0.8682  0.4375 -1.4077
  974MOL0     H31425   9.364   2.245   4.734 -0.7958  0.6664  0.1667
  974MOL0     H31426   9.306   2.256   4.567 -0.6758 -1.4332  1.4531
  974MOL0     H31427   9.500   2.378   4.502  2.2035  1.1738  0.5177
  974MOL0     H31428   9.550   2.234   4.586  1.6091  0.0677  2.0449
  974MOL0     H31429   9.595   2.356   4.784  2.2924 -1.1197 -1.6175
  974MOL0     H31430   9.543   2.506   4.697  0.3896  0.2272 -1.1264
  974MOL0     H31431   9.807   2.360   4.636 -0.4901  0.6742  0.5674
  974MOL0     H31432   9.720   2.485   4.525 -1.3253  4.7868  1.6183
  974MOL0     H31433   9.748   2.651   4.663 -0.9016  0.3365 -0.0262
  974MOL0     H31434   9.792   2.560   4.811 -1.5539  2.6515 -0.5969
  974MOL0     H31435   9.992   2.478   4.690 -2.1076 -0.2279  3.7176
  974MOL0     H31436   9.947   2.575   4.553  2.6671  0.0479 -0.1186
  974MOL0     H31437  10.031   2.686   4.826  0.8083  0.2582 -1.1577
  974MOL0     H31438   9.952   2.791   4.708 -0.9586  0.0774 -0.4962
  974MOL0     H31439  10.195   2.618   4.672 -2.0891  0.0626  0.9907
  974MOL0     H31440  10.144   2.731   4.554  3.2336 -1.3212 -0.9585
  974MOL0     H31441  10.383   2.712   4.834 -0.9754 -0.2267  0.2532
  974MOL0     H31442  10.507   3.046   4.973 -0.4727 -1.9436  4.7458
  974MOL0     H31443  10.476   2.889   5.013  2.1744 -0.6932  0.7879
  974MOL0     H31444  10.607   2.796   4.858 -2.7005  0.9346 -1.1385
  974MOL0     H31445  10.636   2.944   4.753  1.2122 -1.8305 -1.4057
  974MOL0     H31446  10.736   2.907   5.034 -0.3542 -1.7640 -0.2239
  974MOL0     H31447  10.762   3.052   4.946 -0.3543 -0.8166  1.6129
  974MOL0     H31448  10.870   2.900   4.760  0.6107 -0.8570 -0.2596
  974MOL0     H31449  10.867   2.772   4.894 -0.4233  0.3180  0.3923
  974MOL0     H31450  11.128   3.154   4.856  0.4403 -0.7674 -2.2289
  974MOL0     H31451  11.353   3.169   4.786  1.5549 -1.3376 -2.2941
  974MOL0     H31452  11.732   2.685   4.751 -1.3184  2.9408  0.5877
  974MOL0     H31453  11.959   2.641   4.689 -2.0609 -1.4508  0.4277
  974MOL0     H31454  12.144   2.827   4.321 -2.5718  2.7586 -0.4824
  974MOL0     H31455  12.131   2.966   4.419 -1.0361 -0.5844 -1.5038
  974MOL0     H31456  12.340   2.870   4.556 -0.9233 -0.3944 -0.1395
  974MOL0     H31457  12.350   2.745   4.436  3.4128  1.1020  0.6265
  974MOL0     H31458  12.397   2.873   4.252  1.2303 -0.9242 -0.2504
  974MOL0     H31459  12.373   3.033   4.345  0.5926  0.0928 -0.0144
  974MOL0     H31460  12.581   2.843   4.435 -0.7087  1.1367  3.0545
  974MOL0     H31461  12.554   3.002   4.478  0.3045  1.9093  0.0442
  974MOL0     H31462  12.618   3.081   4.243 -0.8041 -0.4644 -1.5391
  974MOL0     H31463  12.634   2.916   4.191 -0.4507  0.3309 -0.2399
  974MOL0     H31464  12.800   3.033   4.417 -1.3560 -0.0510  1.0115
  974MOL0     H31465  12.803   2.859   4.375 -1.6237  0.3400  1.6792
  974MOL0     H31466  12.871   3.090   4.174 -1.1210  0.0843  1.0897
  974MOL0     H31467  12.861   2.914   4.137  3.5943 -0.7760 -0.0502
  974MOL0     H31468  13.030   3.038   4.359  2.1143 -0.7012  1.1449
  974MOL0     H31469  13.038   2.878   4.310 -1.9969  1.6975  3.7912
  974MOL0     H31470  11.927   2.960   4.391 -1.5046 -0.4477 -1.1566
  974MOL0     H31471  11.697   3.003   4.458 -0.9587  1.3901 -0.5224
  974MOL0     H31472  11.365   2.738   4.757 -2.0339 -0.2285 -3.5041
  974MOL0     H31473  11.138   2.719   4.852  0.2255  1.2794  0.0385
  974MOL0     H31474   9.149   2.641   4.694  0.4029  0.2712 -0.3749
  974MOL0     H31475   8.904   2.644   4.748 -0.6695 -1.2160 -2.1864
  974MOL0     H31476   8.658   2.396   5.213 -0.5459 -2.8411  2.1362
  974MOL0     H31477   8.456   2.293   5.296 -0.8199  1.0200 -0.0506
  974MOL0     H31478   8.098   2.120   5.196  1.5562 -1.7728 -1.7382
  974MOL0     H31479   8.135   2.174   5.035 -1.7132 -0.8103  0.2372
  974MOL0     H31480   8.094   2.399   5.055 -0.7721 -0.0487 -0.4238
  974MOL0     H31481   8.045   2.381   5.226 -0.0802 -2.3899  1.5710
  974MOL0     H31482   7.895   2.253   4.994  2.8287 -0.7709  0.7379
  974MOL0     H31483   7.861   2.419   5.047 -2.0830  0.3611  1.1757
  974MOL0     H31484   7.819   2.291   5.282  2.3575  2.0264 -0.8439
  974MOL0     H31485   7.691   2.284   5.141 -0.5120 -2.9137 -1.5810
  974MOL0     H31486   7.825   1.896   5.265  0.2257  0.6046 -0.2320
  974MOL0     H31487   8.276   2.326   4.918  0.3250 -1.2465 -0.5773
  974MOL0     H31488   8.380   2.419   4.718  1.4901  4.5687 -2.4237
  974MOL0     H31489   8.515   2.533   4.768  0.4418 -0.0456  2.3256
  974MOL0     H31490   8.548   2.372   4.720  0.1555 -2.5265  1.7564
  975MOL0     O31491   8.642   5.319   1.190  0.0520 -0.1132  0.2287
  975MOL0     C31492   8.560   5.410   1.195  0.0446  0.2045  0.6747
  975MOL0     O31493   8.570   5.523   1.271 -0.0856 -0.9858 -0.1062
  975MOL0     C31494   8.687   5.565   1.331  0.2482 -0.7054 -0.7593
  975MOL0     C31495   8.744   5.685   1.300  0.1538  0.1855  0.2108
  975MOL0     C31496   8.865   5.715   1.372  0.9991 -0.1379 -0.3225
  975MOL0     C31497   8.927   5.632   1.468 -0.4413 -0.4465  0.1996
  975MOL0     O31498   9.039   5.672   1.539  0.0411  0.0326  0.1894
  975MOL0     C31499   9.136   5.752   1.478 -0.0153 -0.7846  0.4211
  975MOL0     C31500   9.273   5.742   1.540 -0.3624  0.3755  0.2812
  975MOL0     C31501   9.345   5.620   1.499  0.1197  0.1239 -0.1698
  975MOL0     C31502   9.464   5.583   1.589 -0.0104  0.5786 -0.2544
  975MOL0     C31503   9.579   5.690   1.585 -0.4293  0.0152  0.9354
  975MOL0     C31504   9.631   5.721   1.449 -0.7484  0.9963  0.1501
  975MOL0     C31505   9.738   5.831   1.445 -0.5353  0.5131  0.5335
  975MOL0     C31506   9.871   5.790   1.504 -0.1495  0.0181  0.4285
  975MOL0     N31507   9.965   5.902   1.497  0.0338  0.0271  0.2169
  975MOL0     C31508  10.073   5.911   1.418  0.0795 -0.0485 -0.6284
  975MOL0     C31509  10.125   6.035   1.444 -0.3662  0.3790 -0.1974
  975MOL0     C31510  10.240   6.092   1.371 -0.9156  0.2910 -0.0173
  975MOL0     C31511  10.357   6.101   1.468 -0.1425 -1.6851  0.6299
  975MOL0     C31512  10.449   5.981   1.452 -0.5499 -1.0183 -0.6330
  975MOL0     C31513  10.571   6.005   1.546  0.1742  0.0687  0.7295
  975MOL0     O31514  10.526   6.014   1.683 -0.5901 -0.4556 -0.7952
  975MOL0     C31515  10.595   6.096   1.767 -0.5100 -0.0377  0.1204
  975MOL0     C31516  10.557   6.223   1.799 -0.0413  0.0453 -0.1314
  975MOL0     C31517  10.643   6.302   1.881  0.7133  0.2173 -0.7706
  975MOL0     C31518  10.764   6.250   1.935 -0.2052  0.0418  0.5605
  975MOL0     C31519  10.843   6.346   2.019 -0.2346  0.1910 -0.3673
  975MOL0     O31520  10.804   6.487   2.025 -0.0868 -0.0620 -0.2394
  975MOL0     C31521  10.865   6.580   2.107 -0.0708  0.5150  0.1542
  975MOL0     C31522  11.007   6.597   2.125 -0.4072  0.0767 -0.1303
  975MOL0     C31523  11.057   6.705   2.193  0.0251  0.0031 -0.0539
  975MOL0     C31524  10.976   6.781   2.270  0.6609  0.6466  0.3605
  975MOL0     O31525  11.001   6.875   2.359 -0.1049  0.0739 -0.1012
  975MOL0     C31526  11.080   6.824   2.473  1.0338 -0.1924  0.1518
  975MOL0     C31527  11.068   6.933   2.583  0.5401 -1.1919  0.2165
  975MOL0     C31528  11.141   6.880   2.709 -0.0043 -0.5553  0.3357
  975MOL0     C31529  11.293   6.891   2.691 -0.2377 -0.3125  0.4433
  975MOL0     C31530  11.359   6.844   2.822 -0.4160 -0.5843 -0.0747
  975MOL0     C31531  11.514   6.837   2.809  0.2217 -0.6361 -0.8159
  975MOL0     C31532  11.580   6.781   2.934 -0.5089  0.1356 -0.7467
  975MOL0     C31533  11.730   6.781   2.944  0.5834 -0.9111  0.5502
  975MOL0    Cl31534  11.798   6.695   2.800  0.0929 -0.1073 -0.1012
  975MOL0     C31535  10.838   6.770   2.251  0.5952  1.0725  0.0403
  975MOL0     C31536  10.780   6.671   2.174 -0.1162  1.3867  0.7120
  975MOL0     O31537  10.941   6.302   2.069  0.5112  0.3418 -0.2010
  975MOL0     C31538  10.800   6.122   1.903  0.8592 -0.7870  0.2812
  975MOL0     C31539  10.715   6.049   1.819 -0.8601  0.1520  0.3569
  975MOL0     N31540  10.060   6.105   1.546 -0.2817  1.0452  0.1116
  975MOL0     N31541   9.957   6.021   1.564 -0.0490 -0.7536  0.5196
  975MOL0     C31542   8.869   5.513   1.498  1.0407  0.4073  0.6640
  975MOL0     C31543   8.751   5.478   1.426  0.8458  0.8867 -0.1176
  975MOL0     C31544   8.421   5.391   1.145 -0.4202 -0.1524 -0.3600
  975MOL0     C31545   8.327   5.485   1.190 -0.6734 -0.4429  0.8939
  975MOL0     C31546   8.192   5.464   1.155 -0.2620 -0.0275 -0.4991
  975MOL0     C31547   8.156   5.364   1.072 -0.0348 -0.2366  0.3794
  975MOL0     O31548   8.028   5.353   1.044 -0.2180 -0.9968 -0.0990
  975MOL0     C31549   7.967   5.316   0.919 -0.6696  0.1741  0.5695
  975MOL0     C31550   7.861   5.204   0.939  0.5914  0.3870 -0.3846
  975MOL0     C31551   7.927   5.075   0.976 -0.4694 -0.2621  0.3205
  975MOL0     C31552   7.833   4.957   1.013  0.7188  0.1621  0.3305
  975MOL0     C31553   7.770   4.964   1.144  0.7390  0.8013 -0.9087
  975MOL0     C31554   7.719   4.947   1.255 -0.1155 -0.2366  0.5430
  975MOL0     C31555   8.255   5.275   1.017 -0.2893 -0.6764  0.0715
  975MOL0     C31556   8.386   5.280   1.057 -0.1190  0.2706 -0.5152
  975MOL0     C31557   8.488   5.189   0.984  0.4190  0.3248 -0.4859
  975MOL0     H31558   8.702   5.743   1.218  0.0428 -1.2871 -0.8219
  975MOL0     H31559   8.908   5.812   1.348  0.2552  0.3772  0.3680
  975MOL0     H31560   9.141   5.734   1.370  1.5420  2.3790 -0.1574
  975MOL0     H31561   9.108   5.854   1.506 -4.0613 -1.6401  0.0528
  975MOL0     H31562   9.263   5.743   1.649 -0.6389  1.2085  0.2519
  975MOL0     H31563   9.332   5.829   1.512 -0.0063 -0.1308 -0.5767
  975MOL0     H31564   9.368   5.632   1.393 -1.3405  0.2118 -0.4996
  975MOL0     H31565   9.266   5.544   1.502  0.9511 -0.7498  2.1196
  975MOL0     H31566   9.436   5.579   1.695  1.1644 -1.3218  0.0295
  975MOL0     H31567   9.507   5.488   1.558 -1.6382 -0.7099  1.2949
  975MOL0     H31568   9.527   5.777   1.628 -1.1295 -0.7488  1.6787
  975MOL0     H31569   9.662   5.659   1.648  0.2847 -4.4112 -1.7684
  975MOL0     H31570   9.666   5.629   1.400 -4.6647 -0.9858  0.7161
  975MOL0     H31571   9.549   5.757   1.386 -0.3906 -0.8133 -1.4726
  975MOL0     H31572   9.704   5.917   1.503 -0.0655  0.2517  1.2147
  975MOL0     H31573   9.755   5.866   1.342  0.1246  1.7534  1.0339
  975MOL0     H31574   9.858   5.755   1.607  0.4507  2.2520  1.3351
  975MOL0     H31575   9.913   5.701   1.457 -1.2104 -1.3190  1.9179
  975MOL0     H31576  10.116   5.836   1.352  1.6496  0.4621 -0.2308
  975MOL0     H31577  10.262   6.032   1.282 -0.6339 -0.3280  0.4556
  975MOL0     H31578  10.217   6.194   1.341  0.3587  0.8663  0.8904
  975MOL0     H31579  10.413   6.187   1.430 -0.3754 -1.6556  0.3512
  975MOL0     H31580  10.326   6.119   1.572 -2.5917 -0.2071 -0.2767
  975MOL0     H31581  10.480   5.963   1.348 -0.8894 -0.1578 -0.8966
  975MOL0     H31582  10.405   5.887   1.486  0.0378 -1.0096  0.1796
  975MOL0     H31583  10.615   6.098   1.510 -1.7285  0.1314 -1.7264
  975MOL0     H31584  10.651   5.931   1.551 -0.2098 -0.3429  0.8348
  975MOL0     H31585  10.468   6.273   1.764 -0.5490  0.5526  1.7488
  975MOL0     H31586  10.615   6.404   1.903  2.6161  0.7755 -0.7815
  975MOL0     H31587  11.075   6.537   2.065 -1.1068 -0.9526  0.0762
  975MOL0     H31588  11.164   6.711   2.210  0.1119  1.9616 -1.0627
  975MOL0     H31589  11.036   6.732   2.513 -1.0569  0.3651 -0.7456
  975MOL0     H31590  11.186   6.816   2.446  1.3577 -3.0614  1.8361
  975MOL0     H31591  11.104   7.030   2.546 -2.3269 -0.7620 -1.7589
  975MOL0     H31592  10.961   6.946   2.602  0.3945 -1.2450 -0.5353
  975MOL0     H31593  11.105   6.936   2.797  0.0809  0.9669 -0.5618
  975MOL0     H31594  11.114   6.775   2.719 -2.4508  0.0373  0.5699
  975MOL0     H31595  11.334   6.990   2.668  0.4567 -0.7331 -0.1891
  975MOL0     H31596  11.326   6.825   2.610  0.0299  1.3059 -0.8267
  975MOL0     H31597  11.335   6.739   2.842  1.7465 -0.9871  0.6940
  975MOL0     H31598  11.334   6.910   2.905  0.4448  0.5195 -0.6523
  975MOL0     H31599  11.554   6.768   2.734  1.2956 -2.2111  1.1055
  975MOL0     H31600  11.546   6.941   2.793  3.6285 -0.8482  2.8834
  975MOL0     H31601  11.539   6.680   2.938 -1.1776  0.3744 -1.2911
  975MOL0     H31602  11.547   6.832   3.025 -0.3415 -1.1057  0.0204
  975MOL0     H31603  11.775   6.880   2.946 -0.1102 -0.6056  1.7861
  975MOL0     H31604  11.765   6.723   3.030 -1.0735 -1.3468  0.9758
  975MOL0     H31605  10.774   6.845   2.297 -1.2570  2.3865 -4.2141
  975MOL0     H31606  10.674   6.650   2.158  0.8219 -2.2681 -1.9779
  975MOL0     H31607  10.884   6.066   1.943  1.4978 -0.3815 -0.4772
  975MOL0     H31608  10.741   5.947   1.794 -1.9129  0.2734 -1.3679
  975MOL0     H31609   8.907   5.449   1.577  1.5013 -1.3963 -0.9598
  975MOL0     H31610   8.701   5.385   1.450  2.3837 -0.0716 -0.4615
  975MOL0     H31611   8.355   5.572   1.249  0.9588  0.4210 -1.0339
  975MOL0     H31612   8.113   5.532   1.188  1.4228  1.3031  0.9973
  975MOL0     H31613   8.049   5.274   0.859 -1.5869 -2.8225  1.2461
  975MOL0     H31614   7.938   5.399   0.854  2.2758  1.5149  0.7861
  975MOL0     H31615   7.794   5.195   0.852 -1.0965  2.8526  0.5520
  975MOL0     H31616   7.798   5.245   1.019  2.1260  1.1896  0.4582
  975MOL0     H31617   8.008   5.082   1.049 -1.8617  2.1092  1.7757
  975MOL0     H31618   7.980   5.040   0.887 -0.5946 -0.1676  0.2075
  975MOL0     H31619   7.753   4.935   0.942 -0.2976  0.0657  1.4843
  975MOL0     H31620   7.897   4.869   1.016 -0.0773 -0.4390 -0.0338
  975MOL0     H31621   7.659   4.949   1.344 -0.3061 -1.1631  0.4491
  975MOL0     H31622   8.219   5.195   0.954  2.9067 -1.3984 -1.0409
  975MOL0     H31623   8.527   5.118   1.058  0.1740  4.0565  3.6614
  975MOL0     H31624   8.440   5.148   0.895 -1.8396  2.1895 -0.2497
  975MOL0     H31625   8.581   5.243   0.965  1.8879 -1.0399  2.2410
  976MOL0     O31626   7.542   6.303   1.503  0.5709 -0.3078 -0.8238
  976MOL0     C31627   7.588   6.302   1.623 -0.3292  1.0910  0.5420
  976MOL0     O31628   7.718   6.307   1.658  0.3222 -0.0324  0.4790
  976MOL0     C31629   7.817   6.339   1.560 -0.8526 -0.3855  0.3713
  976MOL0     C31630   7.914   6.436   1.584  0.4562  0.1568  0.2780
  976MOL0     C31631   8.019   6.464   1.507 -1.0222 -0.1186  0.0125
  976MOL0     C31632   8.041   6.381   1.403 -1.4427 -0.4974  0.0692
  976MOL0     O31633   8.145   6.385   1.306 -0.0377 -0.2343  0.0719
  976MOL0     C31634   8.249   6.480   1.334 -0.4490 -0.1841 -0.1146
  976MOL0     C31635   8.345   6.488   1.213  0.0899  0.3603  0.4011
  976MOL0     C31636   8.458   6.578   1.229 -1.0781 -1.0116 -0.1134
  976MOL0     C31637   8.589   6.513   1.280  0.9288  0.5971  0.3117
  976MOL0     C31638   8.676   6.611   1.348  0.3535  0.2760  1.3330
  976MOL0     C31639   8.812   6.549   1.342 -1.1402  0.6777  0.4934
  976MOL0     C31640   8.928   6.642   1.385 -0.0035  0.4532  0.2671
  976MOL0     C31641   9.047   6.566   1.440  0.1715  0.1752 -0.4213
  976MOL0     N31642   9.149   6.661   1.471 -0.0978  0.1045 -0.2955
  976MOL0     C31643   9.163   6.733   1.581 -0.2367 -0.4210 -1.1759
  976MOL0     C31644   9.274   6.816   1.570  0.3827  0.0799  0.5571
  976MOL0     C31645   9.308   6.925   1.670  0.2753  0.1496 -0.7176
  976MOL0     C31646   9.444   6.990   1.634  0.7831 -0.2352  0.9388
  976MOL0     C31647   9.560   6.898   1.645  0.0909  0.1133 -0.3858
  976MOL0     C31648   9.696   6.962   1.625 -0.1280  0.3564 -0.1972
  976MOL0     O31649   9.718   7.073   1.717 -0.6280 -0.0812 -0.3481
  976MOL0     C31650   9.800   7.041   1.828  0.2754  0.7364  0.7976
  976MOL0     C31651   9.818   6.913   1.893 -0.2499  0.0121 -0.6939
  976MOL0     C31652   9.913   6.905   1.998 -0.2540 -0.3920  0.2094
  976MOL0     C31653   9.984   7.023   2.046  0.4092  0.1177  0.2151
  976MOL0     C31654  10.063   7.028   2.160 -0.2430  0.0385 -0.0651
  976MOL0     O31655  10.110   7.152   2.204  0.6590  0.0089  0.4469
  976MOL0     C31656  10.207   7.155   2.294  0.1110  0.2150  0.6632
  976MOL0     C31657  10.189   7.099   2.417 -0.6355 -0.5608  1.0955
  976MOL0     C31658  10.286   7.107   2.512  0.5489  0.9335 -0.1693
  976MOL0     C31659  10.409   7.171   2.478 -0.5807  0.5750 -0.3022
  976MOL0     O31660  10.516   7.175   2.566 -0.1887 -0.6036  0.2122
  976MOL0     C31661  10.542   7.062   2.653 -0.2951  0.1834 -0.3460
  976MOL0     C31662  10.560   6.928   2.584 -0.6379 -0.2594  0.5449
  976MOL0     C31663  10.625   6.820   2.680  0.4217 -0.2162  0.6453
  976MOL0     C31664  10.663   6.698   2.604  0.1974  0.0736 -0.3492
  976MOL0     C31665  10.788   6.616   2.661 -0.0186 -0.0270 -0.5767
  976MOL0     C31666  10.844   6.503   2.572 -0.1588 -0.2739 -0.4743
  976MOL0     C31667  10.934   6.419   2.654  0.1703  0.3371 -1.3977
  976MOL0     C31668  10.862   6.298   2.712 -0.1036  0.2711 -0.1289
  976MOL0    Cl31669  10.969   6.228   2.834  0.2673 -0.3190 -0.2702
  976MOL0     C31670  10.428   7.221   2.357  0.2545 -0.7797 -0.2083
  976MOL0     C31671  10.324   7.216   2.261 -1.0206 -0.1425 -0.2907
  976MOL0     O31672  10.088   6.918   2.214 -0.1302 -0.5429  0.3396
  976MOL0     C31673   9.956   7.144   1.980  0.1810  0.2311 -0.6971
  976MOL0     C31674   9.876   7.145   1.877  0.3278  0.1699 -0.6535
  976MOL0     N31675   9.336   6.791   1.446 -0.7693  0.7314 -0.3397
  976MOL0     N31676   9.262   6.694   1.397 -0.2227  0.2313  0.2974
  976MOL0     C31677   7.947   6.285   1.370  0.5906 -0.0950  0.8214
  976MOL0     C31678   7.835   6.259   1.450  0.6643 -0.6404  0.8906
  976MOL0     C31679   7.489   6.296   1.738  0.4454 -0.3672  0.5563
  976MOL0     C31680   7.538   6.324   1.867 -0.6001  0.7032  0.0124
  976MOL0     C31681   7.465   6.318   1.987  0.1618 -0.7575 -1.1242
  976MOL0     C31682   7.327   6.288   1.971  1.0552  0.5282 -0.7561
  976MOL0     O31683   7.251   6.283   2.087  0.4163  0.4611 -0.1738
  976MOL0     C31684   7.165   6.400   2.100  0.5154 -0.4145 -0.5891
  976MOL0     C31685   7.042   6.382   2.200  0.2759  0.4888 -0.2326
  976MOL0     C31686   6.995   6.528   2.232 -0.0416  0.0947 -0.4872
  976MOL0     C31687   6.866   6.514   2.307  0.6245  0.0288  0.1015
  976MOL0     C31688   6.761   6.426   2.259  0.6539  0.1019  0.2043
  976MOL0     C31689   6.671   6.365   2.215  0.5512 -0.1047 -0.0400
  976MOL0     C31690   7.270   6.250   1.852 -0.0150 -1.0359 -0.2563
  976MOL0     C31691   7.346   6.268   1.737 -1.8753  0.4730 -0.4215
  976MOL0     C31692   7.277   6.223   1.610 -0.2384 -0.0367 -0.3827
  976MOL0     H31693   7.893   6.487   1.678 -1.3433 -2.6036  1.5324
  976MOL0     H31694   8.094   6.538   1.533 -1.1529 -0.5786  1.8091
  976MOL0     H31695   8.200   6.578   1.338 -1.1735 -0.5117 -0.6773
  976MOL0     H31696   8.315   6.457   1.418  0.3465  0.2098 -0.6155
  976MOL0     H31697   8.283   6.523   1.130  0.0315 -1.6992 -0.4776
  976MOL0     H31698   8.375   6.386   1.188 -0.5899  0.4992 -1.0383
  976MOL0     H31699   8.439   6.670   1.286  1.2587 -0.3991 -0.2066
  976MOL0     H31700   8.475   6.627   1.132  1.9645  1.3251  1.3912
  976MOL0     H31701   8.560   6.441   1.358  2.9875 -0.4319  0.1771
  976MOL0     H31702   8.638   6.451   1.204  0.0340 -1.3388  1.2468
  976MOL0     H31703   8.669   6.703   1.289 -0.3177 -0.3334  0.4526
  976MOL0     H31704   8.645   6.645   1.448 -0.6309  3.1551  0.1561
  976MOL0     H31705   8.811   6.470   1.418 -2.3025  0.1745 -0.0275
  976MOL0     H31706   8.838   6.509   1.244  0.5087 -1.7702  1.8074
  976MOL0     H31707   8.891   6.717   1.457 -1.6477 -0.7894  0.7631
  976MOL0     H31708   8.964   6.699   1.299  2.5962 -0.6836  0.5183
  976MOL0     H31709   9.016   6.507   1.526  0.1811  0.9550  0.1314
  976MOL0     H31710   9.080   6.494   1.365  1.3184  0.1886  0.0537
  976MOL0     H31711   9.104   6.754   1.670  1.5878  1.4181 -0.3136
  976MOL0     H31712   9.223   6.992   1.686  1.0696  1.0440 -0.1160
  976MOL0     H31713   9.312   6.875   1.767 -0.9572  0.8491 -0.2808
  976MOL0     H31714   9.454   7.013   1.527 -0.4926 -3.6377 -0.0691
  976MOL0     H31715   9.459   7.081   1.693 -0.3464  0.2347  0.5247
  976MOL0     H31716   9.552   6.826   1.563 -2.8452  0.3877 -0.4308
  976MOL0     H31717   9.543   6.842   1.738 -1.4000  4.1959  2.0650
  976MOL0     H31718   9.692   7.013   1.529  2.4753 -0.1988 -0.6685
  976MOL0     H31719   9.771   6.883   1.634 -1.6594 -0.9548  2.7734
  976MOL0     H31720   9.771   6.820   1.862 -0.5941 -0.0198 -0.0896
  976MOL0     H31721   9.928   6.809   2.045 -1.5173 -0.8839 -0.3615
  976MOL0     H31722  10.090   7.059   2.436 -1.0202 -1.4964 -2.2553
  976MOL0     H31723  10.268   7.076   2.614  0.1774 -1.0322 -0.7967
  976MOL0     H31724  10.636   7.084   2.704  0.3856  1.0808 -1.9195
  976MOL0     H31725  10.462   7.076   2.727  0.8826  3.1861  0.5362
  976MOL0     H31726  10.461   6.898   2.551 -0.0112  0.4123 -2.2203
  976MOL0     H31727  10.623   6.954   2.498 -1.1843  5.1987  1.4160
  976MOL0     H31728  10.715   6.864   2.723 -0.3917  1.3619  0.8339
  976MOL0     H31729  10.556   6.793   2.760  0.5824  0.7926  1.1440
  976MOL0     H31730  10.698   6.726   2.504 -0.9507 -0.9883 -1.0773
  976MOL0     H31731  10.578   6.633   2.585 -1.9476  2.9372 -1.1568
  976MOL0     H31732  10.747   6.579   2.755 -3.4412 -1.1726 -2.3350
  976MOL0     H31733  10.877   6.676   2.682  0.5328 -0.6437 -1.1004
  976MOL0     H31734  10.754   6.451   2.537 -2.7847  2.2469  1.9640
  976MOL0     H31735  10.895   6.548   2.486  0.6771  2.3707  1.2918
  976MOL0     H31736  10.975   6.486   2.730 -1.1434  0.4769 -0.7699
  976MOL0     H31737  11.016   6.385   2.590  0.7765  0.2626 -0.5914
  976MOL0     H31738  10.765   6.327   2.753  0.5224  2.0434  0.1688
  976MOL0     H31739  10.831   6.222   2.639  0.4059 -1.5221  1.4290
  976MOL0     H31740  10.519   7.280   2.347 -0.5705  0.7715  1.0194
  976MOL0     H31741  10.340   7.246   2.158  4.8930  0.3883  0.4730
  976MOL0     H31742  10.005   7.235   2.013 -0.6660  0.2508  0.5811
  976MOL0     H31743   9.867   7.243   1.830  3.4291  0.6631 -0.4117
  976MOL0     H31744   7.956   6.211   1.291 -1.8230 -0.6369  0.9478
  976MOL0     H31745   7.775   6.175   1.418 -1.0822  1.6895 -2.4590
  976MOL0     H31746   7.637   6.367   1.879 -1.9541  4.3171 -0.3937
  976MOL0     H31747   7.505   6.340   2.085  2.7275 -0.3886 -2.1641
  976MOL0     H31748   7.125   6.426   2.002 -1.7667 -3.9176 -0.7921
  976MOL0     H31749   7.226   6.479   2.146 -0.2807 -1.9919  3.6559
  976MOL0     H31750   7.082   6.353   2.298 -0.5442  3.0360  0.9466
  976MOL0     H31751   6.969   6.308   2.166 -0.3956  0.0117  2.0720
  976MOL0     H31752   6.977   6.583   2.139  0.2672  0.6428 -0.2294
  976MOL0     H31753   7.069   6.583   2.290 -1.6958 -0.5312  2.3783
  976MOL0     H31754   6.896   6.483   2.407  1.4665  1.3627  0.2895
  976MOL0     H31755   6.818   6.612   2.312  0.2257 -0.1999  0.8487
  976MOL0     H31756   6.589   6.320   2.162  0.9819 -1.1963  0.2028
  976MOL0     H31757   7.163   6.235   1.858 -0.0264 -1.0562 -0.5075
  976MOL0     H31758   7.177   6.182   1.626 -0.5517 -0.1175 -2.2914
  976MOL0     H31759   7.258   6.309   1.545 -1.1464 -0.5454 -0.8030
  976MOL0     H31760   7.340   6.162   1.544 -0.3334 -0.2480 -0.2784
  977MOL0     O31761   2.419   0.747   2.656  0.6367 -0.1123  0.3882
  977MOL0     C31762   2.369   0.855   2.629  0.5264  0.0780  0.8588
  977MOL0     O31763   2.435   0.968   2.648  0.0319 -0.2846 -0.0897
  977MOL0     C31764   2.562   0.971   2.697  0.6754  0.9253 -0.2781
  977MOL0     C31765   2.575   0.931   2.830 -0.3175 -0.3029 -0.5365
  977MOL0     C31766   2.703   0.903   2.882  0.0099  1.0611  0.0779
  977MOL0     C31767   2.818   0.931   2.801  0.8640  0.2810 -0.2499
  977MOL0     O31768   2.953   0.908   2.832 -0.3634 -0.3033  0.4036
  977MOL0     C31769   2.979   0.776   2.885  0.8568 -0.4311  0.4885
  977MOL0     C31770   2.941   0.647   2.798 -0.6581 -1.1032 -0.0515
  977MOL0     C31771   3.068   0.609   2.710  0.7035 -0.1504 -0.3786
  977MOL0     C31772   3.098   0.711   2.603 -0.8968  0.2089  0.8949
  977MOL0     C31773   3.171   0.665   2.478 -0.2021  0.3178 -0.3230
  977MOL0     C31774   3.302   0.585   2.521  1.2878 -0.5490  0.7433
  977MOL0     C31775   3.376   0.530   2.411 -1.1779 -0.0424  0.5664
  977MOL0     C31776   3.496   0.462   2.476  0.5892  0.4779 -0.1943
  977MOL0     N31777   3.594   0.447   2.367 -0.0278  0.5694 -0.2162
  977MOL0     C31778   3.660   0.552   2.310 -0.2564  1.0816 -0.5539
  977MOL0     C31779   3.708   0.505   2.191 -0.6338  0.3707 -0.4077
  977MOL0     C31780   3.802   0.573   2.094  0.6624 -0.0306 -0.3162
  977MOL0     C31781   3.946   0.523   2.124  0.0163  0.3910  0.3183
  977MOL0     C31782   4.037   0.550   2.004 -0.3025  0.3982  0.6217
  977MOL0     C31783   4.184   0.534   2.022 -0.2941  0.4383 -0.9408
  977MOL0     O31784   4.221   0.402   2.045 -0.8634 -0.1532 -0.0583
  977MOL0     C31785   4.362   0.388   2.029  0.6329  0.2017 -0.7851
  977MOL0     C31786   4.416   0.315   1.925  0.2927 -0.0190 -0.7741
  977MOL0     C31787   4.550   0.281   1.923  0.3290  0.1957 -0.0218
  977MOL0     C31788   4.633   0.317   2.027  0.3832 -0.5274  0.3081
  977MOL0     C31789   4.783   0.281   2.030  0.1987 -0.5800 -0.0899
  977MOL0     O31790   4.835   0.217   1.922 -0.9907 -0.2428  0.3850
  977MOL0     C31791   4.963   0.180   1.934  0.9809 -0.1213 -0.6534
  977MOL0     C31792   5.051   0.245   1.850 -0.2373 -0.1913 -0.0508
  977MOL0     C31793   5.184   0.209   1.847  0.4370  0.1589 -0.0434
  977MOL0     C31794   5.231   0.098   1.923  0.0824 -0.3209  0.2056
  977MOL0     O31795   5.355   0.039   1.912  0.6310  0.0856 -0.0622
  977MOL0     C31796   5.431   0.091   1.805 -0.3291  0.5643  0.4644
  977MOL0     C31797   5.551  -0.005   1.813  0.0520  0.0366 -0.3324
  977MOL0     C31798   5.669   0.064   1.750  0.4355  0.3899 -0.0272
  977MOL0     C31799   5.794  -0.025   1.760  0.2251  0.2294  0.1743
  977MOL0     C31800   5.916   0.044   1.695  0.0754  1.3580 -0.0514
  977MOL0     C31801   6.027  -0.059   1.647 -0.5549  0.0340  0.4314
  977MOL0     C31802   6.127   0.017   1.567 -0.4232 -0.2227  0.0561
  977MOL0     C31803   6.224  -0.096   1.512  0.5099 -0.3395 -0.5678
  977MOL0    Cl31804   6.142  -0.234   1.419  0.0456  0.2229  0.9205
  977MOL0     C31805   5.142   0.041   2.021  0.1701 -0.3258 -0.3593
  977MOL0     C31806   5.005   0.082   2.022 -0.6940  0.9466  0.7758
  977MOL0     O31807   4.848   0.320   2.132 -0.2093 -0.1411 -0.0219
  977MOL0     C31808   4.577   0.399   2.131 -0.5937  0.0152  0.0947
  977MOL0     C31809   4.444   0.440   2.134 -0.0905  0.3919  0.5463
  977MOL0     N31810   3.664   0.376   2.181  1.0002  0.5068  0.3673
  977MOL0     N31811   3.593   0.332   2.287 -0.1854  0.5286 -0.0284
  977MOL0     C31812   2.805   0.963   2.668  0.5962  0.4619 -0.5078
  977MOL0     C31813   2.677   0.979   2.611 -0.6122 -0.8264 -0.0718
  977MOL0     C31814   2.238   0.860   2.553  1.5318 -0.2817  0.4989
  977MOL0     C31815   2.220   0.966   2.461 -0.8397 -0.4436 -1.0015
  977MOL0     C31816   2.106   0.989   2.392  0.4773 -0.0937  0.2897
  977MOL0     C31817   2.004   0.897   2.408  0.7389  0.2514 -0.7621
  977MOL0     O31818   1.874   0.906   2.349 -0.2651 -0.1836  0.1487
  977MOL0     C31819   1.844   1.036   2.298 -0.5352 -0.2295  0.0911
  977MOL0     C31820   1.705   1.046   2.218 -0.0382  0.5044 -0.1260
  977MOL0     C31821   1.686   1.187   2.169 -0.1273 -0.5017 -1.0596
  977MOL0     C31822   1.536   1.234   2.198 -0.6563  0.4316 -0.9516
  977MOL0     C31823   1.511   1.232   2.344  0.0232 -0.1461 -0.0812
  977MOL0     C31824   1.497   1.217   2.461 -1.0020 -0.3257 -0.5171
  977MOL0     C31825   2.015   0.786   2.495  0.4358  0.9481  0.0646
  977MOL0     C31826   2.126   0.764   2.567  0.0494  0.4172  0.3304
  977MOL0     C31827   2.135   0.648   2.661 -0.3653 -0.1222  0.0962
  977MOL0     H31828   2.491   0.917   2.897 -0.9973  4.0435 -0.1769
  977MOL0     H31829   2.707   0.873   2.986  3.4080  1.6778  0.2481
  977MOL0     H31830   3.086   0.776   2.909  1.1974 -1.1338 -0.9469
  977MOL0     H31831   2.920   0.775   2.977  0.6400 -1.6099  0.3609
  977MOL0     H31832   2.857   0.677   2.735  0.0640  2.1195  0.3485
  977MOL0     H31833   2.905   0.566   2.862 -2.3299  2.1380  3.5235
  977MOL0     H31834   3.047   0.507   2.675 -2.1949  1.2201 -3.1776
  977MOL0     H31835   3.157   0.600   2.773  1.2447 -0.6470 -1.1923
  977MOL0     H31836   3.000   0.735   2.561 -0.7829 -0.1566  0.4007
  977MOL0     H31837   3.149   0.792   2.655  2.0685 -0.7311 -0.3443
  977MOL0     H31838   3.101   0.599   2.424  1.9151 -3.3768  1.0533
  977MOL0     H31839   3.194   0.755   2.421 -0.7261  1.7017  1.5819
  977MOL0     H31840   3.351   0.665   2.577  1.4796  2.0978 -2.7867
  977MOL0     H31841   3.264   0.511   2.592 -1.4347 -0.0760 -0.0696
  977MOL0     H31842   3.403   0.609   2.341  0.3672 -4.0183 -3.8408
  977MOL0     H31843   3.325   0.454   2.351 -1.6858  0.3465  0.5015
  977MOL0     H31844   3.534   0.527   2.555 -0.4796  1.7782 -0.7096
  977MOL0     H31845   3.465   0.363   2.510  2.1305 -0.0848 -0.3497
  977MOL0     H31846   3.682   0.649   2.354 -0.2200  0.6118  0.4911
  977MOL0     H31847   3.774   0.552   1.991  2.6632 -0.1135 -0.8853
  977MOL0     H31848   3.800   0.681   2.107  0.9705 -0.3105  3.1652
  977MOL0     H31849   3.986   0.574   2.212  1.7002 -1.0240  0.4350
  977MOL0     H31850   3.940   0.415   2.144  2.6993  0.2495  0.8415
  977MOL0     H31851   4.017   0.657   1.989 -2.7075 -0.1660 -0.6613
  977MOL0     H31852   4.007   0.491   1.918 -0.8338 -2.2142  2.4964
  977MOL0     H31853   4.222   0.608   2.094 -0.3747  0.4874 -0.9484
  977MOL0     H31854   4.222   0.562   1.924 -1.0487 -3.1420 -2.3863
  977MOL0     H31855   4.350   0.286   1.844  2.4049  1.8045 -3.3058
  977MOL0     H31856   4.579   0.212   1.845  0.3711 -0.3127  0.4369
  977MOL0     H31857   5.021   0.338   1.801 -1.5973 -0.0302  1.0201
  977MOL0     H31858   5.245   0.262   1.775  1.7756  1.2877  1.8190
  977MOL0     H31859   5.382   0.085   1.708  0.5953  1.8223 -0.1117
  977MOL0     H31860   5.451   0.196   1.829  2.7742 -0.3515  2.5423
  977MOL0     H31861   5.583  -0.017   1.917 -0.0576 -1.1525 -0.4267
  977MOL0     H31862   5.516  -0.101   1.775 -4.5244  1.1789  0.4636
  977MOL0     H31863   5.647   0.078   1.643 -0.5184  1.0325  0.2348
  977MOL0     H31864   5.689   0.157   1.804  0.5787 -0.5753  1.6507
  977MOL0     H31865   5.772  -0.117   1.704  2.2131 -1.8835  2.6110
  977MOL0     H31866   5.811  -0.055   1.864  1.8931 -1.1949 -0.4536
  977MOL0     H31867   5.965   0.111   1.766  0.6575 -2.2541  3.2962
  977MOL0     H31868   5.871   0.101   1.613 -2.6491  3.3372  2.5963
  977MOL0     H31869   6.070  -0.122   1.725 -2.0311  0.1553  1.3730
  977MOL0     H31870   5.980  -0.123   1.572  1.5019  0.9877 -1.8085
  977MOL0     H31871   6.178   0.088   1.632 -0.2613 -1.6033  1.4811
  977MOL0     H31872   6.078   0.075   1.488 -1.7992  3.2127  3.1341
  977MOL0     H31873   6.293  -0.043   1.446  0.6051 -0.3736 -0.4979
  977MOL0     H31874   6.288  -0.135   1.593  0.8483  0.8218 -0.2654
  977MOL0     H31875   5.186  -0.026   2.094  2.8050 -0.1363 -1.6428
  977MOL0     H31876   4.933   0.040   2.092  1.1956  0.5722  2.5963
  977MOL0     H31877   4.632   0.421   2.222 -2.7654 -3.8013  2.5886
  977MOL0     H31878   4.400   0.501   2.212 -1.4930 -0.2173  0.2628
  977MOL0     H31879   2.889   0.978   2.601  1.8089  2.0358  1.2849
  977MOL0     H31880   2.672   1.001   2.505  2.4302 -0.2805 -0.2075
  977MOL0     H31881   2.296   1.043   2.452 -0.3334 -0.8255 -0.1506
  977MOL0     H31882   2.110   1.069   2.319 -0.6091 -1.6310 -1.5602
  977MOL0     H31883   1.921   1.080   2.234  0.1907  0.7572  1.5800
  977MOL0     H31884   1.836   1.096   2.389 -0.0699 -1.8430  1.2450
  977MOL0     H31885   1.623   1.014   2.282 -0.3580 -0.4459 -0.9854
  977MOL0     H31886   1.709   0.976   2.134 -4.8143  0.6404 -0.7150
  977MOL0     H31887   1.709   1.194   2.062  1.3391  3.5960 -0.6800
  977MOL0     H31888   1.753   1.259   2.218  1.3621 -2.5955  0.1343
  977MOL0     H31889   1.520   1.335   2.160  6.0860  3.2527  1.9801
  977MOL0     H31890   1.476   1.155   2.151  4.1503 -3.1106 -1.9460
  977MOL0     H31891   1.503   1.205   2.568  2.4580 -0.8015 -0.6459
  977MOL0     H31892   1.940   0.710   2.512  0.0147  1.7032  1.8867
  977MOL0     H31893   2.215   0.577   2.636 -1.0699 -0.9085  0.0530
  977MOL0     H31894   2.157   0.691   2.759 -1.9201 -0.8115  0.7785
  977MOL0     H31895   2.041   0.595   2.678 -0.5887 -0.0069 -0.7288
  978MOL0     O31896  11.338  10.073   8.530 -0.0617 -0.5415 -0.3640
  978MOL0     C31897  11.393   9.978   8.476 -0.3806  1.3002 -0.9577
  978MOL0     O31898  11.519   9.921   8.512 -0.9100 -0.0392 -0.4399
  978MOL0     C31899  11.599  10.005   8.589  0.6748 -0.6157  0.6570
  978MOL0     C31900  11.662   9.950   8.706  0.1764  0.0279 -0.2655
  978MOL0     C31901  11.729  10.033   8.802 -0.1228 -0.8310  0.9169
  978MOL0     C31902  11.747  10.176   8.771  0.0594  0.0496  0.4294
  978MOL0     O31903  11.822  10.256   8.852 -0.6823  0.6433 -0.4100
  978MOL0     C31904  11.844  10.390   8.816 -0.2651 -0.5631 -0.0485
  978MOL0     C31905  11.924  10.464   8.932  0.2869 -0.6562 -0.0638
  978MOL0     C31906  12.036  10.548   8.870 -0.4692  0.3785  0.5235
  978MOL0     C31907  12.090  10.661   8.963 -0.5911 -0.0915  0.5185
  978MOL0     C31908  12.227  10.718   8.915  0.1190  0.7468 -0.0443
  978MOL0     C31909  12.295  10.796   9.019 -0.1150 -0.0796 -0.0960
  978MOL0     C31910  12.441  10.834   8.954  0.9762  0.0751  0.2908
  978MOL0     C31911  12.532  10.877   9.061 -0.3602  0.0102 -0.6305
  978MOL0     N31912  12.647  10.943   9.011  0.2600 -0.2073  0.2041
  978MOL0     C31913  12.748  10.877   8.952 -0.0213 -0.0840  0.3327
  978MOL0     C31914  12.848  10.975   8.939 -0.2736  0.1844 -0.0623
  978MOL0     C31915  12.972  10.959   8.857 -0.2846  0.4876 -0.5506
  978MOL0     C31916  13.097  10.935   8.960 -0.3087 -0.5043  0.3650
  978MOL0     C31917  13.102  10.795   9.017 -0.1365 -0.5134  0.1853
  978MOL0     C31918  13.223  10.756   9.093 -0.3587 -1.4206  0.9795
  978MOL0     O31919  13.335  10.741   9.003 -0.7080  0.0841  1.1747
  978MOL0     C31920  13.455  10.686   9.029  0.0372  0.0357  0.3157
  978MOL0     C31921  13.555  10.685   8.927 -0.2069 -0.9716  0.1530
  978MOL0     C31922  13.685  10.649   8.954  0.3323 -0.3968 -0.7016
  978MOL0     C31923  13.721  10.611   9.084 -0.3427 -0.4756 -0.2512
  978MOL0     C31924  13.861  10.601   9.132 -0.7598  0.3098  0.5202
  978MOL0     O31925  13.886  10.587   9.264 -0.1961 -0.3903  0.3018
  978MOL0     C31926  14.019  10.589   9.320  0.6035  0.8343 -0.4324
  978MOL0     C31927  14.133  10.646   9.262  0.4180  0.1384  0.0796
  978MOL0     C31928  14.263  10.618   9.314  0.1834 -0.2157 -0.4616
  978MOL0     C31929  14.274  10.536   9.430  0.4044 -0.2590 -0.6376
  978MOL0     O31930  14.404  10.513   9.474 -0.1688 -0.4592 -0.6533
  978MOL0     C31931  14.428  10.458   9.609 -0.1226 -0.2075  0.1277
  978MOL0     C31932  14.586  10.451   9.631 -0.1765  0.4743 -0.3313
  978MOL0     C31933  14.630  10.388   9.770  1.4301 -0.5835  0.0654
  978MOL0     C31934  14.773  10.407   9.803  0.8660 -0.4098 -0.0141
  978MOL0     C31935  14.793  10.348   9.942  0.5287 -0.3432  0.5152
  978MOL0     C31936  14.925  10.392  10.020  0.9104  0.4162 -0.7571
  978MOL0     C31937  15.052  10.346   9.937  0.3187 -0.2421  0.3518
  978MOL0     C31938  15.183  10.363  10.019 -0.4831  0.1565  0.0868
  978MOL0    Cl31939  15.309  10.266   9.950 -0.5232 -0.0005  0.0181
  978MOL0     C31940  14.156  10.495   9.490  0.1023  1.3011 -0.0845
  978MOL0     C31941  14.030  10.518   9.440 -0.5403  0.9714 -0.7305
  978MOL0     O31942  13.943  10.622   9.044 -0.3081 -0.1696 -0.0464
  978MOL0     C31943  13.625  10.599   9.183  0.8993 -0.1638 -0.7796
  978MOL0     C31944  13.490  10.648   9.157  0.6301  0.0213 -1.0833
  978MOL0     N31945  12.807  11.092   9.010 -0.2988 -0.3321  0.1063
  978MOL0     N31946  12.686  11.067   9.050 -0.4639  0.1252  0.0384
  978MOL0     C31947  11.704  10.214   8.645  0.4703 -0.3995  0.0820
  978MOL0     C31948  11.619  10.144   8.566 -0.3618 -0.6530 -1.3308
  978MOL0     C31949  11.306   9.901   8.379  0.0401  0.1356  0.0651
  978MOL0     C31950  11.375   9.846   8.281  0.0896  0.6646  0.2816
  978MOL0     C31951  11.302   9.786   8.175 -0.4353  0.2237  0.0028
  978MOL0     C31952  11.161   9.777   8.182 -0.1619  1.0866  0.2932
  978MOL0     O31953  11.091   9.697   8.089 -0.5358 -0.4203 -0.3505
  978MOL0     C31954  11.159   9.628   7.988  0.3507  1.2471 -0.7719
  978MOL0     C31955  11.049   9.562   7.905  0.0552  0.1761  0.1784
  978MOL0     C31956  10.977   9.660   7.808  0.3248  0.4444  1.2329
  978MOL0     C31957  10.936   9.588   7.677 -0.3960  0.2120 -0.0584
  978MOL0     C31958  10.864   9.466   7.720  0.0224  0.6798 -0.2866
  978MOL0     C31959  10.808   9.367   7.762  0.0052 -0.3646 -0.6905
  978MOL0     C31960  11.091   9.835   8.289 -0.0718  0.0664  0.9542
  978MOL0     C31961  11.161   9.901   8.386  0.1369  0.2034 -0.9729
  978MOL0     C31962  11.088   9.934   8.513 -0.6627  0.5862  0.7950
  978MOL0     H31963  11.648   9.845   8.731  2.9873 -0.0544  1.4382
  978MOL0     H31964  11.770  10.001   8.898  2.8404 -0.1418  0.0085
  978MOL0     H31965  11.904  10.392   8.725 -0.6221  2.0860 -0.2962
  978MOL0     H31966  11.752  10.447   8.805  0.8494  1.2431 -0.4736
  978MOL0     H31967  11.964  10.399   9.010  1.0890  0.2078  0.2538
  978MOL0     H31968  11.861  10.539   8.982  2.7144  1.3008  0.2519
  978MOL0     H31969  12.002  10.590   8.774 -0.6527 -0.1404  0.3617
  978MOL0     H31970  12.122  10.482   8.859 -2.0953 -1.8593  0.7343
  978MOL0     H31971  12.028  10.750   8.971  2.1736  1.8178  2.7775
  978MOL0     H31972  12.111  10.627   9.065 -1.2664  3.4881  1.9869
  978MOL0     H31973  12.291  10.632   8.896  0.6938  0.3500  3.1790
  978MOL0     H31974  12.213  10.778   8.824 -0.7810 -1.4381 -1.4464
  978MOL0     H31975  12.237  10.888   9.027  1.2937  1.0852 -2.3457
  978MOL0     H31976  12.315  10.745   9.115  2.2410 -1.9474 -1.4447
  978MOL0     H31977  12.436  10.922   8.889  0.6350  0.5745  0.9859
  978MOL0     H31978  12.475  10.753   8.888  0.2006  0.5090 -0.6770
  978MOL0     H31979  12.474  10.949   9.120  1.3956  0.7194  0.3066
  978MOL0     H31980  12.554  10.785   9.117 -2.8904 -1.4407 -1.8408
  978MOL0     H31981  12.752  10.778   8.908 -0.3646 -0.1531  0.4567
  978MOL0     H31982  12.968  10.873   8.790  2.0247  1.4002 -2.0023
  978MOL0     H31983  12.985  11.051   8.798 -1.0860 -0.9518 -3.1459
  978MOL0     H31984  13.191  10.950   8.907  0.1064 -4.6458 -0.4411
  978MOL0     H31985  13.082  11.010   9.038  0.1393  1.8296 -1.6834
  978MOL0     H31986  13.084  10.715   8.944 -0.9927  0.1978 -0.3934
  978MOL0     H31987  13.019  10.789   9.088  0.4539  0.3129  0.9772
  978MOL0     H31988  13.210  10.660   9.144  0.5070 -1.1857  1.6549
  978MOL0     H31989  13.244  10.833   9.166  0.0481 -1.1906  0.6259
  978MOL0     H31990  13.538  10.719   8.825 -1.5077 -3.2452 -0.4694
  978MOL0     H31991  13.761  10.671   8.879  1.5403 -2.8661 -0.3208
  978MOL0     H31992  14.123  10.714   9.178 -0.0060  0.4063  0.3432
  978MOL0     H31993  14.354  10.644   9.262  1.1435 -4.0300 -1.0003
  978MOL0     H31994  14.375  10.500   9.695 -4.2457 -3.0438 -0.7190
  978MOL0     H31995  14.402  10.352   9.607  0.3147 -0.3968  2.1763
  978MOL0     H31996  14.628  10.379   9.560 -3.3060  1.3123 -3.2868
  978MOL0     H31997  14.642  10.545   9.621  2.5717 -0.9810  0.1689
  978MOL0     H31998  14.574  10.426   9.856  0.7974 -0.1665 -0.5153
  978MOL0     H31999  14.596  10.284   9.770 -0.6320 -0.0387  2.9312
  978MOL0     H32000  14.799  10.513   9.797  1.4731 -0.6324 -2.0394
  978MOL0     H32001  14.826  10.346   9.730 -2.0422 -1.0597 -1.7663
  978MOL0     H32002  14.787  10.241   9.918 -1.8895  0.2993 -2.2526
  978MOL0     H32003  14.708  10.376  10.005  0.9290 -2.1195  1.9309
  978MOL0     H32004  14.932  10.501  10.031  0.4485  0.3509  0.3226
  978MOL0     H32005  14.920  10.356  10.123 -2.2637  5.1253  1.1102
  978MOL0     H32006  15.060  10.393   9.838  2.3076  0.1897  0.6597
  978MOL0     H32007  15.033  10.239   9.920 -1.1494 -0.6961  3.9129
  978MOL0     H32008  15.216  10.467  10.019  1.6604 -0.4558  1.6498
  978MOL0     H32009  15.178  10.332  10.124 -0.7384 -0.8141 -0.1991
  978MOL0     H32010  14.169  10.428   9.574 -1.7971 -0.9675 -1.4578
  978MOL0     H32011  13.943  10.479   9.493  0.9300 -1.4400  0.0660
  978MOL0     H32012  13.649  10.566   9.283  0.2983 -0.9131 -0.8705
  978MOL0     H32013  13.412  10.652   9.233  1.3260 -0.9422 -0.2868
  978MOL0     H32014  11.737  10.313   8.614 -2.8280  0.1702 -2.1185
  978MOL0     H32015  11.560  10.188   8.486 -0.9486  0.9092 -0.1003
  978MOL0     H32016  11.480   9.873   8.286  0.0889  1.2499 -1.8022
  978MOL0     H32017  11.365   9.739   8.099  1.7726  1.0280  1.2333
  978MOL0     H32018  11.235   9.556   8.019  1.7305  2.3638 -1.4387
  978MOL0     H32019  11.208   9.704   7.927  0.4591  0.7038 -1.3725
  978MOL0     H32020  10.982   9.511   7.976  3.3688 -1.7464  2.1987
  978MOL0     H32021  11.097   9.490   7.837  0.6651  1.0678 -0.3504
  978MOL0     H32022  11.033   9.749   7.777 -1.8514  1.1049 -1.2167
  978MOL0     H32023  10.883   9.699   7.848 -2.3068 -2.9541 -1.0256
  978MOL0     H32024  10.865   9.650   7.622 -1.3530 -3.1394 -2.9851
  978MOL0     H32025  11.022   9.573   7.612 -0.2909  0.0265  0.1218
  978MOL0     H32026  10.764   9.290   7.822  2.3277 -0.6278  0.8003
  978MOL0     H32027  10.984   9.816   8.295  0.1996 -1.2132  2.2387
  978MOL0     H32028  11.142   9.925   8.608 -0.2396  0.9525  0.5875
  978MOL0     H32029  11.050  10.036   8.524 -1.6099  0.4434 -0.8910
  978MOL0     H32030  10.992   9.881   8.512 -0.4557  0.1868  1.3191
  979MOL0     O32031   8.853   6.892   3.303  0.5586 -0.1221 -0.2915
  979MOL0     C32032   8.763   6.809   3.291 -0.3283  0.0384 -0.5615
  979MOL0     O32033   8.783   6.685   3.251 -0.0531 -0.8954  0.3415
  979MOL0     C32034   8.914   6.668   3.210 -0.7732  0.8305  0.3689
  979MOL0     C32035   9.025   6.657   3.297 -0.0375 -0.1673 -0.6223
  979MOL0     C32036   9.161   6.641   3.248  0.7673 -0.2553 -0.2853
  979MOL0     C32037   9.171   6.628   3.110 -0.6203 -0.2633 -0.7551
  979MOL0     O32038   9.286   6.589   3.051 -0.7382 -0.1724 -0.2579
  979MOL0     C32039   9.355   6.686   2.968  0.6514  0.7998 -0.3776
  979MOL0     C32040   9.496   6.687   3.015  0.3679 -0.1387  0.8594
  979MOL0     C32041   9.529   6.749   3.152 -0.2983 -0.9952 -0.5279
  979MOL0     C32042   9.679   6.752   3.182 -0.0752 -0.4303  0.3589
  979MOL0     C32043   9.693   6.787   3.334 -0.6600  0.0110  0.3619
  979MOL0     C32044   9.830   6.766   3.390 -0.2057 -0.6233  0.0220
  979MOL0     C32045   9.931   6.854   3.320 -0.1770  0.1712  1.6349
  979MOL0     C32046  10.072   6.866   3.381 -0.4140 -0.5405 -0.2854
  979MOL0     N32047  10.062   6.978   3.475 -0.6139 -1.0754 -0.2059
  979MOL0     C32048  10.036   7.106   3.436  1.0590 -0.3912  0.5084
  979MOL0     C32049  10.013   7.180   3.547 -0.1545 -0.4937 -0.8754
  979MOL0     C32050   9.996   7.330   3.573  0.2184 -0.4302  0.3238
  979MOL0     C32051  10.119   7.401   3.588 -0.1427 -0.4213 -0.3124
  979MOL0     C32052  10.209   7.345   3.704  0.1295  0.4070  0.0493
  979MOL0     C32053  10.324   7.436   3.752 -0.8485 -0.4118 -0.2697
  979MOL0     O32054  10.451   7.379   3.723 -0.6704  1.0343  0.5771
  979MOL0     C32055  10.569   7.436   3.759 -0.4440 -1.0295  0.3551
  979MOL0     C32056  10.694   7.392   3.710 -0.9098 -0.4075  0.2963
  979MOL0     C32057  10.816   7.457   3.745  0.4191  0.6587  0.5779
  979MOL0     C32058  10.817   7.579   3.819  0.2744  0.4470  0.5283
  979MOL0     C32059  10.941   7.648   3.869  0.4091  0.0344  0.6941
  979MOL0     O32060  10.933   7.756   3.942 -0.3232 -0.5512  0.5071
  979MOL0     C32061  11.053   7.824   3.973  0.3847 -0.2026 -0.7522
  979MOL0     C32062  11.078   7.868   4.107  0.4841  0.6105 -0.1822
  979MOL0     C32063  11.186   7.946   4.139  0.0086  0.2111 -0.8499
  979MOL0     C32064  11.274   7.988   4.034  1.0614 -0.1063 -0.6499
  979MOL0     O32065  11.365   8.087   4.043  0.2056 -0.5279  0.3972
  979MOL0     C32066  11.443   8.119   4.165  1.6287  0.9935 -0.1293
  979MOL0     C32067  11.564   8.208   4.144 -0.1405  0.0480  0.0441
  979MOL0     C32068  11.548   8.332   4.070  0.0623 -0.4650  0.0948
  979MOL0     C32069  11.686   8.405   4.054 -0.4681  0.0776  0.7339
  979MOL0     C32070  11.674   8.514   3.955  0.6874  0.2922 -0.3410
  979MOL0     C32071  11.801   8.586   3.921  0.0917 -0.1466  0.3933
  979MOL0     C32072  11.777   8.675   3.790 -0.0338  0.5889  0.7614
  979MOL0     C32073  11.881   8.785   3.768  0.2142 -0.7010 -0.5180
  979MOL0    Cl32074  12.052   8.742   3.755 -0.1138 -0.1492 -0.0461
  979MOL0     C32075  11.254   7.938   3.909 -0.4619  0.6946  0.1834
  979MOL0     C32076  11.145   7.857   3.868  0.3091  0.0152 -0.7584
  979MOL0     O32077  11.045   7.588   3.838 -0.2359  1.1283  0.0497
  979MOL0     C32078  10.688   7.626   3.858  0.2124 -0.2118 -1.0637
  979MOL0     C32079  10.574   7.554   3.831  0.0385  0.1198 -0.4011
  979MOL0     N32080  10.019   7.089   3.652 -0.2595 -0.2866  0.3590
  979MOL0     N32081  10.052   6.976   3.614 -0.2143 -0.6992 -0.0563
  979MOL0     C32082   9.067   6.634   3.025  0.0823  1.2238 -0.4897
  979MOL0     C32083   8.941   6.655   3.073 -0.1824  0.4584 -0.7430
  979MOL0     C32084   8.628   6.858   3.333  0.2185  0.6994 -0.5188
  979MOL0     C32085   8.619   6.988   3.385 -0.3407  0.7789  0.7773
  979MOL0     C32086   8.497   7.052   3.434 -0.7606 -0.2331  0.1568
  979MOL0     C32087   8.387   6.970   3.449  0.2818 -0.5147 -0.2221
  979MOL0     O32088   8.263   7.010   3.496 -0.2933 -0.1647 -0.0701
  979MOL0     C32089   8.264   7.121   3.584  0.4572  0.3527  0.7251
  979MOL0     C32090   8.134   7.154   3.647  0.0407  0.2212 -0.4742
  979MOL0     C32091   8.073   7.042   3.735 -0.6169  0.4991 -0.3951
  979MOL0     C32092   7.930   7.067   3.778  0.2229  0.3434 -0.1130
  979MOL0     C32093   7.927   7.123   3.911 -1.1537 -0.7622  0.3277
  979MOL0     C32094   7.919   7.153   4.028  0.4263 -0.4313 -0.5637
  979MOL0     C32095   8.397   6.833   3.404 -0.5768 -0.8467 -0.0505
  979MOL0     C32096   8.514   6.774   3.356  0.0216  0.5892 -0.1987
  979MOL0     C32097   8.514   6.623   3.326 -0.5284  0.3974 -0.6038
  979MOL0     H32098   9.003   6.673   3.402  0.6873 -1.7010 -0.2163
  979MOL0     H32099   9.246   6.627   3.315 -0.3515 -1.7220  0.8926
  979MOL0     H32100   9.348   6.651   2.865 -0.1594  2.7896 -1.0444
  979MOL0     H32101   9.305   6.783   2.965  1.9076  1.4745 -0.1834
  979MOL0     H32102   9.558   6.738   2.941 -1.1885 -0.0580 -0.4348
  979MOL0     H32103   9.524   6.581   3.018 -1.8806 -0.7900  0.1382
  979MOL0     H32104   9.478   6.692   3.230  1.9941 -1.2936  0.8193
  979MOL0     H32105   9.486   6.849   3.163 -0.9133 -1.2306 -0.7166
  979MOL0     H32106   9.714   6.653   3.153 -1.2671 -1.2274  1.5258
  979MOL0     H32107   9.719   6.830   3.117  0.3423  0.7840  2.0179
  979MOL0     H32108   9.668   6.893   3.344 -1.6116  0.1083 -2.2607
  979MOL0     H32109   9.612   6.740   3.390 -3.0631 -1.5525 -3.9225
  979MOL0     H32110   9.826   6.800   3.494  2.8335 -2.2833  0.8001
  979MOL0     H32111   9.844   6.658   3.377 -2.7661 -0.9690 -0.2856
  979MOL0     H32112   9.879   6.944   3.286  1.2791  0.0121 -1.3505
  979MOL0     H32113   9.950   6.808   3.222 -2.3106  0.6469  0.9372
  979MOL0     H32114  10.104   6.774   3.430  0.0493  0.1248  0.7108
  979MOL0     H32115  10.141   6.900   3.302 -2.0418  2.4033 -0.5985
  979MOL0     H32116  10.032   7.146   3.335  2.0525  0.3794  0.7590
  979MOL0     H32117   9.942   7.375   3.490  1.6561  1.8030  0.4999
  979MOL0     H32118   9.930   7.345   3.659 -2.3475 -2.4469 -1.1739
  979MOL0     H32119  10.166   7.397   3.489 -0.5813  1.5211 -0.6341
  979MOL0     H32120  10.089   7.503   3.610 -0.9324 -0.2175 -2.1235
  979MOL0     H32121  10.251   7.248   3.676  1.8586  1.2833 -0.4939
  979MOL0     H32122  10.141   7.321   3.787 -0.1922  2.7401  0.5316
  979MOL0     H32123  10.309   7.462   3.857 -3.0508  2.6384 -1.2008
  979MOL0     H32124  10.326   7.526   3.691 -0.1050 -1.3011 -1.6081
  979MOL0     H32125  10.692   7.308   3.641  0.2069 -1.0058  0.9565
  979MOL0     H32126  10.907   7.416   3.703  0.7033 -1.1455  2.7837
  979MOL0     H32127  11.016   7.834   4.189  2.1346  1.2226  1.4037
  979MOL0     H32128  11.206   7.950   4.246 -1.5014 -3.3378 -0.3029
  979MOL0     H32129  11.369   8.168   4.229  0.8112  0.4985 -0.6677
  979MOL0     H32130  11.467   8.030   4.224 -0.8142 -0.6995 -1.4617
  979MOL0     H32131  11.606   8.235   4.241  1.7480  2.0811 -1.2655
  979MOL0     H32132  11.630   8.143   4.085 -2.9914 -0.5947 -2.7117
  979MOL0     H32133  11.524   8.295   3.970 -0.5845  1.4558 -0.5075
  979MOL0     H32134  11.471   8.391   4.122 -1.6223 -3.4116  1.2438
  979MOL0     H32135  11.754   8.337   4.002 -0.3983  0.5117  0.2490
  979MOL0     H32136  11.718   8.448   4.150 -0.8675 -1.0555  1.3937
  979MOL0     H32137  11.608   8.598   3.979 -1.2849 -1.6307  1.4114
  979MOL0     H32138  11.632   8.468   3.866  1.2092 -0.6335 -0.1158
  979MOL0     H32139  11.829   8.648   4.006 -1.3647  1.2445 -0.0818
  979MOL0     H32140  11.885   8.521   3.896 -0.7444 -1.3144  0.5298
  979MOL0     H32141  11.678   8.723   3.794 -1.4876 -2.0062 -0.9878
  979MOL0     H32142  11.764   8.616   3.699  0.9216  0.1026  0.9283
  979MOL0     H32143  11.845   8.836   3.678 -1.7545  0.5229  0.8921
  979MOL0     H32144  11.864   8.853   3.852  0.5325  1.3801 -2.0669
  979MOL0     H32145  11.312   7.980   3.826 -0.2982 -1.9797 -1.1483
  979MOL0     H32146  11.132   7.828   3.764 -1.3031 -2.1956 -0.0100
  979MOL0     H32147  10.676   7.722   3.907 -0.6290 -1.0668  0.4878
  979MOL0     H32148  10.481   7.596   3.869 -0.0358  1.3864 -1.8592
  979MOL0     H32149   9.078   6.616   2.918  1.4585  0.0889 -0.1769
  979MOL0     H32150   8.862   6.664   2.998 -0.5424  1.4474 -0.2616
  979MOL0     H32151   8.704   7.055   3.392 -1.6629  2.6228  0.0656
  979MOL0     H32152   8.522   7.150   3.471  0.2426 -0.1232 -0.7407
  979MOL0     H32153   8.295   7.210   3.528  0.3624 -0.6948 -1.0756
  979MOL0     H32154   8.332   7.101   3.667 -0.7441 -1.7057  1.2974
  979MOL0     H32155   8.061   7.191   3.574 -1.1674 -1.0429  0.0301
  979MOL0     H32156   8.162   7.247   3.696  1.2448 -0.4640  0.1797
  979MOL0     H32157   8.130   7.013   3.824 -0.8894  1.7896  0.2168
  979MOL0     H32158   8.081   6.955   3.669  4.1079  1.3811 -1.4102
  979MOL0     H32159   7.880   7.138   3.711 -1.6239 -0.6729  0.1118
  979MOL0     H32160   7.869   6.976   3.780  0.1600  0.3951  1.9829
  979MOL0     H32161   7.915   7.180   4.132 -1.8326  0.0188 -0.7205
  979MOL0     H32162   8.315   6.766   3.427 -0.4075 -0.4882  1.7317
  979MOL0     H32163   8.423   6.573   3.359 -0.5200 -0.4620 -1.8321
  979MOL0     H32164   8.523   6.597   3.220 -4.4712 -3.1575 -0.3280
  979MOL0     H32165   8.594   6.565   3.373 -0.7311 -0.5545 -1.3863
  980MOL0     O32166   7.046   6.421   6.367  0.3557 -0.0865  0.3194
  980MOL0     C32167   7.017   6.429   6.245  0.4503  0.7766 -0.3804
  980MOL0     O32168   7.091   6.479   6.146 -0.1378  0.0261  0.2806
  980MOL0     C32169   7.217   6.529   6.169 -0.8376  0.2880 -0.6059
  980MOL0     C32170   7.313   6.492   6.273 -0.2069  0.3610 -0.5410
  980MOL0     C32171   7.432   6.558   6.291 -0.1189  0.4548  0.3911
  980MOL0     C32172   7.475   6.660   6.196  0.3979  0.2481 -0.2515
  980MOL0     O32173   7.613   6.705   6.196  0.5464 -0.2382  0.8474
  980MOL0     C32174   7.716   6.618   6.241  0.1513  0.7610  0.6136
  980MOL0     C32175   7.708   6.477   6.183 -1.8739 -0.0222  0.6229
  980MOL0     C32176   7.853   6.422   6.178  0.7596 -0.4979  0.3206
  980MOL0     C32177   7.868   6.264   6.144  0.9432 -1.4637  0.7641
  980MOL0     C32178   7.999   6.198   6.161  0.3318  0.6048 -0.3612
  980MOL0     C32179   8.032   6.178   6.302 -0.0860 -0.1222 -0.0772
  980MOL0     C32180   8.172   6.111   6.312 -0.4687 -0.4534  0.1900
  980MOL0     C32181   8.214   6.101   6.461 -0.5699  0.1261  1.0398
  980MOL0     N32182   8.350   6.049   6.443  0.9933  0.4056 -0.2089
  980MOL0     C32183   8.383   5.924   6.388  0.3962  0.4182 -0.1055
  980MOL0     C32184   8.513   5.928   6.354 -0.0016 -0.7466 -0.4181
  980MOL0     C32185   8.598   5.814   6.312 -0.6434  0.1069  0.9291
  980MOL0     C32186   8.654   5.734   6.429 -0.2643  0.0202 -0.2085
  980MOL0     C32187   8.752   5.809   6.515  0.6266  0.5940 -0.4523
  980MOL0     C32188   8.766   5.735   6.654 -0.2113 -0.0713 -0.0715
  980MOL0     O32189   8.856   5.805   6.739  0.7849  0.0729  0.9601
  980MOL0     C32190   8.984   5.764   6.740  0.3830 -0.7196  0.6133
  980MOL0     C32191   9.073   5.826   6.646 -0.5674 -0.0635 -0.0154
  980MOL0     C32192   9.214   5.792   6.649  0.8148 -0.8698 -0.3774
  980MOL0     C32193   9.258   5.695   6.733  0.2303 -0.3970  0.5136
  980MOL0     C32194   9.395   5.641   6.715  0.2226 -0.0651 -0.0127
  980MOL0     O32195   9.487   5.703   6.632  0.0081  0.1952 -0.0134
  980MOL0     C32196   9.572   5.617   6.568 -0.1319  0.4445  0.8940
  980MOL0     C32197   9.530   5.500   6.495 -0.0667 -0.0294  0.2793
  980MOL0     C32198   9.624   5.409   6.446 -0.5411 -0.0714 -0.5514
  980MOL0     C32199   9.763   5.450   6.434  0.4456  0.1086  0.3370
  980MOL0     O32200   9.850   5.381   6.353  0.1995  0.4185 -0.0783
  980MOL0     C32201   9.820   5.243   6.326  0.3899  0.4130  0.1706
  980MOL0     C32202   9.949   5.181   6.273 -0.0864 -0.4148 -0.4730
  980MOL0     C32203   9.974   5.235   6.128  0.6767  0.5780 -0.0723
  980MOL0     C32204  10.057   5.130   6.049  0.7895  0.3611 -0.2215
  980MOL0     C32205  10.105   5.192   5.915  0.3575  0.4356 -0.7185
  980MOL0     C32206  10.144   5.078   5.820 -0.1246  0.0713  0.4343
  980MOL0     C32207  10.220   5.128   5.687 -0.2259  0.6772 -0.0971
  980MOL0     C32208  10.138   5.223   5.606  0.3168 -1.0574  0.2250
  980MOL0    Cl32209   9.989   5.132   5.558  0.0283 -0.1834  0.6464
  980MOL0     C32210   9.794   5.571   6.492 -0.3723 -0.1359  0.2141
  980MOL0     C32211   9.708   5.646   6.572 -0.3164 -0.0408  0.3451
  980MOL0     O32212   9.406   5.522   6.748  0.6621 -0.1269  0.3740
  980MOL0     C32213   9.170   5.635   6.819  0.3603 -0.0178 -0.1949
  980MOL0     C32214   9.037   5.665   6.824  0.7890 -0.9304 -0.5607
  980MOL0     N32215   8.552   6.060   6.373 -0.5646  0.3852  0.0006
  980MOL0     N32216   8.460   6.118   6.436  0.3456  0.2582  0.5422
  980MOL0     C32217   7.384   6.702   6.106  0.6905 -0.6199 -0.3326
  980MOL0     C32218   7.262   6.640   6.090 -0.2551  0.2103 -0.2556
  980MOL0     C32219   6.872   6.396   6.229 -0.0897 -0.2579  0.0539
  980MOL0     C32220   6.812   6.282   6.289 -0.3148 -0.1612 -0.5550
  980MOL0     C32221   6.679   6.253   6.277 -1.0055  0.0905  0.1904
  980MOL0     C32222   6.598   6.334   6.199  0.0997  0.1741  0.7500
  980MOL0     O32223   6.474   6.296   6.169  0.3718  0.4803 -0.4288
  980MOL0     C32224   6.413   6.173   6.214 -0.3173 -0.3623 -0.0419
  980MOL0     C32225   6.363   6.186   6.358 -0.0758 -0.1167 -1.0271
  980MOL0     C32226   6.226   6.121   6.380 -0.8042 -0.0068  0.0467
  980MOL0     C32227   6.186   6.119   6.526 -0.1578 -0.1134  0.3145
  980MOL0     C32228   6.106   6.008   6.571  0.5333 -0.6436  0.0673
  980MOL0     C32229   6.031   5.920   6.607  0.4502  0.6192 -0.4506
  980MOL0     C32230   6.661   6.430   6.127  0.2225 -0.8529 -0.6701
  980MOL0     C32231   6.793   6.467   6.138  0.3586  0.2734  0.3183
  980MOL0     C32232   6.834   6.595   6.073  0.2804 -0.1691 -0.4683
  980MOL0     H32233   7.286   6.408   6.336 -1.3831 -0.3156 -1.8856
  980MOL0     H32234   7.498   6.528   6.372 -0.0517 -0.4810  0.0005
  980MOL0     H32235   7.818   6.651   6.222  0.3254 -0.7047 -1.2394
  980MOL0     H32236   7.718   6.615   6.351  0.1486 -0.8689  0.5840
  980MOL0     H32237   7.672   6.478   6.079  0.8304  1.3679 -0.3957
  980MOL0     H32238   7.643   6.418   6.247 -2.0960  1.3425  1.6866
  980MOL0     H32239   7.881   6.432   6.284 -0.7352 -0.5296  0.7450
  980MOL0     H32240   7.927   6.479   6.122 -0.7055  0.0872 -1.1026
  980MOL0     H32241   7.792   6.210   6.200 -1.0760  0.3069 -0.1302
  980MOL0     H32242   7.851   6.265   6.036  1.3198  1.2327  0.6509
  980MOL0     H32243   7.982   6.097   6.121  2.2166  0.5640 -1.1196
  980MOL0     H32244   8.072   6.267   6.118  2.8484  1.2438  4.2967
  980MOL0     H32245   8.031   6.277   6.348 -3.8809  0.5013 -1.1496
  980MOL0     H32246   7.961   6.113   6.355  3.0491 -2.8378  1.1410
  980MOL0     H32247   8.243   6.170   6.253 -0.4549  1.6290  2.1656
  980MOL0     H32248   8.165   6.012   6.267 -0.0272  0.1671 -1.2950
  980MOL0     H32249   8.223   6.197   6.513  2.2513  0.4523  0.1339
  980MOL0     H32250   8.145   6.035   6.513 -0.5635 -1.3534 -0.7440
  980MOL0     H32251   8.317   5.838   6.384  1.7606 -1.1042  4.4756
  980MOL0     H32252   8.554   5.746   6.238  0.8126  0.3160 -0.1592
  980MOL0     H32253   8.676   5.854   6.247  0.1419 -1.6318  0.7529
  980MOL0     H32254   8.577   5.683   6.487  1.4551 -0.6394  1.6153
  980MOL0     H32255   8.719   5.657   6.388  3.0192  0.7755  3.0300
  980MOL0     H32256   8.718   5.909   6.543 -2.4894  0.0679 -1.9009
  980MOL0     H32257   8.849   5.811   6.465  1.9258 -0.5068  1.8844
  980MOL0     H32258   8.803   5.633   6.642  3.4086  0.9837  0.9509
  980MOL0     H32259   8.668   5.732   6.702  0.1936 -5.4271  0.9836
  980MOL0     H32260   9.045   5.903   6.575  2.4215  0.7870 -0.4411
  980MOL0     H32261   9.277   5.834   6.571  1.0797 -0.0177  0.2819
  980MOL0     H32262   9.427   5.470   6.482  0.6967 -1.7494 -2.6539
  980MOL0     H32263   9.579   5.322   6.399 -1.4937 -0.0269  0.2369
  980MOL0     H32264   9.800   5.198   6.423  1.3038  0.6705  0.4906
  980MOL0     H32265   9.736   5.229   6.258  0.6844 -0.1440 -0.0892
  980MOL0     H32266  10.034   5.214   6.334  0.6804 -0.9626 -1.2302
  980MOL0     H32267   9.947   5.072   6.278 -1.5877 -0.3775  0.6558
  980MOL0     H32268   9.881   5.248   6.073  0.6660 -1.6694 -0.6876
  980MOL0     H32269  10.020   5.333   6.143  0.1476  0.9891 -1.0613
  980MOL0     H32270   9.985   5.048   6.034 -2.6766  3.1732 -0.3702
  980MOL0     H32271  10.135   5.083   6.110 -1.2612 -2.0260  0.7849
  980MOL0     H32272  10.180   5.269   5.936 -0.1051  0.4621  0.9514
  980MOL0     H32273  10.022   5.236   5.858  1.3284 -1.5189 -3.8611
  980MOL0     H32274  10.205   5.003   5.871  0.3328 -1.4715 -2.1519
  980MOL0     H32275  10.054   5.021   5.800 -2.1469  2.4882  2.0751
  980MOL0     H32276  10.237   5.028   5.645 -0.3123 -0.5425  2.5105
  980MOL0     H32277  10.315   5.172   5.716  0.5264 -1.7418  1.4351
  980MOL0     H32278  10.103   5.307   5.667 -1.9716 -1.8112  0.0517
  980MOL0     H32279  10.192   5.257   5.517 -1.4522 -1.8621 -1.2406
  980MOL0     H32280   9.893   5.611   6.474 -1.7546  2.2378 -3.4160
  980MOL0     H32281   9.744   5.730   6.630 -3.3088 -0.2667  2.7129
  980MOL0     H32282   9.197   5.557   6.890 -1.6297 -0.2368  0.3845
  980MOL0     H32283   8.975   5.611   6.894  0.7755 -3.7236 -2.5592
  980MOL0     H32284   7.419   6.774   6.033 -1.3680 -0.8589 -1.6212
  980MOL0     H32285   7.203   6.676   6.007  2.7130 -1.3873 -3.3266
  980MOL0     H32286   6.864   6.220   6.362 -2.5412  0.8771  2.0906
  980MOL0     H32287   6.636   6.166   6.326  1.1708  0.3936  2.8813
  980MOL0     H32288   6.487   6.093   6.200 -0.0951 -0.4079  1.2591
  980MOL0     H32289   6.327   6.162   6.148 -1.1367 -1.3949  1.1500
  980MOL0     H32290   6.359   6.291   6.389  0.1558 -0.6809  1.0655
  980MOL0     H32291   6.439   6.143   6.424  0.0196 -1.7718 -2.1557
  980MOL0     H32292   6.240   6.021   6.337  1.3771  0.8310 -1.3740
  980MOL0     H32293   6.147   6.169   6.322  0.0513  0.5572 -0.6833
  980MOL0     H32294   6.280   6.116   6.583 -0.9324 -1.6912  1.5815
  980MOL0     H32295   6.140   6.218   6.538  1.8575  0.9017  0.2644
  980MOL0     H32296   5.975   5.834   6.640  2.2106  0.5171  2.6932
  980MOL0     H32297   6.589   6.472   6.057  1.5366  0.0942 -1.4854
  980MOL0     H32298   6.921   6.569   6.012  1.0118  0.1986  0.4010
  980MOL0     H32299   6.755   6.627   6.004 -1.9048 -0.9194  1.5623
  980MOL0     H32300   6.845   6.677   6.144 -2.3483 -0.9626  1.0039
  981MOL0     O32301   5.869   0.675   8.974 -0.2818 -0.1409 -0.0404
  981MOL0     C32302   5.881   0.576   8.906  0.4743 -0.1520  0.6497
  981MOL0     O32303   5.994   0.524   8.858 -0.8279 -0.3894 -0.0146
  981MOL0     C32304   6.113   0.583   8.889 -0.1070  0.1228 -0.2441
  981MOL0     C32305   6.148   0.713   8.863 -0.5165  0.6381  0.3019
  981MOL0     C32306   6.271   0.762   8.894 -0.2423 -0.3136  0.3615
  981MOL0     C32307   6.378   0.690   8.934  0.1345  0.8914  1.2500
  981MOL0     O32308   6.500   0.743   8.949  0.4092 -0.0404  0.0929
  981MOL0     C32309   6.595   0.659   8.882 -0.3311 -0.2624  0.8028
  981MOL0     C32310   6.724   0.729   8.848 -0.7807 -0.0103  0.2586
  981MOL0     C32311   6.812   0.770   8.967  0.3993  0.5510  0.0367
  981MOL0     C32312   6.928   0.843   8.915 -0.8002  0.3204 -0.3672
  981MOL0     C32313   7.053   0.866   9.007  0.4113 -0.3605 -0.2110
  981MOL0     C32314   7.019   0.957   9.119 -0.7184 -0.2205 -0.0628
  981MOL0     C32315   7.136   0.965   9.217 -0.1679 -0.4531  0.0667
  981MOL0     C32316   7.163   1.084   9.309 -0.2342  0.4835  1.1883
  981MOL0     N32317   7.227   1.198   9.247  0.2703 -0.7287 -0.1799
  981MOL0     C32318   7.354   1.188   9.192 -0.6148  0.2407 -0.5928
  981MOL0     C32319   7.381   1.313   9.153  0.7979 -0.4670  0.3389
  981MOL0     C32320   7.507   1.367   9.084  0.3900 -0.1683 -0.1549
  981MOL0     C32321   7.611   1.395   9.194 -0.5969 -0.1901 -0.2124
  981MOL0     C32322   7.726   1.480   9.132 -0.2322 -0.1782  0.4137
  981MOL0     C32323   7.821   1.553   9.227  0.0041  0.4923  0.1168
  981MOL0     O32324   7.944   1.579   9.153  0.8614 -0.2930 -0.1392
  981MOL0     C32325   8.043   1.644   9.219  0.5537  0.0080  0.3888
  981MOL0     C32326   8.170   1.653   9.166  0.7787 -0.5576 -0.5254
  981MOL0     C32327   8.287   1.691   9.234 -0.3937  0.6771 -0.1832
  981MOL0     C32328   8.280   1.730   9.368 -0.3991 -0.0256 -0.2488
  981MOL0     C32329   8.406   1.790   9.431  0.6310 -0.5566  0.1759
  981MOL0     O32330   8.520   1.786   9.359 -0.1141  0.5879  0.9071
  981MOL0     C32331   8.639   1.826   9.408  0.4201  0.6693 -1.0392
  981MOL0     C32332   8.719   1.905   9.332  0.5141 -0.6180 -0.1441
  981MOL0     C32333   8.840   1.953   9.381 -0.6707 -0.4436 -0.8721
  981MOL0     C32334   8.882   1.916   9.510 -0.1033 -0.0171  0.3947
  981MOL0     O32335   9.010   1.969   9.550  0.3939  0.4994  0.0512
  981MOL0     C32336   9.015   2.023   9.680  0.4586  0.6101  0.5270
  981MOL0     C32337   9.166   2.028   9.718 -1.2572 -0.7013  0.4422
  981MOL0     C32338   9.253   1.904   9.708  0.4214  0.7782 -1.0826
  981MOL0     C32339   9.403   1.922   9.754  0.6967 -0.2742  0.8440
  981MOL0     C32340   9.490   1.796   9.748 -0.4314 -0.2926  0.0028
  981MOL0     C32341   9.635   1.848   9.756 -0.5916  0.2504  0.3016
  981MOL0     C32342   9.748   1.741   9.743 -0.5841  0.4755 -0.1900
  981MOL0     C32343   9.744   1.660   9.615 -0.2289 -0.1556 -0.2317
  981MOL0    Cl32344   9.860   1.522   9.625  0.0761 -0.4568 -0.1496
  981MOL0     C32345   8.799   1.829   9.583  0.1400 -0.0921  1.0530
  981MOL0     C32346   8.679   1.779   9.532 -1.2180  0.0744 -0.0417
  981MOL0     O32347   8.394   1.839   9.544  0.0209  0.3248  0.3631
  981MOL0     C32348   8.147   1.740   9.419  0.3599  0.3291 -0.3419
  981MOL0     C32349   8.036   1.695   9.349  0.3116 -0.1163 -0.0296
  981MOL0     N32350   7.276   1.400   9.175 -0.2540 -0.0451 -0.0140
  981MOL0     N32351   7.184   1.330   9.236 -0.0198  0.6771 -0.0100
  981MOL0     C32352   6.345   0.557   8.960 -0.0845  0.6644 -0.1524
  981MOL0     C32353   6.214   0.498   8.937 -0.2142  0.1496 -0.0251
  981MOL0     C32354   5.750   0.510   8.863  0.0693 -0.6269  0.4308
  981MOL0     C32355   5.627   0.574   8.893  0.5933  0.7811  0.1409
  981MOL0     C32356   5.501   0.528   8.847 -0.0477 -0.1088 -0.4491
  981MOL0     C32357   5.495   0.417   8.756  0.8042  0.1817 -0.2241
  981MOL0     O32358   5.368   0.380   8.711 -0.4436  0.1632 -0.2841
  981MOL0     C32359   5.332   0.237   8.705  0.7189 -1.7313 -0.8616
  981MOL0     C32360   5.218   0.231   8.611 -0.5609  0.1611  0.0155
  981MOL0     C32361   5.085   0.286   8.665 -0.7609  0.4267 -0.3315
  981MOL0     C32362   4.988   0.317   8.551 -0.7529  0.0833  0.0728
  981MOL0     C32363   4.976   0.204   8.459  0.3120  0.0578 -0.0835
  981MOL0     C32364   4.972   0.125   8.362 -0.1494 -0.4606 -0.5754
  981MOL0     C32365   5.611   0.347   8.735  0.0580 -0.5149 -0.2000
  981MOL0     C32366   5.737   0.388   8.786  0.0202 -0.5393  0.3149
  981MOL0     C32367   5.857   0.314   8.741  0.0438 -0.2982 -0.2576
  981MOL0     H32368   6.066   0.778   8.833 -1.8092 -1.0298  0.1272
  981MOL0     H32369   6.286   0.868   8.874 -1.0187 -0.6679 -2.5874
  981MOL0     H32370   6.617   0.570   8.942 -0.6830  0.8165  2.5729
  981MOL0     H32371   6.554   0.623   8.787 -0.1899 -0.2598  0.7406
  981MOL0     H32372   6.702   0.820   8.791 -0.9918 -0.4734 -0.4068
  981MOL0     H32373   6.771   0.655   8.783 -1.9770  0.0537 -0.7084
  981MOL0     H32374   6.843   0.678   9.018  3.1605  0.5529 -1.4621
  981MOL0     H32375   6.753   0.842   9.024 -2.2976 -0.7143 -1.0016
  981MOL0     H32376   6.964   0.786   8.829 -3.2437 -1.6607 -0.2019
  981MOL0     H32377   6.875   0.929   8.873 -0.4375  0.3316 -0.8065
  981MOL0     H32378   7.104   0.772   9.028 -0.8398 -0.8231  0.9429
  981MOL0     H32379   7.132   0.915   8.950  1.2381 -0.0618  1.1369
  981MOL0     H32380   7.006   1.059   9.080  1.1265  0.3429  0.6682
  981MOL0     H32381   6.928   0.929   9.173 -2.4791  2.6565 -1.2775
  981MOL0     H32382   7.225   0.940   9.159  1.1750  0.6429  1.5488
  981MOL0     H32383   7.123   0.875   9.278 -3.9207 -0.7753 -0.9757
  981MOL0     H32384   7.071   1.127   9.351 -0.2718 -1.0755  2.8383
  981MOL0     H32385   7.223   1.042   9.390  0.3815  2.0106  1.5711
  981MOL0     H32386   7.421   1.104   9.185  0.0280  0.6811  0.0762
  981MOL0     H32387   7.545   1.304   9.003  0.4198 -0.7027  0.2617
  981MOL0     H32388   7.477   1.463   9.041 -1.6305 -0.8748 -0.4728
  981MOL0     H32389   7.578   1.462   9.274  1.5163  1.2758 -0.4836
  981MOL0     H32390   7.645   1.295   9.220 -2.3498 -0.9008 -0.4733
  981MOL0     H32391   7.689   1.559   9.067 -0.4687  1.7640  2.7666
  981MOL0     H32392   7.777   1.403   9.073 -0.9725  1.1882 -2.1625
  981MOL0     H32393   7.842   1.495   9.317 -1.9185 -1.2408 -0.4809
  981MOL0     H32394   7.776   1.649   9.255  0.6824  1.1132 -0.8493
  981MOL0     H32395   8.190   1.631   9.062  4.2107  2.7129 -0.7591
  981MOL0     H32396   8.376   1.679   9.173 -1.1571 -0.0978 -1.1825
  981MOL0     H32397   8.699   1.931   9.229  1.3965  0.5956 -0.0325
  981MOL0     H32398   8.896   2.031   9.330  1.6184  1.5807  4.0913
  981MOL0     H32399   8.970   2.123   9.684 -0.5921  0.3573 -2.5013
  981MOL0     H32400   8.971   1.948   9.747  2.1600 -1.9821 -1.0901
  981MOL0     H32401   9.211   2.107   9.656  0.3167 -1.3985  0.6599
  981MOL0     H32402   9.173   2.082   9.813 -1.3929 -1.7717  1.0719
  981MOL0     H32403   9.211   1.834   9.781  1.4369  3.2029  2.0503
  981MOL0     H32404   9.242   1.865   9.607  2.3524  0.9803 -1.4171
  981MOL0     H32405   9.390   1.949   9.859 -1.1617 -0.3180  0.6696
  981MOL0     H32406   9.454   2.005   9.704  1.6009 -0.4747  1.4221
  981MOL0     H32407   9.463   1.735   9.661 -0.8448 -0.8367  0.5053
  981MOL0     H32408   9.472   1.734   9.836 -2.4259 -0.2466 -0.3457
  981MOL0     H32409   9.659   1.928   9.685 -2.1780 -0.5799 -1.2467
  981MOL0     H32410   9.651   1.907   9.847  0.3779  2.4385 -1.1794
  981MOL0     H32411   9.747   1.664   9.821 -0.3623  0.2025 -0.4566
  981MOL0     H32412   9.852   1.775   9.748 -0.4867  0.2974 -0.8819
  981MOL0     H32413   9.645   1.621   9.591 -0.1118  0.6666 -2.2376
  981MOL0     H32414   9.768   1.728   9.533 -1.3103  1.9842  1.1215
  981MOL0     H32415   8.836   1.806   9.683  0.8249  1.9323  1.3114
  981MOL0     H32416   8.629   1.704   9.595 -1.7230 -0.9038 -1.5481
  981MOL0     H32417   8.139   1.779   9.520 -1.8109  0.1615 -0.3920
  981MOL0     H32418   7.939   1.690   9.397  0.6461  3.2842  1.2770
  981MOL0     H32419   6.423   0.493   8.999 -0.0965 -0.3113 -1.6581
  981MOL0     H32420   6.194   0.398   8.972 -1.5926  0.7193  0.9393
  981MOL0     H32421   5.628   0.670   8.944  1.5234 -0.2832  2.2740
  981MOL0     H32422   5.409   0.577   8.877 -0.0885 -0.9169  0.8153
  981MOL0     H32423   5.313   0.197   8.805  4.4873 -0.5290  0.5283
  981MOL0     H32424   5.411   0.176   8.660  1.0618 -1.6549 -0.3758
  981MOL0     H32425   5.206   0.126   8.581  0.2518  0.4688 -1.5230
  981MOL0     H32426   5.234   0.281   8.515 -1.2451 -0.7889 -0.6204
  981MOL0     H32427   5.107   0.376   8.724  2.2717 -0.3557 -0.1059
  981MOL0     H32428   5.041   0.219   8.739  2.5051 -3.1102 -1.2568
  981MOL0     H32429   4.895   0.338   8.605 -0.4275 -2.3829  1.7716
  981MOL0     H32430   5.016   0.409   8.499  0.9202 -1.3345 -1.6879
  981MOL0     H32431   4.972   0.048   8.288 -0.6254 -0.2707 -0.7801
  981MOL0     H32432   5.617   0.263   8.667 -0.7149 -0.9465  0.2640
  981MOL0     H32433   5.927   0.299   8.824 -3.0946  0.9378  2.8440
  981MOL0     H32434   5.828   0.214   8.708  1.1166 -1.1026  1.0944
  981MOL0     H32435   5.907   0.376   8.666  1.0448 -2.9086 -1.9190
  982MOL0     O32436   5.384   4.359   3.588  0.2795  0.1080 -0.1132
  982MOL0     C32437   5.371   4.277   3.500  0.7441  0.1266  1.0449
  982MOL0     O32438   5.457   4.245   3.403  0.2837  0.7049 -0.4639
  982MOL0     C32439   5.582   4.309   3.387  0.0600 -0.8425  0.2691
  982MOL0     C32440   5.699   4.234   3.405 -0.3927 -0.1532  0.1885
  982MOL0     C32441   5.820   4.299   3.413 -0.3818  0.2618  0.8698
  982MOL0     C32442   5.830   4.441   3.398 -0.0016 -0.3955  0.3282
  982MOL0     O32443   5.950   4.514   3.413 -0.0551  0.1367  0.2338
  982MOL0     C32444   6.077   4.443   3.434  0.2502  0.0072 -0.7211
  982MOL0     C32445   6.202   4.538   3.428  0.4544  0.4545  0.3152
  982MOL0     C32446   6.330   4.460   3.469 -0.2318 -1.2108  0.5114
  982MOL0     C32447   6.451   4.542   3.434  0.0718  0.9281  0.3647
  982MOL0     C32448   6.580   4.465   3.480 -1.9240 -0.5591  0.1907
  982MOL0     C32449   6.697   4.570   3.466  0.0822  0.8601  0.8176
  982MOL0     C32450   6.838   4.500   3.473 -0.3271  0.3826 -0.0361
  982MOL0     C32451   6.952   4.594   3.449 -0.5644  0.0134  0.4300
  982MOL0     N32452   7.083   4.528   3.478  0.1549 -0.1017 -0.0881
  982MOL0     C32453   7.195   4.517   3.401 -0.0404 -0.6225 -0.2826
  982MOL0     C32454   7.289   4.449   3.474  0.1491 -0.4122 -0.1656
  982MOL0     C32455   7.422   4.412   3.437  0.7489  0.6142 -0.0266
  982MOL0     C32456   7.426   4.266   3.472  0.1701  0.2060 -0.5877
  982MOL0     C32457   7.545   4.188   3.423  0.6553 -0.2261 -0.2012
  982MOL0     C32458   7.675   4.266   3.429 -0.0624  0.0857 -0.2120
  982MOL0     O32459   7.785   4.179   3.394 -0.9421 -0.3995  0.2111
  982MOL0     C32460   7.911   4.241   3.368  0.2832 -0.1940  0.8869
  982MOL0     C32461   7.949   4.369   3.399  0.2157 -0.6460  0.1601
  982MOL0     C32462   8.073   4.427   3.368  0.2592  0.4987 -0.0812
  982MOL0     C32463   8.158   4.343   3.288 -1.5199 -0.4173  0.3347
  982MOL0     C32464   8.291   4.397   3.241 -0.8485 -0.1138  1.3289
  982MOL0     O32465   8.311   4.533   3.241 -0.0829 -0.6758 -0.6128
  982MOL0     C32466   8.435   4.583   3.207  0.7067 -0.0518 -0.7577
  982MOL0     C32467   8.470   4.560   3.076 -0.0761  0.0134 -0.1588
  982MOL0     C32468   8.592   4.598   3.022 -0.2417  0.4733  0.2840
  982MOL0     C32469   8.681   4.668   3.112  0.6350  0.2937  1.4549
  982MOL0     O32470   8.799   4.701   3.040  0.0481  0.1104 -0.1600
  982MOL0     C32471   8.918   4.722   3.124  0.7053 -0.5248  0.3347
  982MOL0     C32472   9.038   4.756   3.034 -0.0706  0.3451 -0.1889
  982MOL0     C32473   9.163   4.781   3.120  0.4145 -1.2587 -1.1502
  982MOL0     C32474   9.282   4.798   3.032 -0.5440  0.5241  0.5648
  982MOL0     C32475   9.411   4.871   3.088  0.6081 -0.2110 -0.3070
  982MOL0     C32476   9.511   4.782   3.161 -0.2523  0.3527 -0.1000
  982MOL0     C32477   9.647   4.848   3.195 -0.2715 -0.4894 -0.3420
  982MOL0     C32478   9.745   4.737   3.262  0.2929 -0.2035 -0.0363
  982MOL0    Cl32479   9.819   4.631   3.150 -0.1434 -0.1457  0.4384
  982MOL0     C32480   8.642   4.699   3.236  0.1904 -0.1241  0.4417
  982MOL0     C32481   8.519   4.664   3.287  0.8849  0.2487  0.1046
  982MOL0     O32482   8.376   4.312   3.200  0.2570  0.1709 -0.4917
  982MOL0     C32483   8.123   4.208   3.255  0.0382 -0.7632 -0.3805
  982MOL0     C32484   7.999   4.159   3.301 -1.1245  0.3036 -0.3137
  982MOL0     N32485   7.235   4.424   3.600 -0.1688 -0.1044  0.3736
  982MOL0     N32486   7.114   4.474   3.604  0.5980 -0.6707 -0.2409
  982MOL0     C32487   5.707   4.513   3.385 -0.0855  0.4337  0.2333
  982MOL0     C32488   5.589   4.445   3.368 -0.0682  0.4162  0.8319
  982MOL0     C32489   5.242   4.196   3.487  0.4392  0.1367  0.0334
  982MOL0     C32490   5.236   4.085   3.407 -0.6648  0.0757 -0.0853
  982MOL0     C32491   5.127   4.009   3.388  0.3664 -0.1439 -0.1026
  982MOL0     C32492   5.012   4.057   3.456  0.2046  0.1886  0.0978
  982MOL0     O32493   4.888   4.000   3.443  0.2243 -0.1205 -0.8261
  982MOL0     C32494   4.865   3.909   3.339  0.3639 -0.7167 -0.0740
  982MOL0     C32495   4.829   3.987   3.212 -1.4071 -0.3937  0.1304
  982MOL0     C32496   4.722   4.089   3.236 -0.0561 -0.0232 -0.1972
  982MOL0     C32497   4.661   4.135   3.102  0.2608 -0.5616  0.3664
  982MOL0     C32498   4.755   4.188   3.004  0.0440  0.3826  0.7876
  982MOL0     C32499   4.820   4.229   2.914  0.1979 -0.1960 -0.7406
  982MOL0     C32500   5.007   4.171   3.527  0.0375 -0.1971 -0.1305
  982MOL0     C32501   5.123   4.238   3.551  0.0635 -0.9923 -0.1289
  982MOL0     C32502   5.112   4.361   3.640 -0.1250 -0.4497 -0.8320
  982MOL0     H32503   5.693   4.127   3.389  0.5084 -0.1298 -0.4337
  982MOL0     H32504   5.918   4.254   3.418  0.2245  1.1535 -1.4490
  982MOL0     H32505   6.088   4.399   3.534  1.2749  0.0664 -0.7934
  982MOL0     H32506   6.088   4.359   3.365 -3.0513 -1.9555  0.9024
  982MOL0     H32507   6.187   4.622   3.497  0.9285 -0.6677  1.8366
  982MOL0     H32508   6.205   4.571   3.324  0.7150  2.1244  0.8232
  982MOL0     H32509   6.347   4.369   3.412  2.5553  0.0816 -0.9481
  982MOL0     H32510   6.329   4.443   3.577 -3.6987  0.0548  0.8183
  982MOL0     H32511   6.458   4.555   3.326  0.7945  0.9680  0.4076
  982MOL0     H32512   6.437   4.643   3.474  0.4529  1.5883 -1.0958
  982MOL0     H32513   6.565   4.449   3.587 -0.9212  3.1054  1.0353
  982MOL0     H32514   6.613   4.373   3.431  1.9288  0.4617  0.5696
  982MOL0     H32515   6.684   4.623   3.371  0.3576 -0.3635  0.0591
  982MOL0     H32516   6.676   4.647   3.540 -1.8992  1.8937 -0.7299
  982MOL0     H32517   6.845   4.419   3.400  0.0215  1.1524 -0.8816
  982MOL0     H32518   6.848   4.449   3.569  2.9048 -1.9531 -1.4443
  982MOL0     H32519   6.961   4.627   3.345  4.1069 -0.7230  0.3576
  982MOL0     H32520   6.937   4.685   3.507 -0.4144 -0.7992  1.7931
  982MOL0     H32521   7.216   4.538   3.297  0.1425 -3.3229 -0.8539
  982MOL0     H32522   7.430   4.433   3.330  1.8844  1.9719  0.2993
  982MOL0     H32523   7.508   4.471   3.468  0.4780  0.4443  1.1053
  982MOL0     H32524   7.431   4.243   3.579 -0.0401 -4.3886 -1.3455
  982MOL0     H32525   7.335   4.211   3.447 -0.0837 -0.7109  2.0080
  982MOL0     H32526   7.515   4.153   3.323  0.8503 -0.3135 -0.2291
  982MOL0     H32527   7.565   4.095   3.476 -0.2900 -2.2039 -3.0579
  982MOL0     H32528   7.691   4.296   3.533  0.3421 -0.5276 -0.0927
  982MOL0     H32529   7.678   4.356   3.366  0.9065  0.9428  0.9998
  982MOL0     H32530   7.884   4.426   3.466  1.6254 -1.0642  1.9718
  982MOL0     H32531   8.095   4.525   3.411  4.1701  0.4619 -1.5773
  982MOL0     H32532   8.401   4.507   3.011 -1.0331  0.9216  0.0932
  982MOL0     H32533   8.626   4.583   2.921  4.4733 -1.8846  1.9159
  982MOL0     H32534   8.886   4.807   3.185 -0.8976 -2.0382  1.6997
  982MOL0     H32535   8.919   4.626   3.177 -3.5140 -0.6132  0.5290
  982MOL0     H32536   9.060   4.672   2.968  0.4415 -2.0534  2.7689
  982MOL0     H32537   9.022   4.842   2.970 -0.5448 -0.0735 -0.6345
  982MOL0     H32538   9.140   4.872   3.176  1.2850 -2.8704  2.1169
  982MOL0     H32539   9.184   4.703   3.194 -0.4055  1.9237  2.7901
  982MOL0     H32540   9.256   4.865   2.950 -0.0903 -0.0458 -0.0583
  982MOL0     H32541   9.295   4.698   2.988 -1.3976  1.0941 -1.0791
  982MOL0     H32542   9.389   4.952   3.158  1.5899 -0.2894  0.1073
  982MOL0     H32543   9.460   4.908   2.998 -2.6976  2.9810 -1.0607
  982MOL0     H32544   9.457   4.752   3.251  0.0722 -0.8679 -0.2933
  982MOL0     H32545   9.530   4.695   3.098 -1.0389  2.0411 -2.8621
  982MOL0     H32546   9.621   4.927   3.267 -0.0701 -3.5047  3.3145
  982MOL0     H32547   9.704   4.880   3.108  3.2220  0.4188  2.0715
  982MOL0     H32548   9.818   4.796   3.317  0.8213 -1.8487  1.1093
  982MOL0     H32549   9.687   4.684   3.337 -0.4867  0.5588 -0.0817
  982MOL0     H32550   8.709   4.753   3.303  0.6286 -1.7810  1.3945
  982MOL0     H32551   8.512   4.681   3.394  1.3786  0.4191  0.1092
  982MOL0     H32552   8.179   4.150   3.183 -0.0104 -2.3717  0.8157
  982MOL0     H32553   7.978   4.053   3.292  0.1107 -0.0670  0.8049
  982MOL0     H32554   5.719   4.621   3.386 -1.7126  0.6577  2.1843
  982MOL0     H32555   5.505   4.514   3.371 -1.5484 -1.3337  1.5619
  982MOL0     H32556   5.328   4.051   3.361  0.4356  1.1734  1.2255
  982MOL0     H32557   5.129   3.918   3.330  0.2567  0.5434 -1.2069
  982MOL0     H32558   4.776   3.854   3.372 -0.7267  0.0312 -1.6434
  982MOL0     H32559   4.955   3.851   3.316  1.6936  2.0025 -2.3048
  982MOL0     H32560   4.789   3.923   3.133 -2.2943 -0.1626  0.3805
  982MOL0     H32561   4.926   4.026   3.180 -0.8324  0.3038  2.5241
  982MOL0     H32562   4.762   4.178   3.285 -0.1413 -0.3396  0.4484
  982MOL0     H32563   4.650   4.048   3.306  1.1182 -0.1064  0.9941
  982MOL0     H32564   4.582   4.075   3.056 -0.2033  1.8072 -2.1863
  982MOL0     H32565   4.606   4.225   3.133  0.2691 -1.0651  1.9818
  982MOL0     H32566   4.885   4.278   2.844  0.4367  1.1253  0.3489
  982MOL0     H32567   4.912   4.200   3.570 -1.2726 -0.5898 -2.5501
  982MOL0     H32568   5.010   4.386   3.671 -0.2616 -1.4577 -0.4126
  982MOL0     H32569   5.177   4.350   3.728  0.1953  1.2278 -0.8335
  982MOL0     H32570   5.148   4.452   3.591 -1.5072 -0.3804 -1.7511
  983MOL0     O32571   4.694  11.145   0.666 -0.2022  0.5908  0.1678
  983MOL0     C32572   4.677  11.212   0.766 -0.2128 -0.2599 -0.4648
  983MOL0     O32573   4.783  11.276   0.836  0.3842 -0.2193 -0.0063
  983MOL0     C32574   4.909  11.256   0.793  0.4132  0.2393  0.0934
  983MOL0     C32575   4.997  11.189   0.883  0.1690 -0.0291  1.0074
  983MOL0     C32576   5.131  11.161   0.859 -0.3673 -0.4585  0.1161
  983MOL0     C32577   5.180  11.200   0.728  0.2043  0.3771  0.1189
  983MOL0     O32578   5.303  11.174   0.683 -0.6093 -0.3973  0.1586
  983MOL0     C32579   5.400  11.108   0.761 -0.6255 -0.7131  0.3102
  983MOL0     C32580   5.532  11.087   0.693 -0.7134  0.1896 -1.0083
  983MOL0     C32581   5.521  10.981   0.576 -0.0249  0.5648  0.4804
  983MOL0     C32582   5.668  10.975   0.498  0.0072  0.2057 -0.9840
  983MOL0     C32583   5.669  10.859   0.404  0.6340 -0.2062 -0.7999
  983MOL0     C32584   5.785  10.846   0.310 -0.1890 -0.5898 -0.3008
  983MOL0     C32585   5.760  10.739   0.213  0.3913  0.5388 -0.4043
  983MOL0     C32586   5.856  10.705   0.095 -0.2163 -0.4200 -0.6634
  983MOL0     N32587   5.982  10.669   0.162 -0.0178  0.2304  0.4746
  983MOL0     C32588   6.005  10.557   0.238 -0.3351 -0.7193  0.2000
  983MOL0     C32589   6.143  10.563   0.251  0.0666 -0.2357  0.2554
  983MOL0     C32590   6.231  10.447   0.305  0.9126  0.0133 -0.0982
  983MOL0     C32591   6.210  10.454   0.456  0.2664  0.1600  0.4104
  983MOL0     C32592   6.249  10.329   0.531 -0.7116 -0.7476  0.3884
  983MOL0     C32593   6.397  10.306   0.537  0.0752 -0.5626 -0.1793
  983MOL0     O32594   6.405  10.179   0.602  0.4788 -0.3654 -0.7766
  983MOL0     C32595   6.526  10.134   0.645  0.4586  0.5138 -0.4087
  983MOL0     C32596   6.601  10.220   0.722  0.2767  0.0435 -0.4289
  983MOL0     C32597   6.723  10.175   0.773  1.1035 -0.2302  0.3844
  983MOL0     C32598   6.772  10.049   0.740 -0.4185  0.4202  0.7529
  983MOL0     C32599   6.911  10.014   0.777  0.0614 -0.7102 -0.4635
  983MOL0     O32600   6.960  10.088   0.880  0.1371  0.4744 -0.3245
  983MOL0     C32601   7.094  10.100   0.886 -0.1473 -0.3860  0.0688
  983MOL0     C32602   7.147  10.228   0.909 -0.1892 -0.0985 -0.2100
  983MOL0     C32603   7.287  10.249   0.925  0.9709  0.0483  1.0656
  983MOL0     C32604   7.375  10.139   0.910  0.7484  0.5089  0.2667
  983MOL0     O32605   7.507  10.172   0.905 -0.3946 -0.3806  0.2208
  983MOL0     C32606   7.590  10.102   1.002 -0.1236 -0.7927  0.0449
  983MOL0     C32607   7.669  10.206   1.076  0.6202  0.9577 -0.8459
  983MOL0     C32608   7.782  10.278   1.002 -0.9020  0.1207 -0.2827
  983MOL0     C32609   7.854  10.387   1.088  0.5091 -0.1681 -0.0713
  983MOL0     C32610   8.000  10.400   1.032  0.2407  0.0194 -0.0413
  983MOL0     C32611   8.080  10.498   1.110 -0.0680  0.1031  0.2718
  983MOL0     C32612   8.231  10.509   1.053  0.0965 -0.6817 -0.6284
  983MOL0     C32613   8.337  10.544   1.163 -0.2625  0.4980  0.4181
  983MOL0    Cl32614   8.373  10.419   1.287 -0.2674  0.1260 -0.1747
  983MOL0     C32615   7.316  10.006   0.900  0.5626  0.7110 -0.3628
  983MOL0     C32616   7.181   9.985   0.888 -0.3946  0.0148 -0.1938
  983MOL0     O32617   6.973   9.932   0.707  1.1333  0.5250  0.4565
  983MOL0     C32618   6.698   9.966   0.664  0.2398 -0.1589 -0.6717
  983MOL0     C32619   6.568  10.007   0.616  0.4749  0.7197  0.0204
  983MOL0     N32620   6.185  10.678   0.190 -0.6040 -0.4643  0.0086
  983MOL0     N32621   6.092  10.744   0.129 -0.0223  0.2475 -0.7488
  983MOL0     C32622   5.092  11.267   0.644  0.1121 -1.4336 -0.5521
  983MOL0     C32623   4.962  11.302   0.681  0.2466 -0.5515  0.8023
  983MOL0     C32624   4.542  11.235   0.820  0.4077  0.7448 -0.0937
  983MOL0     C32625   4.433  11.210   0.733 -1.0074  0.0000  0.4910
  983MOL0     C32626   4.310  11.241   0.761  0.2924  0.2758 -0.4133
  983MOL0     C32627   4.271  11.295   0.884 -0.2969  0.8323  0.0398
  983MOL0     O32628   4.136  11.302   0.917 -0.0385  0.5107 -0.0207
  983MOL0     C32629   4.084  11.359   1.038 -0.5593 -0.0244  0.5523
  983MOL0     C32630   3.935  11.356   1.040 -1.0191  0.3368  0.4111
  983MOL0     C32631   3.864  11.383   1.175 -0.7205 -0.8364 -0.3218
  983MOL0     C32632   3.894  11.271   1.281  0.2617  0.4691 -0.1399
  983MOL0     C32633   3.868  11.140   1.218  0.5895  0.6996 -0.3513
  983MOL0     C32634   3.842  11.031   1.169  0.6605  0.7429  0.1926
  983MOL0     C32635   4.373  11.315   0.978 -0.4368  0.0596  0.3638
  983MOL0     C32636   4.512  11.282   0.955  0.6149  0.5291  0.6011
  983MOL0     C32637   4.604  11.295   1.073 -0.0378  0.3416  0.7594
  983MOL0     H32638   4.966  11.154   0.982  4.1276 -2.0451  1.7455
  983MOL0     H32639   5.182  11.095   0.929  0.9443  1.4234  1.0391
  983MOL0     H32640   5.426  11.164   0.852  4.0623  0.1508 -1.2818
  983MOL0     H32641   5.372  11.011   0.802  0.7109 -1.2293  0.0458
  983MOL0     H32642   5.608  11.048   0.761  1.3582  0.4497 -3.0542
  983MOL0     H32643   5.574  11.179   0.651  3.8565 -1.7913 -1.3278
  983MOL0     H32644   5.438  11.017   0.515  0.1436  1.9181  1.0132
  983MOL0     H32645   5.488  10.879   0.599  3.2920 -0.3384  1.7226
  983MOL0     H32646   5.687  11.069   0.444 -2.2489 -0.3602 -2.9247
  983MOL0     H32647   5.743  10.962   0.576 -1.8968 -0.4244  0.8033
  983MOL0     H32648   5.663  10.766   0.461  4.0140  1.6804  3.1452
  983MOL0     H32649   5.579  10.879   0.345 -0.4663 -0.9192  0.5687
  983MOL0     H32650   5.783  10.936   0.248 -0.8065  0.0692  0.6545
  983MOL0     H32651   5.882  10.839   0.360 -0.5042  3.3238  1.2152
  983MOL0     H32652   5.664  10.769   0.171  0.4676  1.3008 -0.0449
  983MOL0     H32653   5.741  10.647   0.270  2.4155 -0.5204 -1.3321
  983MOL0     H32654   5.808  10.622   0.043  0.8533 -2.4675  1.4089
  983MOL0     H32655   5.878  10.787   0.026  1.0304 -1.1700 -1.1931
  983MOL0     H32656   5.943  10.472   0.263  1.2773 -3.1036 -3.0529
  983MOL0     H32657   6.181  10.355   0.273 -2.1142  1.6296 -0.4360
  983MOL0     H32658   6.334  10.442   0.269  1.8651  0.8379  2.3148
  983MOL0     H32659   6.256  10.540   0.506  0.8165 -0.8871  1.7679
  983MOL0     H32660   6.104  10.457   0.481  0.0412  0.3493 -0.5545
  983MOL0     H32661   6.190  10.252   0.482 -2.5863  1.6554 -1.4140
  983MOL0     H32662   6.210  10.324   0.633  3.2866  2.3475  2.4048
  983MOL0     H32663   6.457  10.385   0.583 -1.5430  2.6048 -3.0289
  983MOL0     H32664   6.442  10.296   0.438  1.6650  1.1273  0.3241
  983MOL0     H32665   6.566  10.321   0.741 -1.5691 -0.6118 -0.1417
  983MOL0     H32666   6.778  10.242   0.838 -2.2780  1.9488  1.3152
  983MOL0     H32667   7.088  10.319   0.903  0.2485  0.0993 -2.0104
  983MOL0     H32668   7.327  10.350   0.922 -0.5647  0.6677 -0.9382
  983MOL0     H32669   7.526  10.054   1.077  0.4416 -2.6055 -0.5737
  983MOL0     H32670   7.660  10.034   0.953  1.8920  1.2894 -0.1309
  983MOL0     H32671   7.602  10.282   1.117 -1.0762 -0.8692 -0.0398
  983MOL0     H32672   7.723  10.151   1.154 -1.7822  1.5543  1.3958
  983MOL0     H32673   7.852  10.198   0.977  0.3185  1.8049 -2.5768
  983MOL0     H32674   7.746  10.331   0.914  1.2738 -0.6661 -1.7311
  983MOL0     H32675   7.859  10.355   1.193 -0.4163  0.1362  0.0709
  983MOL0     H32676   7.795  10.479   1.087 -0.2475 -0.5758  1.8439
  983MOL0     H32677   8.016  10.441   0.932  0.5241 -0.0800 -0.0386
  983MOL0     H32678   8.060  10.309   1.045  1.5358  0.5157 -2.0271
  983MOL0     H32679   8.022  10.590   1.103 -1.1630 -0.5661  0.3236
  983MOL0     H32680   8.085  10.469   1.215 -1.4162 -2.0057 -0.1951
  983MOL0     H32681   8.232  10.587   0.976 -0.3562  0.8967  0.9052
  983MOL0     H32682   8.263  10.421   0.996 -1.9493 -0.9610 -1.4266
  983MOL0     H32683   8.433  10.576   1.122  0.4952 -0.5973  1.2864
  983MOL0     H32684   8.294  10.634   1.210 -1.9574  0.4851 -0.9963
  983MOL0     H32685   7.387   9.926   0.883  1.5088  0.8982  2.2312
  983MOL0     H32686   7.138   9.886   0.877  0.4977 -0.3908 -0.1065
  983MOL0     H32687   6.732   9.863   0.655  3.1964  0.2430  3.2175
  983MOL0     H32688   6.502   9.947   0.554 -0.9053  2.8955 -0.7426
  983MOL0     H32689   5.124  11.302   0.546 -0.4331 -2.1679 -1.0007
  983MOL0     H32690   4.901  11.356   0.609 -1.7532 -3.4680  0.1077
  983MOL0     H32691   4.453  11.159   0.639 -0.1926 -0.3324  0.8343
  983MOL0     H32692   4.240  11.211   0.684 -0.5009  0.7751  0.1038
  983MOL0     H32693   4.112  11.463   1.057  0.3443 -0.5337  2.2558
  983MOL0     H32694   4.119  11.308   1.128 -0.3755 -1.5057 -0.3242
  983MOL0     H32695   3.910  11.259   0.998 -1.7172  0.2161  1.0833
  983MOL0     H32696   3.906  11.437   0.972 -0.9905  0.7263  0.8491
  983MOL0     H32697   3.755  11.385   1.164 -0.4754 -0.7926 -3.8977
  983MOL0     H32698   3.903  11.475   1.218  0.0572  0.6689 -3.9158
  983MOL0     H32699   3.993  11.278   1.327 -0.1506  1.5217  0.6177
  983MOL0     H32700   3.818  11.276   1.359 -0.1448 -1.0122 -0.4117
  983MOL0     H32701   3.812  10.940   1.119 -2.6397  1.2068  1.0690
  983MOL0     H32702   4.344  11.356   1.074  1.1863 -0.5627  1.1457
  983MOL0     H32703   4.710  11.308   1.051 -0.0956 -0.8777 -0.3832
  983MOL0     H32704   4.580  11.374   1.145 -2.5152  0.0270  0.3768
  983MOL0     H32705   4.585  11.198   1.119  1.1542  0.9055  2.5216
  984MOL0     O32706   7.325   0.208   6.178  0.3956  0.0680 -0.1283
  984MOL0     C32707   7.334   0.307   6.100  0.4094  0.2842 -0.2371
  984MOL0     O32708   7.446   0.378   6.080  0.4403  0.1389  0.3540
  984MOL0     C32709   7.567   0.344   6.130  0.6477  0.0074 -0.2107
  984MOL0     C32710   7.598   0.228   6.204  0.5732 -0.0371  0.6031
  984MOL0     C32711   7.728   0.206   6.241 -0.1477  0.2999  1.0586
  984MOL0     C32712   7.836   0.300   6.201  0.1982  0.5954 -0.2069
  984MOL0     O32713   7.962   0.252   6.225  0.0244  0.5137  0.4299
  984MOL0     C32714   8.058   0.349   6.263 -0.3878 -0.7526  1.0719
  984MOL0     C32715   8.177   0.282   6.319 -0.6482 -0.0402 -0.4001
  984MOL0     C32716   8.254   0.225   6.198 -0.0796 -0.0930 -0.0151
  984MOL0     C32717   8.335   0.095   6.245 -0.7872 -0.6797 -0.1345
  984MOL0     C32718   8.405   0.045   6.122 -0.3121  0.4632  0.3974
  984MOL0     C32719   8.545  -0.027   6.140 -0.1649  0.6320  0.2891
  984MOL0     C32720   8.659   0.055   6.071  0.1405 -0.1755 -0.1133
  984MOL0     C32721   8.797  -0.010   6.101 -0.5671 -0.8312 -0.6463
  984MOL0     N32722   8.907   0.068   6.048  0.4109  0.7111  0.0296
  984MOL0     C32723   9.024  -0.005   6.006  0.3682 -0.3954  0.1598
  984MOL0     C32724   9.109   0.098   5.982 -0.2292  0.6349 -0.5946
  984MOL0     C32725   9.240   0.085   5.915 -0.2169 -0.8098 -0.4122
  984MOL0     C32726   9.272   0.208   5.840  0.0999  0.1684  0.1601
  984MOL0     C32727   9.390   0.180   5.746 -0.0487 -0.2934  0.3707
  984MOL0     C32728   9.524   0.169   5.824 -0.0137 -0.7462  0.0627
  984MOL0     O32729   9.551   0.039   5.881  0.6952  0.7457  0.1870
  984MOL0     C32730   9.659   0.022   5.963 -0.4155  0.6674 -0.3556
  984MOL0     C32731   9.776   0.096   5.955  0.0956 -0.1474 -0.3033
  984MOL0     C32732   9.884   0.069   6.043 -0.4875 -0.1973 -0.1805
  984MOL0     C32733   9.879  -0.027   6.143 -0.1504  0.2072  0.0004
  984MOL0     C32734   9.991  -0.043   6.233  0.6664 -0.0904 -0.5478
  984MOL0     O32735  10.098   0.035   6.227  0.3378  1.1470  0.1201
  984MOL0     C32736  10.188   0.035   6.340  0.3165  0.6321  0.9928
  984MOL0     C32737  10.149   0.077   6.463 -0.7071  1.0367 -0.6743
  984MOL0     C32738  10.246   0.103   6.559 -1.7038 -0.2830 -1.0198
  984MOL0     C32739  10.382   0.081   6.534 -0.6315  0.1831  0.5449
  984MOL0     O32740  10.490   0.090   6.619  0.6079 -0.0163 -0.0536
  984MOL0     C32741  10.473   0.094   6.759  0.7667 -0.3929 -0.4543
  984MOL0     C32742  10.599   0.137   6.821 -0.0670  0.4894  0.2934
  984MOL0     C32743  10.589   0.120   6.977 -0.8525  0.0556 -0.5252
  984MOL0     C32744  10.703   0.204   7.046 -0.6307 -0.0083 -0.3115
  984MOL0     C32745  10.667   0.224   7.189 -0.6437 -0.6533 -0.4705
  984MOL0     C32746  10.795   0.268   7.267  0.1688 -0.2385 -0.2540
  984MOL0     C32747  10.766   0.277   7.413 -0.2516 -0.3174  0.8951
  984MOL0     C32748  10.794   0.163   7.500 -0.0570  0.5281 -0.3670
  984MOL0    Cl32749  10.743   0.211   7.661  0.1616 -0.0627  0.1682
  984MOL0     C32750  10.418   0.017   6.413 -0.0364 -0.5048 -0.3655
  984MOL0     C32751  10.321   0.001   6.306  0.1391 -0.4180  0.0320
  984MOL0     O32752   9.974  -0.135   6.317 -0.7644 -0.7049 -0.0897
  984MOL0     C32753   9.763  -0.107   6.141  0.3203  0.8702 -0.5241
  984MOL0     C32754   9.655  -0.086   6.050 -0.4047 -0.1749  0.5504
  984MOL0     N32755   9.054   0.220   6.025  0.4355 -0.1915  0.3538
  984MOL0     N32756   8.929   0.200   6.068 -0.4406 -0.2551  0.3211
  984MOL0     C32757   7.798   0.417   6.129 -0.0133  0.2811 -0.3792
  984MOL0     C32758   7.667   0.439   6.098  1.3869  0.7381  0.2571
  984MOL0     C32759   7.206   0.352   6.029  0.2179  0.5162 -0.5539
  984MOL0     C32760   7.205   0.475   5.965 -0.9376  0.2133 -0.1747
  984MOL0     C32761   7.099   0.540   5.912  0.3251 -0.2009  0.2590
  984MOL0     C32762   6.980   0.467   5.906 -0.4801  0.7519  0.4090
  984MOL0     O32763   6.860   0.496   5.852 -0.0566  0.0447  0.7412
  984MOL0     C32764   6.823   0.624   5.793  0.2842  0.3925 -0.0560
  984MOL0     C32765   6.668   0.624   5.769 -0.1590 -0.3601 -0.2177
  984MOL0     C32766   6.577   0.587   5.887 -0.2031 -0.0124  0.6817
  984MOL0     C32767   6.591   0.442   5.944 -0.5958  0.2784  0.5981
  984MOL0     C32768   6.462   0.415   6.018  0.1197  0.2714 -0.5775
  984MOL0     C32769   6.370   0.388   6.095 -0.0581 -0.0931 -0.1429
  984MOL0     C32770   6.977   0.343   5.971  0.2139  0.5417 -0.1661
  984MOL0     C32771   7.081   0.287   6.034 -0.8388  1.1203  0.4482
  984MOL0     C32772   7.055   0.144   6.094 -0.5577  0.8021  0.2968
  984MOL0     H32773   7.537   0.140   6.222 -0.0622  0.7829  2.7040
  984MOL0     H32774   7.753   0.109   6.283 -0.8647 -0.0297  0.7581
  984MOL0     H32775   8.082   0.409   6.175 -1.4978 -0.1840  1.1417
  984MOL0     H32776   8.019   0.425   6.331  0.8334  0.2193  0.7251
  984MOL0     H32777   8.161   0.219   6.407 -2.9119 -2.6954 -2.5028
  984MOL0     H32778   8.244   0.362   6.352 -2.1443  0.9491  0.3953
  984MOL0     H32779   8.320   0.307   6.168  1.4827 -0.4601  2.1659
  984MOL0     H32780   8.191   0.195   6.114  0.3284 -1.3687  0.1097
  984MOL0     H32781   8.411   0.120   6.320 -1.7522 -1.1067  1.0273
  984MOL0     H32782   8.271   0.014   6.283 -3.1456  1.7340  1.4858
  984MOL0     H32783   8.342  -0.032   6.075 -2.3657  2.4412 -0.3106
  984MOL0     H32784   8.415   0.128   6.052 -1.7693  0.4881  0.1818
  984MOL0     H32785   8.577  -0.022   6.245  1.5717  1.6685 -0.2454
  984MOL0     H32786   8.545  -0.131   6.106 -2.1138  0.0723  1.8063
  984MOL0     H32787   8.651   0.154   6.117 -0.8310 -0.4781  0.4148
  984MOL0     H32788   8.639   0.053   5.964 -1.8328 -1.6361  0.2252
  984MOL0     H32789   8.804  -0.003   6.210 -2.3514 -0.8086 -0.5138
  984MOL0     H32790   8.808  -0.115   6.072  1.4841 -1.2039  1.1866
  984MOL0     H32791   9.039  -0.108   5.976 -2.5790 -0.6526 -0.7012
  984MOL0     H32792   9.319   0.075   5.991  4.1858  3.1684 -3.9008
  984MOL0     H32793   9.243  -0.004   5.852 -1.4994  0.1421 -1.8670
  984MOL0     H32794   9.188   0.227   5.772 -1.7732  0.2268  2.3687
  984MOL0     H32795   9.286   0.296   5.904 -0.2340  0.2733  0.0910
  984MOL0     H32796   9.402   0.260   5.672  1.7460 -0.3314  0.5878
  984MOL0     H32797   9.378   0.087   5.690  1.8058 -2.9698  3.9760
  984MOL0     H32798   9.530   0.239   5.907  1.6328 -1.2552  0.4040
  984MOL0     H32799   9.608   0.192   5.758  0.7427  1.0784  1.5658
  984MOL0     H32800   9.789   0.170   5.877  1.9825 -1.6644 -1.5168
  984MOL0     H32801   9.967   0.138   6.036  1.6416 -2.7163 -1.4153
  984MOL0     H32802  10.044   0.093   6.484 -1.2599 -2.6537 -0.0591
  984MOL0     H32803  10.223   0.140   6.658 -1.3925 -0.7416 -0.7749
  984MOL0     H32804  10.397   0.164   6.792  0.2477 -1.2388  0.1849
  984MOL0     H32805  10.439  -0.003   6.797 -1.5816  1.0027  1.1526
  984MOL0     H32806  10.688   0.091   6.777 -1.7171  1.7633 -5.2129
  984MOL0     H32807  10.590   0.245   6.801  0.5061  0.5011  0.0948
  984MOL0     H32808  10.490   0.143   7.016 -0.9703  1.0807 -1.3758
  984MOL0     H32809  10.618   0.015   6.988  2.2626  0.6431 -1.9365
  984MOL0     H32810  10.710   0.298   6.991 -0.5186  0.3560  0.3159
  984MOL0     H32811  10.800   0.154   7.039  0.3582  1.7293  0.4488
  984MOL0     H32812  10.650   0.125   7.232  1.1769 -1.7849 -2.1824
  984MOL0     H32813  10.576   0.281   7.209 -0.8789 -1.4272  0.7550
  984MOL0     H32814  10.872   0.193   7.252 -2.3334 -2.6884 -1.7529
  984MOL0     H32815  10.840   0.360   7.228  3.2045 -1.4728  0.1146
  984MOL0     H32816  10.668   0.326   7.412  1.1880  2.8693 -0.8516
  984MOL0     H32817  10.834   0.356   7.447  0.0085 -0.5931  1.0169
  984MOL0     H32818  10.731   0.078   7.472  1.6614 -1.2680  0.9087
  984MOL0     H32819  10.901   0.148   7.515 -0.2334  1.6121  2.8586
  984MOL0     H32820  10.520  -0.010   6.388  0.1433 -2.6457  2.2318
  984MOL0     H32821  10.337  -0.029   6.203  0.3999 -2.9893  0.7471
  984MOL0     H32822   9.751  -0.195   6.204  1.5114  1.2646  0.2778
  984MOL0     H32823   9.564  -0.146   6.060 -0.6357 -0.6664 -3.0112
  984MOL0     H32824   7.886   0.475   6.104  0.7191  0.2585  1.9391
  984MOL0     H32825   7.643   0.525   6.036  0.2495 -0.3528 -0.8733
  984MOL0     H32826   7.299   0.530   5.964 -0.5769 -0.3994 -0.4753
  984MOL0     H32827   7.105   0.632   5.855  1.4303 -1.4616 -1.7897
  984MOL0     H32828   6.881   0.647   5.703  2.6119  2.5841  1.8546
  984MOL0     H32829   6.850   0.709   5.856  1.8583 -1.0465  1.3154
  984MOL0     H32830   6.645   0.560   5.683  4.0304 -0.2474 -1.6603
  984MOL0     H32831   6.634   0.727   5.750  0.7641  0.0514  0.3009
  984MOL0     H32832   6.474   0.602   5.854 -0.1628  0.9116  0.9341
  984MOL0     H32833   6.601   0.663   5.962 -1.5859  0.6940  0.4374
  984MOL0     H32834   6.599   0.372   5.860 -1.9219  0.0531  0.6372
  984MOL0     H32835   6.673   0.428   6.015  0.4749 -1.3823 -0.8783
  984MOL0     H32836   6.296   0.351   6.162  0.5899  2.1924  1.9716
  984MOL0     H32837   6.879   0.299   5.955  0.8315 -0.9100 -0.1132
  984MOL0     H32838   6.960   0.104   6.057  0.5351 -1.3853 -0.3098
  984MOL0     H32839   7.133   0.077   6.057 -1.6657 -0.0811 -0.5019
  984MOL0     H32840   7.063   0.150   6.203 -0.2078  4.0324  0.1824
  985MOL0     O32841   6.126  10.929   4.762 -0.0264  0.1304  0.7005
  985MOL0     C32842   6.107  10.808   4.770 -0.3161 -0.3048 -0.4819
  985MOL0     O32843   6.188  10.714   4.729 -0.3001 -0.2255 -0.2538
  985MOL0     C32844   6.311  10.749   4.677  0.4201 -0.8730 -0.6055
  985MOL0     C32845   6.397  10.841   4.733 -0.6378  0.0972  1.4108
  985MOL0     C32846   6.526  10.864   4.675 -0.2556 -0.3122 -0.1150
  985MOL0     C32847   6.572  10.788   4.564 -0.0568 -0.4178  0.0406
  985MOL0     O32848   6.703  10.781   4.523  0.5887 -0.6832  1.0563
  985MOL0     C32849   6.788  10.902   4.542  0.7938  0.0623  0.4110
  985MOL0     C32850   6.911  10.871   4.455 -0.3682  1.0646 -0.3245
  985MOL0     C32851   7.023  10.969   4.470  0.3172 -1.0417 -0.0826
  985MOL0     C32852   7.152  10.919   4.404 -0.1292 -0.6557 -0.1846
  985MOL0     C32853   7.272  11.004   4.438 -0.6517  0.5492 -0.0978
  985MOL0     C32854   7.400  10.986   4.357  0.4367 -0.0977 -0.2618
  985MOL0     C32855   7.520  11.063   4.429  0.3577  1.1116  0.2887
  985MOL0     C32856   7.648  11.013   4.381  0.1981  0.1724  0.5847
  985MOL0     N32857   7.763  11.074   4.444 -0.5069  0.8503  0.5550
  985MOL0     C32858   7.829  11.185   4.395  0.4263  0.5415  0.4541
  985MOL0     C32859   7.946  11.183   4.451  1.1320 -0.3605 -0.4207
  985MOL0     C32860   8.064  11.272   4.407 -0.6279  0.0781  0.2724
  985MOL0     C32861   8.205  11.233   4.461  0.1166 -0.0029 -0.1864
  985MOL0     C32862   8.319  11.257   4.357  0.2897 -0.7554 -0.6055
  985MOL0     C32863   8.456  11.268   4.420 -0.0302  0.3817  0.1820
  985MOL0     O32864   8.451  11.389   4.498  0.1007 -0.3411  0.0298
  985MOL0     C32865   8.554  11.403   4.594 -0.0008  0.4769  0.5804
  985MOL0     C32866   8.690  11.388   4.557  0.5623 -0.7942 -0.0116
  985MOL0     C32867   8.787  11.397   4.660 -0.3650 -0.0289  0.2732
  985MOL0     C32868   8.752  11.432   4.794  0.2985 -0.1061  0.3686
  985MOL0     C32869   8.865  11.458   4.883 -0.2005 -1.0337  0.1206
  985MOL0     O32870   8.994  11.410   4.837 -0.1839  0.3568 -0.1090
  985MOL0     C32871   9.103  11.466   4.887 -0.2865 -0.0747 -0.4928
  985MOL0     C32872   9.122  11.574   4.976 -0.2340  0.0609 -0.0900
  985MOL0     C32873   9.249  11.611   5.010 -0.1313  0.9248 -0.0663
  985MOL0     C32874   9.365  11.543   4.958  0.5746 -0.1368 -0.6738
  985MOL0     O32875   9.487  11.583   5.010 -0.0439 -0.8917 -0.3973
  985MOL0     C32876   9.606  11.529   4.939  0.1449  0.5119 -0.4264
  985MOL0     C32877   9.727  11.599   4.988 -0.8562  0.0551  0.7615
  985MOL0     C32878   9.864  11.545   4.941  0.0293  0.6330  0.4589
  985MOL0     C32879   9.981  11.633   4.993  0.2330  0.4517  0.6257
  985MOL0     C32880  10.129  11.593   4.950  0.0060 -0.1675 -0.5507
  985MOL0     C32881  10.235  11.690   5.003  0.1141 -0.3750 -1.0910
  985MOL0     C32882  10.352  11.691   4.910 -0.1463  1.2878 -0.3870
  985MOL0     C32883  10.459  11.792   4.953  0.0831  0.0997  1.0729
  985MOL0    Cl32884  10.399  11.964   4.947 -0.0289  0.2208  0.3458
  985MOL0     C32885   9.347  11.433   4.883  0.3701 -0.2300  0.1597
  985MOL0     C32886   9.223  11.399   4.835  0.2130  1.0336 -0.2026
  985MOL0     O32887   8.841  11.527   4.983 -0.7683  0.0001  0.2257
  985MOL0     C32888   8.616  11.452   4.822  0.1515 -0.0585  0.2375
  985MOL0     C32889   8.517  11.426   4.722 -0.2633 -0.8418 -0.4565
  985MOL0     N32890   7.954  11.070   4.541 -0.4385 -0.5718  0.8828
  985MOL0     N32891   7.853  10.998   4.526 -0.5287  0.9053 -0.6251
  985MOL0     C32892   6.480  10.701   4.504  0.3000  0.3596 -0.3547
  985MOL0     C32893   6.349  10.689   4.553 -0.3874 -0.1438  0.5661
  985MOL0     C32894   5.990  10.745   4.827  0.2606 -0.0500  0.8849
  985MOL0     C32895   5.936  10.627   4.766 -0.1437  0.2283  0.0792
  985MOL0     C32896   5.811  10.577   4.801 -0.0198  0.0251 -0.5271
  985MOL0     C32897   5.740  10.632   4.914 -0.0245 -0.7534  0.6436
  985MOL0     O32898   5.608  10.595   4.952 -0.4191 -0.5653  0.6482
  985MOL0     C32899   5.530  10.510   4.869 -0.6677  0.1665  0.0772
  985MOL0     C32900   5.382  10.537   4.901 -0.2262 -0.3467  0.3339
  985MOL0     C32901   5.361  10.529   5.055 -0.4595  0.3589  0.3006
  985MOL0     C32902   5.213  10.542   5.090 -0.2105  0.2061  0.3350
  985MOL0     C32903   5.138  10.439   5.015 -0.0202 -1.1867 -0.0560
  985MOL0     C32904   5.075  10.349   4.964  0.6869 -0.0399  0.0609
  985MOL0     C32905   5.794  10.737   4.982  0.8478 -0.5061  0.6513
  985MOL0     C32906   5.908  10.800   4.931  0.3296 -0.3491 -0.6066
  985MOL0     C32907   5.937  10.936   5.002 -0.2527  1.0563  0.0382
  985MOL0     H32908   6.371  10.904   4.819 -1.2616  3.5601 -1.0858
  985MOL0     H32909   6.589  10.937   4.724  0.4211 -1.0762  0.1766
  985MOL0     H32910   6.728  10.985   4.502 -2.6732 -3.2272 -1.9993
  985MOL0     H32911   6.818  10.911   4.646  2.6893 -1.5160  0.0654
  985MOL0     H32912   6.885  10.850   4.350  2.2034 -2.5737 -0.4349
  985MOL0     H32913   6.945  10.773   4.491 -1.9408  1.1305  1.4815
  985MOL0     H32914   7.043  10.983   4.576  0.8992  0.5326 -0.3788
  985MOL0     H32915   7.003  11.072   4.439 -2.0978 -1.6245 -0.6816
  985MOL0     H32916   7.175  10.814   4.423 -1.4357 -1.1189 -1.0650
  985MOL0     H32917   7.136  10.930   4.297  1.1677  2.2251 -0.1716
  985MOL0     H32918   7.243  11.107   4.414  0.2629  0.3017 -2.6159
  985MOL0     H32919   7.289  11.012   4.546  1.7132  3.2779 -0.5482
  985MOL0     H32920   7.439  10.884   4.371  1.4320  0.2738 -0.1997
  985MOL0     H32921   7.380  11.000   4.250  0.5099 -0.5041 -0.3332
  985MOL0     H32922   7.513  11.063   4.538  1.2909  2.1486  0.3712
  985MOL0     H32923   7.513  11.171   4.410 -1.4822  1.6035  3.1119
  985MOL0     H32924   7.648  10.903   4.384 -1.1921  0.0855 -0.9842
  985MOL0     H32925   7.656  11.030   4.273 -1.2040  0.3324  0.4944
  985MOL0     H32926   7.803  11.245   4.308  1.4057 -0.8555 -0.8630
  985MOL0     H32927   8.069  11.267   4.298  2.1590 -0.9562  0.3492
  985MOL0     H32928   8.041  11.374   4.441 -0.7882  0.5016 -1.0551
  985MOL0     H32929   8.219  11.297   4.549  1.9226  2.5847 -2.2045
  985MOL0     H32930   8.204  11.126   4.485 -1.4015 -0.2830 -1.3780
  985MOL0     H32931   8.295  11.354   4.312  0.6327 -0.4214 -0.0868
  985MOL0     H32932   8.311  11.187   4.274 -0.5990 -0.5326 -0.7159
  985MOL0     H32933   8.535  11.286   4.346 -1.7393  4.9052 -0.8676
  985MOL0     H32934   8.482  11.177   4.476  0.9769  1.9480  2.3933
  985MOL0     H32935   8.714  11.360   4.455  3.0858 -0.9112  0.5560
  985MOL0     H32936   8.888  11.389   4.622 -0.3287  0.4217  0.2674
  985MOL0     H32937   9.038  11.635   5.007 -1.8571 -1.0394 -2.0183
  985MOL0     H32938   9.250  11.700   5.072 -0.8962  0.8615  0.0457
  985MOL0     H32939   9.617  11.421   4.953 -0.8724  0.5406  0.8372
  985MOL0     H32940   9.597  11.559   4.835  0.8041  0.9727 -0.3567
  985MOL0     H32941   9.724  11.706   4.966  1.0972  0.3543  1.7582
  985MOL0     H32942   9.744  11.579   5.094  2.4714 -1.1733  0.1133
  985MOL0     H32943   9.872  11.440   4.971 -1.6792 -0.2155 -1.7103
  985MOL0     H32944   9.866  11.545   4.831  0.0468 -0.8207  0.4323
  985MOL0     H32945   9.976  11.647   5.101  2.8275 -2.8901  1.3579
  985MOL0     H32946   9.977  11.737   4.960  2.8890  0.6535  0.7246
  985MOL0     H32947  10.145  11.610   4.843  3.3302  2.7262  0.1934
  985MOL0     H32948  10.155  11.493   4.987 -2.8177 -1.5380 -2.0473
  985MOL0     H32949  10.193  11.791   5.000  0.1282 -0.3865 -2.2428
  985MOL0     H32950  10.264  11.653   5.101  0.4965 -0.4891 -1.2427
  985MOL0     H32951  10.316  11.702   4.807  1.2525 -1.7943 -1.3159
  985MOL0     H32952  10.397  11.592   4.918 -2.3300  0.3007  0.3944
  985MOL0     H32953  10.497  11.776   5.055 -2.4067  3.4642  2.6926
  985MOL0     H32954  10.546  11.786   4.886 -0.6452 -3.1922  0.2395
  985MOL0     H32955   9.428  11.370   4.847 -0.0776 -0.7602  0.0618
  985MOL0     H32956   9.207  11.314   4.769  2.6761  0.8014 -0.6123
  985MOL0     H32957   8.584  11.491   4.918  0.8601  1.7079 -0.2002
  985MOL0     H32958   8.415  11.426   4.758 -0.9112 -0.1193 -2.2070
  985MOL0     H32959   6.513  10.630   4.428 -1.3334 -1.8365  0.8797
  985MOL0     H32960   6.277  10.626   4.501 -1.1569  1.7347 -0.7528
  985MOL0     H32961   5.980  10.583   4.677 -3.2522  0.5324 -1.7476
  985MOL0     H32962   5.762  10.491   4.755 -0.3741 -0.7782  1.2545
  985MOL0     H32963   5.571  10.411   4.891  3.9495  1.8938  0.4586
  985MOL0     H32964   5.552  10.530   4.764  1.8964  2.9037  0.9673
  985MOL0     H32965   5.325  10.473   4.833 -2.2370  2.7313 -1.1546
  985MOL0     H32966   5.359  10.636   4.861 -1.2236 -0.1261  1.3970
  985MOL0     H32967   5.404  10.621   5.098  2.2602 -0.1525 -1.0932
  985MOL0     H32968   5.411  10.441   5.096  2.2977  0.9652 -1.4819
  985MOL0     H32969   5.206  10.531   5.198  0.2638  1.5028  0.5085
  985MOL0     H32970   5.174  10.641   5.066  1.3919  1.6957  3.3798
  985MOL0     H32971   5.034  10.264   4.913  0.0005  0.9242 -1.0507
  985MOL0     H32972   5.736  10.781   5.062  1.4850  1.0343  0.2955
  985MOL0     H32973   5.899  10.931   5.104  2.1149  1.7907  1.0298
  985MOL0     H32974   6.046  10.949   5.006 -0.0407 -0.8063  1.9002
  985MOL0     H32975   5.889  11.017   4.945 -0.0783  1.4491  0.4396
  986MOL0     O32976  10.249   1.947   6.123 -0.8756 -0.1854  0.0310
  986MOL0     C32977  10.243   1.888   6.235  0.0477 -0.8709 -0.4118
  986MOL0     O32978  10.348   1.830   6.299 -0.3729  0.1533  0.3304
  986MOL0     C32979  10.476   1.855   6.259 -0.0072  1.3358  0.1332
  986MOL0     C32980  10.535   1.768   6.168  1.0494 -0.6240 -0.0520
  986MOL0     C32981  10.670   1.782   6.139  0.1254 -0.0366 -0.9505
  986MOL0     C32982  10.753   1.872   6.219 -0.0301 -0.0311 -0.2201
  986MOL0     O32983  10.891   1.869   6.218 -0.2413 -0.4144 -0.0960
  986MOL0     C32984  10.961   1.751   6.174  0.4271 -0.7979 -0.0940
  986MOL0     C32985  11.107   1.782   6.211  0.5706  0.6260 -0.8233
  986MOL0     C32986  11.200   1.679   6.138  0.4934 -0.4501  0.1102
  986MOL0     C32987  11.221   1.726   5.991  1.2066 -0.4500  0.4900
  986MOL0     C32988  11.352   1.661   5.937 -1.1382  0.2762  0.6578
  986MOL0     C32989  11.353   1.658   5.780 -0.0161 -0.7220 -0.1662
  986MOL0     C32990  11.400   1.793   5.728  0.1396  0.1938 -0.1761
  986MOL0     C32991  11.408   1.813   5.578 -0.6116 -0.2490 -0.0304
  986MOL0     N32992  11.457   1.945   5.548  0.5330 -0.1528 -0.1108
  986MOL0     C32993  11.589   1.977   5.537 -0.4466  0.0394 -0.4432
  986MOL0     C32994  11.592   2.107   5.505  0.1579 -0.6686 -0.1566
  986MOL0     C32995  11.715   2.185   5.466  0.0697 -0.5034  0.2681
  986MOL0     C32996  11.756   2.149   5.330 -0.3960  0.1331  0.0571
  986MOL0     C32997  11.889   2.221   5.272  0.0642 -0.0213 -0.3512
  986MOL0     C32998  12.020   2.167   5.322  0.7463  0.7109  0.7300
  986MOL0     O32999  12.029   2.033   5.271 -0.7736 -0.2010 -0.3852
  986MOL0     C33000  12.154   1.978   5.277 -0.0913  0.0056 -0.2710
  986MOL0     C33001  12.174   1.848   5.226  0.3015 -0.0356 -0.1648
  986MOL0     C33002  12.295   1.784   5.244 -0.4399 -0.4885 -0.8356
  986MOL0     C33003  12.401   1.846   5.323 -0.0041  0.3010  0.0915
  986MOL0     C33004  12.521   1.769   5.352  0.2674  1.1496  0.2398
  986MOL0     O33005  12.547   1.657   5.274 -0.4423 -0.4869 -0.3850
  986MOL0     C33006  12.668   1.599   5.286  0.0685 -0.1003  0.7619
  986MOL0     C33007  12.792   1.675   5.294 -0.7340  0.4513  0.2089
  986MOL0     C33008  12.912   1.611   5.334  0.0341  0.2183  0.6095
  986MOL0     C33009  12.914   1.472   5.339 -0.7546  0.4490 -0.0548
  986MOL0     O33010  13.035   1.423   5.387  0.5290 -0.0442  0.1319
  986MOL0     C33011  13.018   1.337   5.494  0.1925  0.5217  0.7465
  986MOL0     C33012  13.146   1.303   5.574 -1.0970 -0.1530  0.6318
  986MOL0     C33013  13.259   1.230   5.489  0.2067  0.1106  0.0962
  986MOL0     C33014  13.395   1.258   5.542 -0.1864 -0.0375  0.9947
  986MOL0     C33015  13.407   1.173   5.671  0.3594 -0.1557 -0.8096
  986MOL0     C33016  13.555   1.187   5.723 -0.0400 -0.2440  0.8505
  986MOL0     C33017  13.560   1.131   5.863 -0.5397  0.0764 -0.4535
  986MOL0     C33018  13.706   1.137   5.916  0.0363 -0.1335 -0.1369
  986MOL0    Cl33019  13.707   1.031   6.066  0.2243 -0.2613 -0.2042
  986MOL0     C33020  12.795   1.395   5.319 -0.2677 -0.4496  0.5872
  986MOL0     C33021  12.672   1.458   5.308 -0.5020  0.3499  0.8596
  986MOL0     O33022  12.587   1.807   5.449 -0.7205  0.2873  1.0431
  986MOL0     C33023  12.383   1.976   5.376  0.4171  0.5368  0.7893
  986MOL0     C33024  12.260   2.038   5.348 -0.3206  1.1925 -0.3455
  986MOL0     N33025  11.456   2.153   5.493 -0.7343 -0.4463 -0.7940
  986MOL0     N33026  11.373   2.055   5.516  0.1964  0.1205  0.2551
  986MOL0     C33027  10.690   1.970   6.308 -0.1733  0.6834  0.4997
  986MOL0     C33028  10.549   1.949   6.336  0.1235  0.4287  0.0157
  986MOL0     C33029  10.122   1.898   6.317  0.6853  0.2137 -0.6102
  986MOL0     C33030  10.057   1.776   6.351 -0.5727 -0.5722 -0.2618
  986MOL0     C33031   9.933   1.788   6.422 -0.3896  0.2667  0.0951
  986MOL0     C33032   9.883   1.910   6.477 -0.0815  0.1959  0.1233
  986MOL0     O33033   9.769   1.929   6.547  0.7732  0.4513  0.0831
  986MOL0     C33034   9.690   1.809   6.589  0.2601  0.2988 -0.3282
  986MOL0     C33035   9.552   1.861   6.619 -0.1479 -0.1228  0.1258
  986MOL0     C33036   9.531   1.940   6.749 -0.3932  0.4175  0.5204
  986MOL0     C33037   9.544   1.858   6.881 -0.3804 -0.5611  0.3611
  986MOL0     C33038   9.461   1.736   6.879  0.5882  0.4183  0.2994
  986MOL0     C33039   9.398   1.634   6.856 -0.5366  0.7309 -0.5719
  986MOL0     C33040   9.957   2.027   6.446 -0.0014  0.3361 -0.2711
  986MOL0     C33041  10.064   2.020   6.356 -0.2927 -0.5464 -0.0901
  986MOL0     C33042  10.128   2.156   6.320  0.0166 -0.5614  0.7381
  986MOL0     H33043  10.473   1.705   6.105  1.3069 -1.8402  0.8545
  986MOL0     H33044  10.701   1.709   6.064  0.3977 -0.1144 -0.7659
  986MOL0     H33045  10.933   1.665   6.236 -0.2480 -2.0423 -2.0352
  986MOL0     H33046  10.953   1.720   6.070 -0.0153 -1.3854  0.1092
  986MOL0     H33047  11.116   1.785   6.320  3.4817  0.7675 -1.0074
  986MOL0     H33048  11.136   1.883   6.179  0.2151  1.0965  0.2930
  986MOL0     H33049  11.154   1.580   6.135  1.6624 -1.1050  2.1989
  986MOL0     H33050  11.299   1.683   6.182  1.3311  3.3022 -1.7091
  986MOL0     H33051  11.134   1.689   5.936  1.5358 -0.3340 -0.1177
  986MOL0     H33052  11.231   1.834   5.984 -2.2076  0.2794  3.6094
  986MOL0     H33053  11.436   1.705   5.991  0.4257 -1.6344 -0.0814
  986MOL0     H33054  11.360   1.554   5.962  2.9055 -0.3105 -2.2505
  986MOL0     H33055  11.429   1.585   5.750  1.7267 -0.2950  2.8029
  986MOL0     H33056  11.255   1.644   5.733 -0.9214  1.7370  0.8501
  986MOL0     H33057  11.496   1.804   5.779 -0.4250 -0.6767  1.1284
  986MOL0     H33058  11.334   1.875   5.758 -2.6322 -1.5544 -1.0751
  986MOL0     H33059  11.477   1.743   5.532 -2.5558 -1.9663 -0.4548
  986MOL0     H33060  11.313   1.788   5.532  1.3312 -3.4931 -2.7005
  986MOL0     H33061  11.676   1.917   5.561  1.1748  2.5243  0.2159
  986MOL0     H33062  11.685   2.291   5.465 -0.7501 -0.7365  0.0925
  986MOL0     H33063  11.793   2.177   5.543 -1.6472  0.5208  2.2413
  986MOL0     H33064  11.775   2.042   5.339  3.5628  0.8282  2.3106
  986MOL0     H33065  11.671   2.181   5.268  1.2584  0.3354 -2.2271
  986MOL0     H33066  11.878   2.329   5.276 -5.1390  0.1518 -5.6992
  986MOL0     H33067  11.885   2.212   5.163  2.2982 -1.1640 -0.4016
  986MOL0     H33068  12.023   2.165   5.431 -0.1864 -0.3134  0.7625
  986MOL0     H33069  12.102   2.218   5.271  1.4710 -0.3023  0.8513
  986MOL0     H33070  12.093   1.799   5.173 -0.8019  0.6361  0.8553
  986MOL0     H33071  12.314   1.689   5.195  0.5025 -0.1727 -1.0908
  986MOL0     H33072  12.798   1.783   5.297 -1.3870  0.5039 -0.1610
  986MOL0     H33073  12.998   1.677   5.343 -0.4920  0.7163  2.7162
  986MOL0     H33074  12.958   1.391   5.568  1.3222  1.0856  1.2807
  986MOL0     H33075  12.963   1.246   5.468  0.8930  0.2279  0.2863
  986MOL0     H33076  13.188   1.397   5.611 -2.4287  1.5970 -1.9992
  986MOL0     H33077  13.116   1.238   5.657 -2.8643  0.1078  0.2337
  986MOL0     H33078  13.243   1.123   5.476  0.2678  0.3389 -2.3490
  986MOL0     H33079  13.255   1.266   5.386 -2.8248  1.0428  0.4400
  986MOL0     H33080  13.390   1.365   5.564 -3.6543  0.1339 -0.1487
  986MOL0     H33081  13.473   1.235   5.469 -2.5272  1.3873 -2.1628
  986MOL0     H33082  13.392   1.065   5.665 -0.7960 -0.1338  0.9368
  986MOL0     H33083  13.343   1.216   5.749  1.5844 -1.4558  0.9645
  986MOL0     H33084  13.630   1.141   5.657 -0.2176 -0.0362  0.4980
  986MOL0     H33085  13.587   1.292   5.724 -1.8181  0.5843 -3.7989
  986MOL0     H33086  13.525   1.027   5.862  0.7203 -0.5257  3.2646
  986MOL0     H33087  13.491   1.180   5.931 -2.5679 -3.7648  0.5227
  986MOL0     H33088  13.776   1.098   5.842  0.9795  1.0906  0.0934
  986MOL0     H33089  13.734   1.235   5.954 -2.7609  0.9882 -0.7375
  986MOL0     H33090  12.795   1.286   5.320  1.7523 -0.4993  0.1188
  986MOL0     H33091  12.584   1.395   5.312 -0.9053  0.9536  3.6074
  986MOL0     H33092  12.463   2.031   5.424  3.4615 -0.6230 -2.5230
  986MOL0     H33093  12.246   2.140   5.383 -0.5923  1.0364  0.0124
  986MOL0     H33094  10.749   2.043   6.362  1.4511 -0.4247  0.3095
  986MOL0     H33095  10.490   2.014   6.399 -3.5030 -0.1799 -2.4328
  986MOL0     H33096  10.094   1.676   6.333  0.7769  0.2301 -2.2297
  986MOL0     H33097   9.880   1.695   6.440 -1.2107  0.6016 -0.5725
  986MOL0     H33098   9.716   1.746   6.675 -2.2803 -0.4780 -0.0323
  986MOL0     H33099   9.681   1.743   6.502 -2.3173  1.1254 -0.7835
  986MOL0     H33100   9.476   1.783   6.616 -0.1171 -0.1423 -0.1990
  986MOL0     H33101   9.531   1.933   6.539  1.7966  0.1418 -0.1903
  986MOL0     H33102   9.432   1.986   6.755 -0.0736  0.9204  3.0020
  986MOL0     H33103   9.610   2.015   6.754  1.8066 -1.7766  0.7497
  986MOL0     H33104   9.650   1.833   6.895  0.5644  2.3113 -0.9297
  986MOL0     H33105   9.522   1.919   6.970  2.1208 -1.7293  1.8893
  986MOL0     H33106   9.346   1.543   6.833 -1.7867  0.8388  1.5097
  986MOL0     H33107   9.927   2.127   6.477  1.8570  0.7619  0.2990
  986MOL0     H33108  10.093   2.184   6.220 -0.8633 -1.5971  0.7402
  986MOL0     H33109  10.087   2.238   6.380 -3.5295 -0.9258 -0.9066
  986MOL0     H33110  10.237   2.152   6.325  0.2924  3.2300  0.9828
  987MOL0     O33111   3.060  10.886   2.060 -0.8284  0.6823  0.4536
  987MOL0     C33112   3.042  10.883   1.937 -0.3001  0.1710  0.3848
  987MOL0     O33113   3.123  10.950   1.844 -0.2827 -0.4314 -0.3773
  987MOL0     C33114   3.235  11.018   1.906 -0.3073  0.7736 -0.2700
  987MOL0     C33115   3.361  10.983   1.865 -0.5516 -0.7609 -0.4732
  987MOL0     C33116   3.474  11.055   1.915  1.3537  0.2044  0.3245
  987MOL0     C33117   3.460  11.166   1.999  0.5463 -0.4130  0.5703
  987MOL0     O33118   3.573  11.229   2.032 -0.3045  0.3277  0.6092
  987MOL0     C33119   3.597  11.227   2.174  0.2287  0.0574 -0.2474
  987MOL0     C33120   3.691  11.349   2.190  0.6424 -0.4201 -0.2626
  987MOL0     C33121   3.830  11.351   2.118 -0.1659 -0.1787 -0.1996
  987MOL0     C33122   3.934  11.251   2.173 -0.4228 -0.1845  0.3784
  987MOL0     C33123   4.076  11.280   2.126 -0.3853 -0.7070 -0.0430
  987MOL0     C33124   4.092  11.257   1.982  0.2451 -0.2953 -0.7303
  987MOL0     C33125   4.239  11.291   1.954  0.5770 -0.7516  0.3940
  987MOL0     C33126   4.277  11.228   1.817  0.3623  0.8131  0.3856
  987MOL0     N33127   4.416  11.275   1.797  0.6338 -0.0341 -0.4680
  987MOL0     C33128   4.519  11.210   1.856  0.0415  0.4808 -0.9133
  987MOL0     C33129   4.627  11.263   1.794 -1.0145 -0.3883 -0.5621
  987MOL0     C33130   4.774  11.224   1.802  0.2763  0.6474  0.1564
  987MOL0     C33131   4.807  11.134   1.929  0.7224  0.3575  0.1655
  987MOL0     C33132   4.777  10.986   1.892 -0.5022 -0.1288 -0.2884
  987MOL0     C33133   4.859  10.880   1.977  0.4167  0.4729 -0.3052
  987MOL0     O33134   4.993  10.869   1.931 -0.8442 -0.6483  0.1570
  987MOL0     C33135   5.086  10.798   2.003 -0.1747  0.8746 -0.0446
  987MOL0     C33136   5.200  10.754   1.922  0.4600 -0.2737 -1.0565
  987MOL0     C33137   5.301  10.681   1.979 -0.2480  0.0831  0.0611
  987MOL0     C33138   5.303  10.665   2.122 -0.8353  0.4891  0.1195
  987MOL0     C33139   5.421  10.599   2.178  0.8156 -0.2247 -0.5360
  987MOL0     O33140   5.533  10.609   2.102 -0.0107  0.4232 -0.1602
  987MOL0     C33141   5.651  10.575   2.159  0.3529  0.1917  0.4708
  987MOL0     C33142   5.693  10.440   2.160  1.1128 -0.0175 -0.8407
  987MOL0     C33143   5.811  10.408   2.230 -0.2866  0.3234 -0.0676
  987MOL0     C33144   5.889  10.509   2.291  0.4410 -0.1408  0.4275
  987MOL0     O33145   6.013  10.487   2.349  0.3547 -0.2192  0.1013
  987MOL0     C33146   6.024  10.359   2.419 -0.0853  0.4720  1.0775
  987MOL0     C33147   6.149  10.323   2.493 -0.3184  0.1419 -1.0648
  987MOL0     C33148   6.275  10.295   2.407  0.0596  0.4440 -0.6428
  987MOL0     C33149   6.394  10.225   2.482 -0.5314  0.0149  0.0459
  987MOL0     C33150   6.513  10.226   2.387  0.2954 -0.3245  0.3061
  987MOL0     C33151   6.638  10.169   2.457 -1.0816 -0.2887 -0.0191
  987MOL0     C33152   6.763  10.173   2.374  0.3568 -0.3615 -0.5097
  987MOL0     C33153   6.783  10.045   2.296 -0.1706  0.8355  0.1872
  987MOL0    Cl33154   6.955  10.039   2.250 -0.0511  0.0158  0.1459
  987MOL0     C33155   5.837  10.639   2.281 -0.0149  0.2962  0.6596
  987MOL0     C33156   5.723  10.676   2.217 -0.5842  0.2371 -0.0453
  987MOL0     O33157   5.410  10.555   2.292 -0.4798 -0.1436 -0.7768
  987MOL0     C33158   5.199  10.721   2.202  0.5520  0.1732  0.9322
  987MOL0     C33159   5.084  10.774   2.142  1.4206  0.1551 -0.0594
  987MOL0     N33160   4.576  11.350   1.701  0.3006 -0.4034 -0.1659
  987MOL0     N33161   4.455  11.370   1.714  0.3250  0.1226  0.7865
  987MOL0     C33162   3.331  11.191   2.049  0.1665 -0.0853  0.0771
  987MOL0     C33163   3.218  11.126   1.999  0.0677  1.3530  0.3904
  987MOL0     C33164   2.910  10.819   1.901 -0.2159 -0.2257  0.5834
  987MOL0     C33165   2.855  10.717   1.979 -0.5086  0.9677 -0.1196
  987MOL0     C33166   2.730  10.663   1.954 -0.6990 -0.3083  0.6061
  987MOL0     C33167   2.651  10.710   1.850  0.1337  0.1182  0.0889
  987MOL0     O33168   2.522  10.665   1.821  0.0101  0.0757 -0.0611
  987MOL0     C33169   2.478  10.534   1.865  0.0964  0.4059 -0.0827
  987MOL0     C33170   2.332  10.515   1.836  0.1737  0.4780  0.0909
  987MOL0     C33171   2.239  10.635   1.869  0.5089  0.0353 -0.0904
  987MOL0     C33172   2.122  10.647   1.779  0.2886  0.3467  0.2672
  987MOL0     C33173   2.042  10.525   1.787 -0.2706  0.1131 -0.0051
  987MOL0     C33174   1.970  10.429   1.806 -0.2174 -0.3203  0.9896
  987MOL0     C33175   2.705  10.815   1.768 -0.4223 -0.1958  0.2027
  987MOL0     C33176   2.832  10.865   1.790 -0.5054 -0.2675  0.0613
  987MOL0     C33177   2.876  10.982   1.704  0.5570 -0.2289 -0.5442
  987MOL0     H33178   3.365  10.885   1.818  1.5724 -0.5236 -0.8887
  987MOL0     H33179   3.574  11.023   1.888  1.0605  1.0980 -2.1294
  987MOL0     H33180   3.509  11.245   2.235  0.2730 -1.9613  0.4808
  987MOL0     H33181   3.651  11.149   2.228 -2.5424 -0.2789  2.2508
  987MOL0     H33182   3.691  11.380   2.295 -1.0387 -0.1588 -0.3061
  987MOL0     H33183   3.634  11.436   2.154 -0.6980  0.1484  2.8921
  987MOL0     H33184   3.878  11.446   2.145  2.7430 -2.4526  3.5457
  987MOL0     H33185   3.804  11.339   2.012 -3.6067 -0.0222  0.4874
  987MOL0     H33186   3.939  11.264   2.281 -3.8616  2.7079  0.3827
  987MOL0     H33187   3.903  11.147   2.161  0.2463 -0.3427 -0.0714
  987MOL0     H33188   4.102  11.382   2.156 -2.1246 -0.3780  0.4363
  987MOL0     H33189   4.143  11.213   2.182  0.7753  2.4387  2.7084
  987MOL0     H33190   4.084  11.151   1.956  1.8399 -0.0741 -2.3089
  987MOL0     H33191   4.021  11.322   1.929 -0.4203  0.2844  0.8089
  987MOL0     H33192   4.303  11.246   2.031 -0.3803 -3.5289 -0.3009
  987MOL0     H33193   4.251  11.399   1.949 -2.5217 -0.3059  0.5543
  987MOL0     H33194   4.274  11.119   1.822 -0.6199  0.8161  0.0655
  987MOL0     H33195   4.217  11.263   1.732  0.3567 -1.4230 -0.6016
  987MOL0     H33196   4.518  11.130   1.928  0.2225  3.0782  2.2036
  987MOL0     H33197   4.793  11.168   1.710  0.5436 -1.4924  1.4403
  987MOL0     H33198   4.839  11.311   1.797  1.7925 -0.4471 -0.0129
  987MOL0     H33199   4.906  11.162   1.964  0.0726 -0.2890  2.7315
  987MOL0     H33200   4.750  11.167   2.016  1.6997 -0.1682  1.0130
  987MOL0     H33201   4.806  10.975   1.787 -1.8356  3.2134 -1.1267
  987MOL0     H33202   4.671  10.960   1.903 -0.1497 -1.1121  1.0451
  987MOL0     H33203   4.805  10.785   1.983  1.2304  0.0794  1.3067
  987MOL0     H33204   4.868  10.909   2.082  0.8831 -1.3803  0.2011
  987MOL0     H33205   5.193  10.775   1.816 -1.1565 -1.0681 -1.1447
  987MOL0     H33206   5.379  10.645   1.913 -0.4317 -0.9634  0.3912
  987MOL0     H33207   5.666  10.354   2.100  2.9550 -1.4887  0.3151
  987MOL0     H33208   5.863  10.316   2.203 -0.9218  0.4885 -2.0246
  987MOL0     H33209   5.946  10.354   2.495  0.4963  1.8287  1.7871
  987MOL0     H33210   6.015  10.282   2.341  4.3813  2.4663 -1.7802
  987MOL0     H33211   6.175  10.398   2.567 -0.9111 -0.1603 -0.5415
  987MOL0     H33212   6.122  10.232   2.548  3.5325 -2.8979 -3.6275
  987MOL0     H33213   6.241  10.223   2.333  1.0516  0.4188 -1.0871
  987MOL0     H33214   6.307  10.379   2.345 -2.4081 -0.9676 -4.1537
  987MOL0     H33215   6.368  10.122   2.508  0.6841  0.0643  1.6092
  987MOL0     H33216   6.420  10.276   2.576 -0.1835  2.4242 -1.2665
  987MOL0     H33217   6.520  10.330   2.353 -1.4287 -0.6605 -1.2521
  987MOL0     H33218   6.494  10.161   2.301 -1.2444 -3.5385  2.8600
  987MOL0     H33219   6.652  10.240   2.539  0.0241  0.5141 -0.8658
  987MOL0     H33220   6.621  10.066   2.489  1.8341 -1.5814 -2.1760
  987MOL0     H33221   6.842  10.172   2.449  0.0124  2.0468 -0.0615
  987MOL0     H33222   6.774  10.259   2.307 -0.8952  0.1867 -0.0482
  987MOL0     H33223   6.763   9.954   2.353  2.7589 -0.1470 -0.1678
  987MOL0     H33224   6.719  10.049   2.208 -2.1963  0.7734  1.5796
  987MOL0     H33225   5.888  10.715   2.339 -0.2736  0.4234  0.7199
  987MOL0     H33226   5.694  10.779   2.200  0.6498  0.7126  0.6426
  987MOL0     H33227   5.194  10.708   2.310 -0.1635  1.4900  1.0806
  987MOL0     H33228   5.000  10.812   2.198  0.9870 -2.7689  1.4871
  987MOL0     H33229   3.295  11.266   2.119 -0.9722  0.5963 -1.1882
  987MOL0     H33230   3.116  11.159   2.013 -0.8330 -2.1451  3.5226
  987MOL0     H33231   2.908  10.696   2.071 -0.3598 -0.8337 -0.5762
  987MOL0     H33232   2.683  10.601   2.029 -2.7392 -0.1296 -0.4520
  987MOL0     H33233   2.495  10.524   1.973  1.6728  2.6168 -0.0510
  987MOL0     H33234   2.543  10.461   1.816  0.4137  1.2690 -0.9819
  987MOL0     H33235   2.295  10.422   1.880  0.8044 -1.5162 -3.2688
  987MOL0     H33236   2.317  10.508   1.728  4.2312  0.2658 -0.6392
  987MOL0     H33237   2.301  10.725   1.856 -0.0390  0.0706 -3.5333
  987MOL0     H33238   2.207  10.638   1.973 -2.6065  5.4692 -0.8390
  987MOL0     H33239   2.057  10.733   1.801  2.6346  2.1500  0.5512
  987MOL0     H33240   2.155  10.657   1.676  1.5956 -2.2622  0.3586
  987MOL0     H33241   1.896  10.353   1.824 -0.6406 -0.4122 -0.9295
  987MOL0     H33242   2.652  10.859   1.684  0.0055 -0.6938 -0.3350
  987MOL0     H33243   2.795  11.007   1.634 -1.4323  2.6014  2.5093
  987MOL0     H33244   2.888  11.076   1.758 -0.1112  0.7497 -2.0222
  987MOL0     H33245   2.965  10.958   1.645  3.0563 -1.4742  3.4027
  988MOL0     O33246   0.867   4.791   1.949  0.6614 -0.0308  0.0800
  988MOL0     C33247   0.784   4.802   2.042 -0.3350 -0.1032 -0.3749
  988MOL0     O33248   0.812   4.773   2.164 -0.0516 -0.1144 -0.0969
  988MOL0     C33249   0.939   4.773   2.221  0.6950 -0.0109 -1.3267
  988MOL0     C33250   0.930   4.783   2.364 -0.1132  0.4826 -0.2372
  988MOL0     C33251   1.050   4.776   2.436 -0.1725  0.0971 -0.0793
  988MOL0     C33252   1.183   4.770   2.377 -0.1911  0.3548  0.7293
  988MOL0     O33253   1.298   4.796   2.458  0.3455 -0.0771  0.2842
  988MOL0     C33254   1.393   4.694   2.466  0.1997 -0.2415  0.0508
  988MOL0     C33255   1.520   4.746   2.537  0.3071  0.0666  0.9573
  988MOL0     C33256   1.594   4.838   2.449  0.0053 -0.2214  0.5487
  988MOL0     C33257   1.717   4.900   2.519  0.3666  1.1082  0.8910
  988MOL0     C33258   1.823   4.790   2.518  0.0285  0.4796 -1.0316
  988MOL0     C33259   1.956   4.850   2.566 -0.5180  0.5033 -0.2136
  988MOL0     C33260   2.069   4.740   2.583  0.8188 -0.2465 -0.0649
  988MOL0     C33261   2.195   4.808   2.642 -0.2001  0.1340 -1.3459
  988MOL0     N33262   2.167   4.908   2.750 -0.0448  0.3303 -0.3887
  988MOL0     C33263   2.089   4.889   2.863 -0.2746  0.0331  0.3209
  988MOL0     C33264   2.078   5.010   2.920  0.5942 -0.4376 -0.2447
  988MOL0     C33265   1.991   5.037   3.041 -0.5017 -0.3331 -0.0439
  988MOL0     C33266   1.865   5.110   3.011  0.7541 -0.8060  0.1041
  988MOL0     C33267   1.779   5.102   3.143 -1.2621  0.6870  0.2251
  988MOL0     C33268   1.629   5.123   3.115  0.0827  0.4097 -1.1504
  988MOL0     O33269   1.586   5.024   3.010 -0.2070 -0.0175 -0.4993
  988MOL0     C33270   1.451   5.041   2.969 -0.0471  0.0815 -0.2695
  988MOL0     C33271   1.411   4.981   2.850  0.7635 -0.0276 -0.4677
  988MOL0     C33272   1.277   4.995   2.793 -0.2066 -0.2966  0.2651
  988MOL0     C33273   1.187   5.080   2.854 -0.0128  0.7663 -0.3222
  988MOL0     C33274   1.048   5.085   2.798 -0.1763 -0.3011  0.3395
  988MOL0     O33275   1.008   4.986   2.709  0.0864  0.3126 -0.3101
  988MOL0     C33276   0.881   4.991   2.659 -0.9570  0.4754  0.4909
  988MOL0     C33277   0.793   4.885   2.674  0.2073 -0.0700  0.0781
  988MOL0     C33278   0.668   4.882   2.614  0.0265 -0.5871 -0.3715
  988MOL0     C33279   0.626   4.999   2.538 -0.1923 -0.5526 -0.1175
  988MOL0     O33280   0.504   4.991   2.471  0.1059  0.3163 -0.6986
  988MOL0     C33281   0.419   5.104   2.455  0.8209 -0.7424  0.4798
  988MOL0     C33282   0.274   5.069   2.407 -0.3529  0.0191  0.2235
  988MOL0     C33283   0.189   5.195   2.379 -0.2764  0.5045  0.5887
  988MOL0     C33284   0.041   5.173   2.347  1.3709 -0.6226 -0.0331
  988MOL0     C33285  -0.034   5.296   2.291  0.5778  0.9491  0.0085
  988MOL0     C33286  -0.171   5.237   2.245 -0.1831 -0.2319  0.4670
  988MOL0     C33287  -0.259   5.345   2.166 -0.3395  0.2280 -1.2134
  988MOL0     C33288  -0.324   5.449   2.262 -0.2013  0.4401  0.1806
  988MOL0    Cl33289  -0.458   5.382   2.366 -0.0949 -0.0098  0.2923
  988MOL0     C33290   0.711   5.109   2.525 -0.3252  0.5732 -0.9240
  988MOL0     C33291   0.838   5.101   2.584  0.0499  0.3649 -0.0781
  988MOL0     O33292   0.986   5.193   2.816  0.1332  0.4345  0.1703
  988MOL0     C33293   1.231   5.148   2.968 -0.6509 -0.1900  0.2217
  988MOL0     C33294   1.358   5.130   3.020 -0.3171 -0.5746 -0.7587
  988MOL0     N33295   2.135   5.105   2.840  0.9002  0.0132 -0.7883
  988MOL0     N33296   2.196   5.041   2.743 -0.7257 -0.0134 -0.6964
  988MOL0     C33297   1.185   4.768   2.236  0.2294 -0.3014 -0.4683
  988MOL0     C33298   1.065   4.762   2.160  0.0377  0.5069  0.2169
  988MOL0     C33299   0.640   4.837   2.013  0.8965  1.1812 -0.8570
  988MOL0     C33300   0.542   4.804   2.115  0.1226  0.7312 -0.6732
  988MOL0     C33301   0.408   4.823   2.094 -0.3750 -0.6991  0.3568
  988MOL0     C33302   0.365   4.893   1.984 -0.0711  0.7156  0.6547
  988MOL0     O33303   0.224   4.915   1.978 -0.5101  0.2852  1.1082
  988MOL0     C33304   0.185   5.017   1.892  0.2380 -0.3017  0.3389
  988MOL0     C33305   0.040   5.067   1.932 -0.4483  0.0715  0.0735
  988MOL0     C33306  -0.016   5.195   1.873 -0.3937  0.5891  0.2421
  988MOL0     C33307  -0.029   5.179   1.713 -0.4393 -0.4723  0.5322
  988MOL0     C33308  -0.062   5.312   1.647 -0.5722 -0.7583 -0.6552
  988MOL0     C33309  -0.093   5.431   1.616 -0.3382  0.5189 -0.5937
  988MOL0     C33310   0.454   4.929   1.881  0.0808  1.0293  0.1363
  988MOL0     C33311   0.584   4.888   1.888  0.0465 -1.0715 -0.1862
  988MOL0     C33312   0.671   4.920   1.767 -0.1208  0.8389  0.8834
  988MOL0     H33313   0.839   4.801   2.421  0.3693 -0.7404  0.9836
  988MOL0     H33314   1.048   4.791   2.543 -1.7119  0.2023 -0.1012
  988MOL0     H33315   1.345   4.608   2.515 -2.0909 -1.9942 -4.5831
  988MOL0     H33316   1.418   4.665   2.363 -0.5713  0.7890 -0.4451
  988MOL0     H33317   1.591   4.666   2.560  1.8183  1.7300  2.4507
  988MOL0     H33318   1.491   4.787   2.635 -2.4050 -1.0144  0.6842
  988MOL0     H33319   1.533   4.920   2.410  1.5873  0.8597  0.2977
  988MOL0     H33320   1.644   4.793   2.363  3.3338  1.8432  1.2432
  988MOL0     H33321   1.757   4.984   2.462 -1.4516  1.4815  0.0945
  988MOL0     H33322   1.693   4.928   2.622  0.7873  1.2140  0.9643
  988MOL0     H33323   1.795   4.713   2.591 -0.2007  0.4977 -1.0987
  988MOL0     H33324   1.823   4.738   2.422 -1.1839 -0.5819 -0.4860
  988MOL0     H33325   1.992   4.915   2.485  0.9460  2.4547  1.8660
  988MOL0     H33326   1.939   4.902   2.661 -1.5915  1.7509 -1.0583
  988MOL0     H33327   2.087   4.690   2.487 -2.3400  0.8821 -1.3603
  988MOL0     H33328   2.032   4.668   2.656 -0.3339 -1.0168 -1.3631
  988MOL0     H33329   2.253   4.730   2.693 -2.7885 -1.9840 -1.4040
  988MOL0     H33330   2.263   4.860   2.574  1.5733 -0.1220  0.1356
  988MOL0     H33331   2.042   4.794   2.886  0.3415 -0.9423 -2.0481
  988MOL0     H33332   1.959   4.938   3.076  1.3806 -1.5091 -1.4273
  988MOL0     H33333   2.049   5.077   3.124  0.0358 -3.4966  1.2745
  988MOL0     H33334   1.878   5.218   2.997 -0.1057 -0.7216 -0.1056
  988MOL0     H33335   1.815   5.070   2.922 -1.4815 -0.1319  0.9971
  988MOL0     H33336   1.820   5.183   3.203 -1.1276 -0.5489  1.8799
  988MOL0     H33337   1.797   5.005   3.191 -0.5622  1.5779  1.8324
  988MOL0     H33338   1.619   5.223   3.073 -0.8712 -0.2458 -2.5477
  988MOL0     H33339   1.559   5.119   3.199  0.3579  2.1762 -0.8064
  988MOL0     H33340   1.488   4.929   2.794  1.4812  0.9852 -0.4505
  988MOL0     H33341   1.256   4.948   2.697  2.3703 -0.0796 -0.4946
  988MOL0     H33342   0.838   4.803   2.730  3.9903  1.6046 -0.1855
  988MOL0     H33343   0.600   4.799   2.622  0.6689 -1.0075  1.0751
  988MOL0     H33344   0.420   5.157   2.550 -0.6125  4.5341 -2.0709
  988MOL0     H33345   0.462   5.162   2.373 -0.5125 -1.4974 -0.8143
  988MOL0     H33346   0.292   5.007   2.319 -0.3260 -2.8605  2.1061
  988MOL0     H33347   0.225   4.998   2.474  3.2184 -4.3549 -1.2260
  988MOL0     H33348   0.202   5.278   2.450  0.2428 -1.3346  2.7652
  988MOL0     H33349   0.224   5.230   2.281  0.2278  0.2260  0.6649
  988MOL0     H33350  -0.005   5.150   2.444 -1.1663  1.6813 -0.5629
  988MOL0     H33351   0.026   5.079   2.294 -1.6585 -1.1780  1.5462
  988MOL0     H33352   0.009   5.344   2.203 -2.5914  1.4806 -1.4013
  988MOL0     H33353  -0.039   5.371   2.371 -0.0417  0.3395  0.5594
  988MOL0     H33354  -0.161   5.146   2.184 -1.8049  0.8644 -1.5628
  988MOL0     H33355  -0.230   5.208   2.333 -0.1783 -0.7074  0.3161
  988MOL0     H33356  -0.341   5.298   2.111 -0.7801 -1.8079  1.0111
  988MOL0     H33357  -0.189   5.408   2.111  0.5302 -0.9192 -1.4586
  988MOL0     H33358  -0.250   5.504   2.321 -0.0004  0.3204  0.0416
  988MOL0     H33359  -0.371   5.530   2.206 -0.0784  0.3306 -0.0853
  988MOL0     H33360   0.675   5.196   2.471 -3.9106  0.4790  1.0450
  988MOL0     H33361   0.910   5.182   2.577 -1.7516  2.0729  0.3906
  988MOL0     H33362   1.158   5.218   3.007 -0.8914 -0.0419 -0.4962
  988MOL0     H33363   1.395   5.178   3.110  0.2955 -2.3112 -0.0384
  988MOL0     H33364   1.278   4.775   2.180 -0.1894  2.0731 -0.9879
  988MOL0     H33365   1.065   4.761   2.051  4.5281  1.2234  0.0036
  988MOL0     H33366   0.572   4.771   2.214 -0.2677 -3.2826 -1.7366
  988MOL0     H33367   0.332   4.797   2.168 -2.2161 -0.7014 -1.4334
  988MOL0     H33368   0.195   4.978   1.791  0.3159  0.9151 -0.1327
  988MOL0     H33369   0.252   5.100   1.913  0.2858 -0.7757  2.3454
  988MOL0     H33370   0.025   5.073   2.040  0.3581 -1.5260  0.3041
  988MOL0     H33371  -0.030   4.988   1.902  2.0750 -2.8030  1.2729
  988MOL0     H33372   0.045   5.278   1.909 -1.1751  2.3256 -2.2101
  988MOL0     H33373  -0.118   5.218   1.906 -1.6476  0.7742 -3.3253
  988MOL0     H33374   0.056   5.137   1.658  0.8875  0.5763  1.7064
  988MOL0     H33375  -0.118   5.126   1.677 -1.5252  2.0109 -0.6439
  988MOL0     H33376  -0.104   5.536   1.603  1.1795  0.9116  0.9208
  988MOL0     H33377   0.427   4.969   1.783  1.2523 -0.2946 -0.7595
  988MOL0     H33378   0.714   4.825   1.734 -1.9699 -0.6879  2.6079
  988MOL0     H33379   0.621   4.953   1.676 -0.6183 -1.5889  0.2047
  988MOL0     H33380   0.750   4.986   1.804 -0.7729  2.0302  0.1849
  989MOL0     O33381   5.433   3.914  11.176  0.5639  0.1903 -0.1488
  989MOL0     C33382   5.337   3.869  11.245  0.2007 -0.1441  0.8614
  989MOL0     O33383   5.359   3.822  11.373 -0.4514 -0.1368  0.0766
  989MOL0     C33384   5.374   3.685  11.372 -0.1713  0.3446  0.2128
  989MOL0     C33385   5.361   3.633  11.500  0.1699  0.3920 -0.6794
  989MOL0     C33386   5.365   3.495  11.526  0.7982  0.1054  0.1058
  989MOL0     C33387   5.408   3.407  11.426  0.3140 -0.6120  0.4554
  989MOL0     O33388   5.419   3.272  11.447 -0.0349  0.1306  0.4981
  989MOL0     C33389   5.415   3.218  11.577 -0.4394  0.6452  0.7564
  989MOL0     C33390   5.551   3.244  11.650  0.2948 -0.4070 -0.4235
  989MOL0     C33391   5.673   3.165  11.587 -0.7962 -0.0644  0.1949
  989MOL0     C33392   5.793   3.155  11.678  0.5589  0.4246 -0.1160
  989MOL0     C33393   5.918   3.098  11.613  0.6457  0.1432  0.7693
  989MOL0     C33394   6.028   3.100  11.714  0.1184  0.6403  0.7217
  989MOL0     C33395   6.149   3.026  11.668 -1.0130 -0.2862 -0.3560
  989MOL0     C33396   6.288   3.073  11.730  0.4425 -0.6353  0.0059
  989MOL0     N33397   6.398   3.001  11.662 -0.9817  0.2758 -0.4930
  989MOL0     C33398   6.440   2.999  11.532 -0.0538  0.4058  0.0899
  989MOL0     C33399   6.562   2.945  11.528  0.3353  0.6361 -0.5882
  989MOL0     C33400   6.650   2.925  11.406  0.2600 -0.0333 -0.0236
  989MOL0     C33401   6.563   2.874  11.292  0.2988  1.1678  0.1982
  989MOL0     C33402   6.649   2.804  11.183 -0.3876 -0.5844  0.5478
  989MOL0     C33403   6.726   2.897  11.086 -0.1422  0.0868 -0.1068
  989MOL0     O33404   6.814   2.986  11.158  0.3090  0.2988  0.4945
  989MOL0     C33405   6.942   2.947  11.203 -0.4361 -0.5896  0.4456
  989MOL0     C33406   7.015   3.046  11.280 -0.4086 -0.2155  0.9864
  989MOL0     C33407   7.146   3.023  11.317  0.1568  1.0340  0.0069
  989MOL0     C33408   7.207   2.904  11.286 -0.3665 -0.1141  0.1488
  989MOL0     C33409   7.338   2.870  11.350 -0.5226 -0.3326 -0.4414
  989MOL0     O33410   7.395   2.749  11.314 -0.2060 -0.0956 -0.1639
  989MOL0     C33411   7.513   2.705  11.365 -0.5389 -0.3668  0.8596
  989MOL0     C33412   7.544   2.566  11.373 -0.2219  0.1251  0.8352
  989MOL0     C33413   7.663   2.514  11.431 -0.4710  0.6457 -0.3084
  989MOL0     C33414   7.753   2.607  11.476 -0.0264 -0.1874 -0.1923
  989MOL0     O33415   7.878   2.578  11.535  0.5101 -0.2908 -0.0739
  989MOL0     C33416   7.974   2.560  11.435 -0.3948 -0.2566 -0.3553
  989MOL0     C33417   8.091   2.484  11.485  0.4041 -0.2303  0.0114
  989MOL0     C33418   8.150   2.399  11.373  0.8684 -0.2207  0.3250
  989MOL0     C33419   8.232   2.279  11.428  0.5302  0.3080  0.2512
  989MOL0     C33420   8.245   2.175  11.314  0.0090  0.5792 -0.2764
  989MOL0     C33421   8.346   2.053  11.348 -0.1235 -0.2238  0.2439
  989MOL0     C33422   8.492   2.096  11.363  0.3653  0.0692 -0.6395
  989MOL0     C33423   8.592   1.994  11.400  0.5103 -0.5238  0.2394
  989MOL0    Cl33424   8.726   2.108  11.433 -0.1521  0.7752 -0.2158
  989MOL0     C33425   7.727   2.745  11.472  0.0940  0.0929  0.0542
  989MOL0     C33426   7.611   2.793  11.408  0.3958  0.2008  0.2178
  989MOL0     O33427   7.375   2.946  11.442 -0.1520  0.7048 -0.3334
  989MOL0     C33428   7.134   2.810  11.209  0.0076 -0.2495  0.3920
  989MOL0     C33429   7.004   2.826  11.169 -0.2217 -1.0256 -0.3890
  989MOL0     N33430   6.601   2.921  11.658 -0.8289  0.3286  0.6291
  989MOL0     N33431   6.499   2.943  11.733  0.1147  0.4263  0.3958
  989MOL0     C33432   5.432   3.464  11.300  1.1613  0.5588  1.0184
  989MOL0     C33433   5.412   3.601  11.269 -0.9187  0.8895  0.9106
  989MOL0     C33434   5.197   3.874  11.200 -0.6497  1.4898  0.3715
  989MOL0     C33435   5.091   3.826  11.282  0.4319 -0.0111 -0.1119
  989MOL0     C33436   4.959   3.820  11.236 -0.1357 -0.9142 -0.6102
  989MOL0     C33437   4.925   3.873  11.120 -0.0139  0.1524 -0.9618
  989MOL0     O33438   4.786   3.866  11.095 -0.5844  0.2419 -0.5979
  989MOL0     C33439   4.730   3.964  11.013  0.0512  0.0937  0.2558
  989MOL0     C33440   4.580   3.985  11.041 -0.4340  0.0368  0.8069
  989MOL0     C33441   4.542   4.048  11.171 -0.1512 -0.3013 -0.5514
  989MOL0     C33442   4.415   3.990  11.235 -0.2459 -0.1645  1.0373
  989MOL0     C33443   4.298   4.024  11.148 -0.2380  0.2645 -0.5427
  989MOL0     C33444   4.203   4.027  11.072  0.5547 -0.5195  0.2292
  989MOL0     C33445   5.029   3.923  11.034  0.2905 -0.6373  0.2148
  989MOL0     C33446   5.161   3.925  11.072  0.2650 -0.0647  0.1068
  989MOL0     C33447   5.258   3.975  10.978 -0.6642 -0.2822  0.0662
  989MOL0     H33448   5.328   3.700  11.579  0.9578 -0.5724  0.4977
  989MOL0     H33449   5.339   3.464  11.626  1.9295 -2.5418 -0.3365
  989MOL0     H33450   5.328   3.246  11.638 -0.8335  1.7440 -0.2742
  989MOL0     H33451   5.416   3.110  11.561  2.8427  0.5372  1.0877
  989MOL0     H33452   5.537   3.218  11.755  0.1453 -2.5256 -0.9201
  989MOL0     H33453   5.581   3.348  11.636 -0.4112 -0.4116 -2.1669
  989MOL0     H33454   5.720   3.216  11.502  1.7937 -2.0201  0.3539
  989MOL0     H33455   5.643   3.062  11.567 -0.8590  0.1918 -1.1276
  989MOL0     H33456   5.817   3.250  11.726  2.1556 -0.7806  1.6232
  989MOL0     H33457   5.761   3.088  11.757  1.9795  0.3620  0.4401
  989MOL0     H33458   5.902   2.994  11.583  0.5426  0.9283 -2.2324
  989MOL0     H33459   5.946   3.158  11.526  0.8876 -0.0562  0.7078
  989MOL0     H33460   6.051   3.207  11.720  1.4595  0.3856  0.2634
  989MOL0     H33461   5.999   3.065  11.814  0.4491 -2.8203 -0.2675
  989MOL0     H33462   6.154   3.031  11.559 -2.4481 -1.1172 -0.4943
  989MOL0     H33463   6.129   2.921  11.695  2.3772 -1.1890 -0.9528
  989MOL0     H33464   6.312   3.177  11.708 -0.7054 -0.1912  0.7739
  989MOL0     H33465   6.289   3.063  11.839 -3.3231 -0.3743  0.1902
  989MOL0     H33466   6.382   3.035  11.448 -0.7992  1.0871  0.8808
  989MOL0     H33467   6.698   3.017  11.373 -1.2990 -0.2164 -3.1965
  989MOL0     H33468   6.717   2.845  11.439 -0.9854 -1.2678 -0.3600
  989MOL0     H33469   6.476   2.818  11.326 -0.4646  1.2541 -1.5204
  989MOL0     H33470   6.524   2.963  11.240  1.4747  1.1606 -0.7257
  989MOL0     H33471   6.589   2.736  11.121 -2.4302  0.9950  0.6671
  989MOL0     H33472   6.724   2.755  11.246  0.9863  1.2683  0.4467
  989MOL0     H33473   6.653   2.959  11.034  1.1500  2.4139  0.7343
  989MOL0     H33474   6.783   2.839  11.013 -0.9832 -2.4939  1.1535
  989MOL0     H33475   6.950   3.130  11.302 -0.0772 -0.2037  1.9683
  989MOL0     H33476   7.184   3.098  11.386 -1.7814  1.6343  0.4959
  989MOL0     H33477   7.461   2.501  11.348 -1.4488  0.9801  2.5048
  989MOL0     H33478   7.674   2.406  11.433  0.0210  0.6102 -2.4271
  989MOL0     H33479   7.920   2.510  11.353  1.1656 -2.3667 -0.1717
  989MOL0     H33480   8.006   2.657  11.396  0.1853 -0.6917 -0.9810
  989MOL0     H33481   8.164   2.554  11.526 -0.7904 -0.3444  2.6102
  989MOL0     H33482   8.055   2.421  11.567 -2.4933 -0.4032 -1.2766
  989MOL0     H33483   8.069   2.348  11.320  0.2426 -0.3918  1.4120
  989MOL0     H33484   8.208   2.462  11.304  0.3707 -0.1850 -0.0674
  989MOL0     H33485   8.176   2.227  11.506 -0.3137 -0.8217 -1.0576
  989MOL0     H33486   8.330   2.314  11.461  1.2031  2.1157 -3.1347
  989MOL0     H33487   8.282   2.221  11.222  1.4052  0.9799  0.4656
  989MOL0     H33488   8.145   2.139  11.289  0.2516 -1.2861  1.1842
  989MOL0     H33489   8.310   2.004  11.440  1.0435 -1.6345 -0.0254
  989MOL0     H33490   8.332   1.986  11.262  1.5568  2.3315 -2.1584
  989MOL0     H33491   8.505   2.167  11.445  0.7226 -0.7301  0.0089
  989MOL0     H33492   8.517   2.141  11.266 -0.7039 -0.6600 -1.2832
  989MOL0     H33493   8.568   1.945  11.495 -3.0153  1.5166  0.6041
  989MOL0     H33494   8.616   1.927  11.317 -1.1946  0.2711 -0.9679
  989MOL0     H33495   7.798   2.818  11.510 -1.0665  0.4832  1.5638
  989MOL0     H33496   7.600   2.900  11.397 -0.4562  0.1219  0.1791
  989MOL0     H33497   7.183   2.721  11.171 -0.1863 -0.1123 -0.1842
  989MOL0     H33498   6.957   2.756  11.100  0.2294 -0.3195 -1.4398
  989MOL0     H33499   5.464   3.394  11.223 -1.1551 -0.1626  0.6314
  989MOL0     H33500   5.422   3.638  11.167 -1.1876 -0.0545  0.5267
  989MOL0     H33501   5.113   3.789  11.382 -1.5607  2.4755  1.3736
  989MOL0     H33502   4.883   3.790  11.307 -1.6813  0.0646 -1.7926
  989MOL0     H33503   4.734   3.934  10.908  2.1600  0.6966  0.1014
  989MOL0     H33504   4.791   4.055  11.016  2.7704 -1.5465 -0.8320
  989MOL0     H33505   4.528   3.890  11.025  0.9257 -0.3417 -2.1914
  989MOL0     H33506   4.552   4.051  10.958  0.5263 -1.3273 -0.6783
  989MOL0     H33507   4.541   4.157  11.172 -1.1054 -0.3025  0.2138
  989MOL0     H33508   4.625   4.037  11.241 -0.2136 -1.7136 -0.6785
  989MOL0     H33509   4.416   3.881  11.247 -1.1767 -0.2782  0.2402
  989MOL0     H33510   4.395   4.039  11.331 -0.7699  0.7090  0.4898
  989MOL0     H33511   4.132   4.029  10.991  1.4251  0.1730 -0.5354
  989MOL0     H33512   5.009   3.969  10.939  0.6184  0.1042  0.4966
  989MOL0     H33513   5.336   3.899  10.962  1.9288  2.1661  0.4373
  989MOL0     H33514   5.213   3.983  10.878  1.9338  0.0945 -1.1706
  989MOL0     H33515   5.317   4.063  11.004  1.6254 -1.7095  0.0723
  990MOL0     O33516   6.805   5.941   0.593  0.7194  0.1700 -0.3112
  990MOL0     C33517   6.848   6.015   0.509 -0.8021  0.4590  1.2138
  990MOL0     O33518   6.800   6.135   0.478  0.3757  0.3250 -0.3227
  990MOL0     C33519   6.696   6.176   0.550 -1.0009  0.0659 -0.2202
  990MOL0     C33520   6.576   6.191   0.491 -0.3997 -0.7519 -0.2544
  990MOL0     C33521   6.470   6.242   0.561 -0.5494 -0.4292  0.3197
  990MOL0     C33522   6.489   6.291   0.694 -0.2293 -0.4370 -0.1503
  990MOL0     O33523   6.403   6.365   0.776  1.1615  0.1884  0.5344
  990MOL0     C33524   6.269   6.407   0.734  0.4734 -0.0791  0.0173
  990MOL0     C33525   6.213   6.506   0.839  0.0810  0.2596  0.3618
  990MOL0     C33526   6.093   6.583   0.777  0.0293 -0.3318  0.4066
  990MOL0     C33527   6.139   6.706   0.688  0.2096 -0.1327 -0.4591
  990MOL0     C33528   6.008   6.782   0.637  0.6257  0.6710  0.2246
  990MOL0     C33529   6.044   6.874   0.522  0.5264  0.5647 -0.4479
  990MOL0     C33530   6.143   6.994   0.566 -0.9794  1.1684 -0.2119
  990MOL0     C33531   6.272   6.999   0.493 -0.9909 -0.5049  0.1406
  990MOL0     N33532   6.375   6.938   0.565  0.2081  0.4280  0.4920
  990MOL0     C33533   6.413   6.811   0.522 -0.6896 -0.0426  0.6496
  990MOL0     C33534   6.519   6.783   0.599 -0.9075 -0.7613  0.5438
  990MOL0     C33535   6.602   6.657   0.606 -0.2252 -0.6631 -0.1967
  990MOL0     C33536   6.753   6.689   0.630 -0.3175  0.4524  0.0194
  990MOL0     C33537   6.819   6.573   0.700  0.0738 -0.1353 -0.4957
  990MOL0     C33538   6.968   6.599   0.709  0.0065 -0.0150  0.4642
  990MOL0     O33539   6.994   6.722   0.791  0.1288  0.3485  0.5305
  990MOL0     C33540   7.125   6.755   0.813  0.2184 -0.0564 -0.1101
  990MOL0     C33541   7.150   6.846   0.920 -0.2315  0.4112 -0.0920
  990MOL0     C33542   7.283   6.881   0.967  0.8263  0.2112 -0.3728
  990MOL0     C33543   7.393   6.822   0.911  0.6036 -0.0599  0.0438
  990MOL0     C33544   7.525   6.850   0.947  0.4612  0.0539 -0.1691
  990MOL0     O33545   7.539   6.889   1.079  0.0984  0.4739 -0.7436
  990MOL0     C33546   7.668   6.881   1.126  0.3796  0.4006  0.2892
  990MOL0     C33547   7.734   7.000   1.144 -0.3554  0.1282  0.1388
  990MOL0     C33548   7.865   6.996   1.180  0.2926  0.0112 -0.2142
  990MOL0     C33549   7.936   6.876   1.192  0.2788 -0.0764  0.4442
  990MOL0     O33550   8.069   6.863   1.216 -0.2065 -0.5937 -0.0897
  990MOL0     C33551   8.144   6.971   1.269 -0.0702  0.3928  0.1367
  990MOL0     C33552   8.278   6.920   1.310  0.3148 -0.2116 -0.1286
  990MOL0     C33553   8.378   7.022   1.349 -0.8188 -0.2053 -0.4958
  990MOL0     C33554   8.509   6.946   1.384 -0.2133  0.7681  0.1877
  990MOL0     C33555   8.614   7.043   1.423 -0.1407  0.3224 -0.4718
  990MOL0     C33556   8.756   6.980   1.433  0.2838  0.5181  0.0860
  990MOL0     C33557   8.869   7.075   1.410  0.7639 -0.4627  0.2091
  990MOL0     C33558   9.008   7.017   1.454  0.2169 -0.0102  0.0924
  990MOL0    Cl33559   9.135   7.137   1.434  0.2935  0.5621  0.1068
  990MOL0     C33560   7.871   6.759   1.162  0.2230  0.0943  0.7256
  990MOL0     C33561   7.733   6.764   1.129 -0.0072 -0.1242  0.1569
  990MOL0     O33562   7.618   6.829   0.864  0.2404 -0.2665 -0.6341
  990MOL0     C33563   7.364   6.736   0.799  0.8990  0.3902 -0.1792
  990MOL0     C33564   7.235   6.702   0.754 -0.3099  0.5800 -0.5387
  990MOL0     N33565   6.550   6.889   0.682  0.1097 -0.4135  0.5716
  990MOL0     N33566   6.464   6.987   0.656 -0.1980  0.5053 -0.3017
  990MOL0     C33567   6.610   6.272   0.759  0.0947  0.1477 -1.0544
  990MOL0     C33568   6.713   6.206   0.684 -0.2586  0.1822 -0.2667
  990MOL0     C33569   6.970   5.986   0.419 -0.1861 -0.4005 -0.0416
  990MOL0     C33570   6.960   6.036   0.288 -0.7788  0.9838 -0.1522
  990MOL0     C33571   7.065   6.012   0.200 -0.2066 -0.3231  0.0235
  990MOL0     C33572   7.171   5.925   0.237 -0.8328  0.1861  0.1786
  990MOL0     O33573   7.256   5.904   0.126 -0.3221 -0.1283 -0.1979
  990MOL0     C33574   7.387   5.895   0.163  0.0118 -0.4881 -0.9220
  990MOL0     C33575   7.453   6.032   0.200  0.0350 -0.7808  0.6779
  990MOL0     C33576   7.457   6.132   0.084  0.1499  0.0576 -0.3464
  990MOL0     C33577   7.491   6.270   0.133 -0.7120 -0.4824 -0.3309
  990MOL0     C33578   7.633   6.308   0.125 -1.2516  0.4114  0.1495
  990MOL0     C33579   7.746   6.353   0.118 -0.3170 -0.6002 -0.6400
  990MOL0     C33580   7.184   5.874   0.365 -0.3221 -0.0033  0.0518
  990MOL0     C33581   7.081   5.912   0.454 -0.5477 -0.3934 -0.3840
  990MOL0     C33582   7.102   5.857   0.597  0.1034 -0.3760  0.5234
  990MOL0     H33583   6.566   6.163   0.387  1.7795  0.3547 -0.8211
  990MOL0     H33584   6.376   6.259   0.509 -0.8156  3.3890  1.6750
  990MOL0     H33585   6.273   6.443   0.631  2.2169 -1.3505 -0.4000
  990MOL0     H33586   6.211   6.314   0.743  1.1032 -0.4056  0.7961
  990MOL0     H33587   6.289   6.582   0.858 -0.6563  1.0609  0.1349
  990MOL0     H33588   6.181   6.449   0.927 -0.3060  0.1419  0.1474
  990MOL0     H33589   6.041   6.619   0.866 -0.6899 -1.7976  0.6106
  990MOL0     H33590   6.019   6.522   0.725 -1.3557  2.0080 -0.4981
  990MOL0     H33591   6.206   6.773   0.743 -0.3094 -0.5296  0.6696
  990MOL0     H33592   6.192   6.671   0.598 -0.9916  1.0916 -1.6873
  990MOL0     H33593   5.938   6.715   0.586  0.2853  1.5690 -0.5204
  990MOL0     H33594   5.954   6.835   0.715 -3.1200 -1.4366 -0.7115
  990MOL0     H33595   6.093   6.816   0.443 -1.3201  0.7757 -1.7985
  990MOL0     H33596   5.960   6.931   0.483  1.2696  1.6932 -0.4581
  990MOL0     H33597   6.167   6.978   0.671  4.0661  1.7453 -1.0366
  990MOL0     H33598   6.087   7.086   0.545 -2.2881 -0.2994 -3.7797
  990MOL0     H33599   6.260   6.948   0.397 -1.3632 -1.9813  0.9307
  990MOL0     H33600   6.283   7.104   0.467 -1.4720 -0.9207 -1.9061
  990MOL0     H33601   6.367   6.742   0.452 -0.2426  2.0538 -1.8389
  990MOL0     H33602   6.565   6.596   0.689 -0.8350 -1.2539 -0.8822
  990MOL0     H33603   6.584   6.603   0.513  1.2012  2.0020 -2.1730
  990MOL0     H33604   6.793   6.704   0.529 -0.1599  1.8527  0.2608
  990MOL0     H33605   6.760   6.780   0.691  1.5870  0.6872 -0.4992
  990MOL0     H33606   6.797   6.477   0.653 -0.9455  0.4023 -1.1626
  990MOL0     H33607   6.780   6.575   0.802  2.5750  0.5498  0.5064
  990MOL0     H33608   7.018   6.622   0.615  0.6429 -0.1305  0.7674
  990MOL0     H33609   7.010   6.514   0.763  1.5027  1.3583  1.5834
  990MOL0     H33610   7.062   6.885   0.970  0.5707  0.2756  1.5031
  990MOL0     H33611   7.298   6.947   1.052 -1.2815 -2.1082  1.9959
  990MOL0     H33612   7.691   7.099   1.142 -0.4318  0.0908 -0.6877
  990MOL0     H33613   7.909   7.092   1.205 -2.0404  0.9071  0.7481
  990MOL0     H33614   8.169   7.038   1.186 -1.3664 -2.7726 -3.0510
  990MOL0     H33615   8.089   7.014   1.354 -3.2770 -0.5376 -1.3064
  990MOL0     H33616   8.264   6.857   1.398  2.6580  0.8597  1.0822
  990MOL0     H33617   8.316   6.855   1.230 -1.0065 -1.2226  0.0389
  990MOL0     H33618   8.389   7.096   1.269  1.2618 -1.2161 -1.2345
  990MOL0     H33619   8.364   7.077   1.443  1.5881 -1.0256  0.4299
  990MOL0     H33620   8.540   6.898   1.290  0.7466  0.9579  0.3916
  990MOL0     H33621   8.479   6.870   1.457 -1.6198  0.0164 -1.1250
  990MOL0     H33622   8.596   7.093   1.519 -0.1780 -0.4777 -0.0572
  990MOL0     H33623   8.615   7.124   1.349 -0.3584 -0.8682 -1.8044
  990MOL0     H33624   8.759   6.949   1.538  0.4405  0.4750  0.0695
  990MOL0     H33625   8.764   6.896   1.363  0.0266  0.8242 -0.3186
  990MOL0     H33626   8.844   7.167   1.463 -1.8325 -1.1099  0.2471
  990MOL0     H33627   8.864   7.092   1.302  2.9319  0.6612  0.2282
  990MOL0     H33628   9.012   6.991   1.560 -0.5310 -0.4089  0.0304
  990MOL0     H33629   9.030   6.933   1.387 -1.3276 -0.3237 -0.0534
  990MOL0     H33630   7.930   6.670   1.176  0.8874  0.3055 -0.5768
  990MOL0     H33631   7.673   6.676   1.108 -1.4264  1.2404 -1.8981
  990MOL0     H33632   7.445   6.691   0.742  3.4912 -1.0722  4.1939
  990MOL0     H33633   7.211   6.642   0.667 -1.8615 -1.2277  1.0606
  990MOL0     H33634   6.624   6.308   0.860 -0.9428  0.6126 -1.0676
  990MOL0     H33635   6.811   6.193   0.729  0.0279 -1.5648 -1.3260
  990MOL0     H33636   6.868   6.071   0.242 -0.8246 -0.7154 -1.4345
  990MOL0     H33637   7.058   6.036   0.094  2.0449 -0.0522 -0.1071
  990MOL0     H33638   7.439   5.846   0.081  2.7368 -1.2080  1.0807
  990MOL0     H33639   7.404   5.836   0.254 -0.0782  0.5212 -0.2315
  990MOL0     H33640   7.552   6.021   0.243 -0.6613 -2.6971  1.9416
  990MOL0     H33641   7.407   6.078   0.288  1.8058  2.0812  0.2300
  990MOL0     H33642   7.359   6.128   0.034  0.0316 -0.1879 -0.0959
  990MOL0     H33643   7.527   6.104   0.004  1.2073 -3.3536  1.5414
  990MOL0     H33644   7.425   6.344   0.087 -0.1571  1.7881  2.2312
  990MOL0     H33645   7.462   6.266   0.238  2.4472 -3.7479  0.6383
  990MOL0     H33646   7.849   6.376   0.101 -0.3840  1.8250  1.6503
  990MOL0     H33647   7.263   5.807   0.399  0.8648  2.0832  1.6382
  990MOL0     H33648   7.095   5.945   0.662  0.2050  0.9019 -1.1435
  990MOL0     H33649   7.027   5.780   0.616  2.1531 -2.0823  2.4087
  990MOL0     H33650   7.192   5.799   0.623 -0.2825 -0.4323  1.7920
  991MOL0     O33651   6.108   5.836   7.382 -0.2886 -0.0849  0.7008
  991MOL0     C33652   6.090   5.713   7.374  0.9718  1.1706  0.1011
  991MOL0     O33653   6.178   5.622   7.412  0.3021  0.5263 -0.4633
  991MOL0     C33654   6.306   5.667   7.419  0.0397  0.0030 -0.3366
  991MOL0     C33655   6.388   5.657   7.305  0.0089 -0.8253  0.3483
  991MOL0     C33656   6.517   5.708   7.310 -0.0345  0.0116 -0.8942
  991MOL0     C33657   6.564   5.774   7.425 -0.3825 -0.4223  0.4294
  991MOL0     O33658   6.695   5.815   7.420 -0.1884  0.3808  0.5746
  991MOL0     C33659   6.728   5.918   7.505 -0.4439 -0.7860 -0.6415
  991MOL0     C33660   6.866   5.983   7.491  0.7069 -0.6425  0.2102
  991MOL0     C33661   6.873   6.067   7.368 -1.0379  0.5409  0.5426
  991MOL0     C33662   6.923   5.987   7.244 -0.8247  0.7438  0.3403
  991MOL0     C33663   6.854   6.031   7.112 -0.2091 -0.4946 -0.0945
  991MOL0     C33664   6.935   5.988   6.993 -0.1683  0.2598 -0.3164
  991MOL0     C33665   6.835   5.971   6.878 -0.3437  0.7174  0.1729
  991MOL0     C33666   6.917   5.973   6.746 -0.0940 -0.0346 -0.5328
  991MOL0     N33667   6.835   5.942   6.629 -0.0977 -0.3235 -0.0795
  991MOL0     C33668   6.790   5.820   6.586  0.1499 -0.2764  0.5410
  991MOL0     C33669   6.685   5.855   6.509  0.3527  0.2077  0.5642
  991MOL0     C33670   6.589   5.776   6.421  0.2360 -1.3304  0.3919
  991MOL0     C33671   6.455   5.775   6.489 -0.1011  0.3618 -0.5371
  991MOL0     C33672   6.374   5.665   6.423 -0.1808 -0.2793  0.9354
  991MOL0     C33673   6.243   5.628   6.501 -0.3470  0.1056  0.9934
  991MOL0     O33674   6.164   5.565   6.398 -0.4730  0.2671 -0.3890
  991MOL0     C33675   6.028   5.540   6.420  0.4021  0.3526 -0.2170
  991MOL0     C33676   5.950   5.496   6.311 -0.4432  0.2504 -1.2086
  991MOL0     C33677   5.809   5.492   6.324 -0.4773 -1.0202  0.0228
  991MOL0     C33678   5.746   5.510   6.447  0.4757 -0.0014 -0.6024
  991MOL0     C33679   5.599   5.488   6.467  0.5682 -0.7025  0.3431
  991MOL0     O33680   5.527   5.468   6.346 -0.3121  0.1257 -0.1858
  991MOL0     C33681   5.391   5.476   6.349  0.2836 -0.4254  0.6076
  991MOL0     C33682   5.322   5.391   6.264  0.0626  0.4298 -0.3866
  991MOL0     C33683   5.182   5.385   6.253  0.0825  0.5094 -0.4914
  991MOL0     C33684   5.104   5.479   6.323 -0.3635 -1.0246 -0.0545
  991MOL0     O33685   4.966   5.492   6.304 -0.0567 -0.7586 -0.8629
  991MOL0     C33686   4.909   5.621   6.324  1.1309 -0.9996 -0.0565
  991MOL0     C33687   4.780   5.629   6.248 -0.2581  0.0712 -0.0518
  991MOL0     C33688   4.730   5.771   6.256 -0.3415  0.3912 -0.2507
  991MOL0     C33689   4.596   5.803   6.182 -0.6462  0.0571  0.4884
  991MOL0     C33690   4.530   5.941   6.223 -0.7759  0.5777  0.3614
  991MOL0     C33691   4.398   5.965   6.153 -0.1221 -0.4122  0.6358
  991MOL0     C33692   4.316   6.077   6.225 -0.1288 -0.0867 -0.6795
  991MOL0     C33693   4.161   6.070   6.178 -0.2746  0.3185 -0.5659
  991MOL0    Cl33694   4.149   6.105   6.005  0.5380  0.2396  0.0250
  991MOL0     C33695   5.173   5.578   6.409  0.1622 -0.1449 -0.4196
  991MOL0     C33696   5.316   5.572   6.417  0.2076 -0.0332 -0.9602
  991MOL0     O33697   5.550   5.493   6.583  0.1300  0.1183 -0.4098
  991MOL0     C33698   5.827   5.541   6.561  0.0424  0.0535  0.4077
  991MOL0     C33699   5.969   5.554   6.551 -0.2811  1.0111  0.0783
  991MOL0     N33700   6.674   5.991   6.488 -0.6188 -0.6457  0.4499
  991MOL0     N33701   6.766   6.039   6.561  0.2767  0.5164  0.0107
  991MOL0     C33702   6.488   5.774   7.546  0.5760 -0.1769  0.2490
  991MOL0     C33703   6.359   5.718   7.540 -0.1671 -0.0227 -0.2051
  991MOL0     C33704   5.957   5.670   7.330  0.0733  0.6036 -0.1625
  991MOL0     C33705   5.944   5.534   7.299 -0.1161  0.2296  0.0233
  991MOL0     C33706   5.822   5.480   7.269  0.1905  0.2125 -0.6933
  991MOL0     C33707   5.710   5.554   7.268  1.1112 -0.8022  0.1497
  991MOL0     O33708   5.579   5.496   7.248 -0.4121 -1.0508  0.3386
  991MOL0     C33709   5.560   5.361   7.289 -0.0970  0.9230 -0.5964
  991MOL0     C33710   5.416   5.320   7.308  0.0400 -0.5958  0.2804
  991MOL0     C33711   5.329   5.353   7.180 -0.2724 -0.1064  0.2242
  991MOL0     C33712   5.188   5.376   7.222  0.1109 -0.6029  0.0480
  991MOL0     C33713   5.126   5.273   7.303  0.6729  0.3876 -0.2479
  991MOL0     C33714   5.070   5.177   7.363  0.1860  0.0159 -0.5289
  991MOL0     C33715   5.727   5.687   7.277 -0.2128  0.5811 -0.7400
  991MOL0     C33716   5.841   5.749   7.319  0.3652  0.3842  0.1027
  991MOL0     C33717   5.833   5.892   7.367 -0.5944 -0.5668 -0.1605
  991MOL0     H33718   6.353   5.610   7.214  3.7663  0.8052 -2.1510
  991MOL0     H33719   6.575   5.689   7.220  1.9761  0.0746  0.3381
  991MOL0     H33720   6.651   5.993   7.484  0.1653 -0.4751 -1.8693
  991MOL0     H33721   6.721   5.880   7.607  0.7302  0.7478  0.0457
  991MOL0     H33722   6.944   5.906   7.491  1.7137  0.3514  0.7244
  991MOL0     H33723   6.891   6.057   7.568  1.2801  1.0903 -1.5428
  991MOL0     H33724   6.937   6.155   7.378  0.4044 -0.1662 -1.5371
  991MOL0     H33725   6.772   6.107   7.363 -0.1669  2.9356  0.8686
  991MOL0     H33726   7.032   5.995   7.239 -0.7490  0.0065  0.6756
  991MOL0     H33727   6.908   5.879   7.250  3.1564 -0.1222 -1.5975
  991MOL0     H33728   6.749   6.000   7.115 -1.2116  2.5313 -0.7744
  991MOL0     H33729   6.853   6.140   7.107  0.2031 -0.3905  1.5292
  991MOL0     H33730   7.012   6.061   6.967  1.7528 -1.9997 -1.3268
  991MOL0     H33731   6.976   5.891   7.021 -1.2691  0.5091  2.4103
  991MOL0     H33732   6.760   6.050   6.881  1.4915  2.6572 -1.4715
  991MOL0     H33733   6.792   5.870   6.878  1.2760 -0.1153 -2.7797
  991MOL0     H33734   6.970   6.068   6.742 -2.3975  1.8076  4.4769
  991MOL0     H33735   6.995   5.897   6.747 -0.5378 -0.5476 -2.0016
  991MOL0     H33736   6.820   5.722   6.623  2.6114  0.0232 -0.4603
  991MOL0     H33737   6.567   5.828   6.327  1.3042 -1.9464 -0.2183
  991MOL0     H33738   6.635   5.682   6.389  3.5289  0.0820  0.4850
  991MOL0     H33739   6.470   5.737   6.590  0.2317 -1.7318 -1.3069
  991MOL0     H33740   6.415   5.876   6.487  0.4902  0.6096 -2.2100
  991MOL0     H33741   6.429   5.571   6.417  0.3470  0.1259 -1.7067
  991MOL0     H33742   6.354   5.718   6.330 -0.2492  0.2894  1.2686
  991MOL0     H33743   6.208   5.729   6.526 -0.4469  0.3799 -0.1992
  991MOL0     H33744   6.263   5.567   6.589 -0.3452  0.2029  1.0603
  991MOL0     H33745   5.998   5.481   6.215 -0.0562  0.0756 -0.9890
  991MOL0     H33746   5.771   5.480   6.224  4.4274 -0.3850 -2.2130
  991MOL0     H33747   5.387   5.328   6.204 -1.7443  1.2998 -3.4809
  991MOL0     H33748   5.137   5.297   6.209  0.8877  0.0663 -0.4549
  991MOL0     H33749   4.896   5.641   6.431  1.9038 -1.5661  0.1507
  991MOL0     H33750   4.980   5.698   6.292 -0.6749 -0.6393 -3.7181
  991MOL0     H33751   4.792   5.599   6.143 -2.3471 -2.1266  0.2415
  991MOL0     H33752   4.700   5.555   6.260  0.1811 -0.6545 -1.3592
  991MOL0     H33753   4.713   5.793   6.362 -1.1890  0.3807 -0.3772
  991MOL0     H33754   4.810   5.836   6.220  2.1544 -0.5378  3.0715
  991MOL0     H33755   4.526   5.723   6.206 -1.0252  0.4686  0.7565
  991MOL0     H33756   4.610   5.785   6.075 -0.5932  1.1310  0.3053
  991MOL0     H33757   4.597   6.023   6.198 -0.5592  0.1188 -0.6290
  991MOL0     H33758   4.513   5.955   6.330  0.5965  3.0907  0.3181
  991MOL0     H33759   4.404   5.988   6.046 -0.0677 -0.6147  0.5951
  991MOL0     H33760   4.346   5.869   6.157 -1.0566 -0.0284 -1.1188
  991MOL0     H33761   4.366   6.173   6.212  2.0532 -1.2409 -1.3539
  991MOL0     H33762   4.308   6.061   6.333 -4.6572 -1.7114 -1.0229
  991MOL0     H33763   4.109   5.975   6.195 -0.5804  0.5670 -0.0834
  991MOL0     H33764   4.113   6.150   6.235 -1.4690 -0.7838  0.0367
  991MOL0     H33765   5.126   5.649   6.477 -0.1037 -3.3837  3.1723
  991MOL0     H33766   5.365   5.649   6.475 -0.2983 -1.6258  1.7521
  991MOL0     H33767   5.785   5.564   6.658  0.5691  1.0324  0.4138
  991MOL0     H33768   6.030   5.576   6.637  1.8084 -1.0156 -0.7736
  991MOL0     H33769   6.523   5.819   7.638  1.0085 -0.3924  0.1950
  991MOL0     H33770   6.295   5.736   7.625  0.9761  0.6119  0.5407
  991MOL0     H33771   6.024   5.463   7.316 -0.4186  0.3873  2.5417
  991MOL0     H33772   5.827   5.374   7.251 -0.9546  0.0390 -0.0746
  991MOL0     H33773   5.616   5.343   7.381  1.2297 -1.4251 -1.7588
  991MOL0     H33774   5.608   5.293   7.218 -2.1402  0.7195 -1.8486
  991MOL0     H33775   5.387   5.382   7.393  0.6401 -2.7276  2.1236
  991MOL0     H33776   5.417   5.214   7.336  1.0692 -0.1735  1.9812
  991MOL0     H33777   5.343   5.263   7.119 -0.4174  0.0873 -0.0943
  991MOL0     H33778   5.357   5.445   7.129 -4.5645  0.1087 -2.2479
  991MOL0     H33779   5.168   5.476   7.260 -1.1336  0.3247 -2.7893
  991MOL0     H33780   5.139   5.372   7.124 -2.2599  2.0886  0.9940
  991MOL0     H33781   5.032   5.084   7.401  1.6610 -0.4557 -0.1452
  991MOL0     H33782   5.641   5.752   7.263  0.7841  2.3200  0.7697
  991MOL0     H33783   5.879   5.959   7.295 -1.8204  0.2442 -0.2171
  991MOL0     H33784   5.729   5.924   7.363 -1.2894 -2.7577 -4.1016
  991MOL0     H33785   5.855   5.902   7.474 -2.7239 -1.7203  0.4497
  992MOL0     O33786   7.713   2.100   4.493 -0.0658 -0.0659  0.4300
  992MOL0     C33787   7.658   2.197   4.542 -0.7045 -0.8071 -0.7144
  992MOL0     O33788   7.724   2.310   4.585 -0.3428  0.6233 -0.0946
  992MOL0     C33789   7.858   2.321   4.557  0.6900 -0.5194 -0.0190
  992MOL0     C33790   7.888   2.402   4.449 -0.2132  0.7808 -0.0216
  992MOL0     C33791   8.022   2.420   4.416  0.1922  0.5076  0.6843
  992MOL0     C33792   8.125   2.379   4.508  0.0765  0.1440  0.3467
  992MOL0     O33793   8.259   2.408   4.491  0.7258  0.0569  0.0415
  992MOL0     C33794   8.312   2.415   4.359  0.0394 -0.5784  0.8941
  992MOL0     C33795   8.463   2.379   4.340  0.5632  0.2479 -0.8770
  992MOL0     C33796   8.514   2.368   4.198 -0.0120 -0.4504 -0.7135
  992MOL0     C33797   8.435   2.278   4.107 -0.7568  0.8654 -0.4663
  992MOL0     C33798   8.504   2.279   3.973 -0.2075  0.9234  0.0519
  992MOL0     C33799   8.514   2.418   3.904 -0.7685  0.3033  0.9124
  992MOL0     C33800   8.566   2.411   3.761  1.5017  0.5943 -0.6044
  992MOL0     C33801   8.705   2.350   3.746  0.5601  0.3808  0.0782
  992MOL0     N33802   8.799   2.422   3.833  0.0294  0.1859  0.6020
  992MOL0     C33803   8.890   2.521   3.794 -0.3098 -0.4308  0.8571
  992MOL0     C33804   8.969   2.536   3.904  0.0752  0.1221  0.8456
  992MOL0     C33805   9.081   2.632   3.898 -0.3579  0.0810  0.3114
  992MOL0     C33806   9.209   2.555   3.892  0.4475  0.1064  1.0771
  992MOL0     C33807   9.240   2.492   3.754  0.1133  0.6144 -0.1118
  992MOL0     C33808   9.351   2.387   3.758  0.5044  0.2549  0.9786
  992MOL0     O33809   9.322   2.281   3.855 -0.2789 -0.3963  0.3319
  992MOL0     C33810   9.423   2.252   3.943  0.7973 -0.2242  0.6637
  992MOL0     C33811   9.544   2.194   3.893 -0.4544 -0.2123 -0.1341
  992MOL0     C33812   9.644   2.150   3.983  0.2670 -0.3054 -0.4149
  992MOL0     C33813   9.617   2.154   4.124 -0.1085  0.1527  0.1572
  992MOL0     C33814   9.705   2.098   4.223  0.7958  0.4570 -0.0919
  992MOL0     O33815   9.746   1.967   4.204  0.2315 -0.5683  0.5129
  992MOL0     C33816   9.854   1.929   4.278  0.4363  0.5364  0.2522
  992MOL0     C33817   9.977   1.992   4.268 -0.6035 -1.0231 -0.4105
  992MOL0     C33818  10.086   1.957   4.330 -0.1731 -0.2420  0.3311
  992MOL0     C33819  10.074   1.855   4.424 -0.3268 -0.5203 -0.2974
  992MOL0     O33820  10.171   1.810   4.517  0.6304  0.6470  0.5771
  992MOL0     C33821  10.291   1.893   4.537  0.1499 -0.7255  0.2750
  992MOL0     C33822  10.385   1.821   4.640 -0.2310  0.0379 -0.7583
  992MOL0     C33823  10.521   1.892   4.643  0.4413 -0.1946  0.2175
  992MOL0     C33824  10.622   1.804   4.712 -0.0652  0.7679 -0.1585
  992MOL0     C33825  10.753   1.885   4.725 -0.9643 -0.2993 -0.5198
  992MOL0     C33826  10.865   1.790   4.759  1.0638 -0.7213  0.2132
  992MOL0     C33827  10.985   1.883   4.783  0.0367 -0.2177 -0.1391
  992MOL0     C33828  11.109   1.790   4.817 -0.3121  1.0353  0.4228
  992MOL0    Cl33829  11.069   1.701   4.965 -0.7577 -0.5063 -0.4246
  992MOL0     C33830   9.946   1.792   4.443 -1.0145  0.2505 -0.3356
  992MOL0     C33831   9.831   1.833   4.375  0.9074  0.0925 -0.7245
  992MOL0     O33832   9.724   2.164   4.332 -1.2419 -0.3172  0.2544
  992MOL0     C33833   9.492   2.206   4.164 -0.6963  0.1390  0.4953
  992MOL0     C33834   9.393   2.259   4.079 -0.4308 -0.0324  0.4188
  992MOL0     N33835   8.947   2.438   3.990  0.3323 -0.1548  0.2133
  992MOL0     N33836   8.850   2.369   3.951 -0.2084  0.2132 -0.1289
  992MOL0     C33837   8.087   2.303   4.624 -0.0069  0.6138  0.2169
  992MOL0     C33838   7.955   2.275   4.648  0.2721  0.3093 -0.6502
  992MOL0     C33839   7.511   2.197   4.578 -0.1120  0.1566  0.0395
  992MOL0     C33840   7.452   2.327   4.580  0.1781 -0.1121 -0.8313
  992MOL0     C33841   7.310   2.342   4.590 -0.2411  0.7689  0.4936
  992MOL0     C33842   7.229   2.226   4.605  0.3197  0.3245 -0.3073
  992MOL0     O33843   7.098   2.219   4.641  0.5436 -0.0534 -0.0326
  992MOL0     C33844   7.029   2.340   4.669 -0.0484 -0.3636 -0.3899
  992MOL0     C33845   6.884   2.317   4.692  0.4099  0.5203 -0.6233
  992MOL0     C33846   6.822   2.276   4.560 -0.4525  0.3845  0.2438
  992MOL0     C33847   6.674   2.245   4.565  0.9300  0.5078  0.5659
  992MOL0     C33848   6.593   2.365   4.593 -1.0011 -1.4670  0.3609
  992MOL0     C33849   6.530   2.465   4.615 -0.7021 -0.7593  1.2486
  992MOL0     C33850   7.291   2.099   4.601 -0.7312  0.5174  0.0708
  992MOL0     C33851   7.428   2.078   4.587 -0.1890  0.4747  0.0593
  992MOL0     C33852   7.480   1.937   4.572 -0.5613  0.2161 -0.9829
  992MOL0     H33853   7.806   2.436   4.387  0.0964  1.7615  0.0812
  992MOL0     H33854   8.048   2.478   4.328  2.6633 -1.5093 -0.0300
  992MOL0     H33855   8.260   2.334   4.307  0.5776 -0.3415 -0.0433
  992MOL0     H33856   8.300   2.510   4.305  3.0938 -0.4410  0.2676
  992MOL0     H33857   8.497   2.286   4.386  1.0395  0.6541 -0.3960
  992MOL0     H33858   8.513   2.467   4.383  1.1208  0.3684 -1.7537
  992MOL0     H33859   8.620   2.342   4.210 -0.2313 -1.0437  0.0245
  992MOL0     H33860   8.520   2.474   4.170  0.2939  0.1081  1.2990
  992MOL0     H33861   8.441   2.178   4.150  1.8284  1.4370  0.7060
  992MOL0     H33862   8.330   2.307   4.096 -1.6112 -1.2144  1.4865
  992MOL0     H33863   8.602   2.231   3.984  0.5831  2.3771 -0.4308
  992MOL0     H33864   8.459   2.213   3.898 -1.4205  1.4270  0.3084
  992MOL0     H33865   8.419   2.472   3.909 -2.0144 -1.4687 -1.6758
  992MOL0     H33866   8.590   2.469   3.964 -0.3132 -2.1391  2.6084
  992MOL0     H33867   8.572   2.512   3.720  0.6098  0.2658 -1.5898
  992MOL0     H33868   8.499   2.356   3.695 -0.2694  0.6956  1.0332
  992MOL0     H33869   8.703   2.240   3.751  0.9765  0.3105 -1.0059
  992MOL0     H33870   8.723   2.379   3.642 -0.1080 -0.9970 -0.4528
  992MOL0     H33871   8.896   2.567   3.697 -0.8823 -0.5688  0.7552
  992MOL0     H33872   9.059   2.698   3.814  1.5189  1.5370  0.9061
  992MOL0     H33873   9.076   2.693   3.989 -2.8419  0.6833 -0.1670
  992MOL0     H33874   9.288   2.626   3.918 -0.4477  0.9126  1.6749
  992MOL0     H33875   9.215   2.471   3.963 -0.7143 -2.6137 -1.7990
  992MOL0     H33876   9.263   2.574   3.684 -2.0704  2.7548  1.5106
  992MOL0     H33877   9.150   2.439   3.722  1.0619 -1.0919 -0.0809
  992MOL0     H33878   9.437   2.444   3.793 -0.4676  2.7916 -0.4540
  992MOL0     H33879   9.371   2.331   3.666  0.8480  1.6210  0.2056
  992MOL0     H33880   9.556   2.170   3.788  0.2852 -0.1611 -0.0638
  992MOL0     H33881   9.741   2.129   3.939 -1.1330 -3.0041 -2.4785
  992MOL0     H33882   9.980   2.079   4.203 -0.9216  0.0948  0.9924
  992MOL0     H33883  10.178   2.010   4.306 -1.5572  1.5517 -1.3400
  992MOL0     H33884  10.349   1.908   4.446 -0.5744 -1.5194 -0.3236
  992MOL0     H33885  10.256   1.990   4.574  0.0940 -0.8952  0.6799
  992MOL0     H33886  10.341   1.818   4.740 -0.4216  0.8497 -0.8067
  992MOL0     H33887  10.388   1.715   4.616  0.6978 -0.1919  0.2705
  992MOL0     H33888  10.563   1.910   4.543  1.3787  0.8511  0.7845
  992MOL0     H33889  10.527   1.991   4.688  0.6943 -0.3465  0.5230
  992MOL0     H33890  10.636   1.711   4.655 -1.5584  1.1794 -1.2647
  992MOL0     H33891  10.583   1.781   4.811  0.4062  1.4953  0.2007
  992MOL0     H33892  10.744   1.953   4.811  2.1528 -2.2854  1.5753
  992MOL0     H33893  10.771   1.934   4.629 -2.2361  1.1080 -0.0938
  992MOL0     H33894  10.838   1.738   4.851  2.2487 -5.3220 -1.7604
  992MOL0     H33895  10.880   1.712   4.684 -1.6899 -2.5643  1.3983
  992MOL0     H33896  10.967   1.952   4.866  0.1962  0.4831 -0.6790
  992MOL0     H33897  11.019   1.941   4.697  1.5205 -1.9577 -0.7940
  992MOL0     H33898  11.113   1.714   4.739 -1.2383 -0.3452  1.6623
  992MOL0     H33899  11.201   1.849   4.831  1.8824 -1.6508 -1.4831
  992MOL0     H33900   9.936   1.719   4.522  3.9157 -1.1673 -0.7079
  992MOL0     H33901   9.733   1.790   4.395 -0.3521  2.8292 -0.5153
  992MOL0     H33902   9.471   2.202   4.271  0.0008 -0.1254  0.6266
  992MOL0     H33903   9.304   2.306   4.119  1.5347  1.9665  2.7640
  992MOL0     H33904   8.159   2.267   4.696  3.4150  3.2414 -1.5702
  992MOL0     H33905   7.927   2.217   4.735 -1.6637  1.0406 -0.7521
  992MOL0     H33906   7.511   2.417   4.568  0.3295 -0.1644 -0.5102
  992MOL0     H33907   7.257   2.433   4.611 -0.2554  0.6022  1.2043
  992MOL0     H33908   7.028   2.399   4.576 -0.6542  2.5543  1.3317
  992MOL0     H33909   7.069   2.399   4.752  1.4075  1.3728 -2.2150
  992MOL0     H33910   6.833   2.406   4.730 -0.5734 -0.1670 -0.2997
  992MOL0     H33911   6.880   2.247   4.776 -1.8980 -0.8861 -1.8206
  992MOL0     H33912   6.863   2.180   4.527 -1.8653  0.7002 -2.8579
  992MOL0     H33913   6.848   2.348   4.482 -2.0527 -0.3218 -0.9921
  992MOL0     H33914   6.635   2.213   4.468 -3.7458  1.1259  1.9604
  992MOL0     H33915   6.660   2.169   4.643 -0.1723  1.2902  1.1566
  992MOL0     H33916   6.484   2.561   4.620  0.4585 -0.1295  0.3223
  992MOL0     H33917   7.245   2.003   4.625 -0.3594 -0.1051 -1.5690
  992MOL0     H33918   7.571   1.917   4.629 -1.5085 -2.5810 -0.2666
  992MOL0     H33919   7.404   1.864   4.602  0.8202 -0.5451  0.7961
  992MOL0     H33920   7.498   1.932   4.464 -2.2510  1.1894 -1.3597
  993MOL0     O33921   7.376   1.787   0.340  0.0150  0.3922  0.5746
  993MOL0     C33922   7.322   1.688   0.376  0.1282  0.1469 -0.2624
  993MOL0     O33923   7.378   1.565   0.378 -0.0761 -0.1714 -0.4718
  993MOL0     C33924   7.505   1.563   0.341 -0.0352  0.1134 -0.1753
  993MOL0     C33925   7.608   1.555   0.432 -0.5895 -0.2335 -0.2414
  993MOL0     C33926   7.745   1.556   0.398  0.0399 -0.0752 -1.1112
  993MOL0     C33927   7.782   1.554   0.268  0.5172 -0.4674  1.2992
  993MOL0     O33928   7.909   1.557   0.221  0.0258 -0.0376  0.4561
  993MOL0     C33929   8.009   1.492   0.305 -0.1895  0.3638 -0.7628
  993MOL0     C33930   8.139   1.474   0.230  0.5048  0.3329  0.2044
  993MOL0     C33931   8.255   1.435   0.316 -0.8985  0.3960  0.0454
  993MOL0     C33932   8.377   1.407   0.218  0.5195 -0.1811 -0.7270
  993MOL0     C33933   8.503   1.391   0.301 -0.2599 -1.0949  0.1955
  993MOL0     C33934   8.611   1.312   0.224 -0.3264 -0.3920  0.3691
  993MOL0     C33935   8.732   1.286   0.326 -0.0852  0.1381 -0.1066
  993MOL0     C33936   8.812   1.414   0.352  0.2051  1.2083  0.6075
  993MOL0     N33937   8.957   1.392   0.379 -0.6749 -0.2909  0.1963
  993MOL0     C33938   9.019   1.341   0.492 -0.2194 -0.9808 -0.2977
  993MOL0     C33939   9.157   1.340   0.464  1.3942  0.4572  0.0985
  993MOL0     C33940   9.264   1.267   0.552 -0.0240  0.6048  0.7389
  993MOL0     C33941   9.394   1.338   0.520  0.1047 -0.6301 -0.2313
  993MOL0     C33942   9.509   1.254   0.586  0.1660 -0.5381  1.1579
  993MOL0     C33943   9.643   1.335   0.588  0.9845  0.9457 -0.0970
  993MOL0     O33944   9.641   1.394   0.713 -0.8159  0.6409 -0.1533
  993MOL0     C33945   9.756   1.451   0.755 -0.7129  0.3571 -0.2981
  993MOL0     C33946   9.769   1.464   0.896  0.1081  0.4721 -0.4253
  993MOL0     C33947   9.872   1.543   0.951  0.2507 -0.3836  0.1457
  993MOL0     C33948   9.976   1.594   0.862  0.7229  0.4772  0.0593
  993MOL0     C33949  10.073   1.686   0.926 -0.2469  0.7489  0.9964
  993MOL0     O33950  10.068   1.713   1.058  0.5272  0.9703 -0.6467
  993MOL0     C33951  10.152   1.803   1.114 -0.0634  0.4795  0.0315
  993MOL0     C33952  10.102   1.893   1.208  0.6360 -0.3131  0.1585
  993MOL0     C33953  10.177   1.988   1.280 -0.8977 -0.3879 -0.1576
  993MOL0     C33954  10.313   1.994   1.252  1.6459 -0.8821  0.3020
  993MOL0     O33955  10.384   2.098   1.320  0.6835  0.0414  0.9401
  993MOL0     C33956  10.512   2.120   1.270  0.3829 -0.4642  0.2366
  993MOL0     C33957  10.578   2.254   1.301 -0.0694 -0.4320  0.0410
  993MOL0     C33958  10.709   2.273   1.233 -0.0176 -0.7505  0.1861
  993MOL0     C33959  10.759   2.399   1.283 -0.0440 -0.1137  0.8555
  993MOL0     C33960  10.898   2.424   1.219 -0.4459  0.4454  0.5470
  993MOL0     C33961  11.018   2.333   1.275 -0.0005 -0.4540 -0.7295
  993MOL0     C33962  11.166   2.387   1.238 -0.3598 -0.0547  0.5097
  993MOL0     C33963  11.183   2.532   1.182 -0.0894 -0.5962 -0.0106
  993MOL0    Cl33964  11.361   2.576   1.174 -0.0434  0.0644 -0.2034
  993MOL0     C33965  10.373   1.898   1.163  0.3373 -0.3861 -0.6582
  993MOL0     C33966  10.289   1.817   1.093  0.3655 -0.3405 -0.0601
  993MOL0     O33967  10.163   1.724   0.850 -0.1227  0.2345 -0.4488
  993MOL0     C33968   9.962   1.569   0.721  0.4137  0.2074  0.0101
  993MOL0     C33969   9.850   1.508   0.664  0.0064  0.4803 -0.0848
  993MOL0     N33970   9.172   1.392   0.334 -0.1945 -1.1509  0.1199
  993MOL0     N33971   9.061   1.417   0.289 -0.5694 -0.9178 -0.2372
  993MOL0     C33972   7.675   1.561   0.172  0.2554  0.3610 -0.3949
  993MOL0     C33973   7.536   1.573   0.208 -0.7774 -0.9347  0.5299
  993MOL0     C33974   7.190   1.704   0.428  0.8909  0.9641 -0.3159
  993MOL0     C33975   7.142   1.830   0.469  0.3932 -0.7257  0.5120
  993MOL0     C33976   7.013   1.855   0.514 -0.1443  0.3874  0.8427
  993MOL0     C33977   6.911   1.757   0.508 -0.5673 -0.1940 -0.5075
  993MOL0     O33978   6.795   1.788   0.573  0.0080  0.3478  0.8108
  993MOL0     C33979   6.685   1.704   0.557  0.4061  1.2405  0.5485
  993MOL0     C33980   6.563   1.761   0.584  0.9697  0.7379  0.2543
  993MOL0     C33981   6.532   1.887   0.507 -0.2172 -0.3647  0.2104
  993MOL0     C33982   6.381   1.926   0.511 -0.2671 -0.5214  0.6130
  993MOL0     C33983   6.299   1.849   0.420 -0.9433 -0.1960  0.4528
  993MOL0     C33984   6.233   1.790   0.337  0.6720 -0.1221 -0.0905
  993MOL0     C33985   6.958   1.628   0.469 -0.5951  0.2871  0.6571
  993MOL0     C33986   7.093   1.601   0.430  0.9411 -1.1435  0.2633
  993MOL0     C33987   7.115   1.460   0.387 -0.0486  0.0361 -0.8055
  993MOL0     H33988   7.576   1.549   0.536  1.2798 -1.6654  0.2963
  993MOL0     H33989   7.830   1.553   0.466 -0.0553 -2.8437 -0.9984
  993MOL0     H33990   8.036   1.544   0.398 -2.8508 -0.5505  0.6289
  993MOL0     H33991   7.963   1.396   0.331  0.5835 -0.5133 -2.4922
  993MOL0     H33992   8.163   1.571   0.185 -0.3402  0.0719 -0.8457
  993MOL0     H33993   8.114   1.414   0.142 -2.2936  2.9151 -0.9445
  993MOL0     H33994   8.242   1.351   0.385  0.5932  0.8427  0.9220
  993MOL0     H33995   8.287   1.513   0.386  3.9696 -2.6706  1.7306
  993MOL0     H33996   8.356   1.310   0.173 -0.6783 -1.4692  2.3146
  993MOL0     H33997   8.398   1.481   0.141  1.4475 -0.5305 -0.8257
  993MOL0     H33998   8.534   1.494   0.321  0.7131 -1.1168 -1.1144
  993MOL0     H33999   8.493   1.347   0.401  0.0231  0.6746  1.0380
  993MOL0     H34000   8.574   1.215   0.189  3.0040 -1.0760 -1.6727
  993MOL0     H34001   8.645   1.366   0.135  0.9986 -0.1965  0.9732
  993MOL0     H34002   8.804   1.209   0.294 -3.2693 -2.4106 -1.7623
  993MOL0     H34003   8.696   1.249   0.422 -0.9060  1.2457  0.0234
  993MOL0     H34004   8.805   1.485   0.269 -0.4268  0.5677  0.0941
  993MOL0     H34005   8.772   1.459   0.443  0.3502 -1.6930  2.2585
  993MOL0     H34006   8.982   1.307   0.588  0.3918  0.8700  0.6479
  993MOL0     H34007   9.241   1.263   0.659 -0.6422 -1.2383  0.5693
  993MOL0     H34008   9.273   1.162   0.524  2.0286  1.1063 -0.6801
  993MOL0     H34009   9.416   1.353   0.413  2.1491 -2.8961 -0.1975
  993MOL0     H34010   9.380   1.443   0.550 -0.2192 -0.6870 -0.1853
  993MOL0     H34011   9.518   1.163   0.526  1.9155  1.3143 -1.6276
  993MOL0     H34012   9.483   1.219   0.686 -1.1099  0.1661  1.0978
  993MOL0     H34013   9.636   1.409   0.508 -0.6143 -0.1628 -1.0292
  993MOL0     H34014   9.726   1.264   0.581 -0.3163 -0.6930  0.5030
  993MOL0     H34015   9.682   1.429   0.950 -0.9353 -0.0113 -2.3386
  993MOL0     H34016   9.877   1.548   1.059  3.3480 -2.7046  0.2584
  993MOL0     H34017   9.995   1.884   1.223  0.8390  0.8080  2.7313
  993MOL0     H34018  10.128   2.061   1.344 -2.5028 -1.1676 -0.4398
  993MOL0     H34019  10.569   2.035   1.310 -2.2597 -1.4881  2.0484
  993MOL0     H34020  10.522   2.115   1.161  0.7831  1.6623  0.1391
  993MOL0     H34021  10.515   2.341   1.281 -0.3887 -1.0098 -1.6341
  993MOL0     H34022  10.601   2.249   1.408 -1.1000  0.4483  0.3167
  993MOL0     H34023  10.772   2.185   1.253 -1.0217 -1.5188  0.0487
  993MOL0     H34024  10.701   2.274   1.124 -4.7525 -0.6301  0.3303
  993MOL0     H34025  10.760   2.401   1.392  0.1906 -1.1125  0.8752
  993MOL0     H34026  10.693   2.482   1.254 -1.6404 -1.1836  1.2465
  993MOL0     H34027  10.921   2.531   1.227 -0.2159  0.4393 -0.0316
  993MOL0     H34028  10.887   2.404   1.112  1.9545 -0.1214  0.3416
  993MOL0     H34029  11.019   2.338   1.384 -0.3423 -0.0586 -0.7393
  993MOL0     H34030  11.001   2.228   1.252  1.2529 -0.7602 -0.3435
  993MOL0     H34031  11.213   2.323   1.163 -2.9286  0.0863 -1.3835
  993MOL0     H34032  11.224   2.376   1.330  1.6239  1.7470 -0.4212
  993MOL0     H34033  11.128   2.512   1.089 -3.0307 -2.3765  1.9376
  993MOL0     H34034  11.125   2.603   1.241 -1.9150 -0.1269 -2.2301
  993MOL0     H34035  10.481   1.899   1.154  0.4208  0.1629  0.2693
  993MOL0     H34036  10.344   1.762   1.017  3.9989  1.9802  0.6402
  993MOL0     H34037  10.029   1.618   0.650  1.6561  1.2356  1.8010
  993MOL0     H34038   9.850   1.499   0.556 -0.0534  1.6089 -0.1943
  993MOL0     H34039   7.714   1.568   0.071  1.5131  2.5428  0.1649
  993MOL0     H34040   7.464   1.596   0.130 -1.2223  0.4733  1.3136
  993MOL0     H34041   7.208   1.916   0.463  1.1313 -1.3560 -0.9790
  993MOL0     H34042   6.998   1.958   0.545 -0.2612 -0.0980  2.4816
  993MOL0     H34043   6.689   1.614   0.619  3.7094 -1.4569 -3.0803
  993MOL0     H34044   6.679   1.669   0.453  1.7380  0.4575  0.7178
  993MOL0     H34045   6.556   1.776   0.692 -1.2304 -1.5912  0.5133
  993MOL0     H34046   6.499   1.680   0.550  0.9814  2.4292 -4.5110
  993MOL0     H34047   6.567   1.880   0.404  0.1487 -0.1014  0.3151
  993MOL0     H34048   6.593   1.964   0.554 -1.2627 -1.0120  2.8438
  993MOL0     H34049   6.352   1.906   0.614  0.5547  0.1364  0.9865
  993MOL0     H34050   6.368   2.034   0.497  2.6076 -0.2464 -0.8488
  993MOL0     H34051   6.170   1.736   0.270  0.7730  0.4959 -0.6950
  993MOL0     H34052   6.906   1.534   0.484  0.9959 -0.2226  3.6490
  993MOL0     H34053   7.176   1.404   0.458 -1.8053 -0.8198  0.0911
  993MOL0     H34054   7.024   1.399   0.391  1.4552 -2.4919  5.3397
  993MOL0     H34055   7.155   1.449   0.286  2.0190 -0.7023  0.0527
  994MOL0     O34056   0.050   8.782   8.649 -0.1571 -0.1239 -0.1100
  994MOL0     C34057   0.015   8.669   8.691 -0.6711 -0.8412  0.2516
  994MOL0     O34058   0.103   8.580   8.742  0.6421 -0.7161  0.1447
  994MOL0     C34059   0.237   8.622   8.778  1.0107 -0.5444  0.2276
  994MOL0     C34060   0.347   8.580   8.710 -0.4184  0.2739  0.1623
  994MOL0     C34061   0.477   8.609   8.758  0.3743 -0.2893 -0.2808
  994MOL0     C34062   0.489   8.698   8.869 -0.7481 -0.4623  0.1192
  994MOL0     O34063   0.620   8.731   8.907 -0.7248  0.8682  0.5829
  994MOL0     C34064   0.643   8.805   9.023  0.3573 -0.0347  0.3596
  994MOL0     C34065   0.796   8.805   9.061  0.1652 -0.5395 -0.4122
  994MOL0     C34066   0.879   8.896   8.973 -0.0990  0.0724  0.2862
  994MOL0     C34067   1.029   8.887   9.006 -0.0867  0.3928  0.4215
  994MOL0     C34068   1.115   8.982   8.913  0.5115 -0.7705 -0.7452
  994MOL0     C34069   1.262   8.984   8.954 -0.3512  0.3072 -0.5429
  994MOL0     C34070   1.294   9.068   9.081  0.1670 -0.1500 -0.9023
  994MOL0     C34071   1.440   9.058   9.114 -0.8253  1.5320  0.0441
  994MOL0     N34072   1.527   9.133   9.012  0.2875 -0.9509 -0.5109
  994MOL0     C34073   1.557   9.267   9.033 -0.1371  0.3397  0.6486
  994MOL0     C34074   1.655   9.298   8.944  0.0505  0.3880 -0.1331
  994MOL0     C34075   1.722   9.435   8.917 -0.3505  0.3233  0.1645
  994MOL0     C34076   1.762   9.462   8.772  0.0049 -0.1664 -0.7710
  994MOL0     C34077   1.898   9.412   8.722  0.3349  0.1254 -0.5404
  994MOL0     C34078   1.922   9.440   8.574 -0.3320 -0.0082 -0.8872
  994MOL0     O34079   1.948   9.573   8.541  0.5202 -0.0063  0.1322
  994MOL0     C34080   2.071   9.629   8.551 -0.6278 -0.2938  0.3298
  994MOL0     C34081   2.109   9.734   8.463 -0.9921  0.2239 -0.0094
  994MOL0     C34082   2.245   9.780   8.447  0.2249 -0.2157  1.0314
  994MOL0     C34083   2.344   9.734   8.535 -0.0465  0.6498  0.0595
  994MOL0     C34084   2.476   9.794   8.535  0.7822 -0.2296 -0.4689
  994MOL0     O34085   2.492   9.898   8.446 -0.6688 -0.1175  0.3105
  994MOL0     C34086   2.618   9.947   8.411 -0.3470 -0.2751  0.4325
  994MOL0     C34087   2.633  10.093   8.407 -0.0608  0.8117 -0.7351
  994MOL0     C34088   2.755  10.155   8.374  0.2492 -1.0996 -0.2428
  994MOL0     C34089   2.873  10.078   8.354 -0.5046 -0.7448  0.1432
  994MOL0     O34090   2.995  10.143   8.329 -0.5805  0.5306  0.3680
  994MOL0     C34091   3.120  10.067   8.354  0.0709 -0.6256  0.1395
  994MOL0     C34092   3.244  10.159   8.385 -0.6406 -0.0032  0.1719
  994MOL0     C34093   3.253  10.256   8.266  0.7541 -0.8547 -0.1497
  994MOL0     C34094   3.382  10.347   8.274  0.1447 -0.2581  1.2692
  994MOL0     C34095   3.428  10.428   8.157  0.0299  0.0250  0.2363
  994MOL0     C34096   3.546  10.524   8.198  0.0483 -0.4228 -0.1126
  994MOL0     C34097   3.614  10.624   8.103 -0.0515  0.4315 -0.4122
  994MOL0     C34098   3.709  10.554   8.012 -0.3437  0.0516  0.0933
  994MOL0    Cl34099   3.845  10.476   8.107  0.0597 -0.2093  0.0738
  994MOL0     C34100   2.861   9.936   8.365 -0.6761 -0.3025 -0.0188
  994MOL0     C34101   2.738   9.868   8.399 -1.5792  0.3248  0.5686
  994MOL0     O34102   2.566   9.745   8.608  0.3414  0.4333 -0.1008
  994MOL0     C34103   2.308   9.632   8.624  0.8442 -0.1962 -0.8268
  994MOL0     C34104   2.174   9.583   8.634  0.3189 -0.1152 -0.3214
  994MOL0     N34105   1.667   9.187   8.869  0.3177  0.6457  0.1257
  994MOL0     N34106   1.598   9.081   8.915  0.0580 -0.5884  0.4640
  994MOL0     C34107   0.376   8.754   8.928 -0.3480 -0.0545  0.1335
  994MOL0     C34108   0.248   8.720   8.877  0.4350  1.0576 -0.0280
  994MOL0     C34109  -0.118   8.615   8.657 -0.1184 -0.0855  0.8972
  994MOL0     C34110  -0.180   8.656   8.534  0.9814 -0.1587  0.0304
  994MOL0     C34111  -0.299   8.596   8.491  0.6897 -0.2044  0.9998
  994MOL0     C34112  -0.363   8.489   8.561 -0.4419 -0.2840  0.0517
  994MOL0     O34113  -0.477   8.427   8.517 -0.6791 -0.1914  0.5272
  994MOL0     C34114  -0.522   8.454   8.386 -0.3804  0.6063  0.4045
  994MOL0     C34115  -0.610   8.571   8.394 -0.3536  0.4377 -0.5228
  994MOL0     C34116  -0.736   8.548   8.487  0.1519  0.2754  1.0539
  994MOL0     C34117  -0.840   8.452   8.429 -0.3280 -0.1856  0.9481
  994MOL0     C34118  -0.886   8.502   8.301 -0.9687  0.7793 -0.7978
  994MOL0     C34119  -0.928   8.538   8.198  0.2648  0.2334 -0.1788
  994MOL0     C34120  -0.304   8.459   8.688  0.5812  0.0394  0.1893
  994MOL0     C34121  -0.189   8.529   8.744  0.2491 -0.1147  0.2465
  994MOL0     C34122  -0.153   8.504   8.894  0.9118 -0.4131 -0.1387
  994MOL0     H34123   0.352   8.506   8.630 -0.0856 -0.5880  0.9632
  994MOL0     H34124   0.558   8.561   8.704  2.1431  1.4204  0.7174
  994MOL0     H34125   0.603   8.907   9.015  0.5732 -0.0905 -2.3840
  994MOL0     H34126   0.586   8.760   9.104  1.3659 -1.7590  0.1486
  994MOL0     H34127   0.837   8.704   9.047 -0.2685 -0.8713  0.6326
  994MOL0     H34128   0.807   8.836   9.165  0.5119 -0.1139 -0.5751
  994MOL0     H34129   0.846   8.999   8.989  0.1075  0.2100 -0.1362
  994MOL0     H34130   0.862   8.876   8.867  2.4527  1.6732 -0.5211
  994MOL0     H34131   1.030   8.904   9.114  2.2306 -0.3779  0.5656
  994MOL0     H34132   1.060   8.785   8.985 -1.0224 -0.0083  0.9426
  994MOL0     H34133   1.119   8.961   8.805  0.9682  3.7580 -1.8201
  994MOL0     H34134   1.064   9.079   8.914  0.6112 -0.6668 -2.2430
  994MOL0     H34135   1.309   8.886   8.953  1.5929  1.0770 -3.9603
  994MOL0     H34136   1.316   9.034   8.872  0.2441  0.4743 -0.0537
  994MOL0     H34137   1.230   9.044   9.167 -0.5603 -0.1485 -1.4353
  994MOL0     H34138   1.274   9.176   9.070 -0.9155 -0.0414  1.3946
  994MOL0     H34139   1.466   9.095   9.214 -3.4130  1.6138  0.7595
  994MOL0     H34140   1.460   8.952   9.094 -0.5806  1.3791  1.0458
  994MOL0     H34141   1.508   9.338   9.100  2.3473  4.4344 -1.4164
  994MOL0     H34142   1.644   9.501   8.956  0.6709  1.9637 -0.4996
  994MOL0     H34143   1.804   9.460   8.984 -0.0020  1.4233 -0.6515
  994MOL0     H34144   1.691   9.420   8.700  0.0839 -1.2301 -0.2430
  994MOL0     H34145   1.770   9.571   8.764  1.1758 -0.0498  1.2609
  994MOL0     H34146   1.899   9.303   8.726  3.4956  0.0080 -1.7894
  994MOL0     H34147   1.976   9.458   8.784  0.2738  1.2859 -1.2932
  994MOL0     H34148   1.853   9.406   8.496 -2.5353 -0.9517  1.3253
  994MOL0     H34149   2.011   9.383   8.546 -0.3414 -0.6613  0.3465
  994MOL0     H34150   2.038   9.776   8.392 -1.6660  1.1570  1.1811
  994MOL0     H34151   2.263   9.839   8.357  0.1441 -2.0617 -0.2747
  994MOL0     H34152   2.540  10.144   8.426 -0.8486 -1.4984  2.3803
  994MOL0     H34153   2.750  10.260   8.349 -1.8945 -1.0633  0.1581
  994MOL0     H34154   3.106  10.007   8.445  0.8659 -1.3458 -0.1963
  994MOL0     H34155   3.144  10.006   8.266  0.4182  1.7348 -1.4749
  994MOL0     H34156   3.225  10.203   8.484  1.6191 -0.1507  0.7453
  994MOL0     H34157   3.337  10.102   8.395 -0.0338  1.2672  2.9649
  994MOL0     H34158   3.243  10.201   8.172 -2.2517  2.4955 -2.0113
  994MOL0     H34159   3.162  10.316   8.273 -0.3397 -2.5769  1.9560
  994MOL0     H34160   3.459  10.270   8.280 -0.4964 -1.4100 -2.6037
  994MOL0     H34161   3.375  10.405   8.366  0.5439 -1.1070  1.8470
  994MOL0     H34162   3.340  10.480   8.117  1.4912  1.9570 -0.6357
  994MOL0     H34163   3.475  10.369   8.078  1.5644 -0.8031  1.7149
  994MOL0     H34164   3.516  10.587   8.282  4.0440  1.4101  0.1875
  994MOL0     H34165   3.619  10.452   8.235  1.7538 -0.2808 -2.8905
  994MOL0     H34166   3.667  10.707   8.151  1.5478  1.0748 -3.0872
  994MOL0     H34167   3.536  10.660   8.037 -0.1604  3.5806  1.2748
  994MOL0     H34168   3.661  10.479   7.949 -0.2629 -0.5131  0.6907
  994MOL0     H34169   3.776  10.610   7.945  3.6439 -2.3998  1.6311
  994MOL0     H34170   2.950   9.874   8.356 -1.2253 -0.9883 -0.7499
  994MOL0     H34171   2.746   9.761   8.415  3.5134 -0.1411 -2.8578
  994MOL0     H34172   2.383   9.598   8.695  0.3818  1.1552  0.3688
  994MOL0     H34173   2.154   9.494   8.693 -1.1666  0.5419  0.2095
  994MOL0     H34174   0.376   8.833   9.003  0.5076  0.1005 -0.0237
  994MOL0     H34175   0.161   8.764   8.926 -0.4847  1.4076 -1.8778
  994MOL0     H34176  -0.131   8.732   8.474  0.4539  0.3721  0.2741
  994MOL0     H34177  -0.337   8.631   8.395  1.2336 -0.1394  0.8030
  994MOL0     H34178  -0.586   8.367   8.373 -0.1537  0.3183  1.2003
  994MOL0     H34179  -0.450   8.445   8.304 -2.6143  0.2287 -1.6418
  994MOL0     H34180  -0.648   8.599   8.295 -2.0401  0.2849  0.0532
  994MOL0     H34181  -0.555   8.655   8.436 -0.7330  0.2389  0.3904
  994MOL0     H34182  -0.796   8.640   8.496 -0.2718  0.2777 -1.1825
  994MOL0     H34183  -0.699   8.501   8.578 -0.2455 -3.8537 -0.6829
  994MOL0     H34184  -0.802   8.350   8.415 -2.3489 -0.8281 -0.1778
  994MOL0     H34185  -0.918   8.444   8.505 -0.4567 -1.4774  0.7062
  994MOL0     H34186  -0.965   8.560   8.099  2.2374 -0.0709 -1.0259
  994MOL0     H34187  -0.355   8.394   8.759  0.2824 -0.3272 -0.3523
  994MOL0     H34188  -0.225   8.434   8.936 -0.3791  1.0802  0.2150
  994MOL0     H34189  -0.054   8.459   8.900  0.4527 -1.3279  0.7494
  994MOL0     H34190  -0.155   8.596   8.953  0.8299 -1.0059  0.8052
  995MOL0     O34191   1.537   5.617   0.311 -0.1647 -0.0569 -0.1470
  995MOL0     C34192   1.562   5.573   0.422 -0.8677 -0.2524  0.1086
  995MOL0     O34193   1.694   5.557   0.466  1.0540 -0.6148 -0.3723
  995MOL0     C34194   1.789   5.566   0.366  0.0023 -0.1571 -0.1564
  995MOL0     C34195   1.822   5.693   0.313 -1.0421  0.5563  0.4129
  995MOL0     C34196   1.933   5.708   0.233 -0.4271  0.4378  0.3122
  995MOL0     C34197   2.015   5.599   0.203 -0.0771 -0.7008  0.7851
  995MOL0     O34198   2.143   5.611   0.145 -0.0452  0.5643  0.8867
  995MOL0     C34199   2.204   5.745   0.152 -0.0443  0.0818  0.0657
  995MOL0     C34200   2.357   5.736   0.108 -0.1476 -0.5574 -0.0107
  995MOL0     C34201   2.373   5.706  -0.040  0.1104  0.4682  0.4429
  995MOL0     C34202   2.523   5.697  -0.083 -0.3071  0.0120  0.1862
  995MOL0     C34203   2.554   5.758  -0.224  0.4389  0.3425 -0.7760
  995MOL0     C34204   2.573   5.913  -0.234  0.2975 -0.4067  0.5143
  995MOL0     C34205   2.563   5.985  -0.373  0.0847  0.5831  0.2917
  995MOL0     C34206   2.663   5.918  -0.465  0.5479  0.0419 -0.0710
  995MOL0     N34207   2.805   5.911  -0.424  0.7645 -0.0327  0.1817
  995MOL0     C34208   2.873   6.011  -0.352 -0.4714 -0.2827  0.0529
  995MOL0     C34209   2.984   5.943  -0.315 -0.3745  0.5462  0.5219
  995MOL0     C34210   3.088   5.994  -0.217 -0.1191 -0.7411 -0.4469
  995MOL0     C34211   3.225   6.009  -0.285  0.6544 -0.4599 -0.1103
  995MOL0     C34212   3.330   6.071  -0.197 -0.4062  0.2862  0.3974
  995MOL0     C34213   3.461   6.102  -0.271  0.7311 -0.5050  0.3092
  995MOL0     O34214   3.445   6.214  -0.356 -0.1323 -0.1676 -0.5756
  995MOL0     C34215   3.435   6.341  -0.312  0.3593  0.4635 -0.1812
  995MOL0     C34216   3.447   6.383  -0.182 -0.1674  0.2707 -0.2368
  995MOL0     C34217   3.453   6.515  -0.143  1.3535 -0.2353 -0.7900
  995MOL0     C34218   3.418   6.616  -0.234 -0.1300 -0.1521 -0.6037
  995MOL0     C34219   3.400   6.756  -0.193  0.0298  0.2419 -0.1253
  995MOL0     O34220   3.406   6.855  -0.288  0.6310  0.6133 -0.5807
  995MOL0     C34221   3.433   6.984  -0.243 -0.1602  0.5326  0.7939
  995MOL0     C34222   3.430   7.079  -0.350  0.3077  0.8575 -0.4689
  995MOL0     C34223   3.440   7.220  -0.333 -0.0671  0.2457  0.7066
  995MOL0     C34224   3.446   7.271  -0.204  0.4834  0.1015  0.5767
  995MOL0     O34225   3.451   7.402  -0.193  0.8175 -0.7992  0.0255
  995MOL0     C34226   3.376   7.464  -0.082 -1.2211 -0.1852 -0.4623
  995MOL0     C34227   3.341   7.603  -0.126 -0.8872 -0.3870 -0.2389
  995MOL0     C34228   3.199   7.609  -0.180 -0.0312  0.4722  0.0368
  995MOL0     C34229   3.173   7.528  -0.302 -0.7955 -0.0514  0.6613
  995MOL0     C34230   3.020   7.560  -0.350  0.0671 -0.5889 -0.8836
  995MOL0     C34231   2.911   7.459  -0.303 -0.5659 -0.6117  0.3716
  995MOL0     C34232   2.932   7.318  -0.364  0.5038 -0.2595  0.1596
  995MOL0     C34233   2.824   7.225  -0.306  0.2815 -0.8220 -0.3560
  995MOL0    Cl34234   2.657   7.286  -0.331 -0.1752  0.2182 -0.0172
  995MOL0     C34235   3.455   7.179  -0.095 -0.1656  0.4910  0.1121
  995MOL0     C34236   3.456   7.041  -0.115 -0.6358  0.7486  0.1392
  995MOL0     O34237   3.370   6.774  -0.073 -0.0410 -0.2451 -0.2703
  995MOL0     C34238   3.397   6.576  -0.363  0.4305  0.1353 -0.1202
  995MOL0     C34239   3.405   6.439  -0.401 -0.7188  0.3721  0.1083
  995MOL0     N34240   2.987   5.817  -0.366 -0.0174  0.5207  1.2023
  995MOL0     N34241   2.877   5.793  -0.433 -0.1674 -0.2330  0.4923
  995MOL0     C34242   1.984   5.471   0.253  0.3143  0.0830  0.4221
  995MOL0     C34243   1.861   5.457   0.326  0.0124  0.4850 -0.6342
  995MOL0     C34244   1.452   5.535   0.511  0.1156  0.3167  0.3757
  995MOL0     C34245   1.491   5.501   0.642  0.0307 -0.0534  0.0726
  995MOL0     C34246   1.400   5.464   0.741 -0.4050  0.4006  0.1811
  995MOL0     C34247   1.273   5.443   0.709  0.2366 -1.1653  0.7166
  995MOL0     O34248   1.168   5.411   0.788 -0.3169  0.0201 -0.1333
  995MOL0     C34249   1.135   5.534   0.864 -0.6635  0.3989  0.3824
  995MOL0     C34250   0.995   5.533   0.937 -0.1908  0.3367  0.1771
  995MOL0     C34251   0.995   5.479   1.077 -0.1065 -0.1520  0.2440
  995MOL0     C34252   0.872   5.482   1.161  0.2395  0.2815  0.3385
  995MOL0     C34253   0.784   5.599   1.148  0.1956  0.5602  0.4027
  995MOL0     C34254   0.689   5.666   1.107 -0.9581  1.0914  0.2894
  995MOL0     C34255   1.231   5.464   0.569  0.1811 -0.0145  0.1383
  995MOL0     C34256   1.318   5.513   0.466 -0.4273 -0.1165 -0.5384
  995MOL0     C34257   1.258   5.551   0.332  0.4835 -0.0193 -0.4112
  995MOL0     H34258   1.777   5.782   0.355 -0.3451  1.8520 -1.4498
  995MOL0     H34259   1.957   5.811   0.206  3.0271 -0.0774  0.8984
  995MOL0     H34260   2.151   5.805   0.077 -1.2369 -0.4385  0.4719
  995MOL0     H34261   2.187   5.797   0.246 -1.6363 -0.6992  0.2430
  995MOL0     H34262   2.406   5.664   0.174  0.1545  0.0544  0.4513
  995MOL0     H34263   2.396   5.836   0.128 -1.2427  0.1723 -1.3489
  995MOL0     H34264   2.315   5.783  -0.092  1.9544 -0.1687 -2.8331
  995MOL0     H34265   2.338   5.605  -0.063  0.3386  0.4291  0.2718
  995MOL0     H34266   2.587   5.746  -0.010  0.9743  0.3366 -1.1056
  995MOL0     H34267   2.562   5.596  -0.066 -1.0256 -0.4342 -0.7154
  995MOL0     H34268   2.641   5.705  -0.264 -0.2564 -2.5591  1.2071
  995MOL0     H34269   2.465   5.732  -0.282 -1.5267  1.5371  1.5280
  995MOL0     H34270   2.499   5.961  -0.169  0.2652 -0.3135  0.4090
  995MOL0     H34271   2.667   5.948  -0.190 -0.2048  0.8789  0.5994
  995MOL0     H34272   2.576   6.093  -0.356 -1.5726  0.8580  0.0497
  995MOL0     H34273   2.460   5.971  -0.408  0.4834 -0.0047 -0.6789
  995MOL0     H34274   2.629   5.815  -0.481 -1.9158  0.9271 -1.1577
  995MOL0     H34275   2.650   5.970  -0.561 -1.9997  1.5411  0.9779
  995MOL0     H34276   2.843   6.112  -0.327 -0.0313  0.9305 -3.7380
  995MOL0     H34277   3.065   6.095  -0.179  2.3639  0.3926 -1.7157
  995MOL0     H34278   3.090   5.926  -0.131  1.7173 -1.9860 -1.4342
  995MOL0     H34279   3.262   5.912  -0.319  0.4737 -0.3187 -0.7275
  995MOL0     H34280   3.220   6.079  -0.369  1.2389  0.6154  0.7079
  995MOL0     H34281   3.355   6.008  -0.111 -1.0888  0.5254  0.7763
  995MOL0     H34282   3.279   6.158  -0.155 -2.2864 -0.9231  0.7735
  995MOL0     H34283   3.499   6.020  -0.332 -0.8474 -0.8202 -0.2964
  995MOL0     H34284   3.531   6.131  -0.192  0.0580  0.3333  0.6179
  995MOL0     H34285   3.480   6.317  -0.103  0.1523  0.5452 -0.1410
  995MOL0     H34286   3.459   6.535  -0.037 -1.1033  0.2277 -0.6828
  995MOL0     H34287   3.420   7.041  -0.451 -0.3659 -2.1981  0.6190
  995MOL0     H34288   3.447   7.295  -0.411 -0.2079 -0.4819 -0.0210
  995MOL0     H34289   3.293   7.405  -0.043 -2.6097  1.5004 -0.7289
  995MOL0     H34290   3.449   7.473  -0.001 -3.7051  0.2777  1.8966
  995MOL0     H34291   3.354   7.675  -0.044  0.7049 -0.2108 -0.6245
  995MOL0     H34292   3.412   7.635  -0.203  0.2072 -0.8217  0.5822
  995MOL0     H34293   3.129   7.607  -0.096  2.1619  1.3573  2.0209
  995MOL0     H34294   3.176   7.707  -0.225 -3.3321 -1.5127 -3.1362
  995MOL0     H34295   3.178   7.423  -0.275 -1.5033  0.2664  2.1412
  995MOL0     H34296   3.246   7.536  -0.382 -0.0464 -2.3114  1.0622
  995MOL0     H34297   3.021   7.573  -0.458  1.6517 -1.4772 -1.0171
  995MOL0     H34298   2.990   7.660  -0.318  0.7910 -0.3775 -0.8412
  995MOL0     H34299   2.925   7.447  -0.195  0.4975  0.2033  0.3418
  995MOL0     H34300   2.813   7.492  -0.340 -1.1755 -3.4407 -0.8399
  995MOL0     H34301   3.027   7.270  -0.340 -0.0148 -1.0861  0.6146
  995MOL0     H34302   2.932   7.329  -0.473 -0.0588  0.7647  0.2467
  995MOL0     H34303   2.840   7.120  -0.333  0.6208 -1.0848  0.7921
  995MOL0     H34304   2.838   7.218  -0.198 -0.3494  0.2804 -0.1820
  995MOL0     H34305   3.468   7.214   0.007 -0.4855 -1.6812  0.9537
  995MOL0     H34306   3.464   6.972  -0.032 -1.2208 -2.4546 -2.3055
  995MOL0     H34307   3.366   6.648  -0.437  1.0712  1.6151  0.9824
  995MOL0     H34308   3.376   6.417  -0.503 -0.5888 -0.4309  0.2331
  995MOL0     H34309   2.046   5.384   0.236 -0.7982 -1.5145  3.6795
  995MOL0     H34310   1.827   5.365   0.371 -1.1217  1.9897  1.7841
  995MOL0     H34311   1.589   5.525   0.683 -0.8487  5.0989 -0.1800
  995MOL0     H34312   1.420   5.452   0.847 -0.7087  1.4152  0.3667
  995MOL0     H34313   1.139   5.625   0.804  0.4736  0.0830 -0.0561
  995MOL0     H34314   1.220   5.549   0.932  0.0529 -0.0434 -0.4010
  995MOL0     H34315   0.930   5.484   0.865  0.8626  2.2424 -2.2272
  995MOL0     H34316   0.969   5.639   0.951  0.8055  0.6442 -0.2344
  995MOL0     H34317   1.075   5.532   1.130  2.3207  1.1073 -4.1668
  995MOL0     H34318   1.030   5.375   1.079  2.3022  0.6016  1.3636
  995MOL0     H34319   0.802   5.404   1.129 -0.0818  0.6174  0.2132
  995MOL0     H34320   0.888   5.469   1.268 -0.4791  3.2660  0.9018
  995MOL0     H34321   0.598   5.699   1.061 -0.2022  1.0368 -1.3006
  995MOL0     H34322   1.125   5.456   0.548 -0.3287  2.9995  1.0942
  995MOL0     H34323   1.159   5.506   0.323  1.4864 -1.9189 -3.6290
  995MOL0     H34324   1.239   5.658   0.322  0.7552  0.1404  0.6532
  995MOL0     H34325   1.323   5.518   0.250  1.9574  1.8249 -0.0801
  996MOL0     O34326   3.270   6.540   0.592 -0.1885  0.4933 -0.2709
  996MOL0     C34327   3.293   6.545   0.711  0.7969  0.1303 -0.3875
  996MOL0     O34328   3.416   6.546   0.774 -0.1376  0.0259 -0.2792
  996MOL0     C34329   3.528   6.556   0.702 -0.3159 -0.2637 -0.8126
  996MOL0     C34330   3.546   6.650   0.594  0.8350 -0.1599 -0.3999
  996MOL0     C34331   3.665   6.654   0.529  0.3916  0.1635  0.0803
  996MOL0     C34332   3.784   6.581   0.571  0.8631 -0.6213 -0.1222
  996MOL0     O34333   3.897   6.615   0.505  0.3013 -0.5280  0.4097
  996MOL0     C34334   3.993   6.523   0.467  0.4265  0.0765  0.4106
  996MOL0     C34335   4.137   6.591   0.481  0.3787  0.1487  0.5883
  996MOL0     C34336   4.158   6.704   0.377  0.2993 -0.4336  0.4376
  996MOL0     C34337   4.295   6.779   0.373 -0.6314 -0.8089 -0.7511
  996MOL0     C34338   4.338   6.853   0.252  0.2762 -0.3591  0.4760
  996MOL0     C34339   4.226   6.957   0.193  0.4885 -0.4310 -0.9084
  996MOL0     C34340   4.283   7.013   0.059 -0.3696  0.3207 -0.6920
  996MOL0     C34341   4.345   7.155   0.079 -0.1671 -0.2455  0.0562
  996MOL0     N34342   4.485   7.152   0.130  0.7630  0.6829 -0.3032
  996MOL0     C34343   4.598   7.126   0.055  0.7926  0.0482  0.6126
  996MOL0     C34344   4.701   7.137   0.144  0.2330 -0.5455  0.8082
  996MOL0     C34345   4.844   7.093   0.105  0.6775  0.8833  0.8464
  996MOL0     C34346   4.848   6.954   0.041  0.3199  0.2887 -0.4108
  996MOL0     C34347   4.985   6.883   0.020  0.8096 -0.0252  0.0984
  996MOL0     C34348   5.087   6.962  -0.069 -0.3010  0.5747  0.7122
  996MOL0     O34349   5.117   7.081  -0.007 -0.0187 -0.1890  0.7255
  996MOL0     C34350   5.216   7.158  -0.065  0.1845 -0.3109  0.2204
  996MOL0     C34351   5.340   7.098  -0.122  0.1497  0.6546  0.3384
  996MOL0     C34352   5.436   7.188  -0.169  0.1256 -0.2249 -0.2104
  996MOL0     C34353   5.433   7.332  -0.158  0.1616 -0.2244  0.5403
  996MOL0     C34354   5.547   7.419  -0.202 -0.2534 -0.0674  0.1089
  996MOL0     O34355   5.666   7.351  -0.213 -0.0600  0.1096 -0.3426
  996MOL0     C34356   5.786   7.421  -0.228 -0.0211  0.7559 -0.7278
  996MOL0     C34357   5.813   7.524  -0.316 -0.6314 -0.5445  0.4413
  996MOL0     C34358   5.954   7.561  -0.342  1.0092 -1.2271  0.2024
  996MOL0     C34359   6.055   7.499  -0.280 -0.0858 -0.1368  0.1392
  996MOL0     O34360   6.175   7.547  -0.312  0.3324 -0.1232 -0.1184
  996MOL0     C34361   6.291   7.517  -0.230  0.8821  0.0141 -0.5859
  996MOL0     C34362   6.413   7.577  -0.297  0.3721 -0.1893 -0.6715
  996MOL0     C34363   6.528   7.603  -0.207  0.1990 -0.1634  0.2229
  996MOL0     C34364   6.633   7.686  -0.294 -0.6655  1.1787  0.5318
  996MOL0     C34365   6.758   7.710  -0.224 -0.6311 -0.7323  0.2052
  996MOL0     C34366   6.846   7.792  -0.295 -0.1741  0.1938 -0.1230
  996MOL0     C34367   6.947   7.869  -0.204  0.3082  0.1827 -0.2887
  996MOL0     C34368   7.015   7.988  -0.267  0.2514  0.3786 -1.0346
  996MOL0    Cl34369   6.890   8.102  -0.319 -0.3517  0.2134  0.0964
  996MOL0     C34370   6.030   7.395  -0.184  0.8996  0.5785 -0.0299
  996MOL0     C34371   5.898   7.357  -0.161  0.5757 -0.4718  0.1876
  996MOL0     O34372   5.539   7.541  -0.202  0.3736 -0.1766  0.2013
  996MOL0     C34373   5.311   7.384  -0.107  0.1720 -0.0209  0.1227
  996MOL0     C34374   5.201   7.299  -0.068 -0.5982 -0.4683 -0.0246
  996MOL0     N34375   4.657   7.177   0.267 -0.2554 -0.3540  0.2042
  996MOL0     N34376   4.526   7.175   0.261 -0.1096 -0.1395  0.4779
  996MOL0     C34377   3.759   6.479   0.657 -0.0045 -0.0442  0.0790
  996MOL0     C34378   3.633   6.468   0.731  0.4452 -0.7253 -0.6666
  996MOL0     C34379   3.174   6.539   0.809  0.3642 -0.3666  0.0121
  996MOL0     C34380   3.212   6.555   0.943  0.0579  0.9700  0.4059
  996MOL0     C34381   3.124   6.561   1.047 -0.3470 -0.3361  0.2664
  996MOL0     C34382   2.988   6.562   1.023 -1.6701 -0.5908 -0.0526
  996MOL0     O34383   2.914   6.594   1.131  0.4840  0.3971  0.1050
  996MOL0     C34384   2.775   6.612   1.130  0.3935 -0.6818  0.4713
  996MOL0     C34385   2.734   6.754   1.182  0.7747  0.2200  0.4489
  996MOL0     C34386   2.756   6.867   1.074  0.6495 -0.3878 -0.9544
  996MOL0     C34387   2.736   7.002   1.143 -0.0317  0.9166 -0.1370
  996MOL0     C34388   2.594   7.015   1.191 -0.1982 -0.7788 -0.0571
  996MOL0     C34389   2.491   7.027   1.253  0.4879 -0.7858  0.6504
  996MOL0     C34390   2.944   6.557   0.891 -0.4042 -0.2112 -0.0208
  996MOL0     C34391   3.033   6.540   0.783 -1.5341 -0.8626 -0.0688
  996MOL0     C34392   2.974   6.542   0.638  0.6657  0.0155 -0.0233
  996MOL0     H34393   3.462   6.699   0.547  0.5115 -0.6066 -0.2932
  996MOL0     H34394   3.675   6.719   0.443  0.0360  4.3696  2.9166
  996MOL0     H34395   3.999   6.435   0.531  0.4470 -0.2862 -0.0824
  996MOL0     H34396   3.976   6.487   0.365  0.4031  0.5244  0.2539
  996MOL0     H34397   4.207   6.507   0.474 -2.8166 -2.9307  2.1976
  996MOL0     H34398   4.147   6.630   0.583  2.0902 -1.8973  1.2759
  996MOL0     H34399   4.088   6.788   0.389  1.5355  0.7381 -0.2616
  996MOL0     H34400   4.142   6.662   0.277 -3.4988  2.5268 -0.4307
  996MOL0     H34401   4.293   6.859   0.447  0.2454 -2.3305  1.0088
  996MOL0     H34402   4.371   6.704   0.399 -1.5553 -2.4643 -2.5748
  996MOL0     H34403   4.431   6.906   0.273  0.1496 -0.6135  1.7805
  996MOL0     H34404   4.365   6.778   0.177  2.3620  1.5749 -0.8018
  996MOL0     H34405   4.131   6.904   0.181  0.7807 -0.8847 -1.2414
  996MOL0     H34406   4.205   7.040   0.261  1.4468 -0.7641 -0.1855
  996MOL0     H34407   4.202   7.035  -0.010 -0.0700  0.3936 -1.0260
  996MOL0     H34408   4.354   6.944   0.011 -0.9592 -1.5380  0.9879
  996MOL0     H34409   4.339   7.209  -0.017 -2.2573 -2.0537 -0.8996
  996MOL0     H34410   4.292   7.221   0.148 -0.6811 -1.3561  0.7365
  996MOL0     H34411   4.594   7.100  -0.050 -1.4594 -0.2099  0.7135
  996MOL0     H34412   4.895   7.170   0.046 -1.6241  1.4968 -0.4402
  996MOL0     H34413   4.898   7.082   0.200 -0.0139  1.2665  1.2928
  996MOL0     H34414   4.789   6.890   0.108 -1.7336  0.8191 -1.6439
  996MOL0     H34415   4.792   6.944  -0.052 -1.9717 -0.0011  0.9179
  996MOL0     H34416   4.955   6.789  -0.027  0.2367  0.0260  0.3582
  996MOL0     H34417   5.029   6.857   0.117  1.1504 -2.2885 -0.6052
  996MOL0     H34418   5.052   6.977  -0.172 -0.2674 -3.4408 -0.0594
  996MOL0     H34419   5.172   6.893  -0.068 -0.1310  0.7704  0.0344
  996MOL0     H34420   5.363   6.992  -0.123 -0.5405  0.4920  1.1847
  996MOL0     H34421   5.518   7.147  -0.228  0.3850  0.9223 -0.6728
  996MOL0     H34422   5.723   7.571  -0.355 -0.7186 -0.7088  0.4437
  996MOL0     H34423   5.973   7.639  -0.415 -0.9409  0.1903  1.0991
  996MOL0     H34424   6.273   7.549  -0.127 -0.2450 -0.4185 -0.6364
  996MOL0     H34425   6.313   7.410  -0.233 -0.2604 -0.2928  0.6135
  996MOL0     H34426   6.457   7.514  -0.375 -1.1883 -0.2976 -1.4877
  996MOL0     H34427   6.373   7.669  -0.338 -0.9051 -0.3912  0.0533
  996MOL0     H34428   6.505   7.645  -0.109  1.5609 -0.3836  0.6540
  996MOL0     H34429   6.579   7.511  -0.177  0.2264  0.7541  3.3384
  996MOL0     H34430   6.581   7.777  -0.325 -3.0049  0.2728  1.5334
  996MOL0     H34431   6.643   7.633  -0.389 -1.7985  1.2656  0.3490
  996MOL0     H34432   6.798   7.617  -0.183 -3.1309 -0.3254  4.0582
  996MOL0     H34433   6.727   7.769  -0.137 -1.2828 -0.8371  0.0448
  996MOL0     H34434   6.897   7.739  -0.375 -2.7273 -1.4928 -0.7374
  996MOL0     H34435   6.781   7.867  -0.341 -3.0552 -1.0677  1.5699
  996MOL0     H34436   7.031   7.802  -0.182  1.3892  1.5676 -0.0324
  996MOL0     H34437   6.907   7.907  -0.110  2.1081  0.6471  0.3375
  996MOL0     H34438   7.073   8.029  -0.184 -0.3479  1.0124 -0.9212
  996MOL0     H34439   7.086   7.953  -0.343 -1.2630 -1.8648 -1.5232
  996MOL0     H34440   6.099   7.321  -0.144 -1.2592 -1.4579  0.1396
  996MOL0     H34441   5.883   7.276  -0.089  2.3835 -1.4126 -0.4400
  996MOL0     H34442   5.288   7.489  -0.100 -2.6856 -0.6135  1.0240
  996MOL0     H34443   5.103   7.342  -0.055 -1.5480 -2.9285  1.8023
  996MOL0     H34444   3.839   6.409   0.681 -0.6162 -1.0765 -0.7782
  996MOL0     H34445   3.615   6.393   0.808 -2.8392 -0.5881 -1.1458
  996MOL0     H34446   3.315   6.582   0.963 -0.1008  1.3890  0.6761
  996MOL0     H34447   3.160   6.603   1.140 -0.6802 -0.8417  0.6306
  996MOL0     H34448   2.722   6.531   1.180 -0.6576 -0.7843 -0.7357
  996MOL0     H34449   2.735   6.624   1.028  2.9263  4.4839 -0.2644
  996MOL0     H34450   2.803   6.774   1.264  0.8494  0.8097  0.2478
  996MOL0     H34451   2.631   6.758   1.219  0.4367 -2.1624 -0.0423
  996MOL0     H34452   2.687   6.860   0.990  0.9986  0.0691 -1.2808
  996MOL0     H34453   2.859   6.856   1.039  0.7552 -1.4222 -0.3835
  996MOL0     H34454   2.808   7.004   1.225 -0.2587 -1.1748  0.1645
  996MOL0     H34455   2.752   7.081   1.069  1.5520  1.2152  0.4765
  996MOL0     H34456   2.392   7.024   1.293 -0.2005  0.5448 -0.8599
  996MOL0     H34457   2.840   6.553   0.861  0.3760  0.1274 -3.0920
  996MOL0     H34458   2.868   6.515   0.646  1.2256 -2.2640  0.5716
  996MOL0     H34459   2.994   6.640   0.594  3.7091  0.4682  2.0242
  996MOL0     H34460   3.012   6.460   0.577 -1.7185 -0.4614 -0.9861
  997MOL0     O34461   0.506   5.425   7.236  0.4625 -0.2335 -0.0575
  997MOL0     C34462   0.474   5.518   7.307  0.6246  0.7798  0.0726
  997MOL0     O34463   0.558   5.584   7.388  0.7716  0.2876 -0.2848
  997MOL0     C34464   0.691   5.539   7.392  0.0592 -0.0887 -0.2993
  997MOL0     C34465   0.781   5.557   7.287  0.7198  0.1957  0.8724
  997MOL0     C34466   0.908   5.502   7.293 -0.1128 -0.0118  0.2048
  997MOL0     C34467   0.955   5.435   7.407  0.3326 -0.3791 -0.1321
  997MOL0     O34468   1.083   5.382   7.413  0.1426  0.1079 -0.1111
  997MOL0     C34469   1.094   5.238   7.412 -0.0742  0.1558  1.0913
  997MOL0     C34470   1.238   5.191   7.411  0.1906  0.0409 -0.7134
  997MOL0     C34471   1.310   5.183   7.277  0.2863  0.3556 -0.5884
  997MOL0     C34472   1.432   5.076   7.291  0.0631 -0.4951  0.3572
  997MOL0     C34473   1.497   5.060   7.155  0.1740 -0.7468 -0.4544
  997MOL0     C34474   1.623   5.145   7.163  0.2941 -0.4209 -0.6200
  997MOL0     C34475   1.701   5.159   7.026  0.7260 -0.4478  0.0635
  997MOL0     C34476   1.624   5.238   6.920  0.9108  0.5271  0.6373
  997MOL0     N34477   1.709   5.267   6.800 -0.3882  0.5309  1.1187
  997MOL0     C34478   1.716   5.187   6.689  0.4792  0.7373 -0.1700
  997MOL0     C34479   1.784   5.261   6.602  0.7658  0.7290 -0.4925
  997MOL0     C34480   1.807   5.229   6.455 -1.0157  0.2939 -0.5570
  997MOL0     C34481   1.852   5.079   6.441  0.2812 -0.4050  0.4736
  997MOL0     C34482   1.880   5.040   6.301 -0.0621 -0.7236  0.2390
  997MOL0     C34483   2.009   5.111   6.245 -0.3660  0.1434 -0.1088
  997MOL0     O34484   2.121   5.126   6.339 -0.0341 -0.5272  0.0489
  997MOL0     C34485   2.247   5.166   6.294  0.3947  0.2137  0.1929
  997MOL0     C34486   2.354   5.170   6.383 -0.1425  0.1920 -0.3329
  997MOL0     C34487   2.485   5.169   6.340  0.4495 -0.3526 -0.2814
  997MOL0     C34488   2.506   5.211   6.209 -0.7988  0.1935 -0.6685
  997MOL0     C34489   2.641   5.209   6.162  0.7699 -0.3103  0.3004
  997MOL0     O34490   2.743   5.231   6.250  0.4385  0.0046 -0.0719
  997MOL0     C34491   2.858   5.193   6.189 -0.9062  0.6272  1.2458
  997MOL0     C34492   2.948   5.289   6.137  0.8379  0.4090  1.0691
  997MOL0     C34493   3.079   5.258   6.089  0.4608 -0.6620 -0.1005
  997MOL0     C34494   3.129   5.125   6.078 -0.0028 -0.1854 -0.4126
  997MOL0     O34495   3.259   5.092   6.037  0.3394  0.0319 -0.5325
  997MOL0     C34496   3.283   4.963   5.966  0.2172 -0.0999  0.4886
  997MOL0     C34497   3.422   4.972   5.910  0.4820  0.6792  0.2515
  997MOL0     C34498   3.524   4.998   6.027 -0.5737 -0.4633  0.7986
  997MOL0     C34499   3.667   5.023   5.969  0.1056 -0.3633 -0.0591
  997MOL0     C34500   3.727   4.937   5.857 -0.2108  0.4273 -0.7627
  997MOL0     C34501   3.744   4.786   5.899 -0.3147  0.4019 -0.0891
  997MOL0     C34502   3.836   4.720   5.801 -0.0843 -0.2427  0.4640
  997MOL0     C34503   3.781   4.712   5.661 -0.5935  0.5485 -0.6055
  997MOL0    Cl34504   3.631   4.626   5.649 -0.4667  0.0914 -0.0032
  997MOL0     C34505   3.037   5.029   6.130 -0.2448  0.9086 -0.7231
  997MOL0     C34506   2.909   5.062   6.191 -0.0276 -0.0589 -0.2633
  997MOL0     O34507   2.650   5.194   6.037 -0.8577 -0.6835  0.3284
  997MOL0     C34508   2.397   5.222   6.125 -0.7639  0.5214  0.5560
  997MOL0     C34509   2.269   5.198   6.163  0.1555 -0.9190 -0.3257
  997MOL0     N34510   1.832   5.379   6.661  0.3085  0.2167  0.0350
  997MOL0     N34511   1.778   5.383   6.777  0.3369  0.7390  0.0869
  997MOL0     C34512   0.861   5.420   7.510  0.5509 -0.5028  0.1947
  997MOL0     C34513   0.737   5.482   7.511  0.4599  0.3925 -0.1977
  997MOL0     C34514   0.335   5.562   7.294 -0.6851  0.2522  0.3741
  997MOL0     C34515   0.292   5.666   7.382 -0.7787  0.2914  0.8047
  997MOL0     C34516   0.162   5.702   7.378 -0.1254 -0.5947 -0.2371
  997MOL0     C34517   0.061   5.651   7.292 -0.1423  0.4748  0.9586
  997MOL0     O34518  -0.071   5.691   7.303 -0.0125 -0.6778 -0.1729
  997MOL0     C34519  -0.180   5.631   7.233  0.6081 -0.9333  0.3488
  997MOL0     C34520  -0.321   5.644   7.283 -0.6370  0.4474 -0.8674
  997MOL0     C34521  -0.330   5.585   7.430 -0.3964  0.2280  0.7786
  997MOL0     C34522  -0.459   5.634   7.491  0.0701 -0.5801  0.1543
  997MOL0     C34523  -0.573   5.564   7.429 -0.1441 -0.3134  0.3009
  997MOL0     C34524  -0.661   5.500   7.375 -0.1693  0.3914 -0.3528
  997MOL0     C34525   0.107   5.565   7.193  0.1499  0.2185 -0.5150
  997MOL0     C34526   0.243   5.516   7.191  0.8032 -0.6097 -0.5277
  997MOL0     C34527   0.257   5.403   7.098 -0.0317  0.7672  0.1564
  997MOL0     H34528   0.748   5.612   7.199  0.4030 -1.4545 -0.0669
  997MOL0     H34529   0.959   5.512   7.198 -0.4098 -1.2489 -0.1050
  997MOL0     H34530   1.043   5.196   7.500 -1.5837 -0.0543  0.1495
  997MOL0     H34531   1.047   5.193   7.324  0.7078 -0.7505  1.1265
  997MOL0     H34532   1.236   5.092   7.459  0.7568  0.1282 -0.4959
  997MOL0     H34533   1.295   5.258   7.476 -0.1531 -0.9522  0.6789
  997MOL0     H34534   1.343   5.282   7.243  0.3404  1.2181  1.7678
  997MOL0     H34535   1.232   5.153   7.206 -0.2315  1.5511 -0.5571
  997MOL0     H34536   1.500   5.102   7.373  1.0412 -4.0624  0.8477
  997MOL0     H34537   1.384   4.980   7.315 -0.3128 -1.0694 -2.3594
  997MOL0     H34538   1.526   4.955   7.149  1.4395 -0.5421  1.3160
  997MOL0     H34539   1.421   5.085   7.080 -0.5254 -0.3814  0.3563
  997MOL0     H34540   1.592   5.243   7.200 -0.7046 -1.1116  0.4422
  997MOL0     H34541   1.696   5.108   7.236  2.1782  2.5722 -0.8437
  997MOL0     H34542   1.719   5.058   6.989  0.0140 -0.2052 -1.0064
  997MOL0     H34543   1.798   5.208   7.040  0.7407 -0.0579 -1.3157
  997MOL0     H34544   1.535   5.186   6.883 -0.3586  3.4246 -0.7481
  997MOL0     H34545   1.575   5.329   6.955 -1.2839 -0.5201  0.4685
  997MOL0     H34546   1.672   5.090   6.666 -0.4184  1.6460 -2.6326
  997MOL0     H34547   1.709   5.237   6.406 -0.7451 -2.5163 -1.7498
  997MOL0     H34548   1.880   5.301   6.416  0.8224  0.7897  3.3404
  997MOL0     H34549   1.944   5.076   6.500  0.3312 -1.8420  0.3448
  997MOL0     H34550   1.775   5.012   6.479 -3.6361  2.5598 -1.5040
  997MOL0     H34551   1.790   5.048   6.240  0.6480  4.3474 -0.5485
  997MOL0     H34552   1.897   4.932   6.303 -0.6156 -0.9389 -2.5642
  997MOL0     H34553   1.991   5.215   6.214  2.0193 -0.0090 -2.2975
  997MOL0     H34554   2.049   5.053   6.161  0.5033 -0.4712  0.7202
  997MOL0     H34555   2.308   5.134   6.474 -0.3255  0.2901 -0.3863
  997MOL0     H34556   2.558   5.146   6.416  0.9528  1.4666 -0.1827
  997MOL0     H34557   2.909   5.390   6.139 -0.5193 -0.0914  0.7129
  997MOL0     H34558   3.145   5.339   6.059 -1.2817  2.2840  3.2616
  997MOL0     H34559   3.276   4.884   6.041 -3.3003  0.9085  1.4530
  997MOL0     H34560   3.208   4.931   5.893  1.8395 -1.6783 -0.5591
  997MOL0     H34561   3.450   4.880   5.858 -0.8479 -0.8973  2.1982
  997MOL0     H34562   3.408   5.054   5.838 -0.3672  0.6593  0.3912
  997MOL0     H34563   3.508   5.090   6.084 -2.3467 -1.2911  1.7080
  997MOL0     H34564   3.522   4.909   6.090  0.2760 -0.7602  0.4202
  997MOL0     H34565   3.741   5.024   6.050 -1.6703 -0.9621  1.6342
  997MOL0     H34566   3.664   5.124   5.927  1.4324 -0.1756  0.2520
  997MOL0     H34567   3.823   4.979   5.827  0.4720 -0.4786  0.0849
  997MOL0     H34568   3.659   4.934   5.770 -2.0647  0.3147  0.6205
  997MOL0     H34569   3.790   4.779   5.997 -0.1073  4.2414  0.2436
  997MOL0     H34570   3.650   4.730   5.904  0.1185 -0.2235  3.2096
  997MOL0     H34571   3.856   4.620   5.841  1.3139  0.3213  1.2336
  997MOL0     H34572   3.925   4.783   5.799 -0.2139 -0.0074  1.5048
  997MOL0     H34573   3.780   4.815   5.625  3.4811  0.5976 -1.0990
  997MOL0     H34574   3.857   4.667   5.596 -0.2395 -1.2683  0.9729
  997MOL0     H34575   3.066   4.927   6.154 -2.7249  0.6579  1.7111
  997MOL0     H34576   2.853   4.984   6.241  0.8432 -1.9537 -2.0798
  997MOL0     H34577   2.417   5.249   6.021  1.6743  2.6252  1.4382
  997MOL0     H34578   2.186   5.213   6.095  1.0761  4.3636 -0.6838
  997MOL0     H34579   0.909   5.361   7.586  3.1584  0.3256 -0.6929
  997MOL0     H34580   0.666   5.483   7.593 -0.9269  3.7909 -1.2742
  997MOL0     H34581   0.358   5.715   7.452  0.2050 -1.6934  1.3593
  997MOL0     H34582   0.128   5.771   7.455 -0.1944 -2.3875  1.4065
  997MOL0     H34583  -0.161   5.525   7.217  0.6830 -0.8010 -0.4880
  997MOL0     H34584  -0.185   5.678   7.134 -3.0341 -0.1032  0.7726
  997MOL0     H34585  -0.396   5.593   7.222 -1.5560 -1.3172  1.5929
  997MOL0     H34586  -0.350   5.749   7.275  3.0414  1.6418 -0.1422
  997MOL0     H34587  -0.250   5.621   7.496  0.6945 -3.1718  1.5205
  997MOL0     H34588  -0.318   5.476   7.434  0.7427  0.3772  2.3898
  997MOL0     H34589  -0.461   5.617   7.599 -1.3661 -0.6641  0.1285
  997MOL0     H34590  -0.469   5.741   7.476  2.2184 -0.1268  1.5233
  997MOL0     H34591  -0.739   5.441   7.333  0.0179 -1.5736  1.8604
  997MOL0     H34592   0.039   5.526   7.118  4.1352 -3.6147 -2.6264
  997MOL0     H34593   0.246   5.304   7.144  0.7759  0.4103 -0.3910
  997MOL0     H34594   0.182   5.416   7.020 -2.3072 -0.0054  2.0754
  997MOL0     H34595   0.351   5.402   7.043  0.4828 -1.9616  0.9096
  998MOL0     O34596   8.176   8.384   7.272  0.8492  0.3855 -0.2694
  998MOL0     C34597   8.082   8.304   7.277 -0.5813  0.4412  0.3999
  998MOL0     O34598   8.091   8.186   7.350 -0.0937 -0.2174  0.0564
  998MOL0     C34599   8.207   8.178   7.424  0.1790 -0.2902 -0.6657
  998MOL0     C34600   8.235   8.262   7.531  0.2956 -0.5332  0.4769
  998MOL0     C34601   8.353   8.255   7.603 -0.2182 -0.3301 -0.0909
  998MOL0     C34602   8.458   8.162   7.573  0.5634 -0.9491  0.0651
  998MOL0     O34603   8.572   8.159   7.642 -0.5481  0.3337  0.1010
  998MOL0     C34604   8.582   8.200   7.786 -0.6543 -0.2616 -0.4520
  998MOL0     C34605   8.732   8.182   7.816 -0.3244  0.1805 -0.3968
  998MOL0     C34606   8.781   8.230   7.958 -0.0004 -1.5026 -0.3753
  998MOL0     C34607   8.905   8.166   8.021 -0.2705 -0.6243 -0.1468
  998MOL0     C34608   9.035   8.178   7.932  0.1769  0.1651  0.7689
  998MOL0     C34609   9.148   8.097   7.986 -0.1327 -0.2635 -0.1910
  998MOL0     C34610   9.292   8.141   7.930  0.1799 -0.5002 -0.1342
  998MOL0     C34611   9.287   8.076   7.787 -0.7604 -0.2289  0.2708
  998MOL0     N34612   9.430   8.056   7.744  0.4178  0.3167  0.0099
  998MOL0     C34613   9.508   8.158   7.693 -0.0991 -0.2442  0.5872
  998MOL0     C34614   9.635   8.098   7.685  0.2717  0.4658 -0.1759
  998MOL0     C34615   9.755   8.175   7.626  1.1248 -0.3769  0.5657
  998MOL0     C34616   9.859   8.214   7.734 -0.6488 -0.6532 -1.2488
  998MOL0     C34617   9.971   8.109   7.745 -0.3293  0.1025 -0.5696
  998MOL0     C34618  10.044   8.131   7.872 -0.0061  0.4300 -0.1004
  998MOL0     O34619  10.126   8.241   7.867 -0.1208  0.5217 -0.1890
  998MOL0     C34620  10.248   8.229   7.938  0.2034  0.6442  0.6447
  998MOL0     C34621  10.353   8.306   7.896 -0.0809 -0.2903  0.4232
  998MOL0     C34622  10.476   8.304   7.954 -0.0661 -0.4722  0.1926
  998MOL0     C34623  10.501   8.215   8.058  0.0083  1.0090  0.5406
  998MOL0     C34624  10.641   8.215   8.121  0.6164  0.1861  0.6330
  998MOL0     O34625  10.668   8.115   8.214 -0.1581 -0.0882  0.7675
  998MOL0     C34626  10.793   8.109   8.269 -0.2959  0.2462  0.2144
  998MOL0     C34627  10.795   8.087   8.405 -0.3579 -0.3270  0.6044
  998MOL0     C34628  10.912   8.090   8.477 -0.4088  0.1852  0.0573
  998MOL0     C34629  11.036   8.107   8.418 -0.3358 -0.2273  0.0472
  998MOL0     O34630  11.156   8.102   8.498  1.2600  0.0327  0.0303
  998MOL0     C34631  11.263   8.192   8.458  0.9193  0.4036  0.2843
  998MOL0     C34632  11.348   8.242   8.572  0.9040 -0.4476 -0.0470
  998MOL0     C34633  11.456   8.141   8.603 -1.0113 -0.2771 -0.2271
  998MOL0     C34634  11.540   8.204   8.713 -0.1376 -0.6950 -0.2474
  998MOL0     C34635  11.694   8.186   8.694 -0.2233 -0.0638  0.1672
  998MOL0     C34636  11.767   8.244   8.820 -0.2609  0.8455 -0.0901
  998MOL0     C34637  11.926   8.236   8.815 -0.0254 -0.9409 -0.0819
  998MOL0     C34638  11.999   8.323   8.909 -0.4035  0.5640  0.4166
  998MOL0    Cl34639  12.167   8.279   8.901  0.0974  0.0431 -0.0245
  998MOL0     C34640  11.039   8.121   8.275  0.0427  0.0576 -0.1557
  998MOL0     C34641  10.919   8.119   8.202  0.0418 -0.1098  0.4787
  998MOL0     O34642  10.720   8.287   8.066 -0.0987  0.4567 -0.3672
  998MOL0     C34643  10.396   8.140   8.106 -0.9279  0.4730  0.9673
  998MOL0     C34644  10.274   8.152   8.040  0.1307  0.0881 -0.1024
  998MOL0     N34645   9.634   7.974   7.733  0.2261 -0.0759  0.0392
  998MOL0     N34646   9.513   7.953   7.776  0.0098 -0.0895  0.6809
  998MOL0     C34647   8.430   8.080   7.463 -0.4071 -0.7091  0.0772
  998MOL0     C34648   8.312   8.095   7.387  0.2145  0.6118  0.0194
  998MOL0     C34649   7.949   8.334   7.216 -0.5820 -0.7352 -0.1393
  998MOL0     C34650   7.863   8.226   7.176  0.0718  0.6006 -0.3820
  998MOL0     C34651   7.734   8.236   7.130 -0.8436  0.5301 -0.0267
  998MOL0     C34652   7.694   8.370   7.100 -0.4325 -0.0346  0.7722
  998MOL0     O34653   7.569   8.405   7.044  0.3445 -0.7144 -0.2623
  998MOL0     C34654   7.502   8.313   6.952 -0.0103 -0.0651 -0.9564
  998MOL0     C34655   7.570   8.335   6.818 -0.5420 -0.8851 -0.8545
  998MOL0     C34656   7.539   8.478   6.770 -0.4445 -0.2499 -0.3317
  998MOL0     C34657   7.609   8.512   6.635  0.0403 -0.5012  0.5281
  998MOL0     C34658   7.758   8.513   6.625 -1.0615  0.1701  0.6020
  998MOL0     C34659   7.878   8.503   6.637  0.0973 -0.5119 -0.7130
  998MOL0     C34660   7.769   8.470   7.139  0.1671 -0.6199  0.1604
  998MOL0     C34661   7.896   8.463   7.202 -0.2988 -0.5037  0.0733
  998MOL0     C34662   7.953   8.590   7.263  0.1999  0.8986 -0.6711
  998MOL0     H34663   8.164   8.339   7.559  0.5529  0.2178 -0.8266
  998MOL0     H34664   8.357   8.311   7.696  2.0103 -1.6962  0.7248
  998MOL0     H34665   8.544   8.299   7.814 -2.4580 -0.9089 -0.4760
  998MOL0     H34666   8.523   8.131   7.847 -1.0116 -0.8382 -1.4200
  998MOL0     H34667   8.795   8.231   7.740 -1.5894  2.0210 -0.3368
  998MOL0     H34668   8.751   8.075   7.821  2.8200  0.7110  2.2277
  998MOL0     H34669   8.696   8.213   8.025  0.6846 -0.1687  0.9053
  998MOL0     H34670   8.796   8.339   7.956 -0.4501 -1.3262  2.0501
  998MOL0     H34671   8.924   8.224   8.111  1.5581 -1.2825 -0.0664
  998MOL0     H34672   8.869   8.065   8.043  0.2852 -0.6224  0.8180
  998MOL0     H34673   9.010   8.153   7.828  0.3469  2.1729  0.1938
  998MOL0     H34674   9.052   8.286   7.922  0.2530 -0.0652 -3.2805
  998MOL0     H34675   9.148   8.120   8.093 -0.2514  0.2173 -0.2934
  998MOL0     H34676   9.128   7.990   7.990 -4.6729  0.4247  0.7697
  998MOL0     H34677   9.371   8.100   7.993  0.1161  1.2194  1.1533
  998MOL0     H34678   9.297   8.250   7.927 -1.5810 -0.3321  1.2677
  998MOL0     H34679   9.232   7.982   7.798 -3.7296  1.5258  1.8574
  998MOL0     H34680   9.232   8.139   7.717 -1.5649  1.5453  2.3714
  998MOL0     H34681   9.479   8.259   7.670 -1.8197 -0.6675  0.7524
  998MOL0     H34682   9.800   8.107   7.553  1.5886 -1.5514  1.9151
  998MOL0     H34683   9.727   8.267   7.573  3.6390 -1.2194 -2.5115
  998MOL0     H34684   9.902   8.311   7.709 -1.3924  0.2648  0.7756
  998MOL0     H34685   9.808   8.239   7.828 -0.7603  1.8925 -1.9382
  998MOL0     H34686  10.031   8.108   7.653  1.5619  0.0366  0.6057
  998MOL0     H34687   9.950   8.002   7.751  2.2622 -0.5447 -1.6599
  998MOL0     H34688  10.100   8.038   7.884  0.7033  0.8133 -0.4004
  998MOL0     H34689   9.978   8.147   7.958  1.3195  3.3874  0.4965
  998MOL0     H34690  10.339   8.373   7.811  0.2748 -0.1284  0.4879
  998MOL0     H34691  10.560   8.358   7.911 -0.4882 -1.2453 -1.6981
  998MOL0     H34692  10.704   8.088   8.464 -2.1922  1.1516 -2.0912
  998MOL0     H34693  10.897   8.078   8.584 -1.5468  2.3123  0.1783
  998MOL0     H34694  11.319   8.127   8.390 -0.5619 -1.8772  1.1182
  998MOL0     H34695  11.211   8.269   8.401 -0.4914 -0.0330  0.9530
  998MOL0     H34696  11.396   8.329   8.527 -1.7443  0.3605 -1.5246
  998MOL0     H34697  11.287   8.264   8.659  1.0387  1.0108 -0.2964
  998MOL0     H34698  11.434   8.039   8.637 -0.2878  0.1112  1.5400
  998MOL0     H34699  11.525   8.114   8.523  1.4610 -4.0904  2.8138
  998MOL0     H34700  11.515   8.159   8.810  1.3397 -2.6234 -0.7068
  998MOL0     H34701  11.521   8.312   8.712 -0.7529 -0.6387 -4.9346
  998MOL0     H34702  11.725   8.247   8.609  2.6896 -0.5537  0.7590
  998MOL0     H34703  11.728   8.085   8.670  2.3723  0.5502  0.8538
  998MOL0     H34704  11.734   8.347   8.834  1.0952  1.7392 -2.6688
  998MOL0     H34705  11.729   8.187   8.904 -0.2776  0.9864 -0.0012
  998MOL0     H34706  11.961   8.272   8.717 -1.2375  0.9754  0.1464
  998MOL0     H34707  11.956   8.132   8.828  0.6710 -0.6238  1.0118
  998MOL0     H34708  11.975   8.428   8.892 -0.9457  0.6074  1.3558
  998MOL0     H34709  11.962   8.297   9.009  2.4901  1.1419  1.7343
  998MOL0     H34710  11.137   8.135   8.230  0.3318 -1.7025 -0.1284
  998MOL0     H34711  10.937   8.135   8.096 -1.6143  4.4005  0.6740
  998MOL0     H34712  10.409   8.075   8.192 -2.2303 -1.0928  0.0382
  998MOL0     H34713  10.187   8.095   8.073 -2.0811  2.2971 -1.7175
  998MOL0     H34714   8.508   8.007   7.445  0.9782  0.9721 -1.0988
  998MOL0     H34715   8.307   8.033   7.297  1.4631 -0.4171  0.6203
  998MOL0     H34716   7.900   8.124   7.184 -0.9306  0.2628  0.0677
  998MOL0     H34717   7.673   8.147   7.119 -0.4547  0.0345  1.5578
  998MOL0     H34718   7.396   8.342   6.952  0.6145  2.5593 -1.8192
  998MOL0     H34719   7.513   8.211   6.990  1.3123  0.9764  1.7115
  998MOL0     H34720   7.521   8.264   6.750 -1.7408  0.8509 -1.8912
  998MOL0     H34721   7.675   8.308   6.828 -0.3963  0.1825  0.8966
  998MOL0     H34722   7.577   8.552   6.841  0.0101 -2.5773  1.9531
  998MOL0     H34723   7.431   8.493   6.759 -0.1462  1.4489 -1.4018
  998MOL0     H34724   7.579   8.438   6.561  0.7730 -0.4428  0.1594
  998MOL0     H34725   7.566   8.607   6.600 -1.4797 -1.4976 -0.4175
  998MOL0     H34726   7.985   8.493   6.626  0.0518  0.6062 -2.6801
  998MOL0     H34727   7.718   8.566   7.135 -0.6392 -1.0564 -0.3908
  998MOL0     H34728   8.010   8.561   7.352 -1.2561  1.9218  0.6481
  998MOL0     H34729   8.032   8.637   7.204  3.0190 -1.1784  1.1235
  998MOL0     H34730   7.873   8.658   7.291 -0.8431  0.2576 -1.9971
  999MOL0     O34731   7.392   0.393   7.469  0.0637 -0.1593 -0.5816
  999MOL0     C34732   7.310   0.326   7.538 -0.4840  0.0056  0.0148
  999MOL0     O34733   7.342   0.258   7.659  0.6267 -0.3527  0.3857
  999MOL0     C34734   7.468   0.279   7.699 -0.3050  0.1100  0.0632
  999MOL0     C34735   7.509   0.390   7.769 -0.9018 -0.3273 -1.3733
  999MOL0     C34736   7.641   0.398   7.816  0.6002  0.3851  0.1130
  999MOL0     C34737   7.739   0.306   7.797  0.8330  0.1447  0.5646
  999MOL0     O34738   7.856   0.335   7.861  0.5252  0.6915 -0.5245
  999MOL0     C34739   7.941   0.224   7.855  0.7630 -0.4275  0.6105
  999MOL0     C34740   8.074   0.255   7.921 -0.0258 -0.3291 -0.0307
  999MOL0     C34741   8.172   0.135   7.947 -0.5469  0.0339 -0.0909
  999MOL0     C34742   8.308   0.181   8.003  0.5395 -1.0128  0.0876
  999MOL0     C34743   8.386   0.264   7.903 -0.1396  0.8651 -1.0840
  999MOL0     C34744   8.542   0.239   7.920 -0.2860  0.1307 -0.3699
  999MOL0     C34745   8.603   0.239   8.060 -0.3234 -0.0579 -0.4240
  999MOL0     C34746   8.744   0.173   8.061 -0.9560  0.7974  0.1411
  999MOL0     N34747   8.846   0.254   7.994  0.1566  0.5565 -0.2052
  999MOL0     C34748   8.900   0.371   8.049 -0.5404 -1.0133 -0.2017
  999MOL0     C34749   8.965   0.430   7.950 -0.3538  0.7135 -0.7549
  999MOL0     C34750   9.030   0.562   7.964  0.1238  0.3129  0.0607
  999MOL0     C34751   9.101   0.617   7.840 -0.6671 -0.0237 -0.2320
  999MOL0     C34752   9.226   0.531   7.804  0.8560 -1.2254  0.5331
  999MOL0     C34753   9.304   0.589   7.690 -0.4106 -0.4355  0.2916
  999MOL0     O34754   9.408   0.677   7.723 -0.3953  0.2181  0.1906
  999MOL0     C34755   9.462   0.755   7.625  0.0297 -0.0334 -0.2146
  999MOL0     C34756   9.542   0.854   7.676  0.7748 -0.6190  0.1424
  999MOL0     C34757   9.607   0.941   7.589  0.5878 -0.0918  0.2111
  999MOL0     C34758   9.589   0.935   7.452 -0.2383  0.2850 -0.2521
  999MOL0     C34759   9.656   1.030   7.356 -0.2862  0.1544  0.1146
  999MOL0     O34760   9.772   1.093   7.394 -0.1901  0.2519 -0.6774
  999MOL0     C34761   9.858   1.162   7.313  0.4168  0.0010  0.7737
  999MOL0     C34762   9.968   1.206   7.392  0.7268 -0.2075 -0.1473
  999MOL0     C34763  10.062   1.282   7.320 -0.9487 -0.0604  0.0252
  999MOL0     C34764  10.053   1.317   7.183 -0.7939 -0.0683 -0.5948
  999MOL0     O34765  10.142   1.409   7.127  0.0861  0.2251 -0.9459
  999MOL0     C34766  10.284   1.384   7.138 -0.1064 -0.3205 -0.3838
  999MOL0     C34767  10.358   1.501   7.069  0.5057 -0.2583  0.0715
  999MOL0     C34768  10.508   1.472   7.080 -0.7748  0.4109 -0.1945
  999MOL0     C34769  10.591   1.573   6.991 -0.3564  0.1751 -0.6722
  999MOL0     C34770  10.740   1.544   6.992 -0.4848  0.0535 -0.2497
  999MOL0     C34771  10.814   1.648   6.900  0.1929 -0.2050  0.3608
  999MOL0     C34772  10.966   1.614   6.913 -0.1132 -0.6782  0.3813
  999MOL0     C34773  11.055   1.724   6.854  0.4191 -0.5939  0.8604
  999MOL0    Cl34774  11.210   1.644   6.824  0.1636 -0.2228  0.5465
  999MOL0     C34775   9.943   1.279   7.113 -0.1613  0.0349  0.2732
  999MOL0     C34776   9.847   1.189   7.167 -0.0879 -0.6069  0.3835
  999MOL0     O34777   9.619   1.020   7.241 -0.2433  0.0312 -0.3860
  999MOL0     C34778   9.498   0.842   7.398 -0.0684 -0.0751  0.6413
  999MOL0     C34779   9.446   0.754   7.484  0.8285  0.9192  0.3249
  999MOL0     N34780   8.962   0.342   7.837  0.0480 -0.4961 -0.8956
  999MOL0     N34781   8.888   0.240   7.866 -0.4628  0.5942 -0.4798
  999MOL0     C34782   7.696   0.203   7.716  0.3230  1.1159 -0.9345
  999MOL0     C34783   7.567   0.182   7.675  0.9489  0.2647  0.6751
  999MOL0     C34784   7.161   0.314   7.497 -0.9705 -0.2634 -0.1273
  999MOL0     C34785   7.068   0.245   7.582 -0.2623 -0.3836 -0.3108
  999MOL0     C34786   6.934   0.242   7.558  0.0214  0.5499 -0.0334
  999MOL0     C34787   6.890   0.291   7.446 -0.8014  0.6101 -1.6648
  999MOL0     O34788   6.760   0.259   7.428  0.8917  0.2845  0.1911
  999MOL0     C34789   6.722   0.260   7.289 -0.7312 -0.2193  0.1902
  999MOL0     C34790   6.581   0.203   7.297 -0.5120  0.1793  0.5394
  999MOL0     C34791   6.580   0.050   7.336  0.3983 -0.5220 -0.0231
  999MOL0     C34792   6.437  -0.018   7.321 -0.0611 -0.1183  0.1156
  999MOL0     C34793   6.325   0.048   7.403  0.1636  0.3886 -0.1250
  999MOL0     C34794   6.248   0.088   7.485 -0.1770  1.0319  0.0321
  999MOL0     C34795   6.975   0.357   7.360 -0.3202 -0.3078 -0.3580
  999MOL0     C34796   7.108   0.365   7.382 -0.4033  0.1447  0.8464
  999MOL0     C34797   7.191   0.433   7.274  0.2551 -0.0468  0.7029
  999MOL0     H34798   7.442   0.473   7.789  0.7226  0.5738  0.8124
  999MOL0     H34799   7.676   0.484   7.872 -2.4688  1.9694 -0.1770
  999MOL0     H34800   7.898   0.146   7.918 -3.0570  1.3697  0.5736
  999MOL0     H34801   7.954   0.191   7.752  1.9740  2.2962 -0.2052
  999MOL0     H34802   8.050   0.290   8.022  0.4615 -2.8540  1.0318
  999MOL0     H34803   8.124   0.331   7.860  1.2836 -1.9995 -1.1466
  999MOL0     H34804   8.189   0.090   7.848  3.3377  2.4629 -0.7299
  999MOL0     H34805   8.125   0.070   8.021 -1.5871  2.4489  1.4904
  999MOL0     H34806   8.303   0.232   8.100 -0.9569 -3.7648  1.5597
  999MOL0     H34807   8.361   0.090   8.033  1.3292 -0.4411  0.4695
  999MOL0     H34808   8.356   0.239   7.801 -1.0309  2.0888 -1.1437
  999MOL0     H34809   8.364   0.366   7.934 -1.0742 -0.1113  1.7567
  999MOL0     H34810   8.572   0.147   7.871 -0.8606 -1.5568  2.2511
  999MOL0     H34811   8.593   0.317   7.862 -2.7717  2.2368  0.0578
  999MOL0     H34812   8.546   0.177   8.130  0.4989  0.5014  0.7638
  999MOL0     H34813   8.612   0.342   8.095  3.1052 -0.3598 -0.0504
  999MOL0     H34814   8.784   0.163   8.163 -0.4110 -0.9502 -0.2052
  999MOL0     H34815   8.738   0.070   8.025 -0.2423  0.5813  0.6263
  999MOL0     H34816   8.878   0.420   8.143 -0.8997 -0.1522 -0.7293
  999MOL0     H34817   8.946   0.630   7.985  1.1531  0.6489  3.7605
  999MOL0     H34818   9.101   0.565   8.047  0.1200 -1.1477  0.1483
  999MOL0     H34819   9.030   0.602   7.758  1.0896  2.1315 -2.2830
  999MOL0     H34820   9.124   0.724   7.848  0.1180  0.1432 -3.2946
  999MOL0     H34821   9.187   0.434   7.772 -1.3748 -0.6512  1.3293
  999MOL0     H34822   9.290   0.520   7.892 -1.0922  2.5990  2.7244
  999MOL0     H34823   9.239   0.642   7.621 -0.2657  3.0094  2.5509
  999MOL0     H34824   9.358   0.508   7.640  0.6999  0.3533  0.1942
  999MOL0     H34825   9.561   0.866   7.782  2.6956 -1.8429 -0.0139
  999MOL0     H34826   9.670   1.020   7.626  0.8050  0.2410 -0.8185
  999MOL0     H34827   9.980   1.181   7.497 -1.8790 -2.3711 -0.2720
  999MOL0     H34828  10.141   1.327   7.379 -2.5171  3.7811 -0.5047
  999MOL0     H34829  10.313   1.372   7.243 -0.1927  1.0061 -0.1983
  999MOL0     H34830  10.308   1.297   7.075 -0.4677 -1.5444  1.1064
  999MOL0     H34831  10.327   1.512   6.965 -0.5523  1.7918  0.5464
  999MOL0     H34832  10.332   1.599   7.110 -1.2029 -0.3443 -0.7436
  999MOL0     H34833  10.541   1.477   7.184 -0.0593  0.5238 -0.4244
  999MOL0     H34834  10.527   1.368   7.053  1.0198  0.3893  1.0007
  999MOL0     H34835  10.572   1.677   7.019 -0.5476 -0.6776  2.8152
  999MOL0     H34836  10.553   1.558   6.889 -2.5608  0.3896  0.0672
  999MOL0     H34837  10.766   1.444   6.956 -3.4325 -1.5871  1.7371
  999MOL0     H34838  10.777   1.548   7.095 -0.8962 -1.0018 -0.0449
  999MOL0     H34839  10.792   1.635   6.794  3.8081 -0.4775 -0.4779
  999MOL0     H34840  10.797   1.751   6.930  0.1491  0.2142 -1.0245
  999MOL0     H34841  10.995   1.519   6.866  2.8598 -1.0315  2.6522
  999MOL0     H34842  10.977   1.612   7.022  0.3424 -2.0746  0.3248
  999MOL0     H34843  11.026   1.756   6.753  3.8379  0.5349  0.1056
  999MOL0     H34844  11.039   1.820   6.904  0.0110  1.2624 -2.4919
  999MOL0     H34845   9.929   1.305   7.009  0.4495 -2.0012 -0.3455
  999MOL0     H34846   9.774   1.149   7.097  1.1806 -1.5287 -0.4433
  999MOL0     H34847   9.488   0.820   7.292 -1.7207  0.3936  0.6610
  999MOL0     H34848   9.377   0.683   7.439  0.6805 -1.0034  3.3004
  999MOL0     H34849   7.768   0.127   7.688 -1.1992 -0.4321 -0.7745
  999MOL0     H34850   7.540   0.085   7.633 -0.9298 -0.4525  3.2760
  999MOL0     H34851   7.100   0.201   7.676  0.8262  2.2564  0.6450
  999MOL0     H34852   6.855   0.192   7.613  1.2028 -3.6682 -1.7532
  999MOL0     H34853   6.779   0.195   7.223 -0.9512  0.9820 -1.2297
  999MOL0     H34854   6.717   0.363   7.252  1.3970 -0.7835 -1.8351
  999MOL0     H34855   6.531   0.204   7.200 -0.6834  0.6227  0.6288
  999MOL0     H34856   6.523   0.255   7.374 -0.8005 -0.2421  0.6065
  999MOL0     H34857   6.596   0.029   7.443 -0.2438 -1.6764 -0.1378
  999MOL0     H34858   6.650  -0.009   7.277 -0.0172 -2.1163  1.0202
  999MOL0     H34859   6.404  -0.005   7.217 -2.7743  0.2001  0.9194
  999MOL0     H34860   6.423  -0.125   7.340  1.1576 -0.8273 -2.5531
  999MOL0     H34861   6.171   0.107   7.558 -0.5892 -2.1603  0.5773
  999MOL0     H34862   6.927   0.400   7.273  1.3807 -1.7206 -2.0626
  999MOL0     H34863   7.139   0.430   7.178 -0.9567  0.9862  1.3090
  999MOL0     H34864   7.203   0.537   7.305 -1.0896 -0.6220  3.4572
  999MOL0     H34865   7.293   0.401   7.251  1.0892  2.0368  1.3100
 1000MOL0     O34866  10.120   7.143   6.693  0.3251 -0.5872 -0.1840
 1000MOL0     C34867  10.085   7.097   6.799  0.9178  0.2232 -0.4303
 1000MOL0     O34868  10.165   7.090   6.914  0.2799 -0.4498  0.4867
 1000MOL0     C34869  10.293   7.126   6.919  0.8148  0.7953 -0.5961
 1000MOL0     C34870  10.390   7.077   6.834  0.1771  0.6435 -0.0094
 1000MOL0     C34871  10.516   7.129   6.837 -0.2092  1.0433 -0.0183
 1000MOL0     C34872  10.555   7.216   6.934  0.4922  0.0505 -0.1364
 1000MOL0     O34873  10.685   7.250   6.954 -0.2774  0.2851 -0.2031
 1000MOL0     C34874  10.761   7.260   6.832 -0.0766  0.1497  0.4485
 1000MOL0     C34875  10.892   7.334   6.881  0.0995 -0.1601 -0.3931
 1000MOL0     C34876  11.018   7.274   6.812  0.1071 -0.3179 -0.5151
 1000MOL0     C34877  11.147   7.337   6.857  0.0572  0.0303 -0.3471
 1000MOL0     C34878  11.264   7.257   6.812 -0.5894  0.3783  0.9301
 1000MOL0     C34879  11.285   7.247   6.660  0.2870  1.1249  0.4539
 1000MOL0     C34880  11.440   7.258   6.631  0.1618  0.0008 -0.2243
 1000MOL0     C34881  11.488   7.402   6.633 -0.1601 -0.4770  0.6325
 1000MOL0     N34882  11.634   7.412   6.612 -0.5293  0.4304 -0.6744
 1000MOL0     C34883  11.692   7.439   6.496  0.3498 -0.5235  0.5165
 1000MOL0     C34884  11.820   7.415   6.513 -0.2462  0.0933 -0.0097
 1000MOL0     C34885  11.944   7.446   6.441 -0.1098  0.1525 -0.4033
 1000MOL0     C34886  12.022   7.575   6.490  0.0695  0.4672 -0.1280
 1000MOL0     C34887  11.939   7.696   6.530 -0.3467 -0.0317 -0.1702
 1000MOL0     C34888  12.040   7.813   6.559  0.1671  0.7072 -0.7109
 1000MOL0     O34889  12.127   7.841   6.449  0.2110 -0.2806 -0.2742
 1000MOL0     C34890  12.245   7.917   6.461  0.2032  0.0203 -0.5577
 1000MOL0     C34891  12.332   7.918   6.351 -0.1658 -0.5908  0.3396
 1000MOL0     C34892  12.455   7.995   6.365 -0.7730 -0.0178  0.4008
 1000MOL0     C34893  12.485   8.072   6.485 -0.3855  0.0308  0.0713
 1000MOL0     C34894  12.616   8.144   6.506  0.4180  0.4566 -0.2541
 1000MOL0     O34895  12.631   8.235   6.610  0.4641 -0.5547 -0.7137
 1000MOL0     C34896  12.745   8.308   6.630  0.0844  0.6994  0.9682
 1000MOL0     C34897  12.850   8.333   6.541  0.0446 -0.8787 -0.3211
 1000MOL0     C34898  12.952   8.415   6.580  0.0174 -0.4102  0.0325
 1000MOL0     C34899  12.974   8.471   6.708  0.9130 -1.1877  0.4561
 1000MOL0     O34900  13.079   8.556   6.736  0.2025 -0.2593 -0.4895
 1000MOL0     C34901  13.111   8.583   6.875 -0.7447 -0.4718  0.0081
 1000MOL0     C34902  13.251   8.641   6.902 -0.1100 -0.2322 -0.6435
 1000MOL0     C34903  13.253   8.688   7.056  0.6696 -0.0972  0.5124
 1000MOL0     C34904  13.382   8.748   7.097  0.5773  0.5853  0.1490
 1000MOL0     C34905  13.381   8.785   7.251  0.7595 -0.3879  0.1374
 1000MOL0     C34906  13.525   8.803   7.291 -0.2582 -0.0029 -0.4063
 1000MOL0     C34907  13.533   8.879   7.434 -0.1249 -0.1013  0.1709
 1000MOL0     C34908  13.670   8.883   7.506 -1.0098  0.0125 -0.4778
 1000MOL0    Cl34909  13.809   8.979   7.423  0.2748  0.1446  0.1659
 1000MOL0     C34910  12.871   8.435   6.806  0.5530  0.0535  0.6877
 1000MOL0     C34911  12.762   8.370   6.760 -0.0146  0.4664 -0.1334
 1000MOL0     O34912  12.705   8.103   6.428 -0.1039 -0.0199  0.4645
 1000MOL0     C34913  12.392   8.065   6.595  0.4124  0.2024  0.5913
 1000MOL0     C34914  12.282   7.979   6.579 -0.3293 -0.6221 -1.0172
 1000MOL0     N34915  11.840   7.367   6.639 -0.3708 -0.1220 -0.4734
 1000MOL0     N34916  11.726   7.359   6.699  0.6314 -0.5783  0.1430
 1000MOL0     C34917  10.461   7.254   7.032 -0.2915  0.8784 -0.2419
 1000MOL0     C34918  10.330   7.207   7.022 -0.5880  0.0555 -0.8755
 1000MOL0     C34919   9.945   7.029   6.810  0.3405 -1.0937 -0.2488
 1000MOL0     C34920   9.926   6.928   6.902 -0.1325 -0.2660  0.7868
 1000MOL0     C34921   9.811   6.844   6.904 -0.7891  0.1933 -0.0392
 1000MOL0     C34922   9.710   6.866   6.812  0.1999  0.4500 -0.2484
 1000MOL0     O34923   9.594   6.784   6.800 -0.2646 -0.5916  0.1283
 1000MOL0     C34924   9.615   6.646   6.835  0.4998  0.9480 -0.2348
 1000MOL0     C34925   9.512   6.567   6.755 -0.0013 -0.2296  0.4815
 1000MOL0     C34926   9.560   6.559   6.609 -0.3543 -0.0714  0.1334
 1000MOL0     C34927   9.438   6.514   6.521  0.6628 -0.0774  0.0778
 1000MOL0     C34928   9.438   6.372   6.527 -0.0706 -0.0572  0.4587
 1000MOL0     C34929   9.437   6.250   6.531  0.1879  0.2796  0.5399
 1000MOL0     C34930   9.723   6.975   6.724 -0.9387  0.3960  0.5289
 1000MOL0     C34931   9.840   7.050   6.712  0.4691 -0.4095  0.2920
 1000MOL0     C34932   9.842   7.146   6.596 -0.4112 -0.2263  0.4848
 1000MOL0     H34933  10.370   7.021   6.742 -1.9199  4.6808 -2.2864
 1000MOL0     H34934  10.576   7.094   6.754  0.1541 -0.3229  0.7889
 1000MOL0     H34935  10.782   7.159   6.795 -0.3715 -0.1761  1.1597
 1000MOL0     H34936  10.708   7.314   6.753 -1.6486 -3.1422 -0.9328
 1000MOL0     H34937  10.906   7.329   6.989  0.7998 -3.9879 -0.4998
 1000MOL0     H34938  10.885   7.441   6.859 -0.7350 -0.0185  0.5034
 1000MOL0     H34939  10.997   7.293   6.706  1.3641 -3.4443 -1.4328
 1000MOL0     H34940  11.024   7.167   6.833 -2.7702 -0.6860 -1.0579
 1000MOL0     H34941  11.161   7.443   6.832 -0.3769  0.7240  2.0906
 1000MOL0     H34942  11.139   7.332   6.966 -0.9005 -0.0596 -0.4121
 1000MOL0     H34943  11.356   7.291   6.860  1.1402 -1.4536 -0.8574
 1000MOL0     H34944  11.242   7.161   6.859 -4.8251  1.3785  1.4606
 1000MOL0     H34945  11.239   7.153   6.628 -0.8722  1.8437 -0.0739
 1000MOL0     H34946  11.232   7.330   6.612  2.6864  1.4871 -1.7668
 1000MOL0     H34947  11.462   7.220   6.530 -1.0152 -1.0054 -0.1344
 1000MOL0     H34948  11.505   7.200   6.697  0.5135  0.6898  0.0422
 1000MOL0     H34949  11.443   7.442   6.542 -0.7949 -0.1959  1.0623
 1000MOL0     H34950  11.452   7.447   6.726 -2.8044 -2.1568  0.5420
 1000MOL0     H34951  11.650   7.485   6.407  0.3859 -0.5963  0.4619
 1000MOL0     H34952  12.016   7.363   6.447 -2.0614 -1.5956 -0.1843
 1000MOL0     H34953  11.915   7.475   6.339 -1.5028  0.2113 -0.0090
 1000MOL0     H34954  12.078   7.535   6.575 -3.7794 -3.2951  1.0133
 1000MOL0     H34955  12.091   7.603   6.409  1.9591  1.9441  1.8603
 1000MOL0     H34956  11.879   7.676   6.619  1.2336  3.6395  1.9740
 1000MOL0     H34957  11.878   7.720   6.443  2.1411 -0.1798 -2.0727
 1000MOL0     H34958  12.089   7.787   6.653 -4.4556  0.9485  2.0971
 1000MOL0     H34959  11.986   7.903   6.592  1.8887  1.4201  0.2569
 1000MOL0     H34960  12.309   7.845   6.274 -1.1738 -0.9317  0.9391
 1000MOL0     H34961  12.539   7.981   6.298 -1.0699  0.0648  0.0070
 1000MOL0     H34962  12.845   8.298   6.439  1.9884 -1.3301 -0.3031
 1000MOL0     H34963  13.025   8.435   6.502  0.5343 -3.6968 -0.4355
 1000MOL0     H34964  13.036   8.656   6.907 -1.9459 -1.3804 -0.6536
 1000MOL0     H34965  13.099   8.489   6.929  0.1250 -1.6311 -1.7380
 1000MOL0     H34966  13.327   8.566   6.881 -1.4732 -1.6155 -0.8032
 1000MOL0     H34967  13.272   8.728   6.839 -2.6500 -1.2057 -3.0496
 1000MOL0     H34968  13.169   8.757   7.073  0.1188 -0.1389 -1.7271
 1000MOL0     H34969  13.232   8.605   7.124  1.4796 -3.6904 -3.2382
 1000MOL0     H34970  13.410   8.829   7.029  0.6062 -0.8935 -1.6998
 1000MOL0     H34971  13.454   8.666   7.088  1.0880  1.0805 -0.4628
 1000MOL0     H34972  13.340   8.706   7.315 -0.2878 -0.5977 -0.7640
 1000MOL0     H34973  13.309   8.864   7.274 -0.8947 -1.8676  0.2119
 1000MOL0     H34974  13.570   8.703   7.298  0.2235  0.2916  1.4332
 1000MOL0     H34975  13.580   8.865   7.220 -1.2230 -0.6556 -1.7408
 1000MOL0     H34976  13.468   8.824   7.503  3.6176  0.0639  4.3378
 1000MOL0     H34977  13.488   8.978   7.423 -3.0897 -0.8143  3.8722
 1000MOL0     H34978  13.659   8.926   7.605 -3.7256  1.4847 -1.3163
 1000MOL0     H34979  13.700   8.778   7.514 -0.1926  0.4001  3.0567
 1000MOL0     H34980  12.872   8.474   6.907 -0.5183 -2.4361  1.7200
 1000MOL0     H34981  12.671   8.358   6.818 -0.4127  1.0112 -0.6353
 1000MOL0     H34982  12.420   8.118   6.685  1.8367  1.9153 -0.7919
 1000MOL0     H34983  12.206   7.985   6.657  0.0204  1.7212 -0.7786
 1000MOL0     H34984  10.501   7.318   7.109  2.5490 -0.7556 -0.2207
 1000MOL0     H34985  10.264   7.244   7.100  2.7670  2.1125  1.2640
 1000MOL0     H34986  10.002   6.900   6.975  0.2667  4.3703  2.4911
 1000MOL0     H34987   9.805   6.762   6.974 -1.5549 -1.8955 -2.3889
 1000MOL0     H34988   9.603   6.629   6.943 -2.2844 -2.0392 -0.8864
 1000MOL0     H34989   9.713   6.607   6.804 -0.9729 -0.3639 -3.6069
 1000MOL0     H34990   9.412   6.611   6.752 -0.8790 -2.1533 -2.3946
 1000MOL0     H34991   9.484   6.471   6.799 -1.3853 -0.2295 -0.3436
 1000MOL0     H34992   9.648   6.495   6.609 -0.7918 -0.6797  0.2050
 1000MOL0     H34993   9.588   6.658   6.570 -0.7620 -1.0932 -3.0262
 1000MOL0     H34994   9.341   6.554   6.552 -0.6648 -1.4883 -2.0043
 1000MOL0     H34995   9.441   6.548   6.417  1.5266  0.2919  0.2086
 1000MOL0     H34996   9.414   6.145   6.534 -0.2915  0.3834  0.6058
 1000MOL0     H34997   9.644   6.988   6.652  0.6957  4.5774 -0.8558
 1000MOL0     H34998   9.905   7.235   6.598 -1.2256  0.5697 -2.6066
 1000MOL0     H34999   9.860   7.095   6.501 -3.0977 -0.0840 -0.1973
 1000MOL0     H35000   9.742   7.182   6.569 -0.8270 -2.5365 -1.5527
 1001MOL0     O35001   8.442   8.756   1.590 -0.2324 -0.3562  0.4989
 1001MOL0     C35002   8.349   8.815   1.645  0.5414  0.4140 -0.0615
 1001MOL0     O35003   8.352   8.932   1.703  0.4799  0.3990  0.2327
 1001MOL0     C35004   8.461   9.005   1.728  0.0444 -0.6623 -0.4797
 1001MOL0     C35005   8.583   8.959   1.758 -0.0456  0.7830  0.0328
 1001MOL0     C35006   8.690   9.037   1.798  0.0083 -1.3417 -0.3807
 1001MOL0     C35007   8.669   9.185   1.802  0.3814  0.5207 -0.8726
 1001MOL0     O35008   8.769   9.280   1.811  0.4266  0.3598  0.2855
 1001MOL0     C35009   8.907   9.248   1.821  0.4371  0.8588  0.9558
 1001MOL0     C35010   8.956   9.209   1.960  1.0052 -0.4116 -0.3543
 1001MOL0     C35011   9.092   9.264   1.992  0.4390  0.5310 -0.4795
 1001MOL0     C35012   9.150   9.226   2.130  0.1916 -0.0403 -0.0497
 1001MOL0     C35013   9.281   9.291   2.168  0.3543 -0.0944 -0.7218
 1001MOL0     C35014   9.398   9.242   2.077  0.1800  0.4301  0.7834
 1001MOL0     C35015   9.524   9.296   2.143  0.0038  0.5507  0.0190
 1001MOL0     C35016   9.658   9.272   2.065 -0.3979  0.8368 -0.9377
 1001MOL0     N35017   9.702   9.132   2.092 -0.2059  0.3356  0.3369
 1001MOL0     C35018   9.690   9.035   2.001  0.2309 -0.6361  0.9153
 1001MOL0     C35019   9.753   8.929   2.058 -0.7283 -0.4950 -1.1105
 1001MOL0     C35020   9.765   8.792   2.007  0.0809  0.1510  0.2250
 1001MOL0     C35021   9.664   8.683   2.047 -0.9004 -0.2903  0.3758
 1001MOL0     C35022   9.664   8.658   2.201  0.0464  0.7524  0.2470
 1001MOL0     C35023   9.789   8.625   2.275  0.6370  0.4414 -0.3294
 1001MOL0     O35024   9.863   8.521   2.207  0.3221  0.8614  0.2825
 1001MOL0     C35025   9.974   8.474   2.270 -0.2257  0.6457 -0.7459
 1001MOL0     C35026  10.038   8.531   2.384  0.2876 -0.0263 -0.3713
 1001MOL0     C35027  10.157   8.473   2.430  0.5191 -0.1793 -0.8819
 1001MOL0     C35028  10.221   8.370   2.360  0.2247 -0.1755  0.2909
 1001MOL0     C35029  10.353   8.313   2.403 -0.8891 -0.2659  0.0379
 1001MOL0     O35030  10.404   8.355   2.524 -0.0526  0.3958  0.0884
 1001MOL0     C35031  10.508   8.283   2.576  0.3943  0.3295 -0.9528
 1001MOL0     C35032  10.492   8.154   2.620  0.1963  1.0716 -0.3095
 1001MOL0     C35033  10.611   8.083   2.659  0.3600 -0.0439 -0.9915
 1001MOL0     C35034  10.739   8.122   2.630 -0.2986 -0.5342 -0.1392
 1001MOL0     O35035  10.851   8.054   2.652 -0.3306 -0.3364 -0.0472
 1001MOL0     C35036  10.902   7.998   2.530 -0.0831 -0.7919  0.8435
 1001MOL0     C35037  11.041   8.063   2.495  0.2157  0.4877  0.1665
 1001MOL0     C35038  11.157   8.021   2.585 -0.1829 -0.2466 -0.1632
 1001MOL0     C35039  11.183   8.110   2.713  1.0443  0.0167  0.5726
 1001MOL0     C35040  11.317   8.076   2.775 -0.3492 -0.3295  0.0159
 1001MOL0     C35041  11.357   8.177   2.872 -0.2182 -0.4387 -0.4622
 1001MOL0     C35042  11.498   8.153   2.940 -0.2345 -0.1489 -1.0916
 1001MOL0     C35043  11.604   8.187   2.837 -1.3713  1.7645  0.4040
 1001MOL0    Cl35044  11.758   8.191   2.935 -0.1991 -0.5220  0.1467
 1001MOL0     C35045  10.752   8.256   2.586  0.4186  0.8033  0.3072
 1001MOL0     C35046  10.638   8.336   2.561  1.9668 -0.7935 -0.1498
 1001MOL0     O35047  10.411   8.230   2.324  0.5244 -0.4582 -0.1507
 1001MOL0     C35048  10.156   8.314   2.247  0.0646 -0.5801 -1.2216
 1001MOL0     C35049  10.033   8.363   2.208  0.3570  0.5762  0.1797
 1001MOL0     N35050   9.809   8.974   2.177 -0.2646  0.3198 -0.5327
 1001MOL0     N35051   9.778   9.096   2.199  0.2471 -0.6130 -0.0701
 1001MOL0     C35052   8.544   9.231   1.779  0.3468 -0.1367  0.6641
 1001MOL0     C35053   8.442   9.137   1.750  0.0501  0.4265 -0.7276
 1001MOL0     C35054   8.223   8.741   1.670  0.2702 -0.1758 -0.0470
 1001MOL0     C35055   8.180   8.667   1.563 -0.8600  0.1960 -0.0139
 1001MOL0     C35056   8.067   8.585   1.575  0.4951  0.1434  0.0199
 1001MOL0     C35057   7.994   8.570   1.692 -0.2066 -0.0308  0.7884
 1001MOL0     O35058   7.886   8.482   1.688  0.4794  0.4670 -0.8716
 1001MOL0     C35059   7.813   8.450   1.804  0.2799  0.4319  0.2767
 1001MOL0     C35060   7.711   8.568   1.816  0.3578  0.2372 -0.6961
 1001MOL0     C35061   7.635   8.634   1.701  1.0683  0.0567  0.4363
 1001MOL0     C35062   7.611   8.784   1.717 -0.3202  0.0484  1.0317
 1001MOL0     C35063   7.496   8.835   1.642  0.1746  1.2186 -0.0566
 1001MOL0     C35064   7.403   8.876   1.581 -0.0556  0.5350 -0.4245
 1001MOL0     C35065   8.036   8.640   1.800  0.4029  0.5011  0.2614
 1001MOL0     C35066   8.147   8.726   1.794  0.6557  0.4066 -0.5478
 1001MOL0     C35067   8.195   8.797   1.920  0.4061 -0.0577  0.2647
 1001MOL0     H35068   8.599   8.853   1.739 -0.3085  0.8486 -0.5799
 1001MOL0     H35069   8.782   8.989   1.830 -0.4674 -1.5662  0.6822
 1001MOL0     H35070   8.930   9.171   1.746 -0.5014 -0.3534  1.8621
 1001MOL0     H35071   8.949   9.343   1.788  3.0354 -0.2199  0.9942
 1001MOL0     H35072   8.967   9.101   1.949 -0.8167 -0.4975 -1.6522
 1001MOL0     H35073   8.880   9.237   2.034  0.5562 -2.7556  0.1420
 1001MOL0     H35074   9.104   9.371   1.973  3.3821  0.0527 -2.1015
 1001MOL0     H35075   9.162   9.231   1.914  0.3262  0.4173 -0.5335
 1001MOL0     H35076   9.076   9.257   2.205 -0.2668 -1.3566  0.0556
 1001MOL0     H35077   9.158   9.120   2.153 -2.4094 -1.1516 -3.4621
 1001MOL0     H35078   9.273   9.400   2.160  2.0355  0.1133  0.0045
 1001MOL0     H35079   9.304   9.263   2.272 -0.5287  1.7570  0.0100
 1001MOL0     H35080   9.394   9.133   2.069 -0.2789  0.5321 -0.7211
 1001MOL0     H35081   9.389   9.278   1.974 -2.2759 -1.2199  0.3095
 1001MOL0     H35082   9.537   9.249   2.241 -0.7734  2.2039  0.9642
 1001MOL0     H35083   9.512   9.402   2.168  1.6383  0.6869  0.2786
 1001MOL0     H35084   9.649   9.296   1.959 -0.1850 -3.0468 -1.9748
 1001MOL0     H35085   9.729   9.344   2.107  1.7007 -1.1076 -1.0086
 1001MOL0     H35086   9.631   9.044   1.911  0.9128 -0.1205  0.5114
 1001MOL0     H35087   9.767   8.792   1.897  0.9679  1.1659  0.2184
 1001MOL0     H35088   9.861   8.752   2.039 -1.4269 -2.5808  1.6930
 1001MOL0     H35089   9.566   8.716   2.013 -0.5062 -0.8288 -1.3500
 1001MOL0     H35090   9.682   8.586   2.000 -0.4885  1.0546 -2.3992
 1001MOL0     H35091   9.597   8.575   2.225  2.1079 -0.9000  0.4910
 1001MOL0     H35092   9.631   8.749   2.253  0.3468  0.2137  1.3980
 1001MOL0     H35093   9.763   8.600   2.379  1.6661  0.8736  0.0494
 1001MOL0     H35094   9.858   8.710   2.275  2.5949 -1.0783 -0.3972
 1001MOL0     H35095  10.001   8.607   2.453 -1.6881 -2.3090  1.2732
 1001MOL0     H35096  10.195   8.518   2.521 -2.1124  0.8303 -0.1966
 1001MOL0     H35097  10.396   8.106   2.638  1.8488 -2.0193  1.0017
 1001MOL0     H35098  10.598   7.982   2.695 -2.2517  0.3976 -0.4391
 1001MOL0     H35099  10.912   7.890   2.541 -1.2389 -1.0686 -0.4679
 1001MOL0     H35100  10.836   8.019   2.445 -0.5413 -0.2313  1.3266
 1001MOL0     H35101  11.074   8.028   2.397 -0.6188  0.7516 -0.2136
 1001MOL0     H35102  11.032   8.170   2.476  0.4868  0.0096 -3.4149
 1001MOL0     H35103  11.135   7.917   2.610 -1.9181  0.1984  0.3125
 1001MOL0     H35104  11.251   8.024   2.529  1.2517  0.5309  2.1715
 1001MOL0     H35105  11.109   8.090   2.791 -0.5691  0.5062 -0.7838
 1001MOL0     H35106  11.172   8.212   2.676  0.6007 -0.9375 -2.2065
 1001MOL0     H35107  11.394   8.072   2.698  1.0122 -0.7750  1.3490
 1001MOL0     H35108  11.309   7.979   2.825  0.4293  0.5346  1.9240
 1001MOL0     H35109  11.357   8.273   2.821  4.3185  2.1714  3.5959
 1001MOL0     H35110  11.284   8.190   2.953 -1.9114 -1.5179 -1.7628
 1001MOL0     H35111  11.514   8.049   2.967  1.7640  0.2960 -0.3755
 1001MOL0     H35112  11.516   8.212   3.030 -2.8488  1.9103 -1.8084
 1001MOL0     H35113  11.616   8.113   2.758 -3.6884  2.9886 -1.2159
 1001MOL0     H35114  11.574   8.284   2.795 -0.2973  2.7124  1.7270
 1001MOL0     H35115  10.850   8.301   2.574  1.3804 -1.3590 -0.4259
 1001MOL0     H35116  10.649   8.434   2.517 -0.6573  0.0722  0.8908
 1001MOL0     H35117  10.198   8.227   2.196 -0.5298 -1.8504  0.3747
 1001MOL0     H35118   9.972   8.312   2.134  1.3554 -3.5322  1.9146
 1001MOL0     H35119   8.523   9.337   1.777  3.9219  0.7227  1.6911
 1001MOL0     H35120   8.346   9.184   1.733 -0.5638 -0.0938  1.0981
 1001MOL0     H35121   8.236   8.655   1.471 -2.0725 -2.0492 -0.5212
 1001MOL0     H35122   8.047   8.536   1.480  2.3457  1.8765 -1.3589
 1001MOL0     H35123   7.873   8.432   1.894 -0.3288 -3.1717  0.1001
 1001MOL0     H35124   7.763   8.354   1.791 -0.8588  0.7080  2.2902
 1001MOL0     H35125   7.773   8.645   1.862 -0.5191 -0.3476  1.5741
 1001MOL0     H35126   7.637   8.536   1.890  0.7056  0.1390 -0.3880
 1001MOL0     H35127   7.535   8.589   1.697  0.8128  0.7002 -1.9396
 1001MOL0     H35128   7.697   8.625   1.611 -1.7251 -0.0153 -1.6373
 1001MOL0     H35129   7.604   8.807   1.824 -1.2709 -1.0072  1.2117
 1001MOL0     H35130   7.703   8.825   1.674 -0.1720 -1.5531 -0.2942
 1001MOL0     H35131   7.311   8.904   1.535 -0.3391 -1.1569 -0.9537
 1001MOL0     H35132   7.985   8.627   1.895  0.2744  1.7543  0.3835
 1001MOL0     H35133   8.183   8.906   1.923 -2.4030 -0.2818 -0.5739
 1001MOL0     H35134   8.153   8.745   2.006 -0.0506  1.4491  0.9881
 1001MOL0     H35135   8.303   8.776   1.922  0.6358  0.8585 -1.0255
 1002MOL0     O35136   3.709   1.064   8.382 -0.7740  0.6949  0.1389
 1002MOL0     C35137   3.692   0.963   8.451 -0.3856 -0.0178 -0.1334
 1002MOL0     O35138   3.783   0.860   8.472  0.5380  0.0115 -0.3142
 1002MOL0     C35139   3.916   0.880   8.436 -0.5515 -0.3215  0.3844
 1002MOL0     C35140   3.989   0.996   8.468  0.6311  0.2396  0.9072
 1002MOL0     C35141   4.123   1.009   8.420  0.0551  0.7655 -0.1302
 1002MOL0     C35142   4.191   0.913   8.344  0.4131  0.5287  0.6750
 1002MOL0     O35143   4.319   0.911   8.287  0.0073  0.3323  0.2105
 1002MOL0     C35144   4.373   1.041   8.272 -0.4704 -0.3624 -1.0841
 1002MOL0     C35145   4.503   1.035   8.201  0.1438 -0.4861  0.2223
 1002MOL0     C35146   4.594   0.935   8.279 -0.5318 -0.2098  0.5652
 1002MOL0     C35147   4.718   0.890   8.202 -0.5624 -0.1930  0.4965
 1002MOL0     C35148   4.802   1.013   8.161  0.6568 -0.1702 -0.1438
 1002MOL0     C35149   4.933   0.974   8.098  0.8146 -0.2371 -0.1944
 1002MOL0     C35150   5.009   1.093   8.031  0.5440 -0.0710  0.7031
 1002MOL0     C35151   5.080   1.183   8.134 -0.3361  0.0058 -0.2059
 1002MOL0     N35152   5.184   1.267   8.072 -0.1992  0.6251  0.5482
 1002MOL0     C35153   5.313   1.223   8.026  0.6582  0.0551  0.4833
 1002MOL0     C35154   5.373   1.338   7.982  0.6140 -0.6333  0.7524
 1002MOL0     C35155   5.511   1.351   7.916 -0.2068  0.4481  0.3014
 1002MOL0     C35156   5.504   1.301   7.767  0.7120 -0.5633 -0.1118
 1002MOL0     C35157   5.618   1.343   7.678  0.0209 -0.9499 -0.4243
 1002MOL0     C35158   5.642   1.260   7.554  0.7146  0.1212  0.7212
 1002MOL0     O35159   5.705   1.134   7.573 -0.0665  0.3296  0.7828
 1002MOL0     C35160   5.834   1.112   7.530 -0.2379  0.4098 -0.0535
 1002MOL0     C35161   5.918   1.208   7.483 -0.8068  0.6626  0.7783
 1002MOL0     C35162   6.053   1.170   7.450 -0.5521  0.3612  0.3195
 1002MOL0     C35163   6.099   1.041   7.463  1.4688 -0.0721 -0.4993
 1002MOL0     C35164   6.236   1.003   7.420  0.2012  0.1182  0.7851
 1002MOL0     O35165   6.320   1.100   7.377  0.8448  0.9063  0.2081
 1002MOL0     C35166   6.450   1.081   7.343 -0.0737 -0.1605 -0.3284
 1002MOL0     C35167   6.493   1.177   7.262 -0.1766  0.7205  0.2318
 1002MOL0     C35168   6.627   1.174   7.220 -0.1353 -0.0653  0.5945
 1002MOL0     C35169   6.721   1.069   7.244  0.2052  0.4617 -0.1510
 1002MOL0     O35170   6.851   1.077   7.195  0.0555 -0.0123  0.3993
 1002MOL0     C35171   6.948   0.982   7.237  0.1748 -0.0736  0.2133
 1002MOL0     C35172   7.067   1.015   7.153 -0.0801 -0.3737 -0.6529
 1002MOL0     C35173   7.192   0.940   7.208  0.1180 -0.3063  0.2359
 1002MOL0     C35174   7.316   0.991   7.126  0.3911  0.0627 -0.3246
 1002MOL0     C35175   7.438   0.927   7.195  0.0896 -1.1467  0.6960
 1002MOL0     C35176   7.570   0.986   7.138  0.6443  0.0136 -0.2202
 1002MOL0     C35177   7.596   1.125   7.203 -0.1022  0.3378  0.0131
 1002MOL0     C35178   7.734   1.187   7.149  0.6699  0.1449  0.5252
 1002MOL0    Cl35179   7.722   1.204   6.973  0.1262  0.1737 -0.4301
 1002MOL0     C35180   6.677   0.970   7.333  0.4946  0.2160 -0.4026
 1002MOL0     C35181   6.543   0.983   7.391  0.3128 -0.0211 -0.3272
 1002MOL0     O35182   6.262   0.886   7.415 -0.2456 -0.0826 -0.5841
 1002MOL0     C35183   6.012   0.948   7.522  0.2275  0.4955  0.6261
 1002MOL0     C35184   5.876   0.983   7.552  0.2901  0.1809  0.3916
 1002MOL0     N35185   5.285   1.448   7.994 -0.0112 -0.1009  0.4163
 1002MOL0     N35186   5.169   1.399   8.039 -0.2623 -0.7442 -0.4077
 1002MOL0     C35187   4.116   0.792   8.317  0.1710 -0.6921 -0.1646
 1002MOL0     C35188   3.984   0.777   8.366  0.0515  0.6741 -0.5119
 1002MOL0     C35189   3.553   0.945   8.504 -0.5786 -0.8376  0.4724
 1002MOL0     C35190   3.538   0.818   8.569 -0.8674  0.7751 -0.0316
 1002MOL0     C35191   3.427   0.788   8.635  1.3706  0.1606  1.4853
 1002MOL0     C35192   3.322   0.881   8.645 -0.0992 -0.4619  0.0450
 1002MOL0     O35193   3.205   0.853   8.707  0.6294 -0.2865 -0.0816
 1002MOL0     C35194   3.202   0.774   8.821  0.1434  0.7173  0.0590
 1002MOL0     C35195   3.109   0.831   8.923  0.0452 -0.3790 -0.2484
 1002MOL0     C35196   2.962   0.818   8.872 -0.3925  0.1745  0.2692
 1002MOL0     C35197   2.853   0.821   8.984 -0.5830 -0.7308  0.0223
 1002MOL0     C35198   2.730   0.832   8.910 -0.3939  0.4437 -0.2556
 1002MOL0     C35199   2.629   0.835   8.850 -0.9204  0.2049  0.2908
 1002MOL0     C35200   3.336   1.007   8.581  0.3224 -0.5976 -1.0358
 1002MOL0     C35201   3.460   1.046   8.524  0.2766  0.0255 -0.3859
 1002MOL0     C35202   3.464   1.183   8.462 -0.1232 -0.4662 -0.1697
 1002MOL0     H35203   3.950   1.083   8.519 -1.8108 -0.0579 -0.3101
 1002MOL0     H35204   4.177   1.099   8.449 -0.3788  1.3509 -1.0666
 1002MOL0     H35205   4.304   1.102   8.213 -3.1499 -2.0232  0.1678
 1002MOL0     H35206   4.387   1.079   8.373  3.2017 -0.3397 -1.4496
 1002MOL0     H35207   4.548   1.134   8.203 -1.2919  0.3613 -2.8114
 1002MOL0     H35208   4.476   1.014   8.097 -1.1392  2.8546 -0.2608
 1002MOL0     H35209   4.556   0.833   8.294  3.2486 -2.0758 -1.2762
 1002MOL0     H35210   4.629   0.986   8.369 -0.7839 -0.3325  0.7329
 1002MOL0     H35211   4.778   0.827   8.269  0.8503 -0.3310 -0.8332
 1002MOL0     H35212   4.696   0.830   8.114 -0.2681 -0.9750  0.9444
 1002MOL0     H35213   4.747   1.082   8.097  2.7918  0.5929 -1.2738
 1002MOL0     H35214   4.826   1.068   8.253  3.2454 -1.1508 -0.1519
 1002MOL0     H35215   5.000   0.923   8.168  1.1841  2.2626  1.3930
 1002MOL0     H35216   4.896   0.913   8.016 -2.3202  1.6176 -0.3029
 1002MOL0     H35217   4.937   1.148   7.971  1.9972 -0.4820 -1.5418
 1002MOL0     H35218   5.083   1.052   7.962  1.0577  1.1523  0.4986
 1002MOL0     H35219   5.001   1.248   8.173  0.9963 -1.2026  5.2887
 1002MOL0     H35220   5.124   1.118   8.210  0.5474 -0.4767 -1.1029
 1002MOL0     H35221   5.357   1.124   8.034  1.4855  0.4514  0.9528
 1002MOL0     H35222   5.537   1.457   7.916  0.7088  0.2523  1.9016
 1002MOL0     H35223   5.577   1.295   7.984  1.2451 -1.7645 -2.6951
 1002MOL0     H35224   5.497   1.192   7.775  4.1258 -0.9783 -1.2175
 1002MOL0     H35225   5.414   1.343   7.721  1.3657  0.8992 -0.0856
 1002MOL0     H35226   5.709   1.331   7.737 -1.1019 -0.9696  1.3431
 1002MOL0     H35227   5.593   1.445   7.647 -3.9582  0.0972  4.9047
 1002MOL0     H35228   5.700   1.330   7.492 -1.2649  0.1727 -1.1971
 1002MOL0     H35229   5.548   1.247   7.499  0.9950 -1.2196  0.5245
 1002MOL0     H35230   5.899   1.313   7.461 -0.1915  0.8021  0.8774
 1002MOL0     H35231   6.120   1.252   7.426  1.3285 -1.0372  0.4626
 1002MOL0     H35232   6.426   1.258   7.234  0.9471  1.1769 -1.2323
 1002MOL0     H35233   6.657   1.265   7.170  0.6750 -0.0165  1.1581
 1002MOL0     H35234   6.975   1.003   7.341 -0.6395  0.0786  0.4005
 1002MOL0     H35235   6.914   0.878   7.223  2.4560 -1.4760  3.7313
 1002MOL0     H35236   7.053   0.975   7.052  2.1888  1.8350 -1.9588
 1002MOL0     H35237   7.094   1.121   7.147  1.2526 -0.6122  0.6430
 1002MOL0     H35238   7.207   0.976   7.311 -2.8165  2.0926 -0.0183
 1002MOL0     H35239   7.178   0.832   7.201 -1.0416 -0.2667  1.4216
 1002MOL0     H35240   7.339   1.098   7.131  3.1622 -0.4761  0.2495
 1002MOL0     H35241   7.305   0.965   7.020 -0.3861  0.5760 -0.3779
 1002MOL0     H35242   7.435   0.821   7.169  1.8345 -1.6131  2.1820
 1002MOL0     H35243   7.430   0.926   7.304 -0.5111 -3.1995  0.6789
 1002MOL0     H35244   7.653   0.923   7.170  1.5614  1.3038  0.0378
 1002MOL0     H35245   7.570   0.985   7.029 -1.0006 -0.6155 -0.2341
 1002MOL0     H35246   7.602   1.123   7.312  1.5740  2.6471  0.0418
 1002MOL0     H35247   7.520   1.199   7.178  1.7020  1.7600 -1.6755
 1002MOL0     H35248   7.748   1.283   7.201  0.2808 -0.2250  1.3244
 1002MOL0     H35249   7.821   1.130   7.184  0.9670  0.3498  0.1294
 1002MOL0     H35250   6.740   0.885   7.358 -1.7278 -2.3741 -2.8555
 1002MOL0     H35251   6.499   0.912   7.461 -0.4051 -0.2698 -1.0155
 1002MOL0     H35252   6.062   0.855   7.544  2.1981  1.7081  1.5425
 1002MOL0     H35253   5.817   0.910   7.606 -0.8989  0.2742 -0.7286
 1002MOL0     H35254   4.168   0.717   8.258  0.8782 -0.9369  0.7429
 1002MOL0     H35255   3.918   0.691   8.360 -0.3317  1.0123 -1.3754
 1002MOL0     H35256   3.622   0.751   8.586  0.7272  2.3289 -1.4649
 1002MOL0     H35257   3.421   0.694   8.689 -0.9939 -0.0040  1.0336
 1002MOL0     H35258   3.297   0.772   8.876 -0.1499 -1.0848  0.5661
 1002MOL0     H35259   3.162   0.677   8.791 -0.4695  0.5656  1.2900
 1002MOL0     H35260   3.127   0.937   8.939 -1.5095 -0.4203  2.3133
 1002MOL0     H35261   3.121   0.790   9.024  1.5830  1.4382  0.3597
 1002MOL0     H35262   2.954   0.721   8.823  1.4423 -2.1119  4.0210
 1002MOL0     H35263   2.938   0.894   8.798 -4.2619  0.2818  1.3827
 1002MOL0     H35264   2.860   0.729   9.044  1.4604 -0.6684 -0.0615
 1002MOL0     H35265   2.869   0.909   9.046 -0.0894 -0.9479  0.2108
 1002MOL0     H35266   2.543   0.849   8.788 -0.1659 -0.6224 -0.9937
 1002MOL0     H35267   3.264   1.087   8.593  0.4219 -0.0912 -3.3204
 1002MOL0     H35268   3.372   1.242   8.457  1.1841  1.6859 -0.3442
 1002MOL0     H35269   3.535   1.241   8.523 -2.2401  2.0440  0.0947
 1002MOL0     H35270   3.485   1.165   8.356 -4.4498  0.0923 -1.2977
 1003MOL0     O35271   8.128   3.067  10.742  0.3639  0.1714 -1.1145
 1003MOL0     C35272   8.132   3.004  10.641 -0.0078 -0.0464  0.4752
 1003MOL0     O35273   8.249   2.955  10.584 -0.6818 -0.6256 -0.5537
 1003MOL0     C35274   8.360   2.938  10.660 -1.0424  0.1547 -0.3247
 1003MOL0     C35275   8.459   3.030  10.651 -0.4214  0.1837  0.4126
 1003MOL0     C35276   8.569   3.021  10.739  0.2924 -0.1809 -0.4932
 1003MOL0     C35277   8.580   2.925  10.836 -0.3041 -0.2793  0.3736
 1003MOL0     O35278   8.692   2.914  10.919  0.6254  0.1270  0.1877
 1003MOL0     C35279   8.687   2.990  11.035  0.2827 -0.1866  0.7853
 1003MOL0     C35280   8.813   2.948  11.118  0.5752 -0.5526  0.7403
 1003MOL0     C35281   8.816   3.022  11.249  0.5126  0.0199 -1.0521
 1003MOL0     C35282   8.959   3.007  11.319  0.2273 -0.8652  0.5663
 1003MOL0     C35283   9.003   2.870  11.352  0.3900  0.4293  0.5469
 1003MOL0     C35284   9.141   2.861  11.418 -0.3533  1.0544 -0.3767
 1003MOL0     C35285   9.147   2.735  11.498 -0.5052 -0.1005  0.1659
 1003MOL0     C35286   9.291   2.723  11.555  0.7228 -0.2391 -0.1298
 1003MOL0     N35287   9.382   2.678  11.457  0.2100  0.2063 -0.7783
 1003MOL0     C35288   9.399   2.548  11.414  0.4046  0.1100  0.2607
 1003MOL0     C35289   9.494   2.561  11.318 -0.1752  0.5323 -0.5503
 1003MOL0     C35290   9.544   2.438  11.238 -0.2927  0.5642 -0.1916
 1003MOL0     C35291   9.516   2.445  11.090 -0.0959 -0.0435  0.0213
 1003MOL0     C35292   9.546   2.576  11.018  0.3617 -0.0116 -0.0969
 1003MOL0     C35293   9.695   2.622  11.020 -0.2831  0.3911  1.3155
 1003MOL0     O35294   9.768   2.508  10.976 -0.1484 -0.0991  0.1737
 1003MOL0     C35295   9.901   2.492  11.015  0.6782 -0.0062 -0.1777
 1003MOL0     C35296   9.956   2.376  10.965  0.5599 -0.4224  0.3724
 1003MOL0     C35297  10.092   2.361  10.983 -0.7968 -0.2248 -0.4649
 1003MOL0     C35298  10.175   2.457  11.053 -0.4741  0.2697 -0.0347
 1003MOL0     C35299  10.325   2.436  11.056 -0.5922 -0.3068  0.3441
 1003MOL0     O35300  10.374   2.325  11.002  0.1194 -0.3089 -0.2025
 1003MOL0     C35301  10.508   2.302  11.025  0.1630  0.1823  0.9830
 1003MOL0     C35302  10.560   2.270  11.157  0.7853  0.1737  0.9561
 1003MOL0     C35303  10.700   2.251  11.178  0.8566  0.0711  0.2421
 1003MOL0     C35304  10.781   2.279  11.073 -0.5120  0.2145  0.3822
 1003MOL0     O35305  10.918   2.259  11.099 -0.0636  0.0540  0.4425
 1003MOL0     C35306  10.993   2.381  11.080 -0.3618  0.8111  0.0520
 1003MOL0     C35307  11.082   2.359  10.952  0.1534 -0.0743 -0.4940
 1003MOL0     C35308  11.206   2.452  10.948 -0.5972  0.6627  0.5594
 1003MOL0     C35309  11.307   2.392  10.852  0.2207  0.1582 -0.1904
 1003MOL0     C35310  11.408   2.294  10.912 -0.2159  0.6250 -0.1376
 1003MOL0     C35311  11.501   2.250  10.794 -0.2135  0.7099 -0.3801
 1003MOL0     C35312  11.589   2.133  10.862  0.3407  0.1117 -0.4645
 1003MOL0     C35313  11.724   2.121  10.792  0.3942 -0.6385 -0.3066
 1003MOL0    Cl35314  11.820   1.997  10.873  0.0312 -0.0547  0.1652
 1003MOL0     C35315  10.734   2.307  10.940  0.5492  1.0215  0.2544
 1003MOL0     C35316  10.596   2.314  10.916 -0.9478  0.5024 -0.5025
 1003MOL0     O35317  10.394   2.525  11.101  0.1016 -0.1896  0.0379
 1003MOL0     C35318  10.112   2.565  11.104 -0.4295  0.7689  0.2409
 1003MOL0     C35319   9.983   2.587  11.086  0.2831 -0.3329  0.3772
 1003MOL0     N35320   9.533   2.692  11.301  0.0513  0.1170 -0.4041
 1003MOL0     N35321   9.460   2.764  11.385 -1.0711  0.8259 -0.3993
 1003MOL0     C35322   8.478   2.821  10.847 -0.9441  0.1955  0.8119
 1003MOL0     C35323   8.370   2.834  10.754 -0.5725  0.0993  0.6556
 1003MOL0     C35324   8.016   3.006  10.547  0.3783 -0.2262 -0.8514
 1003MOL0     C35325   8.039   3.017  10.411 -0.6021 -0.1015  0.1343
 1003MOL0     C35326   7.924   3.035  10.328 -1.0438 -0.1759  0.5640
 1003MOL0     C35327   7.795   3.022  10.371  0.1194  0.1286  0.8720
 1003MOL0     O35328   7.693   3.038  10.279 -0.3076  0.2490  0.3556
 1003MOL0     C35329   7.646   3.169  10.277  0.0841 -0.2822  0.0891
 1003MOL0     C35330   7.538   3.196  10.382  0.4483 -0.5658 -0.5899
 1003MOL0     C35331   7.419   3.100  10.386  0.6063  0.0352  0.3527
 1003MOL0     C35332   7.351   3.090  10.243 -0.9810 -0.3315  0.1199
 1003MOL0     C35333   7.231   3.022  10.280  0.2579 -0.1631 -0.0429
 1003MOL0     C35334   7.132   2.950  10.292 -0.9929  0.0911  1.1083
 1003MOL0     C35335   7.774   2.997  10.511  0.9222 -0.0288  0.5025
 1003MOL0     C35336   7.878   3.001  10.599  0.0155 -0.9006 -0.5290
 1003MOL0     C35337   7.845   2.970  10.749 -0.6647 -0.4133  0.4433
 1003MOL0     H35338   8.443   3.108  10.576  0.9317  0.5994  0.5279
 1003MOL0     H35339   8.646   3.092  10.713 -0.5343  0.4038 -1.4517
 1003MOL0     H35340   8.694   3.097  11.014 -1.1440  0.0890  1.5776
 1003MOL0     H35341   8.603   2.972  11.104  1.9182 -3.5327  2.1512
 1003MOL0     H35342   8.899   2.983  11.061 -1.0533  1.1060 -0.8654
 1003MOL0     H35343   8.819   2.839  11.131  0.0593 -0.7366 -0.3599
 1003MOL0     H35344   8.748   2.967  11.315  2.8209 -1.0235  0.5940
 1003MOL0     H35345   8.788   3.127  11.236  4.5447  1.2827 -0.8746
 1003MOL0     H35346   9.043   3.054  11.267 -0.7140  1.5015  1.0497
 1003MOL0     H35347   8.947   3.070  11.407  3.6539  0.3746  0.2646
 1003MOL0     H35348   8.931   2.838  11.428 -0.4422  0.8481 -0.0536
 1003MOL0     H35349   9.005   2.815  11.258 -1.2699 -0.0441  0.7692
 1003MOL0     H35350   9.209   2.865  11.332  1.2558  2.6729  0.8856
 1003MOL0     H35351   9.154   2.950  11.481  0.3843 -0.6110  1.9825
 1003MOL0     H35352   9.123   2.652  11.430 -0.5112  0.4058 -0.4630
 1003MOL0     H35353   9.079   2.729  11.583 -0.0137 -0.2700  0.5477
 1003MOL0     H35354   9.329   2.819  11.591 -2.2164  0.6738  0.8475
 1003MOL0     H35355   9.295   2.652  11.638  0.5336  1.9492  1.8515
 1003MOL0     H35356   9.343   2.459  11.441 -0.0296 -0.0039 -0.9257
 1003MOL0     H35357   9.651   2.431  11.258  0.0689 -3.5415 -2.4637
 1003MOL0     H35358   9.491   2.348  11.270  1.3948 -0.5302 -0.3667
 1003MOL0     H35359   9.569   2.360  11.048  3.6280  1.7246  0.7420
 1003MOL0     H35360   9.411   2.416  11.084 -0.5828  1.7562 -0.9766
 1003MOL0     H35361   9.489   2.657  11.065  0.3919  0.2247 -0.4617
 1003MOL0     H35362   9.509   2.567  10.916  1.9606  1.8018 -0.9021
 1003MOL0     H35363   9.721   2.656  11.121 -1.3087  1.0986  1.3532
 1003MOL0     H35364   9.704   2.711  10.958 -2.3347 -0.9737 -1.1018
 1003MOL0     H35365   9.890   2.302  10.920  1.4766 -0.5659 -0.7839
 1003MOL0     H35366  10.145   2.281  10.932  0.3154 -0.0197  0.3070
 1003MOL0     H35367  10.480   2.255  11.228  0.6946  1.1305  1.0689
 1003MOL0     H35368  10.744   2.237  11.276 -4.0058 -2.8499  2.3928
 1003MOL0     H35369  10.924   2.462  11.054 -0.2587  0.5211 -1.1767
 1003MOL0     H35370  11.048   2.405  11.171 -1.8669  1.0083  0.9541
 1003MOL0     H35371  11.116   2.256  10.962  0.7266  0.0927 -0.7210
 1003MOL0     H35372  11.028   2.375  10.859  2.6608 -1.0807 -2.2268
 1003MOL0     H35373  11.170   2.547  10.908 -3.9716 -0.6597  0.1154
 1003MOL0     H35374  11.257   2.466  11.044  3.1382 -0.2741 -1.0782
 1003MOL0     H35375  11.351   2.480  10.805  2.7639 -1.3718 -0.8736
 1003MOL0     H35376  11.254   2.324  10.784  2.4943 -0.9443 -0.9474
 1003MOL0     H35377  11.356   2.214  10.965  1.6107  0.7081  1.9343
 1003MOL0     H35378  11.464   2.348  10.989  0.1975 -1.8856  1.4269
 1003MOL0     H35379  11.441   2.223  10.707 -1.2816 -1.8838  1.0448
 1003MOL0     H35380  11.573   2.325  10.759 -1.0478  0.3458 -3.1068
 1003MOL0     H35381  11.531   2.040  10.853 -0.5400  0.1371  3.2962
 1003MOL0     H35382  11.605   2.159  10.967  4.0179  2.8951 -1.5008
 1003MOL0     H35383  11.726   2.106  10.684 -0.5803  0.4331 -0.4855
 1003MOL0     H35384  11.779   2.214  10.806 -0.5130 -0.0913 -0.3373
 1003MOL0     H35385  10.818   2.326  10.873  0.5112  2.2511  0.5314
 1003MOL0     H35386  10.554   2.346  10.821 -2.7622  2.5623  0.8774
 1003MOL0     H35387  10.169   2.634  11.166 -0.3647  0.1104  0.9380
 1003MOL0     H35388   9.949   2.681  11.128  0.8623  0.0236  0.0696
 1003MOL0     H35389   8.477   2.727  10.902 -1.9917  0.6843  1.6591
 1003MOL0     H35390   8.294   2.756  10.749  0.8209 -1.2500 -0.4483
 1003MOL0     H35391   8.134   3.034  10.361 -1.1624 -0.2305 -1.0227
 1003MOL0     H35392   7.942   3.059  10.224  0.4331 -1.9437  0.3694
 1003MOL0     H35393   7.618   3.178  10.172 -0.1324 -1.1598  0.0660
 1003MOL0     H35394   7.727   3.241  10.298  0.6345 -1.1015  0.8407
 1003MOL0     H35395   7.503   3.299  10.380  0.9189 -0.3109  1.6547
 1003MOL0     H35396   7.581   3.182  10.481 -1.1305 -2.0541 -0.0654
 1003MOL0     H35397   7.347   3.139  10.458 -0.7793  0.4808 -1.2184
 1003MOL0     H35398   7.451   2.999  10.412  3.4373  0.4061 -1.2266
 1003MOL0     H35399   7.346   3.190  10.199 -1.5396 -0.3700  0.0918
 1003MOL0     H35400   7.407   3.025  10.176 -3.0386 -0.8319 -1.1954
 1003MOL0     H35401   7.039   2.897  10.291 -1.0717  0.1126 -1.4313
 1003MOL0     H35402   7.673   2.976  10.544 -0.2259  2.8418 -0.8702
 1003MOL0     H35403   7.858   3.060  10.810 -1.5052  0.0878 -0.1060
 1003MOL0     H35404   7.743   2.933  10.759 -0.2601 -1.2557  1.6547
 1003MOL0     H35405   7.917   2.897  10.787 -3.0843 -2.0365  2.2094
 1004MOL0     O35406   0.350   5.227   9.459 -0.2706 -0.0536  0.1441
 1004MOL0     C35407   0.381   5.342   9.422 -0.4979  0.3531  0.3181
 1004MOL0     O35408   0.297   5.429   9.366  0.2906 -0.9319 -0.6411
 1004MOL0     C35409   0.192   5.371   9.299  0.0346 -0.2446  0.5852
 1004MOL0     C35410   0.206   5.372   9.166  0.2494  0.0532 -0.1898
 1004MOL0     C35411   0.109   5.311   9.093 -0.2594 -0.6740 -0.7672
 1004MOL0     C35412  -0.006   5.256   9.148 -0.2004  0.0443 -0.6295
 1004MOL0     O35413  -0.102   5.193   9.079  0.8528  0.2233  0.1780
 1004MOL0     C35414  -0.162   5.274   8.976 -0.3948  0.9041 -0.1707
 1004MOL0     C35415  -0.228   5.181   8.888  0.1124 -0.1408  0.4200
 1004MOL0     C35416  -0.340   5.250   8.801 -0.5175 -0.3043  0.3301
 1004MOL0     C35417  -0.481   5.255   8.868  0.2978  0.5403  0.0691
 1004MOL0     C35418  -0.592   5.259   8.758 -0.0354  0.0646 -0.3597
 1004MOL0     C35419  -0.724   5.305   8.817  0.0985 -0.2188  0.5656
 1004MOL0     C35420  -0.816   5.357   8.701  0.7099 -0.1122 -0.0583
 1004MOL0     C35421  -0.938   5.427   8.761 -0.3183  0.0256  0.9320
 1004MOL0     N35422  -1.023   5.480   8.654  0.0998 -0.2714  0.9034
 1004MOL0     C35423  -1.111   5.399   8.571  0.3717 -0.7196 -0.1216
 1004MOL0     C35424  -1.171   5.490   8.489 -0.7010 -0.3476 -0.1394
 1004MOL0     C35425  -1.275   5.468   8.390 -0.2260  0.2586 -0.0883
 1004MOL0     C35426  -1.394   5.571   8.428 -0.3475  0.0308  0.8027
 1004MOL0     C35427  -1.501   5.545   8.331 -0.4275 -0.1558 -0.1789
 1004MOL0     C35428  -1.611   5.650   8.325 -0.7154 -0.2882 -0.2157
 1004MOL0     O35429  -1.552   5.788   8.316  0.3711  0.4878  0.7450
 1004MOL0     C35430  -1.640   5.897   8.320  0.0198  0.3098  0.2586
 1004MOL0     C35431  -1.586   6.025   8.299 -0.6786  0.0069 -0.3662
 1004MOL0     C35432  -1.666   6.138   8.287  0.2322 -0.9610  0.6135
 1004MOL0     C35433  -1.806   6.127   8.303  0.6867 -0.9884 -1.2702
 1004MOL0     C35434  -1.890   6.252   8.322 -0.2247 -0.4705  0.4147
 1004MOL0     O35435  -1.833   6.375   8.307 -0.0210 -0.2385 -0.4124
 1004MOL0     C35436  -1.921   6.484   8.310 -0.3673 -0.0119  0.3475
 1004MOL0     C35437  -1.882   6.588   8.392  0.0145  0.0308 -0.1230
 1004MOL0     C35438  -1.965   6.702   8.395 -0.7163  0.1626 -0.6555
 1004MOL0     C35439  -2.086   6.707   8.333 -0.5193 -0.7064 -0.4665
 1004MOL0     O35440  -2.168   6.818   8.354  0.5850 -0.3072  0.9819
 1004MOL0     C35441  -2.272   6.861   8.263  0.0778  0.6968  0.1621
 1004MOL0     C35442  -2.373   6.955   8.323 -0.3157 -0.7045 -0.5423
 1004MOL0     C35443  -2.318   7.086   8.379  0.4958  0.2387  0.6998
 1004MOL0     C35444  -2.278   7.106   8.523  0.2804  0.8089  0.0218
 1004MOL0     C35445  -2.221   7.248   8.553 -0.1793 -0.6830  0.2933
 1004MOL0     C35446  -2.332   7.369   8.573 -0.5656  0.3443  0.4639
 1004MOL0     C35447  -2.264   7.502   8.603 -0.3172 -1.1371  0.5092
 1004MOL0     C35448  -2.361   7.618   8.642 -0.0934 -0.1644  0.3891
 1004MOL0    Cl35449  -2.410   7.568   8.812 -0.0194 -0.2273  0.1887
 1004MOL0     C35450  -2.117   6.608   8.243  0.1018  0.3318 -0.5220
 1004MOL0     C35451  -2.035   6.496   8.221 -0.8820 -0.3739 -0.5599
 1004MOL0     O35452  -2.012   6.229   8.318 -0.3618 -0.7232 -0.2204
 1004MOL0     C35453  -1.859   6.002   8.340  0.0242 -0.2126  0.4979
 1004MOL0     C35454  -1.785   5.886   8.333 -0.5054  0.2920  0.3728
 1004MOL0     N35455  -1.096   5.613   8.500  0.5455  0.2228 -0.4193
 1004MOL0     N35456  -1.004   5.601   8.591  0.1164  0.2372 -0.6001
 1004MOL0     C35457  -0.023   5.267   9.288  0.5166  0.2647  0.3074
 1004MOL0     C35458   0.076   5.327   9.363  0.0361  0.3718  0.2870
 1004MOL0     C35459   0.524   5.388   9.440  0.3086 -0.1209  0.3899
 1004MOL0     C35460   0.558   5.522   9.396 -0.1164 -0.3993 -0.1239
 1004MOL0     C35461   0.683   5.573   9.418 -0.2614 -0.0466  0.0810
 1004MOL0     C35462   0.777   5.506   9.501  0.0875  0.4777 -0.3551
 1004MOL0     O35463   0.896   5.548   9.553  0.1147  0.0721  0.4191
 1004MOL0     C35464   0.928   5.684   9.520  0.0431 -0.3197  0.3593
 1004MOL0     C35465   1.053   5.710   9.604  0.2768  1.4222 -0.6464
 1004MOL0     C35466   1.027   5.682   9.756 -0.0253  0.2182 -0.6638
 1004MOL0     C35467   1.115   5.753   9.862 -0.2231 -0.1145 -0.5541
 1004MOL0     C35468   1.258   5.721   9.842  0.6600  0.0747 -0.3745
 1004MOL0     C35469   1.382   5.710   9.850  0.3735  1.2652  0.6014
 1004MOL0     C35470   0.746   5.372   9.531 -0.6548  0.0598 -0.5482
 1004MOL0     C35471   0.621   5.306   9.501  1.4578 -1.0952  0.1424
 1004MOL0     C35472   0.610   5.155   9.533 -0.1954 -0.2711  0.2791
 1004MOL0     H35473   0.288   5.420   9.114 -0.9646  0.7442 -1.5152
 1004MOL0     H35474   0.128   5.295   8.987 -3.5141  2.1051 -1.9640
 1004MOL0     H35475  -0.233   5.348   9.016  0.2409  1.6668 -0.4292
 1004MOL0     H35476  -0.096   5.335   8.914 -1.0905  0.8540 -0.9870
 1004MOL0     H35477  -0.275   5.097   8.940  1.6452 -1.9325 -0.9315
 1004MOL0     H35478  -0.147   5.130   8.835  1.6721  2.0653  0.5365
 1004MOL0     H35479  -0.344   5.196   8.706  1.7527  0.0223  0.0138
 1004MOL0     H35480  -0.306   5.350   8.774  1.8279 -0.9693  0.6700
 1004MOL0     H35481  -0.498   5.170   8.935 -1.5844 -0.4324 -1.5362
 1004MOL0     H35482  -0.490   5.351   8.920 -0.2794  2.0153 -2.5671
 1004MOL0     H35483  -0.565   5.325   8.675  0.9306  1.3909  0.9330
 1004MOL0     H35484  -0.610   5.160   8.718  0.5942 -0.9570  1.7316
 1004MOL0     H35485  -0.756   5.219   8.876 -0.0119 -0.4238  0.2099
 1004MOL0     H35486  -0.721   5.395   8.879  0.1934  0.2666 -0.1317
 1004MOL0     H35487  -0.858   5.273   8.646 -1.4223  0.9520 -0.1428
 1004MOL0     H35488  -0.766   5.423   8.630 -0.1610  0.3835 -0.2162
 1004MOL0     H35489  -1.002   5.361   8.820 -2.4233  0.1664 -1.0606
 1004MOL0     H35490  -0.904   5.515   8.816 -1.6463  1.6871 -0.7822
 1004MOL0     H35491  -1.144   5.295   8.573 -1.7708 -0.0956 -0.4567
 1004MOL0     H35492  -1.242   5.473   8.286  1.3479 -0.0148  0.3856
 1004MOL0     H35493  -1.317   5.367   8.391  1.2680 -0.4439 -2.1144
 1004MOL0     H35494  -1.433   5.553   8.529  1.2326 -1.2968  1.2392
 1004MOL0     H35495  -1.362   5.675   8.424 -1.1571  0.3137  1.4071
 1004MOL0     H35496  -1.564   5.458   8.352 -3.7648  1.9013 -0.8750
 1004MOL0     H35497  -1.457   5.536   8.231 -0.2531  2.0521 -0.3709
 1004MOL0     H35498  -1.665   5.638   8.420  0.1284  0.3254  0.3509
 1004MOL0     H35499  -1.664   5.626   8.232  2.5562  0.3781 -2.4033
 1004MOL0     H35500  -1.478   6.025   8.289 -0.8297 -2.2226 -3.6306
 1004MOL0     H35501  -1.608   6.227   8.265 -0.1020 -0.5994  1.1669
 1004MOL0     H35502  -1.785   6.594   8.440  0.6176 -1.3638 -1.0849
 1004MOL0     H35503  -1.939   6.796   8.443 -1.5208 -0.0725  0.2806
 1004MOL0     H35504  -2.229   6.897   8.169  1.1008  2.3098  1.1961
 1004MOL0     H35505  -2.337   6.775   8.242 -1.7889  2.0673 -0.0169
 1004MOL0     H35506  -2.453   6.980   8.253  0.1641  0.2742 -0.7628
 1004MOL0     H35507  -2.420   6.906   8.409  1.5253  0.0389  0.9631
 1004MOL0     H35508  -2.231   7.117   8.321 -0.2836  2.2478  0.5209
 1004MOL0     H35509  -2.390   7.165   8.360  1.0127  0.5964  0.2031
 1004MOL0     H35510  -2.208   7.026   8.549 -0.9010 -0.2898 -0.1038
 1004MOL0     H35511  -2.368   7.094   8.584  1.0819  0.1855  1.1077
 1004MOL0     H35512  -2.161   7.276   8.466  0.4245  1.3775  1.2789
 1004MOL0     H35513  -2.152   7.253   8.638 -0.1963  3.4415  0.2906
 1004MOL0     H35514  -2.389   7.379   8.480  3.1117 -0.5689 -2.1407
 1004MOL0     H35515  -2.397   7.336   8.654 -1.6900  0.1904 -0.4788
 1004MOL0     H35516  -2.213   7.537   8.513 -0.9836 -3.0958 -0.6960
 1004MOL0     H35517  -2.202   7.486   8.692 -1.5146 -2.5431  1.1317
 1004MOL0     H35518  -2.314   7.717   8.649 -2.3977  0.8570  3.7958
 1004MOL0     H35519  -2.449   7.629   8.577  0.6158  0.5559 -0.4815
 1004MOL0     H35520  -2.200   6.618   8.173 -0.9373 -1.0046  0.4408
 1004MOL0     H35521  -2.061   6.421   8.146 -0.0634 -0.8676 -0.3601
 1004MOL0     H35522  -1.966   6.003   8.359 -0.1864  1.0054 -0.5967
 1004MOL0     H35523  -1.835   5.790   8.337 -0.6799  0.2998 -1.1244
 1004MOL0     H35524  -0.100   5.217   9.346  0.0460  1.0523  0.3771
 1004MOL0     H35525   0.054   5.333   9.469  0.5723  0.9855  0.3730
 1004MOL0     H35526   0.482   5.582   9.348 -1.5334  0.8942  3.3676
 1004MOL0     H35527   0.692   5.677   9.390 -0.6693  0.8757  3.0661
 1004MOL0     H35528   0.844   5.752   9.537 -1.8262 -1.9615 -1.6491
 1004MOL0     H35529   0.954   5.688   9.414  1.8013 -1.4186  0.7061
 1004MOL0     H35530   1.071   5.817   9.592 -1.4382  1.9836  1.3399
 1004MOL0     H35531   1.135   5.654   9.559 -1.8879  0.5807 -3.9315
 1004MOL0     H35532   1.012   5.575   9.774 -1.2105  0.4510 -0.1566
 1004MOL0     H35533   0.924   5.714   9.774 -0.3902 -0.2876 -1.7670
 1004MOL0     H35534   1.103   5.861   9.854  1.5445  0.2772  1.3656
 1004MOL0     H35535   1.087   5.724   9.963 -0.8154 -0.1035 -0.7117
 1004MOL0     H35536   1.485   5.687   9.868 -0.1343  1.6068  4.9961
 1004MOL0     H35537   0.813   5.304   9.582 -0.9866  1.6134  2.1641
 1004MOL0     H35538   0.582   5.103   9.441 -3.4775  1.0673  0.3817
 1004MOL0     H35539   0.700   5.113   9.579 -0.9641 -1.9885  0.2774
 1004MOL0     H35540   0.529   5.136   9.603 -0.1926  0.9984  0.6534
 1005MOL0     O35541   3.034   6.104   2.171  0.2578  0.4732 -0.0810
 1005MOL0     C35542   3.091   6.144   2.071 -0.0813  0.4813  0.4553
 1005MOL0     O35543   3.203   6.230   2.072  0.6118 -0.5208  0.0228
 1005MOL0     C35544   3.241   6.265   2.198  0.5874 -1.5632  0.4313
 1005MOL0     C35545   3.193   6.381   2.257 -0.1114  0.5762 -0.6070
 1005MOL0     C35546   3.251   6.431   2.379  0.0678 -0.0414 -0.3058
 1005MOL0     C35547   3.364   6.360   2.431  0.2111 -0.3393 -0.5391
 1005MOL0     O35548   3.429   6.403   2.548  0.4957 -0.0366  0.3713
 1005MOL0     C35549   3.411   6.534   2.606  0.0541 -0.4900 -0.2105
 1005MOL0     C35550   3.546   6.605   2.634 -0.3231  0.1154  0.0890
 1005MOL0     C35551   3.623   6.661   2.506 -0.4044 -0.2603  0.0776
 1005MOL0     C35552   3.717   6.783   2.539  0.1818  0.0641 -0.3567
 1005MOL0     C35553   3.814   6.819   2.423 -0.0290 -0.1789  0.0545
 1005MOL0     C35554   3.930   6.910   2.476  0.4436 -0.1933 -0.1393
 1005MOL0     C35555   4.005   6.970   2.360  0.8477  0.3256  0.8756
 1005MOL0     C35556   4.104   7.072   2.411  0.3046  0.1683 -0.3003
 1005MOL0     N35557   4.212   7.005   2.488  1.0285  0.7769  0.6096
 1005MOL0     C35558   4.249   6.872   2.472  0.1053  0.2727 -0.6966
 1005MOL0     C35559   4.313   6.840   2.585 -0.6247  0.4781  0.1256
 1005MOL0     C35560   4.394   6.711   2.612  0.6169  0.2009  0.4807
 1005MOL0     C35561   4.523   6.706   2.541 -0.3831 -0.1594 -0.0300
 1005MOL0     C35562   4.577   6.560   2.520  0.0127  0.3848 -0.8030
 1005MOL0     C35563   4.574   6.463   2.641  0.0551 -0.1406  0.7400
 1005MOL0     O35564   4.600   6.332   2.599 -0.2204  0.0472  0.0695
 1005MOL0     C35565   4.730   6.309   2.546  0.2161 -0.0417 -0.7009
 1005MOL0     C35566   4.843   6.392   2.560  0.6674  0.3713 -0.1244
 1005MOL0     C35567   4.954   6.367   2.480  0.0231 -0.2078  0.1036
 1005MOL0     C35568   4.959   6.265   2.385  0.5325  0.4422  0.1045
 1005MOL0     C35569   5.084   6.244   2.301  0.3725 -0.0582  0.0795
 1005MOL0     O35570   5.069   6.154   2.197  0.3546  0.2374 -0.2619
 1005MOL0     C35571   5.173   6.132   2.113  0.7070 -0.2800  0.2281
 1005MOL0     C35572   5.192   6.229   2.014 -0.2135 -0.0272 -0.4966
 1005MOL0     C35573   5.279   6.199   1.911 -0.8590  0.5725  1.0392
 1005MOL0     C35574   5.340   6.073   1.905 -0.6997  0.0699 -0.5733
 1005MOL0     O35575   5.421   6.045   1.799 -0.5832  0.0611  0.4485
 1005MOL0     C35576   5.541   5.965   1.826  0.1322 -0.1579  0.3979
 1005MOL0     C35577   5.645   5.984   1.722 -0.5221 -0.0897  0.6212
 1005MOL0     C35578   5.574   5.951   1.586  0.0599  0.3077 -0.0883
 1005MOL0     C35579   5.676   5.970   1.473  0.7425 -1.1571  0.3144
 1005MOL0     C35580   5.599   6.004   1.344  0.4471  0.6242  0.4853
 1005MOL0     C35581   5.701   6.051   1.241  0.3659  0.0869  0.2476
 1005MOL0     C35582   5.801   5.947   1.190  1.0144  0.1590 -0.1104
 1005MOL0     C35583   5.729   5.830   1.118 -0.4886 -0.0844  1.7342
 1005MOL0    Cl35584   5.848   5.735   1.013 -0.2276 -0.0439 -0.0395
 1005MOL0     C35585   5.327   5.988   2.011 -0.8077 -0.3304 -0.6186
 1005MOL0     C35586   5.250   6.018   2.120  0.0437  0.3958 -0.0773
 1005MOL0     O35587   5.189   6.299   2.331  0.3335 -0.6183 -0.2537
 1005MOL0     C35588   4.843   6.184   2.376 -0.2713  0.0317 -0.9252
 1005MOL0     C35589   4.732   6.202   2.459  0.3605 -0.0515 -0.4618
 1005MOL0     N35590   4.308   6.953   2.669  0.5001 -0.0857  0.1658
 1005MOL0     N35591   4.235   7.044   2.615 -0.0894  0.2583  0.0677
 1005MOL0     C35592   3.408   6.242   2.370  0.2143  0.3948  0.5948
 1005MOL0     C35593   3.344   6.195   2.257 -0.0625  0.0938  0.7566
 1005MOL0     C35594   3.033   6.106   1.933 -0.1878 -0.7522 -0.1842
 1005MOL0     C35595   2.898   6.134   1.909  0.6645  0.1272 -0.8401
 1005MOL0     C35596   2.843   6.115   1.785  0.2409  0.0148  0.3247
 1005MOL0     C35597   2.917   6.061   1.682 -0.4283  0.2670 -0.0021
 1005MOL0     O35598   2.872   6.025   1.558 -0.6679 -0.7808 -0.0423
 1005MOL0     C35599   2.730   6.032   1.533  0.8344  0.5103 -0.5634
 1005MOL0     C35600   2.715   6.014   1.386 -0.1463  0.8303  0.7851
 1005MOL0     C35601   2.770   6.124   1.299  0.1001 -0.2248  0.2465
 1005MOL0     C35602   2.749   6.093   1.154  0.2657  0.1019  0.0934
 1005MOL0     C35603   2.819   6.190   1.067 -0.2420  0.0735 -0.3045
 1005MOL0     C35604   2.875   6.250   0.981 -0.6288  0.1704 -0.0399
 1005MOL0     C35605   3.054   6.041   1.698  0.3085  0.6438  0.2676
 1005MOL0     C35606   3.117   6.067   1.823 -0.2541  0.3091 -0.2594
 1005MOL0     C35607   3.263   6.055   1.828 -0.0792 -0.1410  0.1825
 1005MOL0     H35608   3.118   6.445   2.211  0.4911  1.6702 -0.1118
 1005MOL0     H35609   3.215   6.516   2.436  1.9969  1.8195 -1.6827
 1005MOL0     H35610   3.374   6.610   2.536 -0.7834  0.1049  0.8337
 1005MOL0     H35611   3.336   6.540   2.686  1.3200 -0.9359  1.0613
 1005MOL0     H35612   3.612   6.535   2.685  1.0479 -0.2453 -2.0759
 1005MOL0     H35613   3.527   6.694   2.695  1.3080 -0.6262  1.7652
 1005MOL0     H35614   3.545   6.687   2.434 -3.9245 -2.2276  2.8324
 1005MOL0     H35615   3.693   6.586   2.469  0.6101  1.3739 -1.4826
 1005MOL0     H35616   3.671   6.874   2.580  1.3067  0.1309  0.7904
 1005MOL0     H35617   3.778   6.747   2.622 -0.2331 -0.1287 -0.1344
 1005MOL0     H35618   3.853   6.722   2.389  3.0454  0.4424  1.4842
 1005MOL0     H35619   3.761   6.868   2.341 -1.0720 -1.6681 -0.2065
 1005MOL0     H35620   3.888   6.996   2.530  0.5603  2.3333 -3.7573
 1005MOL0     H35621   3.988   6.844   2.542 -2.3435 -3.1769 -0.4119
 1005MOL0     H35622   3.938   7.012   2.285  1.1915 -2.1624 -0.9616
 1005MOL0     H35623   4.060   6.893   2.304  1.7193  2.5455 -1.5301
 1005MOL0     H35624   4.140   7.131   2.326 -1.3415 -0.2366 -1.3256
 1005MOL0     H35625   4.060   7.147   2.478 -0.0929 -0.9307  0.7112
 1005MOL0     H35626   4.238   6.806   2.387  2.1776 -1.0651 -0.0206
 1005MOL0     H35627   4.394   6.700   2.721 -2.4975  0.1913  0.5683
 1005MOL0     H35628   4.332   6.623   2.589  2.2187 -1.0231  0.6281
 1005MOL0     H35629   4.513   6.762   2.448  0.9948  2.0879  1.0795
 1005MOL0     H35630   4.591   6.767   2.601 -2.0437  0.7888  0.9660
 1005MOL0     H35631   4.679   6.564   2.480  0.9710 -1.2794  1.2876
 1005MOL0     H35632   4.516   6.519   2.438 -0.0957 -1.0901 -0.0121
 1005MOL0     H35633   4.482   6.465   2.700 -0.6719  0.4473 -0.3835
 1005MOL0     H35634   4.653   6.505   2.704 -0.8533  4.4618 -0.7944
 1005MOL0     H35635   4.828   6.472   2.632 -0.5389 -1.6530  1.9972
 1005MOL0     H35636   5.041   6.432   2.485  1.3375 -1.8197 -0.5755
 1005MOL0     H35637   5.153   6.331   2.015  0.1903  0.1276  1.0791
 1005MOL0     H35638   5.294   6.279   1.840 -1.1498  1.0198  1.4754
 1005MOL0     H35639   5.586   5.994   1.922  1.5069 -1.0014  0.0415
 1005MOL0     H35640   5.509   5.861   1.813  3.7073 -1.2531 -1.0459
 1005MOL0     H35641   5.680   6.087   1.725 -0.3283 -0.1617  0.9655
 1005MOL0     H35642   5.733   5.917   1.726  0.1436  0.6695 -0.6993
 1005MOL0     H35643   5.540   5.847   1.588 -0.3918  0.3561 -2.2515
 1005MOL0     H35644   5.482   6.007   1.570 -0.8166 -1.1855 -0.4606
 1005MOL0     H35645   5.723   5.872   1.459 -1.9230 -2.6505  1.0234
 1005MOL0     H35646   5.749   6.044   1.505  1.2043 -1.0603 -0.9048
 1005MOL0     H35647   5.525   6.083   1.357  1.6786  1.6856  1.2499
 1005MOL0     H35648   5.552   5.912   1.309  2.8863 -1.3125  1.9711
 1005MOL0     H35649   5.656   6.119   1.168  0.4429  1.6647  1.6183
 1005MOL0     H35650   5.759   6.125   1.297  0.3067 -1.0866  1.9371
 1005MOL0     H35651   5.870   5.922   1.271  1.4113  2.4084  0.2977
 1005MOL0     H35652   5.855   6.000   1.112 -2.3011  1.8942 -1.3914
 1005MOL0     H35653   5.693   5.749   1.183 -1.0942  0.2914  1.8646
 1005MOL0     H35654   5.651   5.858   1.047 -0.2890 -1.1631  1.0614
 1005MOL0     H35655   5.370   5.889   2.010  0.7794  0.2805  1.1086
 1005MOL0     H35656   5.234   5.947   2.200 -1.2079  0.4705 -0.2353
 1005MOL0     H35657   4.837   6.110   2.297 -4.5987 -1.0738  0.1457
 1005MOL0     H35658   4.660   6.124   2.440  1.4880 -0.8776 -1.5259
 1005MOL0     H35659   3.499   6.198   2.410  1.2094  1.8757  0.0414
 1005MOL0     H35660   3.377   6.108   2.201  0.0876  0.4993  0.2102
 1005MOL0     H35661   2.828   6.160   1.988  1.0297  0.1012 -0.5043
 1005MOL0     H35662   2.742   6.152   1.774 -0.1228 -1.1777 -0.5051
 1005MOL0     H35663   2.682   6.124   1.567  1.4322  0.0683  1.6989
 1005MOL0     H35664   2.688   5.950   1.593  0.4741  2.6052  2.2382
 1005MOL0     H35665   2.609   6.007   1.361  0.2395 -0.3180 -0.6517
 1005MOL0     H35666   2.753   5.917   1.350 -2.2080  1.4932 -3.8032
 1005MOL0     H35667   2.872   6.150   1.328  0.6663 -0.1534 -1.6690
 1005MOL0     H35668   2.702   6.207   1.322  1.0507  0.3350  1.1086
 1005MOL0     H35669   2.779   5.992   1.128 -0.4633  0.0402 -0.5532
 1005MOL0     H35670   2.640   6.101   1.147  0.0638  0.6187  2.6918
 1005MOL0     H35671   2.937   6.302   0.911 -2.2498  1.6317 -0.4522
 1005MOL0     H35672   3.120   6.005   1.620  1.2217 -0.4598  1.5018
 1005MOL0     H35673   3.290   6.160   1.847 -3.4067  0.3338  3.3069
 1005MOL0     H35674   3.295   5.991   1.911 -0.2985 -0.2399  0.1911
 1005MOL0     H35675   3.305   6.016   1.735 -1.0658 -1.1455  0.1425
 1006MOL0     O35676   4.185   8.082   5.926 -0.0823  0.9325  0.3773
 1006MOL0     C35677   4.102   8.168   5.896 -0.0208 -0.5467  0.0002
 1006MOL0     O35678   4.116   8.259   5.794 -0.2057  0.4224 -0.4001
 1006MOL0     C35679   4.227   8.248   5.719  0.6308  0.1140 -0.7113
 1006MOL0     C35680   4.354   8.297   5.751 -1.5530  0.1214  0.6158
 1006MOL0     C35681   4.461   8.266   5.655  0.1854 -1.1568  0.6587
 1006MOL0     C35682   4.440   8.207   5.530  0.1369  0.2803  0.2462
 1006MOL0     O35683   4.547   8.192   5.444 -0.1074  0.3284  0.0143
 1006MOL0     C35684   4.545   8.271   5.323 -0.2181  0.4443 -0.6045
 1006MOL0     C35685   4.685   8.337   5.319 -0.2413 -0.5540 -0.0269
 1006MOL0     C35686   4.807   8.240   5.339  0.5581  0.1270 -0.1392
 1006MOL0     C35687   4.938   8.310   5.320  0.4122  0.7532 -0.1628
 1006MOL0     C35688   5.055   8.218   5.319  0.1474  0.2985  0.4342
 1006MOL0     C35689   5.060   8.112   5.216  0.1298  0.7795  0.4253
 1006MOL0     C35690   5.112   8.160   5.085  0.7071 -0.2453 -0.1411
 1006MOL0     C35691   5.269   8.146   5.081  0.3944 -0.2938 -0.2381
 1006MOL0     N35692   5.332   8.222   4.971 -0.0572 -0.4219 -0.4395
 1006MOL0     C35693   5.337   8.362   4.962  0.6915 -0.1220 -0.2338
 1006MOL0     C35694   5.385   8.397   4.842 -0.0425  0.1428 -0.2741
 1006MOL0     C35695   5.419   8.538   4.793  0.5169  0.3935 -0.6027
 1006MOL0     C35696   5.571   8.547   4.762  0.3597 -0.8150  1.0809
 1006MOL0     C35697   5.601   8.681   4.688  0.0155  0.6004  0.3579
 1006MOL0     C35698   5.754   8.687   4.666  0.1360  0.1550 -1.1947
 1006MOL0     O35699   5.837   8.711   4.790 -0.2515 -0.0213 -1.6402
 1006MOL0     C35700   5.975   8.709   4.784  0.8503  0.6407  0.0883
 1006MOL0     C35701   6.047   8.706   4.904  0.3414 -0.1216 -0.0612
 1006MOL0     C35702   6.184   8.696   4.904 -0.4694  0.3097  0.5495
 1006MOL0     C35703   6.257   8.687   4.789 -0.1743 -0.1575  0.4429
 1006MOL0     C35704   6.409   8.682   4.782  0.1804  0.3777 -0.5852
 1006MOL0     O35705   6.470   8.685   4.664  0.5681 -0.2498 -0.0911
 1006MOL0     C35706   6.604   8.658   4.672 -0.6599  0.1600  0.2703
 1006MOL0     C35707   6.662   8.542   4.724 -0.1437 -0.1778  0.3011
 1006MOL0     C35708   6.801   8.520   4.719 -0.3462  0.1915 -0.6191
 1006MOL0     C35709   6.893   8.612   4.667 -0.2450 -0.5192 -0.7064
 1006MOL0     O35710   7.025   8.582   4.668  0.0560  0.4331  0.3072
 1006MOL0     C35711   7.075   8.457   4.721 -0.8618 -0.2939  0.1036
 1006MOL0     C35712   7.231   8.439   4.707  0.1446 -0.2910  0.0376
 1006MOL0     C35713   7.279   8.437   4.570 -0.4382  0.0497  0.2784
 1006MOL0     C35714   7.286   8.293   4.505  0.4552 -0.0262  0.8884
 1006MOL0     C35715   7.300   8.308   4.350 -0.3961  0.6659 -0.1632
 1006MOL0     C35716   7.448   8.336   4.307  0.0628 -0.1798 -0.7342
 1006MOL0     C35717   7.470   8.347   4.155 -1.1408  0.3576  0.1584
 1006MOL0     C35718   7.620   8.362   4.117  0.4927 -0.7399 -0.5512
 1006MOL0    Cl35719   7.691   8.507   4.211 -0.6303  0.3198 -0.2472
 1006MOL0     C35720   6.833   8.734   4.617 -0.2433 -0.7017 -0.1679
 1006MOL0     C35721   6.693   8.754   4.613 -0.6816  0.1615  0.8342
 1006MOL0     O35722   6.473   8.672   4.891 -0.0021  0.1104  0.6782
 1006MOL0     C35723   6.181   8.677   4.670 -0.1238 -0.1995  1.0265
 1006MOL0     C35724   6.048   8.690   4.674 -0.2241  0.1939  0.7168
 1006MOL0     N35725   5.410   8.276   4.780 -0.2981 -0.0297  0.7193
 1006MOL0     N35726   5.373   8.176   4.855 -0.2998  0.4153 -0.9474
 1006MOL0     C35727   4.314   8.169   5.492  0.6109  0.9715 -1.2390
 1006MOL0     C35728   4.211   8.186   5.586  0.0275  0.3860 -0.8283
 1006MOL0     C35729   3.973   8.172   5.977  0.4236 -0.3119 -0.1657
 1006MOL0     C35730   3.852   8.216   5.911 -0.9337 -0.7047 -0.3519
 1006MOL0     C35731   3.730   8.208   5.982 -0.2857  0.3980 -0.5622
 1006MOL0     C35732   3.718   8.139   6.104 -0.0554 -0.7791  0.3151
 1006MOL0     O35733   3.596   8.139   6.169  0.3175  0.3057  0.6313
 1006MOL0     C35734   3.534   8.012   6.160 -0.0802  0.6969 -0.0303
 1006MOL0     C35735   3.405   8.008   6.230 -0.3432  0.4796  0.1636
 1006MOL0     C35736   3.434   7.998   6.377  0.6656  0.2400 -0.1178
 1006MOL0     C35737   3.295   7.964   6.445  0.2247  0.3302 -0.3910
 1006MOL0     C35738   3.313   7.973   6.586 -0.4956  0.3749  0.4769
 1006MOL0     C35739   3.350   7.973   6.698 -0.1437  0.7893 -0.2096
 1006MOL0     C35740   3.833   8.103   6.169 -0.4863  0.7596  0.2594
 1006MOL0     C35741   3.964   8.118   6.109  0.2616  0.0922  0.4494
 1006MOL0     C35742   4.085   8.079   6.188  0.3044  0.8821 -0.1106
 1006MOL0     H35743   4.358   8.357   5.841 -0.5758 -0.0835  0.7140
 1006MOL0     H35744   4.560   8.306   5.671  0.1806 -1.2006  0.7983
 1006MOL0     H35745   4.533   8.202   5.239  1.8724  0.9314 -1.3802
 1006MOL0     H35746   4.460   8.339   5.319 -1.3076 -0.8653 -0.1494
 1006MOL0     H35747   4.704   8.431   5.373  0.5972  0.3036 -1.7339
 1006MOL0     H35748   4.689   8.366   5.214 -3.6920  0.1025 -0.0972
 1006MOL0     H35749   4.796   8.157   5.269 -0.5319 -0.5901  0.8400
 1006MOL0     H35750   4.814   8.197   5.440  0.5122  1.8586  0.6282
 1006MOL0     H35751   4.935   8.353   5.220  0.5685 -0.3976 -0.6903
 1006MOL0     H35752   4.950   8.400   5.381  1.4829  3.0708 -3.5384
 1006MOL0     H35753   5.144   8.281   5.315 -0.6900  1.5152  0.2123
 1006MOL0     H35754   5.060   8.158   5.410  2.5261  1.6087  1.2577
 1006MOL0     H35755   5.131   8.038   5.255  1.2065  1.7911  0.4511
 1006MOL0     H35756   4.966   8.057   5.206  0.7932 -0.8763  2.4575
 1006MOL0     H35757   5.084   8.265   5.070 -0.1641 -0.0325  2.4569
 1006MOL0     H35758   5.068   8.101   5.004 -1.0444 -0.1775  0.7082
 1006MOL0     H35759   5.322   8.167   5.175 -2.8293 -0.6298  1.8122
 1006MOL0     H35760   5.284   8.037   5.079 -3.6523 -0.9997 -0.5334
 1006MOL0     H35761   5.293   8.429   5.035 -0.7574  0.4547 -1.5793
 1006MOL0     H35762   5.364   8.574   4.706  0.2743 -1.3829 -1.2255
 1006MOL0     H35763   5.390   8.611   4.869  1.4422  2.0129 -1.7441
 1006MOL0     H35764   5.617   8.556   4.861  1.3351 -0.7277  0.6248
 1006MOL0     H35765   5.603   8.458   4.707 -3.0304 -3.1173  2.4605
 1006MOL0     H35766   5.552   8.771   4.728  0.5650  2.5448 -2.9657
 1006MOL0     H35767   5.551   8.675   4.591 -0.6265  3.0416  0.4570
 1006MOL0     H35768   5.780   8.746   4.578  0.4244 -0.3410 -1.4443
 1006MOL0     H35769   5.795   8.591   4.634  0.6064  0.7806 -2.5271
 1006MOL0     H35770   5.997   8.735   4.996 -2.4046  0.2647 -1.5635
 1006MOL0     H35771   6.241   8.708   4.995  1.3088 -2.3451 -0.0950
 1006MOL0     H35772   6.598   8.481   4.787 -0.3683  1.9760  2.3218
 1006MOL0     H35773   6.847   8.427   4.753 -0.2157  0.7825  0.8887
 1006MOL0     H35774   7.051   8.447   4.827 -3.1249 -1.0630 -0.4423
 1006MOL0     H35775   7.031   8.372   4.668 -1.4039  0.9852 -1.5855
 1006MOL0     H35776   7.277   8.518   4.767  0.4004 -0.0464 -0.4761
 1006MOL0     H35777   7.257   8.347   4.761  1.7398  0.6087  0.9059
 1006MOL0     H35778   7.214   8.508   4.519 -0.1252  0.9801  1.1403
 1006MOL0     H35779   7.379   8.478   4.553 -0.7719  0.0954 -1.8627
 1006MOL0     H35780   7.188   8.251   4.530  0.5402  0.0687  1.3769
 1006MOL0     H35781   7.362   8.225   4.543  0.2405  0.0616  1.4753
 1006MOL0     H35782   7.230   8.380   4.305  0.4515 -0.2011 -3.1301
 1006MOL0     H35783   7.266   8.217   4.299 -0.4396  0.2049  0.6753
 1006MOL0     H35784   7.489   8.425   4.356  2.4261 -1.7593  0.3334
 1006MOL0     H35785   7.506   8.257   4.355  0.0183  0.3098  0.1524
 1006MOL0     H35786   7.406   8.430   4.124  2.3704  2.4404 -2.1985
 1006MOL0     H35787   7.436   8.255   4.106 -0.4099 -0.9816  2.0313
 1006MOL0     H35788   7.675   8.275   4.155 -0.1854  0.7049  4.5364
 1006MOL0     H35789   7.628   8.378   4.009 -1.2836  1.1615 -0.4717
 1006MOL0     H35790   6.891   8.820   4.585 -0.7211  0.0011  0.8326
 1006MOL0     H35791   6.650   8.848   4.579 -0.0994  0.7909  1.7876
 1006MOL0     H35792   6.237   8.663   4.579 -1.6790 -2.9344  0.3676
 1006MOL0     H35793   5.990   8.688   4.583 -0.0347  0.7130  0.5840
 1006MOL0     H35794   4.294   8.127   5.394  1.4862 -0.6620 -0.7546
 1006MOL0     H35795   4.109   8.161   5.562 -0.3928 -1.0368  2.0510
 1006MOL0     H35796   3.856   8.261   5.812 -0.6627 -1.8018 -0.8533
 1006MOL0     H35797   3.640   8.238   5.930  0.2907 -0.4674 -2.1067
 1006MOL0     H35798   3.607   7.939   6.194 -1.3084 -0.8519 -0.5991
 1006MOL0     H35799   3.519   7.995   6.053 -0.8684  1.7034 -0.1026
 1006MOL0     H35800   3.337   7.933   6.189 -0.1518  0.4049 -0.0245
 1006MOL0     H35801   3.354   8.104   6.217  1.4193  1.1818 -2.2629
 1006MOL0     H35802   3.479   8.093   6.406  1.6692  0.4001 -2.0181
 1006MOL0     H35803   3.510   7.920   6.393  2.6454  2.1779  0.4556
 1006MOL0     H35804   3.222   8.037   6.408  0.3308  0.7232  0.1684
 1006MOL0     H35805   3.251   7.865   6.428  0.2304  0.2632 -0.0170
 1006MOL0     H35806   3.394   7.973   6.796  0.5441 -1.6095 -0.4691
 1006MOL0     H35807   3.828   8.047   6.263  0.7317  1.7086  0.9249
 1006MOL0     H35808   4.057   8.046   6.288 -1.2142  0.1796 -0.7312
 1006MOL0     H35809   4.141   8.000   6.137  3.7522  2.3495  1.1620
 1006MOL0     H35810   4.141   8.172   6.202  1.9374  0.0675 -0.9188
 1007MOL0     O35811  10.473   5.835  11.347  0.8679 -0.1537  0.2686
 1007MOL0     C35812  10.591   5.805  11.357 -0.0487  0.0593 -0.3112
 1007MOL0     O35813  10.661   5.731  11.257  0.8629  0.0516 -0.0706
 1007MOL0     C35814  10.597   5.709  11.132 -0.7239  1.1102  0.1339
 1007MOL0     C35815  10.516   5.592  11.114 -0.3453  0.6762  0.2030
 1007MOL0     C35816  10.446   5.584  10.992  0.2843  0.0702 -1.2463
 1007MOL0     C35817  10.457   5.672  10.885 -0.7866 -0.3020 -0.0553
 1007MOL0     O35818  10.384   5.655  10.769 -0.3750  0.1889 -0.0576
 1007MOL0     C35819  10.259   5.724  10.791  0.3301  0.1411  0.1043
 1007MOL0     C35820  10.170   5.730  10.661 -1.1225  0.6292 -0.4555
 1007MOL0     C35821  10.112   5.590  10.628  0.1240  0.6190 -0.7418
 1007MOL0     C35822  10.054   5.582  10.488 -0.4005 -0.2651  0.4249
 1007MOL0     C35823   9.976   5.447  10.474  0.7388 -0.0230  0.3192
 1007MOL0     C35824   9.852   5.438  10.562 -0.6647  0.2038 -0.2383
 1007MOL0     C35825   9.740   5.413  10.462 -0.4333 -0.6838 -0.2279
 1007MOL0     C35826   9.699   5.527  10.362 -0.7978 -0.4914 -0.6788
 1007MOL0     N35827   9.605   5.482  10.260  0.9397 -0.5517 -0.0186
 1007MOL0     C35828   9.467   5.462  10.286 -0.5645  0.0638  0.3894
 1007MOL0     C35829   9.416   5.396  10.177  0.1540  0.9324  0.0338
 1007MOL0     C35830   9.274   5.349  10.158  0.0331 -0.1689  0.4574
 1007MOL0     C35831   9.281   5.209  10.105  0.2546  0.6689  0.7617
 1007MOL0     C35832   9.342   5.109  10.201 -0.4208 -0.3355 -0.1395
 1007MOL0     C35833   9.418   5.000  10.122  0.3718 -0.7163 -0.8362
 1007MOL0     O35834   9.469   4.920  10.231  0.4608 -0.1181  0.4115
 1007MOL0     C35835   9.592   4.955  10.280  0.0295  0.0669 -0.6565
 1007MOL0     C35836   9.671   5.071  10.252 -0.4444  0.4579 -0.8351
 1007MOL0     C35837   9.803   5.080  10.295  0.6341  0.0026  0.4653
 1007MOL0     C35838   9.857   4.988  10.386 -0.5617  0.6119 -0.6528
 1007MOL0     C35839   9.993   4.999  10.437  0.2592  0.6732  0.2214
 1007MOL0     O35840  10.024   4.992  10.573  0.5046  0.2448 -0.0900
 1007MOL0     C35841  10.139   5.046  10.624 -0.5440  0.4684  0.6315
 1007MOL0     C35842  10.215   5.133  10.547  0.1626  0.0019 -0.1097
 1007MOL0     C35843  10.341   5.169  10.592 -1.0834  0.2919  0.0885
 1007MOL0     C35844  10.386   5.128  10.721  0.2577  0.6373 -1.2200
 1007MOL0     O35845  10.508   5.175  10.779 -0.0213  0.5399  0.3466
 1007MOL0     C35846  10.571   5.299  10.740 -0.4722  0.1493 -0.2846
 1007MOL0     C35847  10.704   5.312  10.815 -1.2723 -0.8180 -1.1963
 1007MOL0     C35848  10.781   5.437  10.774  0.8599  0.5592 -0.1282
 1007MOL0     C35849  10.901   5.495  10.852  0.2773 -0.6168  0.9872
 1007MOL0     C35850  11.019   5.395  10.859  0.5376  0.7358  0.9488
 1007MOL0     C35851  11.145   5.445  10.930 -0.0142 -0.5935  0.1094
 1007MOL0     C35852  11.254   5.334  10.948 -0.4259  0.2069 -0.0583
 1007MOL0     C35853  11.363   5.345  10.851 -0.0973 -0.1038 -0.2177
 1007MOL0    Cl35854  11.295   5.384  10.682  0.4603 -0.2411 -0.2020
 1007MOL0     C35855  10.304   5.043  10.795  0.2362  0.0462  0.1811
 1007MOL0     C35856  10.186   4.996  10.743 -0.1266 -0.4471  0.8194
 1007MOL0     O35857  10.074   5.006  10.347 -0.3846 -0.2577  0.0754
 1007MOL0     C35858   9.777   4.885  10.430 -0.4186 -0.3738 -0.1493
 1007MOL0     C35859   9.656   4.860  10.361  0.0132  0.2686  0.5890
 1007MOL0     N35860   9.515   5.406  10.087 -0.1478  0.0637  0.6305
 1007MOL0     N35861   9.625   5.456  10.133 -0.0673  0.9322  0.3877
 1007MOL0     C35862  10.535   5.778  10.902 -0.3758  0.2440 -0.0288
 1007MOL0     C35863  10.618   5.802  11.023 -0.2258  0.5069 -0.4322
 1007MOL0     C35864  10.645   5.847  11.484 -0.2765  0.3810 -1.0093
 1007MOL0     C35865  10.791   5.834  11.492  0.1431 -0.3067 -1.7949
 1007MOL0     C35866  10.863   5.874  11.614  0.0989  0.3895  0.3592
 1007MOL0     C35867  10.790   5.930  11.720  0.8678 -0.4394  0.6487
 1007MOL0     O35868  10.873   5.968  11.819  0.2736 -0.4671 -0.1776
 1007MOL0     C35869  10.834   6.008  11.948 -0.0728  0.1761 -1.2977
 1007MOL0     C35870  10.918   6.120  12.003 -0.3285 -0.6235  0.1499
 1007MOL0     C35871  10.873   6.251  11.942  0.8989 -0.7263  0.7001
 1007MOL0     C35872  10.949   6.388  11.966  0.5676 -0.2014 -0.2049
 1007MOL0     C35873  10.931   6.451  12.095  0.2716  0.4918 -0.5637
 1007MOL0     C35874  10.922   6.508  12.200 -0.2100 -0.5505  0.2798
 1007MOL0     C35875  10.651   5.938  11.713  0.1012  0.0789 -0.5531
 1007MOL0     C35876  10.579   5.902  11.600 -0.6799 -0.0045  0.4957
 1007MOL0     C35877  10.430   5.932  11.601  1.5558 -0.1215  0.5169
 1007MOL0     H35878  10.500   5.522  11.196 -3.2633 -1.0623 -1.6728
 1007MOL0     H35879  10.373   5.505  10.985  0.2177  0.0302 -0.2842
 1007MOL0     H35880  10.204   5.670  10.868 -2.8778 -0.5855 -2.4422
 1007MOL0     H35881  10.277   5.825  10.830 -0.2748 -0.1710  1.2206
 1007MOL0     H35882  10.214   5.755  10.564 -3.3487  1.4416 -1.2967
 1007MOL0     H35883  10.080   5.788  10.679 -1.6958 -0.7042  1.2141
 1007MOL0     H35884  10.035   5.579  10.705  2.0069  1.4794  1.3757
 1007MOL0     H35885  10.182   5.506  10.637 -1.9119 -0.9656  2.3851
 1007MOL0     H35886   9.984   5.660  10.458  0.6164  0.3653 -0.3832
 1007MOL0     H35887  10.137   5.569  10.418 -1.3747 -0.2884 -0.7596
 1007MOL0     H35888   9.952   5.443  10.368  0.0692 -0.4821  0.4831
 1007MOL0     H35889  10.034   5.356  10.492  1.4299  0.4126  0.3339
 1007MOL0     H35890   9.866   5.357  10.634 -0.0182  1.0943  0.6640
 1007MOL0     H35891   9.827   5.526  10.622  3.4596  1.0841  0.5158
 1007MOL0     H35892   9.653   5.390  10.524 -0.5682  1.5962  0.5223
 1007MOL0     H35893   9.777   5.325  10.408  2.5714  0.1254  0.3181
 1007MOL0     H35894   9.667   5.610  10.426  1.8377 -0.3254  0.5647
 1007MOL0     H35895   9.787   5.570  10.313 -0.8155  0.4930  0.1189
 1007MOL0     H35896   9.415   5.483  10.379 -0.9860 -2.4909  0.7852
 1007MOL0     H35897   9.220   5.354  10.253 -1.7307  2.3797 -0.5764
 1007MOL0     H35898   9.228   5.417  10.086 -0.4029  2.2939  2.8830
 1007MOL0     H35899   9.177   5.188  10.079  0.3825  2.1381 -1.0980
 1007MOL0     H35900   9.330   5.208  10.008 -0.0457 -2.8096  0.5055
 1007MOL0     H35901   9.273   5.055  10.267 -0.6856  1.1838  0.8759
 1007MOL0     H35902   9.420   5.163  10.255  0.9176 -0.6222 -1.7238
 1007MOL0     H35903   9.497   5.049  10.064 -1.4850 -0.2017 -3.0541
 1007MOL0     H35904   9.350   4.939  10.062  0.0931 -0.8461 -0.3906
 1007MOL0     H35905   9.630   5.153  10.194  1.2833  1.1128 -1.1981
 1007MOL0     H35906   9.862   5.166  10.265 -1.3237  0.5241 -2.2326
 1007MOL0     H35907  10.194   5.166  10.446 -0.3991  0.3309  0.1117
 1007MOL0     H35908  10.405   5.231  10.530 -1.4188  0.7990  0.2443
 1007MOL0     H35909  10.590   5.315  10.633  1.2316  0.7568  0.0809
 1007MOL0     H35910  10.503   5.379  10.771 -0.5235 -0.6304  1.7697
 1007MOL0     H35911  10.682   5.324  10.921  2.2642  0.9309 -0.5081
 1007MOL0     H35912  10.770   5.225  10.804 -2.1090 -1.7955  0.9511
 1007MOL0     H35913  10.826   5.406  10.679 -0.9652  1.1472 -1.2488
 1007MOL0     H35914  10.715   5.521  10.749  1.6596  2.0544  2.5088
 1007MOL0     H35915  10.887   5.535  10.953 -1.4431 -1.7566  1.2444
 1007MOL0     H35916  10.935   5.583  10.797 -2.9543  0.5024  0.5407
 1007MOL0     H35917  11.044   5.375  10.754 -2.5053  0.5703  0.1482
 1007MOL0     H35918  10.989   5.299  10.901  0.7581 -1.3987 -3.1995
 1007MOL0     H35919  11.198   5.523  10.873  1.0077 -0.4792  1.1891
 1007MOL0     H35920  11.117   5.489  11.026  1.9675 -0.8755  0.8771
 1007MOL0     H35921  11.203   5.241  10.919  1.4598 -1.7414  2.4073
 1007MOL0     H35922  11.295   5.327  11.049 -0.4628 -3.0920 -0.1478
 1007MOL0     H35923  11.427   5.430  10.877  0.2664 -1.6180  4.7823
 1007MOL0     H35924  11.418   5.253  10.832 -2.2486 -2.2860  3.0575
 1007MOL0     H35925  10.336   5.013  10.894 -2.5520  0.3472  1.2668
 1007MOL0     H35926  10.118   4.930  10.797 -0.5072 -2.7227 -2.1991
 1007MOL0     H35927   9.803   4.810  10.504  0.2677 -0.8240 -0.8284
 1007MOL0     H35928   9.604   4.768  10.386 -0.9549  0.0416 -1.9446
 1007MOL0     H35929  10.531   5.862  10.834  0.4324  3.6498  3.7456
 1007MOL0     H35930  10.677   5.892  11.038  3.1811 -1.9502  2.6781
 1007MOL0     H35931  10.852   5.810  11.405  3.1512  0.7443 -0.1303
 1007MOL0     H35932  10.971   5.862  11.604  0.2400  1.4558  0.4727
 1007MOL0     H35933  10.856   5.926  12.017  1.3888  1.4067 -0.2431
 1007MOL0     H35934  10.731   6.043  11.953  0.5445  2.3535 -2.4620
 1007MOL0     H35935  11.022   6.104  11.973  0.1244 -0.1071  1.3872
 1007MOL0     H35936  10.909   6.123  12.112 -1.4053 -1.5637  0.1154
 1007MOL0     H35937  10.765   6.263  11.958  0.9200 -2.6807  2.9735
 1007MOL0     H35938  10.873   6.232  11.834  1.2760 -2.0699  0.9129
 1007MOL0     H35939  11.058   6.380  11.960  0.8629  2.7377 -0.0997
 1007MOL0     H35940  10.921   6.458  11.886 -0.0199 -1.7433 -1.4094
 1007MOL0     H35941  10.936   6.567  12.288  3.0941  1.3049 -1.2878
 1007MOL0     H35942  10.599   5.988  11.795  1.8864  0.3241  0.4782
 1007MOL0     H35943  10.369   5.841  11.602 -0.2312  1.0096 -0.7364
 1007MOL0     H35944  10.396   5.976  11.695 -1.1972  2.0397 -1.3352
 1007MOL0     H35945  10.395   6.005  11.527  0.0009 -0.6529  0.6991
 1008MOL0     O35946  10.075   0.286  10.680  0.3756  0.0105  0.0083
 1008MOL0     C35947  10.014   0.394  10.700  0.7325  0.3452 -0.3868
 1008MOL0     O35948  10.037   0.502  10.621  0.8208  0.7263 -0.8317
 1008MOL0     C35949  10.145   0.500  10.531 -0.3433 -0.3481  0.3157
 1008MOL0     C35950  10.272   0.473  10.568  1.1326  0.5644 -0.6002
 1008MOL0     C35951  10.367   0.455  10.469 -0.7461 -0.4261 -0.5778
 1008MOL0     C35952  10.350   0.478  10.333  0.2257  1.0115 -0.0016
 1008MOL0     O35953  10.453   0.464  10.240  0.1374  0.0453  0.1395
 1008MOL0     C35954  10.465   0.554  10.124 -0.4532 -0.8102 -0.0349
 1008MOL0     C35955  10.612   0.571  10.074  0.2722  0.5867 -0.9507
 1008MOL0     C35956  10.694   0.662  10.162  0.2599  0.2410 -0.0762
 1008MOL0     C35957  10.834   0.702  10.106 -0.8670  0.4708  0.4870
 1008MOL0     C35958  10.904   0.803  10.197  0.2811  0.4009 -0.4503
 1008MOL0     C35959  10.951   0.742  10.327 -0.8936 -0.0762  0.4370
 1008MOL0     C35960  11.042   0.831  10.421  0.8308 -0.2450 -0.6735
 1008MOL0     C35961  11.096   0.756  10.544  0.4738 -0.2692 -0.7551
 1008MOL0     N35962  11.190   0.651  10.519 -0.8101 -0.4649 -0.7189
 1008MOL0     C35963  11.322   0.678  10.491 -0.2733  0.9396  0.0083
 1008MOL0     C35964  11.370   0.556  10.455  0.5231 -1.5044 -0.1100
 1008MOL0     C35965  11.511   0.541  10.419  1.0896 -0.5026 -0.5006
 1008MOL0     C35966  11.545   0.399  10.419 -0.4479  0.9304 -0.2055
 1008MOL0     C35967  11.559   0.343  10.282  0.6204 -0.2553  0.2646
 1008MOL0     C35968  11.689   0.377  10.198 -0.1128 -0.4976 -0.7422
 1008MOL0     O35969  11.817   0.315  10.247  0.5736  0.0307 -0.4925
 1008MOL0     C35970  11.924   0.325  10.176 -0.6290  0.3527  0.3638
 1008MOL0     C35971  11.931   0.403  10.062  0.2924  0.0514  0.7045
 1008MOL0     C35972  12.051   0.412   9.993  0.7235 -0.0214  1.0407
 1008MOL0     C35973  12.180   0.364  10.035  0.2495 -0.2509  0.8053
 1008MOL0     C35974  12.302   0.381   9.952 -0.2448 -0.2861 -1.4397
 1008MOL0     O35975  12.400   0.289   9.983 -0.0226 -0.6153  0.5961
 1008MOL0     C35976  12.504   0.280   9.894  0.0594 -0.5509  0.1431
 1008MOL0     C35977  12.491   0.251   9.756 -0.7903  0.2144  0.2696
 1008MOL0     C35978  12.606   0.266   9.672 -0.0643 -0.3411 -0.4334
 1008MOL0     C35979  12.731   0.297   9.722 -0.5040  0.0666  0.2555
 1008MOL0     O35980  12.846   0.301   9.646  0.7382 -0.2426 -0.1871
 1008MOL0     C35981  12.856   0.195   9.557 -0.1917  0.2619  0.4585
 1008MOL0     C35982  13.008   0.191   9.525 -0.2554 -0.4531  0.1618
 1008MOL0     C35983  13.030   0.118   9.387  0.1246 -0.1152  0.3251
 1008MOL0     C35984  13.167   0.151   9.327 -0.5462 -0.6316 -0.2318
 1008MOL0     C35985  13.201   0.073   9.202  1.0673 -0.0053 -0.6701
 1008MOL0     C35986  13.117   0.111   9.084 -0.1009 -0.4817 -1.0676
 1008MOL0     C35987  13.134   0.002   8.978 -0.1029 -0.4145  0.0425
 1008MOL0     C35988  13.062   0.032   8.847  1.3210 -0.0016  1.0193
 1008MOL0    Cl35989  13.113   0.190   8.777 -0.4093  0.0892  0.0297
 1008MOL0     C35990  12.745   0.323   9.857 -0.3107  0.4852  0.4037
 1008MOL0     C35991  12.633   0.323   9.936 -0.4513  0.1405 -0.0734
 1008MOL0     O35992  12.305   0.471   9.865  0.2551 -0.6398  0.8564
 1008MOL0     C35993  12.169   0.283  10.152 -0.5849 -0.5064 -0.6434
 1008MOL0     C35994  12.041   0.261  10.223 -0.7355 -0.3289  0.3827
 1008MOL0     N35995  11.266   0.462  10.466 -0.3542 -0.2208  0.6137
 1008MOL0     N35996  11.167   0.514  10.515 -0.4988 -0.2926  0.0896
 1008MOL0     C35997  10.216   0.501  10.294 -0.8121  0.2872 -0.8038
 1008MOL0     C35998  10.114   0.508  10.394 -0.3945  0.5485  0.7252
 1008MOL0     C35999   9.916   0.406  10.817  0.2195 -0.3374 -0.0797
 1008MOL0     C36000   9.881   0.540  10.850  0.5371  0.1589  0.4214
 1008MOL0     C36001   9.800   0.574  10.963 -0.5040 -0.5710  0.2135
 1008MOL0     C36002   9.760   0.472  11.046  0.8039 -0.8410 -0.3035
 1008MOL0     O36003   9.672   0.511  11.141  0.7893  0.0332  0.0153
 1008MOL0     C36004   9.569   0.411  11.187 -0.6791  0.4025  0.1627
 1008MOL0     C36005   9.428   0.463  11.226  0.3286 -0.6495  1.1457
 1008MOL0     C36006   9.351   0.512  11.097 -0.7573  0.7488  0.5698
 1008MOL0     C36007   9.212   0.559  11.149 -0.2558  0.1737  0.3047
 1008MOL0     C36008   9.189   0.691  11.206  0.2410 -0.3242 -0.4295
 1008MOL0     C36009   9.165   0.801  11.253  0.1644  0.2491  0.1584
 1008MOL0     C36010   9.800   0.342  11.013  0.0463  0.0822 -0.4385
 1008MOL0     C36011   9.878   0.302  10.907 -0.2052  0.0309 -0.8225
 1008MOL0     C36012   9.927   0.163  10.894  0.4133  0.6957  1.0166
 1008MOL0     H36013  10.295   0.443  10.670  0.6328 -0.2669 -0.7212
 1008MOL0     H36014  10.469   0.428  10.496 -1.2596 -1.0089  0.9206
 1008MOL0     H36015  10.410   0.507  10.042  1.3671  1.6659 -2.8557
 1008MOL0     H36016  10.425   0.655  10.136 -0.1760 -0.6439 -0.4785
 1008MOL0     H36017  10.604   0.610   9.972  1.0818  1.3625 -0.7267
 1008MOL0     H36018  10.652   0.469  10.080 -0.6812  0.2295  4.5046
 1008MOL0     H36019  10.699   0.630  10.267  0.9925 -0.1036 -0.2077
 1008MOL0     H36020  10.643   0.758  10.168  3.7992  2.3153 -0.3691
 1008MOL0     H36021  10.895   0.615  10.084 -0.4217  0.7275  0.6909
 1008MOL0     H36022  10.811   0.762  10.017 -0.8995  0.7536  0.6858
 1008MOL0     H36023  10.985   0.830  10.129  2.6548 -3.7088  0.3942
 1008MOL0     H36024  10.837   0.887  10.215  1.1873  1.1114 -0.3399
 1008MOL0     H36025  10.869   0.709  10.392  0.6288 -5.0027  0.2326
 1008MOL0     H36026  11.013   0.656  10.303 -1.4249 -0.1505 -0.7149
 1008MOL0     H36027  10.985   0.916  10.461  0.5140 -1.2333  1.0497
 1008MOL0     H36028  11.127   0.873  10.365 -0.1591 -0.0732 -2.0999
 1008MOL0     H36029  11.132   0.832  10.614  4.2561 -1.2287 -1.4117
 1008MOL0     H36030  11.010   0.703  10.586 -0.1214  1.0700 -0.2413
 1008MOL0     H36031  11.379   0.771  10.486  2.0655 -0.4031 -0.0910
 1008MOL0     H36032  11.532   0.590  10.323  1.1393 -0.2627 -0.3661
 1008MOL0     H36033  11.564   0.600  10.494 -0.6953  2.5334 -1.4499
 1008MOL0     H36034  11.647   0.377  10.452 -1.6382 -4.4370  0.9337
 1008MOL0     H36035  11.482   0.336  10.482 -0.5052  0.1377 -1.0323
 1008MOL0     H36036  11.471   0.379  10.227 -0.8266 -1.8743  1.3900
 1008MOL0     H36037  11.544   0.236  10.300 -2.4444  0.3283  1.8817
 1008MOL0     H36038  11.691   0.486  10.194  0.3374 -0.4768 -0.1569
 1008MOL0     H36039  11.656   0.338  10.101  0.5879 -2.9938 -0.0642
 1008MOL0     H36040  11.844   0.454  10.020  0.8013 -1.6430 -2.7935
 1008MOL0     H36041  12.042   0.466   9.899 -0.7442 -2.4330 -0.3132
 1008MOL0     H36042  12.401   0.222   9.703  0.3514 -0.5001 -1.3979
 1008MOL0     H36043  12.606   0.232   9.569 -0.5293 -1.2071 -0.1652
 1008MOL0     H36044  12.818   0.098   9.589  0.2555  0.0797  0.4439
 1008MOL0     H36045  12.807   0.230   9.465  3.1191  2.2020 -0.7379
 1008MOL0     H36046  13.048   0.293   9.526 -1.5899  0.0914  0.3139
 1008MOL0     H36047  13.048   0.127   9.604 -0.4262 -0.4543  0.2468
 1008MOL0     H36048  13.022   0.012   9.410 -0.8002  0.1744  1.4456
 1008MOL0     H36049  12.942   0.142   9.326  2.0704  2.1762 -1.8237
 1008MOL0     H36050  13.251   0.118   9.388 -0.5856 -0.3647 -0.0304
 1008MOL0     H36051  13.173   0.259   9.313  0.4553 -0.6577 -0.0838
 1008MOL0     H36052  13.203  -0.034   9.225 -0.0211  0.0158 -0.3885
 1008MOL0     H36053  13.300   0.101   9.167  1.8585  0.4343  1.7407
 1008MOL0     H36054  13.014   0.112   9.122  1.2941 -0.9105  3.2663
 1008MOL0     H36055  13.151   0.213   9.061 -0.7596  0.9349  3.2788
 1008MOL0     H36056  13.106  -0.090   9.031  0.4523  0.8402  2.6630
 1008MOL0     H36057  13.239  -0.017   8.954  0.1367  0.5189  0.3191
 1008MOL0     H36058  13.093  -0.043   8.773  0.1108 -0.8771  1.3600
 1008MOL0     H36059  12.955   0.029   8.870  0.8983  1.7306 -0.4841
 1008MOL0     H36060  12.844   0.343   9.897 -0.1150  1.9023 -0.6886
 1008MOL0     H36061  12.652   0.336  10.042  2.4231 -0.4422 -0.4385
 1008MOL0     H36062  12.258   0.241  10.198 -0.5030 -0.1707 -0.4930
 1008MOL0     H36063  12.038   0.203  10.315 -1.9791  0.5509  0.9129
 1008MOL0     H36064  10.192   0.506  10.188 -0.5086  1.5841 -0.8253
 1008MOL0     H36065  10.010   0.520  10.366  0.2638  0.0953 -2.2366
 1008MOL0     H36066   9.915   0.622  10.786 -0.6108  1.4297  1.3746
 1008MOL0     H36067   9.784   0.680  10.983  0.0847 -0.0047 -2.0319
 1008MOL0     H36068   9.608   0.361  11.276  0.5994 -2.3148 -1.7636
 1008MOL0     H36069   9.555   0.325  11.121 -1.9078  1.3417 -0.8327
 1008MOL0     H36070   9.428   0.535  11.309 -3.4714  0.3154  0.4915
 1008MOL0     H36071   9.372   0.380  11.268  1.3030 -0.9530  1.8882
 1008MOL0     H36072   9.327   0.431  11.028 -0.8726  1.3627 -0.1174
 1008MOL0     H36073   9.408   0.595  11.054  0.2514 -0.4956 -0.5879
 1008MOL0     H36074   9.149   0.556  11.060 -0.6889  2.0709  0.5082
 1008MOL0     H36075   9.158   0.495  11.219  0.1365  0.7521  1.1488
 1008MOL0     H36076   9.134   0.896  11.291 -0.8327  1.2670 -2.8804
 1008MOL0     H36077   9.764   0.265  11.080 -0.1215  1.2768  0.9005
 1008MOL0     H36078   9.846   0.100  10.931  1.8042 -1.7158  0.1933
 1008MOL0     H36079   9.932   0.136  10.788 -2.0567  1.3547  0.6608
 1008MOL0     H36080  10.015   0.160  10.959  1.2865  3.9328  0.1966
 1009MOL0     O36081   5.848   2.971  10.419 -0.1312 -0.2726  0.4021
 1009MOL0     C36082   5.784   2.968  10.527 -0.6282  0.6596  0.0692
 1009MOL0     O36083   5.796   2.882  10.622  0.2475 -0.5694 -0.1670
 1009MOL0     C36084   5.877   2.771  10.588 -0.1839 -0.0361 -0.5908
 1009MOL0     C36085   6.018   2.767  10.601  0.3113 -0.5929  0.4253
 1009MOL0     C36086   6.086   2.644  10.596  0.3955 -0.0376 -0.6252
 1009MOL0     C36087   6.015   2.528  10.563  0.1212  0.6731  0.0083
 1009MOL0     O36088   6.060   2.401  10.597  0.3074  0.2977  0.2584
 1009MOL0     C36089   6.045   2.376  10.736 -0.2893  0.3284  0.5512
 1009MOL0     C36090   6.147   2.287  10.804 -0.2995 -0.5812 -0.8355
 1009MOL0     C36091   6.286   2.359  10.827  0.1218  0.0128  0.1641
 1009MOL0     C36092   6.370   2.364  10.704 -0.8042  0.5916  1.0814
 1009MOL0     C36093   6.511   2.429  10.737  0.1446  0.2245 -0.2728
 1009MOL0     C36094   6.490   2.584  10.718  0.2419  0.1283 -0.4305
 1009MOL0     C36095   6.620   2.651  10.772  0.2631 -0.3126 -0.0250
 1009MOL0     C36096   6.757   2.601  10.703  0.5664  0.1595  0.5213
 1009MOL0     N36097   6.872   2.679  10.747 -0.1394 -0.9646 -0.2759
 1009MOL0     C36098   6.936   2.774  10.667 -1.6304 -0.4631  0.2617
 1009MOL0     C36099   7.052   2.818  10.727  0.6533  0.4189 -0.3795
 1009MOL0     C36100   7.151   2.924  10.676 -0.8512  0.2560 -0.7096
 1009MOL0     C36101   7.099   3.068  10.704  0.7547 -0.4854 -0.2504
 1009MOL0     C36102   7.089   3.111  10.848  0.2274  0.5689 -0.6105
 1009MOL0     C36103   7.205   3.051  10.943 -0.3860  0.8185 -0.5659
 1009MOL0     O36104   7.330   3.101  10.895 -1.0120  0.3327  0.2559
 1009MOL0     C36105   7.444   3.055  10.960 -0.5676 -0.2868  0.6513
 1009MOL0     C36106   7.452   2.925  11.012  0.7490  0.3967  0.0945
 1009MOL0     C36107   7.572   2.882  11.078 -0.9001 -0.6225 -0.6306
 1009MOL0     C36108   7.687   2.967  11.085  0.1498 -0.3260 -0.2370
 1009MOL0     C36109   7.812   2.930  11.143 -0.3306 -0.2050  0.5672
 1009MOL0     O36110   7.909   3.027  11.145 -0.3677 -0.8771  0.4999
 1009MOL0     C36111   8.041   2.993  11.179  0.2514 -0.0192 -0.4463
 1009MOL0     C36112   8.061   2.976  11.316 -0.4994 -0.6495 -1.0541
 1009MOL0     C36113   8.192   2.937  11.366  0.2759  0.4039  0.3736
 1009MOL0     C36114   8.294   2.909  11.273  0.0131 -0.5080  0.0094
 1009MOL0     O36115   8.414   2.859  11.301  0.2721 -0.2429  0.2285
 1009MOL0     C36116   8.410   2.719  11.317 -0.6833 -0.1591  0.2936
 1009MOL0     C36117   8.538   2.676  11.379  0.0802 -0.8978  0.6376
 1009MOL0     C36118   8.523   2.523  11.420  0.5465  0.2035 -0.5518
 1009MOL0     C36119   8.642   2.474  11.508 -0.2198  0.2102  0.1714
 1009MOL0     C36120   8.781   2.492  11.431 -0.2862 -0.2867  0.0433
 1009MOL0     C36121   8.795   2.430  11.292 -0.0115 -0.8681  0.0767
 1009MOL0     C36122   8.939   2.392  11.249  0.6694  0.2345 -0.0271
 1009MOL0     C36123   8.996   2.269  11.326  0.5374 -0.6667  0.4348
 1009MOL0    Cl36124   9.160   2.229  11.267 -0.1453  0.1840  0.2703
 1009MOL0     C36125   8.269   2.941  11.132 -0.1089 -0.6109 -1.3652
 1009MOL0     C36126   8.144   2.975  11.088 -1.1965 -0.0293  0.6790
 1009MOL0     O36127   7.826   2.810  11.172 -0.7801  0.3318 -0.1592
 1009MOL0     C36128   7.673   3.098  11.033 -0.2972  0.3856  0.7342
 1009MOL0     C36129   7.553   3.134  10.971 -0.4751 -0.1412 -0.1505
 1009MOL0     N36130   7.061   2.736  10.837 -0.0104  0.5716 -0.2441
 1009MOL0     N36131   6.960   2.653  10.850  0.1661  0.2552  0.7918
 1009MOL0     C36132   5.876   2.537  10.533  0.2672  0.4139  0.4166
 1009MOL0     C36133   5.812   2.660  10.547  0.0881  0.3254  0.5486
 1009MOL0     C36134   5.668   3.051  10.525 -0.5746 -0.1583 -0.1897
 1009MOL0     C36135   5.649   3.150  10.426  0.3427  1.0452 -0.1772
 1009MOL0     C36136   5.536   3.229  10.413 -0.4959  0.4773  0.7533
 1009MOL0     C36137   5.436   3.224  10.509 -1.1375 -0.1464 -0.0768
 1009MOL0     O36138   5.327   3.304  10.513  0.2113 -0.0377 -0.6355
 1009MOL0     C36139   5.305   3.405  10.415 -0.4741 -0.0659 -0.2121
 1009MOL0     C36140   5.177   3.482  10.438 -0.2919 -0.6514 -0.0054
 1009MOL0     C36141   5.057   3.388  10.423 -0.1493  0.1190 -0.1266
 1009MOL0     C36142   5.027   3.322  10.556  1.3920 -0.5162  0.4483
 1009MOL0     C36143   4.922   3.220  10.548  0.0159  0.1330  1.0435
 1009MOL0     C36144   4.839   3.130  10.539 -0.1728 -0.0164 -0.4992
 1009MOL0     C36145   5.447   3.120  10.606  0.7361 -0.7194  0.1900
 1009MOL0     C36146   5.565   3.037  10.617  0.4724  0.4329 -0.3569
 1009MOL0     C36147   5.567   2.942  10.739  0.3458  0.1602 -1.0889
 1009MOL0     H36148   6.071   2.858  10.631 -1.0164  0.6306 -0.7646
 1009MOL0     H36149   6.191   2.630  10.618 -0.5764 -4.5129  2.4163
 1009MOL0     H36150   6.044   2.473  10.787 -0.2632  0.3239  0.5610
 1009MOL0     H36151   5.948   2.331  10.757 -0.0327  0.2162  1.5370
 1009MOL0     H36152   6.161   2.194  10.748 -0.4144 -0.4537 -1.0809
 1009MOL0     H36153   6.102   2.260  10.900  2.8888 -1.2272  0.6009
 1009MOL0     H36154   6.353   2.305  10.895  2.2890  1.2546 -0.8883
 1009MOL0     H36155   6.279   2.463  10.857 -1.6377 -0.0527  0.0854
 1009MOL0     H36156   6.399   2.262  10.678 -1.3756  0.1808  2.0444
 1009MOL0     H36157   6.326   2.417  10.619 -1.0263  2.0383  2.0644
 1009MOL0     H36158   6.546   2.404  10.838 -4.5649 -0.2850  1.4988
 1009MOL0     H36159   6.577   2.399  10.656  0.3659 -1.2769  0.4265
 1009MOL0     H36160   6.453   2.599  10.616 -3.2532 -2.3994  0.2657
 1009MOL0     H36161   6.411   2.607  10.789  2.0992  0.5241  1.6090
 1009MOL0     H36162   6.627   2.649  10.881 -1.3641  3.9408  0.3237
 1009MOL0     H36163   6.605   2.758  10.760 -1.2037 -0.5904 -1.0623
 1009MOL0     H36164   6.786   2.502  10.741 -0.6240 -1.0877 -1.6048
 1009MOL0     H36165   6.758   2.602  10.594  0.7873  2.3149  0.5151
 1009MOL0     H36166   6.902   2.808  10.570 -0.7361  0.0529  0.1180
 1009MOL0     H36167   7.246   2.908  10.728 -1.5035 -1.4777  0.0364
 1009MOL0     H36168   7.169   2.911  10.569 -0.2704 -1.6667 -0.4213
 1009MOL0     H36169   7.156   3.143  10.648 -0.3869 -0.8896 -2.0389
 1009MOL0     H36170   6.995   3.065  10.669  0.9538 -1.7354 -0.8172
 1009MOL0     H36171   6.998   3.070  10.892 -1.0851  1.6403 -2.1947
 1009MOL0     H36172   7.078   3.218  10.866 -2.7174  0.4853 -1.4756
 1009MOL0     H36173   7.192   2.943  10.939  0.0064  0.6717  1.2206
 1009MOL0     H36174   7.195   3.066  11.051  0.0561 -0.7140 -0.2910
 1009MOL0     H36175   7.374   2.852  10.993 -1.0359  1.8567  1.4873
 1009MOL0     H36176   7.581   2.778  11.110 -0.5357 -0.1740  0.7933
 1009MOL0     H36177   7.983   2.974  11.392  0.1341 -3.9090 -0.3465
 1009MOL0     H36178   8.201   2.921  11.472  0.0347  1.8031  0.6254
 1009MOL0     H36179   8.324   2.684  11.373 -0.0537 -1.4029  0.5248
 1009MOL0     H36180   8.410   2.682  11.214  0.4393  3.7626 -1.2881
 1009MOL0     H36181   8.621   2.696  11.310 -0.3063  1.9793  0.9011
 1009MOL0     H36182   8.546   2.730  11.474  0.0620 -1.0639  0.7335
 1009MOL0     H36183   8.423   2.513  11.463  0.8322 -2.6716 -0.3494
 1009MOL0     H36184   8.529   2.465  11.327  1.0270 -1.2077  0.3147
 1009MOL0     H36185   8.639   2.364  11.511  0.2597  0.1793 -0.4213
 1009MOL0     H36186   8.632   2.517  11.608 -0.3235  0.2648  0.1382
 1009MOL0     H36187   8.859   2.448  11.494  0.5458  2.5251  1.1414
 1009MOL0     H36188   8.814   2.596  11.426  1.6330 -0.8670  0.1270
 1009MOL0     H36189   8.736   2.339  11.278  0.5197 -0.9039 -2.5835
 1009MOL0     H36190   8.749   2.499  11.220  1.3959 -0.0736 -0.1006
 1009MOL0     H36191   9.011   2.472  11.269  3.1008 -1.5539 -1.2048
 1009MOL0     H36192   8.939   2.359  11.145  1.5356  0.1526 -0.0063
 1009MOL0     H36193   8.994   2.272  11.436 -1.9567 -1.1181  0.4593
 1009MOL0     H36194   8.925   2.188  11.309  2.0828 -1.5369 -2.5551
 1009MOL0     H36195   8.352   2.924  11.064  1.2311 -2.4505  0.5857
 1009MOL0     H36196   8.137   2.995  10.981  1.7452 -0.4825  0.3364
 1009MOL0     H36197   7.756   3.168  11.028 -0.7531  0.8480 -0.9353
 1009MOL0     H36198   7.551   3.232  10.926 -1.9337  0.0534  0.2889
 1009MOL0     H36199   5.815   2.450  10.513 -0.1553  0.0172  3.0341
 1009MOL0     H36200   5.704   2.666  10.536 -0.0652  1.8692  2.3773
 1009MOL0     H36201   5.738   3.165  10.367  0.3670  0.0581 -0.4059
 1009MOL0     H36202   5.528   3.308  10.339  0.7958 -0.4781 -0.4608
 1009MOL0     H36203   5.299   3.372  10.311 -5.5014  2.7235 -1.1414
 1009MOL0     H36204   5.386   3.479  10.417  0.3041 -0.8782 -0.9490
 1009MOL0     H36205   5.173   3.555  10.356  1.9482 -2.3557 -1.7439
 1009MOL0     H36206   5.173   3.533  10.535 -0.3750 -2.1464  0.8112
 1009MOL0     H36207   5.080   3.310  10.349  1.7363  1.2751 -0.8385
 1009MOL0     H36208   4.970   3.440  10.382 -0.9763 -1.2429 -0.1838
 1009MOL0     H36209   5.115   3.273  10.597  1.2761 -1.5073 -0.4368
 1009MOL0     H36210   5.006   3.405  10.625  1.5930 -0.0221 -0.0750
 1009MOL0     H36211   4.748   3.074  10.535  0.9079 -2.1541  1.6863
 1009MOL0     H36212   5.378   3.132  10.688 -0.3423 -0.1655 -0.7631
 1009MOL0     H36213   5.652   2.965  10.803  0.1735 -0.6894 -0.5366
 1009MOL0     H36214   5.482   2.950  10.807  0.2825 -0.6531 -1.0550
 1009MOL0     H36215   5.571   2.838  10.705 -0.0733 -0.1578 -0.1917
 1010MOL0     O36216   0.686   7.106  10.878  0.4061 -0.5633 -0.7358
 1010MOL0     C36217   0.612   7.102  10.980 -0.0146 -0.0795 -0.2448
 1010MOL0     O36218   0.647   7.162  11.106  0.0464  0.0137 -0.2169
 1010MOL0     C36219   0.780   7.187  11.130  0.8520  1.3302  0.4374
 1010MOL0     C36220   0.874   7.076  11.130 -0.0889  0.6826  0.4052
 1010MOL0     C36221   1.008   7.094  11.158  0.4953  0.2865 -0.1193
 1010MOL0     C36222   1.050   7.215  11.201 -0.3897  0.0420 -0.3084
 1010MOL0     O36223   1.186   7.224  11.229  0.3457  0.1464 -0.6297
 1010MOL0     C36224   1.234   7.356  11.255 -0.3344  0.1671 -0.6117
 1010MOL0     C36225   1.389   7.334  11.276  0.4535  1.0190  0.3965
 1010MOL0     C36226   1.462   7.451  11.199 -0.7002 -0.7971  0.1226
 1010MOL0     C36227   1.613   7.435  11.195  0.1810  1.1283  0.3440
 1010MOL0     C36228   1.669   7.505  11.313 -0.3114  1.0995 -0.1269
 1010MOL0     C36229   1.818   7.517  11.313  0.1905 -0.3919 -0.0410
 1010MOL0     C36230   1.879   7.576  11.446 -0.2025  0.1236 -0.4962
 1010MOL0     C36231   2.020   7.516  11.466 -1.1236 -0.0658 -0.6382
 1010MOL0     N36232   2.110   7.553  11.355 -0.1996  0.2235  0.3588
 1010MOL0     C36233   2.233   7.486  11.327 -0.2214 -0.5119 -0.7096
 1010MOL0     C36234   2.278   7.550  11.219  0.1012 -0.0482 -0.7303
 1010MOL0     C36235   2.408   7.523  11.147 -0.5798  0.2729  0.1267
 1010MOL0     C36236   2.480   7.655  11.123  0.1072  0.2388 -0.3112
 1010MOL0     C36237   2.512   7.752  11.241 -0.8092 -0.6280 -0.3002
 1010MOL0     C36238   2.667   7.774  11.239  0.8519  0.4028 -0.1439
 1010MOL0     O36239   2.712   7.848  11.352 -0.0958  0.2638  0.3292
 1010MOL0     C36240   2.837   7.904  11.325 -0.1447 -0.1800 -0.4032
 1010MOL0     C36241   2.853   8.037  11.288  0.1081 -1.2433 -1.0712
 1010MOL0     C36242   2.974   8.104  11.276  0.4482  0.3126 -0.9133
 1010MOL0     C36243   3.093   8.028  11.296 -0.6048  0.8353  0.4568
 1010MOL0     C36244   3.228   8.089  11.285  0.5560 -0.9529 -0.1576
 1010MOL0     O36245   3.234   8.224  11.292  0.3046 -0.7750  0.5094
 1010MOL0     C36246   3.352   8.284  11.315 -0.2066 -0.0213  0.6182
 1010MOL0     C36247   3.390   8.314  11.440  0.4185 -0.4351 -0.1096
 1010MOL0     C36248   3.511   8.391  11.453  0.1067  0.2709 -0.2984
 1010MOL0     C36249   3.594   8.424  11.348  0.2906  0.2453  0.6805
 1010MOL0     O36250   3.719   8.480  11.356  0.3085  0.4218 -0.2691
 1010MOL0     C36251   3.722   8.597  11.436 -0.2684  0.2781  0.5461
 1010MOL0     C36252   3.775   8.705  11.345  0.1378 -0.8922  0.0309
 1010MOL0     C36253   3.798   8.840  11.415  0.2693  0.2451 -0.2503
 1010MOL0     C36254   3.922   8.917  11.364 -0.3887 -0.1255  1.0447
 1010MOL0     C36255   3.939   9.061  11.413 -0.6077 -0.6680 -0.4210
 1010MOL0     C36256   4.006   9.160  11.308  0.2384 -0.2488 -0.1231
 1010MOL0     C36257   4.043   9.287  11.372 -0.1396 -1.2450 -0.2786
 1010MOL0     C36258   4.139   9.363  11.277 -0.3855 -0.4662  0.8144
 1010MOL0    Cl36259   4.205   9.508  11.351  0.0335  0.0901 -0.2864
 1010MOL0     C36260   3.560   8.368  11.221 -0.7539  0.4250  0.6523
 1010MOL0     C36261   3.429   8.311  11.206 -0.0672  0.5592 -0.0402
 1010MOL0     O36262   3.326   8.014  11.285  0.6028 -0.3845  0.3024
 1010MOL0     C36263   3.087   7.896  11.329  0.4494 -0.6799 -0.5799
 1010MOL0     C36264   2.956   7.833  11.349 -0.7677 -0.3137  0.4857
 1010MOL0     N36265   2.194   7.654  11.183  0.3984 -0.3043 -0.1897
 1010MOL0     N36266   2.089   7.648  11.258 -0.0294 -1.1053  0.4038
 1010MOL0     C36267   0.957   7.322  11.218  0.1095 -0.7174  0.4979
 1010MOL0     C36268   0.828   7.306  11.178  0.5341  0.1166 -0.1830
 1010MOL0     C36269   0.480   7.050  10.957  0.1413  0.3801  0.0463
 1010MOL0     C36270   0.371   7.122  11.014 -0.4411 -0.8796 -1.0648
 1010MOL0     C36271   0.242   7.085  10.977 -0.1859 -0.0960  0.2564
 1010MOL0     C36272   0.214   6.979  10.885 -0.0493  0.5219  0.4098
 1010MOL0     O36273   0.087   6.945  10.839 -0.0629 -0.5288 -0.7821
 1010MOL0     C36274   0.031   7.018  10.728 -0.3137  0.1575  0.1808
 1010MOL0     C36275  -0.110   7.067  10.756 -0.2932  0.2170  0.0943
 1010MOL0     C36276  -0.221   6.959  10.763  0.5201  0.9504 -0.6360
 1010MOL0     C36277  -0.281   6.945  10.623 -0.2707 -0.1054  0.3468
 1010MOL0     C36278  -0.327   7.062  10.543  0.3932  0.4176 -0.9527
 1010MOL0     C36279  -0.380   7.156  10.489  0.6257 -0.0785  0.0081
 1010MOL0     C36280   0.319   6.906  10.840 -0.5839 -0.4711  0.7622
 1010MOL0     C36281   0.455   6.935  10.880 -0.1766  0.4968 -0.3889
 1010MOL0     C36282   0.565   6.844  10.818 -1.0131  0.6075 -0.2768
 1010MOL0     H36283   0.841   6.982  11.086  0.7450  0.2641  0.6537
 1010MOL0     H36284   1.082   7.022  11.126 -2.1180 -3.3513  1.2501
 1010MOL0     H36285   1.210   7.417  11.168 -0.5782 -1.1539 -1.5070
 1010MOL0     H36286   1.179   7.400  11.339  0.6412 -1.1056  0.7551
 1010MOL0     H36287   1.407   7.233  11.239 -1.0113  0.7055  0.4736
 1010MOL0     H36288   1.410   7.336  11.383 -0.7478 -0.5273  0.7071
 1010MOL0     H36289   1.430   7.543  11.249  1.6311 -0.9345  2.0517
 1010MOL0     H36290   1.416   7.446  11.100  1.3102 -2.9198 -0.7826
 1010MOL0     H36291   1.635   7.328  11.197 -1.6969  0.6343 -1.8166
 1010MOL0     H36292   1.651   7.475  11.101  3.5581 -1.0722  0.5932
 1010MOL0     H36293   1.626   7.605  11.319  0.8103  1.5602  0.5768
 1010MOL0     H36294   1.642   7.460  11.409 -1.2677  2.9972  0.5368
 1010MOL0     H36295   1.866   7.418  11.314  1.0980  0.0336  1.7398
 1010MOL0     H36296   1.846   7.584  11.231 -1.6610  1.3745  0.6753
 1010MOL0     H36297   1.816   7.545  11.530 -0.1605  1.3684  0.0230
 1010MOL0     H36298   1.877   7.685  11.429 -1.5853  0.0731 -0.7927
 1010MOL0     H36299   2.063   7.565  11.554  1.4317 -1.5708 -0.9492
 1010MOL0     H36300   2.025   7.409  11.487  0.1577  0.0750 -0.1238
 1010MOL0     H36301   2.279   7.399  11.372 -1.5638 -2.1160 -2.2587
 1010MOL0     H36302   2.461   7.460  11.220 -0.6985 -1.1818 -0.9864
 1010MOL0     H36303   2.399   7.478  11.048 -0.6731  0.2737  0.1355
 1010MOL0     H36304   2.575   7.619  11.081  2.5164  0.1366  4.5336
 1010MOL0     H36305   2.425   7.715  11.050 -2.1212  1.2134  2.0432
 1010MOL0     H36306   2.472   7.711  11.334 -1.5574 -1.6467 -1.0485
 1010MOL0     H36307   2.466   7.850  11.226  0.5600  0.5617  2.4235
 1010MOL0     H36308   2.689   7.822  11.143  0.0341 -0.0492 -0.5697
 1010MOL0     H36309   2.713   7.675  11.233  0.6632  0.3732 -1.5745
 1010MOL0     H36310   2.768   8.101  11.267 -2.3333 -2.7236  3.0929
 1010MOL0     H36311   2.973   8.210  11.253  0.3378  0.3012 -0.9588
 1010MOL0     H36312   3.330   8.286  11.526 -1.6936  0.0177 -1.3589
 1010MOL0     H36313   3.527   8.418  11.557 -0.1881 -1.8140  0.3247
 1010MOL0     H36314   3.621   8.621  11.470 -2.3735 -5.2750 -0.6989
 1010MOL0     H36315   3.790   8.572  11.517 -1.6449 -0.3364  1.5560
 1010MOL0     H36316   3.866   8.671  11.294 -0.3310 -0.3026 -1.2575
 1010MOL0     H36317   3.705   8.713  11.261 -1.2740 -1.6003  1.0962
 1010MOL0     H36318   3.710   8.904  11.403  0.5935  0.8097  0.3463
 1010MOL0     H36319   3.807   8.831  11.524 -2.1700  0.2796  0.0212
 1010MOL0     H36320   3.907   8.928  11.256  1.0611  1.6450  0.9796
 1010MOL0     H36321   4.011   8.853  11.378 -1.0705 -1.2958  0.2120
 1010MOL0     H36322   4.002   9.064  11.502  0.1594  2.3806 -0.9563
 1010MOL0     H36323   3.842   9.105  11.442  0.7374  3.9981 -2.0325
 1010MOL0     H36324   4.095   9.107  11.271 -1.8005 -3.0357 -1.4348
 1010MOL0     H36325   3.936   9.172  11.225  1.4403 -0.7193 -1.2508
 1010MOL0     H36326   4.098   9.272  11.465 -1.9104  1.2061  1.3064
 1010MOL0     H36327   3.951   9.342  11.397  1.1847  0.7250  0.5109
 1010MOL0     H36328   4.215   9.291  11.245 -3.0572 -2.2488 -2.1147
 1010MOL0     H36329   4.088   9.402  11.189  1.6820  0.4116 -0.0582
 1010MOL0     H36330   3.614   8.391  11.130 -1.0342  0.8947  0.6026
 1010MOL0     H36331   3.396   8.288  11.105 -0.1027 -1.1604  0.3263
 1010MOL0     H36332   3.173   7.838  11.360  0.5182  1.0167  2.9424
 1010MOL0     H36333   2.958   7.730  11.381  1.1653 -1.1884 -2.0637
 1010MOL0     H36334   0.981   7.422  11.251  0.8841 -0.0024 -1.9897
 1010MOL0     H36335   0.752   7.383  11.174  0.7226  0.3845 -5.2605
 1010MOL0     H36336   0.381   7.211  11.075 -1.5293 -1.4082 -0.0712
 1010MOL0     H36337   0.152   7.136  11.009 -0.5754 -0.4157 -0.3120
 1010MOL0     H36338   0.025   6.953  10.641  0.5261  0.7632 -0.3485
 1010MOL0     H36339   0.091   7.107  10.705  2.5484 -1.7706 -0.3727
 1010MOL0     H36340  -0.137   7.149  10.690  0.5431  1.5453  1.3423
 1010MOL0     H36341  -0.104   7.108  10.858 -2.3300 -2.9348  1.6603
 1010MOL0     H36342  -0.304   6.993  10.826 -1.0799  1.5622 -2.9364
 1010MOL0     H36343  -0.182   6.861  10.790 -1.1838  0.2606 -0.5878
 1010MOL0     H36344  -0.202   6.896  10.567  0.6673  0.3851  1.1904
 1010MOL0     H36345  -0.360   6.870  10.621  0.1099 -0.4951 -0.3186
 1010MOL0     H36346  -0.428   7.244  10.450 -0.4219 -0.9200 -0.6558
 1010MOL0     H36347   0.290   6.820  10.780  2.4490 -1.0798  0.0241
 1010MOL0     H36348   0.617   6.913  10.751 -0.9864  3.3326  2.3801
 1010MOL0     H36349   0.636   6.802  10.890  0.4935  0.8452 -1.5554
 1010MOL0     H36350   0.531   6.757  10.760 -2.6287  0.7418  0.4366
 1011MOL0     O36351   0.487   5.609   3.040 -0.7855 -0.0187 -0.0059
 1011MOL0     C36352   0.495   5.730   3.024 -0.3251  0.1914  0.1383
 1011MOL0     O36353   0.607   5.807   3.036 -0.1301  0.3067  0.4954
 1011MOL0     C36354   0.738   5.755   3.024 -0.2233  0.4885 -0.4540
 1011MOL0     C36355   0.769   5.623   2.997 -0.4782 -0.0799  0.0528
 1011MOL0     C36356   0.903   5.587   2.979  0.0820  0.2315 -0.7587
 1011MOL0     C36357   1.007   5.674   2.991 -0.6003 -0.1461 -0.4431
 1011MOL0     O36358   1.138   5.649   2.973 -0.6884  0.2102  0.1100
 1011MOL0     C36359   1.190   5.524   2.938 -0.0304 -1.1740 -0.1167
 1011MOL0     C36360   1.340   5.551   2.948 -0.3693  0.6764  0.1691
 1011MOL0     C36361   1.381   5.530   3.092 -0.0117  0.8146 -1.2841
 1011MOL0     C36362   1.533   5.534   3.100  0.1486  0.6911  0.0851
 1011MOL0     C36363   1.594   5.519   3.233 -0.3160  0.4555 -0.1823
 1011MOL0     C36364   1.730   5.586   3.234  0.4889 -0.2318 -0.3283
 1011MOL0     C36365   1.787   5.587   3.379 -0.8321 -0.3614 -0.2500
 1011MOL0     C36366   1.920   5.660   3.387 -0.1204  0.3899 -0.7887
 1011MOL0     N36367   2.032   5.575   3.370 -0.5123  0.3591  0.5352
 1011MOL0     C36368   2.109   5.562   3.264  0.9579  0.6531  0.3456
 1011MOL0     C36369   2.198   5.472   3.297  0.1451 -0.9284 -0.1717
 1011MOL0     C36370   2.294   5.407   3.197  0.9016 -0.9693 -0.2199
 1011MOL0     C36371   2.432   5.411   3.255 -0.6210 -0.4644  0.0023
 1011MOL0     C36372   2.538   5.339   3.171 -0.3808 -0.2956  0.0275
 1011MOL0     C36373   2.669   5.342   3.250 -0.7305  0.1369 -0.0082
 1011MOL0     O36374   2.711   5.479   3.254 -1.1174 -0.0891 -0.2644
 1011MOL0     C36375   2.823   5.524   3.186 -0.8104  0.9904 -0.3873
 1011MOL0     C36376   2.872   5.462   3.071 -0.0398  0.3986 -0.4563
 1011MOL0     C36377   2.982   5.512   3.008 -0.2565  0.9887  0.5423
 1011MOL0     C36378   3.056   5.622   3.066  0.2691 -0.1353 -0.4810
 1011MOL0     C36379   3.181   5.664   2.997 -0.5939 -0.5679 -0.2463
 1011MOL0     O36380   3.271   5.734   3.068 -0.2716  0.0444  0.0135
 1011MOL0     C36381   3.401   5.744   3.024  0.6941  0.0136 -0.0384
 1011MOL0     C36382   3.475   5.792   3.125 -0.3068 -0.5220 -0.3761
 1011MOL0     C36383   3.609   5.807   3.109  0.3893 -0.3950 -0.9745
 1011MOL0     C36384   3.668   5.782   2.988 -0.2582  0.1501  0.3600
 1011MOL0     O36385   3.799   5.813   2.985 -0.7234 -0.1003 -0.1764
 1011MOL0     C36386   3.893   5.748   2.885  0.1052  0.2388 -1.2763
 1011MOL0     C36387   4.033   5.784   2.904 -0.8790 -0.4685 -0.4966
 1011MOL0     C36388   4.046   5.936   2.854  0.9459 -0.2449  0.4202
 1011MOL0     C36389   4.181   5.982   2.893  0.5749  0.3930  0.1513
 1011MOL0     C36390   4.276   5.926   2.800 -0.9499 -0.9676 -0.0058
 1011MOL0     C36391   4.418   5.982   2.839  0.3609  0.0918 -0.3155
 1011MOL0     C36392   4.532   5.929   2.760 -0.0696  0.4384 -0.7563
 1011MOL0     C36393   4.572   5.785   2.782 -0.3175 -0.1219 -0.0781
 1011MOL0    Cl36394   4.521   5.707   2.943 -0.1184 -0.1454  0.1563
 1011MOL0     C36395   3.595   5.749   2.874  0.1097  0.9938 -0.1548
 1011MOL0     C36396   3.454   5.739   2.897 -0.1651  0.5831 -0.7770
 1011MOL0     O36397   3.196   5.611   2.888 -0.2816  0.2369 -0.8080
 1011MOL0     C36398   3.000   5.680   3.181  0.0983 -0.2513 -0.4487
 1011MOL0     C36399   2.883   5.637   3.236  0.0904  0.2336 -0.9649
 1011MOL0     N36400   2.190   5.433   3.431  0.5450 -0.0969  0.2606
 1011MOL0     N36401   2.078   5.490   3.467 -0.2696 -1.0025 -0.4427
 1011MOL0     C36402   0.974   5.806   3.027 -0.2471  0.3395 -0.3430
 1011MOL0     C36403   0.848   5.848   3.045  0.1492 -0.2628 -0.3691
 1011MOL0     C36404   0.370   5.795   2.984 -0.3299  0.3724 -0.8988
 1011MOL0     C36405   0.367   5.873   2.871 -0.2948 -1.0428 -0.4579
 1011MOL0     C36406   0.241   5.922   2.822 -0.6152  0.0623  0.0391
 1011MOL0     C36407   0.124   5.903   2.895 -0.8024  0.2191  0.3117
 1011MOL0     O36408  -0.002   5.955   2.876  0.4130 -0.3185  0.5479
 1011MOL0     C36409  -0.015   6.055   2.766  0.1592  0.0940  0.6744
 1011MOL0     C36410   0.008   6.192   2.818  0.4933 -0.6326  0.5990
 1011MOL0     C36411  -0.013   6.287   2.694  0.4900  0.3652  0.5611
 1011MOL0     C36412  -0.008   6.433   2.738 -0.0499 -0.8638 -0.4417
 1011MOL0     C36413  -0.019   6.501   2.606 -0.0878  0.6066  0.0354
 1011MOL0     C36414  -0.032   6.539   2.490  1.1579 -0.0586  0.5409
 1011MOL0     C36415   0.135   5.834   3.022  0.1947 -0.5034 -0.0389
 1011MOL0     C36416   0.252   5.781   3.065  0.0132 -0.3627  0.2910
 1011MOL0     C36417   0.252   5.704   3.199  0.1045 -0.6724 -0.0662
 1011MOL0     H36418   0.699   5.541   2.984  1.2465 -3.4108  7.0301
 1011MOL0     H36419   0.914   5.479   2.972 -2.8062 -0.2240  0.3809
 1011MOL0     H36420   1.170   5.452   3.018 -2.1030  0.2533  0.7301
 1011MOL0     H36421   1.150   5.499   2.839  0.2976  1.4568 -0.9862
 1011MOL0     H36422   1.363   5.653   2.914 -0.6301  0.2531 -1.3591
 1011MOL0     H36423   1.397   5.482   2.886 -0.5956  0.7479 -0.1195
 1011MOL0     H36424   1.346   5.438   3.140  0.0322  1.3934 -0.0878
 1011MOL0     H36425   1.346   5.622   3.141 -0.1803  0.3103 -0.4332
 1011MOL0     H36426   1.576   5.448   3.047 -1.7953 -0.1684 -0.1842
 1011MOL0     H36427   1.563   5.628   3.054 -2.9067  1.7417  0.0388
 1011MOL0     H36428   1.523   5.560   3.306  0.8528 -2.4028  2.7956
 1011MOL0     H36429   1.615   5.416   3.263 -1.3922  0.1510 -0.4123
 1011MOL0     H36430   1.795   5.526   3.170  0.1033 -1.8539  0.7505
 1011MOL0     H36431   1.715   5.684   3.186 -0.0421 -0.2354 -0.1808
 1011MOL0     H36432   1.802   5.482   3.408  0.6970 -0.3862 -1.0350
 1011MOL0     H36433   1.725   5.632   3.457  2.7332  0.8198  2.1552
 1011MOL0     H36434   1.929   5.743   3.316 -1.9282  1.1691 -0.1827
 1011MOL0     H36435   1.924   5.697   3.490  0.8998 -2.5932  0.3457
 1011MOL0     H36436   2.104   5.607   3.166 -1.6650 -0.9848 -0.3972
 1011MOL0     H36437   2.267   5.304   3.171  2.2849 -1.2865 -0.4741
 1011MOL0     H36438   2.297   5.467   3.106 -0.0919  1.9962  1.5754
 1011MOL0     H36439   2.453   5.519   3.259  0.7403 -0.7524  2.3413
 1011MOL0     H36440   2.435   5.368   3.355  0.7226 -1.5203 -0.4691
 1011MOL0     H36441   2.530   5.388   3.073 -3.7650  1.1527  0.8716
 1011MOL0     H36442   2.516   5.234   3.151  1.3698 -0.0829 -4.1395
 1011MOL0     H36443   2.741   5.286   3.190  0.9130  0.1146  1.8783
 1011MOL0     H36444   2.658   5.303   3.352  0.6318 -0.6641 -0.1557
 1011MOL0     H36445   2.816   5.377   3.034 -1.0935  1.4055 -1.2569
 1011MOL0     H36446   3.006   5.454   2.920 -3.7898  3.2889 -2.2650
 1011MOL0     H36447   3.432   5.815   3.222 -3.9262 -1.3805 -1.6575
 1011MOL0     H36448   3.667   5.842   3.194 -0.4784  1.7433 -1.2031
 1011MOL0     H36449   3.887   5.639   2.886 -0.0037  0.2311 -2.0441
 1011MOL0     H36450   3.871   5.777   2.781  0.4598 -0.1868 -1.4749
 1011MOL0     H36451   4.049   5.775   3.011  1.0924  0.1635 -0.7036
 1011MOL0     H36452   4.102   5.713   2.857  0.4269  0.1758  0.3888
 1011MOL0     H36453   4.029   5.949   2.747 -1.4201 -1.8446  0.5264
 1011MOL0     H36454   3.961   5.986   2.901  0.6005 -1.0503  0.6841
 1011MOL0     H36455   4.212   5.948   2.992 -0.6146  0.8296  0.6939
 1011MOL0     H36456   4.184   6.088   2.866  1.5239  0.4058  0.2909
 1011MOL0     H36457   4.248   5.956   2.698 -0.9982 -2.2570 -0.3931
 1011MOL0     H36458   4.270   5.816   2.804 -2.3158 -0.9314 -0.4463
 1011MOL0     H36459   4.413   6.091   2.831  1.0834  0.1692  0.2361
 1011MOL0     H36460   4.437   5.956   2.943  0.9813  1.3909 -0.0889
 1011MOL0     H36461   4.618   5.982   2.802 -0.4382 -1.6293  3.0142
 1011MOL0     H36462   4.511   5.954   2.655 -1.4039  1.2561 -0.3152
 1011MOL0     H36463   4.520   5.724   2.707 -0.6964  1.1955 -0.9312
 1011MOL0     H36464   4.677   5.776   2.754 -0.7947 -0.1738 -2.0056
 1011MOL0     H36465   3.647   5.737   2.780  0.1978 -3.3269  0.2517
 1011MOL0     H36466   3.397   5.709   2.810 -2.0997 -1.4210  1.0659
 1011MOL0     H36467   3.039   5.775   3.215 -0.6665  0.8540 -2.4654
 1011MOL0     H36468   2.835   5.672   3.327  0.0519 -0.4472 -0.7160
 1011MOL0     H36469   1.059   5.867   3.056  1.4989 -1.9028 -0.4336
 1011MOL0     H36470   0.828   5.951   3.073  0.9536 -0.6136  1.6503
 1011MOL0     H36471   0.459   5.896   2.818 -1.2845  1.2390 -1.3019
 1011MOL0     H36472   0.236   5.979   2.730  2.0628 -1.0880 -0.9440
 1011MOL0     H36473  -0.119   6.039   2.735  0.1347  0.0774  0.7657
 1011MOL0     H36474   0.054   6.040   2.683  4.4137  5.5248  2.6313
 1011MOL0     H36475   0.109   6.210   2.857  1.2118 -1.2116 -0.9031
 1011MOL0     H36476  -0.064   6.205   2.899 -0.7406 -1.6748 -0.2891
 1011MOL0     H36477  -0.112   6.273   2.650 -0.4737  3.4207  1.5873
 1011MOL0     H36478   0.058   6.260   2.615  0.6543  1.7206  0.2210
 1011MOL0     H36479  -0.087   6.476   2.800 -1.1505  1.8575 -3.3875
 1011MOL0     H36480   0.089   6.454   2.784 -0.4169 -2.1280  0.9511
 1011MOL0     H36481  -0.063   6.577   2.395 -1.8399  0.9593  1.7848
 1011MOL0     H36482   0.050   5.836   3.088 -0.0474 -0.1132 -0.3590
 1011MOL0     H36483   0.156   5.697   3.252  0.9268 -2.0286  1.3290
 1011MOL0     H36484   0.282   5.601   3.181 -0.9679 -0.7760 -1.3880
 1011MOL0     H36485   0.327   5.746   3.268 -1.8907 -0.9484  2.4583
 1012MOL0     O36486  10.523   0.518   1.065  0.4106  0.4164 -0.0338
 1012MOL0     C36487  10.494   0.411   1.007  1.1834 -0.2673  0.3854
 1012MOL0     O36488  10.589   0.329   0.945  0.6536  0.8410  0.3346
 1012MOL0     C36489  10.716   0.373   0.932 -0.2480  0.0898  1.2835
 1012MOL0     C36490  10.745   0.464   0.832 -0.7475 -0.7816  0.2731
 1012MOL0     C36491  10.879   0.511   0.817 -0.1849 -0.9804  0.0337
 1012MOL0     C36492  10.984   0.459   0.891 -0.5516  0.1771  0.4722
 1012MOL0     O36493  11.110   0.509   0.874 -0.5957 -0.0970  0.4834
 1012MOL0     C36494  11.216   0.407   0.869  0.0992 -1.0243 -0.3254
 1012MOL0     C36495  11.313   0.410   0.985  0.7691  0.0538 -0.2192
 1012MOL0     C36496  11.425   0.521   0.968  0.4487 -0.9236 -1.0965
 1012MOL0     C36497  11.556   0.472   1.022  0.5461 -0.8718  0.6460
 1012MOL0     C36498  11.667   0.587   1.025 -0.1195 -0.3099  0.4637
 1012MOL0     C36499  11.799   0.540   1.089 -0.3284  0.1888 -0.2147
 1012MOL0     C36500  11.887   0.659   1.131 -0.4852 -0.1224 -0.2067
 1012MOL0     C36501  12.016   0.594   1.195 -0.4563  0.0491 -0.9741
 1012MOL0     N36502  12.116   0.703   1.201 -0.7982  0.2635  0.5697
 1012MOL0     C36503  12.233   0.690   1.124  0.1988 -0.0603  0.0820
 1012MOL0     C36504  12.308   0.801   1.151  0.0696 -0.1643 -0.7321
 1012MOL0     C36505  12.431   0.856   1.105 -0.0608 -0.0804 -0.1298
 1012MOL0     C36506  12.544   0.749   1.072  0.1301 -0.2341  0.0598
 1012MOL0     C36507  12.654   0.725   1.176  0.0421 -0.6017  1.3854
 1012MOL0     C36508  12.723   0.842   1.224 -0.2796 -0.5369  0.6075
 1012MOL0     O36509  12.844   0.802   1.288  0.6337  0.4262 -0.6631
 1012MOL0     C36510  12.958   0.859   1.241 -0.1390 -0.0189 -0.6441
 1012MOL0     C36511  13.064   0.775   1.223 -0.6267 -0.5192  0.7380
 1012MOL0     C36512  13.187   0.825   1.186 -0.0277 -0.1408 -0.3049
 1012MOL0     C36513  13.211   0.967   1.165  0.3861  0.6537 -0.2484
 1012MOL0     C36514  13.337   1.012   1.126 -0.9464 -0.5150  0.6340
 1012MOL0     O36515  13.439   0.926   1.114  0.0067 -0.2115 -0.5191
 1012MOL0     C36516  13.567   0.966   1.092 -0.6581 -1.2319  0.7611
 1012MOL0     C36517  13.658   0.939   1.190 -1.0892  0.7537  0.0451
 1012MOL0     C36518  13.791   0.982   1.173 -0.0023  0.0820  0.2048
 1012MOL0     C36519  13.838   1.060   1.061 -0.6353  0.8095 -0.7852
 1012MOL0     O36520  13.964   1.104   1.065  0.2424 -0.4711  0.3942
 1012MOL0     C36521  14.010   1.169   0.946  0.5160  0.6037 -0.1237
 1012MOL0     C36522  14.158   1.215   0.981 -0.4454 -0.1835  0.0082
 1012MOL0     C36523  14.209   1.292   0.860 -0.1308  0.4010  0.8942
 1012MOL0     C36524  14.318   1.393   0.899 -0.9589  0.0032 -0.4068
 1012MOL0     C36525  14.378   1.451   0.767 -0.0103  0.6161 -1.1745
 1012MOL0     C36526  14.502   1.530   0.799 -0.2580 -0.3849 -0.7701
 1012MOL0     C36527  14.612   1.543   0.692  0.4114  0.5807 -0.0011
 1012MOL0     C36528  14.751   1.577   0.760 -0.0305  0.0290  0.5799
 1012MOL0    Cl36529  14.870   1.509   0.647 -0.3261 -0.4345  0.1076
 1012MOL0     C36530  13.738   1.082   0.963  0.7084 -0.2158 -0.1499
 1012MOL0     C36531  13.607   1.033   0.971 -0.0336  0.3661 -0.8754
 1012MOL0     O36532  13.362   1.139   1.122  0.6747  0.1688 -0.2569
 1012MOL0     C36533  13.100   1.051   1.185  0.0826 -0.4581  0.4367
 1012MOL0     C36534  12.971   1.001   1.222 -0.3082 -0.1577 -0.2394
 1012MOL0     N36535  12.231   0.874   1.245  0.0331  0.2995  0.4455
 1012MOL0     N36536  12.128   0.810   1.285  0.6077 -0.2799  0.8553
 1012MOL0     C36537  10.953   0.368   0.988 -0.6213  1.2514 -0.5236
 1012MOL0     C36538  10.826   0.322   1.005  0.6738 -0.0801 -0.8749
 1012MOL0     C36539  10.358   0.356   1.023 -0.1608 -1.0190  0.1254
 1012MOL0     C36540  10.322   0.237   0.970  0.0085  0.2543 -0.5642
 1012MOL0     C36541  10.195   0.186   0.978 -0.4191  0.2647  0.0248
 1012MOL0     C36542  10.097   0.242   1.062  0.3757  0.4374  0.2780
 1012MOL0     O36543   9.972   0.184   1.084 -0.3674  0.3608 -0.2917
 1012MOL0     C36544   9.932   0.075   1.005  0.2903 -0.0356 -0.4731
 1012MOL0     C36545   9.786   0.036   1.032  0.4794  0.6098 -0.2233
 1012MOL0     C36546   9.743  -0.101   0.956 -0.7314 -0.1931 -0.5205
 1012MOL0     C36547   9.600  -0.138   0.948  0.0268  0.6944  0.3302
 1012MOL0     C36548   9.552  -0.159   1.089 -0.2038 -0.6184  0.1597
 1012MOL0     C36549   9.509  -0.172   1.194  0.6718  0.3122 -0.3304
 1012MOL0     C36550  10.134   0.364   1.118  0.3339  0.3682  0.7497
 1012MOL0     C36551  10.255   0.430   1.091  0.4050  1.1389  0.5068
 1012MOL0     C36552  10.269   0.567   1.142  0.7910  0.3535 -0.7666
 1012MOL0     H36553  10.670   0.507   0.766 -1.0436  0.5740  1.4520
 1012MOL0     H36554  10.898   0.580   0.735 -0.1944 -1.5819 -0.4815
 1012MOL0     H36555  11.174   0.306   0.871 -2.2495 -0.1159 -0.3155
 1012MOL0     H36556  11.266   0.419   0.772  0.4296 -3.0867 -0.4625
 1012MOL0     H36557  11.356   0.309   0.985 -2.9720 -1.7394  1.0753
 1012MOL0     H36558  11.243   0.423   1.068 -2.6443 -0.2113 -2.8704
 1012MOL0     H36559  11.395   0.612   1.020  0.9656 -1.7555  0.7077
 1012MOL0     H36560  11.437   0.573   0.872 -1.9743  4.1605  0.9677
 1012MOL0     H36561  11.537   0.430   1.121 -0.4290 -1.8202  0.0808
 1012MOL0     H36562  11.592   0.389   0.961  0.6611 -0.4216  0.0909
 1012MOL0     H36563  11.689   0.625   0.924  0.0936  1.2736  1.0836
 1012MOL0     H36564  11.641   0.673   1.087 -0.3026 -1.2199  1.6810
 1012MOL0     H36565  11.780   0.488   1.183  0.3048  4.3196  2.4970
 1012MOL0     H36566  11.841   0.464   1.023 -3.5324 -0.9618 -1.1553
 1012MOL0     H36567  11.839   0.721   1.207  1.3129 -0.7144  1.4865
 1012MOL0     H36568  11.916   0.719   1.044  1.1846 -1.3332 -0.5229
 1012MOL0     H36569  11.996   0.564   1.298  0.4032  1.5271 -0.3370
 1012MOL0     H36570  12.046   0.508   1.135 -0.9467 -0.4026 -0.5818
 1012MOL0     H36571  12.262   0.606   1.063 -2.4121  0.0018 -1.3544
 1012MOL0     H36572  12.417   0.928   1.023 -2.1242 -1.7870 -1.3922
 1012MOL0     H36573  12.474   0.912   1.189  0.3917 -1.0306  0.2822
 1012MOL0     H36574  12.502   0.650   1.055  1.8547 -0.7860 -1.2667
 1012MOL0     H36575  12.587   0.775   0.975 -2.4737 -0.5910 -1.2757
 1012MOL0     H36576  12.729   0.662   1.129 -1.7069 -0.8274 -1.2743
 1012MOL0     H36577  12.610   0.670   1.260 -1.5400  3.0064  3.1598
 1012MOL0     H36578  12.653   0.899   1.286 -2.9316 -1.4019 -1.4299
 1012MOL0     H36579  12.748   0.901   1.136 -1.4971  2.0973  1.9150
 1012MOL0     H36580  13.051   0.670   1.249 -0.6911 -0.2958  1.6367
 1012MOL0     H36581  13.275   0.762   1.175 -0.4250 -0.4226 -2.4009
 1012MOL0     H36582  13.623   0.892   1.281  0.7496  1.6848  1.2953
 1012MOL0     H36583  13.850   0.950   1.258 -0.9797 -2.6931 -0.0480
 1012MOL0     H36584  14.016   1.088   0.873  0.7410 -0.9073  1.4850
 1012MOL0     H36585  13.943   1.251   0.920  0.0097  1.0423  2.3081
 1012MOL0     H36586  14.161   1.278   1.071  1.0510 -0.1791 -0.0241
 1012MOL0     H36587  14.228   1.133   0.996  2.4618  1.9520 -1.0434
 1012MOL0     H36588  14.244   1.215   0.791 -1.6352 -2.1822  2.8428
 1012MOL0     H36589  14.126   1.344   0.811  0.5865 -0.5284 -1.4349
 1012MOL0     H36590  14.390   1.333   0.955 -0.9310  0.3226 -0.0983
 1012MOL0     H36591  14.281   1.465   0.973 -1.3807 -0.7683  0.1588
 1012MOL0     H36592  14.301   1.504   0.711 -3.2822 -3.1063 -0.6294
 1012MOL0     H36593  14.411   1.355   0.725 -0.8846 -1.0803  1.7247
 1012MOL0     H36594  14.474   1.633   0.822 -0.1691 -0.7678  1.1777
 1012MOL0     H36595  14.551   1.480   0.882 -2.2376 -0.4710  0.4036
 1012MOL0     H36596  14.581   1.617   0.617 -1.8849 -0.7467 -0.4866
 1012MOL0     H36597  14.618   1.443   0.649 -0.3673  0.5020  0.0618
 1012MOL0     H36598  14.757   1.686   0.769 -0.1431  0.2591 -1.4989
 1012MOL0     H36599  14.764   1.531   0.858 -2.8403 -3.2474 -0.3835
 1012MOL0     H36600  13.764   1.139   0.875  1.7986  1.5350  1.2475
 1012MOL0     H36601  13.526   1.059   0.904 -1.5841  0.5761  0.9870
 1012MOL0     H36602  13.129   1.156   1.189  0.2840 -0.4822 -0.2000
 1012MOL0     H36603  12.890   1.074   1.228  0.4308  0.7948 -1.4389
 1012MOL0     H36604  11.034   0.317   1.039 -2.5564 -0.5014  0.9646
 1012MOL0     H36605  10.809   0.242   1.076  2.4875  0.3648  0.1171
 1012MOL0     H36606  10.398   0.174   0.924  0.5716  0.9436 -0.5796
 1012MOL0     H36607  10.170   0.100   0.917 -1.8674  0.8199 -0.1960
 1012MOL0     H36608  10.002  -0.006   1.026 -0.3861 -0.2104  1.3313
 1012MOL0     H36609   9.934   0.098   0.898  0.0652 -1.4932 -0.8069
 1012MOL0     H36610   9.712   0.116   1.024  0.4139  0.5735  0.0081
 1012MOL0     H36611   9.782  -0.002   1.134  0.6330 -1.0789 -0.8065
 1012MOL0     H36612   9.799  -0.185   0.997  2.1960  1.6702 -0.4191
 1012MOL0     H36613   9.772  -0.084   0.852 -1.8322  1.5204 -0.6038
 1012MOL0     H36614   9.543  -0.056   0.903 -3.5138 -1.1788  1.0244
 1012MOL0     H36615   9.582  -0.232   0.895  4.1815 -1.1775  1.7552
 1012MOL0     H36616   9.449  -0.185   1.282  0.7145 -2.0487 -0.5677
 1012MOL0     H36617  10.068   0.418   1.186  1.3383 -0.5151  2.4946
 1012MOL0     H36618  10.170   0.608   1.165  0.5122 -0.4730 -0.4652
 1012MOL0     H36619  10.330   0.551   1.231 -1.5353 -0.2060  0.8441
 1012MOL0     H36620  10.322   0.646   1.087 -0.0732  0.5819 -1.2930
 1013MOL0     O36621   4.578   7.222   5.008 -0.6058  0.3295  0.4159
 1013MOL0     C36622   4.505   7.141   5.065 -0.5767 -0.2987  0.0693
 1013MOL0     O36623   4.549   7.056   5.162  0.1763  0.1414 -0.0545
 1013MOL0     C36624   4.684   7.037   5.163 -0.6982  0.4370  0.2096
 1013MOL0     C36625   4.752   6.977   5.057  0.3922 -0.0398  0.8811
 1013MOL0     C36626   4.887   6.949   5.069  0.5583  0.1892  1.1454
 1013MOL0     C36627   4.958   6.990   5.179  0.1853 -0.3040 -0.7644
 1013MOL0     O36628   5.093   6.970   5.176 -0.3620 -0.0620  0.7191
 1013MOL0     C36629   5.167   7.088   5.162 -0.0443  0.0108 -0.7024
 1013MOL0     C36630   5.302   7.080   5.088 -0.4344  0.9471 -0.1462
 1013MOL0     C36631   5.408   6.993   5.158 -0.4771 -0.0066  0.0116
 1013MOL0     C36632   5.548   7.015   5.105 -0.6798  0.4247  0.7348
 1013MOL0     C36633   5.652   6.966   5.204 -0.4087 -0.0328  0.4643
 1013MOL0     C36634   5.797   7.008   5.177  0.1554  0.2578  0.0789
 1013MOL0     C36635   5.851   6.972   5.035  0.9465  0.9511 -0.5804
 1013MOL0     C36636   5.977   7.050   4.997 -0.2675 -0.2434  0.1014
 1013MOL0     N36637   6.018   7.000   4.860  0.5229 -0.2218 -0.0960
 1013MOL0     C36638   5.961   7.057   4.745  0.3482 -0.0414 -0.0232
 1013MOL0     C36639   6.027   6.997   4.645  0.5510  0.2305  0.0804
 1013MOL0     C36640   5.987   7.022   4.499 -0.2397  0.2359 -0.1563
 1013MOL0     C36641   5.950   7.168   4.461 -0.7429  0.1272  0.3175
 1013MOL0     C36642   5.910   7.194   4.320  0.4541 -0.3874  0.0380
 1013MOL0     C36643   6.024   7.185   4.213  0.4749  0.6393  0.0912
 1013MOL0     O36644   5.980   7.219   4.082  0.4607 -0.2673  0.4461
 1013MOL0     C36645   6.073   7.231   3.975 -1.0942  0.0843  0.3147
 1013MOL0     C36646   6.077   7.342   3.896 -0.5721 -0.8883  0.2454
 1013MOL0     C36647   6.177   7.358   3.797 -0.0443 -0.8047 -0.6171
 1013MOL0     C36648   6.281   7.272   3.785 -0.3305 -0.2301  0.2497
 1013MOL0     C36649   6.382   7.292   3.680 -0.0384  0.0283 -0.8000
 1013MOL0     O36650   6.447   7.182   3.644  0.0590 -0.4422 -0.5936
 1013MOL0     C36651   6.547   7.160   3.548 -0.2036 -1.0567 -0.3641
 1013MOL0     C36652   6.577   7.026   3.504 -0.7511 -0.3826 -0.6689
 1013MOL0     C36653   6.665   7.010   3.398 -0.3622  0.9609 -0.5945
 1013MOL0     C36654   6.725   7.113   3.335 -0.1900 -0.4084  0.5336
 1013MOL0     O36655   6.818   7.107   3.233  0.2645 -0.0878 -0.3796
 1013MOL0     C36656   6.878   6.985   3.194 -1.1971 -0.4562  0.1078
 1013MOL0     C36657   6.949   7.027   3.061 -0.8560  0.4401  0.0728
 1013MOL0     C36658   7.002   6.912   2.975 -0.5113 -0.3972 -0.4718
 1013MOL0     C36659   7.112   6.960   2.867  0.1654  0.4739  0.0062
 1013MOL0     C36660   7.046   7.012   2.749 -0.0452  0.0674  0.2161
 1013MOL0     C36661   7.139   7.036   2.639 -0.5186 -0.0301  0.1013
 1013MOL0     C36662   7.197   6.911   2.567  0.9599 -0.3274 -0.5114
 1013MOL0     C36663   7.130   6.898   2.428  0.0407 -0.9179 -0.4443
 1013MOL0    Cl36664   7.182   7.015   2.317 -0.1115  0.1201  0.1587
 1013MOL0     C36665   6.701   7.241   3.377 -0.1738  0.6363 -1.0743
 1013MOL0     C36666   6.615   7.263   3.485  0.2307  0.3315  0.4882
 1013MOL0     O36667   6.409   7.407   3.652  0.5184 -0.4150  0.1357
 1013MOL0     C36668   6.272   7.155   3.864 -0.6521  0.7341  0.5585
 1013MOL0     C36669   6.178   7.137   3.956  0.2028  0.5926  0.0027
 1013MOL0     N36670   6.112   6.899   4.700  0.4064 -0.5224  0.6259
 1013MOL0     N36671   6.104   6.899   4.831 -0.6109 -0.2838  0.5125
 1013MOL0     C36672   4.883   7.045   5.288 -0.8933  0.2551 -1.0173
 1013MOL0     C36673   4.746   7.056   5.286 -0.6405 -0.0453 -0.5034
 1013MOL0     C36674   4.358   7.157   5.049 -0.2259  0.2682  0.2782
 1013MOL0     C36675   4.309   7.289   5.030 -0.2329 -0.2447 -0.5768
 1013MOL0     C36676   4.174   7.322   5.027 -1.3607  0.2724 -0.1090
 1013MOL0     C36677   4.076   7.223   5.053 -0.5703 -0.5132  0.2170
 1013MOL0     O36678   3.941   7.262   5.053  0.0810  0.5638  0.3512
 1013MOL0     C36679   3.847   7.164   5.090  0.0545 -0.4985  0.5851
 1013MOL0     C36680   3.715   7.247   5.102  0.2082 -0.4226 -0.9668
 1013MOL0     C36681   3.653   7.285   4.973  0.1145 -0.5228  0.9389
 1013MOL0     C36682   3.593   7.156   4.912  0.1556  0.3482 -0.2040
 1013MOL0     C36683   3.539   7.187   4.771 -0.2490  1.0952  0.0747
 1013MOL0     C36684   3.526   7.210   4.650 -0.0836 -0.4111 -0.0354
 1013MOL0     C36685   4.122   7.091   5.070  0.4844 -0.7314  0.1655
 1013MOL0     C36686   4.261   7.054   5.070  0.2173 -0.5029 -0.5218
 1013MOL0     C36687   4.291   6.906   5.094  0.0556 -0.1096  0.3936
 1013MOL0     H36688   4.692   6.959   4.968 -0.1471  2.7755  0.6108
 1013MOL0     H36689   4.939   6.906   4.984 -0.1970 -2.8291  2.1086
 1013MOL0     H36690   5.099   7.149   5.101 -2.5848 -0.2109  1.6973
 1013MOL0     H36691   5.180   7.143   5.256  0.2910  2.5447 -2.1166
 1013MOL0     H36692   5.349   7.176   5.067 -0.5469  1.1594  0.5418
 1013MOL0     H36693   5.283   7.035   4.990  0.1283  1.9958 -0.7464
 1013MOL0     H36694   5.380   6.888   5.156  1.3516 -0.5287 -0.3029
 1013MOL0     H36695   5.402   7.034   5.259 -2.0660  2.1642 -0.8681
 1013MOL0     H36696   5.559   6.974   5.004 -1.9680  2.9046 -0.5034
 1013MOL0     H36697   5.578   7.119   5.091  1.1472 -0.4255 -2.6392
 1013MOL0     H36698   5.632   7.001   5.306  2.4098  1.5765  0.5833
 1013MOL0     H36699   5.660   6.857   5.211  0.9268 -0.3532 -3.4967
 1013MOL0     H36700   5.803   7.117   5.186 -1.0734  0.4975 -1.5687
 1013MOL0     H36701   5.868   6.977   5.255  0.4736 -0.6574 -0.5665
 1013MOL0     H36702   5.785   6.992   4.951  1.3671  1.3600 -0.8187
 1013MOL0     H36703   5.875   6.865   5.042 -3.2072 -0.0393  3.6856
 1013MOL0     H36704   5.964   7.159   5.004  1.2863  0.0011 -0.4405
 1013MOL0     H36705   6.058   7.020   5.063  0.0095  0.4063  0.0692
 1013MOL0     H36706   5.873   7.122   4.748 -1.7236 -2.6368  3.8245
 1013MOL0     H36707   6.068   6.985   4.435  2.4341  3.5616  1.0323
 1013MOL0     H36708   5.894   6.966   4.483 -1.6938  1.4647  3.0691
 1013MOL0     H36709   5.878   7.216   4.527 -1.4558  2.2327 -1.8307
 1013MOL0     H36710   6.042   7.226   4.479 -0.0330 -1.6150  2.8981
 1013MOL0     H36711   5.877   7.298   4.309  1.2978 -0.3278 -2.8419
 1013MOL0     H36712   5.826   7.129   4.296 -1.2302  0.7866  2.3511
 1013MOL0     H36713   6.062   7.083   4.216  1.7478  1.0860 -0.3949
 1013MOL0     H36714   6.102   7.256   4.243  1.1769 -0.4955  1.0693
 1013MOL0     H36715   6.005   7.416   3.929 -2.3042 -1.6338 -1.6665
 1013MOL0     H36716   6.169   7.452   3.743 -4.1518 -2.0640 -2.6443
 1013MOL0     H36717   6.535   6.939   3.555  1.1029 -0.3941  0.9724
 1013MOL0     H36718   6.688   6.908   3.368 -1.8702  0.0674  1.1506
 1013MOL0     H36719   6.953   6.943   3.262 -0.6087 -0.5440 -0.5896
 1013MOL0     H36720   6.804   6.907   3.173  1.9314 -4.6442  2.8841
 1013MOL0     H36721   6.884   7.090   3.000 -0.0141  1.2705  0.0194
 1013MOL0     H36722   7.037   7.087   3.084 -0.1349 -0.4479 -0.2906
 1013MOL0     H36723   7.045   6.837   3.043  0.4887  0.5587 -0.0258
 1013MOL0     H36724   6.920   6.858   2.926 -2.4485  0.6767  1.4097
 1013MOL0     H36725   7.169   6.872   2.836 -1.7463 -1.1946  1.0595
 1013MOL0     H36726   7.188   7.032   2.898  1.3312 -0.0187 -1.5637
 1013MOL0     H36727   6.986   7.103   2.763 -0.0452  0.2962 -1.1264
 1013MOL0     H36728   6.967   6.941   2.723  0.3175 -0.4947  0.6363
 1013MOL0     H36729   7.095   7.100   2.562 -1.1159 -0.1932  0.3070
 1013MOL0     H36730   7.222   7.098   2.676 -0.4257  0.2862 -0.6174
 1013MOL0     H36731   7.168   6.821   2.622 -2.0970  0.2230 -1.0622
 1013MOL0     H36732   7.306   6.911   2.560  1.1348  1.8397  0.9399
 1013MOL0     H36733   7.150   6.799   2.386 -0.9764 -0.4881 -1.9979
 1013MOL0     H36734   7.021   6.904   2.431  0.0532 -0.9488  1.2866
 1013MOL0     H36735   6.758   7.320   3.329 -0.2184  0.8071 -0.8458
 1013MOL0     H36736   6.594   7.362   3.526 -1.1503  0.4824 -0.4970
 1013MOL0     H36737   6.335   7.067   3.855 -2.0499 -0.8762  4.3321
 1013MOL0     H36738   6.168   7.043   4.008  0.5304 -0.1913 -1.3145
 1013MOL0     H36739   4.930   7.077   5.381 -0.6682  1.1921 -1.4377
 1013MOL0     H36740   4.687   7.083   5.374 -2.3480 -3.6303 -0.3491
 1013MOL0     H36741   4.389   7.360   5.014  1.3056 -1.7829 -0.0761
 1013MOL0     H36742   4.152   7.426   5.005  2.3735  1.1292 -0.5469
 1013MOL0     H36743   3.872   7.105   5.179  2.8364 -0.1099  0.1614
 1013MOL0     H36744   3.840   7.091   5.009  2.1852  1.2634 -1.3120
 1013MOL0     H36745   3.733   7.340   5.156  2.3116 -0.1324 -2.0733
 1013MOL0     H36746   3.649   7.205   5.178 -0.0848  0.3458 -0.7919
 1013MOL0     H36747   3.714   7.320   4.889 -2.6492 -1.3288 -1.5667
 1013MOL0     H36748   3.571   7.357   4.984  0.7880  0.5452 -0.6394
 1013MOL0     H36749   3.660   7.071   4.899 -0.5434 -0.2772  0.1714
 1013MOL0     H36750   3.513   7.116   4.975  1.1837  0.2571  1.0825
 1013MOL0     H36751   3.519   7.228   4.545  1.3977  1.4374  0.1267
 1013MOL0     H36752   4.047   7.016   5.094 -2.0044  0.9787 -1.7237
 1013MOL0     H36753   4.276   6.870   5.196  1.1158 -1.4072  0.1076
 1013MOL0     H36754   4.231   6.841   5.030 -0.8692 -2.4674  3.4106
 1013MOL0     H36755   4.397   6.882   5.079  0.5649  2.8234 -1.5165
 1014MOL0     O36756   6.495   8.389   8.006 -0.1121  0.4782  0.3898
 1014MOL0     C36757   6.530   8.347   8.117 -0.1602  0.2741 -0.4725
 1014MOL0     O36758   6.663   8.329   8.162  0.3465  0.0288 -0.1831
 1014MOL0     C36759   6.759   8.372   8.078 -0.2238  0.1831  0.9554
 1014MOL0     C36760   6.851   8.278   8.032  0.1644  0.2510 -0.1119
 1014MOL0     C36761   6.954   8.322   7.954 -0.7162 -0.0380  0.2139
 1014MOL0     C36762   6.969   8.459   7.915 -0.6161  0.3889 -0.3317
 1014MOL0     O36763   7.086   8.502   7.857  0.3066  0.1680  0.0627
 1014MOL0     C36764   7.146   8.629   7.890  0.9078  0.3540  0.1799
 1014MOL0     C36765   7.284   8.642   7.827 -0.3294  0.2055 -0.1198
 1014MOL0     C36766   7.390   8.535   7.861 -0.4746  1.0916  0.2908
 1014MOL0     C36767   7.436   8.527   8.006  0.8281 -0.0940  0.1452
 1014MOL0     C36768   7.542   8.415   8.021 -0.2976  0.8477 -0.0865
 1014MOL0     C36769   7.615   8.416   8.162  0.6820 -0.4376  0.7107
 1014MOL0     C36770   7.702   8.291   8.193  0.5068 -1.3971 -0.3762
 1014MOL0     C36771   7.836   8.283   8.113 -0.4185 -0.2611 -0.4307
 1014MOL0     N36772   7.932   8.387   8.158  0.1321  0.1521  0.0998
 1014MOL0     C36773   7.957   8.505   8.099  0.8458  0.0973  0.1528
 1014MOL0     C36774   8.059   8.567   8.162  0.4483 -0.1183 -0.3177
 1014MOL0     C36775   8.133   8.703   8.135  0.2108  0.9596 -0.5684
 1014MOL0     C36776   8.149   8.790   8.263  0.5522 -0.1689 -0.0462
 1014MOL0     C36777   8.157   8.938   8.238 -0.0766 -0.4935  0.3133
 1014MOL0     C36778   8.292   8.980   8.187 -0.7603  0.6964  0.2860
 1014MOL0     O36779   8.398   8.940   8.279 -0.3165 -0.2290  1.2712
 1014MOL0     C36780   8.521   8.986   8.258 -0.1959  0.1214  0.3294
 1014MOL0     C36781   8.624   8.947   8.342  0.1595 -0.5542  1.0900
 1014MOL0     C36782   8.756   8.993   8.331 -0.3899 -0.1075  0.0601
 1014MOL0     C36783   8.791   9.078   8.228  0.9872  0.0242  1.0179
 1014MOL0     C36784   8.929   9.119   8.221 -0.6553  0.4921 -0.8774
 1014MOL0     O36785   9.022   9.037   8.298 -0.3666 -0.3760 -0.3980
 1014MOL0     C36786   9.156   9.077   8.303  0.3076 -0.3049 -1.0519
 1014MOL0     C36787   9.224   9.145   8.202 -0.5476 -0.1867  1.0407
 1014MOL0     C36788   9.357   9.168   8.209 -0.0194 -0.1605  0.9746
 1014MOL0     C36789   9.426   9.129   8.326 -0.2441 -0.5876  0.2737
 1014MOL0     O36790   9.554   9.170   8.341 -0.2698 -0.0376 -0.7845
 1014MOL0     C36791   9.574   9.296   8.413  0.1836 -0.1224  0.2226
 1014MOL0     C36792   9.672   9.287   8.527 -0.2977  0.1876  0.0847
 1014MOL0     C36793   9.816   9.272   8.478 -0.3545  0.6891  0.5725
 1014MOL0     C36794   9.908   9.237   8.599 -0.3090  0.7806  0.2609
 1014MOL0     C36795  10.038   9.163   8.571  0.5112 -0.8159 -0.9831
 1014MOL0     C36796  10.139   9.237   8.499 -0.2003  0.1146 -0.0611
 1014MOL0     C36797  10.219   9.331   8.583 -0.8240  0.2248 -0.2203
 1014MOL0     C36798  10.325   9.410   8.499 -0.5089 -0.3623 -0.5381
 1014MOL0    Cl36799  10.476   9.458   8.588  0.1583  0.3186 -0.1843
 1014MOL0     C36800   9.359   9.082   8.440  0.9325 -1.1761 -0.4082
 1014MOL0     C36801   9.223   9.049   8.421  0.3804 -1.2154 -0.7416
 1014MOL0     O36802   8.956   9.222   8.160  0.5117 -0.2548 -0.4701
 1014MOL0     C36803   8.696   9.124   8.141 -0.7407 -0.0610  0.3838
 1014MOL0     C36804   8.559   9.085   8.159 -0.1239  0.3110  0.1565
 1014MOL0     N36805   8.089   8.489   8.271 -0.5896  0.6587  0.7238
 1014MOL0     N36806   8.011   8.383   8.272 -0.0140 -0.5312  0.2258
 1014MOL0     C36807   6.875   8.553   7.964  0.8291  1.5274  0.8918
 1014MOL0     C36808   6.766   8.504   8.032  1.0226  0.1836  0.0024
 1014MOL0     C36809   6.425   8.317   8.218 -0.5279 -0.2108 -0.5276
 1014MOL0     C36810   6.443   8.221   8.318 -0.6802 -1.2825  0.1184
 1014MOL0     C36811   6.342   8.184   8.406  0.0825 -0.3238  0.6554
 1014MOL0     C36812   6.218   8.236   8.401 -0.5240  0.3851 -0.7501
 1014MOL0     O36813   6.133   8.186   8.491  0.1835  0.2626 -0.3886
 1014MOL0     C36814   6.016   8.258   8.533  0.1348 -0.5724 -0.4171
 1014MOL0     C36815   5.952   8.212   8.661  0.9085  0.5149  0.2333
 1014MOL0     C36816   5.811   8.279   8.697 -0.2056  0.1100  0.1951
 1014MOL0     C36817   5.831   8.411   8.748 -0.3803 -0.6076  0.0218
 1014MOL0     C36818   5.837   8.519   8.642 -0.0144 -0.3435  0.2747
 1014MOL0     C36819   5.856   8.591   8.549  0.2712  0.4152 -0.8523
 1014MOL0     C36820   6.192   8.330   8.303 -0.2029  0.3435 -0.5004
 1014MOL0     C36821   6.294   8.375   8.215 -0.4705  0.0760  0.1934
 1014MOL0     C36822   6.248   8.475   8.113  0.2186 -0.2442 -0.1834
 1014MOL0     H36823   6.845   8.177   8.070 -0.5961 -0.0875 -1.0898
 1014MOL0     H36824   7.012   8.241   7.911 -2.2496  0.2746 -2.7464
 1014MOL0     H36825   7.086   8.705   7.839  0.6117 -0.1776 -0.2674
 1014MOL0     H36826   7.135   8.646   7.998 -1.2592  2.3514 -0.2639
 1014MOL0     H36827   7.318   8.737   7.871 -0.5255 -0.5031  1.6209
 1014MOL0     H36828   7.272   8.652   7.718  0.9856 -0.7221 -0.3736
 1014MOL0     H36829   7.476   8.553   7.796 -0.9088 -2.2666 -1.4328
 1014MOL0     H36830   7.356   8.438   7.825  3.9719 -0.6208  0.0910
 1014MOL0     H36831   7.483   8.620   8.041 -0.6526  0.0678  1.8682
 1014MOL0     H36832   7.350   8.518   8.072  0.2979  2.3828 -0.0871
 1014MOL0     H36833   7.488   8.320   8.008 -0.3192  0.8521 -0.0306
 1014MOL0     H36834   7.622   8.414   7.947  0.3851 -1.1508  0.6095
 1014MOL0     H36835   7.666   8.510   8.184 -0.1943 -0.1969  1.7828
 1014MOL0     H36836   7.538   8.423   8.239  1.3893  1.4359  1.2945
 1014MOL0     H36837   7.634   8.211   8.163 -1.2820 -0.4259  0.8576
 1014MOL0     H36838   7.719   8.299   8.301 -1.2801  2.2622 -0.2009
 1014MOL0     H36839   7.887   8.187   8.118 -2.2239 -1.2701 -0.6359
 1014MOL0     H36840   7.829   8.305   8.006  4.1048 -2.0721 -1.3589
 1014MOL0     H36841   7.912   8.537   8.005  1.0832  0.4649  0.1603
 1014MOL0     H36842   8.235   8.678   8.103  1.9360  1.1815  4.0354
 1014MOL0     H36843   8.077   8.753   8.056  0.4511  3.3946  0.7084
 1014MOL0     H36844   8.052   8.783   8.314  0.6102  2.3701  0.5702
 1014MOL0     H36845   8.234   8.758   8.324  0.3524  0.5883  0.6522
 1014MOL0     H36846   8.131   8.994   8.328 -0.5456 -0.7137  0.3194
 1014MOL0     H36847   8.085   8.976   8.165 -1.1924 -0.3146  1.4743
 1014MOL0     H36848   8.287   9.089   8.179 -0.6552  0.6341 -0.6818
 1014MOL0     H36849   8.313   8.954   8.083 -2.1263  0.1364  0.1426
 1014MOL0     H36850   8.612   8.866   8.413 -3.3257  0.7414  2.1874
 1014MOL0     H36851   8.812   8.953   8.414 -3.8930 -1.5719  1.9341
 1014MOL0     H36852   9.175   9.178   8.111  1.8365 -2.0018 -1.0412
 1014MOL0     H36853   9.404   9.221   8.127 -2.3756 -3.1191 -2.6213
 1014MOL0     H36854   9.621   9.370   8.349  0.8557  1.5455  2.4997
 1014MOL0     H36855   9.484   9.331   8.465  0.5722  0.9258  0.1992
 1014MOL0     H36856   9.674   9.376   8.591  2.0174  1.5203 -1.6863
 1014MOL0     H36857   9.638   9.202   8.587 -0.5314  1.0675  1.2312
 1014MOL0     H36858   9.818   9.205   8.391 -0.4954 -0.1157  1.1771
 1014MOL0     H36859   9.845   9.370   8.438 -0.8442  0.5250 -0.2195
 1014MOL0     H36860   9.853   9.182   8.676  0.4101 -1.2734 -0.6114
 1014MOL0     H36861   9.939   9.332   8.643  0.4622  0.2794  0.8359
 1014MOL0     H36862  10.015   9.064   8.530 -1.5900  0.0978 -2.1979
 1014MOL0     H36863  10.075   9.145   8.672  0.0583 -1.0517 -0.8552
 1014MOL0     H36864  10.199   9.156   8.456 -0.4692 -1.1379  1.8139
 1014MOL0     H36865  10.094   9.297   8.418 -1.3588  4.3485  3.3509
 1014MOL0     H36866  10.276   9.268   8.652 -1.9034  1.9676  2.4714
 1014MOL0     H36867  10.155   9.399   8.641  0.7434 -0.5360  2.6199
 1014MOL0     H36868  10.353   9.343   8.418 -2.0017  0.5514 -1.8586
 1014MOL0     H36869  10.286   9.501   8.452 -0.1888  0.0894  0.0490
 1014MOL0     H36870   9.421   9.064   8.527  2.5116  3.2725 -0.3607
 1014MOL0     H36871   9.163   9.012   8.504  1.4643  0.9057  1.1055
 1014MOL0     H36872   8.737   9.178   8.056  0.8015 -0.1942  1.0024
 1014MOL0     H36873   8.482   9.123   8.093 -0.0501 -0.6016 -0.4748
 1014MOL0     H36874   6.874   8.659   7.940 -2.1596  1.5121  0.4887
 1014MOL0     H36875   6.694   8.581   8.059 -0.4724 -0.7739 -1.1236
 1014MOL0     H36876   6.530   8.156   8.320 -3.1625 -4.8791  0.2467
 1014MOL0     H36877   6.361   8.123   8.494  2.7683  1.1705  1.2365
 1014MOL0     H36878   5.940   8.268   8.455 -0.3041  1.6558  0.2126
 1014MOL0     H36879   6.051   8.362   8.540  1.4932 -1.0011 -0.5732
 1014MOL0     H36880   6.028   8.231   8.738  0.4288  3.6156  0.0322
 1014MOL0     H36881   5.940   8.105   8.642 -0.4460  1.0370 -2.3292
 1014MOL0     H36882   5.772   8.210   8.772 -0.5339 -1.0179 -0.9763
 1014MOL0     H36883   5.744   8.284   8.610  0.6503  2.2190 -0.4199
 1014MOL0     H36884   5.734   8.424   8.797 -0.1582  0.6651  0.1790
 1014MOL0     H36885   5.906   8.423   8.826 -0.4324  0.9945 -0.1339
 1014MOL0     H36886   5.876   8.651   8.463  1.1595 -1.0290 -1.6976
 1014MOL0     H36887   6.089   8.360   8.287 -0.5605 -0.4891  0.1952
 1014MOL0     H36888   6.331   8.547   8.113  1.0539 -1.0294 -3.1933
 1014MOL0     H36889   6.230   8.427   8.016 -1.0982 -0.3691  0.1011
 1014MOL0     H36890   6.150   8.523   8.126  0.0671 -0.9038  1.2846
 1015MOL0     O36891   3.775   2.299   7.361  0.1248  0.7102 -0.6075
 1015MOL0     C36892   3.675   2.356   7.306 -1.5701 -0.1634 -0.1302
 1015MOL0     O36893   3.685   2.431   7.190  0.1807  0.1809  0.3745
 1015MOL0     C36894   3.805   2.457   7.130  0.1600  0.5888 -0.0778
 1015MOL0     C36895   3.874   2.356   7.060 -1.0248 -0.8684 -0.7985
 1015MOL0     C36896   3.996   2.401   7.009  0.4914  0.8602  0.1530
 1015MOL0     C36897   4.054   2.529   7.037  0.3824  0.4736 -0.7118
 1015MOL0     O36898   4.175   2.552   6.985  0.3028  0.4274 -0.2698
 1015MOL0     C36899   4.226   2.680   6.997  0.0036  0.1478  0.1804
 1015MOL0     C36900   4.357   2.696   6.913 -0.1913 -0.1209 -0.2375
 1015MOL0     C36901   4.480   2.627   6.984  0.0730  0.6506 -0.1731
 1015MOL0     C36902   4.480   2.480   7.008 -0.6135  0.6989 -0.3793
 1015MOL0     C36903   4.629   2.421   7.015  0.3263  0.1920  0.7740
 1015MOL0     C36904   4.725   2.491   7.115 -0.3377  0.4634 -0.3313
 1015MOL0     C36905   4.672   2.494   7.260  0.5595  0.3371 -0.3499
 1015MOL0     C36906   4.666   2.347   7.315 -0.0834  0.6513  0.5361
 1015MOL0     N36907   4.798   2.293   7.373  0.3011  0.5588 -0.7712
 1015MOL0     C36908   4.847   2.331   7.502 -0.0270 -0.0165  0.2449
 1015MOL0     C36909   4.938   2.232   7.525  0.1328  0.1304  0.8256
 1015MOL0     C36910   5.024   2.226   7.646  1.2734  0.2375 -0.0670
 1015MOL0     C36911   4.944   2.154   7.755  0.5619  0.4710 -0.1199
 1015MOL0     C36912   5.019   2.150   7.885  0.2940  0.2419  0.0420
 1015MOL0     C36913   5.145   2.084   7.863 -0.6735 -0.4298  0.0349
 1015MOL0     O36914   5.245   2.172   7.816  0.7393 -0.4049 -0.0337
 1015MOL0     C36915   5.371   2.125   7.805  0.2928 -0.0608 -0.5337
 1015MOL0     C36916   5.468   2.210   7.852  0.2314 -0.1297  0.9491
 1015MOL0     C36917   5.603   2.170   7.857  0.5301 -0.3877 -0.3880
 1015MOL0     C36918   5.629   2.030   7.831  0.2344 -0.6831 -0.3815
 1015MOL0     C36919   5.771   1.989   7.839 -0.5085 -1.4037  0.6726
 1015MOL0     O36920   5.787   1.852   7.843  0.0146  0.1369 -0.5065
 1015MOL0     C36921   5.915   1.792   7.852 -0.7177  0.8945  0.5729
 1015MOL0     C36922   6.044   1.843   7.877  0.6839 -0.0740  0.2103
 1015MOL0     C36923   6.153   1.765   7.893  0.6373  1.0608  0.2738
 1015MOL0     C36924   6.145   1.618   7.869  0.1191  0.1362  0.1788
 1015MOL0     O36925   6.257   1.530   7.868 -0.6104 -0.0367 -0.0417
 1015MOL0     C36926   6.370   1.560   7.945 -0.3425  0.5514 -0.7019
 1015MOL0     C36927   6.478   1.644   7.865 -0.2477 -0.3977  0.0931
 1015MOL0     C36928   6.582   1.719   7.953 -0.3368 -0.1048  0.6940
 1015MOL0     C36929   6.660   1.837   7.887  1.1338 -0.3424  0.9443
 1015MOL0     C36930   6.575   1.964   7.851 -0.3423  0.2219 -0.3307
 1015MOL0     C36931   6.678   2.074   7.795  0.0756  0.4560  0.1300
 1015MOL0     C36932   6.592   2.198   7.762 -0.0965 -0.4863 -1.0088
 1015MOL0     C36933   6.630   2.275   7.635 -0.1744 -0.3738  0.3541
 1015MOL0    Cl36934   6.801   2.283   7.629 -0.5183 -0.1277 -0.2801
 1015MOL0     C36935   6.021   1.566   7.846  0.0685 -0.9298 -0.2012
 1015MOL0     C36936   5.909   1.649   7.841  0.2253  0.1041  0.1191
 1015MOL0     O36937   5.860   2.078   7.847  0.7479  1.0490  0.1519
 1015MOL0     C36938   5.525   1.948   7.780 -0.3108  0.2389  0.3605
 1015MOL0     C36939   5.400   1.996   7.766 -0.4791 -0.3515  0.2396
 1015MOL0     N36940   4.941   2.136   7.424 -0.1254 -0.0838  1.0125
 1015MOL0     N36941   4.870   2.177   7.335 -0.3230 -0.0710  0.2777
 1015MOL0     C36942   3.973   2.622   7.097  0.1278  0.1635 -0.7063
 1015MOL0     C36943   3.848   2.592   7.141 -0.1075 -0.1859  0.1256
 1015MOL0     C36944   3.541   2.345   7.360 -0.3583 -0.4574 -0.2711
 1015MOL0     C36945   3.434   2.385   7.285 -0.5462 -0.4787  0.5353
 1015MOL0     C36946   3.300   2.364   7.321  0.0513  0.6725  0.0598
 1015MOL0     C36947   3.265   2.315   7.440 -0.5376 -0.6708 -0.0893
 1015MOL0     O36948   3.132   2.298   7.452  0.1615  0.1093 -0.8620
 1015MOL0     C36949   3.092   2.242   7.580  0.2102 -1.0010  0.1975
 1015MOL0     C36950   2.957   2.174   7.590  0.0580 -0.5994  0.0825
 1015MOL0     C36951   2.845   2.258   7.649  0.1185 -0.3589  0.1458
 1015MOL0     C36952   2.724   2.266   7.553 -0.2081 -1.0430  0.6584
 1015MOL0     C36953   2.737   2.333   7.424 -1.3152 -0.2623  0.0115
 1015MOL0     C36954   2.748   2.368   7.308 -0.8744 -0.3580 -0.4644
 1015MOL0     C36955   3.370   2.288   7.534 -0.7828  0.0260  0.3624
 1015MOL0     C36956   3.507   2.290   7.496  0.9589 -0.8126 -0.1336
 1015MOL0     C36957   3.599   2.246   7.599  0.1140  0.3812  0.3643
 1015MOL0     H36958   3.847   2.251   7.054  2.2543 -1.7384 -2.6035
 1015MOL0     H36959   4.063   2.335   6.956  0.4367  0.9247  0.0011
 1015MOL0     H36960   4.153   2.754   6.961  1.3444  0.7103 -1.5452
 1015MOL0     H36961   4.253   2.699   7.101 -0.0126  0.7801  0.0767
 1015MOL0     H36962   4.389   2.800   6.918 -1.6851  0.3985 -0.8052
 1015MOL0     H36963   4.346   2.672   6.807 -2.3614  0.2871 -0.1500
 1015MOL0     H36964   4.505   2.660   7.086  0.6539 -0.8631  0.2083
 1015MOL0     H36965   4.566   2.652   6.922 -0.3625  3.7650  0.3262
 1015MOL0     H36966   4.429   2.460   7.102 -2.9548  1.5757 -1.3918
 1015MOL0     H36967   4.423   2.415   6.940  0.0958  0.2721 -0.5820
 1015MOL0     H36968   4.626   2.312   7.022  0.3638  0.1817  0.6336
 1015MOL0     H36969   4.680   2.421   6.918  1.1151 -2.3018  1.1155
 1015MOL0     H36970   4.820   2.437   7.109  0.5430  1.2761  3.4958
 1015MOL0     H36971   4.745   2.592   7.080 -1.1422  0.6615 -0.2191
 1015MOL0     H36972   4.573   2.538   7.276  0.6918  1.0349 -1.3753
 1015MOL0     H36973   4.748   2.541   7.323  0.0307  1.1564 -0.3041
 1015MOL0     H36974   4.587   2.335   7.390 -2.0725  0.2139 -1.5342
 1015MOL0     H36975   4.640   2.280   7.232 -1.0780  0.2854  1.1187
 1015MOL0     H36976   4.814   2.405   7.575 -0.4161 -0.0634  0.1190
 1015MOL0     H36977   5.120   2.184   7.613  0.2183 -0.4329 -2.4759
 1015MOL0     H36978   5.045   2.331   7.672  1.0610 -0.2800  2.3929
 1015MOL0     H36979   4.846   2.201   7.771  0.1189 -0.6124  0.4798
 1015MOL0     H36980   4.927   2.051   7.720 -2.1159  0.6864  0.3541
 1015MOL0     H36981   4.951   2.100   7.955  1.9478 -2.1399  0.1052
 1015MOL0     H36982   5.030   2.254   7.916 -0.8013  0.1292  0.8309
 1015MOL0     H36983   5.126   2.005   7.790 -1.7002 -0.0233 -0.1640
 1015MOL0     H36984   5.181   2.032   7.952 -2.9740 -0.8909  0.7570
 1015MOL0     H36985   5.435   2.309   7.883  0.1058 -0.4230  1.7753
 1015MOL0     H36986   5.686   2.235   7.882  0.1946  0.0785 -0.4739
 1015MOL0     H36987   6.050   1.949   7.899 -0.7349 -0.2474  1.6589
 1015MOL0     H36988   6.253   1.805   7.910  0.5174  1.5090 -0.0641
 1015MOL0     H36989   6.341   1.619   8.032  0.2472 -2.0027  1.3509
 1015MOL0     H36990   6.410   1.462   7.976  0.2352  0.4844 -1.5997
 1015MOL0     H36991   6.522   1.575   7.792  1.5428  2.9338 -2.2536
 1015MOL0     H36992   6.428   1.723   7.808  1.1212  0.9448  0.7006
 1015MOL0     H36993   6.529   1.750   8.044  3.1415 -0.7327  3.1085
 1015MOL0     H36994   6.658   1.646   7.979 -0.5186 -0.9872 -1.0715
 1015MOL0     H36995   6.720   1.807   7.801 -2.0173  0.8411 -1.9119
 1015MOL0     H36996   6.731   1.872   7.962 -0.5059  2.2445  1.4344
 1015MOL0     H36997   6.528   1.990   7.947 -0.8625  0.6612 -0.6972
 1015MOL0     H36998   6.506   1.927   7.775 -1.6364 -0.6374  1.1802
 1015MOL0     H36999   6.751   2.098   7.872  1.7589  1.6779 -1.7351
 1015MOL0     H37000   6.743   2.040   7.714 -1.7162  0.5330 -1.4257
 1015MOL0     H37001   6.601   2.264   7.849  2.3895  0.4746 -1.9027
 1015MOL0     H37002   6.486   2.173   7.759  0.3088 -3.4489  2.8243
 1015MOL0     H37003   6.588   2.240   7.540  3.7732  1.3341 -2.3216
 1015MOL0     H37004   6.595   2.377   7.651 -0.7161 -0.6626  1.0426
 1015MOL0     H37005   6.015   1.458   7.832 -1.6278 -0.7105 -1.4769
 1015MOL0     H37006   5.814   1.599   7.822  1.3021 -2.7943  1.7066
 1015MOL0     H37007   5.547   1.846   7.750  1.2375  0.5082  0.5014
 1015MOL0     H37008   5.322   1.931   7.729 -0.4588 -1.9899  2.7928
 1015MOL0     H37009   4.010   2.721   7.119  0.5636 -0.0877 -0.2985
 1015MOL0     H37010   3.797   2.672   7.194  2.1608  2.6624 -1.6890
 1015MOL0     H37011   3.444   2.421   7.183  1.1161 -2.3470  0.0047
 1015MOL0     H37012   3.225   2.389   7.246  1.2519 -1.5817 -2.0583
 1015MOL0     H37013   3.098   2.314   7.662 -1.0707  0.3321 -0.8195
 1015MOL0     H37014   3.165   2.164   7.602 -0.2032 -1.7761 -1.0914
 1015MOL0     H37015   2.969   2.088   7.656  0.4872 -1.0226 -0.5223
 1015MOL0     H37016   2.938   2.132   7.490  0.5465  1.9225 -1.1491
 1015MOL0     H37017   2.882   2.360   7.661  1.2415 -0.4587 -1.9377
 1015MOL0     H37018   2.817   2.217   7.746  0.9459  1.8430  1.3801
 1015MOL0     H37019   2.695   2.161   7.545  0.1649 -1.4789  3.7854
 1015MOL0     H37020   2.645   2.320   7.606  0.6561  0.0859  0.8390
 1015MOL0     H37021   2.764   2.415   7.213 -0.8988  3.4947  1.2632
 1015MOL0     H37022   3.347   2.237   7.627  2.5739 -0.5540  1.0023
 1015MOL0     H37023   3.635   2.147   7.571  0.4314  0.6634 -0.2536
 1015MOL0     H37024   3.689   2.308   7.591 -1.1575  2.1802 -0.9269
 1015MOL0     H37025   3.560   2.245   7.701 -0.6343  1.0578  0.0921
 1016MOL0     O37026   9.844   3.465   5.266 -0.5180  0.4586 -0.0309
 1016MOL0     C37027   9.780   3.364   5.293  0.1632  0.4723 -0.5576
 1016MOL0     O37028   9.826   3.234   5.312 -0.0641  0.6416 -0.7824
 1016MOL0     C37029   9.964   3.220   5.304  0.8697 -0.3154 -0.4995
 1016MOL0     C37030  10.045   3.220   5.421  0.1739  0.4570 -0.4030
 1016MOL0     C37031  10.179   3.171   5.417  0.1627 -0.6201  0.8213
 1016MOL0     C37032  10.238   3.142   5.297 -0.4825  0.7604  0.8204
 1016MOL0     O37033  10.374   3.115   5.279 -0.6903 -0.0747 -0.2354
 1016MOL0     C37034  10.454   3.093   5.398 -0.0308 -0.7550  0.0022
 1016MOL0     C37035  10.601   3.061   5.358  0.7322 -0.2476 -0.3841
 1016MOL0     C37036  10.667   3.159   5.262  0.3247  0.3551 -0.4170
 1016MOL0     C37037  10.748   3.265   5.346  0.1425 -0.4854  0.6543
 1016MOL0     C37038  10.842   3.352   5.262 -0.3315 -0.4138  0.6543
 1016MOL0     C37039  10.970   3.277   5.243  0.3963  0.9295  0.1287
 1016MOL0     C37040  11.038   3.315   5.110 -0.9948 -0.1693 -0.2203
 1016MOL0     C37041  11.081   3.461   5.096 -0.6074  0.6046  0.6342
 1016MOL0     N37042  11.194   3.480   4.997 -0.1419  0.1252 -0.2574
 1016MOL0     C37043  11.309   3.553   5.023  0.0690  0.1483 -0.8083
 1016MOL0     C37044  11.381   3.543   4.913  0.1153  0.0710  0.6645
 1016MOL0     C37045  11.514   3.600   4.882  0.3520  0.0364 -0.7576
 1016MOL0     C37046  11.630   3.573   4.986  0.1668  0.4226  0.4263
 1016MOL0     C37047  11.765   3.616   4.929  0.5122 -0.0991 -0.4682
 1016MOL0     C37048  11.882   3.548   5.004 -0.0281 -0.1742  0.2677
 1016MOL0     O37049  12.006   3.577   4.938  0.0553 -0.4969 -0.2227
 1016MOL0     C37050  12.123   3.526   4.986 -0.3769 -0.2632  0.8590
 1016MOL0     C37051  12.133   3.448   5.102 -0.4523 -0.1499 -0.5750
 1016MOL0     C37052  12.262   3.408   5.144 -0.0663  0.0814 -0.3089
 1016MOL0     C37053  12.378   3.458   5.084 -0.1677  0.4672  0.0123
 1016MOL0     C37054  12.512   3.434   5.139  0.2864 -0.4206  0.7152
 1016MOL0     O37055  12.614   3.502   5.089 -0.3667  0.0824  0.1281
 1016MOL0     C37056  12.744   3.461   5.135  0.5005 -0.0575  0.7528
 1016MOL0     C37057  12.799   3.531   5.251  0.6584 -0.6213  0.0972
 1016MOL0     C37058  12.926   3.515   5.292  0.1416 -1.1158 -0.1345
 1016MOL0     C37059  13.006   3.419   5.230 -0.8693  0.6382  0.0915
 1016MOL0     O37060  13.134   3.398   5.278 -0.1888 -0.0930  0.0121
 1016MOL0     C37061  13.229   3.309   5.220  0.1625 -0.0315 -0.1002
 1016MOL0     C37062  13.360   3.287   5.300 -0.5392  0.2367 -0.7271
 1016MOL0     C37063  13.420   3.424   5.339 -0.1769 -0.1752 -0.1683
 1016MOL0     C37064  13.378   3.466   5.487  0.3666  0.4992 -0.3261
 1016MOL0     C37065  13.466   3.584   5.525  0.1542 -0.6411 -1.0781
 1016MOL0     C37066  13.467   3.621   5.672 -0.1143  0.1968 -0.2816
 1016MOL0     C37067  13.337   3.660   5.721  0.9961  0.2233 -0.5094
 1016MOL0     C37068  13.254   3.767   5.651 -0.9478 -0.1668 -0.8582
 1016MOL0    Cl37069  13.345   3.913   5.645  0.3442  0.0510  0.1619
 1016MOL0     C37070  12.950   3.346   5.117 -0.4749 -0.1143 -1.1419
 1016MOL0     C37071  12.820   3.370   5.078 -0.0400  0.7093  1.2762
 1016MOL0     O37072  12.517   3.349   5.226  0.0628  0.4331 -0.4560
 1016MOL0     C37073  12.358   3.540   4.980  0.3679  0.2545 -0.7545
 1016MOL0     C37074  12.235   3.572   4.922  0.0356 -0.0436 -0.0406
 1016MOL0     N37075  11.316   3.450   4.830 -0.2019 -0.1304 -0.2391
 1016MOL0     N37076  11.204   3.411   4.885  0.3651 -0.5149 -1.1661
 1016MOL0     C37077  10.159   3.120   5.184  0.2972 -1.1614 -0.1028
 1016MOL0     C37078  10.021   3.162   5.192  0.1924  0.6962 -0.0187
 1016MOL0     C37079   9.642   3.398   5.345 -0.1924  0.0401  0.2155
 1016MOL0     C37080   9.544   3.323   5.290  0.6565  0.3164  0.4895
 1016MOL0     C37081   9.412   3.339   5.323  0.0840  0.3036 -0.0063
 1016MOL0     C37082   9.370   3.435   5.411 -0.1352 -0.4107 -0.4949
 1016MOL0     O37083   9.237   3.433   5.435  0.6125  0.8862 -0.5422
 1016MOL0     C37084   9.176   3.522   5.534  0.3330  0.4844 -0.2108
 1016MOL0     C37085   9.041   3.462   5.575  0.5165 -0.4758 -0.4025
 1016MOL0     C37086   9.039   3.315   5.617 -0.8279  0.3849  0.2229
 1016MOL0     C37087   9.062   3.296   5.773  0.0424 -0.1532 -0.5604
 1016MOL0     C37088   9.201   3.321   5.814  0.7979 -0.3483  0.0072
 1016MOL0     C37089   9.315   3.345   5.850 -0.2983  0.2680  0.3769
 1016MOL0     C37090   9.465   3.522   5.458 -0.2737  0.7861  0.0608
 1016MOL0     C37091   9.603   3.509   5.421 -0.1225 -0.7175  0.6561
 1016MOL0     C37092   9.704   3.617   5.467  0.7822  0.3766  0.1307
 1016MOL0     H37093  10.007   3.243   5.520 -2.4775 -2.0720 -0.6688
 1016MOL0     H37094  10.239   3.192   5.505  0.7133 -0.0092  0.3156
 1016MOL0     H37095  10.452   3.178   5.467 -0.2512  0.4653 -1.4535
 1016MOL0     H37096  10.411   3.009   5.453  0.2911 -0.3473  0.9058
 1016MOL0     H37097  10.601   2.964   5.306 -0.6882 -2.3700  3.1732
 1016MOL0     H37098  10.664   3.041   5.445  2.0257  1.8153 -0.7657
 1016MOL0     H37099  10.595   3.198   5.189  0.8604 -0.5055 -1.4378
 1016MOL0     H37100  10.745   3.104   5.209 -0.9676  0.7498 -2.9026
 1016MOL0     H37101  10.676   3.332   5.395  0.6534  0.6544 -0.1059
 1016MOL0     H37102  10.803   3.214   5.425  0.4409 -0.8920  0.1903
 1016MOL0     H37103  10.799   3.377   5.165  1.5037  0.2844 -0.0249
 1016MOL0     H37104  10.868   3.449   5.306 -0.1248 -0.1209 -0.1013
 1016MOL0     H37105  11.044   3.294   5.323  0.0919  2.4876  0.0975
 1016MOL0     H37106  10.952   3.169   5.249  1.4913  0.6740 -0.8421
 1016MOL0     H37107  10.982   3.287   5.019 -0.7299 -1.8154  0.0857
 1016MOL0     H37108  11.129   3.259   5.090 -0.8852  0.4882 -1.7284
 1016MOL0     H37109  10.996   3.511   5.049 -0.4227  1.3440  1.0662
 1016MOL0     H37110  11.108   3.505   5.193 -2.9427  2.3745  0.5646
 1016MOL0     H37111  11.323   3.610   5.115 -0.9666 -0.6484 -0.1265
 1016MOL0     H37112  11.551   3.564   4.785  0.5781  0.6114 -0.8883
 1016MOL0     H37113  11.501   3.708   4.890  1.3927  0.0208  2.0247
 1016MOL0     H37114  11.603   3.622   5.080 -0.9466  1.3227 -0.3446
 1016MOL0     H37115  11.629   3.465   5.007 -0.0936  0.7285  2.1848
 1016MOL0     H37116  11.776   3.724   4.945  1.6451 -0.4415  1.3603
 1016MOL0     H37117  11.762   3.595   4.822  1.7418 -1.3918 -0.2698
 1016MOL0     H37118  11.870   3.440   5.008 -2.1541 -0.0684 -1.1161
 1016MOL0     H37119  11.880   3.582   5.108  1.1778 -1.3887  0.7118
 1016MOL0     H37120  12.047   3.412   5.157 -0.7644  1.5341  0.0920
 1016MOL0     H37121  12.273   3.359   5.241  2.5587  1.3116  0.1088
 1016MOL0     H37122  12.731   3.606   5.291 -1.3835 -1.7531 -1.0524
 1016MOL0     H37123  12.954   3.571   5.381 -2.1116 -3.5197  2.2670
 1016MOL0     H37124  13.191   3.206   5.222  1.1946 -0.4184  0.8986
 1016MOL0     H37125  13.264   3.330   5.118 -2.1135 -1.3326 -1.2279
 1016MOL0     H37126  13.345   3.223   5.387 -2.1196  3.1288  1.2874
 1016MOL0     H37127  13.441   3.247   5.237  1.7872  0.9200  1.6246
 1016MOL0     H37128  13.529   3.413   5.345  0.0099  1.3659 -0.3401
 1016MOL0     H37129  13.388   3.506   5.275 -2.4047 -1.6845 -1.0996
 1016MOL0     H37130  13.385   3.386   5.562 -0.2995  2.1034  1.5439
 1016MOL0     H37131  13.274   3.498   5.481  0.2971  0.1537 -1.0342
 1016MOL0     H37132  13.438   3.671   5.465  0.7699  0.4571  0.1477
 1016MOL0     H37133  13.567   3.556   5.494  0.3319 -1.0132 -0.1968
 1016MOL0     H37134  13.511   3.540   5.731  2.2662  2.3611  1.0990
 1016MOL0     H37135  13.539   3.702   5.681  1.0001 -0.7090 -0.8446
 1016MOL0     H37136  13.349   3.693   5.824  1.8741 -1.1642 -0.1495
 1016MOL0     H37137  13.279   3.568   5.729 -1.7978  1.9983  2.1939
 1016MOL0     H37138  13.226   3.745   5.548  0.9936 -0.0677 -1.4466
 1016MOL0     H37139  13.164   3.786   5.711  0.7270  1.2202  1.3576
 1016MOL0     H37140  13.015   3.275   5.067  0.3807 -1.0970  1.2073
 1016MOL0     H37141  12.769   3.318   4.998 -2.0041  3.0672  0.8561
 1016MOL0     H37142  12.441   3.589   4.929  0.1455 -0.1346 -1.4900
 1016MOL0     H37143  12.210   3.639   4.841 -2.6825  1.3342  1.7937
 1016MOL0     H37144  10.202   3.089   5.089  2.3611  3.8599 -1.1476
 1016MOL0     H37145   9.953   3.165   5.108 -0.3622  4.4465  0.4095
 1016MOL0     H37146   9.574   3.253   5.213 -2.8599  0.5310 -1.2789
 1016MOL0     H37147   9.333   3.277   5.281 -0.3132 -0.5469  1.9274
 1016MOL0     H37148   9.160   3.623   5.495  2.3648  0.7814 -0.3532
 1016MOL0     H37149   9.243   3.530   5.620  1.8607  1.5022 -1.4518
 1016MOL0     H37150   8.969   3.481   5.495  0.6744 -0.4069 -0.5303
 1016MOL0     H37151   9.009   3.526   5.658  0.8349  0.6504 -1.1285
 1016MOL0     H37152   9.111   3.255   5.560 -2.2292 -1.0028 -0.1466
 1016MOL0     H37153   8.942   3.277   5.585 -0.4534  1.8296 -3.0155
 1016MOL0     H37154   8.991   3.358   5.828 -0.1874 -1.2162  0.3421
 1016MOL0     H37155   9.035   3.196   5.806 -2.2086  0.7607  0.5733
 1016MOL0     H37156   9.416   3.367   5.877 -0.3555 -1.3940  2.0987
 1016MOL0     H37157   9.428   3.597   5.528  0.7761  0.7162  0.7175
 1016MOL0     H37158   9.779   3.573   5.532  0.0979  0.1241  0.7589
 1016MOL0     H37159   9.745   3.665   5.377  0.3059  2.9458  1.1862
 1016MOL0     H37160   9.645   3.682   5.533 -2.7447 -0.9482 -1.4408
 1017MOL0     O37161  10.004   0.165   3.617  0.4833 -0.0306  0.3477
 1017MOL0     C37162   9.909   0.217   3.563 -0.1191  0.1783 -0.4577
 1017MOL0     O37163   9.905   0.273   3.439 -0.1568  0.4618  0.0151
 1017MOL0     C37164  10.010   0.334   3.379 -0.9969 -0.7873  0.4346
 1017MOL0     C37165  10.142   0.351   3.432 -0.3109  0.2725 -0.0012
 1017MOL0     C37166  10.235   0.413   3.349 -1.1353 -0.1011 -0.7349
 1017MOL0     C37167  10.210   0.448   3.217  0.9420 -0.5034  0.8319
 1017MOL0     O37168  10.296   0.520   3.141  0.0737  1.1783 -0.2391
 1017MOL0     C37169  10.346   0.455   3.020 -0.3663  1.1126 -0.6134
 1017MOL0     C37170  10.450   0.536   2.947 -0.3687 -0.1180  0.8031
 1017MOL0     C37171  10.382   0.653   2.874 -0.2155 -0.2320 -0.2425
 1017MOL0     C37172  10.421   0.662   2.729  0.9478 -0.2532 -0.4702
 1017MOL0     C37173  10.437   0.804   2.680 -0.6763  0.1539 -0.2221
 1017MOL0     C37174  10.559   0.875   2.743  1.1844 -0.7291 -0.2541
 1017MOL0     C37175  10.556   1.017   2.679  0.2810 -0.6110 -0.0214
 1017MOL0     C37176  10.597   1.125   2.780 -0.2920 -0.0400 -0.3576
 1017MOL0     N37177  10.742   1.112   2.814  0.0180 -0.0669  1.1191
 1017MOL0     C37178  10.786   1.020   2.899  0.0608 -0.7040 -0.6501
 1017MOL0     C37179  10.923   1.023   2.878 -1.0417  0.0998  0.7131
 1017MOL0     C37180  11.021   0.934   2.942 -0.7055  0.4936  0.1889
 1017MOL0     C37181  11.012   0.780   2.891  0.1811 -0.7849  0.2246
 1017MOL0     C37182  10.914   0.696   2.982 -0.1850 -0.0046 -0.0662
 1017MOL0     C37183  10.877   0.560   2.933  0.6365 -0.8932 -0.0941
 1017MOL0     O37184  10.933   0.453   3.001  0.3636 -0.2447 -0.3342
 1017MOL0     C37185  11.069   0.433   2.967 -0.2784 -0.6793 -0.2101
 1017MOL0     C37186  11.139   0.356   3.063 -1.3193 -0.7695 -0.2123
 1017MOL0     C37187  11.273   0.334   3.047 -0.0141 -0.6010 -0.2853
 1017MOL0     C37188  11.345   0.371   2.938 -0.2924  0.9081  0.3338
 1017MOL0     C37189  11.491   0.333   2.927  0.4977 -0.4662  0.2158
 1017MOL0     O37190  11.526   0.238   3.007 -0.0957 -0.4875 -0.6968
 1017MOL0     C37191  11.654   0.202   3.024 -0.6574  0.6039  0.1682
 1017MOL0     C37192  11.765   0.287   3.055  0.0361  0.0103 -0.2864
 1017MOL0     C37193  11.890   0.238   3.079 -0.4286  0.8686 -0.1778
 1017MOL0     C37194  11.914   0.107   3.043 -0.2678  0.3359 -0.1753
 1017MOL0     O37195  12.038   0.067   3.027 -0.1917 -0.2204 -0.6373
 1017MOL0     C37196  12.092   0.016   3.155 -0.0292  0.1700 -0.9419
 1017MOL0     C37197  12.186   0.110   3.218 -0.3562  0.1400  0.3818
 1017MOL0     C37198  12.316   0.137   3.138 -0.0980 -0.0615 -0.6885
 1017MOL0     C37199  12.377   0.280   3.164 -0.2927  0.8826 -0.5546
 1017MOL0     C37200  12.410   0.352   3.037  0.7926  0.6800 -0.2970
 1017MOL0     C37201  12.494   0.476   3.066  0.5643  0.5458 -0.1036
 1017MOL0     C37202  12.646   0.451   3.085  0.8554 -0.0386  0.1160
 1017MOL0     C37203  12.731   0.574   3.130  0.4736  0.6658  0.3526
 1017MOL0    Cl37204  12.903   0.519   3.147  0.4951 -0.1011  0.1066
 1017MOL0     C37205  11.812   0.013   3.028 -0.0368  0.2725  0.2689
 1017MOL0     C37206  11.683   0.068   3.012  0.0616  0.3696 -0.4197
 1017MOL0     O37207  11.564   0.376   2.835 -0.5425  0.0195 -0.6140
 1017MOL0     C37208  11.276   0.449   2.837  0.0660 -0.2470  0.1664
 1017MOL0     C37209  11.143   0.488   2.855 -0.5728  0.0501  0.2413
 1017MOL0     N37210  10.948   1.114   2.773 -0.1988  0.0653 -0.4537
 1017MOL0     N37211  10.841   1.175   2.748  0.0336  0.6899  0.1239
 1017MOL0     C37212  10.079   0.431   3.169  0.3993  0.6655 -1.1966
 1017MOL0     C37213   9.978   0.371   3.246  0.1158  0.7761 -0.5113
 1017MOL0     C37214   9.789   0.230   3.639  0.3674 -0.8226 -1.0508
 1017MOL0     C37215   9.665   0.180   3.589 -0.2895 -0.4154  0.5535
 1017MOL0     C37216   9.545   0.214   3.650  0.2343 -0.5791 -0.4850
 1017MOL0     C37217   9.544   0.295   3.770 -0.1895 -0.4925  0.2110
 1017MOL0     O37218   9.418   0.318   3.821 -0.5505 -0.6278 -0.3327
 1017MOL0     C37219   9.403   0.378   3.954 -0.9387 -0.0930 -0.7073
 1017MOL0     C37220   9.463   0.280   4.051  0.3898 -0.1723  1.1473
 1017MOL0     C37221   9.379   0.155   4.056 -0.0657  0.2958  0.3370
 1017MOL0     C37222   9.448   0.036   4.132 -0.4392 -0.8583 -0.4067
 1017MOL0     C37223   9.408  -0.086   4.063 -0.2307 -0.3543  1.5922
 1017MOL0     C37224   9.368  -0.180   3.999 -0.2638 -0.6402 -0.0497
 1017MOL0     C37225   9.665   0.344   3.811 -0.4491 -0.5513  0.2119
 1017MOL0     C37226   9.784   0.306   3.754  1.0676  0.8321  0.5346
 1017MOL0     C37227   9.901   0.366   3.824 -0.2138 -0.3764 -0.8063
 1017MOL0     H37228  10.173   0.317   3.530  1.0114 -1.3664 -0.9245
 1017MOL0     H37229  10.338   0.438   3.373 -1.2750  1.5809 -1.7326
 1017MOL0     H37230  10.380   0.354   3.045 -0.2938  1.2904  0.0188
 1017MOL0     H37231  10.267   0.450   2.944 -0.5645  2.8658 -0.5678
 1017MOL0     H37232  10.499   0.477   2.870 -1.7264 -0.0509 -0.1356
 1017MOL0     H37233  10.529   0.582   3.007 -0.7261  3.8412 -1.4579
 1017MOL0     H37234  10.410   0.738   2.937 -0.0557  0.0595 -0.7074
 1017MOL0     H37235  10.273   0.649   2.888  0.1864 -2.6700  4.6641
 1017MOL0     H37236  10.513   0.603   2.720  0.9197 -0.5280  0.8618
 1017MOL0     H37237  10.341   0.611   2.675  1.5219 -0.9356 -0.6845
 1017MOL0     H37238  10.437   0.816   2.571 -3.4195  1.0679 -0.2035
 1017MOL0     H37239  10.339   0.847   2.703 -0.9741 -0.3497 -0.5214
 1017MOL0     H37240  10.548   0.876   2.851  1.5289  0.6824 -0.2040
 1017MOL0     H37241  10.651   0.825   2.713  2.1676  1.9125 -2.0553
 1017MOL0     H37242  10.454   1.041   2.648 -0.3696 -0.6864  1.8989
 1017MOL0     H37243  10.615   1.015   2.587 -1.4032 -0.0402 -1.1660
 1017MOL0     H37244  10.579   1.226   2.740  2.6051  0.2012 -1.3308
 1017MOL0     H37245  10.545   1.107   2.874  0.4909 -0.4523 -0.0029
 1017MOL0     H37246  10.729   0.953   2.963 -1.0069 -1.5382 -2.4136
 1017MOL0     H37247  11.122   0.968   2.918 -0.5159  0.0335  0.3220
 1017MOL0     H37248  10.996   0.936   3.048  0.3488  3.0554  0.4521
 1017MOL0     H37249  10.981   0.802   2.789 -0.9714  2.1276  1.1062
 1017MOL0     H37250  11.112   0.738   2.908 -0.0456 -0.5449  2.4489
 1017MOL0     H37251  10.824   0.754   3.004  0.2676  0.1695  1.4433
 1017MOL0     H37252  10.959   0.680   3.080  0.0954  0.9849 -0.0226
 1017MOL0     H37253  10.887   0.541   2.825  4.6754 -4.8151  0.6354
 1017MOL0     H37254  10.773   0.536   2.954  1.4373 -2.7283  2.1772
 1017MOL0     H37255  11.094   0.321   3.155  0.3475 -1.1496  0.4908
 1017MOL0     H37256  11.319   0.274   3.125 -0.7340 -2.8819 -1.4874
 1017MOL0     H37257  11.746   0.393   3.068  0.1037 -0.1719  1.6335
 1017MOL0     H37258  11.975   0.293   3.117 -0.8275  0.1911  1.8598
 1017MOL0     H37259  12.012  -0.004   3.227  1.1696  0.1716  0.4238
 1017MOL0     H37260  12.151  -0.075   3.141 -0.6043 -0.9348  2.6939
 1017MOL0     H37261  12.135   0.205   3.236 -0.5382  0.5102 -1.8468
 1017MOL0     H37262  12.216   0.069   3.315 -3.3508 -0.0674  1.3370
 1017MOL0     H37263  12.392   0.062   3.159 -3.7910 -3.9536  0.0018
 1017MOL0     H37264  12.288   0.133   3.032 -1.9082 -0.0389 -0.2337
 1017MOL0     H37265  12.472   0.266   3.217 -0.6694  0.7832  0.1088
 1017MOL0     H37266  12.316   0.342   3.230  0.2144  0.2739  0.5151
 1017MOL0     H37267  12.316   0.381   2.988  0.2745  2.9389  1.8124
 1017MOL0     H37268  12.460   0.282   2.970  0.4103  0.3050 -0.1940
 1017MOL0     H37269  12.481   0.538   2.977 -0.5695  0.3062 -0.1251
 1017MOL0     H37270  12.454   0.527   3.154  1.6486 -0.6294  1.1121
 1017MOL0     H37271  12.688   0.409   2.993 -4.4127 -0.9582 -2.2101
 1017MOL0     H37272  12.650   0.365   3.153  0.5422 -2.0875 -2.3321
 1017MOL0     H37273  12.727   0.661   3.064  2.6432  1.9184  1.7605
 1017MOL0     H37274  12.700   0.610   3.228 -0.9130  0.4418  0.0254
 1017MOL0     H37275  11.830  -0.094   3.027 -3.1530 -0.3523 -1.5716
 1017MOL0     H37276  11.605  -0.007   3.006  1.3434 -1.1444  0.8158
 1017MOL0     H37277  11.343   0.487   2.760  2.0645 -1.2975  1.3003
 1017MOL0     H37278  11.112   0.560   2.780  1.4808  0.9789  0.2208
 1017MOL0     H37279  10.061   0.468   3.069 -0.5687 -1.4144 -1.8357
 1017MOL0     H37280   9.878   0.346   3.213  0.1209 -1.6636  1.0390
 1017MOL0     H37281   9.667   0.119   3.499 -3.4619 -0.1515  0.1947
 1017MOL0     H37282   9.446   0.183   3.617 -0.6427  2.6578 -1.2499
 1017MOL0     H37283   9.298   0.403   3.974 -0.1384  1.9001  1.4467
 1017MOL0     H37284   9.454   0.475   3.952 -2.4073  0.7958  1.3107
 1017MOL0     H37285   9.455   0.314   4.155 -1.3566  0.6491  0.7701
 1017MOL0     H37286   9.570   0.261   4.034  0.3536 -0.4525  1.2128
 1017MOL0     H37287   9.357   0.125   3.953  1.3781 -2.6112  0.7494
 1017MOL0     H37288   9.288   0.171   4.114 -0.8139 -0.6057 -0.5495
 1017MOL0     H37289   9.555   0.054   4.142 -0.2402 -1.2122 -1.7280
 1017MOL0     H37290   9.411   0.022   4.234  1.3547  0.8353  0.5483
 1017MOL0     H37291   9.353  -0.271   3.946 -1.2832 -0.1733 -0.6071
 1017MOL0     H37292   9.674   0.409   3.897 -0.0015 -0.4397  0.0844
 1017MOL0     H37293   9.884   0.390   3.929  1.7869  0.1900 -0.5737
 1017MOL0     H37294   9.992   0.306   3.823 -1.2544 -2.0007 -1.4435
 1017MOL0     H37295   9.927   0.461   3.776 -0.7139  2.6106  4.1641
 1018MOL0     O37296   8.288  10.764   3.572 -0.2570  0.1533 -0.2469
 1018MOL0     C37297   8.245  10.742   3.684 -0.5814  0.3267  0.7319
 1018MOL0     O37298   8.321  10.737   3.798  0.4765 -0.0972  0.2076
 1018MOL0     C37299   8.456  10.742   3.777 -0.5427 -0.3688  0.0419
 1018MOL0     C37300   8.527  10.623   3.769  0.7181  0.7201  0.3878
 1018MOL0     C37301   8.667  10.641   3.754 -0.1186  0.0199 -1.0103
 1018MOL0     C37302   8.738  10.761   3.739  0.6925 -0.0130 -0.0229
 1018MOL0     O37303   8.871  10.754   3.714  0.5064 -0.0967  0.2924
 1018MOL0     C37304   8.946  10.861   3.776 -0.1589  0.5522  0.4735
 1018MOL0     C37305   9.060  10.803   3.857 -0.3886  0.7499  0.4606
 1018MOL0     C37306   9.190  10.786   3.771 -0.0809 -0.7091 -1.0639
 1018MOL0     C37307   9.298  10.749   3.868 -0.1151  0.1429 -0.6320
 1018MOL0     C37308   9.429  10.714   3.805  0.1433  0.0787 -0.1549
 1018MOL0     C37309   9.502  10.610   3.887 -0.6068  0.1309  0.5760
 1018MOL0     C37310   9.512  10.481   3.811  0.0860 -0.3390  0.1057
 1018MOL0     C37311   9.528  10.354   3.897 -0.1356 -0.3184  0.2313
 1018MOL0     N37312   9.621  10.374   4.006  0.0238 -0.6253 -0.4339
 1018MOL0     C37313   9.758  10.399   3.983  0.7231 -0.4461  0.9962
 1018MOL0     C37314   9.805  10.455   4.092 -0.7112 -0.3731 -0.2438
 1018MOL0     C37315   9.944  10.507   4.109 -0.4924 -0.0539 -0.6893
 1018MOL0     C37316   9.975  10.623   4.026  0.1324 -1.0119 -0.0207
 1018MOL0     C37317   9.901  10.752   4.076 -0.1864  0.4771  0.2856
 1018MOL0     C37318   9.983  10.838   4.183  0.1482  0.0501  0.2746
 1018MOL0     O37319  10.018  10.752   4.293 -0.1819  0.8846  0.3281
 1018MOL0     C37320  10.132  10.787   4.371  0.9160  0.2094 -0.8686
 1018MOL0     C37321  10.182  10.689   4.463 -0.5212  0.2152 -0.9242
 1018MOL0     C37322  10.282  10.722   4.556 -0.3258  0.0136  0.3134
 1018MOL0     C37323  10.348  10.848   4.543  0.1654  1.1180 -0.6319
 1018MOL0     C37324  10.459  10.885   4.626  0.7339  0.1634 -0.2790
 1018MOL0     O37325  10.467  10.813   4.738 -0.2586  0.0854 -0.4185
 1018MOL0     C37326  10.586  10.831   4.809 -0.0418 -0.2025  0.7940
 1018MOL0     C37327  10.713  10.791   4.764  0.7385  0.1604  0.5847
 1018MOL0     C37328  10.829  10.828   4.832 -0.1298 -0.0437 -0.5274
 1018MOL0     C37329  10.821  10.906   4.947  0.2292  0.1858  0.5011
 1018MOL0     O37330  10.939  10.940   5.008 -0.1992  0.0395  0.1636
 1018MOL0     C37331  10.933  11.067   5.070 -0.1342 -0.0373  0.7073
 1018MOL0     C37332  11.072  11.120   5.083 -0.0309  0.6694 -0.2505
 1018MOL0     C37333  11.181  11.091   4.968  0.5161  0.1779 -1.0213
 1018MOL0     C37334  11.317  11.159   5.007  0.2564  0.1808 -0.3001
 1018MOL0     C37335  11.424  11.129   4.902 -0.7539 -0.1160 -0.0453
 1018MOL0     C37336  11.563  11.184   4.942  0.0200  0.1205  1.1369
 1018MOL0     C37337  11.667  11.164   4.829 -0.6242 -0.3859  0.3005
 1018MOL0     C37338  11.697  11.291   4.746 -0.4578  0.9523  0.1724
 1018MOL0    Cl37339  11.792  11.248   4.599  0.0623  0.0254 -0.5330
 1018MOL0     C37340  10.692  10.925   4.998  0.1887 -0.2595 -0.6767
 1018MOL0     C37341  10.577  10.882   4.934 -0.6578 -0.0254 -1.0959
 1018MOL0     O37342  10.540  10.969   4.587  0.1243 -0.3296  0.5618
 1018MOL0     C37343  10.308  10.936   4.450  1.3160  0.2547  0.3875
 1018MOL0     C37344  10.200  10.905   4.367 -0.5939 -0.3228 -0.1878
 1018MOL0     N37345   9.696  10.456   4.184  0.5472 -0.3191 -0.0802
 1018MOL0     N37346   9.591  10.406   4.128 -0.1206  0.2159  0.7464
 1018MOL0     C37347   8.649  10.871   3.731 -0.8430  0.5421  0.5550
 1018MOL0     C37348   8.514  10.863   3.749 -0.4245  0.7439 -0.0568
 1018MOL0     C37349   8.102  10.703   3.699 -1.1991  0.1822  0.4014
 1018MOL0     C37350   8.066  10.618   3.810 -0.0557 -0.4106 -1.2433
 1018MOL0     C37351   7.934  10.588   3.837 -0.3206  0.2677  0.0339
 1018MOL0     C37352   7.835  10.645   3.760  0.7501 -0.3474 -0.4432
 1018MOL0     O37353   7.702  10.615   3.796 -0.3300 -0.3101 -0.5899
 1018MOL0     C37354   7.596  10.682   3.731 -0.0544  0.8183  0.1817
 1018MOL0     C37355   7.481  10.661   3.821 -0.3668  0.0739  0.0771
 1018MOL0     C37356   7.352  10.702   3.757  0.2501 -0.8638  0.2354
 1018MOL0     C37357   7.237  10.684   3.862  0.2450  0.3471  0.0611
 1018MOL0     C37358   7.106  10.683   3.792  1.1402  0.8891  0.2305
 1018MOL0     C37359   6.993  10.690   3.759  0.5470  0.0468 -0.6321
 1018MOL0     C37360   7.868  10.725   3.644  0.6650 -0.6298 -0.6696
 1018MOL0     C37361   8.000  10.749   3.614  1.3358 -0.6079  0.1720
 1018MOL0     C37362   8.024  10.839   3.498 -0.3015  0.2548 -0.1780
 1018MOL0     H37363   8.467  10.533   3.779 -0.2310  1.2093 -0.7088
 1018MOL0     H37364   8.721  10.549   3.773 -0.7033 -0.1068  0.1030
 1018MOL0     H37365   8.992  10.913   3.691 -2.3493 -1.4671 -2.1277
 1018MOL0     H37366   8.891  10.940   3.828  2.1407  0.6909  2.9421
 1018MOL0     H37367   9.025  10.705   3.890 -0.3477  0.2480 -0.8865
 1018MOL0     H37368   9.074  10.869   3.943  2.3133 -0.4734  1.0875
 1018MOL0     H37369   9.210  10.876   3.712 -1.4705  0.2847 -0.0968
 1018MOL0     H37370   9.191  10.699   3.705  1.7105 -2.2295  0.8437
 1018MOL0     H37371   9.312  10.834   3.936 -0.3440  0.2404 -0.7075
 1018MOL0     H37372   9.257  10.662   3.920 -3.1860  1.5748 -0.4363
 1018MOL0     H37373   9.412  10.684   3.701  1.4978 -1.1284 -0.0663
 1018MOL0     H37374   9.481  10.809   3.790 -1.5947  1.2504  0.9345
 1018MOL0     H37375   9.605  10.647   3.896 -0.9311  2.0782 -2.2815
 1018MOL0     H37376   9.462  10.606   3.989 -0.2543 -0.9011  0.6889
 1018MOL0     H37377   9.591  10.482   3.735  0.6217 -2.0888  0.5847
 1018MOL0     H37378   9.424  10.469   3.746  1.2171 -1.8789 -1.2124
 1018MOL0     H37379   9.429  10.316   3.921 -0.1511 -1.8522 -1.9366
 1018MOL0     H37380   9.563  10.280   3.824 -1.2316  1.6078 -2.4278
 1018MOL0     H37381   9.812  10.382   3.891 -1.0232 -3.7852  0.4505
 1018MOL0     H37382   9.967  10.526   4.215  0.4318 -0.1121 -0.8654
 1018MOL0     H37383  10.002  10.418   4.082  0.4149 -0.0388  1.0696
 1018MOL0     H37384  10.082  10.646   4.034 -0.3091  1.4268 -0.4007
 1018MOL0     H37385   9.951  10.592   3.923 -2.2491 -0.4198  0.2970
 1018MOL0     H37386   9.802  10.722   4.112 -0.5152 -0.4880 -1.3274
 1018MOL0     H37387   9.892  10.823   3.994  0.8051  0.9637  0.5927
 1018MOL0     H37388   9.917  10.919   4.215 -1.0222 -0.7786  0.0096
 1018MOL0     H37389  10.071  10.875   4.131  0.2186 -1.1875 -0.5165
 1018MOL0     H37390  10.135  10.592   4.471 -0.9284  0.2049 -3.0444
 1018MOL0     H37391  10.313  10.648   4.629 -0.0670  1.3353  1.5872
 1018MOL0     H37392  10.719  10.740   4.669 -0.0992 -1.2849  1.2868
 1018MOL0     H37393  10.925  10.812   4.785  0.4603  1.1970  0.2239
 1018MOL0     H37394  10.871  11.136   5.011  2.4358  1.0813 -0.8696
 1018MOL0     H37395  10.893  11.060   5.172  0.1367  2.2713  1.0409
 1018MOL0     H37396  11.074  11.226   5.111 -0.5543  0.5517  0.2403
 1018MOL0     H37397  11.105  11.059   5.167 -0.8139  1.1655  0.4349
 1018MOL0     H37398  11.203  10.984   4.980 -2.0697 -0.2065  1.1878
 1018MOL0     H37399  11.145  11.114   4.867 -2.3071  2.5797  0.4031
 1018MOL0     H37400  11.357  11.114   5.098  1.1446 -1.2614 -1.3549
 1018MOL0     H37401  11.313  11.261   5.045 -0.3272 -0.7594  2.3232
 1018MOL0     H37402  11.395  11.179   4.808  1.9610  0.0687 -0.8666
 1018MOL0     H37403  11.427  11.023   4.874  0.6026 -0.0918 -0.0593
 1018MOL0     H37404  11.556  11.290   4.968  1.0351 -0.0735  2.3502
 1018MOL0     H37405  11.596  11.146   5.039 -1.4168  3.2477  3.0163
 1018MOL0     H37406  11.632  11.087   4.759  1.3375  0.6714 -1.9813
 1018MOL0     H37407  11.759  11.121   4.869  0.7530 -1.5852 -3.6390
 1018MOL0     H37408  11.604  11.340   4.714 -0.8914 -0.0604 -0.1575
 1018MOL0     H37409  11.743  11.366   4.811  1.5282 -1.2716  1.4853
 1018MOL0     H37410  10.669  10.969   5.094 -2.7016 -0.3686 -1.2082
 1018MOL0     H37411  10.481  10.891   4.983 -0.2491  1.1732 -0.4717
 1018MOL0     H37412  10.354  11.034   4.447 -0.4123  1.1341  1.0131
 1018MOL0     H37413  10.179  10.981   4.292  0.8252 -0.5191 -0.8251
 1018MOL0     H37414   8.696  10.969   3.724  1.1202 -0.0027  3.8401
 1018MOL0     H37415   8.458  10.956   3.743 -1.8483 -0.0708  0.2600
 1018MOL0     H37416   8.143  10.592   3.882 -1.2456  4.1493  2.0976
 1018MOL0     H37417   7.896  10.532   3.922 -2.8287  1.7910  0.0204
 1018MOL0     H37418   7.575  10.636   3.634  1.5547 -0.6057  0.4610
 1018MOL0     H37419   7.623  10.788   3.724  2.4258  0.1280 -2.5315
 1018MOL0     H37420   7.502  10.729   3.903 -2.1602  0.2344  0.4251
 1018MOL0     H37421   7.475  10.554   3.846 -2.0674  0.5642  1.9996
 1018MOL0     H37422   7.319  10.644   3.671  0.6284 -1.2603  0.3573
 1018MOL0     H37423   7.355  10.809   3.733  0.5052 -0.9913 -0.3064
 1018MOL0     H37424   7.252  10.593   3.920  1.6818  0.1971 -0.5143
 1018MOL0     H37425   7.244  10.763   3.938 -0.0919 -1.7208  2.3677
 1018MOL0     H37426   6.889  10.701   3.737  0.0054 -0.4594  1.4492
 1018MOL0     H37427   7.786  10.767   3.588  2.1137  1.8450 -1.1139
 1018MOL0     H37428   8.070  10.779   3.419  1.8724  4.0492 -2.1305
 1018MOL0     H37429   7.933  10.876   3.450 -0.5081 -0.9882 -0.7696
 1018MOL0     H37430   8.086  10.926   3.525 -1.3131  1.1416 -0.6227
 1019MOL0     O37431   2.044   8.919   5.489 -0.3978  0.2207  0.4981
 1019MOL0     C37432   2.069   9.015   5.559  0.7317  0.4277  0.3616
 1019MOL0     O37433   1.967   9.108   5.589  0.5994 -0.0017  1.0496
 1019MOL0     C37434   1.851   9.084   5.521  0.4513  0.1426  0.0356
 1019MOL0     C37435   1.745   9.021   5.591  0.0727  0.4112  0.2415
 1019MOL0     C37436   1.621   9.012   5.529 -0.0903  0.1008  1.0616
 1019MOL0     C37437   1.598   9.055   5.398 -0.0195  0.5668 -0.3645
 1019MOL0     O37438   1.467   9.032   5.347  0.0007  0.0046 -0.0388
 1019MOL0     C37439   1.439   9.104   5.227  0.5252  0.0641  1.1252
 1019MOL0     C37440   1.433   9.258   5.244 -0.6840  0.8657  0.2054
 1019MOL0     C37441   1.418   9.318   5.101 -0.3079  0.2160  1.5549
 1019MOL0     C37442   1.456   9.465   5.091  1.0622  0.4576 -0.1090
 1019MOL0     C37443   1.400   9.533   4.968  0.1356 -0.2432  0.2480
 1019MOL0     C37444   1.475   9.513   4.832  0.0311 -0.2034  0.5384
 1019MOL0     C37445   1.617   9.571   4.832 -0.7345 -0.2206  0.1472
 1019MOL0     C37446   1.714   9.497   4.741  0.1983 -0.0002 -0.6492
 1019MOL0     N37447   1.854   9.552   4.774 -0.1815  0.4044 -0.0733
 1019MOL0     C37448   1.896   9.672   4.739 -0.6517 -0.1317  0.1073
 1019MOL0     C37449   2.025   9.681   4.772 -0.7975 -0.3044  0.3548
 1019MOL0     C37450   2.116   9.797   4.744  0.3872  0.7896  0.5152
 1019MOL0     C37451   2.228   9.746   4.652  0.8357 -0.2992 -0.0040
 1019MOL0     C37452   2.344   9.845   4.627 -0.8400  0.6694  0.3432
 1019MOL0     C37453   2.408   9.815   4.492 -1.1709 -0.4632  0.6351
 1019MOL0     O37454   2.523   9.905   4.469 -0.6548 -0.2051  0.3393
 1019MOL0     C37455   2.599   9.881   4.352 -0.0156  0.4319 -0.0650
 1019MOL0     C37456   2.732   9.929   4.355  0.5884 -0.2573 -0.0144
 1019MOL0     C37457   2.813   9.915   4.241  0.2947 -0.8821 -0.2743
 1019MOL0     C37458   2.777   9.843   4.127  0.0389  0.3547 -0.1726
 1019MOL0     C37459   2.857   9.841   4.006  0.3716  0.4024  0.3028
 1019MOL0     O37460   2.821   9.747   3.917 -0.3199 -0.2003  0.0724
 1019MOL0     C37461   2.910   9.719   3.813 -0.2073 -0.4552  0.8400
 1019MOL0     C37462   3.039   9.678   3.845 -0.6292 -0.2362  0.1228
 1019MOL0     C37463   3.134   9.636   3.749 -0.0812  0.0990  0.0959
 1019MOL0     C37464   3.102   9.629   3.614 -0.8484  0.2645  0.2261
 1019MOL0     O37465   3.182   9.595   3.513 -0.1164 -0.1110 -0.0489
 1019MOL0     C37466   3.324   9.572   3.536 -0.8892 -0.7112  0.3375
 1019MOL0     C37467   3.408   9.705   3.551  0.2294 -0.2933  0.1772
 1019MOL0     C37468   3.548   9.684   3.497  0.2961 -0.5412  0.3652
 1019MOL0     C37469   3.549   9.713   3.344  0.0929 -0.0044  0.0320
 1019MOL0     C37470   3.681   9.679   3.281 -0.2813 -0.1779  0.5433
 1019MOL0     C37471   3.685   9.707   3.127  0.4625 -0.8999 -0.0781
 1019MOL0     C37472   3.584   9.645   3.028 -0.1216  0.2767  0.1915
 1019MOL0     C37473   3.660   9.587   2.903  0.2723  0.3874  0.3889
 1019MOL0    Cl37474   3.581   9.444   2.842 -0.3725 -0.4725  0.0260
 1019MOL0     C37475   2.972   9.669   3.576  0.3348 -0.0371  0.2680
 1019MOL0     C37476   2.877   9.709   3.669  0.3748  0.0157  0.6852
 1019MOL0     O37477   2.957   9.911   4.007 -0.0924  0.2317 -0.2919
 1019MOL0     C37478   2.646   9.787   4.132 -0.9322 -0.2661 -0.1539
 1019MOL0     C37479   2.559   9.805   4.237  0.3307 -1.0372 -0.1944
 1019MOL0     N37480   2.064   9.572   4.843  0.0226  0.0270  0.7291
 1019MOL0     N37481   1.954   9.494   4.842 -0.1521  0.3863 -0.3331
 1019MOL0     C37482   1.707   9.112   5.329 -0.5315  0.6632  0.6248
 1019MOL0     C37483   1.825   9.135   5.392 -0.2087 -1.1741 -0.2443
 1019MOL0     C37484   2.201   9.045   5.614 -0.4102 -0.0358 -0.3041
 1019MOL0     C37485   2.206   9.143   5.715 -0.3803  0.7973  0.3570
 1019MOL0     C37486   2.329   9.184   5.765 -1.1119  0.0176  0.4283
 1019MOL0     C37487   2.457   9.149   5.715 -0.0907  0.6188  0.4166
 1019MOL0     O37488   2.578   9.193   5.758 -0.4435 -0.8488  0.7459
 1019MOL0     C37489   2.586   9.279   5.871  0.3232  0.2742 -0.4119
 1019MOL0     C37490   2.728   9.323   5.911 -0.2273 -0.6695 -0.2105
 1019MOL0     C37491   2.825   9.393   5.808 -0.5185  1.1038 -0.0039
 1019MOL0     C37492   2.940   9.476   5.867  0.6846  0.2780 -0.1357
 1019MOL0     C37493   3.041   9.387   5.921 -0.0157  0.8149 -1.0904
 1019MOL0     C37494   3.119   9.306   5.973  0.1825 -0.2435  0.7051
 1019MOL0     C37495   2.447   9.055   5.611 -0.1444  0.1675 -0.5843
 1019MOL0     C37496   2.322   9.011   5.556 -0.4100  0.2711  0.7013
 1019MOL0     C37497   2.330   8.922   5.430 -0.7287  0.0997 -0.2699
 1019MOL0     H37498   1.767   8.982   5.690 -0.4704 -0.5663 -0.0099
 1019MOL0     H37499   1.540   8.967   5.586 -1.6484  0.7325 -0.5526
 1019MOL0     H37500   1.512   9.080   5.149  0.6284 -1.4438  1.6710
 1019MOL0     H37501   1.351   9.065   5.175  1.4337  0.8718 -1.1353
 1019MOL0     H37502   1.520   9.301   5.294  0.2201 -0.0753 -0.4931
 1019MOL0     H37503   1.349   9.306   5.294 -0.5429  4.2351 -2.3846
 1019MOL0     H37504   1.318   9.305   5.059  1.4084  2.5990 -4.4457
 1019MOL0     H37505   1.475   9.256   5.031 -2.5161 -1.7992  1.4195
 1019MOL0     H37506   1.425   9.512   5.185 -2.0120  0.1828 -0.8596
 1019MOL0     H37507   1.564   9.482   5.092  0.9120  1.4895 -0.8148
 1019MOL0     H37508   1.296   9.504   4.950  0.3630 -0.7724 -0.2724
 1019MOL0     H37509   1.391   9.641   4.983 -2.4080 -0.6883  2.8019
 1019MOL0     H37510   1.489   9.407   4.809  2.4981  0.0960  0.4830
 1019MOL0     H37511   1.413   9.552   4.750  2.4479 -1.6343 -2.1410
 1019MOL0     H37512   1.667   9.568   4.929  2.1536 -0.0930 -1.2436
 1019MOL0     H37513   1.611   9.674   4.794  0.8071 -0.2363 -0.1833
 1019MOL0     H37514   1.715   9.389   4.757 -1.2674 -0.0063 -0.4468
 1019MOL0     H37515   1.696   9.497   4.633  2.4036  3.0327 -1.1631
 1019MOL0     H37516   1.834   9.743   4.684  0.2563  0.3429 -0.3307
 1019MOL0     H37517   2.057   9.878   4.701 -2.4018 -0.6228  1.4069
 1019MOL0     H37518   2.158   9.840   4.836 -0.5436  3.1137 -0.0798
 1019MOL0     H37519   2.272   9.660   4.703  0.6735 -0.2241  0.2649
 1019MOL0     H37520   2.175   9.716   4.561 -1.2744  0.8498  0.7659
 1019MOL0     H37521   2.417   9.823   4.705 -2.0537 -0.9745  1.0741
 1019MOL0     H37522   2.305   9.947   4.638  1.3179  1.8024 -1.6199
 1019MOL0     H37523   2.340   9.821   4.407 -0.4927 -1.6675 -0.0203
 1019MOL0     H37524   2.453   9.715   4.498  0.5814 -0.1787 -3.7875
 1019MOL0     H37525   2.753   9.993   4.440 -3.3386  1.0402  0.1781
 1019MOL0     H37526   2.911   9.959   4.259 -0.1131 -0.2790  0.5694
 1019MOL0     H37527   3.074   9.682   3.947 -0.2984  0.7995 -0.0224
 1019MOL0     H37528   3.233   9.602   3.778  1.1946  0.7429 -3.0917
 1019MOL0     H37529   3.347   9.504   3.619  3.6432 -0.1609 -0.2006
 1019MOL0     H37530   3.367   9.516   3.452 -0.2461 -0.5745  0.5678
 1019MOL0     H37531   3.352   9.785   3.502  1.3640 -0.9139 -2.2845
 1019MOL0     H37532   3.415   9.715   3.660  0.6646 -2.5267  0.3960
 1019MOL0     H37533   3.614   9.750   3.555 -1.3134  0.3879  1.2126
 1019MOL0     H37534   3.572   9.581   3.522 -0.6267 -0.9265 -0.3065
 1019MOL0     H37535   3.529   9.820   3.331  0.8015  0.1003 -0.2158
 1019MOL0     H37536   3.469   9.656   3.296 -1.2571  0.9038  1.1221
 1019MOL0     H37537   3.701   9.572   3.287 -0.5668 -0.5882 -3.3859
 1019MOL0     H37538   3.768   9.730   3.325 -0.5619  1.0787 -0.2881
 1019MOL0     H37539   3.687   9.817   3.121  1.9805 -0.8218  1.1597
 1019MOL0     H37540   3.783   9.677   3.087  0.4117  0.0846 -1.0145
 1019MOL0     H37541   3.509   9.717   2.994 -0.0361 -0.2311 -1.1333
 1019MOL0     H37542   3.532   9.559   3.071  1.6635 -1.0512 -0.1805
 1019MOL0     H37543   3.665   9.668   2.830 -1.3566  1.4226  1.3669
 1019MOL0     H37544   3.758   9.547   2.933 -0.5653 -1.7600  0.4624
 1019MOL0     H37545   2.943   9.673   3.472  0.4288  3.3350  0.2337
 1019MOL0     H37546   2.774   9.705   3.635 -0.2057  0.3173  2.2873
 1019MOL0     H37547   2.617   9.721   4.051 -0.5107 -0.0868 -0.4494
 1019MOL0     H37548   2.461   9.758   4.237 -0.3987  0.4298  0.1417
 1019MOL0     H37549   1.695   9.135   5.224  2.0561  0.7783  0.3056
 1019MOL0     H37550   1.904   9.174   5.328  2.6576  1.3793  4.3167
 1019MOL0     H37551   2.117   9.187   5.759  0.2972  3.3899 -0.6718
 1019MOL0     H37552   2.326   9.258   5.844  0.2081  0.5610 -0.0052
 1019MOL0     H37553   2.531   9.246   5.960  0.8008 -0.4998 -0.3923
 1019MOL0     H37554   2.532   9.369   5.841 -0.3757  1.6010  4.0112
 1019MOL0     H37555   2.786   9.238   5.948 -0.2782 -0.8452 -0.5357
 1019MOL0     H37556   2.734   9.382   6.004  0.3892 -1.1979  0.0921
 1019MOL0     H37557   2.771   9.461   5.741 -0.1985  1.1867 -0.1781
 1019MOL0     H37558   2.867   9.320   5.739  0.6835  0.9849  0.8160
 1019MOL0     H37559   2.984   9.539   5.789  1.5578 -1.1414 -0.8290
 1019MOL0     H37560   2.896   9.539   5.945 -0.2064  3.3755 -2.9366
 1019MOL0     H37561   3.186   9.252   6.037 -0.4005  0.0706  1.5877
 1019MOL0     H37562   2.536   9.023   5.558 -1.0661 -1.4425 -1.2487
 1019MOL0     H37563   2.263   8.942   5.345  0.3766  2.4455 -0.6707
 1019MOL0     H37564   2.430   8.925   5.386 -0.8779  0.3701 -0.6032
 1019MOL0     H37565   2.309   8.819   5.459 -2.4353  0.4263 -0.2602
 1020MOL0     O37566   8.483   2.368   8.800  0.4708 -0.7997 -0.6296
 1020MOL0     C37567   8.473   2.276   8.879 -0.3583 -0.6719  0.3777
 1020MOL0     O37568   8.527   2.274   9.008  0.1951 -0.3964  0.3935
 1020MOL0     C37569   8.603   2.384   9.046  0.0040 -0.5924  0.5844
 1020MOL0     C37570   8.734   2.361   9.086  0.6380  0.1736 -0.8966
 1020MOL0     C37571   8.801   2.473   9.150  0.2280  0.5300 -0.5971
 1020MOL0     C37572   8.740   2.599   9.174 -0.0567 -0.0857  0.0670
 1020MOL0     O37573   8.799   2.703   9.234  0.9834  0.0662 -0.0549
 1020MOL0     C37574   8.898   2.695   9.340 -0.3404  0.3788  0.1754
 1020MOL0     C37575   8.953   2.836   9.370 -0.6023  0.4546 -0.2594
 1020MOL0     C37576   9.069   2.841   9.472  0.3796  0.7035  0.4204
 1020MOL0     C37577   9.121   2.991   9.491  0.5275  0.7324 -0.9631
 1020MOL0     C37578   9.232   2.995   9.592  0.0141  0.6886 -0.4211
 1020MOL0     C37579   9.352   2.938   9.524 -0.2268  0.0903 -0.8616
 1020MOL0     C37580   9.481   2.983   9.595 -0.7752  0.2784 -0.0501
 1020MOL0     C37581   9.496   2.926   9.728 -0.0818  1.2786 -0.0346
 1020MOL0     N37582   9.626   2.972   9.779  0.0458  0.3338 -0.2401
 1020MOL0     C37583   9.657   3.100   9.819  0.0639  0.0617 -0.1348
 1020MOL0     C37584   9.790   3.094   9.844  0.8031  0.0964  0.3858
 1020MOL0     C37585   9.875   3.220   9.876 -0.2377  0.2478 -0.0913
 1020MOL0     C37586  10.023   3.205   9.858  0.1338 -0.0053  0.7074
 1020MOL0     C37587  10.087   3.099   9.941 -0.1852  0.0121 -0.2981
 1020MOL0     C37588  10.237   3.129   9.981 -0.0413  0.1191 -0.5047
 1020MOL0     O37589  10.315   3.136   9.865  0.2927 -0.4336 -0.1161
 1020MOL0     C37590  10.433   3.204   9.868  0.6002  0.4357 -0.4588
 1020MOL0     C37591  10.499   3.253   9.983 -0.3384 -0.8201 -0.1843
 1020MOL0     C37592  10.619   3.322   9.973  0.4329 -0.7561  0.3276
 1020MOL0     C37593  10.668   3.354   9.840 -0.4046 -0.8170  0.6431
 1020MOL0     C37594  10.790   3.435   9.820  0.5448  0.0713  0.1361
 1020MOL0     O37595  10.842   3.491   9.931 -0.5075 -0.8747 -0.1711
 1020MOL0     C37596  10.929   3.597   9.910 -0.6439  0.3070  0.0910
 1020MOL0     C37597  11.045   3.592   9.981 -0.5771  0.3174 -0.3626
 1020MOL0     C37598  11.155   3.670   9.949 -0.1723 -0.2206  0.3035
 1020MOL0     C37599  11.135   3.770   9.849 -0.4779  0.3910  0.7465
 1020MOL0     O37600  11.247   3.847   9.810 -0.1360 -0.0722  0.1494
 1020MOL0     C37601  11.248   3.892   9.677 -0.4418  0.3554  0.7401
 1020MOL0     C37602  11.205   4.042   9.665 -0.6549 -0.5202  0.6719
 1020MOL0     C37603  11.264   4.102   9.535 -0.3056  0.6075 -0.7159
 1020MOL0     C37604  11.242   4.249   9.503 -0.2622  0.1684 -0.4254
 1020MOL0     C37605  11.314   4.277   9.366 -1.0375  0.2587 -0.5587
 1020MOL0     C37606  11.247   4.217   9.235 -0.5287 -0.5799  0.5973
 1020MOL0     C37607  11.105   4.268   9.214  0.0145 -0.2424 -0.0210
 1020MOL0     C37608  11.055   4.225   9.073 -0.1510 -0.2306  0.7207
 1020MOL0    Cl37609  11.140   4.323   8.954  0.3091 -0.1556  0.0922
 1020MOL0     C37610  11.004   3.787   9.788 -0.4512 -0.0216  0.0802
 1020MOL0     C37611  10.903   3.698   9.822 -0.9683  0.0022 -0.2423
 1020MOL0     O37612  10.820   3.449   9.700 -0.5807  0.0814 -0.3307
 1020MOL0     C37613  10.602   3.307   9.724 -0.7877  0.4394 -0.3107
 1020MOL0     C37614  10.481   3.231   9.743 -0.8662 -0.0712  0.2536
 1020MOL0     N37615   9.828   2.966   9.815 -0.5321  0.7148  0.2817
 1020MOL0     N37616   9.737   2.897   9.771  0.5797 -0.5786 -0.0696
 1020MOL0     C37617   8.612   2.624   9.118 -0.3125 -0.1320  0.2167
 1020MOL0     C37618   8.542   2.511   9.053 -0.4944 -0.5758 -0.2715
 1020MOL0     C37619   8.392   2.163   8.834  0.6913  0.3299 -0.1488
 1020MOL0     C37620   8.266   2.184   8.781 -0.4347  0.6506  0.7716
 1020MOL0     C37621   8.172   2.083   8.760 -0.8274  0.3764  0.1889
 1020MOL0     C37622   8.212   1.948   8.787  1.1440  0.5204 -1.0427
 1020MOL0     O37623   8.133   1.840   8.759 -0.3828  0.2600  0.3180
 1020MOL0     C37624   8.008   1.847   8.831  0.6319 -0.2272 -0.5684
 1020MOL0     C37625   7.958   1.699   8.846 -0.6468 -1.0879  0.8381
 1020MOL0     C37626   7.920   1.627   8.719 -0.1666  0.2408 -0.1864
 1020MOL0     C37627   7.800   1.673   8.637  0.0282 -0.4790 -0.3903
 1020MOL0     C37628   7.679   1.647   8.715 -0.3298  0.5832 -0.0086
 1020MOL0     C37629   7.569   1.625   8.770 -0.4037 -0.1193 -0.3539
 1020MOL0     C37630   8.342   1.923   8.831 -0.2128 -0.6198  0.1368
 1020MOL0     C37631   8.432   2.028   8.858  0.7486 -0.6337  0.3542
 1020MOL0     C37632   8.566   1.981   8.910 -0.0142  0.0199  0.4481
 1020MOL0     H37633   8.797   2.278   9.055  2.2124  0.3328  1.5510
 1020MOL0     H37634   8.899   2.458   9.193 -0.1768 -3.8932 -0.7519
 1020MOL0     H37635   8.857   2.656   9.433 -0.1208 -1.4709 -0.4719
 1020MOL0     H37636   8.985   2.632   9.319 -0.5774 -0.7011  2.2710
 1020MOL0     H37637   8.876   2.894   9.422  2.2406  1.7141  2.9117
 1020MOL0     H37638   8.979   2.884   9.276  0.2276 -1.1588 -0.8945
 1020MOL0     H37639   9.152   2.780   9.437  0.2990  0.8676 -0.0598
 1020MOL0     H37640   9.026   2.807   9.567 -2.3118 -1.5597 -1.4195
 1020MOL0     H37641   9.150   3.037   9.396 -1.5883  3.2449 -0.5023
 1020MOL0     H37642   9.040   3.055   9.526  1.0413 -0.2579  2.3357
 1020MOL0     H37643   9.247   3.099   9.623  1.4260  0.2571  0.4502
 1020MOL0     H37644   9.205   2.936   9.680 -1.0814  1.8395  0.0411
 1020MOL0     H37645   9.338   2.830   9.524 -1.1131  0.1892 -0.9506
 1020MOL0     H37646   9.375   2.970   9.422  1.9842  3.4370  0.5086
 1020MOL0     H37647   9.472   3.092   9.591 -1.0848  0.2301 -1.8914
 1020MOL0     H37648   9.565   2.936   9.543  1.1167  0.6213  2.4885
 1020MOL0     H37649   9.417   2.958   9.797 -0.2900 -0.3882  0.5417
 1020MOL0     H37650   9.492   2.817   9.732  1.8827  1.1896  1.4696
 1020MOL0     H37651   9.587   3.183   9.810 -2.6113 -2.0291  0.2128
 1020MOL0     H37652   9.846   3.301   9.809 -2.3388  1.7684  2.4338
 1020MOL0     H37653   9.852   3.247   9.980  3.6076 -1.9899  1.5476
 1020MOL0     H37654  10.039   3.201   9.750 -2.1551  2.6508  0.1559
 1020MOL0     H37655  10.062   3.300   9.895 -2.2867  1.6086 -0.5887
 1020MOL0     H37656  10.091   3.011   9.876  0.8737  0.5717 -1.0189
 1020MOL0     H37657  10.016   3.054  10.011 -1.9995  0.3914 -1.8363
 1020MOL0     H37658  10.285   3.065  10.055 -0.3590  1.6592  1.1065
 1020MOL0     H37659  10.229   3.229  10.024  0.4424  0.7294 -1.7850
 1020MOL0     H37660  10.462   3.244  10.084  1.9149 -2.8952  0.5561
 1020MOL0     H37661  10.664   3.365  10.062 -0.2568 -0.2962  0.4618
 1020MOL0     H37662  11.059   3.515  10.057 -0.9502 -1.3037 -1.8667
 1020MOL0     H37663  11.255   3.663   9.990  0.3257  0.3785 -0.7819
 1020MOL0     H37664  11.345   3.880   9.630  0.2524 -2.1140  2.5650
 1020MOL0     H37665  11.192   3.818   9.618  0.1985  0.5801 -0.1615
 1020MOL0     H37666  11.097   4.046   9.679 -0.5460 -1.4818  1.9945
 1020MOL0     H37667  11.252   4.100   9.746 -0.5103 -0.1804  0.3467
 1020MOL0     H37668  11.373   4.093   9.535 -0.2409  0.6109 -3.5132
 1020MOL0     H37669  11.227   4.043   9.451  0.6540 -0.8098 -0.1742
 1020MOL0     H37670  11.285   4.308   9.585 -1.0990 -1.6635  1.4142
 1020MOL0     H37671  11.137   4.271   9.484 -0.0509 -0.1951 -2.1841
 1020MOL0     H37672  11.419   4.246   9.375 -1.4942 -1.1643  0.3054
 1020MOL0     H37673  11.313   4.385   9.348  0.7939 -0.0488 -3.1945
 1020MOL0     H37674  11.302   4.256   9.148 -2.2547 -0.2999 -0.4116
 1020MOL0     H37675  11.262   4.110   9.247  2.6680 -0.1720  1.0595
 1020MOL0     H37676  11.108   4.376   9.233  2.4593 -0.3686  0.7286
 1020MOL0     H37677  11.046   4.217   9.289 -0.3271  0.5155  0.2380
 1020MOL0     H37678  11.071   4.121   9.041  1.5422  0.5965 -1.3645
 1020MOL0     H37679  10.951   4.255   9.065  0.4623  2.0911  0.9028
 1020MOL0     H37680  10.987   3.870   9.719  1.4781  2.8127  2.7389
 1020MOL0     H37681  10.806   3.696   9.774 -0.3816 -1.8626 -1.4527
 1020MOL0     H37682  10.648   3.313   9.626  1.9898 -0.4072  0.8259
 1020MOL0     H37683  10.427   3.199   9.655 -1.5199  1.0927  0.2172
 1020MOL0     H37684   8.571   2.724   9.124  1.4227  0.6575 -0.4447
 1020MOL0     H37685   8.440   2.517   9.017  0.0009 -0.3587 -1.6773
 1020MOL0     H37686   8.227   2.285   8.773 -2.9663 -0.1131  2.4752
 1020MOL0     H37687   8.079   2.119   8.719  0.0282  0.0506 -2.2148
 1020MOL0     H37688   7.933   1.906   8.777 -0.5716 -0.5259  0.7402
 1020MOL0     H37689   8.022   1.892   8.930  1.5269  1.6851 -1.5181
 1020MOL0     H37690   7.886   1.691   8.928 -0.6124  3.6303  1.5894
 1020MOL0     H37691   8.042   1.638   8.881  1.4505  0.6747 -0.7899
 1020MOL0     H37692   7.900   1.524   8.746  0.1414 -0.6596 -3.0108
 1020MOL0     H37693   8.007   1.632   8.652 -0.2947  1.8092 -0.2795
 1020MOL0     H37694   7.807   1.779   8.613 -0.4171 -0.4427 -0.3575
 1020MOL0     H37695   7.804   1.617   8.543 -0.2280  1.3457 -1.5310
 1020MOL0     H37696   7.471   1.631   8.812  0.8286  0.0783  2.7251
 1020MOL0     H37697   8.374   1.823   8.860  2.3455  0.7130  2.2564
 1020MOL0     H37698   8.571   1.929   9.006 -0.7478 -0.4859  0.2175
 1020MOL0     H37699   8.607   1.907   8.841 -0.1204 -2.6578  3.0621
 1020MOL0     H37700   8.633   2.067   8.916  0.6278 -0.4281 -0.0828
 1021MOL0     O37701   7.802   9.481   1.398  0.3147 -0.6951  0.2557
 1021MOL0     C37702   7.694   9.523   1.440  0.6705 -0.7066 -0.0966
 1021MOL0     O37703   7.681   9.632   1.512  0.2510 -0.2701 -0.3139
 1021MOL0     C37704   7.793   9.695   1.555  0.0333  0.1903 -0.0534
 1021MOL0     C37705   7.783   9.837   1.550  0.4884  0.4590  0.2453
 1021MOL0     C37706   7.901   9.896   1.598 -0.0099 -0.2815  0.0076
 1021MOL0     C37707   8.017   9.826   1.646 -0.5587 -0.3421  0.3606
 1021MOL0     O37708   8.139   9.887   1.681 -0.1483  0.1258 -0.0314
 1021MOL0     C37709   8.160  10.021   1.632 -0.2112 -0.1329  0.8764
 1021MOL0     C37710   8.314  10.042   1.621  0.1252  0.7342  0.1994
 1021MOL0     C37711   8.385  10.044   1.748 -0.3129 -0.0086 -0.4587
 1021MOL0     C37712   8.535  10.059   1.730 -0.4048 -0.2160 -0.9776
 1021MOL0     C37713   8.610  10.020   1.857 -0.4739  1.3441 -0.4319
 1021MOL0     C37714   8.751  10.073   1.846  0.3938  0.5660  0.2093
 1021MOL0     C37715   8.810  10.083   1.988 -0.3646  1.7024  0.0296
 1021MOL0     C37716   8.941  10.154   1.979 -0.3334  0.2271  0.2275
 1021MOL0     N37717   9.000  10.153   2.104 -0.1023 -0.8528 -0.0981
 1021MOL0     C37718   9.105  10.072   2.136  0.0879  0.3318 -0.5716
 1021MOL0     C37719   9.143  10.110   2.253 -0.4779  0.4900  0.1781
 1021MOL0     C37720   9.253  10.055   2.333 -0.1558  0.4172 -0.0158
 1021MOL0     C37721   9.375  10.140   2.339  1.2591  0.4306  0.8018
 1021MOL0     C37722   9.477  10.086   2.435 -0.2878 -0.4317  0.2499
 1021MOL0     C37723   9.594  10.172   2.437  0.5742 -0.0211  0.7920
 1021MOL0     O37724   9.662  10.133   2.548 -1.0044 -1.3591  0.5399
 1021MOL0     C37725   9.786  10.179   2.564  0.6253  0.0476  0.0322
 1021MOL0     C37726   9.839  10.287   2.489  0.4687  0.7851 -0.8219
 1021MOL0     C37727   9.971  10.335   2.512 -0.1949  0.3129  0.2654
 1021MOL0     C37728  10.060  10.255   2.587 -0.4033 -0.1805 -0.0897
 1021MOL0     C37729  10.210  10.294   2.590  1.7516  0.0723 -0.8532
 1021MOL0     O37730  10.264  10.278   2.711  0.0788  0.1104  0.2811
 1021MOL0     C37731  10.402  10.264   2.708  0.1901 -0.0370 -0.3749
 1021MOL0     C37732  10.460  10.136   2.700  1.2548 -0.4738  0.4589
 1021MOL0     C37733  10.597  10.121   2.688 -0.2039  0.9116  0.4702
 1021MOL0     C37734  10.687  10.234   2.686 -0.5934 -0.2879  0.4395
 1021MOL0     O37735  10.819  10.199   2.664 -0.6829  0.0097  0.0717
 1021MOL0     C37736  10.917  10.305   2.642  0.2166  0.2681  0.6743
 1021MOL0     C37737  11.058  10.245   2.632 -0.0369 -0.2185  0.9263
 1021MOL0     C37738  11.100  10.159   2.756 -0.2402  0.4467  0.3117
 1021MOL0     C37739  11.213  10.069   2.714  0.1915 -0.2844 -0.3545
 1021MOL0     C37740  11.243   9.954   2.809 -1.1475 -0.5559 -0.9525
 1021MOL0     C37741  11.165   9.830   2.775  0.2046 -0.8925 -0.7983
 1021MOL0     C37742  11.138   9.735   2.896 -0.6448 -0.8289 -0.0911
 1021MOL0     C37743  11.033   9.787   2.985 -0.1361 -0.0391  0.1960
 1021MOL0    Cl37744  10.902   9.867   2.911  0.4022 -0.4543  0.0549
 1021MOL0     C37745  10.638  10.358   2.710 -0.2095 -0.5779 -1.1124
 1021MOL0     C37746  10.493  10.372   2.718 -0.8366 -0.5133  0.1284
 1021MOL0     O37747  10.266  10.309   2.483 -0.1567 -0.2047 -0.3860
 1021MOL0     C37748  10.012  10.147   2.659 -0.1920  0.6986  0.0043
 1021MOL0     C37749   9.870  10.113   2.656 -0.2988 -0.0459 -0.7303
 1021MOL0     N37750   9.058  10.201   2.300  0.7817  0.5165  0.2626
 1021MOL0     N37751   8.974  10.236   2.209 -0.1310  0.0872  0.1488
 1021MOL0     C37752   8.017   9.684   1.661  0.2583  0.2218  1.5478
 1021MOL0     C37753   7.901   9.627   1.606 -0.0715 -0.8153 -0.9041
 1021MOL0     C37754   7.568   9.445   1.421  0.5067  0.4419 -0.2219
 1021MOL0     C37755   7.463   9.466   1.511 -0.1507 -0.0766  1.0507
 1021MOL0     C37756   7.340   9.409   1.493 -0.1937  0.3607  0.2285
 1021MOL0     C37757   7.326   9.305   1.395 -1.0105  0.0769  0.8576
 1021MOL0     O37758   7.215   9.227   1.372  0.2676  0.5288  0.4553
 1021MOL0     C37759   7.142   9.184   1.492  0.2607  0.8342  0.2075
 1021MOL0     C37760   7.020   9.105   1.437  0.6715  0.2938  0.5382
 1021MOL0     C37761   7.063   8.965   1.376  0.0914  0.1439 -0.7132
 1021MOL0     C37762   6.999   8.913   1.248  0.3446 -0.1416  0.5936
 1021MOL0     C37763   7.036   8.994   1.126  0.0464 -0.3096 -0.7136
 1021MOL0     C37764   7.056   9.069   1.038  0.3564 -0.6539 -0.2237
 1021MOL0     C37765   7.437   9.277   1.315  0.8482 -0.2000  0.3732
 1021MOL0     C37766   7.561   9.341   1.324  0.6381  0.3298  0.6063
 1021MOL0     C37767   7.667   9.294   1.226  0.3283 -0.0757  0.8862
 1021MOL0     H37768   7.700   9.898   1.517 -1.3704 -0.6920  2.5470
 1021MOL0     H37769   7.903  10.004   1.599 -3.1593 -0.1094 -1.0664
 1021MOL0     H37770   8.123  10.025   1.529  0.6542 -4.4795  0.2051
 1021MOL0     H37771   8.112  10.086   1.705  1.8041 -0.6388  2.7650
 1021MOL0     H37772   8.335  10.143   1.585  0.5529  1.2521  1.8137
 1021MOL0     H37773   8.350   9.964   1.553 -0.8197  1.1724 -0.8430
 1021MOL0     H37774   8.362   9.958   1.812 -1.9075 -0.7861 -1.9879
 1021MOL0     H37775   8.352  10.133   1.800  0.7974  2.4074 -3.5704
 1021MOL0     H37776   8.575   9.988   1.657 -0.3701  0.4147 -1.5814
 1021MOL0     H37777   8.562  10.155   1.686  0.2567 -0.9578 -2.2646
 1021MOL0     H37778   8.557  10.058   1.944  0.2368 -1.6416  1.4491
 1021MOL0     H37779   8.607   9.912   1.876 -0.7834  1.6417  1.3813
 1021MOL0     H37780   8.809  10.001   1.787 -0.7970 -1.5061  1.4302
 1021MOL0     H37781   8.751  10.168   1.792  0.4666  1.0962  1.1280
 1021MOL0     H37782   8.827   9.983   2.029  0.3336  0.5953 -2.7578
 1021MOL0     H37783   8.735  10.141   2.041 -0.8198  1.0779  0.0794
 1021MOL0     H37784   9.006  10.088   1.921  1.3334  2.1059 -0.1580
 1021MOL0     H37785   8.938  10.255   1.937  1.7978 -0.4254 -1.6327
 1021MOL0     H37786   9.147   9.992   2.075 -1.1564  1.4059 -3.0014
 1021MOL0     H37787   9.209  10.051   2.433  3.0694  0.5429  1.5383
 1021MOL0     H37788   9.273   9.950   2.311 -1.0023  0.2633 -0.0896
 1021MOL0     H37789   9.422  10.154   2.241 -0.6505 -0.6799 -0.3555
 1021MOL0     H37790   9.341  10.237   2.376  1.9347  1.8345 -1.9525
 1021MOL0     H37791   9.498   9.981   2.410  3.7251  0.3663 -0.4254
 1021MOL0     H37792   9.424  10.087   2.531  2.2675  2.0191  1.7974
 1021MOL0     H37793   9.550  10.271   2.455  1.3097  0.7651 -1.3549
 1021MOL0     H37794   9.662  10.165   2.351 -0.0040 -1.3563  0.4173
 1021MOL0     H37795   9.796  10.347   2.410  0.5618 -1.1127 -2.4151
 1021MOL0     H37796  10.007  10.424   2.461 -0.0414  0.5347  0.7628
 1021MOL0     H37797  10.395  10.051   2.719  0.7409 -0.3822 -0.7958
 1021MOL0     H37798  10.648  10.025   2.690 -1.0613  0.4587  2.0381
 1021MOL0     H37799  10.892  10.362   2.552 -0.2001  2.4991  2.1167
 1021MOL0     H37800  10.930  10.388   2.712 -0.8652  0.6794  0.4032
 1021MOL0     H37801  11.087  10.188   2.543 -0.0471  0.7043  0.3185
 1021MOL0     H37802  11.117  10.337   2.641 -0.4975  0.1969 -0.1559
 1021MOL0     H37803  11.128  10.238   2.826 -4.6390  3.7554 -1.1503
 1021MOL0     H37804  11.020  10.094   2.794 -0.0249  0.3283  0.5601
 1021MOL0     H37805  11.300  10.131   2.689  0.9708 -0.8625  0.7933
 1021MOL0     H37806  11.170  10.021   2.626  0.8349 -0.5245 -0.5442
 1021MOL0     H37807  11.220   9.991   2.910  0.9975  0.0558 -0.6476
 1021MOL0     H37808  11.349   9.927   2.814 -0.5338  1.6747 -0.7557
 1021MOL0     H37809  11.075   9.857   2.718  0.2711  1.6478  0.1799
 1021MOL0     H37810  11.233   9.779   2.707 -1.3400 -3.8925 -0.2845
 1021MOL0     H37811  11.228   9.709   2.952 -1.3150 -2.2627  0.3606
 1021MOL0     H37812  11.106   9.639   2.852 -0.0310 -1.0867  0.0086
 1021MOL0     H37813  10.999   9.710   3.054  1.7668 -1.8441 -0.7382
 1021MOL0     H37814  11.062   9.867   3.053 -2.3999  1.7193 -0.7931
 1021MOL0     H37815  10.713  10.437   2.713 -1.1180  0.3278 -1.7210
 1021MOL0     H37816  10.445  10.469   2.716 -3.7022 -1.8057 -2.7786
 1021MOL0     H37817  10.081  10.085   2.715  3.1884  2.9305 -1.3333
 1021MOL0     H37818   9.831  10.038   2.724 -1.1861  3.2782  2.7955
 1021MOL0     H37819   8.106   9.628   1.689  0.6136 -0.7858 -1.2585
 1021MOL0     H37820   7.906   9.518   1.604  1.8540 -0.7987  0.2847
 1021MOL0     H37821   7.475   9.545   1.585 -1.1798  1.5924 -0.4837
 1021MOL0     H37822   7.253   9.441   1.550 -0.8534  1.5035 -1.3467
 1021MOL0     H37823   7.106   9.266   1.554  1.0311  0.9858  0.4659
 1021MOL0     H37824   7.213   9.130   1.555  0.4342  1.4934  0.5807
 1021MOL0     H37825   6.977   9.157   1.351  0.3066 -0.7114  0.0930
 1021MOL0     H37826   6.937   9.093   1.507 -2.1102  1.2152 -2.3540
 1021MOL0     H37827   7.037   8.888   1.450 -1.0487 -0.0522 -1.3098
 1021MOL0     H37828   7.172   8.960   1.370  0.1524 -1.4037  0.7871
 1021MOL0     H37829   7.022   8.808   1.227  2.2640  0.5622 -1.2744
 1021MOL0     H37830   6.891   8.913   1.263  0.5449  0.6568  2.3307
 1021MOL0     H37831   7.087   9.127   0.953  0.1152 -0.9421 -0.5130
 1021MOL0     H37832   7.419   9.197   1.244 -1.1528  1.9064 -1.6651
 1021MOL0     H37833   7.766   9.282   1.271  0.5452 -0.8251  0.2387
 1021MOL0     H37834   7.641   9.195   1.188  2.2691  0.2613 -1.5101
 1021MOL0     H37835   7.697   9.365   1.149 -0.5382 -0.0723  0.5457
 1022MOL0     O37836   2.025   3.246   6.717 -0.1415  0.6021  0.2367
 1022MOL0     C37837   2.006   3.368   6.711 -0.3641 -0.5715 -0.1285
 1022MOL0     O37838   2.056   3.447   6.614 -0.6590 -0.0849  0.0341
 1022MOL0     C37839   2.114   3.380   6.508 -0.5414 -0.1027 -1.3736
 1022MOL0     C37840   2.026   3.331   6.406  0.0859 -0.8686  0.3442
 1022MOL0     C37841   2.075   3.276   6.287 -0.1944 -0.1003  0.1206
 1022MOL0     C37842   2.212   3.253   6.275 -0.7865 -0.3861 -0.5093
 1022MOL0     O37843   2.267   3.204   6.164 -0.1665 -0.4065 -0.3467
 1022MOL0     C37844   2.196   3.114   6.076 -0.2352 -0.2218 -0.2095
 1022MOL0     C37845   2.121   3.183   5.967 -0.7888 -0.5839 -0.4395
 1022MOL0     C37846   2.200   3.268   5.871 -0.7428 -0.1316 -0.0865
 1022MOL0     C37847   2.326   3.202   5.819 -0.0154  0.7041  0.3770
 1022MOL0     C37848   2.395   3.277   5.700  0.2099 -0.0459 -0.0653
 1022MOL0     C37849   2.321   3.276   5.563 -0.2551  0.3295  0.1623
 1022MOL0     C37850   2.350   3.148   5.480  0.2959  0.8415 -0.4292
 1022MOL0     C37851   2.464   3.163   5.378 -0.1954 -0.3243  0.1063
 1022MOL0     N37852   2.446   3.246   5.261  0.8123  0.5593 -0.1229
 1022MOL0     C37853   2.362   3.227   5.153  0.4956  0.0246 -0.3217
 1022MOL0     C37854   2.371   3.331   5.069 -0.2412  0.5913 -0.5644
 1022MOL0     C37855   2.324   3.325   4.923  0.7487 -0.3842 -0.3285
 1022MOL0     C37856   2.448   3.324   4.824  0.2147  0.4731 -0.6678
 1022MOL0     C37857   2.399   3.314   4.681  0.5500 -0.3492  0.1973
 1022MOL0     C37858   2.506   3.351   4.580  0.2749  0.5106  0.2948
 1022MOL0     O37859   2.594   3.238   4.565 -0.1093  0.0307  0.2615
 1022MOL0     C37860   2.727   3.249   4.529  0.2665 -0.1136  1.0850
 1022MOL0     C37861   2.779   3.366   4.476  0.3658 -0.3533 -0.7295
 1022MOL0     C37862   2.915   3.375   4.451  0.1332  0.0004 -0.0217
 1022MOL0     C37863   3.000   3.277   4.474 -0.2822 -0.2708  0.5255
 1022MOL0     C37864   3.140   3.275   4.446 -0.8088 -0.2456 -0.9834
 1022MOL0     O37865   3.201   3.391   4.439  0.5383  0.5914 -0.2183
 1022MOL0     C37866   3.341   3.403   4.444  0.0925  0.2330  0.8397
 1022MOL0     C37867   3.392   3.485   4.538  0.5277 -0.7240 -0.7470
 1022MOL0     C37868   3.526   3.505   4.556 -0.7473  0.0534  0.0129
 1022MOL0     C37869   3.620   3.443   4.478  0.0149 -0.2046  0.9847
 1022MOL0     O37870   3.759   3.467   4.486  0.2034  0.4371  0.4115
 1022MOL0     C37871   3.805   3.585   4.541  0.5717 -0.0249 -0.4887
 1022MOL0     C37872   3.953   3.593   4.527  1.0480  0.0039  0.2368
 1022MOL0     C37873   4.005   3.608   4.383  0.4041  0.1102 -0.6531
 1022MOL0     C37874   4.154   3.625   4.390  0.4622 -0.5132  0.3757
 1022MOL0     C37875   4.203   3.771   4.404  0.0801 -0.1537 -0.2676
 1022MOL0     C37876   4.357   3.780   4.401  0.1680 -0.2118  0.4321
 1022MOL0     C37877   4.407   3.916   4.433  0.4622  0.1490  0.5440
 1022MOL0     C37878   4.550   3.937   4.425 -0.2124 -1.0943 -0.2648
 1022MOL0    Cl37879   4.650   3.874   4.560  0.4000  0.0490  0.1327
 1022MOL0     C37880   3.575   3.350   4.383  0.1399  0.1095  0.4768
 1022MOL0     C37881   3.434   3.328   4.370  0.4846 -0.7935  0.8624
 1022MOL0     O37882   3.197   3.166   4.425  0.9480 -0.6103 -0.3177
 1022MOL0     C37883   2.946   3.146   4.519 -0.1762  0.5069  0.2905
 1022MOL0     C37884   2.807   3.141   4.538 -0.5634  0.7493 -0.6166
 1022MOL0     N37885   2.465   3.420   5.122  0.1687  0.8989  0.0773
 1022MOL0     N37886   2.497   3.375   5.240  0.5197 -0.0991 -0.5265
 1022MOL0     C37887   2.292   3.288   6.378 -0.7558  0.0502 -0.5443
 1022MOL0     C37888   2.252   3.346   6.506 -0.1898  0.0867 -0.3630
 1022MOL0     C37889   1.926   3.444   6.816  0.6294  0.0109  0.4196
 1022MOL0     C37890   1.915   3.577   6.801  0.0924 -0.9332  0.0640
 1022MOL0     C37891   1.842   3.663   6.886  1.0706 -0.0762 -0.1672
 1022MOL0     C37892   1.771   3.609   6.993  0.0881 -0.4395 -0.1914
 1022MOL0     O37893   1.701   3.681   7.082  0.3387 -0.1214  0.4605
 1022MOL0     C37894   1.693   3.824   7.086 -0.6062 -0.6873  0.1523
 1022MOL0     C37895   1.587   3.873   6.986 -0.2838 -0.8539  0.6095
 1022MOL0     C37896   1.559   4.024   7.025 -1.1381 -0.1396  0.4969
 1022MOL0     C37897   1.575   4.122   6.902 -0.1504 -0.0356 -0.3871
 1022MOL0     C37898   1.711   4.158   6.879  0.9901  0.0152  0.4300
 1022MOL0     C37899   1.823   4.192   6.844 -0.2545  0.9010 -0.7879
 1022MOL0     C37900   1.779   3.468   7.012  0.0399  0.0457  0.3374
 1022MOL0     C37901   1.855   3.388   6.928 -0.3078 -0.3183 -0.5344
 1022MOL0     C37902   1.867   3.235   6.954  0.2469  0.3316  1.3430
 1022MOL0     H37903   1.918   3.334   6.417  0.1044  2.4574  0.8354
 1022MOL0     H37904   2.009   3.236   6.211 -1.2328 -1.0328  1.4788
 1022MOL0     H37905   2.267   3.045   6.030  1.2263  1.6539 -0.9079
 1022MOL0     H37906   2.121   3.055   6.130 -0.8788  1.3195  0.6477
 1022MOL0     H37907   2.042   3.249   6.005  1.0062  0.5338  1.5293
 1022MOL0     H37908   2.077   3.108   5.901  0.1786 -0.6559 -1.0206
 1022MOL0     H37909   2.227   3.369   5.904  1.3508 -0.2080 -1.3286
 1022MOL0     H37910   2.133   3.279   5.785 -1.9163  1.6469  0.9921
 1022MOL0     H37911   2.392   3.179   5.903  1.0670 -4.6666 -1.5152
 1022MOL0     H37912   2.288   3.107   5.780 -3.0783  1.8671  0.2230
 1022MOL0     H37913   2.420   3.379   5.731  0.6409 -0.6827  1.8126
 1022MOL0     H37914   2.490   3.224   5.688  0.8686  1.2570 -0.7813
 1022MOL0     H37915   2.215   3.266   5.588  0.2027  2.5487  3.6886
 1022MOL0     H37916   2.346   3.367   5.509  2.0086  0.9978  2.1751
 1022MOL0     H37917   2.254   3.117   5.437 -1.8709  1.3789  3.5278
 1022MOL0     H37918   2.368   3.068   5.553 -0.3376  1.0906  0.0060
 1022MOL0     H37919   2.563   3.190   5.417 -0.5938  0.3623  0.6481
 1022MOL0     H37920   2.476   3.062   5.335 -0.5744 -0.3573  0.0805
 1022MOL0     H37921   2.305   3.136   5.136 -0.9973  0.8966 -0.1422
 1022MOL0     H37922   2.265   3.235   4.903  0.3530 -0.9678  2.9262
 1022MOL0     H37923   2.266   3.416   4.907 -0.2567 -0.8729  0.4245
 1022MOL0     H37924   2.506   3.415   4.841  1.8554 -0.6607  0.0178
 1022MOL0     H37925   2.508   3.237   4.852  3.0630  3.1242  2.2078
 1022MOL0     H37926   2.315   3.383   4.672  2.0774  1.4326 -1.5465
 1022MOL0     H37927   2.370   3.209   4.671  0.3336 -0.2213 -0.5617
 1022MOL0     H37928   2.559   3.444   4.604 -0.8123  0.8051  1.7410
 1022MOL0     H37929   2.454   3.381   4.488  1.3614  1.2063 -0.1099
 1022MOL0     H37930   2.728   3.461   4.487  0.2573 -0.2914 -1.7139
 1022MOL0     H37931   2.949   3.472   4.416  1.5759 -0.0882  1.0661
 1022MOL0     H37932   3.325   3.550   4.593  2.7292  2.5389 -1.5711
 1022MOL0     H37933   3.560   3.581   4.626 -1.2546  0.5170 -0.2366
 1022MOL0     H37934   3.751   3.670   4.500 -0.8661  1.5425  3.9821
 1022MOL0     H37935   3.780   3.582   4.648 -1.7075 -0.5175 -0.9684
 1022MOL0     H37936   3.990   3.675   4.589  1.8089 -0.9160  1.0220
 1022MOL0     H37937   3.991   3.503   4.576 -0.3864  0.5381  2.4824
 1022MOL0     H37938   3.993   3.520   4.319 -0.0931 -0.7742  0.6191
 1022MOL0     H37939   3.959   3.696   4.337 -0.6740 -0.2595 -0.3095
 1022MOL0     H37940   4.197   3.575   4.302 -0.7705 -2.8118  0.9895
 1022MOL0     H37941   4.198   3.574   4.476 -2.1788 -0.5240  1.8109
 1022MOL0     H37942   4.169   3.806   4.502 -2.9719 -1.0557 -0.8738
 1022MOL0     H37943   4.155   3.834   4.329  1.1334  0.2868 -0.5906
 1022MOL0     H37944   4.401   3.714   4.476 -1.3365 -0.0450  1.5097
 1022MOL0     H37945   4.381   3.760   4.296 -1.1928 -0.9326  0.2493
 1022MOL0     H37946   4.376   3.942   4.535 -1.8493  0.3074 -0.1442
 1022MOL0     H37947   4.363   3.993   4.369 -0.3448  0.6295  1.6379
 1022MOL0     H37948   4.593   3.916   4.327  2.0776 -0.8559  0.6381
 1022MOL0     H37949   4.556   4.045   4.436  2.3532 -1.1828 -0.3702
 1022MOL0     H37950   3.647   3.291   4.327  0.2590  0.1240  0.6138
 1022MOL0     H37951   3.393   3.274   4.286  2.8181  1.1835 -1.7286
 1022MOL0     H37952   3.000   3.053   4.533 -1.5689 -0.2383  0.9837
 1022MOL0     H37953   2.760   3.050   4.574  0.2385  0.9524  1.0312
 1022MOL0     H37954   2.398   3.265   6.376 -0.0575  1.3972  4.8173
 1022MOL0     H37955   2.319   3.371   6.587  0.3730 -0.3762 -0.6774
 1022MOL0     H37956   1.956   3.623   6.712 -0.6403  1.7077  1.0007
 1022MOL0     H37957   1.835   3.766   6.852  0.8246 -1.3039 -4.4623
 1022MOL0     H37958   1.789   3.869   7.059 -1.5212  0.9433 -0.5310
 1022MOL0     H37959   1.678   3.854   7.190  2.3869 -1.7536  0.9911
 1022MOL0     H37960   1.501   3.808   7.003 -0.6233  0.0712  2.7455
 1022MOL0     H37961   1.611   3.862   6.880 -2.7847 -1.0034  0.0028
 1022MOL0     H37962   1.617   4.059   7.112  3.2638 -2.4517 -1.1697
 1022MOL0     H37963   1.453   4.024   7.048 -2.1025 -0.7983 -3.3017
 1022MOL0     H37964   1.525   4.068   6.821 -1.9199 -0.3603  0.8666
 1022MOL0     H37965   1.510   4.206   6.932  0.5432  0.1278  0.7116
 1022MOL0     H37966   1.924   4.207   6.811  1.0995 -3.6652  0.4273
 1022MOL0     H37967   1.723   3.425   7.094  0.6866  1.3101  1.4820
 1022MOL0     H37968   1.819   3.197   7.045 -0.0142  0.1658  1.1362
 1022MOL0     H37969   1.821   3.180   6.872  0.9863 -1.9174  2.3507
 1022MOL0     H37970   1.971   3.202   6.957  0.5754  0.7066 -2.2419
 1023MOL0     O37971   5.966   1.581   3.639 -0.5140 -0.3842 -0.6691
 1023MOL0     C37972   6.003   1.690   3.700 -0.5227  0.7979 -1.3417
 1023MOL0     O37973   5.935   1.807   3.698 -0.1453 -0.2209 -0.4971
 1023MOL0     C37974   5.830   1.820   3.604  0.2566  0.4701  0.3441
 1023MOL0     C37975   5.865   1.856   3.473 -0.1957 -0.2414 -1.1576
 1023MOL0     C37976   5.761   1.882   3.381 -0.5455  0.1553  0.7019
 1023MOL0     C37977   5.630   1.869   3.413  0.2071  0.3338 -1.2988
 1023MOL0     O37978   5.521   1.904   3.328  0.2623 -0.0522  0.1610
 1023MOL0     C37979   5.557   1.927   3.189  0.3435  0.1547 -0.4726
 1023MOL0     C37980   5.436   1.903   3.099  0.4202 -0.2391 -0.0024
 1023MOL0     C37981   5.395   1.756   3.108 -0.0240  0.5875 -0.0678
 1023MOL0     C37982   5.367   1.702   2.968 -0.5850  0.1556  0.0396
 1023MOL0     C37983   5.345   1.556   2.950  0.1391  0.2675 -0.0414
 1023MOL0     C37984   5.475   1.465   2.929 -0.0249  0.1472 -0.2933
 1023MOL0     C37985   5.546   1.476   2.790 -1.1238 -0.5369  0.0031
 1023MOL0     C37986   5.659   1.387   2.780  0.2172 -0.2341  0.2879
 1023MOL0     N37987   5.777   1.474   2.750 -0.0098  0.3879  0.1161
 1023MOL0     C37988   5.902   1.487   2.807 -0.1055  0.1147 -0.0271
 1023MOL0     C37989   5.975   1.569   2.731  0.0017  0.3852 -0.5199
 1023MOL0     C37990   6.120   1.618   2.759  0.3411  0.5179  0.5796
 1023MOL0     C37991   6.166   1.718   2.655  0.6623  0.1878 -0.5914
 1023MOL0     C37992   6.276   1.810   2.702 -0.2480  0.6017 -0.4089
 1023MOL0     C37993   6.422   1.764   2.685 -0.4891 -0.1172 -0.4540
 1023MOL0     O37994   6.509   1.869   2.710 -0.0120 -0.2117  0.3181
 1023MOL0     C37995   6.637   1.862   2.663 -0.4922  0.0121  0.1050
 1023MOL0     C37996   6.688   1.744   2.598  0.3974  0.0254 -0.3584
 1023MOL0     C37997   6.821   1.743   2.554  0.1467  0.5118  0.0785
 1023MOL0     C37998   6.897   1.863   2.567 -0.6819 -0.6185 -1.4260
 1023MOL0     C37999   7.033   1.882   2.501  0.3203  0.5616  0.2727
 1023MOL0     O38000   7.103   1.764   2.473 -0.1449  0.6327 -0.5614
 1023MOL0     C38001   7.238   1.750   2.472  0.2491  0.9558  0.2183
 1023MOL0     C38002   7.328   1.844   2.414  0.3586 -0.0039 -0.2254
 1023MOL0     C38003   7.461   1.810   2.415  0.9339 -0.4845 -0.0551
 1023MOL0     C38004   7.516   1.694   2.469  0.0051 -0.5239  0.4543
 1023MOL0     O38005   7.649   1.663   2.456 -0.2020  0.1476 -0.2558
 1023MOL0     C38006   7.737   1.776   2.437 -0.0595 -0.2491 -0.7936
 1023MOL0     C38007   7.880   1.733   2.456 -0.1226 -1.0272  0.3297
 1023MOL0     C38008   7.922   1.601   2.390 -0.1434  0.2371 -0.5886
 1023MOL0     C38009   8.075   1.590   2.387  0.0987 -0.0095 -0.7324
 1023MOL0     C38010   8.138   1.459   2.334  0.2892  0.0145 -0.3481
 1023MOL0     C38011   8.165   1.367   2.452 -0.5611  1.1587  0.6044
 1023MOL0     C38012   8.228   1.239   2.391  0.1872 -0.2529  0.0673
 1023MOL0     C38013   8.274   1.150   2.516  0.0322 -0.0020  0.0078
 1023MOL0    Cl38014   8.436   1.188   2.570  0.1505 -0.5265 -0.4127
 1023MOL0     C38015   7.427   1.601   2.522  0.7721 -0.9543  0.4520
 1023MOL0     C38016   7.291   1.631   2.530 -0.3742  0.0004  0.5218
 1023MOL0     O38017   7.075   1.995   2.483 -0.1721  0.0783  0.0184
 1023MOL0     C38018   6.848   1.971   2.644 -0.2725  0.0438 -0.7348
 1023MOL0     C38019   6.715   1.973   2.690 -0.9150  0.7469  0.6746
 1023MOL0     N38020   5.897   1.603   2.623  0.4747 -0.4716 -0.4440
 1023MOL0     N38021   5.779   1.547   2.639  0.6607 -1.0767 -0.0474
 1023MOL0     C38022   5.593   1.833   3.540 -0.7387 -0.0600 -0.3614
 1023MOL0     C38023   5.694   1.811   3.640  0.1200 -0.1762  0.6740
 1023MOL0     C38024   6.138   1.686   3.781  0.0493  0.2519 -0.1065
 1023MOL0     C38025   6.134   1.715   3.920 -0.1382  0.0280  0.3631
 1023MOL0     C38026   6.252   1.689   3.998  0.1706  0.7194 -0.3666
 1023MOL0     C38027   6.364   1.628   3.949  1.6408  0.6336  0.4768
 1023MOL0     O38028   6.465   1.617   4.040  0.4287  0.0125 -0.5214
 1023MOL0     C38029   6.586   1.555   4.007  0.5922 -0.7947 -0.5431
 1023MOL0     C38030   6.562   1.408   4.027  0.2432 -0.2280  0.4892
 1023MOL0     C38031   6.699   1.346   3.975 -0.7064  0.0105  0.0595
 1023MOL0     C38032   6.690   1.195   3.978 -0.7590  0.2831  0.2182
 1023MOL0     C38033   6.640   1.135   4.100  0.5648  0.1319 -0.0241
 1023MOL0     C38034   6.574   1.101   4.191  0.6486  0.5179  0.0775
 1023MOL0     C38035   6.362   1.603   3.813 -0.7830 -0.5201  0.6734
 1023MOL0     C38036   6.252   1.633   3.731  0.4615  0.3902 -0.5056
 1023MOL0     C38037   6.279   1.623   3.583  0.9981  0.7309  0.7105
 1023MOL0     H38038   5.967   1.876   3.441  0.0657  1.5870  0.5673
 1023MOL0     H38039   5.783   1.919   3.281  0.4973  2.0174  1.5570
 1023MOL0     H38040   5.588   2.031   3.179  3.2380 -0.5364  0.2629
 1023MOL0     H38041   5.630   1.856   3.149 -1.2025 -1.1988 -1.0512
 1023MOL0     H38042   5.458   1.939   2.998  0.3443 -1.7731 -0.5977
 1023MOL0     H38043   5.348   1.960   3.131  0.0872  0.6619 -2.3146
 1023MOL0     H38044   5.308   1.743   3.173 -1.7976  1.4200 -2.1266
 1023MOL0     H38045   5.479   1.697   3.145 -0.8851 -1.6132 -1.4183
 1023MOL0     H38046   5.272   1.746   2.934 -1.4769 -0.2505  1.8820
 1023MOL0     H38047   5.443   1.744   2.901 -0.4280 -0.9160 -0.4638
 1023MOL0     H38048   5.278   1.512   3.024  1.9604 -0.7687  1.0833
 1023MOL0     H38049   5.293   1.542   2.855 -1.2312  1.1015  0.5583
 1023MOL0     H38050   5.546   1.487   3.009 -1.2042 -0.2710  0.8969
 1023MOL0     H38051   5.434   1.364   2.932 -0.0899  0.1925  1.3155
 1023MOL0     H38052   5.577   1.579   2.771 -1.4178 -0.4259  0.1183
 1023MOL0     H38053   5.478   1.456   2.706  0.1738 -2.7066 -0.6182
 1023MOL0     H38054   5.672   1.325   2.870 -0.1173 -1.6094 -0.5724
 1023MOL0     H38055   5.651   1.321   2.693  2.0681 -1.6465  1.1089
 1023MOL0     H38056   5.928   1.426   2.892 -1.8875  0.5841  0.8904
 1023MOL0     H38057   6.108   1.659   2.860 -0.3452  2.6314 -0.3303
 1023MOL0     H38058   6.189   1.533   2.763  0.8038  0.7186 -1.9775
 1023MOL0     H38059   6.182   1.677   2.555 -1.2912  2.0925 -1.7613
 1023MOL0     H38060   6.087   1.789   2.630 -0.5006 -0.1427  1.8183
 1023MOL0     H38061   6.267   1.841   2.806  1.8209  1.4415 -0.4272
 1023MOL0     H38062   6.265   1.893   2.631 -0.9898 -1.1248 -2.4298
 1023MOL0     H38063   6.436   1.733   2.581  2.2546  3.3345 -1.2769
 1023MOL0     H38064   6.448   1.684   2.755  0.1961  0.5434  0.0625
 1023MOL0     H38065   6.626   1.659   2.571  2.4103 -1.3218 -0.9522
 1023MOL0     H38066   6.868   1.659   2.503  2.6417  2.0399 -0.2964
 1023MOL0     H38067   7.299   1.935   2.362  2.3451  1.0762  0.4362
 1023MOL0     H38068   7.526   1.886   2.372 -0.2793  1.5599  1.5088
 1023MOL0     H38069   7.727   1.827   2.341  0.8061  1.4873 -0.0156
 1023MOL0     H38070   7.717   1.853   2.512 -2.3541 -2.9115  1.5707
 1023MOL0     H38071   7.939   1.815   2.414 -2.0605 -0.0534 -0.6181
 1023MOL0     H38072   7.911   1.716   2.560 -0.5677  1.3884  0.9202
 1023MOL0     H38073   7.882   1.533   2.466  0.3753  0.7667  0.1766
 1023MOL0     H38074   7.885   1.600   2.287  1.8766 -0.7567 -1.3536
 1023MOL0     H38075   8.120   1.600   2.487  1.3196 -1.8924 -1.0453
 1023MOL0     H38076   8.118   1.675   2.333  3.4300 -1.7592 -1.1030
 1023MOL0     H38077   8.232   1.485   2.285  0.1780  0.0347 -0.5488
 1023MOL0     H38078   8.068   1.411   2.266 -1.2947 -0.2776  1.3809
 1023MOL0     H38079   8.245   1.415   2.510  2.3490 -3.6474  1.1205
 1023MOL0     H38080   8.079   1.337   2.511 -1.3822 -1.9055 -1.8801
 1023MOL0     H38081   8.323   1.256   2.340 -0.6805  0.7460 -1.2996
 1023MOL0     H38082   8.164   1.186   2.320 -1.3713  0.9268  0.5546
 1023MOL0     H38083   8.195   1.153   2.591  0.3648 -1.0479  0.4180
 1023MOL0     H38084   8.280   1.044   2.490  1.5989  0.4036 -1.5114
 1023MOL0     H38085   7.464   1.510   2.568  0.2048 -1.4224 -0.0049
 1023MOL0     H38086   7.222   1.558   2.573  0.7699 -2.4285 -1.5128
 1023MOL0     H38087   6.914   2.054   2.665  2.2168 -2.1069  0.6517
 1023MOL0     H38088   6.675   2.065   2.731  1.4161  1.6935  1.0090
 1023MOL0     H38089   5.488   1.820   3.566 -1.0647 -1.8948 -2.3156
 1023MOL0     H38090   5.657   1.790   3.740  0.1937 -1.8297  0.3788
 1023MOL0     H38091   6.041   1.761   3.951 -2.1846 -2.9979 -0.7540
 1023MOL0     H38092   6.251   1.716   4.103 -0.3970  0.0586 -0.1993
 1023MOL0     H38093   6.668   1.583   4.073  0.9203  2.5771 -2.1960
 1023MOL0     H38094   6.613   1.586   3.906 -0.6214 -0.8578 -0.9011
 1023MOL0     H38095   6.485   1.372   3.958 -1.8880  0.5804  2.3662
 1023MOL0     H38096   6.542   1.394   4.133  2.6948  1.1685  1.2283
 1023MOL0     H38097   6.786   1.379   4.033 -0.7303  1.5702 -0.7165
 1023MOL0     H38098   6.713   1.374   3.870 -0.8121  2.6355  0.6768
 1023MOL0     H38099   6.627   1.165   3.894 -1.0010  1.5616 -0.0800
 1023MOL0     H38100   6.788   1.154   3.951 -1.7084 -0.0578 -3.1528
 1023MOL0     H38101   6.530   1.063   4.281 -1.1296  1.7951 -0.1975
 1023MOL0     H38102   6.455   1.558   3.782  1.1894  3.7389 -0.4122
 1023MOL0     H38103   6.385   1.640   3.565  0.7018 -0.2559 -2.6653
 1023MOL0     H38104   6.241   1.526   3.550  0.4492  1.1433  0.0958
 1023MOL0     H38105   6.226   1.707   3.536 -1.1800 -0.5066  0.8426
 1024MOL0     O38106   0.869   6.208   0.065  0.5860 -0.5589 -0.9810
 1024MOL0     C38107   0.885   6.100   0.118 -0.0267 -0.2397 -0.6283
 1024MOL0     O38108   0.972   6.071   0.222  0.2208  0.0981  0.2261
 1024MOL0     C38109   1.064   6.163   0.262  0.5297  0.3828 -0.4224
 1024MOL0     C38110   1.171   6.201   0.188  0.3106 -1.8355  0.4043
 1024MOL0     C38111   1.269   6.289   0.239  0.0273 -0.5605  0.7328
 1024MOL0     C38112   1.282   6.325   0.370  1.0593 -0.0552 -0.4667
 1024MOL0     O38113   1.385   6.400   0.413  0.5687 -0.6560  0.4811
 1024MOL0     C38114   1.398   6.435   0.547 -0.3938  0.0361  0.1881
 1024MOL0     C38115   1.546   6.491   0.568 -0.0535 -0.2636 -0.2930
 1024MOL0     C38116   1.567   6.626   0.509 -0.2930 -0.1792 -0.1801
 1024MOL0     C38117   1.487   6.743   0.571 -0.4028  0.5253  0.4189
 1024MOL0     C38118   1.554   6.884   0.558 -0.0951 -0.3469  1.4460
 1024MOL0     C38119   1.695   6.900   0.619  0.9179 -0.3952 -0.1138
 1024MOL0     C38120   1.755   7.043   0.600 -0.3430 -0.0383  0.1089
 1024MOL0     C38121   1.678   7.157   0.661  0.1818 -0.1556  0.6487
 1024MOL0     N38122   1.756   7.279   0.655 -0.1065  0.0977 -0.8815
 1024MOL0     C38123   1.860   7.319   0.743 -0.1214 -1.0760  0.0116
 1024MOL0     C38124   1.903   7.438   0.689 -0.7543  0.4505 -0.3221
 1024MOL0     C38125   2.006   7.529   0.754 -0.0199 -0.6796 -0.6316
 1024MOL0     C38126   2.146   7.466   0.739  0.3305  0.1441 -0.2803
 1024MOL0     C38127   2.154   7.321   0.781 -0.2669  0.4856  0.6288
 1024MOL0     C38128   2.303   7.272   0.782  0.3624 -0.4124  0.6289
 1024MOL0     O38129   2.379   7.360   0.864 -0.3029  0.2710 -0.3687
 1024MOL0     C38130   2.511   7.379   0.844 -0.3590 -0.3386 -0.2264
 1024MOL0     C38131   2.605   7.299   0.771  0.5292 -0.1055  1.0986
 1024MOL0     C38132   2.739   7.339   0.756 -0.6113 -0.5275 -0.9602
 1024MOL0     C38133   2.780   7.462   0.827  0.6689  0.0655  0.7190
 1024MOL0     C38134   2.917   7.512   0.813 -1.2742  0.2617 -0.1378
 1024MOL0     O38135   3.002   7.440   0.724 -0.0914  0.3154  0.6020
 1024MOL0     C38136   3.130   7.478   0.727 -0.3392 -0.3726 -1.0710
 1024MOL0     C38137   3.173   7.569   0.640  0.1548  0.3512  0.1875
 1024MOL0     C38138   3.305   7.617   0.650  0.2423 -0.8229 -0.5648
 1024MOL0     C38139   3.399   7.560   0.731  0.3225 -0.0054 -0.6269
 1024MOL0     O38140   3.533   7.583   0.727 -0.1034 -0.4687 -0.3516
 1024MOL0     C38141   3.581   7.715   0.729 -0.6679  0.6845 -0.0567
 1024MOL0     C38142   3.737   7.705   0.756  0.1137 -0.8402  0.0132
 1024MOL0     C38143   3.824   7.824   0.684  0.6747  0.2493  0.7631
 1024MOL0     C38144   3.977   7.784   0.680  1.4742  0.4025 -0.3093
 1024MOL0     C38145   4.032   7.793   0.818 -0.1896  0.7193 -1.2368
 1024MOL0     C38146   4.185   7.783   0.809  0.4531  0.1686  0.9834
 1024MOL0     C38147   4.237   7.763   0.947  0.0428 -1.1026 -0.0818
 1024MOL0     C38148   4.384   7.777   0.957 -0.1182  0.0233 -0.7035
 1024MOL0    Cl38149   4.455   7.940   0.914 -0.0393 -0.4424  0.4254
 1024MOL0     C38150   3.358   7.461   0.820 -0.0523 -0.9138  0.3132
 1024MOL0     C38151   3.226   7.412   0.821  0.9309 -0.7269 -0.2404
 1024MOL0     O38152   2.947   7.611   0.868 -0.1923 -0.0812  0.4406
 1024MOL0     C38153   2.682   7.530   0.907  0.0467  0.3249  0.1318
 1024MOL0     C38154   2.551   7.487   0.911 -0.2804 -0.2844 -0.2546
 1024MOL0     N38155   1.829   7.470   0.581  1.1057  0.1246  0.3170
 1024MOL0     N38156   1.752   7.371   0.560 -0.0577 -0.1194  0.3076
 1024MOL0     C38157   1.170   6.287   0.446  0.1621  0.8141 -0.8175
 1024MOL0     C38158   1.064   6.207   0.396  0.4587 -0.2778 -0.1662
 1024MOL0     C38159   0.792   5.997   0.063  0.2603 -0.1656  0.3479
 1024MOL0     C38160   0.798   5.984  -0.075 -0.7986  0.2351 -0.0022
 1024MOL0     C38161   0.752   5.868  -0.140  1.0098 -0.1440 -0.6900
 1024MOL0     C38162   0.679   5.768  -0.071 -0.2671 -0.8501 -0.5840
 1024MOL0     O38163   0.620   5.652  -0.130 -0.3332 -0.0851  0.1929
 1024MOL0     C38164   0.659   5.611  -0.262  0.1320 -0.5925 -0.6241
 1024MOL0     C38165   0.594   5.469  -0.286  0.7289 -0.5571 -0.1908
 1024MOL0     C38166   0.442   5.463  -0.237 -0.1477 -0.1024  0.4092
 1024MOL0     C38167   0.366   5.560  -0.333  0.4282 -0.3262  0.3443
 1024MOL0     C38168   0.225   5.585  -0.299  0.6952  0.3449  0.8705
 1024MOL0     C38169   0.107   5.607  -0.276  0.1802  0.1039  0.1584
 1024MOL0     C38170   0.668   5.789   0.065  0.3817 -0.1228 -0.5852
 1024MOL0     C38171   0.715   5.901   0.129  0.1571 -0.2077 -0.6776
 1024MOL0     C38172   0.723   5.901   0.272  0.6918 -0.6854 -1.3364
 1024MOL0     H38173   1.181   6.170   0.084 -1.1926  0.7897 -0.6280
 1024MOL0     H38174   1.339   6.320   0.163  0.8688  0.6966  1.9648
 1024MOL0     H38175   1.322   6.507   0.578  0.1116  0.9111 -0.5316
 1024MOL0     H38176   1.384   6.347   0.611 -2.4066  0.6944  0.7259
 1024MOL0     H38177   1.619   6.424   0.520  0.3778 -0.1304  0.1635
 1024MOL0     H38178   1.571   6.492   0.674  3.4098  3.8165 -0.8894
 1024MOL0     H38179   1.546   6.621   0.402  0.6023  0.2816 -0.3849
 1024MOL0     H38180   1.675   6.637   0.513 -0.0352 -2.2864 -0.1469
 1024MOL0     H38181   1.382   6.736   0.541  0.7602 -1.3665 -3.9079
 1024MOL0     H38182   1.477   6.737   0.680  3.3703  1.4015  0.9508
 1024MOL0     H38183   1.560   6.910   0.452  0.1662  2.1042  1.9890
 1024MOL0     H38184   1.482   6.956   0.599 -2.5222 -2.3692  0.9481
 1024MOL0     H38185   1.694   6.869   0.723 -0.3005  1.7137  0.5656
 1024MOL0     H38186   1.771   6.833   0.578  2.2049 -0.8782  2.8313
 1024MOL0     H38187   1.774   7.067   0.495 -0.2382 -0.5902 -0.0021
 1024MOL0     H38188   1.850   7.043   0.653  0.3375  3.2033 -0.8633
 1024MOL0     H38189   1.579   7.168   0.615  0.6748 -1.4678 -0.8107
 1024MOL0     H38190   1.665   7.135   0.767  1.4897 -1.1037  0.6300
 1024MOL0     H38191   1.893   7.267   0.833  4.3035 -1.4930 -1.5782
 1024MOL0     H38192   2.004   7.626   0.703  0.7725 -1.5100 -2.3137
 1024MOL0     H38193   1.990   7.547   0.861 -1.5454  1.1183 -1.0979
 1024MOL0     H38194   2.156   7.455   0.631  1.1338  0.2618 -0.2176
 1024MOL0     H38195   2.223   7.529   0.784  1.4850 -2.8039  2.2131
 1024MOL0     H38196   2.087   7.256   0.723  0.4423  0.6822 -0.4542
 1024MOL0     H38197   2.128   7.309   0.886 -0.5421  2.9464  0.9037
 1024MOL0     H38198   2.338   7.278   0.678  1.3733  3.5962  1.0527
 1024MOL0     H38199   2.300   7.165   0.807  2.3660  0.1924  4.0670
 1024MOL0     H38200   2.565   7.221   0.707  1.6710  2.6423 -3.3784
 1024MOL0     H38201   2.797   7.288   0.679  0.9426 -1.6018  0.8362
 1024MOL0     H38202   3.111   7.601   0.557  0.6007  2.4002  0.5930
 1024MOL0     H38203   3.341   7.694   0.582  0.7081  0.0240  0.6146
 1024MOL0     H38204   3.561   7.757   0.630 -3.4161 -1.6353 -0.6199
 1024MOL0     H38205   3.521   7.768   0.803 -0.1592 -0.8252  1.5355
 1024MOL0     H38206   3.749   7.713   0.864 -0.5737  1.3329 -0.0310
 1024MOL0     H38207   3.771   7.605   0.726 -2.3224 -1.1977 -1.9498
 1024MOL0     H38208   3.781   7.828   0.583 -0.3756 -4.6041  0.7718
 1024MOL0     H38209   3.812   7.921   0.733  0.9323  1.5875 -1.6632
 1024MOL0     H38210   4.031   7.849   0.610  0.6433  1.3362 -0.1045
 1024MOL0     H38211   3.986   7.679   0.648 -2.3758  0.0616 -0.8395
 1024MOL0     H38212   3.996   7.712   0.882  0.1033  1.3344 -0.2791
 1024MOL0     H38213   4.002   7.879   0.878  0.8759  0.1187  0.1981
 1024MOL0     H38214   4.203   7.696   0.745 -5.1848 -0.7650  0.2015
 1024MOL0     H38215   4.231   7.870   0.761 -1.0352  1.2594  1.4821
 1024MOL0     H38216   4.208   7.664   0.984  0.8970 -1.7480 -1.0882
 1024MOL0     H38217   4.202   7.843   1.014 -0.0162 -2.3802  1.4827
 1024MOL0     H38218   4.411   7.765   1.062 -0.7502 -1.9548 -0.7302
 1024MOL0     H38219   4.436   7.698   0.901 -0.0724 -1.4613  1.3530
 1024MOL0     H38220   3.439   7.414   0.875  2.5341  1.2781 -1.4013
 1024MOL0     H38221   3.195   7.343   0.899 -0.2511 -0.7173 -0.6802
 1024MOL0     H38222   2.716   7.618   0.961  2.1284  1.0110 -2.0867
 1024MOL0     H38223   2.478   7.548   0.963 -1.6764 -0.4989 -1.9032
 1024MOL0     H38224   1.157   6.321   0.548 -1.0241 -0.8456 -0.3756
 1024MOL0     H38225   0.993   6.177   0.473  0.2931  1.0782  0.2480
 1024MOL0     H38226   0.844   6.058  -0.140  3.6163 -0.7764  1.5943
 1024MOL0     H38227   0.759   5.852  -0.247 -3.4081 -1.3332 -0.9695
 1024MOL0     H38228   0.768   5.606  -0.259  0.1788  0.0548 -0.9885
 1024MOL0     H38229   0.638   5.689  -0.335  1.1632 -1.5187 -1.9550
 1024MOL0     H38230   0.645   5.388  -0.233 -2.7315 -1.3680  2.2352
 1024MOL0     H38231   0.596   5.434  -0.390  1.1624 -0.1287 -0.3287
 1024MOL0     H38232   0.432   5.488  -0.131  0.3881 -1.9181  0.9167
 1024MOL0     H38233   0.401   5.364  -0.257  2.8319 -1.0351 -1.7226
 1024MOL0     H38234   0.412   5.660  -0.335  1.3362 -0.5747  3.5936
 1024MOL0     H38235   0.384   5.521  -0.433  0.5662  1.2187 -0.2731
 1024MOL0     H38236   0.001   5.622  -0.280  0.0691 -0.4874  0.7033
 1024MOL0     H38237   0.631   5.703   0.120 -0.6077  0.7060  0.0755
 1024MOL0     H38238   0.733   6.005   0.304  2.1527 -1.7159  1.9597
 1024MOL0     H38239   0.645   5.846   0.325  0.1512  0.0897 -1.3142
 1024MOL0     H38240   0.815   5.859   0.314  0.5363 -1.6048 -1.9015
  11.35484  11.35484  11.35484
